Protein in INSANE! Membrane UpperLeaflet>POPC=1.0 LowerLeaflet>POPC=1.0
248719
    1AU     AUC    1  38.549  24.792   7.535
    1AU     AUC    2  38.801  24.797   7.369
    1AU     AUC    3  38.790  24.784   7.699
    1AU     AUC    4  38.279  24.800   7.380
    1AU     AUC    5  38.305  24.829   7.705
    1AU     AUC    6  38.388  25.045   7.513
    1AU     AUC    7  38.735  25.057   7.516
    1AU     AUC    8  38.370  24.538   7.543
    1AU     AUC    9  38.701  24.516   7.545
    1AU     AUC   10  38.543  24.632   7.798
    1AU     AUC   11  38.562  24.972   7.779
    1AU     AUC   12  38.536  24.619   7.287
    1AU     AUC   13  38.556  24.925   7.271
    1AU     AUC   14  39.104  24.788   7.204
    1AU     AUC   15  39.112  24.768   7.545
    1AU     AUC   16  39.070  24.755   7.899
    1AU     AUC   17  37.977  24.774   7.228
    1AU     AUC   18  37.976  24.833   7.556
    1AU     AUC   19  38.005  24.872   7.888
    1AU     AUC   20  38.223  25.358   7.474
    1AU     AUC   21  38.583  25.332   7.457
    1AU     AUC   22  38.949  25.320   7.487
    1AU     AUC   23  38.166  24.249   7.548
    1AU     AUC   24  38.517  24.225   7.529
    1AU     AUC   25  38.873  24.214   7.546
    1AU     AUC   26  38.502  24.466   8.101
    1AU     AUC   27  38.539  24.808   8.101
    1AU     AUC   28  38.596  25.172   8.062
    1AU     AUC   29  38.567  24.429   6.997
    1AU     AUC   30  38.515  24.770   6.973
    1AU     AUC   31  38.512  25.093   6.957
    1AU     AUC   32  38.784  24.570   8.012
    1AU     AUC   33  38.840  24.946   7.987
    1AU     AUC   34  38.839  24.632   7.072
    1AU     AUC   35  38.804  24.944   7.079
    1AU     AUC   36  38.250  24.690   8.000
    1AU     AUC   37  38.297  25.040   7.971
    1AU     AUC   38  38.261  24.589   7.103
    1AU     AUC   39  38.215  24.917   7.083
    1AU     AUC   40  39.042  25.060   7.346
    1AU     AUC   41  39.008  25.057   7.705
    1AU     AUC   42  38.083  25.072   7.383
    1AU     AUC   43  38.128  25.138   7.713
    1AU     AUC   44  39.005  24.509   7.407
    1AU     AUC   45  38.953  24.463   7.739
    1AU     AUC   46  38.084  24.486   7.373
    1AU     AUC   47  38.110  24.560   7.716
    1AU     AUC   48  38.448  25.290   7.782
    1AU     AUC   49  38.787  25.245   7.793
    1AU     AUC   50  38.335  24.357   7.817
    1AU     AUC   51  38.653  24.304   7.809
    1AU     AUC   52  38.358  25.223   7.215
    1AU     AUC   53  38.723  25.239   7.226
    1AU     AUC   54  38.389  24.325   7.258
    1AU     AUC   55  38.749  24.370   7.274
    1AU    AUSL   56  39.048  24.660   8.316
    1AU    AUSL   57  38.798  24.287   8.222
    1AU     AUL   58  39.105  24.288   8.389
    1AU    AUSL   59  38.633  24.602   8.460
    1AU    AUSL   60  38.395  25.011   8.451
    1AU     AUL   61  38.631  24.886   8.710
    1AU    AUSL   62  38.732  24.959   8.204
    1AU    AUSL   63  39.183  25.018   8.126
    1AU     AUL   64  39.001  24.983   8.435
    1AU    AUSL   65  38.956  24.820   6.840
    1AU    AUSL   66  38.817  25.216   6.981
    1AU     AUL   67  39.031  25.148   6.681
    1AU    AUSL   68  38.768  24.498   6.612
    1AU    AUSL   69  39.275  24.568   6.982
    1AU     AUL   70  39.143  24.642   6.665
    1AU    AUSL   71  38.600  25.002   6.670
    1AU    AUSL   72  38.422  24.616   6.829
    1AU     AUL   73  38.553  24.695   6.524
    1AU    AUSL   74  38.011  24.973   8.243
    1AU    AUSL   75  38.374  25.282   8.111
    1AU     AUL   76  38.211  25.250   8.412
    1AU    AUSL   77  38.312  24.660   8.191
    1AU    AUSL   78  37.863  24.583   8.105
    1AU     AUL   79  37.920  24.672   8.341
    1AU    AUSL   80  37.986  24.598   6.795
    1AU    AUSL   81  38.235  24.248   6.947
    1AU     AUL   82  38.259  24.334   6.641
    1AU    AUSL   83  38.172  24.966   6.675
    1AU    AUSL   84  37.892  24.947   7.050
    1AU     AUL   85  37.775  24.828   6.776
    1AU    AUSL   86  39.340  25.255   7.476
    1AU    AUSL   87  39.215  25.045   7.096
    1AU     AUL   88  39.510  25.250   7.128
    1AU    AUSL   89  39.505  24.859   7.367
    1AU    AUSL   90  39.454  24.561   7.768
    1AU     AUL   91  39.716  24.645   7.571
    1AU    AUSL   92  39.227  24.914   7.718
    1AU    AUSL   93  39.185  25.358   7.853
    1AU     AUL   94  39.433  25.098   7.878
    1AU    AUSL   95  37.974  25.435   7.522
    1AU    AUSL   96  38.011  25.187   7.878
    1AU     AUL   97  37.702  25.432   7.745
    1AU    AUSL   98  37.773  25.056   7.444
    1AU    AUSL   99  37.926  25.372   7.106
    1AU     AUL  100  37.690  25.297   7.263
    1AU    AUSL  101  37.646  24.978   7.888
    1AU    AUSL  102  37.613  24.672   7.349
    1AU     AUL  103  37.491  24.989   7.590
    1AU    AUSL  104  39.232  24.212   7.615
    1AU    AUSL  105  39.058  24.495   7.925
    1AU     AUL  106  39.365  24.401   8.001
    1AU    AUSL  107  39.190  24.582   7.397
    1AU    AUSL  108  39.180  24.180   7.188
    1AU     AUL  109  39.424  24.390   7.250
    1AU    AUSL  110  37.766  24.293   7.553
    1AU    AUSL  111  37.977  24.503   7.205
    1AU     AUL  112  37.627  24.396   7.213
    1AU    AUSL  113  37.883  24.694   7.694
    1AU    AUSL  114  38.073  24.310   7.849
    1AU     AUL  115  37.692  24.463   7.848
    1AU    AUSL  116  38.615  25.618   7.966
    1AU    AUSL  117  38.160  25.597   7.878
    1AU     AUL  118  38.382  25.642   8.194
    1AU    AUSL  119  38.447  25.473   7.591
    1AU    AUSL  120  38.698  25.606   7.247
    1AU     AUL  121  38.467  25.813   7.554
    1AU    AUSL  122  38.885  25.549   7.623
    1AU    AUSL  123  38.879  25.348   8.153
    1AU     AUL  124  38.998  25.638   7.941
    1AU    AUSL  125  38.473  24.152   7.970
    1AU    AUSL  126  38.897  24.093   7.849
    1AU     AUL  127  38.658  24.031   8.223
    1AU    AUSL  128  38.165  23.930   7.699
    1AU    AUSL  129  38.193  24.267   8.274
    1AU     AUL  130  38.201  23.969   8.050
    1AU    AUSL  131  38.597  23.855   7.667
    1AU    AUSL  132  38.390  24.100   7.362
    1AU     AUL  133  38.273  23.755   7.487
    1AU    AUSL  134  38.525  25.491   6.843
    1AU    AUSL  135  39.097  25.469   7.199
    1AU     AUL  136  38.841  25.579   6.936
    1AU    AUSL  137  38.276  25.585   7.210
    1AU    AUSL  138  38.299  25.174   7.014
    1AU     AUL  139  38.206  25.480   6.856
    1AU    AUSL  140  38.615  24.048   6.981
    1AU    AUSL  141  37.982  24.062   7.258
    1AU     AUL  142  38.278  23.914   7.043
    1AU    AUSL  143  38.822  24.072   7.381
    1AU    AUSL  144  38.845  24.405   7.018
    1AU     AUL  145  38.939  24.032   7.050
    1AU       S  146  39.070  23.837   8.227
    1AU     LIG  147  39.117  23.603   8.352
    1AU     LIG  148  39.239  23.443   8.479
    1AU     LIG  149  39.397  23.266   8.590
    1AU       S  150  39.104  24.627   8.719
    1AU     LIG  151  39.267  24.685   8.921
    1AU     LIG  152  39.357  24.741   9.146
    1AU     LIG  153  39.463  24.708   9.383
    1AU       S  154  38.782  24.434   8.725
    1AU     LIG  155  38.838  24.340   9.005
    1AU     LIG  156  39.004  24.356   9.203
    1AU     LIG  157  39.138  24.311   9.419
    1AU       S  158  38.157  24.924   8.757
    1AU     LIG  159  38.120  24.948   9.059
    1AU     LIG  160  38.002  24.933   9.261
    1AU     LIG  161  37.854  24.910   9.479
    1AU       S  162  38.682  25.358   8.566
    1AU     LIG  163  38.799  25.495   8.771
    1AU     LIG  164  39.012  25.415   8.933
    1AU     LIG  165  39.235  25.289   8.947
    1AU       S  166  39.374  25.250   8.334
    1AU     LIG  167  39.557  25.290   8.555
    1AU     LIG  168  39.697  25.447   8.669
    1AU     LIG  169  39.873  25.623   8.744
    1AU       S  170  38.975  24.879   6.306
    1AU     LIG  171  39.190  24.934   6.093
    1AU     LIG  172  39.324  24.768   5.955
    1AU     LIG  173  39.384  24.577   5.795
    1AU       S  174  39.190  25.579   6.652
    1AU     LIG  175  39.236  25.772   6.462
    1AU     LIG  176  39.399  25.862   6.288
    1AU     LIG  177  39.564  25.953   6.123
    1AU       S  178  39.450  24.290   6.768
    1AU     LIG  179  39.612  24.203   6.527
    1AU     LIG  180  39.626  23.984   6.388
    1AU     LIG  181  39.642  23.729   6.348
    1AU       S  182  38.896  24.584   6.240
    1AU     LIG  183  38.918  24.460   6.011
    1AU     LIG  184  38.905  24.387   5.771
    1AU     LIG  185  38.976  24.367   5.521
    1AU       S  186  38.162  24.644   6.303
    1AU     LIG  187  38.217  24.611   6.024
    1AU     LIG  188  38.223  24.557   5.795
    1AU     LIG  189  38.147  24.516   5.540
    1AU       S  190  38.732  25.025   6.264
    1AU     LIG  191  38.633  24.959   5.973
    1AU     LIG  192  38.775  24.884   5.780
    1AU     LIG  193  38.968  24.876   5.607
    1AU       S  194  37.881  25.012   8.643
    1AU     LIG  195  37.670  24.987   8.819
    1AU     LIG  196  37.616  24.771   8.977
    1AU     LIG  197  37.546  24.639   9.166
    1AU       S  198  37.912  25.570   8.268
    1AU     LIG  199  37.826  25.725   8.501
    1AU     LIG  200  37.685  25.736   8.694
    1AU     LIG  201  37.516  25.825   8.877
    1AU       S  202  37.635  24.304   8.284
    1AU     LIG  203  37.389  24.235   8.381
    1AU     LIG  204  37.244  24.043   8.457
    1AU     LIG  205  37.117  23.861   8.575
    1AU       S  206  38.206  24.632   8.684
    1AU     LIG  207  38.129  24.456   8.887
    1AU     LIG  208  38.016  24.436   9.105
    1AU     LIG  209  37.971  24.422   9.361
    1AU       S  210  37.900  24.556   6.418
    1AU     LIG  211  37.721  24.486   6.208
    1AU     LIG  212  37.710  24.557   5.957
    1AU     LIG  213  37.698  24.667   5.737
    1AU       S  214  37.934  24.008   6.745
    1AU     LIG  215  37.860  23.821   6.540
    1AU     LIG  216  37.702  23.779   6.354
    1AU     LIG  217  37.518  23.730   6.184
    1AU       S  218  37.564  25.234   6.798
    1AU     LIG  219  37.357  25.403   6.744
    1AU     LIG  220  37.305  25.602   6.588
    1AU     LIG  221  37.281  25.725   6.367
    1AU       S  222  38.062  24.912   6.393
    1AU     LIG  223  37.895  25.013   6.139
    1AU     LIG  224  37.978  25.050   5.913
    1AU     LIG  225  38.086  25.030   5.679
    1AU       S  226  39.421  25.393   6.708
    1AU     LIG  227  39.636  25.439   6.537
    1AU     LIG  228  39.793  25.551   6.389
    1AU     LIG  229  39.974  25.670   6.245
    1AU       S  230  39.673  25.369   7.556
    1AU     LIG  231  39.886  25.573   7.540
    1AU     LIG  232  40.130  25.617   7.511
    1AU     LIG  233  40.383  25.680   7.532
    1AU       S  234  39.849  25.070   7.388
    1AU     LIG  235  40.118  25.141   7.293
    1AU     LIG  236  40.358  25.207   7.306
    1AU     LIG  237  40.580  25.321   7.226
    1AU       S  238  39.713  24.191   7.790
    1AU     LIG  239  39.948  24.089   7.920
    1AU     LIG  240  40.201  24.084   7.859
    1AU     LIG  241  40.450  24.052   7.780
    1AU       S  242  39.410  25.498   8.127
    1AU     LIG  243  39.605  25.675   8.210
    1AU     LIG  244  39.650  25.874   8.357
    1AU     LIG  245  39.669  26.053   8.540
    1AU       S  246  39.820  25.102   7.663
    1AU     LIG  247  40.058  25.173   7.814
    1AU     LIG  248  40.295  25.240   7.811
    1AU     LIG  249  40.525  25.330   7.878
    1AU       S  250  37.746  25.347   8.203
    1AU     LIG  251  37.507  25.339   8.380
    1AU     LIG  252  37.321  25.478   8.444
    1AU     LIG  253  37.145  25.597   8.594
    1AU       S  254  37.913  25.771   7.463
    1AU     LIG  255  37.753  25.979   7.335
    1AU     LIG  256  37.507  25.959   7.239
    1AU     LIG  257  37.319  25.802   7.123
    1AU       S  258  37.349  24.990   7.139
    1AU     LIG  259  37.111  24.995   7.071
    1AU     LIG  260  36.856  25.071   7.141
    1AU     LIG  261  36.711  25.284   7.163
    1AU       S  262  37.779  25.644   6.929
    1AU     LIG  263  37.706  25.852   6.787
    1AU     LIG  264  37.564  26.031   6.702
    1AU     LIG  265  37.433  26.186   6.537
    1AU       S  266  37.260  24.586   7.449
    1AU     LIG  267  36.983  24.576   7.337
    1AU     LIG  268  36.740  24.558   7.332
    1AU     LIG  269  36.506  24.437   7.284
    1AU       S  270  37.451  24.905   8.097
    1AU     LIG  271  37.138  25.009   8.182
    1AU     LIG  272  37.021  25.221   8.094
    1AU     LIG  273  36.841  25.368   7.968
    1AU       S  274  39.443  24.021   7.606
    1AU     LIG  275  39.577  23.719   7.622
    1AU     LIG  276  39.805  23.653   7.697
    1AU     LIG  277  40.076  23.639   7.655
    1AU       S  278  39.287  23.960   8.066
    1AU     LIG  279  39.534  23.824   8.105
    1AU     LIG  280  39.664  23.736   8.287
    1AU     LIG  281  39.711  23.666   8.537
    1AU       S  282  39.700  24.171   7.519
    1AU     LIG  283  39.923  24.049   7.383
    1AU     LIG  284  40.164  24.050   7.343
    1AU     LIG  285  40.405  23.978   7.280
    1AU       S  286  39.392  24.028   6.925
    1AU     LIG  287  39.457  23.768   6.822
    1AU     LIG  288  39.330  23.545   6.774
    1AU     LIG  289  39.289  23.326   6.659
    1AU       S  290  37.757  24.203   6.817
    1AU     LIG  291  37.524  24.213   6.620
    1AU     LIG  292  37.347  24.096   6.527
    1AU     LIG  293  37.141  23.938   6.465
    1AU       S  294  37.342  24.295   7.583
    1AU     LIG  295  37.125  24.129   7.588
    1AU     LIG  296  36.898  24.081   7.482
    1AU     LIG  297  36.665  23.977   7.441
    1AU       S  298  37.754  24.074   8.082
    1AU     LIG  299  37.578  23.866   8.068
    1AU     LIG  300  37.458  23.680   8.174
    1AU     LIG  301  37.325  23.494   8.287
    1AU       S  302  37.284  24.590   7.713
    1AU     LIG  303  37.050  24.562   7.888
    1AU     LIG  304  36.811  24.470   7.835
    1AU     LIG  305  36.602  24.335   7.809
    1AU       S  306  37.953  25.789   7.989
    1AU     LIG  307  37.718  25.978   8.062
    1AU     LIG  308  37.493  25.941   8.206
    1AU     LIG  309  37.361  26.018   8.412
    1AU       S  310  38.696  25.975   8.053
    1AU     LIG  311  38.807  26.162   8.255
    1AU     LIG  312  38.695  26.352   8.380
    1AU     LIG  313  38.550  26.553   8.444
    1AU       S  314  38.458  26.110   7.925
    1AU     LIG  315  38.369  26.335   7.968
    1AU     LIG  316  38.343  26.594   7.984
    1AU     LIG  317  38.352  26.845   8.012
    1AU       S  318  38.623  25.953   7.131
    1AU     LIG  319  38.689  26.222   7.146
    1AU     LIG  320  38.723  26.454   7.130
    1AU     LIG  321  38.786  26.697   7.042
    1AU       S  322  39.133  25.465   8.364
    1AU     LIG  323  39.208  25.684   8.543
    1AU     LIG  324  39.309  25.765   8.736
    1AU     LIG  325  39.435  25.783   8.967
    1AU       S  326  38.835  26.026   7.734
    1AU     LIG  327  38.867  26.299   7.718
    1AU     LIG  328  38.842  26.509   7.875
    1AU     LIG  329  38.854  26.693   8.040
    1AU       S  330  38.556  23.616   8.062
    1AU     LIG  331  38.675  23.410   8.213
    1AU     LIG  332  38.663  23.203   8.334
    1AU     LIG  333  38.644  22.966   8.434
    1AU       S  334  39.039  23.849   7.902
    1AU     LIG  335  39.143  23.545   7.827
    1AU     LIG  336  39.303  23.411   7.925
    1AU     LIG  337  39.515  23.311   8.057
    1AU       S  338  38.304  23.530   7.896
    1AU     LIG  339  38.255  23.263   7.918
    1AU     LIG  340  38.277  23.045   8.033
    1AU     LIG  341  38.267  22.807   8.129
    1AU       S  342  37.898  24.156   8.386
    1AU     LIG  343  37.771  23.938   8.570
    1AU     LIG  344  37.634  23.764   8.640
    1AU     LIG  345  37.497  23.570   8.762
    1AU       S  346  38.622  23.626   7.221
    1AU     LIG  347  38.561  23.298   7.210
    1AU     LIG  348  38.546  23.102   7.090
    1AU     LIG  349  38.546  22.835   7.027
    1AU       S  350  38.636  23.579   7.758
    1AU     LIG  351  38.736  23.277   7.712
    1AU     LIG  352  38.749  23.080   7.838
    1AU     LIG  353  38.743  22.834   7.941
    1AU       S  354  38.475  25.873   6.835
    1AU     LIG  355  38.481  26.102   6.681
    1AU     LIG  356  38.604  26.318   6.641
    1AU     LIG  357  38.670  26.552   6.564
    1AU       S  358  39.314  25.649   6.958
    1AU     LIG  359  39.512  25.853   6.901
    1AU     LIG  360  39.671  25.927   6.721
    1AU     LIG  361  39.819  26.049   6.558
    1AU       S  362  38.272  25.894   7.112
    1AU     LIG  363  38.160  26.172   7.085
    1AU     LIG  364  38.217  26.398   6.998
    1AU     LIG  365  38.291  26.623   6.907
    1AU       S  366  37.834  25.304   6.654
    1AU     LIG  367  37.774  25.439   6.415
    1AU     LIG  368  37.784  25.669   6.319
    1AU     LIG  369  37.757  25.908   6.239
    1AU       S  370  37.779  23.972   7.029
    1AU     LIG  371  37.522  23.799   6.950
    1AU     LIG  372  37.435  23.657   6.784
    1AU     LIG  373  37.349  23.484   6.606
    1AU       S  374  38.692  23.665   6.941
    1AU     LIG  375  38.809  23.486   6.769
    1AU     LIG  376  38.782  23.276   6.646
    1AU     LIG  377  38.706  23.038   6.582
    1AU       S  378  38.885  23.666   7.324
    1AU     LIG  379  39.049  23.425   7.293
    1AU     LIG  380  39.056  23.219   7.128
    1AU     LIG  381  39.041  23.002   6.984
    1AU       S  382  39.146  24.175   6.673
    1AU     LIG  383  39.132  23.997   6.470
    1AU     LIG  384  39.122  23.769   6.376
    1AU     LIG  385  39.173  23.566   6.221
    2AU     AUC  386  17.693  39.524   7.535
    2AU     AUC  387  17.945  39.529   7.369
    2AU     AUC  388  17.934  39.516   7.699
    2AU     AUC  389  17.423  39.532   7.380
    2AU     AUC  390  17.449  39.561   7.705
    2AU     AUC  391  17.532  39.777   7.513
    2AU     AUC  392  17.879  39.789   7.516
    2AU     AUC  393  17.514  39.270   7.543
    2AU     AUC  394  17.845  39.248   7.545
    2AU     AUC  395  17.687  39.364   7.798
    2AU     AUC  396  17.706  39.704   7.779
    2AU     AUC  397  17.680  39.351   7.287
    2AU     AUC  398  17.700  39.657   7.271
    2AU     AUC  399  18.248  39.520   7.204
    2AU     AUC  400  18.256  39.500   7.545
    2AU     AUC  401  18.214  39.487   7.899
    2AU     AUC  402  17.121  39.506   7.228
    2AU     AUC  403  17.120  39.565   7.556
    2AU     AUC  404  17.149  39.604   7.888
    2AU     AUC  405  17.367  40.090   7.474
    2AU     AUC  406  17.727  40.064   7.457
    2AU     AUC  407  18.093  40.052   7.487
    2AU     AUC  408  17.310  38.981   7.548
    2AU     AUC  409  17.661  38.957   7.529
    2AU     AUC  410  18.017  38.946   7.546
    2AU     AUC  411  17.646  39.198   8.101
    2AU     AUC  412  17.683  39.540   8.101
    2AU     AUC  413  17.740  39.904   8.062
    2AU     AUC  414  17.711  39.161   6.997
    2AU     AUC  415  17.659  39.502   6.973
    2AU     AUC  416  17.656  39.825   6.957
    2AU     AUC  417  17.928  39.302   8.012
    2AU     AUC  418  17.984  39.678   7.987
    2AU     AUC  419  17.983  39.364   7.072
    2AU     AUC  420  17.948  39.676   7.079
    2AU     AUC  421  17.394  39.422   8.000
    2AU     AUC  422  17.441  39.772   7.971
    2AU     AUC  423  17.405  39.321   7.103
    2AU     AUC  424  17.359  39.649   7.083
    2AU     AUC  425  18.186  39.792   7.346
    2AU     AUC  426  18.152  39.789   7.705
    2AU     AUC  427  17.227  39.804   7.383
    2AU     AUC  428  17.272  39.870   7.713
    2AU     AUC  429  18.149  39.241   7.407
    2AU     AUC  430  18.097  39.195   7.739
    2AU     AUC  431  17.228  39.218   7.373
    2AU     AUC  432  17.254  39.292   7.716
    2AU     AUC  433  17.592  40.022   7.782
    2AU     AUC  434  17.931  39.977   7.793
    2AU     AUC  435  17.479  39.089   7.817
    2AU     AUC  436  17.797  39.036   7.809
    2AU     AUC  437  17.502  39.955   7.215
    2AU     AUC  438  17.867  39.971   7.226
    2AU     AUC  439  17.533  39.057   7.258
    2AU     AUC  440  17.893  39.102   7.274
    2AU    AUSL  441  18.192  39.392   8.316
    2AU    AUSL  442  17.942  39.019   8.222
    2AU     AUL  443  18.249  39.020   8.389
    2AU    AUSL  444  17.777  39.334   8.460
    2AU    AUSL  445  17.539  39.743   8.451
    2AU     AUL  446  17.775  39.618   8.710
    2AU    AUSL  447  17.876  39.691   8.204
    2AU    AUSL  448  18.327  39.750   8.126
    2AU     AUL  449  18.145  39.715   8.435
    2AU    AUSL  450  18.100  39.552   6.840
    2AU    AUSL  451  17.961  39.948   6.981
    2AU     AUL  452  18.175  39.880   6.681
    2AU    AUSL  453  17.912  39.230   6.612
    2AU    AUSL  454  18.419  39.300   6.982
    2AU     AUL  455  18.287  39.374   6.665
    2AU    AUSL  456  17.744  39.734   6.670
    2AU    AUSL  457  17.566  39.348   6.829
    2AU     AUL  458  17.697  39.427   6.524
    2AU    AUSL  459  17.155  39.705   8.243
    2AU    AUSL  460  17.518  40.014   8.111
    2AU     AUL  461  17.355  39.982   8.412
    2AU    AUSL  462  17.456  39.392   8.191
    2AU    AUSL  463  17.007  39.315   8.105
    2AU     AUL  464  17.064  39.404   8.341
    2AU    AUSL  465  17.130  39.330   6.795
    2AU    AUSL  466  17.379  38.980   6.947
    2AU     AUL  467  17.403  39.066   6.641
    2AU    AUSL  468  17.316  39.698   6.675
    2AU    AUSL  469  17.036  39.679   7.050
    2AU     AUL  470  16.919  39.560   6.776
    2AU    AUSL  471  18.484  39.987   7.476
    2AU    AUSL  472  18.359  39.777   7.096
    2AU     AUL  473  18.654  39.982   7.128
    2AU    AUSL  474  18.649  39.591   7.367
    2AU    AUSL  475  18.598  39.293   7.768
    2AU     AUL  476  18.860  39.377   7.571
    2AU    AUSL  477  18.371  39.646   7.718
    2AU    AUSL  478  18.329  40.090   7.853
    2AU     AUL  479  18.577  39.830   7.878
    2AU    AUSL  480  17.118  40.167   7.522
    2AU    AUSL  481  17.155  39.919   7.878
    2AU     AUL  482  16.846  40.164   7.745
    2AU    AUSL  483  16.917  39.788   7.444
    2AU    AUSL  484  17.070  40.104   7.106
    2AU     AUL  485  16.834  40.029   7.263
    2AU    AUSL  486  16.790  39.710   7.888
    2AU    AUSL  487  16.757  39.404   7.349
    2AU     AUL  488  16.635  39.721   7.590
    2AU    AUSL  489  18.376  38.944   7.615
    2AU    AUSL  490  18.202  39.227   7.925
    2AU     AUL  491  18.509  39.133   8.001
    2AU    AUSL  492  18.334  39.314   7.397
    2AU    AUSL  493  18.324  38.912   7.188
    2AU     AUL  494  18.568  39.122   7.250
    2AU    AUSL  495  16.910  39.025   7.553
    2AU    AUSL  496  17.121  39.235   7.205
    2AU     AUL  497  16.771  39.128   7.213
    2AU    AUSL  498  17.027  39.426   7.694
    2AU    AUSL  499  17.217  39.042   7.849
    2AU     AUL  500  16.836  39.195   7.848
    2AU    AUSL  501  17.759  40.350   7.966
    2AU    AUSL  502  17.304  40.329   7.878
    2AU     AUL  503  17.526  40.374   8.194
    2AU    AUSL  504  17.591  40.205   7.591
    2AU    AUSL  505  17.842  40.338   7.247
    2AU     AUL  506  17.611  40.545   7.554
    2AU    AUSL  507  18.029  40.281   7.623
    2AU    AUSL  508  18.023  40.080   8.153
    2AU     AUL  509  18.142  40.370   7.941
    2AU    AUSL  510  17.617  38.884   7.970
    2AU    AUSL  511  18.041  38.825   7.849
    2AU     AUL  512  17.802  38.763   8.223
    2AU    AUSL  513  17.309  38.662   7.699
    2AU    AUSL  514  17.337  38.999   8.274
    2AU     AUL  515  17.345  38.701   8.050
    2AU    AUSL  516  17.741  38.587   7.667
    2AU    AUSL  517  17.534  38.832   7.362
    2AU     AUL  518  17.417  38.487   7.487
    2AU    AUSL  519  17.669  40.223   6.843
    2AU    AUSL  520  18.241  40.201   7.199
    2AU     AUL  521  17.985  40.311   6.936
    2AU    AUSL  522  17.420  40.317   7.210
    2AU    AUSL  523  17.443  39.906   7.014
    2AU     AUL  524  17.350  40.212   6.856
    2AU    AUSL  525  17.759  38.780   6.981
    2AU    AUSL  526  17.126  38.794   7.258
    2AU     AUL  527  17.422  38.646   7.043
    2AU    AUSL  528  17.966  38.804   7.381
    2AU    AUSL  529  17.989  39.137   7.018
    2AU     AUL  530  18.083  38.764   7.050
    2AU       S  531  18.214  38.569   8.227
    2AU     LIG  532  18.261  38.335   8.352
    2AU     LIG  533  18.383  38.175   8.479
    2AU     LIG  534  18.541  37.998   8.590
    2AU       S  535  18.248  39.359   8.719
    2AU     LIG  536  18.411  39.417   8.921
    2AU     LIG  537  18.501  39.473   9.146
    2AU     LIG  538  18.607  39.440   9.383
    2AU       S  539  17.926  39.166   8.725
    2AU     LIG  540  17.982  39.072   9.005
    2AU     LIG  541  18.148  39.088   9.203
    2AU     LIG  542  18.282  39.043   9.419
    2AU       S  543  17.301  39.656   8.757
    2AU     LIG  544  17.264  39.680   9.059
    2AU     LIG  545  17.146  39.665   9.261
    2AU     LIG  546  16.998  39.642   9.479
    2AU       S  547  17.826  40.090   8.566
    2AU     LIG  548  17.943  40.227   8.771
    2AU     LIG  549  18.156  40.147   8.933
    2AU     LIG  550  18.379  40.021   8.947
    2AU       S  551  18.518  39.982   8.334
    2AU     LIG  552  18.701  40.022   8.555
    2AU     LIG  553  18.841  40.179   8.669
    2AU     LIG  554  19.017  40.355   8.744
    2AU       S  555  18.119  39.611   6.306
    2AU     LIG  556  18.334  39.666   6.093
    2AU     LIG  557  18.468  39.500   5.955
    2AU     LIG  558  18.528  39.309   5.795
    2AU       S  559  18.334  40.311   6.652
    2AU     LIG  560  18.380  40.504   6.462
    2AU     LIG  561  18.543  40.594   6.288
    2AU     LIG  562  18.708  40.685   6.123
    2AU       S  563  18.594  39.022   6.768
    2AU     LIG  564  18.756  38.935   6.527
    2AU     LIG  565  18.770  38.716   6.388
    2AU     LIG  566  18.786  38.461   6.348
    2AU       S  567  18.040  39.316   6.240
    2AU     LIG  568  18.062  39.192   6.011
    2AU     LIG  569  18.049  39.119   5.771
    2AU     LIG  570  18.120  39.099   5.521
    2AU       S  571  17.306  39.376   6.303
    2AU     LIG  572  17.361  39.343   6.024
    2AU     LIG  573  17.367  39.289   5.795
    2AU     LIG  574  17.291  39.248   5.540
    2AU       S  575  17.876  39.757   6.264
    2AU     LIG  576  17.777  39.691   5.973
    2AU     LIG  577  17.919  39.616   5.780
    2AU     LIG  578  18.112  39.608   5.607
    2AU       S  579  17.025  39.744   8.643
    2AU     LIG  580  16.814  39.719   8.819
    2AU     LIG  581  16.760  39.503   8.977
    2AU     LIG  582  16.690  39.371   9.166
    2AU       S  583  17.056  40.302   8.268
    2AU     LIG  584  16.970  40.457   8.501
    2AU     LIG  585  16.829  40.468   8.694
    2AU     LIG  586  16.660  40.557   8.877
    2AU       S  587  16.779  39.036   8.284
    2AU     LIG  588  16.533  38.967   8.381
    2AU     LIG  589  16.388  38.775   8.457
    2AU     LIG  590  16.261  38.593   8.575
    2AU       S  591  17.350  39.364   8.684
    2AU     LIG  592  17.273  39.188   8.887
    2AU     LIG  593  17.160  39.168   9.105
    2AU     LIG  594  17.115  39.154   9.361
    2AU       S  595  17.044  39.288   6.418
    2AU     LIG  596  16.865  39.218   6.208
    2AU     LIG  597  16.854  39.289   5.957
    2AU     LIG  598  16.842  39.399   5.737
    2AU       S  599  17.078  38.740   6.745
    2AU     LIG  600  17.004  38.553   6.540
    2AU     LIG  601  16.846  38.511   6.354
    2AU     LIG  602  16.662  38.462   6.184
    2AU       S  603  16.708  39.966   6.798
    2AU     LIG  604  16.501  40.135   6.744
    2AU     LIG  605  16.449  40.334   6.588
    2AU     LIG  606  16.425  40.457   6.367
    2AU       S  607  17.206  39.644   6.393
    2AU     LIG  608  17.039  39.745   6.139
    2AU     LIG  609  17.122  39.782   5.913
    2AU     LIG  610  17.230  39.762   5.679
    2AU       S  611  18.565  40.125   6.708
    2AU     LIG  612  18.780  40.171   6.537
    2AU     LIG  613  18.937  40.283   6.389
    2AU     LIG  614  19.118  40.402   6.245
    2AU       S  615  18.817  40.101   7.556
    2AU     LIG  616  19.030  40.305   7.540
    2AU     LIG  617  19.274  40.349   7.511
    2AU     LIG  618  19.527  40.412   7.532
    2AU       S  619  18.993  39.802   7.388
    2AU     LIG  620  19.262  39.873   7.293
    2AU     LIG  621  19.502  39.939   7.306
    2AU     LIG  622  19.724  40.053   7.226
    2AU       S  623  18.857  38.923   7.790
    2AU     LIG  624  19.092  38.821   7.920
    2AU     LIG  625  19.345  38.816   7.859
    2AU     LIG  626  19.594  38.784   7.780
    2AU       S  627  18.554  40.230   8.127
    2AU     LIG  628  18.749  40.407   8.210
    2AU     LIG  629  18.794  40.606   8.357
    2AU     LIG  630  18.813  40.785   8.540
    2AU       S  631  18.964  39.834   7.663
    2AU     LIG  632  19.202  39.905   7.814
    2AU     LIG  633  19.439  39.972   7.811
    2AU     LIG  634  19.669  40.062   7.878
    2AU       S  635  16.890  40.079   8.203
    2AU     LIG  636  16.651  40.071   8.380
    2AU     LIG  637  16.465  40.210   8.444
    2AU     LIG  638  16.289  40.329   8.594
    2AU       S  639  17.057  40.503   7.463
    2AU     LIG  640  16.897  40.711   7.335
    2AU     LIG  641  16.651  40.691   7.239
    2AU     LIG  642  16.463  40.534   7.123
    2AU       S  643  16.493  39.722   7.139
    2AU     LIG  644  16.255  39.727   7.071
    2AU     LIG  645  16.000  39.803   7.141
    2AU     LIG  646  15.855  40.016   7.163
    2AU       S  647  16.923  40.376   6.929
    2AU     LIG  648  16.850  40.584   6.787
    2AU     LIG  649  16.708  40.763   6.702
    2AU     LIG  650  16.577  40.918   6.537
    2AU       S  651  16.404  39.318   7.449
    2AU     LIG  652  16.127  39.308   7.337
    2AU     LIG  653  15.884  39.290   7.332
    2AU     LIG  654  15.650  39.169   7.284
    2AU       S  655  16.595  39.637   8.097
    2AU     LIG  656  16.282  39.741   8.182
    2AU     LIG  657  16.165  39.953   8.094
    2AU     LIG  658  15.985  40.100   7.968
    2AU       S  659  18.587  38.753   7.606
    2AU     LIG  660  18.721  38.451   7.622
    2AU     LIG  661  18.949  38.385   7.697
    2AU     LIG  662  19.220  38.371   7.655
    2AU       S  663  18.431  38.692   8.066
    2AU     LIG  664  18.678  38.556   8.105
    2AU     LIG  665  18.808  38.468   8.287
    2AU     LIG  666  18.855  38.398   8.537
    2AU       S  667  18.844  38.903   7.519
    2AU     LIG  668  19.067  38.781   7.383
    2AU     LIG  669  19.308  38.782   7.343
    2AU     LIG  670  19.549  38.710   7.280
    2AU       S  671  18.536  38.760   6.925
    2AU     LIG  672  18.601  38.500   6.822
    2AU     LIG  673  18.474  38.277   6.774
    2AU     LIG  674  18.433  38.058   6.659
    2AU       S  675  16.901  38.935   6.817
    2AU     LIG  676  16.668  38.945   6.620
    2AU     LIG  677  16.491  38.828   6.527
    2AU     LIG  678  16.285  38.670   6.465
    2AU       S  679  16.486  39.027   7.583
    2AU     LIG  680  16.269  38.861   7.588
    2AU     LIG  681  16.042  38.813   7.482
    2AU     LIG  682  15.809  38.709   7.441
    2AU       S  683  16.898  38.806   8.082
    2AU     LIG  684  16.722  38.598   8.068
    2AU     LIG  685  16.602  38.412   8.174
    2AU     LIG  686  16.469  38.226   8.287
    2AU       S  687  16.428  39.322   7.713
    2AU     LIG  688  16.194  39.294   7.888
    2AU     LIG  689  15.955  39.202   7.835
    2AU     LIG  690  15.746  39.067   7.809
    2AU       S  691  17.097  40.521   7.989
    2AU     LIG  692  16.862  40.710   8.062
    2AU     LIG  693  16.637  40.673   8.206
    2AU     LIG  694  16.505  40.750   8.412
    2AU       S  695  17.840  40.707   8.053
    2AU     LIG  696  17.951  40.894   8.255
    2AU     LIG  697  17.839  41.084   8.380
    2AU     LIG  698  17.694  41.285   8.444
    2AU       S  699  17.602  40.842   7.925
    2AU     LIG  700  17.513  41.067   7.968
    2AU     LIG  701  17.487  41.326   7.984
    2AU     LIG  702  17.496  41.577   8.012
    2AU       S  703  17.767  40.685   7.131
    2AU     LIG  704  17.833  40.954   7.146
    2AU     LIG  705  17.867  41.186   7.130
    2AU     LIG  706  17.930  41.429   7.042
    2AU       S  707  18.277  40.197   8.364
    2AU     LIG  708  18.352  40.416   8.543
    2AU     LIG  709  18.453  40.497   8.736
    2AU     LIG  710  18.579  40.515   8.967
    2AU       S  711  17.979  40.758   7.734
    2AU     LIG  712  18.011  41.031   7.718
    2AU     LIG  713  17.986  41.241   7.875
    2AU     LIG  714  17.998  41.425   8.040
    2AU       S  715  17.700  38.348   8.062
    2AU     LIG  716  17.819  38.142   8.213
    2AU     LIG  717  17.807  37.935   8.334
    2AU     LIG  718  17.788  37.698   8.434
    2AU       S  719  18.183  38.581   7.902
    2AU     LIG  720  18.287  38.277   7.827
    2AU     LIG  721  18.447  38.143   7.925
    2AU     LIG  722  18.659  38.043   8.057
    2AU       S  723  17.448  38.262   7.896
    2AU     LIG  724  17.399  37.995   7.918
    2AU     LIG  725  17.421  37.777   8.033
    2AU     LIG  726  17.411  37.539   8.129
    2AU       S  727  17.042  38.888   8.386
    2AU     LIG  728  16.915  38.670   8.570
    2AU     LIG  729  16.778  38.496   8.640
    2AU     LIG  730  16.641  38.302   8.762
    2AU       S  731  17.766  38.358   7.221
    2AU     LIG  732  17.705  38.030   7.210
    2AU     LIG  733  17.690  37.834   7.090
    2AU     LIG  734  17.690  37.567   7.027
    2AU       S  735  17.780  38.311   7.758
    2AU     LIG  736  17.880  38.009   7.712
    2AU     LIG  737  17.893  37.812   7.838
    2AU     LIG  738  17.887  37.566   7.941
    2AU       S  739  17.619  40.605   6.835
    2AU     LIG  740  17.625  40.834   6.681
    2AU     LIG  741  17.748  41.050   6.641
    2AU     LIG  742  17.814  41.284   6.564
    2AU       S  743  18.458  40.381   6.958
    2AU     LIG  744  18.656  40.585   6.901
    2AU     LIG  745  18.815  40.659   6.721
    2AU     LIG  746  18.963  40.781   6.558
    2AU       S  747  17.416  40.626   7.112
    2AU     LIG  748  17.304  40.904   7.085
    2AU     LIG  749  17.361  41.130   6.998
    2AU     LIG  750  17.435  41.355   6.907
    2AU       S  751  16.978  40.036   6.654
    2AU     LIG  752  16.918  40.171   6.415
    2AU     LIG  753  16.928  40.401   6.319
    2AU     LIG  754  16.901  40.640   6.239
    2AU       S  755  16.923  38.704   7.029
    2AU     LIG  756  16.666  38.531   6.950
    2AU     LIG  757  16.579  38.389   6.784
    2AU     LIG  758  16.493  38.216   6.606
    2AU       S  759  17.836  38.397   6.941
    2AU     LIG  760  17.953  38.218   6.769
    2AU     LIG  761  17.926  38.008   6.646
    2AU     LIG  762  17.850  37.770   6.582
    2AU       S  763  18.029  38.398   7.324
    2AU     LIG  764  18.193  38.157   7.293
    2AU     LIG  765  18.200  37.951   7.128
    2AU     LIG  766  18.185  37.734   6.984
    2AU       S  767  18.290  38.907   6.673
    2AU     LIG  768  18.276  38.729   6.470
    2AU     LIG  769  18.266  38.501   6.376
    2AU     LIG  770  18.317  38.298   6.221
    3AU     AUC  771  10.598  17.646   7.535
    3AU     AUC  772  10.850  17.651   7.369
    3AU     AUC  773  10.839  17.638   7.699
    3AU     AUC  774  10.328  17.654   7.380
    3AU     AUC  775  10.354  17.683   7.705
    3AU     AUC  776  10.437  17.899   7.513
    3AU     AUC  777  10.784  17.911   7.516
    3AU     AUC  778  10.419  17.392   7.543
    3AU     AUC  779  10.750  17.370   7.545
    3AU     AUC  780  10.592  17.486   7.798
    3AU     AUC  781  10.611  17.826   7.779
    3AU     AUC  782  10.585  17.473   7.287
    3AU     AUC  783  10.605  17.779   7.271
    3AU     AUC  784  11.153  17.642   7.204
    3AU     AUC  785  11.161  17.622   7.545
    3AU     AUC  786  11.119  17.609   7.899
    3AU     AUC  787  10.026  17.628   7.228
    3AU     AUC  788  10.025  17.687   7.556
    3AU     AUC  789  10.054  17.726   7.888
    3AU     AUC  790  10.272  18.212   7.474
    3AU     AUC  791  10.632  18.186   7.457
    3AU     AUC  792  10.998  18.174   7.487
    3AU     AUC  793  10.215  17.103   7.548
    3AU     AUC  794  10.566  17.079   7.529
    3AU     AUC  795  10.922  17.068   7.546
    3AU     AUC  796  10.551  17.320   8.101
    3AU     AUC  797  10.588  17.662   8.101
    3AU     AUC  798  10.645  18.026   8.062
    3AU     AUC  799  10.616  17.283   6.997
    3AU     AUC  800  10.564  17.624   6.973
    3AU     AUC  801  10.561  17.947   6.957
    3AU     AUC  802  10.833  17.424   8.012
    3AU     AUC  803  10.889  17.800   7.987
    3AU     AUC  804  10.888  17.486   7.072
    3AU     AUC  805  10.853  17.798   7.079
    3AU     AUC  806  10.299  17.544   8.000
    3AU     AUC  807  10.346  17.894   7.971
    3AU     AUC  808  10.310  17.443   7.103
    3AU     AUC  809  10.264  17.771   7.083
    3AU     AUC  810  11.091  17.914   7.346
    3AU     AUC  811  11.057  17.911   7.705
    3AU     AUC  812  10.132  17.926   7.383
    3AU     AUC  813  10.177  17.992   7.713
    3AU     AUC  814  11.054  17.363   7.407
    3AU     AUC  815  11.002  17.317   7.739
    3AU     AUC  816  10.133  17.340   7.373
    3AU     AUC  817  10.159  17.414   7.716
    3AU     AUC  818  10.497  18.144   7.782
    3AU     AUC  819  10.836  18.099   7.793
    3AU     AUC  820  10.384  17.211   7.817
    3AU     AUC  821  10.702  17.158   7.809
    3AU     AUC  822  10.407  18.077   7.215
    3AU     AUC  823  10.772  18.093   7.226
    3AU     AUC  824  10.438  17.179   7.258
    3AU     AUC  825  10.798  17.224   7.274
    3AU    AUSL  826  11.097  17.514   8.316
    3AU    AUSL  827  10.847  17.141   8.222
    3AU     AUL  828  11.154  17.142   8.389
    3AU    AUSL  829  10.682  17.456   8.460
    3AU    AUSL  830  10.444  17.865   8.451
    3AU     AUL  831  10.680  17.740   8.710
    3AU    AUSL  832  10.781  17.813   8.204
    3AU    AUSL  833  11.232  17.872   8.126
    3AU     AUL  834  11.050  17.837   8.435
    3AU    AUSL  835  11.005  17.674   6.840
    3AU    AUSL  836  10.866  18.070   6.981
    3AU     AUL  837  11.080  18.002   6.681
    3AU    AUSL  838  10.817  17.352   6.612
    3AU    AUSL  839  11.324  17.422   6.982
    3AU     AUL  840  11.192  17.496   6.665
    3AU    AUSL  841  10.649  17.856   6.670
    3AU    AUSL  842  10.471  17.470   6.829
    3AU     AUL  843  10.602  17.549   6.524
    3AU    AUSL  844  10.060  17.827   8.243
    3AU    AUSL  845  10.423  18.136   8.111
    3AU     AUL  846  10.260  18.104   8.412
    3AU    AUSL  847  10.361  17.514   8.191
    3AU    AUSL  848   9.912  17.437   8.105
    3AU     AUL  849   9.969  17.526   8.341
    3AU    AUSL  850  10.035  17.452   6.795
    3AU    AUSL  851  10.284  17.102   6.947
    3AU     AUL  852  10.308  17.188   6.641
    3AU    AUSL  853  10.221  17.820   6.675
    3AU    AUSL  854   9.941  17.801   7.050
    3AU     AUL  855   9.824  17.682   6.776
    3AU    AUSL  856  11.389  18.109   7.476
    3AU    AUSL  857  11.264  17.899   7.096
    3AU     AUL  858  11.559  18.104   7.128
    3AU    AUSL  859  11.554  17.713   7.367
    3AU    AUSL  860  11.503  17.415   7.768
    3AU     AUL  861  11.765  17.499   7.571
    3AU    AUSL  862  11.276  17.768   7.718
    3AU    AUSL  863  11.234  18.212   7.853
    3AU     AUL  864  11.482  17.952   7.878
    3AU    AUSL  865  10.023  18.289   7.522
    3AU    AUSL  866  10.060  18.041   7.878
    3AU     AUL  867   9.751  18.286   7.745
    3AU    AUSL  868   9.822  17.910   7.444
    3AU    AUSL  869   9.975  18.226   7.106
    3AU     AUL  870   9.739  18.151   7.263
    3AU    AUSL  871   9.695  17.832   7.888
    3AU    AUSL  872   9.662  17.526   7.349
    3AU     AUL  873   9.540  17.843   7.590
    3AU    AUSL  874  11.281  17.066   7.615
    3AU    AUSL  875  11.107  17.349   7.925
    3AU     AUL  876  11.414  17.255   8.001
    3AU    AUSL  877  11.239  17.436   7.397
    3AU    AUSL  878  11.229  17.034   7.188
    3AU     AUL  879  11.473  17.244   7.250
    3AU    AUSL  880   9.815  17.147   7.553
    3AU    AUSL  881  10.026  17.357   7.205
    3AU     AUL  882   9.676  17.250   7.213
    3AU    AUSL  883   9.932  17.548   7.694
    3AU    AUSL  884  10.122  17.164   7.849
    3AU     AUL  885   9.741  17.317   7.848
    3AU    AUSL  886  10.664  18.472   7.966
    3AU    AUSL  887  10.209  18.451   7.878
    3AU     AUL  888  10.431  18.496   8.194
    3AU    AUSL  889  10.496  18.327   7.591
    3AU    AUSL  890  10.747  18.460   7.247
    3AU     AUL  891  10.516  18.667   7.554
    3AU    AUSL  892  10.934  18.403   7.623
    3AU    AUSL  893  10.928  18.202   8.153
    3AU     AUL  894  11.047  18.492   7.941
    3AU    AUSL  895  10.522  17.006   7.970
    3AU    AUSL  896  10.946  16.947   7.849
    3AU     AUL  897  10.707  16.885   8.223
    3AU    AUSL  898  10.214  16.784   7.699
    3AU    AUSL  899  10.242  17.121   8.274
    3AU     AUL  900  10.250  16.823   8.050
    3AU    AUSL  901  10.646  16.709   7.667
    3AU    AUSL  902  10.439  16.954   7.362
    3AU     AUL  903  10.322  16.609   7.487
    3AU    AUSL  904  10.574  18.345   6.843
    3AU    AUSL  905  11.146  18.323   7.199
    3AU     AUL  906  10.890  18.433   6.936
    3AU    AUSL  907  10.325  18.439   7.210
    3AU    AUSL  908  10.348  18.028   7.014
    3AU     AUL  909  10.255  18.334   6.856
    3AU    AUSL  910  10.664  16.902   6.981
    3AU    AUSL  911  10.031  16.916   7.258
    3AU     AUL  912  10.327  16.768   7.043
    3AU    AUSL  913  10.871  16.926   7.381
    3AU    AUSL  914  10.894  17.259   7.018
    3AU     AUL  915  10.988  16.886   7.050
    3AU       S  916  11.119  16.691   8.227
    3AU     LIG  917  11.166  16.457   8.352
    3AU     LIG  918  11.288  16.297   8.479
    3AU     LIG  919  11.446  16.120   8.590
    3AU       S  920  11.153  17.481   8.719
    3AU     LIG  921  11.316  17.539   8.921
    3AU     LIG  922  11.406  17.595   9.146
    3AU     LIG  923  11.512  17.562   9.383
    3AU       S  924  10.831  17.288   8.725
    3AU     LIG  925  10.887  17.194   9.005
    3AU     LIG  926  11.053  17.210   9.203
    3AU     LIG  927  11.187  17.165   9.419
    3AU       S  928  10.206  17.778   8.757
    3AU     LIG  929  10.169  17.802   9.059
    3AU     LIG  930  10.051  17.787   9.261
    3AU     LIG  931   9.903  17.764   9.479
    3AU       S  932  10.731  18.212   8.566
    3AU     LIG  933  10.848  18.349   8.771
    3AU     LIG  934  11.061  18.269   8.933
    3AU     LIG  935  11.284  18.143   8.947
    3AU       S  936  11.423  18.104   8.334
    3AU     LIG  937  11.606  18.144   8.555
    3AU     LIG  938  11.746  18.301   8.669
    3AU     LIG  939  11.922  18.477   8.744
    3AU       S  940  11.024  17.733   6.306
    3AU     LIG  941  11.239  17.788   6.093
    3AU     LIG  942  11.373  17.622   5.955
    3AU     LIG  943  11.433  17.431   5.795
    3AU       S  944  11.239  18.433   6.652
    3AU     LIG  945  11.285  18.626   6.462
    3AU     LIG  946  11.448  18.716   6.288
    3AU     LIG  947  11.613  18.807   6.123
    3AU       S  948  11.499  17.144   6.768
    3AU     LIG  949  11.661  17.057   6.527
    3AU     LIG  950  11.675  16.838   6.388
    3AU     LIG  951  11.691  16.583   6.348
    3AU       S  952  10.945  17.438   6.240
    3AU     LIG  953  10.967  17.314   6.011
    3AU     LIG  954  10.954  17.241   5.771
    3AU     LIG  955  11.025  17.221   5.521
    3AU       S  956  10.211  17.498   6.303
    3AU     LIG  957  10.266  17.465   6.024
    3AU     LIG  958  10.272  17.411   5.795
    3AU     LIG  959  10.196  17.370   5.540
    3AU       S  960  10.781  17.879   6.264
    3AU     LIG  961  10.682  17.813   5.973
    3AU     LIG  962  10.824  17.738   5.780
    3AU     LIG  963  11.017  17.730   5.607
    3AU       S  964   9.930  17.866   8.643
    3AU     LIG  965   9.719  17.841   8.819
    3AU     LIG  966   9.665  17.625   8.977
    3AU     LIG  967   9.595  17.493   9.166
    3AU       S  968   9.961  18.424   8.268
    3AU     LIG  969   9.875  18.579   8.501
    3AU     LIG  970   9.734  18.590   8.694
    3AU     LIG  971   9.565  18.679   8.877
    3AU       S  972   9.684  17.158   8.284
    3AU     LIG  973   9.438  17.089   8.381
    3AU     LIG  974   9.293  16.897   8.457
    3AU     LIG  975   9.166  16.715   8.575
    3AU       S  976  10.255  17.486   8.684
    3AU     LIG  977  10.178  17.310   8.887
    3AU     LIG  978  10.065  17.290   9.105
    3AU     LIG  979  10.020  17.276   9.361
    3AU       S  980   9.949  17.410   6.418
    3AU     LIG  981   9.770  17.340   6.208
    3AU     LIG  982   9.759  17.411   5.957
    3AU     LIG  983   9.747  17.521   5.737
    3AU       S  984   9.983  16.862   6.745
    3AU     LIG  985   9.909  16.675   6.540
    3AU     LIG  986   9.751  16.633   6.354
    3AU     LIG  987   9.567  16.584   6.184
    3AU       S  988   9.613  18.088   6.798
    3AU     LIG  989   9.406  18.257   6.744
    3AU     LIG  990   9.354  18.456   6.588
    3AU     LIG  991   9.330  18.579   6.367
    3AU       S  992  10.111  17.766   6.393
    3AU     LIG  993   9.944  17.867   6.139
    3AU     LIG  994  10.027  17.904   5.913
    3AU     LIG  995  10.135  17.884   5.679
    3AU       S  996  11.470  18.247   6.708
    3AU     LIG  997  11.685  18.293   6.537
    3AU     LIG  998  11.842  18.405   6.389
    3AU     LIG  999  12.023  18.524   6.245
    3AU       S 1000  11.722  18.223   7.556
    3AU     LIG 1001  11.935  18.427   7.540
    3AU     LIG 1002  12.179  18.471   7.511
    3AU     LIG 1003  12.432  18.534   7.532
    3AU       S 1004  11.898  17.924   7.388
    3AU     LIG 1005  12.167  17.995   7.293
    3AU     LIG 1006  12.407  18.061   7.306
    3AU     LIG 1007  12.629  18.175   7.226
    3AU       S 1008  11.762  17.045   7.790
    3AU     LIG 1009  11.997  16.943   7.920
    3AU     LIG 1010  12.250  16.938   7.859
    3AU     LIG 1011  12.499  16.906   7.780
    3AU       S 1012  11.459  18.352   8.127
    3AU     LIG 1013  11.654  18.529   8.210
    3AU     LIG 1014  11.699  18.728   8.357
    3AU     LIG 1015  11.718  18.907   8.540
    3AU       S 1016  11.869  17.956   7.663
    3AU     LIG 1017  12.107  18.027   7.814
    3AU     LIG 1018  12.344  18.094   7.811
    3AU     LIG 1019  12.574  18.184   7.878
    3AU       S 1020   9.795  18.201   8.203
    3AU     LIG 1021   9.556  18.193   8.380
    3AU     LIG 1022   9.370  18.332   8.444
    3AU     LIG 1023   9.194  18.451   8.594
    3AU       S 1024   9.962  18.625   7.463
    3AU     LIG 1025   9.802  18.833   7.335
    3AU     LIG 1026   9.556  18.813   7.239
    3AU     LIG 1027   9.368  18.656   7.123
    3AU       S 1028   9.398  17.844   7.139
    3AU     LIG 1029   9.160  17.849   7.071
    3AU     LIG 1030   8.905  17.925   7.141
    3AU     LIG 1031   8.760  18.138   7.163
    3AU       S 1032   9.828  18.498   6.929
    3AU     LIG 1033   9.755  18.706   6.787
    3AU     LIG 1034   9.613  18.885   6.702
    3AU     LIG 1035   9.482  19.040   6.537
    3AU       S 1036   9.309  17.440   7.449
    3AU     LIG 1037   9.032  17.430   7.337
    3AU     LIG 1038   8.789  17.412   7.332
    3AU     LIG 1039   8.555  17.291   7.284
    3AU       S 1040   9.500  17.759   8.097
    3AU     LIG 1041   9.187  17.863   8.182
    3AU     LIG 1042   9.070  18.075   8.094
    3AU     LIG 1043   8.890  18.222   7.968
    3AU       S 1044  11.492  16.875   7.606
    3AU     LIG 1045  11.626  16.573   7.622
    3AU     LIG 1046  11.854  16.507   7.697
    3AU     LIG 1047  12.125  16.493   7.655
    3AU       S 1048  11.336  16.814   8.066
    3AU     LIG 1049  11.583  16.678   8.105
    3AU     LIG 1050  11.713  16.590   8.287
    3AU     LIG 1051  11.760  16.520   8.537
    3AU       S 1052  11.749  17.025   7.519
    3AU     LIG 1053  11.972  16.903   7.383
    3AU     LIG 1054  12.213  16.904   7.343
    3AU     LIG 1055  12.454  16.832   7.280
    3AU       S 1056  11.441  16.882   6.925
    3AU     LIG 1057  11.506  16.622   6.822
    3AU     LIG 1058  11.379  16.399   6.774
    3AU     LIG 1059  11.338  16.180   6.659
    3AU       S 1060   9.806  17.057   6.817
    3AU     LIG 1061   9.573  17.067   6.620
    3AU     LIG 1062   9.396  16.950   6.527
    3AU     LIG 1063   9.190  16.792   6.465
    3AU       S 1064   9.391  17.149   7.583
    3AU     LIG 1065   9.174  16.983   7.588
    3AU     LIG 1066   8.947  16.935   7.482
    3AU     LIG 1067   8.714  16.831   7.441
    3AU       S 1068   9.803  16.928   8.082
    3AU     LIG 1069   9.627  16.720   8.068
    3AU     LIG 1070   9.507  16.534   8.174
    3AU     LIG 1071   9.374  16.348   8.287
    3AU       S 1072   9.333  17.444   7.713
    3AU     LIG 1073   9.099  17.416   7.888
    3AU     LIG 1074   8.860  17.324   7.835
    3AU     LIG 1075   8.651  17.189   7.809
    3AU       S 1076  10.002  18.643   7.989
    3AU     LIG 1077   9.767  18.832   8.062
    3AU     LIG 1078   9.542  18.795   8.206
    3AU     LIG 1079   9.410  18.872   8.412
    3AU       S 1080  10.745  18.829   8.053
    3AU     LIG 1081  10.856  19.016   8.255
    3AU     LIG 1082  10.744  19.206   8.380
    3AU     LIG 1083  10.599  19.407   8.444
    3AU       S 1084  10.507  18.964   7.925
    3AU     LIG 1085  10.418  19.189   7.968
    3AU     LIG 1086  10.392  19.448   7.984
    3AU     LIG 1087  10.401  19.699   8.012
    3AU       S 1088  10.672  18.807   7.131
    3AU     LIG 1089  10.738  19.076   7.146
    3AU     LIG 1090  10.772  19.308   7.130
    3AU     LIG 1091  10.835  19.551   7.042
    3AU       S 1092  11.182  18.319   8.364
    3AU     LIG 1093  11.257  18.538   8.543
    3AU     LIG 1094  11.358  18.619   8.736
    3AU     LIG 1095  11.484  18.637   8.967
    3AU       S 1096  10.884  18.880   7.734
    3AU     LIG 1097  10.916  19.153   7.718
    3AU     LIG 1098  10.891  19.363   7.875
    3AU     LIG 1099  10.903  19.547   8.040
    3AU       S 1100  10.605  16.470   8.062
    3AU     LIG 1101  10.724  16.264   8.213
    3AU     LIG 1102  10.712  16.057   8.334
    3AU     LIG 1103  10.693  15.820   8.434
    3AU       S 1104  11.088  16.703   7.902
    3AU     LIG 1105  11.192  16.399   7.827
    3AU     LIG 1106  11.352  16.265   7.925
    3AU     LIG 1107  11.564  16.165   8.057
    3AU       S 1108  10.353  16.384   7.896
    3AU     LIG 1109  10.304  16.117   7.918
    3AU     LIG 1110  10.326  15.899   8.033
    3AU     LIG 1111  10.316  15.661   8.129
    3AU       S 1112   9.947  17.010   8.386
    3AU     LIG 1113   9.820  16.792   8.570
    3AU     LIG 1114   9.683  16.618   8.640
    3AU     LIG 1115   9.546  16.424   8.762
    3AU       S 1116  10.671  16.480   7.221
    3AU     LIG 1117  10.610  16.152   7.210
    3AU     LIG 1118  10.595  15.956   7.090
    3AU     LIG 1119  10.595  15.689   7.027
    3AU       S 1120  10.685  16.433   7.758
    3AU     LIG 1121  10.785  16.131   7.712
    3AU     LIG 1122  10.798  15.934   7.838
    3AU     LIG 1123  10.792  15.688   7.941
    3AU       S 1124  10.524  18.727   6.835
    3AU     LIG 1125  10.530  18.956   6.681
    3AU     LIG 1126  10.653  19.172   6.641
    3AU     LIG 1127  10.719  19.406   6.564
    3AU       S 1128  11.363  18.503   6.958
    3AU     LIG 1129  11.561  18.707   6.901
    3AU     LIG 1130  11.720  18.781   6.721
    3AU     LIG 1131  11.868  18.903   6.558
    3AU       S 1132  10.321  18.748   7.112
    3AU     LIG 1133  10.209  19.026   7.085
    3AU     LIG 1134  10.266  19.252   6.998
    3AU     LIG 1135  10.340  19.477   6.907
    3AU       S 1136   9.883  18.158   6.654
    3AU     LIG 1137   9.823  18.293   6.415
    3AU     LIG 1138   9.833  18.523   6.319
    3AU     LIG 1139   9.806  18.762   6.239
    3AU       S 1140   9.828  16.826   7.029
    3AU     LIG 1141   9.571  16.653   6.950
    3AU     LIG 1142   9.484  16.511   6.784
    3AU     LIG 1143   9.398  16.338   6.606
    3AU       S 1144  10.741  16.519   6.941
    3AU     LIG 1145  10.858  16.340   6.769
    3AU     LIG 1146  10.831  16.130   6.646
    3AU     LIG 1147  10.755  15.892   6.582
    3AU       S 1148  10.934  16.520   7.324
    3AU     LIG 1149  11.098  16.279   7.293
    3AU     LIG 1150  11.105  16.073   7.128
    3AU     LIG 1151  11.090  15.856   6.984
    3AU       S 1152  11.195  17.029   6.673
    3AU     LIG 1153  11.181  16.851   6.470
    3AU     LIG 1154  11.171  16.623   6.376
    3AU     LIG 1155  11.222  16.420   6.221
    4AU     AUC 1156  44.878  10.911   7.535
    4AU     AUC 1157  45.130  10.916   7.369
    4AU     AUC 1158  45.119  10.903   7.699
    4AU     AUC 1159  44.608  10.919   7.380
    4AU     AUC 1160  44.634  10.948   7.705
    4AU     AUC 1161  44.717  11.164   7.513
    4AU     AUC 1162  45.064  11.176   7.516
    4AU     AUC 1163  44.699  10.657   7.543
    4AU     AUC 1164  45.030  10.635   7.545
    4AU     AUC 1165  44.872  10.751   7.798
    4AU     AUC 1166  44.891  11.091   7.779
    4AU     AUC 1167  44.865  10.738   7.287
    4AU     AUC 1168  44.885  11.044   7.271
    4AU     AUC 1169  45.433  10.907   7.204
    4AU     AUC 1170  45.441  10.887   7.545
    4AU     AUC 1171  45.399  10.874   7.899
    4AU     AUC 1172  44.306  10.893   7.228
    4AU     AUC 1173  44.305  10.952   7.556
    4AU     AUC 1174  44.334  10.991   7.888
    4AU     AUC 1175  44.552  11.477   7.474
    4AU     AUC 1176  44.912  11.451   7.457
    4AU     AUC 1177  45.278  11.439   7.487
    4AU     AUC 1178  44.495  10.368   7.548
    4AU     AUC 1179  44.846  10.344   7.529
    4AU     AUC 1180  45.202  10.333   7.546
    4AU     AUC 1181  44.831  10.585   8.101
    4AU     AUC 1182  44.868  10.927   8.101
    4AU     AUC 1183  44.925  11.291   8.062
    4AU     AUC 1184  44.896  10.548   6.997
    4AU     AUC 1185  44.844  10.889   6.973
    4AU     AUC 1186  44.841  11.212   6.957
    4AU     AUC 1187  45.113  10.689   8.012
    4AU     AUC 1188  45.169  11.065   7.987
    4AU     AUC 1189  45.168  10.751   7.072
    4AU     AUC 1190  45.133  11.063   7.079
    4AU     AUC 1191  44.579  10.809   8.000
    4AU     AUC 1192  44.626  11.159   7.971
    4AU     AUC 1193  44.590  10.708   7.103
    4AU     AUC 1194  44.544  11.036   7.083
    4AU     AUC 1195  45.371  11.179   7.346
    4AU     AUC 1196  45.337  11.176   7.705
    4AU     AUC 1197  44.412  11.191   7.383
    4AU     AUC 1198  44.457  11.257   7.713
    4AU     AUC 1199  45.334  10.628   7.407
    4AU     AUC 1200  45.282  10.582   7.739
    4AU     AUC 1201  44.413  10.605   7.373
    4AU     AUC 1202  44.439  10.679   7.716
    4AU     AUC 1203  44.777  11.409   7.782
    4AU     AUC 1204  45.116  11.364   7.793
    4AU     AUC 1205  44.664  10.476   7.817
    4AU     AUC 1206  44.982  10.423   7.809
    4AU     AUC 1207  44.687  11.342   7.215
    4AU     AUC 1208  45.052  11.358   7.226
    4AU     AUC 1209  44.718  10.444   7.258
    4AU     AUC 1210  45.078  10.489   7.274
    4AU    AUSL 1211  45.377  10.779   8.316
    4AU    AUSL 1212  45.127  10.406   8.222
    4AU     AUL 1213  45.434  10.407   8.389
    4AU    AUSL 1214  44.962  10.721   8.460
    4AU    AUSL 1215  44.724  11.130   8.451
    4AU     AUL 1216  44.960  11.005   8.710
    4AU    AUSL 1217  45.061  11.078   8.204
    4AU    AUSL 1218  45.512  11.137   8.126
    4AU     AUL 1219  45.330  11.102   8.435
    4AU    AUSL 1220  45.285  10.939   6.840
    4AU    AUSL 1221  45.146  11.335   6.981
    4AU     AUL 1222  45.360  11.267   6.681
    4AU    AUSL 1223  45.097  10.617   6.612
    4AU    AUSL 1224  45.604  10.687   6.982
    4AU     AUL 1225  45.472  10.761   6.665
    4AU    AUSL 1226  44.929  11.121   6.670
    4AU    AUSL 1227  44.751  10.735   6.829
    4AU     AUL 1228  44.882  10.814   6.524
    4AU    AUSL 1229  44.340  11.092   8.243
    4AU    AUSL 1230  44.703  11.401   8.111
    4AU     AUL 1231  44.540  11.369   8.412
    4AU    AUSL 1232  44.641  10.779   8.191
    4AU    AUSL 1233  44.192  10.702   8.105
    4AU     AUL 1234  44.249  10.791   8.341
    4AU    AUSL 1235  44.315  10.717   6.795
    4AU    AUSL 1236  44.564  10.367   6.947
    4AU     AUL 1237  44.588  10.453   6.641
    4AU    AUSL 1238  44.501  11.085   6.675
    4AU    AUSL 1239  44.221  11.066   7.050
    4AU     AUL 1240  44.104  10.947   6.776
    4AU    AUSL 1241  45.669  11.374   7.476
    4AU    AUSL 1242  45.544  11.164   7.096
    4AU     AUL 1243  45.839  11.369   7.128
    4AU    AUSL 1244  45.834  10.978   7.367
    4AU    AUSL 1245  45.783  10.680   7.768
    4AU     AUL 1246  46.045  10.764   7.571
    4AU    AUSL 1247  45.556  11.033   7.718
    4AU    AUSL 1248  45.514  11.477   7.853
    4AU     AUL 1249  45.762  11.217   7.878
    4AU    AUSL 1250  44.303  11.554   7.522
    4AU    AUSL 1251  44.340  11.306   7.878
    4AU     AUL 1252  44.031  11.551   7.745
    4AU    AUSL 1253  44.102  11.175   7.444
    4AU    AUSL 1254  44.255  11.491   7.106
    4AU     AUL 1255  44.019  11.416   7.263
    4AU    AUSL 1256  43.975  11.097   7.888
    4AU    AUSL 1257  43.942  10.791   7.349
    4AU     AUL 1258  43.820  11.108   7.590
    4AU    AUSL 1259  45.561  10.331   7.615
    4AU    AUSL 1260  45.387  10.614   7.925
    4AU     AUL 1261  45.694  10.520   8.001
    4AU    AUSL 1262  45.519  10.701   7.397
    4AU    AUSL 1263  45.509  10.299   7.188
    4AU     AUL 1264  45.753  10.509   7.250
    4AU    AUSL 1265  44.095  10.412   7.553
    4AU    AUSL 1266  44.306  10.622   7.205
    4AU     AUL 1267  43.956  10.515   7.213
    4AU    AUSL 1268  44.212  10.813   7.694
    4AU    AUSL 1269  44.402  10.429   7.849
    4AU     AUL 1270  44.021  10.582   7.848
    4AU    AUSL 1271  44.944  11.737   7.966
    4AU    AUSL 1272  44.489  11.716   7.878
    4AU     AUL 1273  44.711  11.761   8.194
    4AU    AUSL 1274  44.776  11.592   7.591
    4AU    AUSL 1275  45.027  11.725   7.247
    4AU     AUL 1276  44.796  11.932   7.554
    4AU    AUSL 1277  45.214  11.668   7.623
    4AU    AUSL 1278  45.208  11.467   8.153
    4AU     AUL 1279  45.327  11.757   7.941
    4AU    AUSL 1280  44.802  10.271   7.970
    4AU    AUSL 1281  45.226  10.212   7.849
    4AU     AUL 1282  44.987  10.150   8.223
    4AU    AUSL 1283  44.494  10.049   7.699
    4AU    AUSL 1284  44.522  10.386   8.274
    4AU     AUL 1285  44.530  10.088   8.050
    4AU    AUSL 1286  44.926   9.974   7.667
    4AU    AUSL 1287  44.719  10.219   7.362
    4AU     AUL 1288  44.602   9.874   7.487
    4AU    AUSL 1289  44.854  11.610   6.843
    4AU    AUSL 1290  45.426  11.588   7.199
    4AU     AUL 1291  45.170  11.698   6.936
    4AU    AUSL 1292  44.605  11.704   7.210
    4AU    AUSL 1293  44.628  11.293   7.014
    4AU     AUL 1294  44.535  11.599   6.856
    4AU    AUSL 1295  44.944  10.167   6.981
    4AU    AUSL 1296  44.311  10.181   7.258
    4AU     AUL 1297  44.607  10.033   7.043
    4AU    AUSL 1298  45.151  10.191   7.381
    4AU    AUSL 1299  45.174  10.524   7.018
    4AU     AUL 1300  45.268  10.151   7.050
    4AU       S 1301  45.399   9.956   8.227
    4AU     LIG 1302  45.446   9.722   8.352
    4AU     LIG 1303  45.568   9.562   8.479
    4AU     LIG 1304  45.726   9.385   8.590
    4AU       S 1305  45.433  10.746   8.719
    4AU     LIG 1306  45.596  10.804   8.921
    4AU     LIG 1307  45.686  10.860   9.146
    4AU     LIG 1308  45.792  10.827   9.383
    4AU       S 1309  45.111  10.553   8.725
    4AU     LIG 1310  45.167  10.459   9.005
    4AU     LIG 1311  45.333  10.475   9.203
    4AU     LIG 1312  45.467  10.430   9.419
    4AU       S 1313  44.486  11.043   8.757
    4AU     LIG 1314  44.449  11.067   9.059
    4AU     LIG 1315  44.331  11.052   9.261
    4AU     LIG 1316  44.183  11.029   9.479
    4AU       S 1317  45.011  11.477   8.566
    4AU     LIG 1318  45.128  11.614   8.771
    4AU     LIG 1319  45.341  11.534   8.933
    4AU     LIG 1320  45.564  11.408   8.947
    4AU       S 1321  45.703  11.369   8.334
    4AU     LIG 1322  45.886  11.409   8.555
    4AU     LIG 1323  46.026  11.566   8.669
    4AU     LIG 1324  46.202  11.742   8.744
    4AU       S 1325  45.304  10.998   6.306
    4AU     LIG 1326  45.519  11.053   6.093
    4AU     LIG 1327  45.653  10.887   5.955
    4AU     LIG 1328  45.713  10.696   5.795
    4AU       S 1329  45.519  11.698   6.652
    4AU     LIG 1330  45.565  11.891   6.462
    4AU     LIG 1331  45.728  11.981   6.288
    4AU     LIG 1332  45.893  12.072   6.123
    4AU       S 1333  45.779  10.409   6.768
    4AU     LIG 1334  45.941  10.322   6.527
    4AU     LIG 1335  45.955  10.103   6.388
    4AU     LIG 1336  45.971   9.848   6.348
    4AU       S 1337  45.225  10.703   6.240
    4AU     LIG 1338  45.247  10.579   6.011
    4AU     LIG 1339  45.234  10.506   5.771
    4AU     LIG 1340  45.305  10.486   5.521
    4AU       S 1341  44.491  10.763   6.303
    4AU     LIG 1342  44.546  10.730   6.024
    4AU     LIG 1343  44.552  10.676   5.795
    4AU     LIG 1344  44.476  10.635   5.540
    4AU       S 1345  45.061  11.144   6.264
    4AU     LIG 1346  44.962  11.078   5.973
    4AU     LIG 1347  45.104  11.003   5.780
    4AU     LIG 1348  45.297  10.995   5.607
    4AU       S 1349  44.210  11.131   8.643
    4AU     LIG 1350  43.999  11.106   8.819
    4AU     LIG 1351  43.945  10.890   8.977
    4AU     LIG 1352  43.875  10.758   9.166
    4AU       S 1353  44.241  11.689   8.268
    4AU     LIG 1354  44.155  11.844   8.501
    4AU     LIG 1355  44.014  11.855   8.694
    4AU     LIG 1356  43.845  11.944   8.877
    4AU       S 1357  43.964  10.423   8.284
    4AU     LIG 1358  43.718  10.354   8.381
    4AU     LIG 1359  43.573  10.162   8.457
    4AU     LIG 1360  43.446   9.980   8.575
    4AU       S 1361  44.535  10.751   8.684
    4AU     LIG 1362  44.458  10.575   8.887
    4AU     LIG 1363  44.345  10.555   9.105
    4AU     LIG 1364  44.300  10.541   9.361
    4AU       S 1365  44.229  10.675   6.418
    4AU     LIG 1366  44.050  10.605   6.208
    4AU     LIG 1367  44.039  10.676   5.957
    4AU     LIG 1368  44.027  10.786   5.737
    4AU       S 1369  44.263  10.127   6.745
    4AU     LIG 1370  44.189   9.940   6.540
    4AU     LIG 1371  44.031   9.898   6.354
    4AU     LIG 1372  43.847   9.849   6.184
    4AU       S 1373  43.893  11.353   6.798
    4AU     LIG 1374  43.686  11.522   6.744
    4AU     LIG 1375  43.634  11.721   6.588
    4AU     LIG 1376  43.610  11.844   6.367
    4AU       S 1377  44.391  11.031   6.393
    4AU     LIG 1378  44.224  11.132   6.139
    4AU     LIG 1379  44.307  11.169   5.913
    4AU     LIG 1380  44.415  11.149   5.679
    4AU       S 1381  45.750  11.512   6.708
    4AU     LIG 1382  45.965  11.558   6.537
    4AU     LIG 1383  46.122  11.670   6.389
    4AU     LIG 1384  46.303  11.789   6.245
    4AU       S 1385  46.002  11.488   7.556
    4AU     LIG 1386  46.215  11.692   7.540
    4AU     LIG 1387  46.459  11.736   7.511
    4AU     LIG 1388  46.712  11.799   7.532
    4AU       S 1389  46.178  11.189   7.388
    4AU     LIG 1390  46.447  11.260   7.293
    4AU     LIG 1391  46.687  11.326   7.306
    4AU     LIG 1392  46.909  11.440   7.226
    4AU       S 1393  46.042  10.310   7.790
    4AU     LIG 1394  46.277  10.208   7.920
    4AU     LIG 1395  46.530  10.203   7.859
    4AU     LIG 1396  46.779  10.171   7.780
    4AU       S 1397  45.739  11.617   8.127
    4AU     LIG 1398  45.934  11.794   8.210
    4AU     LIG 1399  45.979  11.993   8.357
    4AU     LIG 1400  45.998  12.172   8.540
    4AU       S 1401  46.149  11.221   7.663
    4AU     LIG 1402  46.387  11.292   7.814
    4AU     LIG 1403  46.624  11.359   7.811
    4AU     LIG 1404  46.854  11.449   7.878
    4AU       S 1405  44.075  11.466   8.203
    4AU     LIG 1406  43.836  11.458   8.380
    4AU     LIG 1407  43.650  11.597   8.444
    4AU     LIG 1408  43.474  11.716   8.594
    4AU       S 1409  44.242  11.890   7.463
    4AU     LIG 1410  44.082  12.098   7.335
    4AU     LIG 1411  43.836  12.078   7.239
    4AU     LIG 1412  43.648  11.921   7.123
    4AU       S 1413  43.678  11.109   7.139
    4AU     LIG 1414  43.440  11.114   7.071
    4AU     LIG 1415  43.185  11.190   7.141
    4AU     LIG 1416  43.040  11.403   7.163
    4AU       S 1417  44.108  11.763   6.929
    4AU     LIG 1418  44.035  11.971   6.787
    4AU     LIG 1419  43.893  12.150   6.702
    4AU     LIG 1420  43.762  12.305   6.537
    4AU       S 1421  43.589  10.705   7.449
    4AU     LIG 1422  43.312  10.695   7.337
    4AU     LIG 1423  43.069  10.677   7.332
    4AU     LIG 1424  42.835  10.556   7.284
    4AU       S 1425  43.780  11.024   8.097
    4AU     LIG 1426  43.467  11.128   8.182
    4AU     LIG 1427  43.350  11.340   8.094
    4AU     LIG 1428  43.170  11.487   7.968
    4AU       S 1429  45.772  10.140   7.606
    4AU     LIG 1430  45.906   9.838   7.622
    4AU     LIG 1431  46.134   9.772   7.697
    4AU     LIG 1432  46.405   9.758   7.655
    4AU       S 1433  45.616  10.079   8.066
    4AU     LIG 1434  45.863   9.943   8.105
    4AU     LIG 1435  45.993   9.855   8.287
    4AU     LIG 1436  46.040   9.785   8.537
    4AU       S 1437  46.029  10.290   7.519
    4AU     LIG 1438  46.252  10.168   7.383
    4AU     LIG 1439  46.493  10.169   7.343
    4AU     LIG 1440  46.734  10.097   7.280
    4AU       S 1441  45.721  10.147   6.925
    4AU     LIG 1442  45.786   9.887   6.822
    4AU     LIG 1443  45.659   9.664   6.774
    4AU     LIG 1444  45.618   9.445   6.659
    4AU       S 1445  44.086  10.322   6.817
    4AU     LIG 1446  43.853  10.332   6.620
    4AU     LIG 1447  43.676  10.215   6.527
    4AU     LIG 1448  43.470  10.057   6.465
    4AU       S 1449  43.671  10.414   7.583
    4AU     LIG 1450  43.454  10.248   7.588
    4AU     LIG 1451  43.227  10.200   7.482
    4AU     LIG 1452  42.994  10.096   7.441
    4AU       S 1453  44.083  10.193   8.082
    4AU     LIG 1454  43.907   9.985   8.068
    4AU     LIG 1455  43.787   9.799   8.174
    4AU     LIG 1456  43.654   9.613   8.287
    4AU       S 1457  43.613  10.709   7.713
    4AU     LIG 1458  43.379  10.681   7.888
    4AU     LIG 1459  43.140  10.589   7.835
    4AU     LIG 1460  42.931  10.454   7.809
    4AU       S 1461  44.282  11.908   7.989
    4AU     LIG 1462  44.047  12.097   8.062
    4AU     LIG 1463  43.822  12.060   8.206
    4AU     LIG 1464  43.690  12.137   8.412
    4AU       S 1465  45.025  12.094   8.053
    4AU     LIG 1466  45.136  12.281   8.255
    4AU     LIG 1467  45.024  12.471   8.380
    4AU     LIG 1468  44.879  12.672   8.444
    4AU       S 1469  44.787  12.229   7.925
    4AU     LIG 1470  44.698  12.454   7.968
    4AU     LIG 1471  44.672  12.713   7.984
    4AU     LIG 1472  44.681  12.964   8.012
    4AU       S 1473  44.952  12.072   7.131
    4AU     LIG 1474  45.018  12.341   7.146
    4AU     LIG 1475  45.052  12.573   7.130
    4AU     LIG 1476  45.115  12.816   7.042
    4AU       S 1477  45.462  11.584   8.364
    4AU     LIG 1478  45.537  11.803   8.543
    4AU     LIG 1479  45.638  11.884   8.736
    4AU     LIG 1480  45.764  11.902   8.967
    4AU       S 1481  45.164  12.145   7.734
    4AU     LIG 1482  45.196  12.418   7.718
    4AU     LIG 1483  45.171  12.628   7.875
    4AU     LIG 1484  45.183  12.812   8.040
    4AU       S 1485  44.885   9.735   8.062
    4AU     LIG 1486  45.004   9.529   8.213
    4AU     LIG 1487  44.992   9.322   8.334
    4AU     LIG 1488  44.973   9.085   8.434
    4AU       S 1489  45.368   9.968   7.902
    4AU     LIG 1490  45.472   9.664   7.827
    4AU     LIG 1491  45.632   9.530   7.925
    4AU     LIG 1492  45.844   9.430   8.057
    4AU       S 1493  44.633   9.649   7.896
    4AU     LIG 1494  44.584   9.382   7.918
    4AU     LIG 1495  44.606   9.164   8.033
    4AU     LIG 1496  44.596   8.926   8.129
    4AU       S 1497  44.227  10.275   8.386
    4AU     LIG 1498  44.100  10.057   8.570
    4AU     LIG 1499  43.963   9.883   8.640
    4AU     LIG 1500  43.826   9.689   8.762
    4AU       S 1501  44.951   9.745   7.221
    4AU     LIG 1502  44.890   9.417   7.210
    4AU     LIG 1503  44.875   9.221   7.090
    4AU     LIG 1504  44.875   8.954   7.027
    4AU       S 1505  44.965   9.698   7.758
    4AU     LIG 1506  45.065   9.396   7.712
    4AU     LIG 1507  45.078   9.199   7.838
    4AU     LIG 1508  45.072   8.953   7.941
    4AU       S 1509  44.804  11.992   6.835
    4AU     LIG 1510  44.810  12.221   6.681
    4AU     LIG 1511  44.933  12.437   6.641
    4AU     LIG 1512  44.999  12.671   6.564
    4AU       S 1513  45.643  11.768   6.958
    4AU     LIG 1514  45.841  11.972   6.901
    4AU     LIG 1515  46.000  12.046   6.721
    4AU     LIG 1516  46.148  12.168   6.558
    4AU       S 1517  44.601  12.013   7.112
    4AU     LIG 1518  44.489  12.291   7.085
    4AU     LIG 1519  44.546  12.517   6.998
    4AU     LIG 1520  44.620  12.742   6.907
    4AU       S 1521  44.163  11.423   6.654
    4AU     LIG 1522  44.103  11.558   6.415
    4AU     LIG 1523  44.113  11.788   6.319
    4AU     LIG 1524  44.086  12.027   6.239
    4AU       S 1525  44.108  10.091   7.029
    4AU     LIG 1526  43.851   9.918   6.950
    4AU     LIG 1527  43.764   9.776   6.784
    4AU     LIG 1528  43.678   9.603   6.606
    4AU       S 1529  45.021   9.784   6.941
    4AU     LIG 1530  45.138   9.605   6.769
    4AU     LIG 1531  45.111   9.395   6.646
    4AU     LIG 1532  45.035   9.157   6.582
    4AU       S 1533  45.214   9.785   7.324
    4AU     LIG 1534  45.378   9.544   7.293
    4AU     LIG 1535  45.385   9.338   7.128
    4AU     LIG 1536  45.370   9.121   6.984
    4AU       S 1537  45.475  10.294   6.673
    4AU     LIG 1538  45.461  10.116   6.470
    4AU     LIG 1539  45.451   9.888   6.376
    4AU     LIG 1540  45.502   9.685   6.221
    5AU     AUC 1541  27.022   5.020   7.535
    5AU     AUC 1542  27.274   5.025   7.369
    5AU     AUC 1543  27.263   5.012   7.699
    5AU     AUC 1544  26.752   5.028   7.380
    5AU     AUC 1545  26.778   5.057   7.705
    5AU     AUC 1546  26.861   5.273   7.513
    5AU     AUC 1547  27.208   5.285   7.516
    5AU     AUC 1548  26.843   4.766   7.543
    5AU     AUC 1549  27.174   4.744   7.545
    5AU     AUC 1550  27.016   4.860   7.798
    5AU     AUC 1551  27.035   5.200   7.779
    5AU     AUC 1552  27.009   4.847   7.287
    5AU     AUC 1553  27.029   5.153   7.271
    5AU     AUC 1554  27.577   5.016   7.204
    5AU     AUC 1555  27.585   4.996   7.545
    5AU     AUC 1556  27.543   4.983   7.899
    5AU     AUC 1557  26.450   5.002   7.228
    5AU     AUC 1558  26.449   5.061   7.556
    5AU     AUC 1559  26.478   5.100   7.888
    5AU     AUC 1560  26.696   5.586   7.474
    5AU     AUC 1561  27.056   5.560   7.457
    5AU     AUC 1562  27.422   5.548   7.487
    5AU     AUC 1563  26.639   4.477   7.548
    5AU     AUC 1564  26.990   4.453   7.529
    5AU     AUC 1565  27.346   4.442   7.546
    5AU     AUC 1566  26.975   4.694   8.101
    5AU     AUC 1567  27.012   5.036   8.101
    5AU     AUC 1568  27.069   5.400   8.062
    5AU     AUC 1569  27.040   4.657   6.997
    5AU     AUC 1570  26.988   4.998   6.973
    5AU     AUC 1571  26.985   5.321   6.957
    5AU     AUC 1572  27.257   4.798   8.012
    5AU     AUC 1573  27.313   5.174   7.987
    5AU     AUC 1574  27.312   4.860   7.072
    5AU     AUC 1575  27.277   5.172   7.079
    5AU     AUC 1576  26.723   4.918   8.000
    5AU     AUC 1577  26.770   5.268   7.971
    5AU     AUC 1578  26.734   4.817   7.103
    5AU     AUC 1579  26.688   5.145   7.083
    5AU     AUC 1580  27.515   5.288   7.346
    5AU     AUC 1581  27.481   5.285   7.705
    5AU     AUC 1582  26.556   5.300   7.383
    5AU     AUC 1583  26.601   5.366   7.713
    5AU     AUC 1584  27.478   4.737   7.407
    5AU     AUC 1585  27.426   4.691   7.739
    5AU     AUC 1586  26.557   4.714   7.373
    5AU     AUC 1587  26.583   4.788   7.716
    5AU     AUC 1588  26.921   5.518   7.782
    5AU     AUC 1589  27.260   5.473   7.793
    5AU     AUC 1590  26.808   4.585   7.817
    5AU     AUC 1591  27.126   4.532   7.809
    5AU     AUC 1592  26.831   5.451   7.215
    5AU     AUC 1593  27.196   5.467   7.226
    5AU     AUC 1594  26.862   4.553   7.258
    5AU     AUC 1595  27.222   4.598   7.274
    5AU    AUSL 1596  27.521   4.888   8.316
    5AU    AUSL 1597  27.271   4.515   8.222
    5AU     AUL 1598  27.578   4.516   8.389
    5AU    AUSL 1599  27.106   4.830   8.460
    5AU    AUSL 1600  26.868   5.239   8.451
    5AU     AUL 1601  27.104   5.114   8.710
    5AU    AUSL 1602  27.205   5.187   8.204
    5AU    AUSL 1603  27.656   5.246   8.126
    5AU     AUL 1604  27.474   5.211   8.435
    5AU    AUSL 1605  27.429   5.048   6.840
    5AU    AUSL 1606  27.290   5.444   6.981
    5AU     AUL 1607  27.504   5.376   6.681
    5AU    AUSL 1608  27.241   4.726   6.612
    5AU    AUSL 1609  27.748   4.796   6.982
    5AU     AUL 1610  27.616   4.870   6.665
    5AU    AUSL 1611  27.073   5.230   6.670
    5AU    AUSL 1612  26.895   4.844   6.829
    5AU     AUL 1613  27.026   4.923   6.524
    5AU    AUSL 1614  26.484   5.201   8.243
    5AU    AUSL 1615  26.847   5.510   8.111
    5AU     AUL 1616  26.684   5.478   8.412
    5AU    AUSL 1617  26.785   4.888   8.191
    5AU    AUSL 1618  26.336   4.811   8.105
    5AU     AUL 1619  26.393   4.900   8.341
    5AU    AUSL 1620  26.459   4.826   6.795
    5AU    AUSL 1621  26.708   4.476   6.947
    5AU     AUL 1622  26.732   4.562   6.641
    5AU    AUSL 1623  26.645   5.194   6.675
    5AU    AUSL 1624  26.365   5.175   7.050
    5AU     AUL 1625  26.248   5.056   6.776
    5AU    AUSL 1626  27.813   5.483   7.476
    5AU    AUSL 1627  27.688   5.273   7.096
    5AU     AUL 1628  27.983   5.478   7.128
    5AU    AUSL 1629  27.978   5.087   7.367
    5AU    AUSL 1630  27.927   4.789   7.768
    5AU     AUL 1631  28.189   4.873   7.571
    5AU    AUSL 1632  27.700   5.142   7.718
    5AU    AUSL 1633  27.658   5.586   7.853
    5AU     AUL 1634  27.906   5.326   7.878
    5AU    AUSL 1635  26.447   5.663   7.522
    5AU    AUSL 1636  26.484   5.415   7.878
    5AU     AUL 1637  26.175   5.660   7.745
    5AU    AUSL 1638  26.246   5.284   7.444
    5AU    AUSL 1639  26.399   5.600   7.106
    5AU     AUL 1640  26.163   5.525   7.263
    5AU    AUSL 1641  26.119   5.206   7.888
    5AU    AUSL 1642  26.086   4.900   7.349
    5AU     AUL 1643  25.964   5.217   7.590
    5AU    AUSL 1644  27.705   4.440   7.615
    5AU    AUSL 1645  27.531   4.723   7.925
    5AU     AUL 1646  27.838   4.629   8.001
    5AU    AUSL 1647  27.663   4.810   7.397
    5AU    AUSL 1648  27.653   4.408   7.188
    5AU     AUL 1649  27.897   4.618   7.250
    5AU    AUSL 1650  26.239   4.521   7.553
    5AU    AUSL 1651  26.450   4.731   7.205
    5AU     AUL 1652  26.100   4.624   7.213
    5AU    AUSL 1653  26.356   4.922   7.694
    5AU    AUSL 1654  26.546   4.538   7.849
    5AU     AUL 1655  26.165   4.691   7.848
    5AU    AUSL 1656  27.088   5.846   7.966
    5AU    AUSL 1657  26.633   5.825   7.878
    5AU     AUL 1658  26.855   5.870   8.194
    5AU    AUSL 1659  26.920   5.701   7.591
    5AU    AUSL 1660  27.171   5.834   7.247
    5AU     AUL 1661  26.940   6.041   7.554
    5AU    AUSL 1662  27.358   5.777   7.623
    5AU    AUSL 1663  27.352   5.576   8.153
    5AU     AUL 1664  27.471   5.866   7.941
    5AU    AUSL 1665  26.946   4.380   7.970
    5AU    AUSL 1666  27.370   4.321   7.849
    5AU     AUL 1667  27.131   4.259   8.223
    5AU    AUSL 1668  26.638   4.158   7.699
    5AU    AUSL 1669  26.666   4.495   8.274
    5AU     AUL 1670  26.674   4.197   8.050
    5AU    AUSL 1671  27.070   4.083   7.667
    5AU    AUSL 1672  26.863   4.328   7.362
    5AU     AUL 1673  26.746   3.983   7.487
    5AU    AUSL 1674  26.998   5.719   6.843
    5AU    AUSL 1675  27.570   5.697   7.199
    5AU     AUL 1676  27.314   5.807   6.936
    5AU    AUSL 1677  26.749   5.813   7.210
    5AU    AUSL 1678  26.772   5.402   7.014
    5AU     AUL 1679  26.679   5.708   6.856
    5AU    AUSL 1680  27.088   4.276   6.981
    5AU    AUSL 1681  26.455   4.290   7.258
    5AU     AUL 1682  26.751   4.142   7.043
    5AU    AUSL 1683  27.295   4.300   7.381
    5AU    AUSL 1684  27.318   4.633   7.018
    5AU     AUL 1685  27.412   4.260   7.050
    5AU       S 1686  27.543   4.065   8.227
    5AU     LIG 1687  27.590   3.831   8.352
    5AU     LIG 1688  27.712   3.671   8.479
    5AU     LIG 1689  27.870   3.494   8.590
    5AU       S 1690  27.577   4.855   8.719
    5AU     LIG 1691  27.740   4.913   8.921
    5AU     LIG 1692  27.830   4.969   9.146
    5AU     LIG 1693  27.936   4.936   9.383
    5AU       S 1694  27.255   4.662   8.725
    5AU     LIG 1695  27.311   4.568   9.005
    5AU     LIG 1696  27.477   4.584   9.203
    5AU     LIG 1697  27.611   4.539   9.419
    5AU       S 1698  26.630   5.152   8.757
    5AU     LIG 1699  26.593   5.176   9.059
    5AU     LIG 1700  26.475   5.161   9.261
    5AU     LIG 1701  26.327   5.138   9.479
    5AU       S 1702  27.155   5.586   8.566
    5AU     LIG 1703  27.272   5.723   8.771
    5AU     LIG 1704  27.485   5.643   8.933
    5AU     LIG 1705  27.708   5.517   8.947
    5AU       S 1706  27.847   5.478   8.334
    5AU     LIG 1707  28.030   5.518   8.555
    5AU     LIG 1708  28.170   5.675   8.669
    5AU     LIG 1709  28.346   5.851   8.744
    5AU       S 1710  27.448   5.107   6.306
    5AU     LIG 1711  27.663   5.162   6.093
    5AU     LIG 1712  27.797   4.996   5.955
    5AU     LIG 1713  27.857   4.805   5.795
    5AU       S 1714  27.663   5.807   6.652
    5AU     LIG 1715  27.709   6.000   6.462
    5AU     LIG 1716  27.872   6.090   6.288
    5AU     LIG 1717  28.037   6.181   6.123
    5AU       S 1718  27.923   4.518   6.768
    5AU     LIG 1719  28.085   4.431   6.527
    5AU     LIG 1720  28.099   4.212   6.388
    5AU     LIG 1721  28.115   3.957   6.348
    5AU       S 1722  27.369   4.812   6.240
    5AU     LIG 1723  27.391   4.688   6.011
    5AU     LIG 1724  27.378   4.615   5.771
    5AU     LIG 1725  27.449   4.595   5.521
    5AU       S 1726  26.635   4.872   6.303
    5AU     LIG 1727  26.690   4.839   6.024
    5AU     LIG 1728  26.696   4.785   5.795
    5AU     LIG 1729  26.620   4.744   5.540
    5AU       S 1730  27.205   5.253   6.264
    5AU     LIG 1731  27.106   5.187   5.973
    5AU     LIG 1732  27.248   5.112   5.780
    5AU     LIG 1733  27.441   5.104   5.607
    5AU       S 1734  26.354   5.240   8.643
    5AU     LIG 1735  26.143   5.215   8.819
    5AU     LIG 1736  26.089   4.999   8.977
    5AU     LIG 1737  26.019   4.867   9.166
    5AU       S 1738  26.385   5.798   8.268
    5AU     LIG 1739  26.299   5.953   8.501
    5AU     LIG 1740  26.158   5.964   8.694
    5AU     LIG 1741  25.989   6.053   8.877
    5AU       S 1742  26.108   4.532   8.284
    5AU     LIG 1743  25.862   4.463   8.381
    5AU     LIG 1744  25.717   4.271   8.457
    5AU     LIG 1745  25.590   4.089   8.575
    5AU       S 1746  26.679   4.860   8.684
    5AU     LIG 1747  26.602   4.684   8.887
    5AU     LIG 1748  26.489   4.664   9.105
    5AU     LIG 1749  26.444   4.650   9.361
    5AU       S 1750  26.373   4.784   6.418
    5AU     LIG 1751  26.194   4.714   6.208
    5AU     LIG 1752  26.183   4.785   5.957
    5AU     LIG 1753  26.171   4.895   5.737
    5AU       S 1754  26.407   4.236   6.745
    5AU     LIG 1755  26.333   4.049   6.540
    5AU     LIG 1756  26.175   4.007   6.354
    5AU     LIG 1757  25.991   3.958   6.184
    5AU       S 1758  26.037   5.462   6.798
    5AU     LIG 1759  25.830   5.631   6.744
    5AU     LIG 1760  25.778   5.830   6.588
    5AU     LIG 1761  25.754   5.953   6.367
    5AU       S 1762  26.535   5.140   6.393
    5AU     LIG 1763  26.368   5.241   6.139
    5AU     LIG 1764  26.451   5.278   5.913
    5AU     LIG 1765  26.559   5.258   5.679
    5AU       S 1766  27.894   5.621   6.708
    5AU     LIG 1767  28.109   5.667   6.537
    5AU     LIG 1768  28.266   5.779   6.389
    5AU     LIG 1769  28.447   5.898   6.245
    5AU       S 1770  28.146   5.597   7.556
    5AU     LIG 1771  28.359   5.801   7.540
    5AU     LIG 1772  28.603   5.845   7.511
    5AU     LIG 1773  28.856   5.908   7.532
    5AU       S 1774  28.322   5.298   7.388
    5AU     LIG 1775  28.591   5.369   7.293
    5AU     LIG 1776  28.831   5.435   7.306
    5AU     LIG 1777  29.053   5.549   7.226
    5AU       S 1778  28.186   4.419   7.790
    5AU     LIG 1779  28.421   4.317   7.920
    5AU     LIG 1780  28.674   4.312   7.859
    5AU     LIG 1781  28.923   4.280   7.780
    5AU       S 1782  27.883   5.726   8.127
    5AU     LIG 1783  28.078   5.903   8.210
    5AU     LIG 1784  28.123   6.102   8.357
    5AU     LIG 1785  28.142   6.281   8.540
    5AU       S 1786  28.293   5.330   7.663
    5AU     LIG 1787  28.531   5.401   7.814
    5AU     LIG 1788  28.768   5.468   7.811
    5AU     LIG 1789  28.998   5.558   7.878
    5AU       S 1790  26.219   5.575   8.203
    5AU     LIG 1791  25.980   5.567   8.380
    5AU     LIG 1792  25.794   5.706   8.444
    5AU     LIG 1793  25.618   5.825   8.594
    5AU       S 1794  26.386   5.999   7.463
    5AU     LIG 1795  26.226   6.207   7.335
    5AU     LIG 1796  25.980   6.187   7.239
    5AU     LIG 1797  25.792   6.030   7.123
    5AU       S 1798  25.822   5.218   7.139
    5AU     LIG 1799  25.584   5.223   7.071
    5AU     LIG 1800  25.329   5.299   7.141
    5AU     LIG 1801  25.184   5.512   7.163
    5AU       S 1802  26.252   5.872   6.929
    5AU     LIG 1803  26.179   6.080   6.787
    5AU     LIG 1804  26.037   6.259   6.702
    5AU     LIG 1805  25.906   6.414   6.537
    5AU       S 1806  25.733   4.814   7.449
    5AU     LIG 1807  25.456   4.804   7.337
    5AU     LIG 1808  25.213   4.786   7.332
    5AU     LIG 1809  24.979   4.665   7.284
    5AU       S 1810  25.924   5.133   8.097
    5AU     LIG 1811  25.611   5.237   8.182
    5AU     LIG 1812  25.494   5.449   8.094
    5AU     LIG 1813  25.314   5.596   7.968
    5AU       S 1814  27.916   4.249   7.606
    5AU     LIG 1815  28.050   3.947   7.622
    5AU     LIG 1816  28.278   3.881   7.697
    5AU     LIG 1817  28.549   3.867   7.655
    5AU       S 1818  27.760   4.188   8.066
    5AU     LIG 1819  28.007   4.052   8.105
    5AU     LIG 1820  28.137   3.964   8.287
    5AU     LIG 1821  28.184   3.894   8.537
    5AU       S 1822  28.173   4.399   7.519
    5AU     LIG 1823  28.396   4.277   7.383
    5AU     LIG 1824  28.637   4.278   7.343
    5AU     LIG 1825  28.878   4.206   7.280
    5AU       S 1826  27.865   4.256   6.925
    5AU     LIG 1827  27.930   3.996   6.822
    5AU     LIG 1828  27.803   3.773   6.774
    5AU     LIG 1829  27.762   3.554   6.659
    5AU       S 1830  26.230   4.431   6.817
    5AU     LIG 1831  25.997   4.441   6.620
    5AU     LIG 1832  25.820   4.324   6.527
    5AU     LIG 1833  25.614   4.166   6.465
    5AU       S 1834  25.815   4.523   7.583
    5AU     LIG 1835  25.598   4.357   7.588
    5AU     LIG 1836  25.371   4.309   7.482
    5AU     LIG 1837  25.138   4.205   7.441
    5AU       S 1838  26.227   4.302   8.082
    5AU     LIG 1839  26.051   4.094   8.068
    5AU     LIG 1840  25.931   3.908   8.174
    5AU     LIG 1841  25.798   3.722   8.287
    5AU       S 1842  25.757   4.818   7.713
    5AU     LIG 1843  25.523   4.790   7.888
    5AU     LIG 1844  25.284   4.698   7.835
    5AU     LIG 1845  25.075   4.563   7.809
    5AU       S 1846  26.426   6.017   7.989
    5AU     LIG 1847  26.191   6.206   8.062
    5AU     LIG 1848  25.966   6.169   8.206
    5AU     LIG 1849  25.834   6.246   8.412
    5AU       S 1850  27.169   6.203   8.053
    5AU     LIG 1851  27.280   6.390   8.255
    5AU     LIG 1852  27.168   6.580   8.380
    5AU     LIG 1853  27.023   6.781   8.444
    5AU       S 1854  26.931   6.338   7.925
    5AU     LIG 1855  26.842   6.563   7.968
    5AU     LIG 1856  26.816   6.822   7.984
    5AU     LIG 1857  26.825   7.073   8.012
    5AU       S 1858  27.096   6.181   7.131
    5AU     LIG 1859  27.162   6.450   7.146
    5AU     LIG 1860  27.196   6.682   7.130
    5AU     LIG 1861  27.259   6.925   7.042
    5AU       S 1862  27.606   5.693   8.364
    5AU     LIG 1863  27.681   5.912   8.543
    5AU     LIG 1864  27.782   5.993   8.736
    5AU     LIG 1865  27.908   6.011   8.967
    5AU       S 1866  27.308   6.254   7.734
    5AU     LIG 1867  27.340   6.527   7.718
    5AU     LIG 1868  27.315   6.737   7.875
    5AU     LIG 1869  27.327   6.921   8.040
    5AU       S 1870  27.029   3.844   8.062
    5AU     LIG 1871  27.148   3.638   8.213
    5AU     LIG 1872  27.136   3.431   8.334
    5AU     LIG 1873  27.117   3.194   8.434
    5AU       S 1874  27.512   4.077   7.902
    5AU     LIG 1875  27.616   3.773   7.827
    5AU     LIG 1876  27.776   3.639   7.925
    5AU     LIG 1877  27.988   3.539   8.057
    5AU       S 1878  26.777   3.758   7.896
    5AU     LIG 1879  26.728   3.491   7.918
    5AU     LIG 1880  26.750   3.273   8.033
    5AU     LIG 1881  26.740   3.035   8.129
    5AU       S 1882  26.371   4.384   8.386
    5AU     LIG 1883  26.244   4.166   8.570
    5AU     LIG 1884  26.107   3.992   8.640
    5AU     LIG 1885  25.970   3.798   8.762
    5AU       S 1886  27.095   3.854   7.221
    5AU     LIG 1887  27.034   3.526   7.210
    5AU     LIG 1888  27.019   3.330   7.090
    5AU     LIG 1889  27.019   3.063   7.027
    5AU       S 1890  27.109   3.807   7.758
    5AU     LIG 1891  27.209   3.505   7.712
    5AU     LIG 1892  27.222   3.308   7.838
    5AU     LIG 1893  27.216   3.062   7.941
    5AU       S 1894  26.948   6.101   6.835
    5AU     LIG 1895  26.954   6.330   6.681
    5AU     LIG 1896  27.077   6.546   6.641
    5AU     LIG 1897  27.143   6.780   6.564
    5AU       S 1898  27.787   5.877   6.958
    5AU     LIG 1899  27.985   6.081   6.901
    5AU     LIG 1900  28.144   6.155   6.721
    5AU     LIG 1901  28.292   6.277   6.558
    5AU       S 1902  26.745   6.122   7.112
    5AU     LIG 1903  26.633   6.400   7.085
    5AU     LIG 1904  26.690   6.626   6.998
    5AU     LIG 1905  26.764   6.851   6.907
    5AU       S 1906  26.307   5.532   6.654
    5AU     LIG 1907  26.247   5.667   6.415
    5AU     LIG 1908  26.257   5.897   6.319
    5AU     LIG 1909  26.230   6.136   6.239
    5AU       S 1910  26.252   4.200   7.029
    5AU     LIG 1911  25.995   4.027   6.950
    5AU     LIG 1912  25.908   3.885   6.784
    5AU     LIG 1913  25.822   3.712   6.606
    5AU       S 1914  27.165   3.893   6.941
    5AU     LIG 1915  27.282   3.714   6.769
    5AU     LIG 1916  27.255   3.504   6.646
    5AU     LIG 1917  27.179   3.266   6.582
    5AU       S 1918  27.358   3.894   7.324
    5AU     LIG 1919  27.522   3.653   7.293
    5AU     LIG 1920  27.529   3.447   7.128
    5AU     LIG 1921  27.514   3.230   6.984
    5AU       S 1922  27.619   4.403   6.673
    5AU     LIG 1923  27.605   4.225   6.470
    5AU     LIG 1924  27.595   3.997   6.376
    5AU     LIG 1925  27.646   3.794   6.221
    6AU     AUC 1926  23.251  20.505   7.535
    6AU     AUC 1927  23.503  20.510   7.369
    6AU     AUC 1928  23.492  20.497   7.699
    6AU     AUC 1929  22.981  20.513   7.380
    6AU     AUC 1930  23.007  20.542   7.705
    6AU     AUC 1931  23.090  20.758   7.513
    6AU     AUC 1932  23.437  20.770   7.516
    6AU     AUC 1933  23.072  20.251   7.543
    6AU     AUC 1934  23.403  20.229   7.545
    6AU     AUC 1935  23.245  20.345   7.798
    6AU     AUC 1936  23.264  20.685   7.779
    6AU     AUC 1937  23.238  20.332   7.287
    6AU     AUC 1938  23.258  20.638   7.271
    6AU     AUC 1939  23.806  20.501   7.204
    6AU     AUC 1940  23.814  20.481   7.545
    6AU     AUC 1941  23.772  20.468   7.899
    6AU     AUC 1942  22.679  20.487   7.228
    6AU     AUC 1943  22.678  20.546   7.556
    6AU     AUC 1944  22.707  20.585   7.888
    6AU     AUC 1945  22.925  21.071   7.474
    6AU     AUC 1946  23.285  21.045   7.457
    6AU     AUC 1947  23.651  21.033   7.487
    6AU     AUC 1948  22.868  19.962   7.548
    6AU     AUC 1949  23.219  19.938   7.529
    6AU     AUC 1950  23.575  19.927   7.546
    6AU     AUC 1951  23.204  20.179   8.101
    6AU     AUC 1952  23.241  20.521   8.101
    6AU     AUC 1953  23.298  20.885   8.062
    6AU     AUC 1954  23.269  20.142   6.997
    6AU     AUC 1955  23.217  20.483   6.973
    6AU     AUC 1956  23.214  20.806   6.957
    6AU     AUC 1957  23.486  20.283   8.012
    6AU     AUC 1958  23.542  20.659   7.987
    6AU     AUC 1959  23.541  20.345   7.072
    6AU     AUC 1960  23.506  20.657   7.079
    6AU     AUC 1961  22.952  20.403   8.000
    6AU     AUC 1962  22.999  20.753   7.971
    6AU     AUC 1963  22.963  20.302   7.103
    6AU     AUC 1964  22.917  20.630   7.083
    6AU     AUC 1965  23.744  20.773   7.346
    6AU     AUC 1966  23.710  20.770   7.705
    6AU     AUC 1967  22.785  20.785   7.383
    6AU     AUC 1968  22.830  20.851   7.713
    6AU     AUC 1969  23.707  20.222   7.407
    6AU     AUC 1970  23.655  20.176   7.739
    6AU     AUC 1971  22.786  20.199   7.373
    6AU     AUC 1972  22.812  20.273   7.716
    6AU     AUC 1973  23.150  21.003   7.782
    6AU     AUC 1974  23.489  20.958   7.793
    6AU     AUC 1975  23.037  20.070   7.817
    6AU     AUC 1976  23.355  20.017   7.809
    6AU     AUC 1977  23.060  20.936   7.215
    6AU     AUC 1978  23.425  20.952   7.226
    6AU     AUC 1979  23.091  20.038   7.258
    6AU     AUC 1980  23.451  20.083   7.274
    6AU    AUSL 1981  23.750  20.373   8.316
    6AU    AUSL 1982  23.500  20.000   8.222
    6AU     AUL 1983  23.807  20.001   8.389
    6AU    AUSL 1984  23.335  20.315   8.460
    6AU    AUSL 1985  23.097  20.724   8.451
    6AU     AUL 1986  23.333  20.599   8.710
    6AU    AUSL 1987  23.434  20.672   8.204
    6AU    AUSL 1988  23.885  20.731   8.126
    6AU     AUL 1989  23.703  20.696   8.435
    6AU    AUSL 1990  23.658  20.533   6.840
    6AU    AUSL 1991  23.519  20.929   6.981
    6AU     AUL 1992  23.733  20.861   6.681
    6AU    AUSL 1993  23.470  20.211   6.612
    6AU    AUSL 1994  23.977  20.281   6.982
    6AU     AUL 1995  23.845  20.355   6.665
    6AU    AUSL 1996  23.302  20.715   6.670
    6AU    AUSL 1997  23.124  20.329   6.829
    6AU     AUL 1998  23.255  20.408   6.524
    6AU    AUSL 1999  22.713  20.686   8.243
    6AU    AUSL 2000  23.076  20.995   8.111
    6AU     AUL 2001  22.913  20.963   8.412
    6AU    AUSL 2002  23.014  20.373   8.191
    6AU    AUSL 2003  22.565  20.296   8.105
    6AU     AUL 2004  22.622  20.385   8.341
    6AU    AUSL 2005  22.688  20.311   6.795
    6AU    AUSL 2006  22.937  19.961   6.947
    6AU     AUL 2007  22.961  20.047   6.641
    6AU    AUSL 2008  22.874  20.679   6.675
    6AU    AUSL 2009  22.594  20.660   7.050
    6AU     AUL 2010  22.477  20.541   6.776
    6AU    AUSL 2011  24.042  20.968   7.476
    6AU    AUSL 2012  23.917  20.758   7.096
    6AU     AUL 2013  24.212  20.963   7.128
    6AU    AUSL 2014  24.207  20.572   7.367
    6AU    AUSL 2015  24.156  20.274   7.768
    6AU     AUL 2016  24.418  20.358   7.571
    6AU    AUSL 2017  23.929  20.627   7.718
    6AU    AUSL 2018  23.887  21.071   7.853
    6AU     AUL 2019  24.135  20.811   7.878
    6AU    AUSL 2020  22.676  21.148   7.522
    6AU    AUSL 2021  22.713  20.900   7.878
    6AU     AUL 2022  22.404  21.145   7.745
    6AU    AUSL 2023  22.475  20.769   7.444
    6AU    AUSL 2024  22.628  21.085   7.106
    6AU     AUL 2025  22.392  21.010   7.263
    6AU    AUSL 2026  22.348  20.691   7.888
    6AU    AUSL 2027  22.315  20.385   7.349
    6AU     AUL 2028  22.193  20.702   7.590
    6AU    AUSL 2029  23.934  19.925   7.615
    6AU    AUSL 2030  23.760  20.208   7.925
    6AU     AUL 2031  24.067  20.114   8.001
    6AU    AUSL 2032  23.892  20.295   7.397
    6AU    AUSL 2033  23.882  19.893   7.188
    6AU     AUL 2034  24.126  20.103   7.250
    6AU    AUSL 2035  22.468  20.006   7.553
    6AU    AUSL 2036  22.679  20.216   7.205
    6AU     AUL 2037  22.329  20.109   7.213
    6AU    AUSL 2038  22.585  20.407   7.694
    6AU    AUSL 2039  22.775  20.023   7.849
    6AU     AUL 2040  22.394  20.176   7.848
    6AU    AUSL 2041  23.317  21.331   7.966
    6AU    AUSL 2042  22.862  21.310   7.878
    6AU     AUL 2043  23.084  21.355   8.194
    6AU    AUSL 2044  23.149  21.186   7.591
    6AU    AUSL 2045  23.400  21.319   7.247
    6AU     AUL 2046  23.169  21.526   7.554
    6AU    AUSL 2047  23.587  21.262   7.623
    6AU    AUSL 2048  23.581  21.061   8.153
    6AU     AUL 2049  23.700  21.351   7.941
    6AU    AUSL 2050  23.175  19.865   7.970
    6AU    AUSL 2051  23.599  19.806   7.849
    6AU     AUL 2052  23.360  19.744   8.223
    6AU    AUSL 2053  22.867  19.643   7.699
    6AU    AUSL 2054  22.895  19.980   8.274
    6AU     AUL 2055  22.903  19.682   8.050
    6AU    AUSL 2056  23.299  19.568   7.667
    6AU    AUSL 2057  23.092  19.813   7.362
    6AU     AUL 2058  22.975  19.468   7.487
    6AU    AUSL 2059  23.227  21.204   6.843
    6AU    AUSL 2060  23.799  21.182   7.199
    6AU     AUL 2061  23.543  21.292   6.936
    6AU    AUSL 2062  22.978  21.298   7.210
    6AU    AUSL 2063  23.001  20.887   7.014
    6AU     AUL 2064  22.908  21.193   6.856
    6AU    AUSL 2065  23.317  19.761   6.981
    6AU    AUSL 2066  22.684  19.775   7.258
    6AU     AUL 2067  22.980  19.627   7.043
    6AU    AUSL 2068  23.524  19.785   7.381
    6AU    AUSL 2069  23.547  20.118   7.018
    6AU     AUL 2070  23.641  19.745   7.050
    6AU       S 2071  23.772  19.550   8.227
    6AU     LIG 2072  23.819  19.316   8.352
    6AU     LIG 2073  23.941  19.156   8.479
    6AU     LIG 2074  24.099  18.979   8.590
    6AU       S 2075  23.806  20.340   8.719
    6AU     LIG 2076  23.969  20.398   8.921
    6AU     LIG 2077  24.059  20.454   9.146
    6AU     LIG 2078  24.165  20.421   9.383
    6AU       S 2079  23.484  20.147   8.725
    6AU     LIG 2080  23.540  20.053   9.005
    6AU     LIG 2081  23.706  20.069   9.203
    6AU     LIG 2082  23.840  20.024   9.419
    6AU       S 2083  22.859  20.637   8.757
    6AU     LIG 2084  22.822  20.661   9.059
    6AU     LIG 2085  22.704  20.646   9.261
    6AU     LIG 2086  22.556  20.623   9.479
    6AU       S 2087  23.384  21.071   8.566
    6AU     LIG 2088  23.501  21.208   8.771
    6AU     LIG 2089  23.714  21.128   8.933
    6AU     LIG 2090  23.937  21.002   8.947
    6AU       S 2091  24.076  20.963   8.334
    6AU     LIG 2092  24.259  21.003   8.555
    6AU     LIG 2093  24.399  21.160   8.669
    6AU     LIG 2094  24.575  21.336   8.744
    6AU       S 2095  23.677  20.592   6.306
    6AU     LIG 2096  23.892  20.647   6.093
    6AU     LIG 2097  24.026  20.481   5.955
    6AU     LIG 2098  24.086  20.290   5.795
    6AU       S 2099  23.892  21.292   6.652
    6AU     LIG 2100  23.938  21.485   6.462
    6AU     LIG 2101  24.101  21.575   6.288
    6AU     LIG 2102  24.266  21.666   6.123
    6AU       S 2103  24.152  20.003   6.768
    6AU     LIG 2104  24.314  19.916   6.527
    6AU     LIG 2105  24.328  19.697   6.388
    6AU     LIG 2106  24.344  19.442   6.348
    6AU       S 2107  23.598  20.297   6.240
    6AU     LIG 2108  23.620  20.173   6.011
    6AU     LIG 2109  23.607  20.100   5.771
    6AU     LIG 2110  23.678  20.080   5.521
    6AU       S 2111  22.864  20.357   6.303
    6AU     LIG 2112  22.919  20.324   6.024
    6AU     LIG 2113  22.925  20.270   5.795
    6AU     LIG 2114  22.849  20.229   5.540
    6AU       S 2115  23.434  20.738   6.264
    6AU     LIG 2116  23.335  20.672   5.973
    6AU     LIG 2117  23.477  20.597   5.780
    6AU     LIG 2118  23.670  20.589   5.607
    6AU       S 2119  22.583  20.725   8.643
    6AU     LIG 2120  22.372  20.700   8.819
    6AU     LIG 2121  22.318  20.484   8.977
    6AU     LIG 2122  22.248  20.352   9.166
    6AU       S 2123  22.614  21.283   8.268
    6AU     LIG 2124  22.528  21.438   8.501
    6AU     LIG 2125  22.387  21.449   8.694
    6AU     LIG 2126  22.218  21.538   8.877
    6AU       S 2127  22.337  20.017   8.284
    6AU     LIG 2128  22.091  19.948   8.381
    6AU     LIG 2129  21.946  19.756   8.457
    6AU     LIG 2130  21.819  19.574   8.575
    6AU       S 2131  22.908  20.345   8.684
    6AU     LIG 2132  22.831  20.169   8.887
    6AU     LIG 2133  22.718  20.149   9.105
    6AU     LIG 2134  22.673  20.135   9.361
    6AU       S 2135  22.602  20.269   6.418
    6AU     LIG 2136  22.423  20.199   6.208
    6AU     LIG 2137  22.412  20.270   5.957
    6AU     LIG 2138  22.400  20.380   5.737
    6AU       S 2139  22.636  19.721   6.745
    6AU     LIG 2140  22.562  19.534   6.540
    6AU     LIG 2141  22.404  19.492   6.354
    6AU     LIG 2142  22.220  19.443   6.184
    6AU       S 2143  22.266  20.947   6.798
    6AU     LIG 2144  22.059  21.116   6.744
    6AU     LIG 2145  22.007  21.315   6.588
    6AU     LIG 2146  21.983  21.438   6.367
    6AU       S 2147  22.764  20.625   6.393
    6AU     LIG 2148  22.597  20.726   6.139
    6AU     LIG 2149  22.680  20.763   5.913
    6AU     LIG 2150  22.788  20.743   5.679
    6AU       S 2151  24.123  21.106   6.708
    6AU     LIG 2152  24.338  21.152   6.537
    6AU     LIG 2153  24.495  21.264   6.389
    6AU     LIG 2154  24.676  21.383   6.245
    6AU       S 2155  24.375  21.082   7.556
    6AU     LIG 2156  24.588  21.286   7.540
    6AU     LIG 2157  24.832  21.330   7.511
    6AU     LIG 2158  25.085  21.393   7.532
    6AU       S 2159  24.551  20.783   7.388
    6AU     LIG 2160  24.820  20.854   7.293
    6AU     LIG 2161  25.060  20.920   7.306
    6AU     LIG 2162  25.282  21.034   7.226
    6AU       S 2163  24.415  19.904   7.790
    6AU     LIG 2164  24.650  19.802   7.920
    6AU     LIG 2165  24.903  19.797   7.859
    6AU     LIG 2166  25.152  19.765   7.780
    6AU       S 2167  24.112  21.211   8.127
    6AU     LIG 2168  24.307  21.388   8.210
    6AU     LIG 2169  24.352  21.587   8.357
    6AU     LIG 2170  24.371  21.766   8.540
    6AU       S 2171  24.522  20.815   7.663
    6AU     LIG 2172  24.760  20.886   7.814
    6AU     LIG 2173  24.997  20.953   7.811
    6AU     LIG 2174  25.227  21.043   7.878
    6AU       S 2175  22.448  21.060   8.203
    6AU     LIG 2176  22.209  21.052   8.380
    6AU     LIG 2177  22.023  21.191   8.444
    6AU     LIG 2178  21.847  21.310   8.594
    6AU       S 2179  22.615  21.484   7.463
    6AU     LIG 2180  22.455  21.692   7.335
    6AU     LIG 2181  22.209  21.672   7.239
    6AU     LIG 2182  22.021  21.515   7.123
    6AU       S 2183  22.051  20.703   7.139
    6AU     LIG 2184  21.813  20.708   7.071
    6AU     LIG 2185  21.558  20.784   7.141
    6AU     LIG 2186  21.413  20.997   7.163
    6AU       S 2187  22.481  21.357   6.929
    6AU     LIG 2188  22.408  21.565   6.787
    6AU     LIG 2189  22.266  21.744   6.702
    6AU     LIG 2190  22.135  21.899   6.537
    6AU       S 2191  21.962  20.299   7.449
    6AU     LIG 2192  21.685  20.289   7.337
    6AU     LIG 2193  21.442  20.271   7.332
    6AU     LIG 2194  21.208  20.150   7.284
    6AU       S 2195  22.153  20.618   8.097
    6AU     LIG 2196  21.840  20.722   8.182
    6AU     LIG 2197  21.723  20.934   8.094
    6AU     LIG 2198  21.543  21.081   7.968
    6AU       S 2199  24.145  19.734   7.606
    6AU     LIG 2200  24.279  19.432   7.622
    6AU     LIG 2201  24.507  19.366   7.697
    6AU     LIG 2202  24.778  19.352   7.655
    6AU       S 2203  23.989  19.673   8.066
    6AU     LIG 2204  24.236  19.537   8.105
    6AU     LIG 2205  24.366  19.449   8.287
    6AU     LIG 2206  24.413  19.379   8.537
    6AU       S 2207  24.402  19.884   7.519
    6AU     LIG 2208  24.625  19.762   7.383
    6AU     LIG 2209  24.866  19.763   7.343
    6AU     LIG 2210  25.107  19.691   7.280
    6AU       S 2211  24.094  19.741   6.925
    6AU     LIG 2212  24.159  19.481   6.822
    6AU     LIG 2213  24.032  19.258   6.774
    6AU     LIG 2214  23.991  19.039   6.659
    6AU       S 2215  22.459  19.916   6.817
    6AU     LIG 2216  22.226  19.926   6.620
    6AU     LIG 2217  22.049  19.809   6.527
    6AU     LIG 2218  21.843  19.651   6.465
    6AU       S 2219  22.044  20.008   7.583
    6AU     LIG 2220  21.827  19.842   7.588
    6AU     LIG 2221  21.600  19.794   7.482
    6AU     LIG 2222  21.367  19.690   7.441
    6AU       S 2223  22.456  19.787   8.082
    6AU     LIG 2224  22.280  19.579   8.068
    6AU     LIG 2225  22.160  19.393   8.174
    6AU     LIG 2226  22.027  19.207   8.287
    6AU       S 2227  21.986  20.303   7.713
    6AU     LIG 2228  21.752  20.275   7.888
    6AU     LIG 2229  21.513  20.183   7.835
    6AU     LIG 2230  21.304  20.048   7.809
    6AU       S 2231  22.655  21.502   7.989
    6AU     LIG 2232  22.420  21.691   8.062
    6AU     LIG 2233  22.195  21.654   8.206
    6AU     LIG 2234  22.063  21.731   8.412
    6AU       S 2235  23.398  21.688   8.053
    6AU     LIG 2236  23.509  21.875   8.255
    6AU     LIG 2237  23.397  22.065   8.380
    6AU     LIG 2238  23.252  22.266   8.444
    6AU       S 2239  23.160  21.823   7.925
    6AU     LIG 2240  23.071  22.048   7.968
    6AU     LIG 2241  23.045  22.307   7.984
    6AU     LIG 2242  23.054  22.558   8.012
    6AU       S 2243  23.325  21.666   7.131
    6AU     LIG 2244  23.391  21.935   7.146
    6AU     LIG 2245  23.425  22.167   7.130
    6AU     LIG 2246  23.488  22.410   7.042
    6AU       S 2247  23.835  21.178   8.364
    6AU     LIG 2248  23.910  21.397   8.543
    6AU     LIG 2249  24.011  21.478   8.736
    6AU     LIG 2250  24.137  21.496   8.967
    6AU       S 2251  23.537  21.739   7.734
    6AU     LIG 2252  23.569  22.012   7.718
    6AU     LIG 2253  23.544  22.222   7.875
    6AU     LIG 2254  23.556  22.406   8.040
    6AU       S 2255  23.258  19.329   8.062
    6AU     LIG 2256  23.377  19.123   8.213
    6AU     LIG 2257  23.365  18.916   8.334
    6AU     LIG 2258  23.346  18.679   8.434
    6AU       S 2259  23.741  19.562   7.902
    6AU     LIG 2260  23.845  19.258   7.827
    6AU     LIG 2261  24.005  19.124   7.925
    6AU     LIG 2262  24.217  19.024   8.057
    6AU       S 2263  23.006  19.243   7.896
    6AU     LIG 2264  22.957  18.976   7.918
    6AU     LIG 2265  22.979  18.758   8.033
    6AU     LIG 2266  22.969  18.520   8.129
    6AU       S 2267  22.600  19.869   8.386
    6AU     LIG 2268  22.473  19.651   8.570
    6AU     LIG 2269  22.336  19.477   8.640
    6AU     LIG 2270  22.199  19.283   8.762
    6AU       S 2271  23.324  19.339   7.221
    6AU     LIG 2272  23.263  19.011   7.210
    6AU     LIG 2273  23.248  18.815   7.090
    6AU     LIG 2274  23.248  18.548   7.027
    6AU       S 2275  23.338  19.292   7.758
    6AU     LIG 2276  23.438  18.990   7.712
    6AU     LIG 2277  23.451  18.793   7.838
    6AU     LIG 2278  23.445  18.547   7.941
    6AU       S 2279  23.177  21.586   6.835
    6AU     LIG 2280  23.183  21.815   6.681
    6AU     LIG 2281  23.306  22.031   6.641
    6AU     LIG 2282  23.372  22.265   6.564
    6AU       S 2283  24.016  21.362   6.958
    6AU     LIG 2284  24.214  21.566   6.901
    6AU     LIG 2285  24.373  21.640   6.721
    6AU     LIG 2286  24.521  21.762   6.558
    6AU       S 2287  22.974  21.607   7.112
    6AU     LIG 2288  22.862  21.885   7.085
    6AU     LIG 2289  22.919  22.111   6.998
    6AU     LIG 2290  22.993  22.336   6.907
    6AU       S 2291  22.536  21.017   6.654
    6AU     LIG 2292  22.476  21.152   6.415
    6AU     LIG 2293  22.486  21.382   6.319
    6AU     LIG 2294  22.459  21.621   6.239
    6AU       S 2295  22.481  19.685   7.029
    6AU     LIG 2296  22.224  19.512   6.950
    6AU     LIG 2297  22.137  19.370   6.784
    6AU     LIG 2298  22.051  19.197   6.606
    6AU       S 2299  23.394  19.378   6.941
    6AU     LIG 2300  23.511  19.199   6.769
    6AU     LIG 2301  23.484  18.989   6.646
    6AU     LIG 2302  23.408  18.751   6.582
    6AU       S 2303  23.587  19.379   7.324
    6AU     LIG 2304  23.751  19.138   7.293
    6AU     LIG 2305  23.758  18.932   7.128
    6AU     LIG 2306  23.743  18.715   6.984
    6AU       S 2307  23.848  19.888   6.673
    6AU     LIG 2308  23.834  19.710   6.470
    6AU     LIG 2309  23.824  19.482   6.376
    6AU     LIG 2310  23.875  19.279   6.221
    7AU     AUC 2311   0.339  35.059   7.535
    7AU     AUC 2312   0.591  35.064   7.369
    7AU     AUC 2313   0.580  35.051   7.699
    7AU     AUC 2314   0.069  35.067   7.380
    7AU     AUC 2315   0.095  35.096   7.705
    7AU     AUC 2316   0.178  35.312   7.513
    7AU     AUC 2317   0.525  35.324   7.516
    7AU     AUC 2318   0.160  34.805   7.543
    7AU     AUC 2319   0.491  34.783   7.545
    7AU     AUC 2320   0.333  34.899   7.798
    7AU     AUC 2321   0.352  35.239   7.779
    7AU     AUC 2322   0.326  34.886   7.287
    7AU     AUC 2323   0.346  35.192   7.271
    7AU     AUC 2324   0.894  35.055   7.204
    7AU     AUC 2325   0.902  35.035   7.545
    7AU     AUC 2326   0.860  35.022   7.899
    7AU     AUC 2327  -0.233  35.041   7.228
    7AU     AUC 2328  -0.234  35.100   7.556
    7AU     AUC 2329  -0.205  35.139   7.888
    7AU     AUC 2330   0.013  35.625   7.474
    7AU     AUC 2331   0.373  35.599   7.457
    7AU     AUC 2332   0.739  35.587   7.487
    7AU     AUC 2333  -0.044  34.516   7.548
    7AU     AUC 2334   0.307  34.492   7.529
    7AU     AUC 2335   0.663  34.481   7.546
    7AU     AUC 2336   0.292  34.733   8.101
    7AU     AUC 2337   0.329  35.075   8.101
    7AU     AUC 2338   0.386  35.439   8.062
    7AU     AUC 2339   0.357  34.696   6.997
    7AU     AUC 2340   0.305  35.037   6.973
    7AU     AUC 2341   0.302  35.360   6.957
    7AU     AUC 2342   0.574  34.837   8.012
    7AU     AUC 2343   0.630  35.213   7.987
    7AU     AUC 2344   0.629  34.899   7.072
    7AU     AUC 2345   0.594  35.211   7.079
    7AU     AUC 2346   0.040  34.957   8.000
    7AU     AUC 2347   0.087  35.307   7.971
    7AU     AUC 2348   0.051  34.856   7.103
    7AU     AUC 2349   0.005  35.184   7.083
    7AU     AUC 2350   0.832  35.327   7.346
    7AU     AUC 2351   0.798  35.324   7.705
    7AU     AUC 2352  -0.127  35.339   7.383
    7AU     AUC 2353  -0.082  35.405   7.713
    7AU     AUC 2354   0.795  34.776   7.407
    7AU     AUC 2355   0.743  34.730   7.739
    7AU     AUC 2356  -0.126  34.753   7.373
    7AU     AUC 2357  -0.100  34.827   7.716
    7AU     AUC 2358   0.238  35.557   7.782
    7AU     AUC 2359   0.577  35.512   7.793
    7AU     AUC 2360   0.125  34.624   7.817
    7AU     AUC 2361   0.443  34.571   7.809
    7AU     AUC 2362   0.148  35.490   7.215
    7AU     AUC 2363   0.513  35.506   7.226
    7AU     AUC 2364   0.179  34.592   7.258
    7AU     AUC 2365   0.539  34.637   7.274
    7AU    AUSL 2366   0.838  34.927   8.316
    7AU    AUSL 2367   0.588  34.554   8.222
    7AU     AUL 2368   0.895  34.555   8.389
    7AU    AUSL 2369   0.423  34.869   8.460
    7AU    AUSL 2370   0.185  35.278   8.451
    7AU     AUL 2371   0.421  35.153   8.710
    7AU    AUSL 2372   0.522  35.226   8.204
    7AU    AUSL 2373   0.973  35.285   8.126
    7AU     AUL 2374   0.791  35.250   8.435
    7AU    AUSL 2375   0.746  35.087   6.840
    7AU    AUSL 2376   0.607  35.483   6.981
    7AU     AUL 2377   0.821  35.415   6.681
    7AU    AUSL 2378   0.558  34.765   6.612
    7AU    AUSL 2379   1.065  34.835   6.982
    7AU     AUL 2380   0.933  34.909   6.665
    7AU    AUSL 2381   0.390  35.269   6.670
    7AU    AUSL 2382   0.212  34.883   6.829
    7AU     AUL 2383   0.343  34.962   6.524
    7AU    AUSL 2384  -0.199  35.240   8.243
    7AU    AUSL 2385   0.164  35.549   8.111
    7AU     AUL 2386   0.001  35.517   8.412
    7AU    AUSL 2387   0.102  34.927   8.191
    7AU    AUSL 2388  -0.347  34.850   8.105
    7AU     AUL 2389  -0.290  34.939   8.341
    7AU    AUSL 2390  -0.224  34.865   6.795
    7AU    AUSL 2391   0.025  34.515   6.947
    7AU     AUL 2392   0.049  34.601   6.641
    7AU    AUSL 2393  -0.038  35.233   6.675
    7AU    AUSL 2394  -0.318  35.214   7.050
    7AU     AUL 2395  -0.435  35.095   6.776
    7AU    AUSL 2396   1.130  35.522   7.476
    7AU    AUSL 2397   1.005  35.312   7.096
    7AU     AUL 2398   1.300  35.517   7.128
    7AU    AUSL 2399   1.295  35.126   7.367
    7AU    AUSL 2400   1.244  34.828   7.768
    7AU     AUL 2401   1.506  34.912   7.571
    7AU    AUSL 2402   1.017  35.181   7.718
    7AU    AUSL 2403   0.975  35.625   7.853
    7AU     AUL 2404   1.223  35.365   7.878
    7AU    AUSL 2405  -0.236  35.702   7.522
    7AU    AUSL 2406  -0.199  35.454   7.878
    7AU     AUL 2407  -0.508  35.699   7.745
    7AU    AUSL 2408  -0.437  35.323   7.444
    7AU    AUSL 2409  -0.284  35.639   7.106
    7AU     AUL 2410  -0.520  35.564   7.263
    7AU    AUSL 2411  -0.564  35.245   7.888
    7AU    AUSL 2412  -0.597  34.939   7.349
    7AU     AUL 2413  -0.719  35.256   7.590
    7AU    AUSL 2414   1.022  34.479   7.615
    7AU    AUSL 2415   0.848  34.762   7.925
    7AU     AUL 2416   1.155  34.668   8.001
    7AU    AUSL 2417   0.980  34.849   7.397
    7AU    AUSL 2418   0.970  34.447   7.188
    7AU     AUL 2419   1.214  34.657   7.250
    7AU    AUSL 2420  -0.444  34.560   7.553
    7AU    AUSL 2421  -0.233  34.770   7.205
    7AU     AUL 2422  -0.583  34.663   7.213
    7AU    AUSL 2423  -0.327  34.961   7.694
    7AU    AUSL 2424  -0.137  34.577   7.849
    7AU     AUL 2425  -0.518  34.730   7.848
    7AU    AUSL 2426   0.405  35.885   7.966
    7AU    AUSL 2427  -0.050  35.864   7.878
    7AU     AUL 2428   0.172  35.909   8.194
    7AU    AUSL 2429   0.237  35.740   7.591
    7AU    AUSL 2430   0.488  35.873   7.247
    7AU     AUL 2431   0.257  36.080   7.554
    7AU    AUSL 2432   0.675  35.816   7.623
    7AU    AUSL 2433   0.669  35.615   8.153
    7AU     AUL 2434   0.788  35.905   7.941
    7AU    AUSL 2435   0.263  34.419   7.970
    7AU    AUSL 2436   0.687  34.360   7.849
    7AU     AUL 2437   0.448  34.298   8.223
    7AU    AUSL 2438  -0.045  34.197   7.699
    7AU    AUSL 2439  -0.017  34.534   8.274
    7AU     AUL 2440  -0.009  34.236   8.050
    7AU    AUSL 2441   0.387  34.122   7.667
    7AU    AUSL 2442   0.180  34.367   7.362
    7AU     AUL 2443   0.063  34.022   7.487
    7AU    AUSL 2444   0.315  35.758   6.843
    7AU    AUSL 2445   0.887  35.736   7.199
    7AU     AUL 2446   0.631  35.846   6.936
    7AU    AUSL 2447   0.066  35.852   7.210
    7AU    AUSL 2448   0.089  35.441   7.014
    7AU     AUL 2449  -0.004  35.747   6.856
    7AU    AUSL 2450   0.405  34.315   6.981
    7AU    AUSL 2451  -0.228  34.329   7.258
    7AU     AUL 2452   0.068  34.181   7.043
    7AU    AUSL 2453   0.612  34.339   7.381
    7AU    AUSL 2454   0.635  34.672   7.018
    7AU     AUL 2455   0.729  34.299   7.050
    7AU       S 2456   0.860  34.104   8.227
    7AU     LIG 2457   0.907  33.870   8.352
    7AU     LIG 2458   1.029  33.710   8.479
    7AU     LIG 2459   1.187  33.533   8.590
    7AU       S 2460   0.894  34.894   8.719
    7AU     LIG 2461   1.057  34.952   8.921
    7AU     LIG 2462   1.147  35.008   9.146
    7AU     LIG 2463   1.253  34.975   9.383
    7AU       S 2464   0.572  34.701   8.725
    7AU     LIG 2465   0.628  34.607   9.005
    7AU     LIG 2466   0.794  34.623   9.203
    7AU     LIG 2467   0.928  34.578   9.419
    7AU       S 2468  -0.053  35.191   8.757
    7AU     LIG 2469  -0.090  35.215   9.059
    7AU     LIG 2470  -0.208  35.200   9.261
    7AU     LIG 2471  -0.356  35.177   9.479
    7AU       S 2472   0.472  35.625   8.566
    7AU     LIG 2473   0.589  35.762   8.771
    7AU     LIG 2474   0.802  35.682   8.933
    7AU     LIG 2475   1.025  35.556   8.947
    7AU       S 2476   1.164  35.517   8.334
    7AU     LIG 2477   1.347  35.557   8.555
    7AU     LIG 2478   1.487  35.714   8.669
    7AU     LIG 2479   1.663  35.890   8.744
    7AU       S 2480   0.765  35.146   6.306
    7AU     LIG 2481   0.980  35.201   6.093
    7AU     LIG 2482   1.114  35.035   5.955
    7AU     LIG 2483   1.174  34.844   5.795
    7AU       S 2484   0.980  35.846   6.652
    7AU     LIG 2485   1.026  36.039   6.462
    7AU     LIG 2486   1.189  36.129   6.288
    7AU     LIG 2487   1.354  36.220   6.123
    7AU       S 2488   1.240  34.557   6.768
    7AU     LIG 2489   1.402  34.470   6.527
    7AU     LIG 2490   1.416  34.251   6.388
    7AU     LIG 2491   1.432  33.996   6.348
    7AU       S 2492   0.686  34.851   6.240
    7AU     LIG 2493   0.708  34.727   6.011
    7AU     LIG 2494   0.695  34.654   5.771
    7AU     LIG 2495   0.766  34.634   5.521
    7AU       S 2496  -0.048  34.911   6.303
    7AU     LIG 2497   0.007  34.878   6.024
    7AU     LIG 2498   0.013  34.824   5.795
    7AU     LIG 2499  -0.063  34.783   5.540
    7AU       S 2500   0.522  35.292   6.264
    7AU     LIG 2501   0.423  35.226   5.973
    7AU     LIG 2502   0.565  35.151   5.780
    7AU     LIG 2503   0.758  35.143   5.607
    7AU       S 2504  -0.329  35.279   8.643
    7AU     LIG 2505  -0.540  35.254   8.819
    7AU     LIG 2506  -0.594  35.038   8.977
    7AU     LIG 2507  -0.664  34.906   9.166
    7AU       S 2508  -0.298  35.837   8.268
    7AU     LIG 2509  -0.384  35.992   8.501
    7AU     LIG 2510  -0.525  36.003   8.694
    7AU     LIG 2511  -0.694  36.092   8.877
    7AU       S 2512  -0.575  34.571   8.284
    7AU     LIG 2513  -0.821  34.502   8.381
    7AU     LIG 2514  -0.966  34.310   8.457
    7AU     LIG 2515  -1.093  34.128   8.575
    7AU       S 2516  -0.004  34.899   8.684
    7AU     LIG 2517  -0.081  34.723   8.887
    7AU     LIG 2518  -0.194  34.703   9.105
    7AU     LIG 2519  -0.239  34.689   9.361
    7AU       S 2520  -0.310  34.823   6.418
    7AU     LIG 2521  -0.489  34.753   6.208
    7AU     LIG 2522  -0.500  34.824   5.957
    7AU     LIG 2523  -0.512  34.934   5.737
    7AU       S 2524  -0.276  34.275   6.745
    7AU     LIG 2525  -0.350  34.088   6.540
    7AU     LIG 2526  -0.508  34.046   6.354
    7AU     LIG 2527  -0.692  33.997   6.184
    7AU       S 2528  -0.646  35.501   6.798
    7AU     LIG 2529  -0.853  35.670   6.744
    7AU     LIG 2530  -0.905  35.869   6.588
    7AU     LIG 2531  -0.929  35.992   6.367
    7AU       S 2532  -0.148  35.179   6.393
    7AU     LIG 2533  -0.315  35.280   6.139
    7AU     LIG 2534  -0.232  35.317   5.913
    7AU     LIG 2535  -0.124  35.297   5.679
    7AU       S 2536   1.211  35.660   6.708
    7AU     LIG 2537   1.426  35.706   6.537
    7AU     LIG 2538   1.583  35.818   6.389
    7AU     LIG 2539   1.764  35.937   6.245
    7AU       S 2540   1.463  35.636   7.556
    7AU     LIG 2541   1.676  35.840   7.540
    7AU     LIG 2542   1.920  35.884   7.511
    7AU     LIG 2543   2.173  35.947   7.532
    7AU       S 2544   1.639  35.337   7.388
    7AU     LIG 2545   1.908  35.408   7.293
    7AU     LIG 2546   2.148  35.474   7.306
    7AU     LIG 2547   2.370  35.588   7.226
    7AU       S 2548   1.503  34.458   7.790
    7AU     LIG 2549   1.738  34.356   7.920
    7AU     LIG 2550   1.991  34.351   7.859
    7AU     LIG 2551   2.240  34.319   7.780
    7AU       S 2552   1.200  35.765   8.127
    7AU     LIG 2553   1.395  35.942   8.210
    7AU     LIG 2554   1.440  36.141   8.357
    7AU     LIG 2555   1.459  36.320   8.540
    7AU       S 2556   1.610  35.369   7.663
    7AU     LIG 2557   1.848  35.440   7.814
    7AU     LIG 2558   2.085  35.507   7.811
    7AU     LIG 2559   2.315  35.597   7.878
    7AU       S 2560  -0.464  35.614   8.203
    7AU     LIG 2561  -0.703  35.606   8.380
    7AU     LIG 2562  -0.889  35.745   8.444
    7AU     LIG 2563  -1.065  35.864   8.594
    7AU       S 2564  -0.297  36.038   7.463
    7AU     LIG 2565  -0.457  36.246   7.335
    7AU     LIG 2566  -0.703  36.226   7.239
    7AU     LIG 2567  -0.891  36.069   7.123
    7AU       S 2568  -0.861  35.257   7.139
    7AU     LIG 2569  -1.099  35.262   7.071
    7AU     LIG 2570  -1.354  35.338   7.141
    7AU     LIG 2571  -1.499  35.551   7.163
    7AU       S 2572  -0.431  35.911   6.929
    7AU     LIG 2573  -0.504  36.119   6.787
    7AU     LIG 2574  -0.646  36.298   6.702
    7AU     LIG 2575  -0.777  36.453   6.537
    7AU       S 2576  -0.950  34.853   7.449
    7AU     LIG 2577  -1.227  34.843   7.337
    7AU     LIG 2578  -1.470  34.825   7.332
    7AU     LIG 2579  -1.704  34.704   7.284
    7AU       S 2580  -0.759  35.172   8.097
    7AU     LIG 2581  -1.072  35.276   8.182
    7AU     LIG 2582  -1.189  35.488   8.094
    7AU     LIG 2583  -1.369  35.635   7.968
    7AU       S 2584   1.233  34.288   7.606
    7AU     LIG 2585   1.367  33.986   7.622
    7AU     LIG 2586   1.595  33.920   7.697
    7AU     LIG 2587   1.866  33.906   7.655
    7AU       S 2588   1.077  34.227   8.066
    7AU     LIG 2589   1.324  34.091   8.105
    7AU     LIG 2590   1.454  34.003   8.287
    7AU     LIG 2591   1.501  33.933   8.537
    7AU       S 2592   1.490  34.438   7.519
    7AU     LIG 2593   1.713  34.316   7.383
    7AU     LIG 2594   1.954  34.317   7.343
    7AU     LIG 2595   2.195  34.245   7.280
    7AU       S 2596   1.182  34.295   6.925
    7AU     LIG 2597   1.247  34.035   6.822
    7AU     LIG 2598   1.120  33.812   6.774
    7AU     LIG 2599   1.079  33.593   6.659
    7AU       S 2600  -0.453  34.470   6.817
    7AU     LIG 2601  -0.686  34.480   6.620
    7AU     LIG 2602  -0.863  34.363   6.527
    7AU     LIG 2603  -1.069  34.205   6.465
    7AU       S 2604  -0.868  34.562   7.583
    7AU     LIG 2605  -1.085  34.396   7.588
    7AU     LIG 2606  -1.312  34.348   7.482
    7AU     LIG 2607  -1.545  34.244   7.441
    7AU       S 2608  -0.456  34.341   8.082
    7AU     LIG 2609  -0.632  34.133   8.068
    7AU     LIG 2610  -0.752  33.947   8.174
    7AU     LIG 2611  -0.885  33.761   8.287
    7AU       S 2612  -0.926  34.857   7.713
    7AU     LIG 2613  -1.160  34.829   7.888
    7AU     LIG 2614  -1.399  34.737   7.835
    7AU     LIG 2615  -1.608  34.602   7.809
    7AU       S 2616  -0.257  36.056   7.989
    7AU     LIG 2617  -0.492  36.245   8.062
    7AU     LIG 2618  -0.717  36.208   8.206
    7AU     LIG 2619  -0.849  36.285   8.412
    7AU       S 2620   0.486  36.242   8.053
    7AU     LIG 2621   0.597  36.429   8.255
    7AU     LIG 2622   0.485  36.619   8.380
    7AU     LIG 2623   0.340  36.820   8.444
    7AU       S 2624   0.248  36.377   7.925
    7AU     LIG 2625   0.159  36.602   7.968
    7AU     LIG 2626   0.133  36.861   7.984
    7AU     LIG 2627   0.142  37.112   8.012
    7AU       S 2628   0.413  36.220   7.131
    7AU     LIG 2629   0.479  36.489   7.146
    7AU     LIG 2630   0.513  36.721   7.130
    7AU     LIG 2631   0.576  36.964   7.042
    7AU       S 2632   0.923  35.732   8.364
    7AU     LIG 2633   0.998  35.951   8.543
    7AU     LIG 2634   1.099  36.032   8.736
    7AU     LIG 2635   1.225  36.050   8.967
    7AU       S 2636   0.625  36.293   7.734
    7AU     LIG 2637   0.657  36.566   7.718
    7AU     LIG 2638   0.632  36.776   7.875
    7AU     LIG 2639   0.644  36.960   8.040
    7AU       S 2640   0.346  33.883   8.062
    7AU     LIG 2641   0.465  33.677   8.213
    7AU     LIG 2642   0.453  33.470   8.334
    7AU     LIG 2643   0.434  33.233   8.434
    7AU       S 2644   0.829  34.116   7.902
    7AU     LIG 2645   0.933  33.812   7.827
    7AU     LIG 2646   1.093  33.678   7.925
    7AU     LIG 2647   1.305  33.578   8.057
    7AU       S 2648   0.094  33.797   7.896
    7AU     LIG 2649   0.045  33.530   7.918
    7AU     LIG 2650   0.067  33.312   8.033
    7AU     LIG 2651   0.057  33.074   8.129
    7AU       S 2652  -0.312  34.423   8.386
    7AU     LIG 2653  -0.439  34.205   8.570
    7AU     LIG 2654  -0.576  34.031   8.640
    7AU     LIG 2655  -0.713  33.837   8.762
    7AU       S 2656   0.412  33.893   7.221
    7AU     LIG 2657   0.351  33.565   7.210
    7AU     LIG 2658   0.336  33.369   7.090
    7AU     LIG 2659   0.336  33.102   7.027
    7AU       S 2660   0.426  33.846   7.758
    7AU     LIG 2661   0.526  33.544   7.712
    7AU     LIG 2662   0.539  33.347   7.838
    7AU     LIG 2663   0.533  33.101   7.941
    7AU       S 2664   0.265  36.140   6.835
    7AU     LIG 2665   0.271  36.369   6.681
    7AU     LIG 2666   0.394  36.585   6.641
    7AU     LIG 2667   0.460  36.819   6.564
    7AU       S 2668   1.104  35.916   6.958
    7AU     LIG 2669   1.302  36.120   6.901
    7AU     LIG 2670   1.461  36.194   6.721
    7AU     LIG 2671   1.609  36.316   6.558
    7AU       S 2672   0.062  36.161   7.112
    7AU     LIG 2673  -0.050  36.439   7.085
    7AU     LIG 2674   0.007  36.665   6.998
    7AU     LIG 2675   0.081  36.890   6.907
    7AU       S 2676  -0.376  35.571   6.654
    7AU     LIG 2677  -0.436  35.706   6.415
    7AU     LIG 2678  -0.426  35.936   6.319
    7AU     LIG 2679  -0.453  36.175   6.239
    7AU       S 2680  -0.431  34.239   7.029
    7AU     LIG 2681  -0.688  34.066   6.950
    7AU     LIG 2682  -0.775  33.924   6.784
    7AU     LIG 2683  -0.861  33.751   6.606
    7AU       S 2684   0.482  33.932   6.941
    7AU     LIG 2685   0.599  33.753   6.769
    7AU     LIG 2686   0.572  33.543   6.646
    7AU     LIG 2687   0.496  33.305   6.582
    7AU       S 2688   0.675  33.933   7.324
    7AU     LIG 2689   0.839  33.692   7.293
    7AU     LIG 2690   0.846  33.486   7.128
    7AU     LIG 2691   0.831  33.269   6.984
    7AU       S 2692   0.936  34.442   6.673
    7AU     LIG 2693   0.922  34.264   6.470
    7AU     LIG 2694   0.912  34.036   6.376
    7AU     LIG 2695   0.963  33.833   6.221
    8AU     AUC 2696  18.757   9.684   7.535
    8AU     AUC 2697  19.009   9.689   7.369
    8AU     AUC 2698  18.998   9.676   7.699
    8AU     AUC 2699  18.487   9.692   7.380
    8AU     AUC 2700  18.513   9.721   7.705
    8AU     AUC 2701  18.596   9.937   7.513
    8AU     AUC 2702  18.943   9.949   7.516
    8AU     AUC 2703  18.578   9.430   7.543
    8AU     AUC 2704  18.909   9.408   7.545
    8AU     AUC 2705  18.751   9.524   7.798
    8AU     AUC 2706  18.770   9.864   7.779
    8AU     AUC 2707  18.744   9.511   7.287
    8AU     AUC 2708  18.764   9.817   7.271
    8AU     AUC 2709  19.312   9.680   7.204
    8AU     AUC 2710  19.320   9.660   7.545
    8AU     AUC 2711  19.278   9.647   7.899
    8AU     AUC 2712  18.185   9.666   7.228
    8AU     AUC 2713  18.184   9.725   7.556
    8AU     AUC 2714  18.213   9.764   7.888
    8AU     AUC 2715  18.431  10.250   7.474
    8AU     AUC 2716  18.791  10.224   7.457
    8AU     AUC 2717  19.157  10.212   7.487
    8AU     AUC 2718  18.374   9.141   7.548
    8AU     AUC 2719  18.725   9.117   7.529
    8AU     AUC 2720  19.081   9.106   7.546
    8AU     AUC 2721  18.710   9.358   8.101
    8AU     AUC 2722  18.747   9.700   8.101
    8AU     AUC 2723  18.804  10.064   8.062
    8AU     AUC 2724  18.775   9.321   6.997
    8AU     AUC 2725  18.723   9.662   6.973
    8AU     AUC 2726  18.720   9.985   6.957
    8AU     AUC 2727  18.992   9.462   8.012
    8AU     AUC 2728  19.048   9.838   7.987
    8AU     AUC 2729  19.047   9.524   7.072
    8AU     AUC 2730  19.012   9.836   7.079
    8AU     AUC 2731  18.458   9.582   8.000
    8AU     AUC 2732  18.505   9.932   7.971
    8AU     AUC 2733  18.469   9.481   7.103
    8AU     AUC 2734  18.423   9.809   7.083
    8AU     AUC 2735  19.250   9.952   7.346
    8AU     AUC 2736  19.216   9.949   7.705
    8AU     AUC 2737  18.291   9.964   7.383
    8AU     AUC 2738  18.336  10.030   7.713
    8AU     AUC 2739  19.213   9.401   7.407
    8AU     AUC 2740  19.161   9.355   7.739
    8AU     AUC 2741  18.292   9.378   7.373
    8AU     AUC 2742  18.318   9.452   7.716
    8AU     AUC 2743  18.656  10.182   7.782
    8AU     AUC 2744  18.995  10.137   7.793
    8AU     AUC 2745  18.543   9.249   7.817
    8AU     AUC 2746  18.861   9.196   7.809
    8AU     AUC 2747  18.566  10.115   7.215
    8AU     AUC 2748  18.931  10.131   7.226
    8AU     AUC 2749  18.597   9.217   7.258
    8AU     AUC 2750  18.957   9.262   7.274
    8AU    AUSL 2751  19.256   9.552   8.316
    8AU    AUSL 2752  19.006   9.179   8.222
    8AU     AUL 2753  19.313   9.180   8.389
    8AU    AUSL 2754  18.841   9.494   8.460
    8AU    AUSL 2755  18.603   9.903   8.451
    8AU     AUL 2756  18.839   9.778   8.710
    8AU    AUSL 2757  18.940   9.851   8.204
    8AU    AUSL 2758  19.391   9.910   8.126
    8AU     AUL 2759  19.209   9.875   8.435
    8AU    AUSL 2760  19.164   9.712   6.840
    8AU    AUSL 2761  19.025  10.108   6.981
    8AU     AUL 2762  19.239  10.040   6.681
    8AU    AUSL 2763  18.976   9.390   6.612
    8AU    AUSL 2764  19.483   9.460   6.982
    8AU     AUL 2765  19.351   9.534   6.665
    8AU    AUSL 2766  18.808   9.894   6.670
    8AU    AUSL 2767  18.630   9.508   6.829
    8AU     AUL 2768  18.761   9.587   6.524
    8AU    AUSL 2769  18.219   9.865   8.243
    8AU    AUSL 2770  18.582  10.174   8.111
    8AU     AUL 2771  18.419  10.142   8.412
    8AU    AUSL 2772  18.520   9.552   8.191
    8AU    AUSL 2773  18.071   9.475   8.105
    8AU     AUL 2774  18.128   9.564   8.341
    8AU    AUSL 2775  18.194   9.490   6.795
    8AU    AUSL 2776  18.443   9.140   6.947
    8AU     AUL 2777  18.467   9.226   6.641
    8AU    AUSL 2778  18.380   9.858   6.675
    8AU    AUSL 2779  18.100   9.839   7.050
    8AU     AUL 2780  17.983   9.720   6.776
    8AU    AUSL 2781  19.548  10.147   7.476
    8AU    AUSL 2782  19.423   9.937   7.096
    8AU     AUL 2783  19.718  10.142   7.128
    8AU    AUSL 2784  19.713   9.751   7.367
    8AU    AUSL 2785  19.662   9.453   7.768
    8AU     AUL 2786  19.924   9.537   7.571
    8AU    AUSL 2787  19.435   9.806   7.718
    8AU    AUSL 2788  19.393  10.250   7.853
    8AU     AUL 2789  19.641   9.990   7.878
    8AU    AUSL 2790  18.182  10.327   7.522
    8AU    AUSL 2791  18.219  10.079   7.878
    8AU     AUL 2792  17.910  10.324   7.745
    8AU    AUSL 2793  17.981   9.948   7.444
    8AU    AUSL 2794  18.134  10.264   7.106
    8AU     AUL 2795  17.898  10.189   7.263
    8AU    AUSL 2796  17.854   9.870   7.888
    8AU    AUSL 2797  17.821   9.564   7.349
    8AU     AUL 2798  17.699   9.881   7.590
    8AU    AUSL 2799  19.440   9.104   7.615
    8AU    AUSL 2800  19.266   9.387   7.925
    8AU     AUL 2801  19.573   9.293   8.001
    8AU    AUSL 2802  19.398   9.474   7.397
    8AU    AUSL 2803  19.388   9.072   7.188
    8AU     AUL 2804  19.632   9.282   7.250
    8AU    AUSL 2805  17.974   9.185   7.553
    8AU    AUSL 2806  18.185   9.395   7.205
    8AU     AUL 2807  17.835   9.288   7.213
    8AU    AUSL 2808  18.091   9.586   7.694
    8AU    AUSL 2809  18.281   9.202   7.849
    8AU     AUL 2810  17.900   9.355   7.848
    8AU    AUSL 2811  18.823  10.510   7.966
    8AU    AUSL 2812  18.368  10.489   7.878
    8AU     AUL 2813  18.590  10.534   8.194
    8AU    AUSL 2814  18.655  10.365   7.591
    8AU    AUSL 2815  18.906  10.498   7.247
    8AU     AUL 2816  18.675  10.705   7.554
    8AU    AUSL 2817  19.093  10.441   7.623
    8AU    AUSL 2818  19.087  10.240   8.153
    8AU     AUL 2819  19.206  10.530   7.941
    8AU    AUSL 2820  18.681   9.044   7.970
    8AU    AUSL 2821  19.105   8.985   7.849
    8AU     AUL 2822  18.866   8.923   8.223
    8AU    AUSL 2823  18.373   8.822   7.699
    8AU    AUSL 2824  18.401   9.159   8.274
    8AU     AUL 2825  18.409   8.861   8.050
    8AU    AUSL 2826  18.805   8.747   7.667
    8AU    AUSL 2827  18.598   8.992   7.362
    8AU     AUL 2828  18.481   8.647   7.487
    8AU    AUSL 2829  18.733  10.383   6.843
    8AU    AUSL 2830  19.305  10.361   7.199
    8AU     AUL 2831  19.049  10.471   6.936
    8AU    AUSL 2832  18.484  10.477   7.210
    8AU    AUSL 2833  18.507  10.066   7.014
    8AU     AUL 2834  18.414  10.372   6.856
    8AU    AUSL 2835  18.823   8.940   6.981
    8AU    AUSL 2836  18.190   8.954   7.258
    8AU     AUL 2837  18.486   8.806   7.043
    8AU    AUSL 2838  19.030   8.964   7.381
    8AU    AUSL 2839  19.053   9.297   7.018
    8AU     AUL 2840  19.147   8.924   7.050
    8AU       S 2841  19.278   8.729   8.227
    8AU     LIG 2842  19.325   8.495   8.352
    8AU     LIG 2843  19.447   8.335   8.479
    8AU     LIG 2844  19.605   8.158   8.590
    8AU       S 2845  19.312   9.519   8.719
    8AU     LIG 2846  19.475   9.577   8.921
    8AU     LIG 2847  19.565   9.633   9.146
    8AU     LIG 2848  19.671   9.600   9.383
    8AU       S 2849  18.990   9.326   8.725
    8AU     LIG 2850  19.046   9.232   9.005
    8AU     LIG 2851  19.212   9.248   9.203
    8AU     LIG 2852  19.346   9.203   9.419
    8AU       S 2853  18.365   9.816   8.757
    8AU     LIG 2854  18.328   9.840   9.059
    8AU     LIG 2855  18.210   9.825   9.261
    8AU     LIG 2856  18.062   9.802   9.479
    8AU       S 2857  18.890  10.250   8.566
    8AU     LIG 2858  19.007  10.387   8.771
    8AU     LIG 2859  19.220  10.307   8.933
    8AU     LIG 2860  19.443  10.181   8.947
    8AU       S 2861  19.582  10.142   8.334
    8AU     LIG 2862  19.765  10.182   8.555
    8AU     LIG 2863  19.905  10.339   8.669
    8AU     LIG 2864  20.081  10.515   8.744
    8AU       S 2865  19.183   9.771   6.306
    8AU     LIG 2866  19.398   9.826   6.093
    8AU     LIG 2867  19.532   9.660   5.955
    8AU     LIG 2868  19.592   9.469   5.795
    8AU       S 2869  19.398  10.471   6.652
    8AU     LIG 2870  19.444  10.664   6.462
    8AU     LIG 2871  19.607  10.754   6.288
    8AU     LIG 2872  19.772  10.845   6.123
    8AU       S 2873  19.658   9.182   6.768
    8AU     LIG 2874  19.820   9.095   6.527
    8AU     LIG 2875  19.834   8.876   6.388
    8AU     LIG 2876  19.850   8.621   6.348
    8AU       S 2877  19.104   9.476   6.240
    8AU     LIG 2878  19.126   9.352   6.011
    8AU     LIG 2879  19.113   9.279   5.771
    8AU     LIG 2880  19.184   9.259   5.521
    8AU       S 2881  18.370   9.536   6.303
    8AU     LIG 2882  18.425   9.503   6.024
    8AU     LIG 2883  18.431   9.449   5.795
    8AU     LIG 2884  18.355   9.408   5.540
    8AU       S 2885  18.940   9.917   6.264
    8AU     LIG 2886  18.841   9.851   5.973
    8AU     LIG 2887  18.983   9.776   5.780
    8AU     LIG 2888  19.176   9.768   5.607
    8AU       S 2889  18.089   9.904   8.643
    8AU     LIG 2890  17.878   9.879   8.819
    8AU     LIG 2891  17.824   9.663   8.977
    8AU     LIG 2892  17.754   9.531   9.166
    8AU       S 2893  18.120  10.462   8.268
    8AU     LIG 2894  18.034  10.617   8.501
    8AU     LIG 2895  17.893  10.628   8.694
    8AU     LIG 2896  17.724  10.717   8.877
    8AU       S 2897  17.843   9.196   8.284
    8AU     LIG 2898  17.597   9.127   8.381
    8AU     LIG 2899  17.452   8.935   8.457
    8AU     LIG 2900  17.325   8.753   8.575
    8AU       S 2901  18.414   9.524   8.684
    8AU     LIG 2902  18.337   9.348   8.887
    8AU     LIG 2903  18.224   9.328   9.105
    8AU     LIG 2904  18.179   9.314   9.361
    8AU       S 2905  18.108   9.448   6.418
    8AU     LIG 2906  17.929   9.378   6.208
    8AU     LIG 2907  17.918   9.449   5.957
    8AU     LIG 2908  17.906   9.559   5.737
    8AU       S 2909  18.142   8.900   6.745
    8AU     LIG 2910  18.068   8.713   6.540
    8AU     LIG 2911  17.910   8.671   6.354
    8AU     LIG 2912  17.726   8.622   6.184
    8AU       S 2913  17.772  10.126   6.798
    8AU     LIG 2914  17.565  10.295   6.744
    8AU     LIG 2915  17.513  10.494   6.588
    8AU     LIG 2916  17.489  10.617   6.367
    8AU       S 2917  18.270   9.804   6.393
    8AU     LIG 2918  18.103   9.905   6.139
    8AU     LIG 2919  18.186   9.942   5.913
    8AU     LIG 2920  18.294   9.922   5.679
    8AU       S 2921  19.629  10.285   6.708
    8AU     LIG 2922  19.844  10.331   6.537
    8AU     LIG 2923  20.001  10.443   6.389
    8AU     LIG 2924  20.182  10.562   6.245
    8AU       S 2925  19.881  10.261   7.556
    8AU     LIG 2926  20.094  10.465   7.540
    8AU     LIG 2927  20.338  10.509   7.511
    8AU     LIG 2928  20.591  10.572   7.532
    8AU       S 2929  20.057   9.962   7.388
    8AU     LIG 2930  20.326  10.033   7.293
    8AU     LIG 2931  20.566  10.099   7.306
    8AU     LIG 2932  20.788  10.213   7.226
    8AU       S 2933  19.921   9.083   7.790
    8AU     LIG 2934  20.156   8.981   7.920
    8AU     LIG 2935  20.409   8.976   7.859
    8AU     LIG 2936  20.658   8.944   7.780
    8AU       S 2937  19.618  10.390   8.127
    8AU     LIG 2938  19.813  10.567   8.210
    8AU     LIG 2939  19.858  10.766   8.357
    8AU     LIG 2940  19.877  10.945   8.540
    8AU       S 2941  20.028   9.994   7.663
    8AU     LIG 2942  20.266  10.065   7.814
    8AU     LIG 2943  20.503  10.132   7.811
    8AU     LIG 2944  20.733  10.222   7.878
    8AU       S 2945  17.954  10.239   8.203
    8AU     LIG 2946  17.715  10.231   8.380
    8AU     LIG 2947  17.529  10.370   8.444
    8AU     LIG 2948  17.353  10.489   8.594
    8AU       S 2949  18.121  10.663   7.463
    8AU     LIG 2950  17.961  10.871   7.335
    8AU     LIG 2951  17.715  10.851   7.239
    8AU     LIG 2952  17.527  10.694   7.123
    8AU       S 2953  17.557   9.882   7.139
    8AU     LIG 2954  17.319   9.887   7.071
    8AU     LIG 2955  17.064   9.963   7.141
    8AU     LIG 2956  16.919  10.176   7.163
    8AU       S 2957  17.987  10.536   6.929
    8AU     LIG 2958  17.914  10.744   6.787
    8AU     LIG 2959  17.772  10.923   6.702
    8AU     LIG 2960  17.641  11.078   6.537
    8AU       S 2961  17.468   9.478   7.449
    8AU     LIG 2962  17.191   9.468   7.337
    8AU     LIG 2963  16.948   9.450   7.332
    8AU     LIG 2964  16.714   9.329   7.284
    8AU       S 2965  17.659   9.797   8.097
    8AU     LIG 2966  17.346   9.901   8.182
    8AU     LIG 2967  17.229  10.113   8.094
    8AU     LIG 2968  17.049  10.260   7.968
    8AU       S 2969  19.651   8.913   7.606
    8AU     LIG 2970  19.785   8.611   7.622
    8AU     LIG 2971  20.013   8.545   7.697
    8AU     LIG 2972  20.284   8.531   7.655
    8AU       S 2973  19.495   8.852   8.066
    8AU     LIG 2974  19.742   8.716   8.105
    8AU     LIG 2975  19.872   8.628   8.287
    8AU     LIG 2976  19.919   8.558   8.537
    8AU       S 2977  19.908   9.063   7.519
    8AU     LIG 2978  20.131   8.941   7.383
    8AU     LIG 2979  20.372   8.942   7.343
    8AU     LIG 2980  20.613   8.870   7.280
    8AU       S 2981  19.600   8.920   6.925
    8AU     LIG 2982  19.665   8.660   6.822
    8AU     LIG 2983  19.538   8.437   6.774
    8AU     LIG 2984  19.497   8.218   6.659
    8AU       S 2985  17.965   9.095   6.817
    8AU     LIG 2986  17.732   9.105   6.620
    8AU     LIG 2987  17.555   8.988   6.527
    8AU     LIG 2988  17.349   8.830   6.465
    8AU       S 2989  17.550   9.187   7.583
    8AU     LIG 2990  17.333   9.021   7.588
    8AU     LIG 2991  17.106   8.973   7.482
    8AU     LIG 2992  16.873   8.869   7.441
    8AU       S 2993  17.962   8.966   8.082
    8AU     LIG 2994  17.786   8.758   8.068
    8AU     LIG 2995  17.666   8.572   8.174
    8AU     LIG 2996  17.533   8.386   8.287
    8AU       S 2997  17.492   9.482   7.713
    8AU     LIG 2998  17.258   9.454   7.888
    8AU     LIG 2999  17.019   9.362   7.835
    8AU     LIG 3000  16.810   9.227   7.809
    8AU       S 3001  18.161  10.681   7.989
    8AU     LIG 3002  17.926  10.870   8.062
    8AU     LIG 3003  17.701  10.833   8.206
    8AU     LIG 3004  17.569  10.910   8.412
    8AU       S 3005  18.904  10.867   8.053
    8AU     LIG 3006  19.015  11.054   8.255
    8AU     LIG 3007  18.903  11.244   8.380
    8AU     LIG 3008  18.758  11.445   8.444
    8AU       S 3009  18.666  11.002   7.925
    8AU     LIG 3010  18.577  11.227   7.968
    8AU     LIG 3011  18.551  11.486   7.984
    8AU     LIG 3012  18.560  11.737   8.012
    8AU       S 3013  18.831  10.845   7.131
    8AU     LIG 3014  18.897  11.114   7.146
    8AU     LIG 3015  18.931  11.346   7.130
    8AU     LIG 3016  18.994  11.589   7.042
    8AU       S 3017  19.341  10.357   8.364
    8AU     LIG 3018  19.416  10.576   8.543
    8AU     LIG 3019  19.517  10.657   8.736
    8AU     LIG 3020  19.643  10.675   8.967
    8AU       S 3021  19.043  10.918   7.734
    8AU     LIG 3022  19.075  11.191   7.718
    8AU     LIG 3023  19.050  11.401   7.875
    8AU     LIG 3024  19.062  11.585   8.040
    8AU       S 3025  18.764   8.508   8.062
    8AU     LIG 3026  18.883   8.302   8.213
    8AU     LIG 3027  18.871   8.095   8.334
    8AU     LIG 3028  18.852   7.858   8.434
    8AU       S 3029  19.247   8.741   7.902
    8AU     LIG 3030  19.351   8.437   7.827
    8AU     LIG 3031  19.511   8.303   7.925
    8AU     LIG 3032  19.723   8.203   8.057
    8AU       S 3033  18.512   8.422   7.896
    8AU     LIG 3034  18.463   8.155   7.918
    8AU     LIG 3035  18.485   7.937   8.033
    8AU     LIG 3036  18.475   7.699   8.129
    8AU       S 3037  18.106   9.048   8.386
    8AU     LIG 3038  17.979   8.830   8.570
    8AU     LIG 3039  17.842   8.656   8.640
    8AU     LIG 3040  17.705   8.462   8.762
    8AU       S 3041  18.830   8.518   7.221
    8AU     LIG 3042  18.769   8.190   7.210
    8AU     LIG 3043  18.754   7.994   7.090
    8AU     LIG 3044  18.754   7.727   7.027
    8AU       S 3045  18.844   8.471   7.758
    8AU     LIG 3046  18.944   8.169   7.712
    8AU     LIG 3047  18.957   7.972   7.838
    8AU     LIG 3048  18.951   7.726   7.941
    8AU       S 3049  18.683  10.765   6.835
    8AU     LIG 3050  18.689  10.994   6.681
    8AU     LIG 3051  18.812  11.210   6.641
    8AU     LIG 3052  18.878  11.444   6.564
    8AU       S 3053  19.522  10.541   6.958
    8AU     LIG 3054  19.720  10.745   6.901
    8AU     LIG 3055  19.879  10.819   6.721
    8AU     LIG 3056  20.027  10.941   6.558
    8AU       S 3057  18.480  10.786   7.112
    8AU     LIG 3058  18.368  11.064   7.085
    8AU     LIG 3059  18.425  11.290   6.998
    8AU     LIG 3060  18.499  11.515   6.907
    8AU       S 3061  18.042  10.196   6.654
    8AU     LIG 3062  17.982  10.331   6.415
    8AU     LIG 3063  17.992  10.561   6.319
    8AU     LIG 3064  17.965  10.800   6.239
    8AU       S 3065  17.987   8.864   7.029
    8AU     LIG 3066  17.730   8.691   6.950
    8AU     LIG 3067  17.643   8.549   6.784
    8AU     LIG 3068  17.557   8.376   6.606
    8AU       S 3069  18.900   8.557   6.941
    8AU     LIG 3070  19.017   8.378   6.769
    8AU     LIG 3071  18.990   8.168   6.646
    8AU     LIG 3072  18.914   7.930   6.582
    8AU       S 3073  19.093   8.558   7.324
    8AU     LIG 3074  19.257   8.317   7.293
    8AU     LIG 3075  19.264   8.111   7.128
    8AU     LIG 3076  19.249   7.894   6.984
    8AU       S 3077  19.354   9.067   6.673
    8AU     LIG 3078  19.340   8.889   6.470
    8AU     LIG 3079  19.330   8.661   6.376
    8AU     LIG 3080  19.381   8.458   6.221
    9AU     AUC 3081  27.238  32.839   7.535
    9AU     AUC 3082  27.490  32.844   7.369
    9AU     AUC 3083  27.479  32.831   7.699
    9AU     AUC 3084  26.968  32.847   7.380
    9AU     AUC 3085  26.994  32.876   7.705
    9AU     AUC 3086  27.077  33.092   7.513
    9AU     AUC 3087  27.424  33.104   7.516
    9AU     AUC 3088  27.059  32.585   7.543
    9AU     AUC 3089  27.390  32.563   7.545
    9AU     AUC 3090  27.232  32.679   7.798
    9AU     AUC 3091  27.251  33.019   7.779
    9AU     AUC 3092  27.225  32.666   7.287
    9AU     AUC 3093  27.245  32.972   7.271
    9AU     AUC 3094  27.793  32.835   7.204
    9AU     AUC 3095  27.801  32.815   7.545
    9AU     AUC 3096  27.759  32.802   7.899
    9AU     AUC 3097  26.666  32.821   7.228
    9AU     AUC 3098  26.665  32.880   7.556
    9AU     AUC 3099  26.694  32.919   7.888
    9AU     AUC 3100  26.912  33.405   7.474
    9AU     AUC 3101  27.272  33.379   7.457
    9AU     AUC 3102  27.638  33.367   7.487
    9AU     AUC 3103  26.855  32.296   7.548
    9AU     AUC 3104  27.206  32.272   7.529
    9AU     AUC 3105  27.562  32.261   7.546
    9AU     AUC 3106  27.191  32.513   8.101
    9AU     AUC 3107  27.228  32.855   8.101
    9AU     AUC 3108  27.285  33.219   8.062
    9AU     AUC 3109  27.256  32.476   6.997
    9AU     AUC 3110  27.204  32.817   6.973
    9AU     AUC 3111  27.201  33.140   6.957
    9AU     AUC 3112  27.473  32.617   8.012
    9AU     AUC 3113  27.529  32.993   7.987
    9AU     AUC 3114  27.528  32.679   7.072
    9AU     AUC 3115  27.493  32.991   7.079
    9AU     AUC 3116  26.939  32.737   8.000
    9AU     AUC 3117  26.986  33.087   7.971
    9AU     AUC 3118  26.950  32.636   7.103
    9AU     AUC 3119  26.904  32.964   7.083
    9AU     AUC 3120  27.731  33.107   7.346
    9AU     AUC 3121  27.697  33.104   7.705
    9AU     AUC 3122  26.772  33.119   7.383
    9AU     AUC 3123  26.817  33.185   7.713
    9AU     AUC 3124  27.694  32.556   7.407
    9AU     AUC 3125  27.642  32.510   7.739
    9AU     AUC 3126  26.773  32.533   7.373
    9AU     AUC 3127  26.799  32.607   7.716
    9AU     AUC 3128  27.137  33.337   7.782
    9AU     AUC 3129  27.476  33.292   7.793
    9AU     AUC 3130  27.024  32.404   7.817
    9AU     AUC 3131  27.342  32.351   7.809
    9AU     AUC 3132  27.047  33.270   7.215
    9AU     AUC 3133  27.412  33.286   7.226
    9AU     AUC 3134  27.078  32.372   7.258
    9AU     AUC 3135  27.438  32.417   7.274
    9AU    AUSL 3136  27.737  32.707   8.316
    9AU    AUSL 3137  27.487  32.334   8.222
    9AU     AUL 3138  27.794  32.335   8.389
    9AU    AUSL 3139  27.322  32.649   8.460
    9AU    AUSL 3140  27.084  33.058   8.451
    9AU     AUL 3141  27.320  32.933   8.710
    9AU    AUSL 3142  27.421  33.006   8.204
    9AU    AUSL 3143  27.872  33.065   8.126
    9AU     AUL 3144  27.690  33.030   8.435
    9AU    AUSL 3145  27.645  32.867   6.840
    9AU    AUSL 3146  27.506  33.263   6.981
    9AU     AUL 3147  27.720  33.195   6.681
    9AU    AUSL 3148  27.457  32.545   6.612
    9AU    AUSL 3149  27.964  32.615   6.982
    9AU     AUL 3150  27.832  32.689   6.665
    9AU    AUSL 3151  27.289  33.049   6.670
    9AU    AUSL 3152  27.111  32.663   6.829
    9AU     AUL 3153  27.242  32.742   6.524
    9AU    AUSL 3154  26.700  33.020   8.243
    9AU    AUSL 3155  27.063  33.329   8.111
    9AU     AUL 3156  26.900  33.297   8.412
    9AU    AUSL 3157  27.001  32.707   8.191
    9AU    AUSL 3158  26.552  32.630   8.105
    9AU     AUL 3159  26.609  32.719   8.341
    9AU    AUSL 3160  26.675  32.645   6.795
    9AU    AUSL 3161  26.924  32.295   6.947
    9AU     AUL 3162  26.948  32.381   6.641
    9AU    AUSL 3163  26.861  33.013   6.675
    9AU    AUSL 3164  26.581  32.994   7.050
    9AU     AUL 3165  26.464  32.875   6.776
    9AU    AUSL 3166  28.029  33.302   7.476
    9AU    AUSL 3167  27.904  33.092   7.096
    9AU     AUL 3168  28.199  33.297   7.128
    9AU    AUSL 3169  28.194  32.906   7.367
    9AU    AUSL 3170  28.143  32.608   7.768
    9AU     AUL 3171  28.405  32.692   7.571
    9AU    AUSL 3172  27.916  32.961   7.718
    9AU    AUSL 3173  27.874  33.405   7.853
    9AU     AUL 3174  28.122  33.145   7.878
    9AU    AUSL 3175  26.663  33.482   7.522
    9AU    AUSL 3176  26.700  33.234   7.878
    9AU     AUL 3177  26.391  33.479   7.745
    9AU    AUSL 3178  26.462  33.103   7.444
    9AU    AUSL 3179  26.615  33.419   7.106
    9AU     AUL 3180  26.379  33.344   7.263
    9AU    AUSL 3181  26.335  33.025   7.888
    9AU    AUSL 3182  26.302  32.719   7.349
    9AU     AUL 3183  26.180  33.036   7.590
    9AU    AUSL 3184  27.921  32.259   7.615
    9AU    AUSL 3185  27.747  32.542   7.925
    9AU     AUL 3186  28.054  32.448   8.001
    9AU    AUSL 3187  27.879  32.629   7.397
    9AU    AUSL 3188  27.869  32.227   7.188
    9AU     AUL 3189  28.113  32.437   7.250
    9AU    AUSL 3190  26.455  32.340   7.553
    9AU    AUSL 3191  26.666  32.550   7.205
    9AU     AUL 3192  26.316  32.443   7.213
    9AU    AUSL 3193  26.572  32.741   7.694
    9AU    AUSL 3194  26.762  32.357   7.849
    9AU     AUL 3195  26.381  32.510   7.848
    9AU    AUSL 3196  27.304  33.665   7.966
    9AU    AUSL 3197  26.849  33.644   7.878
    9AU     AUL 3198  27.071  33.689   8.194
    9AU    AUSL 3199  27.136  33.520   7.591
    9AU    AUSL 3200  27.387  33.653   7.247
    9AU     AUL 3201  27.156  33.860   7.554
    9AU    AUSL 3202  27.574  33.596   7.623
    9AU    AUSL 3203  27.568  33.395   8.153
    9AU     AUL 3204  27.687  33.685   7.941
    9AU    AUSL 3205  27.162  32.199   7.970
    9AU    AUSL 3206  27.586  32.140   7.849
    9AU     AUL 3207  27.347  32.078   8.223
    9AU    AUSL 3208  26.854  31.977   7.699
    9AU    AUSL 3209  26.882  32.314   8.274
    9AU     AUL 3210  26.890  32.016   8.050
    9AU    AUSL 3211  27.286  31.902   7.667
    9AU    AUSL 3212  27.079  32.147   7.362
    9AU     AUL 3213  26.962  31.802   7.487
    9AU    AUSL 3214  27.214  33.538   6.843
    9AU    AUSL 3215  27.786  33.516   7.199
    9AU     AUL 3216  27.530  33.626   6.936
    9AU    AUSL 3217  26.965  33.632   7.210
    9AU    AUSL 3218  26.988  33.221   7.014
    9AU     AUL 3219  26.895  33.527   6.856
    9AU    AUSL 3220  27.304  32.095   6.981
    9AU    AUSL 3221  26.671  32.109   7.258
    9AU     AUL 3222  26.967  31.961   7.043
    9AU    AUSL 3223  27.511  32.119   7.381
    9AU    AUSL 3224  27.534  32.452   7.018
    9AU     AUL 3225  27.628  32.079   7.050
    9AU       S 3226  27.759  31.884   8.227
    9AU     LIG 3227  27.806  31.650   8.352
    9AU     LIG 3228  27.928  31.490   8.479
    9AU     LIG 3229  28.086  31.313   8.590
    9AU       S 3230  27.793  32.674   8.719
    9AU     LIG 3231  27.956  32.732   8.921
    9AU     LIG 3232  28.046  32.788   9.146
    9AU     LIG 3233  28.152  32.755   9.383
    9AU       S 3234  27.471  32.481   8.725
    9AU     LIG 3235  27.527  32.387   9.005
    9AU     LIG 3236  27.693  32.403   9.203
    9AU     LIG 3237  27.827  32.358   9.419
    9AU       S 3238  26.846  32.971   8.757
    9AU     LIG 3239  26.809  32.995   9.059
    9AU     LIG 3240  26.691  32.980   9.261
    9AU     LIG 3241  26.543  32.957   9.479
    9AU       S 3242  27.371  33.405   8.566
    9AU     LIG 3243  27.488  33.542   8.771
    9AU     LIG 3244  27.701  33.462   8.933
    9AU     LIG 3245  27.924  33.336   8.947
    9AU       S 3246  28.063  33.297   8.334
    9AU     LIG 3247  28.246  33.337   8.555
    9AU     LIG 3248  28.386  33.494   8.669
    9AU     LIG 3249  28.562  33.670   8.744
    9AU       S 3250  27.664  32.926   6.306
    9AU     LIG 3251  27.879  32.981   6.093
    9AU     LIG 3252  28.013  32.815   5.955
    9AU     LIG 3253  28.073  32.624   5.795
    9AU       S 3254  27.879  33.626   6.652
    9AU     LIG 3255  27.925  33.819   6.462
    9AU     LIG 3256  28.088  33.909   6.288
    9AU     LIG 3257  28.253  34.000   6.123
    9AU       S 3258  28.139  32.337   6.768
    9AU     LIG 3259  28.301  32.250   6.527
    9AU     LIG 3260  28.315  32.031   6.388
    9AU     LIG 3261  28.331  31.776   6.348
    9AU       S 3262  27.585  32.631   6.240
    9AU     LIG 3263  27.607  32.507   6.011
    9AU     LIG 3264  27.594  32.434   5.771
    9AU     LIG 3265  27.665  32.414   5.521
    9AU       S 3266  26.851  32.691   6.303
    9AU     LIG 3267  26.906  32.658   6.024
    9AU     LIG 3268  26.912  32.604   5.795
    9AU     LIG 3269  26.836  32.563   5.540
    9AU       S 3270  27.421  33.072   6.264
    9AU     LIG 3271  27.322  33.006   5.973
    9AU     LIG 3272  27.464  32.931   5.780
    9AU     LIG 3273  27.657  32.923   5.607
    9AU       S 3274  26.570  33.059   8.643
    9AU     LIG 3275  26.359  33.034   8.819
    9AU     LIG 3276  26.305  32.818   8.977
    9AU     LIG 3277  26.235  32.686   9.166
    9AU       S 3278  26.601  33.617   8.268
    9AU     LIG 3279  26.515  33.772   8.501
    9AU     LIG 3280  26.374  33.783   8.694
    9AU     LIG 3281  26.205  33.872   8.877
    9AU       S 3282  26.324  32.351   8.284
    9AU     LIG 3283  26.078  32.282   8.381
    9AU     LIG 3284  25.933  32.090   8.457
    9AU     LIG 3285  25.806  31.908   8.575
    9AU       S 3286  26.895  32.679   8.684
    9AU     LIG 3287  26.818  32.503   8.887
    9AU     LIG 3288  26.705  32.483   9.105
    9AU     LIG 3289  26.660  32.469   9.361
    9AU       S 3290  26.589  32.603   6.418
    9AU     LIG 3291  26.410  32.533   6.208
    9AU     LIG 3292  26.399  32.604   5.957
    9AU     LIG 3293  26.387  32.714   5.737
    9AU       S 3294  26.623  32.055   6.745
    9AU     LIG 3295  26.549  31.868   6.540
    9AU     LIG 3296  26.391  31.826   6.354
    9AU     LIG 3297  26.207  31.777   6.184
    9AU       S 3298  26.253  33.281   6.798
    9AU     LIG 3299  26.046  33.450   6.744
    9AU     LIG 3300  25.994  33.649   6.588
    9AU     LIG 3301  25.970  33.772   6.367
    9AU       S 3302  26.751  32.959   6.393
    9AU     LIG 3303  26.584  33.060   6.139
    9AU     LIG 3304  26.667  33.097   5.913
    9AU     LIG 3305  26.775  33.077   5.679
    9AU       S 3306  28.110  33.440   6.708
    9AU     LIG 3307  28.325  33.486   6.537
    9AU     LIG 3308  28.482  33.598   6.389
    9AU     LIG 3309  28.663  33.717   6.245
    9AU       S 3310  28.362  33.416   7.556
    9AU     LIG 3311  28.575  33.620   7.540
    9AU     LIG 3312  28.819  33.664   7.511
    9AU     LIG 3313  29.072  33.727   7.532
    9AU       S 3314  28.538  33.117   7.388
    9AU     LIG 3315  28.807  33.188   7.293
    9AU     LIG 3316  29.047  33.254   7.306
    9AU     LIG 3317  29.269  33.368   7.226
    9AU       S 3318  28.402  32.238   7.790
    9AU     LIG 3319  28.637  32.136   7.920
    9AU     LIG 3320  28.890  32.131   7.859
    9AU     LIG 3321  29.139  32.099   7.780
    9AU       S 3322  28.099  33.545   8.127
    9AU     LIG 3323  28.294  33.722   8.210
    9AU     LIG 3324  28.339  33.921   8.357
    9AU     LIG 3325  28.358  34.100   8.540
    9AU       S 3326  28.509  33.149   7.663
    9AU     LIG 3327  28.747  33.220   7.814
    9AU     LIG 3328  28.984  33.287   7.811
    9AU     LIG 3329  29.214  33.377   7.878
    9AU       S 3330  26.435  33.394   8.203
    9AU     LIG 3331  26.196  33.386   8.380
    9AU     LIG 3332  26.010  33.525   8.444
    9AU     LIG 3333  25.834  33.644   8.594
    9AU       S 3334  26.602  33.818   7.463
    9AU     LIG 3335  26.442  34.026   7.335
    9AU     LIG 3336  26.196  34.006   7.239
    9AU     LIG 3337  26.008  33.849   7.123
    9AU       S 3338  26.038  33.037   7.139
    9AU     LIG 3339  25.800  33.042   7.071
    9AU     LIG 3340  25.545  33.118   7.141
    9AU     LIG 3341  25.400  33.331   7.163
    9AU       S 3342  26.468  33.691   6.929
    9AU     LIG 3343  26.395  33.899   6.787
    9AU     LIG 3344  26.253  34.078   6.702
    9AU     LIG 3345  26.122  34.233   6.537
    9AU       S 3346  25.949  32.633   7.449
    9AU     LIG 3347  25.672  32.623   7.337
    9AU     LIG 3348  25.429  32.605   7.332
    9AU     LIG 3349  25.195  32.484   7.284
    9AU       S 3350  26.140  32.952   8.097
    9AU     LIG 3351  25.827  33.056   8.182
    9AU     LIG 3352  25.710  33.268   8.094
    9AU     LIG 3353  25.530  33.415   7.968
    9AU       S 3354  28.132  32.068   7.606
    9AU     LIG 3355  28.266  31.766   7.622
    9AU     LIG 3356  28.494  31.700   7.697
    9AU     LIG 3357  28.765  31.686   7.655
    9AU       S 3358  27.976  32.007   8.066
    9AU     LIG 3359  28.223  31.871   8.105
    9AU     LIG 3360  28.353  31.783   8.287
    9AU     LIG 3361  28.400  31.713   8.537
    9AU       S 3362  28.389  32.218   7.519
    9AU     LIG 3363  28.612  32.096   7.383
    9AU     LIG 3364  28.853  32.097   7.343
    9AU     LIG 3365  29.094  32.025   7.280
    9AU       S 3366  28.081  32.075   6.925
    9AU     LIG 3367  28.146  31.815   6.822
    9AU     LIG 3368  28.019  31.592   6.774
    9AU     LIG 3369  27.978  31.373   6.659
    9AU       S 3370  26.446  32.250   6.817
    9AU     LIG 3371  26.213  32.260   6.620
    9AU     LIG 3372  26.036  32.143   6.527
    9AU     LIG 3373  25.830  31.985   6.465
    9AU       S 3374  26.031  32.342   7.583
    9AU     LIG 3375  25.814  32.176   7.588
    9AU     LIG 3376  25.587  32.128   7.482
    9AU     LIG 3377  25.354  32.024   7.441
    9AU       S 3378  26.443  32.121   8.082
    9AU     LIG 3379  26.267  31.913   8.068
    9AU     LIG 3380  26.147  31.727   8.174
    9AU     LIG 3381  26.014  31.541   8.287
    9AU       S 3382  25.973  32.637   7.713
    9AU     LIG 3383  25.739  32.609   7.888
    9AU     LIG 3384  25.500  32.517   7.835
    9AU     LIG 3385  25.291  32.382   7.809
    9AU       S 3386  26.642  33.836   7.989
    9AU     LIG 3387  26.407  34.025   8.062
    9AU     LIG 3388  26.182  33.988   8.206
    9AU     LIG 3389  26.050  34.065   8.412
    9AU       S 3390  27.385  34.022   8.053
    9AU     LIG 3391  27.496  34.209   8.255
    9AU     LIG 3392  27.384  34.399   8.380
    9AU     LIG 3393  27.239  34.600   8.444
    9AU       S 3394  27.147  34.157   7.925
    9AU     LIG 3395  27.058  34.382   7.968
    9AU     LIG 3396  27.032  34.641   7.984
    9AU     LIG 3397  27.041  34.892   8.012
    9AU       S 3398  27.312  34.000   7.131
    9AU     LIG 3399  27.378  34.269   7.146
    9AU     LIG 3400  27.412  34.501   7.130
    9AU     LIG 3401  27.475  34.744   7.042
    9AU       S 3402  27.822  33.512   8.364
    9AU     LIG 3403  27.897  33.731   8.543
    9AU     LIG 3404  27.998  33.812   8.736
    9AU     LIG 3405  28.124  33.830   8.967
    9AU       S 3406  27.524  34.073   7.734
    9AU     LIG 3407  27.556  34.346   7.718
    9AU     LIG 3408  27.531  34.556   7.875
    9AU     LIG 3409  27.543  34.740   8.040
    9AU       S 3410  27.245  31.663   8.062
    9AU     LIG 3411  27.364  31.457   8.213
    9AU     LIG 3412  27.352  31.250   8.334
    9AU     LIG 3413  27.333  31.013   8.434
    9AU       S 3414  27.728  31.896   7.902
    9AU     LIG 3415  27.832  31.592   7.827
    9AU     LIG 3416  27.992  31.458   7.925
    9AU     LIG 3417  28.204  31.358   8.057
    9AU       S 3418  26.993  31.577   7.896
    9AU     LIG 3419  26.944  31.310   7.918
    9AU     LIG 3420  26.966  31.092   8.033
    9AU     LIG 3421  26.956  30.854   8.129
    9AU       S 3422  26.587  32.203   8.386
    9AU     LIG 3423  26.460  31.985   8.570
    9AU     LIG 3424  26.323  31.811   8.640
    9AU     LIG 3425  26.186  31.617   8.762
    9AU       S 3426  27.311  31.673   7.221
    9AU     LIG 3427  27.250  31.345   7.210
    9AU     LIG 3428  27.235  31.149   7.090
    9AU     LIG 3429  27.235  30.882   7.027
    9AU       S 3430  27.325  31.626   7.758
    9AU     LIG 3431  27.425  31.324   7.712
    9AU     LIG 3432  27.438  31.127   7.838
    9AU     LIG 3433  27.432  30.881   7.941
    9AU       S 3434  27.164  33.920   6.835
    9AU     LIG 3435  27.170  34.149   6.681
    9AU     LIG 3436  27.293  34.365   6.641
    9AU     LIG 3437  27.359  34.599   6.564
    9AU       S 3438  28.003  33.696   6.958
    9AU     LIG 3439  28.201  33.900   6.901
    9AU     LIG 3440  28.360  33.974   6.721
    9AU     LIG 3441  28.508  34.096   6.558
    9AU       S 3442  26.961  33.941   7.112
    9AU     LIG 3443  26.849  34.219   7.085
    9AU     LIG 3444  26.906  34.445   6.998
    9AU     LIG 3445  26.980  34.670   6.907
    9AU       S 3446  26.523  33.351   6.654
    9AU     LIG 3447  26.463  33.486   6.415
    9AU     LIG 3448  26.473  33.716   6.319
    9AU     LIG 3449  26.446  33.955   6.239
    9AU       S 3450  26.468  32.019   7.029
    9AU     LIG 3451  26.211  31.846   6.950
    9AU     LIG 3452  26.124  31.704   6.784
    9AU     LIG 3453  26.038  31.531   6.606
    9AU       S 3454  27.381  31.712   6.941
    9AU     LIG 3455  27.498  31.533   6.769
    9AU     LIG 3456  27.471  31.323   6.646
    9AU     LIG 3457  27.395  31.085   6.582
    9AU       S 3458  27.574  31.713   7.324
    9AU     LIG 3459  27.738  31.472   7.293
    9AU     LIG 3460  27.745  31.266   7.128
    9AU     LIG 3461  27.730  31.049   6.984
    9AU       S 3462  27.835  32.222   6.673
    9AU     LIG 3463  27.821  32.044   6.470
    9AU     LIG 3464  27.811  31.816   6.376
    9AU     LIG 3465  27.862  31.613   6.221
   10AU     AUC 3466  16.774  29.218   7.535
   10AU     AUC 3467  17.026  29.223   7.369
   10AU     AUC 3468  17.015  29.210   7.699
   10AU     AUC 3469  16.504  29.226   7.380
   10AU     AUC 3470  16.530  29.255   7.705
   10AU     AUC 3471  16.613  29.471   7.513
   10AU     AUC 3472  16.960  29.483   7.516
   10AU     AUC 3473  16.595  28.964   7.543
   10AU     AUC 3474  16.926  28.942   7.545
   10AU     AUC 3475  16.768  29.058   7.798
   10AU     AUC 3476  16.787  29.398   7.779
   10AU     AUC 3477  16.761  29.045   7.287
   10AU     AUC 3478  16.781  29.351   7.271
   10AU     AUC 3479  17.329  29.214   7.204
   10AU     AUC 3480  17.337  29.194   7.545
   10AU     AUC 3481  17.295  29.181   7.899
   10AU     AUC 3482  16.202  29.200   7.228
   10AU     AUC 3483  16.201  29.259   7.556
   10AU     AUC 3484  16.230  29.298   7.888
   10AU     AUC 3485  16.448  29.784   7.474
   10AU     AUC 3486  16.808  29.758   7.457
   10AU     AUC 3487  17.174  29.746   7.487
   10AU     AUC 3488  16.391  28.675   7.548
   10AU     AUC 3489  16.742  28.651   7.529
   10AU     AUC 3490  17.098  28.640   7.546
   10AU     AUC 3491  16.727  28.892   8.101
   10AU     AUC 3492  16.764  29.234   8.101
   10AU     AUC 3493  16.821  29.598   8.062
   10AU     AUC 3494  16.792  28.855   6.997
   10AU     AUC 3495  16.740  29.196   6.973
   10AU     AUC 3496  16.737  29.519   6.957
   10AU     AUC 3497  17.009  28.996   8.012
   10AU     AUC 3498  17.065  29.372   7.987
   10AU     AUC 3499  17.064  29.058   7.072
   10AU     AUC 3500  17.029  29.370   7.079
   10AU     AUC 3501  16.475  29.116   8.000
   10AU     AUC 3502  16.522  29.466   7.971
   10AU     AUC 3503  16.486  29.015   7.103
   10AU     AUC 3504  16.440  29.343   7.083
   10AU     AUC 3505  17.267  29.486   7.346
   10AU     AUC 3506  17.233  29.483   7.705
   10AU     AUC 3507  16.308  29.498   7.383
   10AU     AUC 3508  16.353  29.564   7.713
   10AU     AUC 3509  17.230  28.935   7.407
   10AU     AUC 3510  17.178  28.889   7.739
   10AU     AUC 3511  16.309  28.912   7.373
   10AU     AUC 3512  16.335  28.986   7.716
   10AU     AUC 3513  16.673  29.716   7.782
   10AU     AUC 3514  17.012  29.671   7.793
   10AU     AUC 3515  16.560  28.783   7.817
   10AU     AUC 3516  16.878  28.730   7.809
   10AU     AUC 3517  16.583  29.649   7.215
   10AU     AUC 3518  16.948  29.665   7.226
   10AU     AUC 3519  16.614  28.751   7.258
   10AU     AUC 3520  16.974  28.796   7.274
   10AU    AUSL 3521  17.273  29.086   8.316
   10AU    AUSL 3522  17.023  28.713   8.222
   10AU     AUL 3523  17.330  28.714   8.389
   10AU    AUSL 3524  16.858  29.028   8.460
   10AU    AUSL 3525  16.620  29.437   8.451
   10AU     AUL 3526  16.856  29.312   8.710
   10AU    AUSL 3527  16.957  29.385   8.204
   10AU    AUSL 3528  17.408  29.444   8.126
   10AU     AUL 3529  17.226  29.409   8.435
   10AU    AUSL 3530  17.181  29.246   6.840
   10AU    AUSL 3531  17.042  29.642   6.981
   10AU     AUL 3532  17.256  29.574   6.681
   10AU    AUSL 3533  16.993  28.924   6.612
   10AU    AUSL 3534  17.500  28.994   6.982
   10AU     AUL 3535  17.368  29.068   6.665
   10AU    AUSL 3536  16.825  29.428   6.670
   10AU    AUSL 3537  16.647  29.042   6.829
   10AU     AUL 3538  16.778  29.121   6.524
   10AU    AUSL 3539  16.236  29.399   8.243
   10AU    AUSL 3540  16.599  29.708   8.111
   10AU     AUL 3541  16.436  29.676   8.412
   10AU    AUSL 3542  16.537  29.086   8.191
   10AU    AUSL 3543  16.088  29.009   8.105
   10AU     AUL 3544  16.145  29.098   8.341
   10AU    AUSL 3545  16.211  29.024   6.795
   10AU    AUSL 3546  16.460  28.674   6.947
   10AU     AUL 3547  16.484  28.760   6.641
   10AU    AUSL 3548  16.397  29.392   6.675
   10AU    AUSL 3549  16.117  29.373   7.050
   10AU     AUL 3550  16.000  29.254   6.776
   10AU    AUSL 3551  17.565  29.681   7.476
   10AU    AUSL 3552  17.440  29.471   7.096
   10AU     AUL 3553  17.735  29.676   7.128
   10AU    AUSL 3554  17.730  29.285   7.367
   10AU    AUSL 3555  17.679  28.987   7.768
   10AU     AUL 3556  17.941  29.071   7.571
   10AU    AUSL 3557  17.452  29.340   7.718
   10AU    AUSL 3558  17.410  29.784   7.853
   10AU     AUL 3559  17.658  29.524   7.878
   10AU    AUSL 3560  16.199  29.861   7.522
   10AU    AUSL 3561  16.236  29.613   7.878
   10AU     AUL 3562  15.927  29.858   7.745
   10AU    AUSL 3563  15.998  29.482   7.444
   10AU    AUSL 3564  16.151  29.798   7.106
   10AU     AUL 3565  15.915  29.723   7.263
   10AU    AUSL 3566  15.871  29.404   7.888
   10AU    AUSL 3567  15.838  29.098   7.349
   10AU     AUL 3568  15.716  29.415   7.590
   10AU    AUSL 3569  17.457  28.638   7.615
   10AU    AUSL 3570  17.283  28.921   7.925
   10AU     AUL 3571  17.590  28.827   8.001
   10AU    AUSL 3572  17.415  29.008   7.397
   10AU    AUSL 3573  17.405  28.606   7.188
   10AU     AUL 3574  17.649  28.816   7.250
   10AU    AUSL 3575  15.991  28.719   7.553
   10AU    AUSL 3576  16.202  28.929   7.205
   10AU     AUL 3577  15.852  28.822   7.213
   10AU    AUSL 3578  16.108  29.120   7.694
   10AU    AUSL 3579  16.298  28.736   7.849
   10AU     AUL 3580  15.917  28.889   7.848
   10AU    AUSL 3581  16.840  30.044   7.966
   10AU    AUSL 3582  16.385  30.023   7.878
   10AU     AUL 3583  16.607  30.068   8.194
   10AU    AUSL 3584  16.672  29.899   7.591
   10AU    AUSL 3585  16.923  30.032   7.247
   10AU     AUL 3586  16.692  30.239   7.554
   10AU    AUSL 3587  17.110  29.975   7.623
   10AU    AUSL 3588  17.104  29.774   8.153
   10AU     AUL 3589  17.223  30.064   7.941
   10AU    AUSL 3590  16.698  28.578   7.970
   10AU    AUSL 3591  17.122  28.519   7.849
   10AU     AUL 3592  16.883  28.457   8.223
   10AU    AUSL 3593  16.390  28.356   7.699
   10AU    AUSL 3594  16.418  28.693   8.274
   10AU     AUL 3595  16.426  28.395   8.050
   10AU    AUSL 3596  16.822  28.281   7.667
   10AU    AUSL 3597  16.615  28.526   7.362
   10AU     AUL 3598  16.498  28.181   7.487
   10AU    AUSL 3599  16.750  29.917   6.843
   10AU    AUSL 3600  17.322  29.895   7.199
   10AU     AUL 3601  17.066  30.005   6.936
   10AU    AUSL 3602  16.501  30.011   7.210
   10AU    AUSL 3603  16.524  29.600   7.014
   10AU     AUL 3604  16.431  29.906   6.856
   10AU    AUSL 3605  16.840  28.474   6.981
   10AU    AUSL 3606  16.207  28.488   7.258
   10AU     AUL 3607  16.503  28.340   7.043
   10AU    AUSL 3608  17.047  28.498   7.381
   10AU    AUSL 3609  17.070  28.831   7.018
   10AU     AUL 3610  17.164  28.458   7.050
   10AU       S 3611  17.295  28.263   8.227
   10AU     LIG 3612  17.342  28.029   8.352
   10AU     LIG 3613  17.464  27.869   8.479
   10AU     LIG 3614  17.622  27.692   8.590
   10AU       S 3615  17.329  29.053   8.719
   10AU     LIG 3616  17.492  29.111   8.921
   10AU     LIG 3617  17.582  29.167   9.146
   10AU     LIG 3618  17.688  29.134   9.383
   10AU       S 3619  17.007  28.860   8.725
   10AU     LIG 3620  17.063  28.766   9.005
   10AU     LIG 3621  17.229  28.782   9.203
   10AU     LIG 3622  17.363  28.737   9.419
   10AU       S 3623  16.382  29.350   8.757
   10AU     LIG 3624  16.345  29.374   9.059
   10AU     LIG 3625  16.227  29.359   9.261
   10AU     LIG 3626  16.079  29.336   9.479
   10AU       S 3627  16.907  29.784   8.566
   10AU     LIG 3628  17.024  29.921   8.771
   10AU     LIG 3629  17.237  29.841   8.933
   10AU     LIG 3630  17.460  29.715   8.947
   10AU       S 3631  17.599  29.676   8.334
   10AU     LIG 3632  17.782  29.716   8.555
   10AU     LIG 3633  17.922  29.873   8.669
   10AU     LIG 3634  18.098  30.049   8.744
   10AU       S 3635  17.200  29.305   6.306
   10AU     LIG 3636  17.415  29.360   6.093
   10AU     LIG 3637  17.549  29.194   5.955
   10AU     LIG 3638  17.609  29.003   5.795
   10AU       S 3639  17.415  30.005   6.652
   10AU     LIG 3640  17.461  30.198   6.462
   10AU     LIG 3641  17.624  30.288   6.288
   10AU     LIG 3642  17.789  30.379   6.123
   10AU       S 3643  17.675  28.716   6.768
   10AU     LIG 3644  17.837  28.629   6.527
   10AU     LIG 3645  17.851  28.410   6.388
   10AU     LIG 3646  17.867  28.155   6.348
   10AU       S 3647  17.121  29.010   6.240
   10AU     LIG 3648  17.143  28.886   6.011
   10AU     LIG 3649  17.130  28.813   5.771
   10AU     LIG 3650  17.201  28.793   5.521
   10AU       S 3651  16.387  29.070   6.303
   10AU     LIG 3652  16.442  29.037   6.024
   10AU     LIG 3653  16.448  28.983   5.795
   10AU     LIG 3654  16.372  28.942   5.540
   10AU       S 3655  16.957  29.451   6.264
   10AU     LIG 3656  16.858  29.385   5.973
   10AU     LIG 3657  17.000  29.310   5.780
   10AU     LIG 3658  17.193  29.302   5.607
   10AU       S 3659  16.106  29.438   8.643
   10AU     LIG 3660  15.895  29.413   8.819
   10AU     LIG 3661  15.841  29.197   8.977
   10AU     LIG 3662  15.771  29.065   9.166
   10AU       S 3663  16.137  29.996   8.268
   10AU     LIG 3664  16.051  30.151   8.501
   10AU     LIG 3665  15.910  30.162   8.694
   10AU     LIG 3666  15.741  30.251   8.877
   10AU       S 3667  15.860  28.730   8.284
   10AU     LIG 3668  15.614  28.661   8.381
   10AU     LIG 3669  15.469  28.469   8.457
   10AU     LIG 3670  15.342  28.287   8.575
   10AU       S 3671  16.431  29.058   8.684
   10AU     LIG 3672  16.354  28.882   8.887
   10AU     LIG 3673  16.241  28.862   9.105
   10AU     LIG 3674  16.196  28.848   9.361
   10AU       S 3675  16.125  28.982   6.418
   10AU     LIG 3676  15.946  28.912   6.208
   10AU     LIG 3677  15.935  28.983   5.957
   10AU     LIG 3678  15.923  29.093   5.737
   10AU       S 3679  16.159  28.434   6.745
   10AU     LIG 3680  16.085  28.247   6.540
   10AU     LIG 3681  15.927  28.205   6.354
   10AU     LIG 3682  15.743  28.156   6.184
   10AU       S 3683  15.789  29.660   6.798
   10AU     LIG 3684  15.582  29.829   6.744
   10AU     LIG 3685  15.530  30.028   6.588
   10AU     LIG 3686  15.506  30.151   6.367
   10AU       S 3687  16.287  29.338   6.393
   10AU     LIG 3688  16.120  29.439   6.139
   10AU     LIG 3689  16.203  29.476   5.913
   10AU     LIG 3690  16.311  29.456   5.679
   10AU       S 3691  17.646  29.819   6.708
   10AU     LIG 3692  17.861  29.865   6.537
   10AU     LIG 3693  18.018  29.977   6.389
   10AU     LIG 3694  18.199  30.096   6.245
   10AU       S 3695  17.898  29.795   7.556
   10AU     LIG 3696  18.111  29.999   7.540
   10AU     LIG 3697  18.355  30.043   7.511
   10AU     LIG 3698  18.608  30.106   7.532
   10AU       S 3699  18.074  29.496   7.388
   10AU     LIG 3700  18.343  29.567   7.293
   10AU     LIG 3701  18.583  29.633   7.306
   10AU     LIG 3702  18.805  29.747   7.226
   10AU       S 3703  17.938  28.617   7.790
   10AU     LIG 3704  18.173  28.515   7.920
   10AU     LIG 3705  18.426  28.510   7.859
   10AU     LIG 3706  18.675  28.478   7.780
   10AU       S 3707  17.635  29.924   8.127
   10AU     LIG 3708  17.830  30.101   8.210
   10AU     LIG 3709  17.875  30.300   8.357
   10AU     LIG 3710  17.894  30.479   8.540
   10AU       S 3711  18.045  29.528   7.663
   10AU     LIG 3712  18.283  29.599   7.814
   10AU     LIG 3713  18.520  29.666   7.811
   10AU     LIG 3714  18.750  29.756   7.878
   10AU       S 3715  15.971  29.773   8.203
   10AU     LIG 3716  15.732  29.765   8.380
   10AU     LIG 3717  15.546  29.904   8.444
   10AU     LIG 3718  15.370  30.023   8.594
   10AU       S 3719  16.138  30.197   7.463
   10AU     LIG 3720  15.978  30.405   7.335
   10AU     LIG 3721  15.732  30.385   7.239
   10AU     LIG 3722  15.544  30.228   7.123
   10AU       S 3723  15.574  29.416   7.139
   10AU     LIG 3724  15.336  29.421   7.071
   10AU     LIG 3725  15.081  29.497   7.141
   10AU     LIG 3726  14.936  29.710   7.163
   10AU       S 3727  16.004  30.070   6.929
   10AU     LIG 3728  15.931  30.278   6.787
   10AU     LIG 3729  15.789  30.457   6.702
   10AU     LIG 3730  15.658  30.612   6.537
   10AU       S 3731  15.485  29.012   7.449
   10AU     LIG 3732  15.208  29.002   7.337
   10AU     LIG 3733  14.965  28.984   7.332
   10AU     LIG 3734  14.731  28.863   7.284
   10AU       S 3735  15.676  29.331   8.097
   10AU     LIG 3736  15.363  29.435   8.182
   10AU     LIG 3737  15.246  29.647   8.094
   10AU     LIG 3738  15.066  29.794   7.968
   10AU       S 3739  17.668  28.447   7.606
   10AU     LIG 3740  17.802  28.145   7.622
   10AU     LIG 3741  18.030  28.079   7.697
   10AU     LIG 3742  18.301  28.065   7.655
   10AU       S 3743  17.512  28.386   8.066
   10AU     LIG 3744  17.759  28.250   8.105
   10AU     LIG 3745  17.889  28.162   8.287
   10AU     LIG 3746  17.936  28.092   8.537
   10AU       S 3747  17.925  28.597   7.519
   10AU     LIG 3748  18.148  28.475   7.383
   10AU     LIG 3749  18.389  28.476   7.343
   10AU     LIG 3750  18.630  28.404   7.280
   10AU       S 3751  17.617  28.454   6.925
   10AU     LIG 3752  17.682  28.194   6.822
   10AU     LIG 3753  17.555  27.971   6.774
   10AU     LIG 3754  17.514  27.752   6.659
   10AU       S 3755  15.982  28.629   6.817
   10AU     LIG 3756  15.749  28.639   6.620
   10AU     LIG 3757  15.572  28.522   6.527
   10AU     LIG 3758  15.366  28.364   6.465
   10AU       S 3759  15.567  28.721   7.583
   10AU     LIG 3760  15.350  28.555   7.588
   10AU     LIG 3761  15.123  28.507   7.482
   10AU     LIG 3762  14.890  28.403   7.441
   10AU       S 3763  15.979  28.500   8.082
   10AU     LIG 3764  15.803  28.292   8.068
   10AU     LIG 3765  15.683  28.106   8.174
   10AU     LIG 3766  15.550  27.920   8.287
   10AU       S 3767  15.509  29.016   7.713
   10AU     LIG 3768  15.275  28.988   7.888
   10AU     LIG 3769  15.036  28.896   7.835
   10AU     LIG 3770  14.827  28.761   7.809
   10AU       S 3771  16.178  30.215   7.989
   10AU     LIG 3772  15.943  30.404   8.062
   10AU     LIG 3773  15.718  30.367   8.206
   10AU     LIG 3774  15.586  30.444   8.412
   10AU       S 3775  16.921  30.401   8.053
   10AU     LIG 3776  17.032  30.588   8.255
   10AU     LIG 3777  16.920  30.778   8.380
   10AU     LIG 3778  16.775  30.979   8.444
   10AU       S 3779  16.683  30.536   7.925
   10AU     LIG 3780  16.594  30.761   7.968
   10AU     LIG 3781  16.568  31.020   7.984
   10AU     LIG 3782  16.577  31.271   8.012
   10AU       S 3783  16.848  30.379   7.131
   10AU     LIG 3784  16.914  30.648   7.146
   10AU     LIG 3785  16.948  30.880   7.130
   10AU     LIG 3786  17.011  31.123   7.042
   10AU       S 3787  17.358  29.891   8.364
   10AU     LIG 3788  17.433  30.110   8.543
   10AU     LIG 3789  17.534  30.191   8.736
   10AU     LIG 3790  17.660  30.209   8.967
   10AU       S 3791  17.060  30.452   7.734
   10AU     LIG 3792  17.092  30.725   7.718
   10AU     LIG 3793  17.067  30.935   7.875
   10AU     LIG 3794  17.079  31.119   8.040
   10AU       S 3795  16.781  28.042   8.062
   10AU     LIG 3796  16.900  27.836   8.213
   10AU     LIG 3797  16.888  27.629   8.334
   10AU     LIG 3798  16.869  27.392   8.434
   10AU       S 3799  17.264  28.275   7.902
   10AU     LIG 3800  17.368  27.971   7.827
   10AU     LIG 3801  17.528  27.837   7.925
   10AU     LIG 3802  17.740  27.737   8.057
   10AU       S 3803  16.529  27.956   7.896
   10AU     LIG 3804  16.480  27.689   7.918
   10AU     LIG 3805  16.502  27.471   8.033
   10AU     LIG 3806  16.492  27.233   8.129
   10AU       S 3807  16.123  28.582   8.386
   10AU     LIG 3808  15.996  28.364   8.570
   10AU     LIG 3809  15.859  28.190   8.640
   10AU     LIG 3810  15.722  27.996   8.762
   10AU       S 3811  16.847  28.052   7.221
   10AU     LIG 3812  16.786  27.724   7.210
   10AU     LIG 3813  16.771  27.528   7.090
   10AU     LIG 3814  16.771  27.261   7.027
   10AU       S 3815  16.861  28.005   7.758
   10AU     LIG 3816  16.961  27.703   7.712
   10AU     LIG 3817  16.974  27.506   7.838
   10AU     LIG 3818  16.968  27.260   7.941
   10AU       S 3819  16.700  30.299   6.835
   10AU     LIG 3820  16.706  30.528   6.681
   10AU     LIG 3821  16.829  30.744   6.641
   10AU     LIG 3822  16.895  30.978   6.564
   10AU       S 3823  17.539  30.075   6.958
   10AU     LIG 3824  17.737  30.279   6.901
   10AU     LIG 3825  17.896  30.353   6.721
   10AU     LIG 3826  18.044  30.475   6.558
   10AU       S 3827  16.497  30.320   7.112
   10AU     LIG 3828  16.385  30.598   7.085
   10AU     LIG 3829  16.442  30.824   6.998
   10AU     LIG 3830  16.516  31.049   6.907
   10AU       S 3831  16.059  29.730   6.654
   10AU     LIG 3832  15.999  29.865   6.415
   10AU     LIG 3833  16.009  30.095   6.319
   10AU     LIG 3834  15.982  30.334   6.239
   10AU       S 3835  16.004  28.398   7.029
   10AU     LIG 3836  15.747  28.225   6.950
   10AU     LIG 3837  15.660  28.083   6.784
   10AU     LIG 3838  15.574  27.910   6.606
   10AU       S 3839  16.917  28.091   6.941
   10AU     LIG 3840  17.034  27.912   6.769
   10AU     LIG 3841  17.007  27.702   6.646
   10AU     LIG 3842  16.931  27.464   6.582
   10AU       S 3843  17.110  28.092   7.324
   10AU     LIG 3844  17.274  27.851   7.293
   10AU     LIG 3845  17.281  27.645   7.128
   10AU     LIG 3846  17.266  27.428   6.984
   10AU       S 3847  17.371  28.601   6.673
   10AU     LIG 3848  17.357  28.423   6.470
   10AU     LIG 3849  17.347  28.195   6.376
   10AU     LIG 3850  17.398  27.992   6.221
   11POPC   NC3 3851   2.723   6.620   9.464
   11POPC   PO4 3852   2.731   6.651   9.164
   11POPC   GL1 3853   2.783   6.634   8.864
   11POPC   GL2 3854   2.800   6.767   8.864
   11POPC   C1A 3855   2.782   6.611   8.564
   11POPC   D2A 3856   2.744   6.622   8.264
   11POPC   C3A 3857   2.814   6.602   7.964
   11POPC   C4A 3858   2.765   6.598   7.664
   11POPC   C1B 3859   2.887   6.915   8.564
   11POPC   C2B 3860   2.913   6.908   8.264
   11POPC   C3B 3861   2.849   6.872   7.964
   11POPC   C4B 3862   2.839   6.862   7.664
   12POPC   NC3 3863   4.306  19.048   9.464
   12POPC   PO4 3864   4.275  19.083   9.164
   12POPC   GL1 3865   4.337  19.032   8.864
   12POPC   GL2 3866   4.239  19.170   8.864
   12POPC   C1A 3867   4.283  19.104   8.564
   12POPC   D2A 3868   4.303  19.011   8.264
   12POPC   C3A 3869   4.342  19.061   7.964
   12POPC   C4A 3870   4.278  19.062   7.664
   12POPC   C1B 3871   4.272  19.304   8.564
   12POPC   C2B 3872   4.297  19.252   8.264
   12POPC   C3B 3873   4.277  19.325   7.964
   12POPC   C4B 3874   4.224  19.333   7.664
   13POPC   NC3 3875   5.831  18.304   9.464
   13POPC   PO4 3876   5.868  18.326   9.164
   13POPC   GL1 3877   5.845  18.327   8.864
   13POPC   GL2 3878   5.759  18.168   8.864
   13POPC   C1A 3879   5.867  18.275   8.564
   13POPC   D2A 3880   5.844  18.269   8.264
   13POPC   C3A 3881   5.845  18.319   7.964
   13POPC   C4A 3882   5.911  18.291   7.664
   13POPC   C1B 3883   5.693  18.183   8.564
   13POPC   C2B 3884   5.606  18.198   8.264
   13POPC   C3B 3885   5.657  18.142   7.964
   13POPC   C4B 3886   5.632  18.172   7.664
   14POPC   NC3 3887   4.313  11.291   9.464
   14POPC   PO4 3888   4.278  11.261   9.164
   14POPC   GL1 3889   4.325  11.325   8.864
   14POPC   GL2 3890   4.413  11.229   8.864
   14POPC   C1A 3891   4.303  11.250   8.564
   14POPC   D2A 3892   4.332  11.311   8.264
   14POPC   C3A 3893   4.293  11.258   7.964
   14POPC   C4A 3894   4.305  11.315   7.664
   14POPC   C1B 3895   4.542  11.214   8.564
   14POPC   C2B 3896   4.533  11.190   8.264
   14POPC   C3B 3897   4.547  11.219   7.964
   14POPC   C4B 3898   4.577  11.196   7.664
   15POPC   NC3 3899  39.246   2.747   9.464
   15POPC   PO4 3900  39.193   2.757   9.164
   15POPC   GL1 3901  39.230   2.784   8.864
   15POPC   GL2 3902  39.099   2.802   8.864
   15POPC   C1A 3903  39.271   2.769   8.564
   15POPC   D2A 3904  39.247   2.755   8.264
   15POPC   C3A 3905  39.247   2.788   7.964
   15POPC   C4A 3906  39.209   2.785   7.664
   15POPC   C1B 3907  39.011   2.894   8.564
   15POPC   C2B 3908  38.997   2.859   8.264
   15POPC   C3B 3909  39.033   2.920   7.964
   15POPC   C4B 3910  39.001   2.914   7.664
   16POPC   NC3 3911  29.872   9.792   9.464
   16POPC   PO4 3912  29.950   9.735   9.164
   16POPC   GL1 3913  29.882   9.779   8.864
   16POPC   GL2 3914  29.954   9.616   8.864
   16POPC   C1A 3915  29.968   9.770   8.564
   16POPC   D2A 3916  29.881   9.729   8.264
   16POPC   C3A 3917  29.933   9.718   7.964
   16POPC   C4A 3918  29.951   9.722   7.664
   16POPC   C1B 3919  30.002   9.573   8.564
   16POPC   C2B 3920  30.008   9.561   8.264
   16POPC   C3B 3921  30.009   9.518   7.964
   16POPC   C4B 3922  30.010   9.564   7.664
   17POPC   NC3 3923  12.861  14.453   9.464
   17POPC   PO4 3924  12.825  14.395   9.164
   17POPC   GL1 3925  12.826  14.387   8.864
   17POPC   GL2 3926  12.769  14.238   8.864
   17POPC   C1A 3927  12.875  14.413   8.564
   17POPC   D2A 3928  12.835  14.378   8.264
   17POPC   C3A 3929  12.895  14.378   7.964
   17POPC   C4A 3930  12.899  14.359   7.664
   17POPC   C1B 3931  12.801  14.183   8.564
   17POPC   C2B 3932  12.745  14.132   8.264
   17POPC   C3B 3933  12.789  14.125   7.964
   17POPC   C4B 3934  12.798  14.209   7.664
   18POPC   NC3 3935   2.807  40.011   9.464
   18POPC   PO4 3936   2.752  40.051   9.164
   18POPC   GL1 3937   2.771  39.974   8.864
   18POPC   GL2 3938   2.719  40.087   8.864
   18POPC   C1A 3939   2.764  39.995   8.564
   18POPC   D2A 3940   2.726  40.057   8.264
   18POPC   C3A 3941   2.720  39.969   7.964
   18POPC   C4A 3942   2.811  40.050   7.664
   18POPC   C1B 3943   2.768  40.241   8.564
   18POPC   C2B 3944   2.706  40.278   8.264
   18POPC   C3B 3945   2.715  40.266   7.964
   18POPC   C4B 3946   2.737  40.223   7.664
   19POPC   NC3 3947  39.994   2.717   9.464
   19POPC   PO4 3948  39.979   2.777   9.164
   19POPC   GL1 3949  40.018   2.753   8.864
   19POPC   GL2 3950  40.099   2.707   8.864
   19POPC   C1A 3951  39.976   2.776   8.564
   19POPC   D2A 3952  40.023   2.764   8.264
   19POPC   C3A 3953  39.958   2.720   7.964
   19POPC   C4A 3954  40.046   2.768   7.664
   19POPC   C1B 3955  40.215   2.685   8.564
   19POPC   C2B 3956  40.263   2.741   8.264
   19POPC   C3B 3957  40.274   2.772   7.964
   19POPC   C4B 3958  40.223   2.752   7.664
   20POPC   NC3 3959  23.716  22.966   9.464
   20POPC   PO4 3960  23.680  22.949   9.164
   20POPC   GL1 3961  23.724  22.911   8.864
   20POPC   GL2 3962  23.782  22.848   8.864
   20POPC   C1A 3963  23.737  22.925   8.564
   20POPC   D2A 3964  23.733  22.893   8.264
   20POPC   C3A 3965  23.670  22.899   7.964
   20POPC   C4A 3966  23.759  22.972   7.664
   20POPC   C1B 3967  23.863  22.683   8.564
   20POPC   C2B 3968  23.868  22.770   8.264
   20POPC   C3B 3969  23.864  22.691   7.964
   20POPC   C4B 3970  23.813  22.730   7.664
   21POPC   NC3 3971  26.867  39.262   9.464
   21POPC   PO4 3972  26.771  39.186   9.164
   21POPC   GL1 3973  26.849  39.230   8.864
   21POPC   GL2 3974  26.735  39.279   8.864
   21POPC   C1A 3975  26.863  39.208   8.564
   21POPC   D2A 3976  26.826  39.219   8.264
   21POPC   C3A 3977  26.786  39.205   7.964
   21POPC   C4A 3978  26.865  39.194   7.664
   21POPC   C1B 3979  26.665  39.374   8.564
   21POPC   C2B 3980  26.653  39.350   8.264
   21POPC   C3B 3981  26.666  39.352   7.964
   21POPC   C4B 3982  26.648  39.382   7.664
   22POPC   NC3 3983   1.258   2.756   9.464
   22POPC   PO4 3984   1.217   2.728   9.164
   22POPC   GL1 3985   1.167   2.718   8.864
   22POPC   GL2 3986   1.288   2.674   8.864
   22POPC   C1A 3987   1.219   2.793   8.564
   22POPC   D2A 3988   1.261   2.758   8.264
   22POPC   C3A 3989   1.199   2.799   7.964
   22POPC   C4A 3990   1.188   2.783   7.664
   22POPC   C1B 3991   1.412   2.611   8.564
   22POPC   C2B 3992   1.479   2.604   8.264
   22POPC   C3B 3993   1.474   2.665   7.964
   22POPC   C4B 3994   1.438   2.681   7.664
   23POPC   NC3 3995   7.455  16.765   9.464
   23POPC   PO4 3996   7.440  16.734   9.164
   23POPC   GL1 3997   7.401  16.713   8.864
   23POPC   GL2 3998   7.496  16.818   8.864
   23POPC   C1A 3999   7.469  16.712   8.564
   23POPC   D2A 4000   7.468  16.682   8.264
   23POPC   C3A 4001   7.413  16.768   7.964
   23POPC   C4A 4002   7.463  16.729   7.664
   23POPC   C1B 4003   7.615  16.806   8.564
   23POPC   C2B 4004   7.609  16.808   8.264
   23POPC   C3B 4005   7.635  16.799   7.964
   23POPC   C4B 4006   7.692  16.792   7.664
   24POPC   NC3 4007  32.232   4.346   9.464
   24POPC   PO4 4008  32.199   4.277   9.164
   24POPC   GL1 4009  32.249   4.289   8.864
   24POPC   GL2 4010  32.301   4.481   8.864
   24POPC   C1A 4011  32.205   4.314   8.564
   24POPC   D2A 4012  32.269   4.338   8.264
   24POPC   C3A 4013  32.210   4.346   7.964
   24POPC   C4A 4014  32.246   4.295   7.664
   24POPC   C1B 4015  32.294   4.596   8.564
   24POPC   C2B 4016  32.344   4.571   8.264
   24POPC   C3B 4017  32.322   4.581   7.964
   24POPC   C4B 4018  32.294   4.533   7.664
   25POPC   NC3 4019   5.090   9.787   9.464
   25POPC   PO4 4020   5.093   9.704   9.164
   25POPC   GL1 4021   5.091   9.721   8.864
   25POPC   GL2 4022   5.216   9.638   8.864
   25POPC   C1A 4023   5.122   9.709   8.564
   25POPC   D2A 4024   5.077   9.718   8.264
   25POPC   C3A 4025   5.076   9.728   7.964
   25POPC   C4A 4026   5.129   9.732   7.664
   25POPC   C1B 4027   5.273   9.582   8.564
   25POPC   C2B 4028   5.252   9.605   8.264
   25POPC   C3B 4029   5.239   9.610   7.964
   25POPC   C4B 4030   5.297   9.568   7.664
   26POPC   NC3 4031  26.843  17.507   9.464
   26POPC   PO4 4032  26.816  17.537   9.164
   26POPC   GL1 4033  26.853  17.545   8.864
   26POPC   GL2 4034  26.885  17.449   8.864
   26POPC   C1A 4035  26.830  17.480   8.564
   26POPC   D2A 4036  26.783  17.547   8.264
   26POPC   C3A 4037  26.770  17.470   7.964
   26POPC   C4A 4038  26.848  17.480   7.664
   26POPC   C1B 4039  27.041  17.306   8.564
   26POPC   C2B 4040  26.996  17.349   8.264
   26POPC   C3B 4041  27.007  17.329   7.964
   26POPC   C4B 4042  26.993  17.285   7.664
   27POPC   NC3 4043  11.346  35.371   9.464
   27POPC   PO4 4044  11.325  35.310   9.164
   27POPC   GL1 4045  11.302  35.380   8.864
   27POPC   GL2 4046  11.343  35.296   8.864
   27POPC   C1A 4047  11.285  35.325   8.564
   27POPC   D2A 4048  11.314  35.391   8.264
   27POPC   C3A 4049  11.344  35.304   7.964
   27POPC   C4A 4050  11.307  35.313   7.664
   27POPC   C1B 4051  11.456  35.192   8.564
   27POPC   C2B 4052  11.435  35.123   8.264
   27POPC   C3B 4053  11.456  35.117   7.964
   27POPC   C4B 4054  11.469  35.183   7.664
   28POPC   NC3 4055  34.533  24.504   9.464
   28POPC   PO4 4056  34.601  24.460   9.164
   28POPC   GL1 4057  34.569  24.462   8.864
   28POPC   GL2 4058  34.648  24.592   8.864
   28POPC   C1A 4059  34.563  24.502   8.564
   28POPC   D2A 4060  34.610  24.449   8.264
   28POPC   C3A 4061  34.561  24.488   7.964
   28POPC   C4A 4062  34.604  24.483   7.664
   28POPC   C1B 4063  34.803  24.664   8.564
   28POPC   C2B 4064  34.739  24.638   8.264
   28POPC   C3B 4065  34.742  24.676   7.964
   28POPC   C4B 4066  34.772  24.610   7.664
   29POPC   NC3 4067  33.037  19.040   9.464
   29POPC   PO4 4068  33.015  19.090   9.164
   29POPC   GL1 4069  32.992  19.088   8.864
   29POPC   GL2 4070  32.935  19.081   8.864
   29POPC   C1A 4071  33.014  19.067   8.564
   29POPC   D2A 4072  33.043  19.023   8.264
   29POPC   C3A 4073  33.044  19.057   7.964
   29POPC   C4A 4074  33.061  19.020   7.664
   29POPC   C1B 4075  32.765  19.106   8.564
   29POPC   C2B 4076  32.793  19.120   8.264
   29POPC   C3B 4077  32.780  19.071   7.964
   29POPC   C4B 4078  32.819  19.060   7.664
   30POPC   NC3 4079  39.232   9.763   9.464
   30POPC   PO4 4080  39.236   9.758   9.164
   30POPC   GL1 4081  39.205   9.780   8.864
   30POPC   GL2 4082  39.293   9.878   8.864
   30POPC   C1A 4083  39.242   9.795   8.564
   30POPC   D2A 4084  39.195   9.740   8.264
   30POPC   C3A 4085  39.280   9.699   7.964
   30POPC   C4A 4086  39.272   9.732   7.664
   30POPC   C1B 4087  39.239   9.995   8.564
   30POPC   C2B 4088  39.296   9.999   8.264
   30POPC   C3B 4089  39.246   9.983   7.964
   30POPC   C4B 4090  39.308   9.988   7.664
   31POPC   NC3 4091  28.354  39.237   9.464
   31POPC   PO4 4092  28.373  39.223   9.164
   31POPC   GL1 4093  28.366  39.213   8.864
   31POPC   GL2 4094  28.288  39.308   8.864
   31POPC   C1A 4095  28.357  39.241   8.564
   31POPC   D2A 4096  28.393  39.231   8.264
   31POPC   C3A 4097  28.405  39.253   7.964
   31POPC   C4A 4098  28.320  39.257   7.664
   31POPC   C1B 4099  28.135  39.334   8.564
   31POPC   C2B 4100  28.176  39.395   8.264
   31POPC   C3B 4101  28.112  39.365   7.964
   31POPC   C4B 4102  28.128  39.340   7.664
   32POPC   NC3 4103  19.873  20.612   9.464
   32POPC   PO4 4104  19.785  20.580   9.164
   32POPC   GL1 4105  19.879  20.564   8.864
   32POPC   GL2 4106  19.972  20.519   8.864
   32POPC   C1A 4107  19.811  20.584   8.564
   32POPC   D2A 4108  19.864  20.581   8.264
   32POPC   C3A 4109  19.816  20.568   7.964
   32POPC   C4A 4110  19.798  20.632   7.664
   32POPC   C1B 4111  20.010  20.465   8.564
   32POPC   C2B 4112  20.052  20.460   8.264
   32POPC   C3B 4113  20.004  20.454   7.964
   32POPC   C4B 4114  20.011  20.481   7.664
   33POPC   NC3 4115  30.697   4.346   9.464
   33POPC   PO4 4116  30.740   4.311   9.164
   33POPC   GL1 4117  30.712   4.328   8.864
   33POPC   GL2 4118  30.595   4.348   8.864
   33POPC   C1A 4119  30.653   4.310   8.564
   33POPC   D2A 4120  30.664   4.268   8.264
   33POPC   C3A 4121  30.655   4.298   7.964
   33POPC   C4A 4122  30.718   4.288   7.664
   33POPC   C1B 4123  30.478   4.303   8.564
   33POPC   C2B 4124  30.438   4.318   8.264
   33POPC   C3B 4125  30.405   4.299   7.964
   33POPC   C4B 4126  30.446   4.286   7.664
   34POPC   NC3 4127  38.420  29.178   9.464
   34POPC   PO4 4128  38.500  29.096   9.164
   34POPC   GL1 4129  38.405  29.145   8.864
   34POPC   GL2 4130  38.518  29.225   8.864
   34POPC   C1A 4131  38.408  29.151   8.564
   34POPC   D2A 4132  38.428  29.185   8.264
   34POPC   C3A 4133  38.504  29.109   7.964
   34POPC   C4A 4134  38.432  29.155   7.664
   34POPC   C1B 4135  38.516  29.367   8.564
   34POPC   C2B 4136  38.544  29.350   8.264
   34POPC   C3B 4137  38.557  29.411   7.964
   34POPC   C4B 4138  38.593  29.370   7.664
   35POPC   NC3 4139  29.925  13.653   9.464
   35POPC   PO4 4140  29.891  13.584   9.164
   35POPC   GL1 4141  29.897  13.667   8.864
   35POPC   GL2 4142  29.886  13.491   8.864
   35POPC   C1A 4143  29.906  13.655   8.564
   35POPC   D2A 4144  29.883  13.623   8.264
   35POPC   C3A 4145  29.965  13.604   7.964
   35POPC   C4A 4146  29.924  13.668   7.664
   35POPC   C1B 4147  29.755  13.393   8.564
   35POPC   C2B 4148  29.803  13.410   8.264
   35POPC   C3B 4149  29.785  13.373   7.964
   35POPC   C4B 4150  29.796  13.461   7.664
   36POPC   NC3 4151  24.445  15.977   9.464
   36POPC   PO4 4152  24.533  15.978   9.164
   36POPC   GL1 4153  24.469  16.001   8.864
   36POPC   GL2 4154  24.423  16.107   8.864
   36POPC   C1A 4155  24.536  16.001   8.564
   36POPC   D2A 4156  24.446  15.966   8.264
   36POPC   C3A 4157  24.526  15.981   7.964
   36POPC   C4A 4158  24.522  15.946   7.664
   36POPC   C1B 4159  24.358  16.183   8.564
   36POPC   C2B 4160  24.339  16.183   8.264
   36POPC   C3B 4161  24.396  16.175   7.964
   36POPC   C4B 4162  24.367  16.221   7.664
   37POPC   NC3 4163  22.197  33.062   9.464
   37POPC   PO4 4164  22.127  32.980   9.164
   37POPC   GL1 4165  22.195  33.001   8.864
   37POPC   GL2 4166  22.002  32.991   8.864
   37POPC   C1A 4167  22.147  32.995   8.564
   37POPC   D2A 4168  22.144  33.023   8.264
   37POPC   C3A 4169  22.212  33.028   7.964
   37POPC   C4A 4170  22.212  32.996   7.664
   37POPC   C1B 4171  21.930  32.894   8.564
   37POPC   C2B 4172  21.910  32.896   8.264
   37POPC   C3B 4173  21.939  32.878   7.964
   37POPC   C4B 4174  21.917  32.949   7.664
   38POPC   NC3 4175   9.723  43.123   9.464
   38POPC   PO4 4176   9.767  43.079   9.164
   38POPC   GL1 4177   9.735  43.130   8.864
   38POPC   GL2 4178   9.909  43.037   8.864
   38POPC   C1A 4179   9.784  43.129   8.564
   38POPC   D2A 4180   9.730  43.099   8.264
   38POPC   C3A 4181   9.745  43.157   7.964
   38POPC   C4A 4182   9.741  43.097   7.664
   38POPC   C1B 4183  10.012  43.056   8.564
   38POPC   C2B 4184   9.986  43.039   8.264
   38POPC   C3B 4185  10.003  42.999   7.964
   38POPC   C4B 4186  10.018  43.033   7.664
   39POPC   NC3 4187  44.634  43.071   9.464
   39POPC   PO4 4188  44.679  43.133   9.164
   39POPC   GL1 4189  44.697  43.089   8.864
   39POPC   GL2 4190  44.804  43.076   8.864
   39POPC   C1A 4191  44.694  43.065   8.564
   39POPC   D2A 4192  44.616  43.088   8.264
   39POPC   C3A 4193  44.700  43.126   7.964
   39POPC   C4A 4194  44.689  43.096   7.664
   39POPC   C1B 4195  44.857  43.020   8.564
   39POPC   C2B 4196  44.910  42.997   8.264
   39POPC   C3B 4197  44.926  43.009   7.964
   39POPC   C4B 4198  44.860  43.042   7.664
   40POPC   NC3 4199  37.697  40.793   9.464
   40POPC   PO4 4200  37.667  40.831   9.164
   40POPC   GL1 4201  37.708  40.779   8.864
   40POPC   GL2 4202  37.847  40.841   8.864
   40POPC   C1A 4203  37.635  40.817   8.564
   40POPC   D2A 4204  37.643  40.815   8.264
   40POPC   C3A 4205  37.721  40.816   7.964
   40POPC   C4A 4206  37.638  40.739   7.664
   40POPC   C1B 4207  37.965  40.889   8.564
   40POPC   C2B 4208  37.888  40.886   8.264
   40POPC   C3B 4209  37.917  40.805   7.964
   40POPC   C4B 4210  37.959  40.855   7.664
   41POPC   NC3 4211  15.220  40.011   9.464
   41POPC   PO4 4212  15.152  40.056   9.164
   41POPC   GL1 4213  15.188  40.002   8.864
   41POPC   GL2 4214  15.078  40.077   8.864
   41POPC   C1A 4215  15.133  40.002   8.564
   41POPC   D2A 4216  15.182  40.027   8.264
   41POPC   C3A 4217  15.162  40.019   7.964
   41POPC   C4A 4218  15.131  39.983   7.664
   41POPC   C1B 4219  15.035  40.176   8.564
   41POPC   C2B 4220  14.985  40.175   8.264
   41POPC   C3B 4221  15.017  40.205   7.964
   41POPC   C4B 4222  15.014  40.174   7.664
   42POPC   NC3 4223   3.504   2.015   9.464
   42POPC   PO4 4224   3.521   1.989   9.164
   42POPC   GL1 4225   3.571   1.991   8.864
   42POPC   GL2 4226   3.574   2.073   8.864
   42POPC   C1A 4227   3.562   1.996   8.564
   42POPC   D2A 4228   3.547   1.994   8.264
   42POPC   C3A 4229   3.546   1.981   7.964
   42POPC   C4A 4230   3.582   1.983   7.664
   42POPC   C1B 4231   3.545   2.219   8.564
   42POPC   C2B 4232   3.600   2.194   8.264
   42POPC   C3B 4233   3.593   2.205   7.964
   42POPC   C4B 4234   3.584   2.194   7.664
   43POPC   NC3 4235  35.332  39.251   9.464
   43POPC   PO4 4236  35.400  39.203   9.164
   43POPC   GL1 4237  35.315  39.216   8.864
   43POPC   GL2 4238  35.496  39.248   8.864
   43POPC   C1A 4239  35.350  39.223   8.564
   43POPC   D2A 4240  35.366  39.202   8.264
   43POPC   C3A 4241  35.342  39.231   7.964
   43POPC   C4A 4242  35.353  39.228   7.664
   43POPC   C1B 4243  35.565  39.196   8.564
   43POPC   C2B 4244  35.550  39.157   8.264
   43POPC   C3B 4245  35.633  39.178   7.964
   43POPC   C4B 4246  35.610  39.242   7.664
   44POPC   NC3 4247  34.586  18.331   9.464
   44POPC   PO4 4248  34.626  18.311   9.164
   44POPC   GL1 4249  34.562  18.308   8.864
   44POPC   GL2 4250  34.697  18.271   8.864
   44POPC   C1A 4251  34.572  18.234   8.564
   44POPC   D2A 4252  34.600  18.235   8.264
   44POPC   C3A 4253  34.551  18.237   7.964
   44POPC   C4A 4254  34.561  18.254   7.664
   44POPC   C1B 4255  34.777  18.264   8.564
   44POPC   C2B 4256  34.860  18.293   8.264
   44POPC   C3B 4257  34.803  18.330   7.964
   44POPC   C4B 4258  34.798  18.336   7.664
   45POPC   NC3 4259  39.272  12.107   9.464
   45POPC   PO4 4260  39.224  12.112   9.164
   45POPC   GL1 4261  39.211  12.114   8.864
   45POPC   GL2 4262  39.341  11.958   8.864
   45POPC   C1A 4263  39.246  12.031   8.564
   45POPC   D2A 4264  39.254  12.080   8.264
   45POPC   C3A 4265  39.184  12.112   7.964
   45POPC   C4A 4266  39.274  12.080   7.664
   45POPC   C1B 4267  39.432  11.902   8.564
   45POPC   C2B 4268  39.446  11.902   8.264
   45POPC   C3B 4269  39.477  11.896   7.964
   45POPC   C4B 4270  39.401  11.917   7.664
   46POPC   NC3 4271  33.007  11.259   9.464
   46POPC   PO4 4272  33.024  11.291   9.164
   46POPC   GL1 4273  32.989  11.268   8.864
   46POPC   GL2 4274  33.049  11.193   8.864
   46POPC   C1A 4275  33.011  11.288   8.564
   46POPC   D2A 4276  33.071  11.288   8.264
   46POPC   C3A 4277  32.991  11.330   7.964
   46POPC   C4A 4278  33.073  11.300   7.664
   46POPC   C1B 4279  33.122  11.070   8.564
   46POPC   C2B 4280  33.060  11.089   8.264
   46POPC   C3B 4281  33.068  11.086   7.964
   46POPC   C4B 4282  33.041  11.024   7.664
   47POPC   NC3 4283  21.427   7.420   9.464
   47POPC   PO4 4284  21.399   7.456   9.164
   47POPC   GL1 4285  21.378   7.470   8.864
   47POPC   GL2 4286  21.488   7.363   8.864
   47POPC   C1A 4287  21.422   7.372   8.564
   47POPC   D2A 4288  21.371   7.388   8.264
   47POPC   C3A 4289  21.370   7.377   7.964
   47POPC   C4A 4290  21.374   7.468   7.664
   47POPC   C1B 4291  21.577   7.216   8.564
   47POPC   C2B 4292  21.580   7.207   8.264
   47POPC   C3B 4293  21.492   7.255   7.964
   47POPC   C4B 4294  21.551   7.232   7.664
   48POPC   NC3 4295  41.579  22.127   9.464
   48POPC   PO4 4296  41.538  22.185   9.164
   48POPC   GL1 4297  41.598  22.162   8.864
   48POPC   GL2 4298  41.482  22.040   8.864
   48POPC   C1A 4299  41.594  22.128   8.564
   48POPC   D2A 4300  41.606  22.124   8.264
   48POPC   C3A 4301  41.563  22.175   7.964
   48POPC   C4A 4302  41.510  22.157   7.664
   48POPC   C1B 4303  41.456  21.925   8.564
   48POPC   C2B 4304  41.461  21.936   8.264
   48POPC   C3B 4305  41.475  21.905   7.964
   48POPC   C4B 4306  41.481  21.939   7.664
   49POPC   NC3 4307  21.414  36.889   9.464
   49POPC   PO4 4308  21.368  36.941   9.164
   49POPC   GL1 4309  21.391  36.947   8.864
   49POPC   GL2 4310  21.309  36.844   8.864
   49POPC   C1A 4311  21.365  36.856   8.564
   49POPC   D2A 4312  21.388  36.908   8.264
   49POPC   C3A 4313  21.354  36.870   7.964
   49POPC   C4A 4314  21.380  36.885   7.664
   49POPC   C1B 4315  21.151  36.783   8.564
   49POPC   C2B 4316  21.185  36.813   8.264
   49POPC   C3B 4317  21.141  36.806   7.964
   49POPC   C4B 4318  21.124  36.765   7.664
   50POPC   NC3 4319  26.085   1.235   9.464
   50POPC   PO4 4320  26.081   1.187   9.164
   50POPC   GL1 4321  26.028   1.250   8.864
   50POPC   GL2 4322  25.962   1.274   8.864
   50POPC   C1A 4323  26.046   1.256   8.564
   50POPC   D2A 4324  25.993   1.257   8.264
   50POPC   C3A 4325  26.075   1.234   7.964
   50POPC   C4A 4326  26.028   1.168   7.664
   50POPC   C1B 4327  25.809   1.292   8.564
   50POPC   C2B 4328  25.807   1.324   8.264
   50POPC   C3B 4329  25.809   1.361   7.964
   50POPC   C4B 4330  25.835   1.375   7.664
   51POPC   NC3 4331  25.234  18.306   9.464
   51POPC   PO4 4332  25.234  18.313   9.164
   51POPC   GL1 4333  25.248  18.276   8.864
   51POPC   GL2 4334  25.140  18.339   8.864
   51POPC   C1A 4335  25.283  18.283   8.564
   51POPC   D2A 4336  25.234  18.249   8.264
   51POPC   C3A 4337  25.283  18.279   7.964
   51POPC   C4A 4338  25.314  18.309   7.664
   51POPC   C1B 4339  25.072  18.394   8.564
   51POPC   C2B 4340  25.039  18.327   8.264
   51POPC   C3B 4341  25.030  18.369   7.964
   51POPC   C4B 4342  25.020  18.334   7.664
   52POPC   NC3 4343   8.971  36.880   9.464
   52POPC   PO4 4344   9.000  36.916   9.164
   52POPC   GL1 4345   9.017  36.944   8.864
   52POPC   GL2 4346   8.953  37.029   8.864
   52POPC   C1A 4347   8.936  36.899   8.564
   52POPC   D2A 4348   8.951  36.863   8.264
   52POPC   C3A 4349   8.970  36.905   7.964
   52POPC   C4A 4350   8.985  36.907   7.664
   52POPC   C1B 4351   8.906  37.134   8.564
   52POPC   C2B 4352   8.874  37.152   8.264
   52POPC   C3B 4353   8.862  37.126   7.964
   52POPC   C4B 4354   8.940  37.155   7.664
   53POPC   NC3 4355  32.229  20.599   9.464
   53POPC   PO4 4356  32.215  20.582   9.164
   53POPC   GL1 4357  32.295  20.577   8.864
   53POPC   GL2 4358  32.323  20.684   8.864
   53POPC   C1A 4359  32.259  20.631   8.564
   53POPC   D2A 4360  32.236  20.571   8.264
   53POPC   C3A 4361  32.247  20.630   7.964
   53POPC   C4A 4362  32.244  20.611   7.664
   53POPC   C1B 4363  32.496  20.744   8.564
   53POPC   C2B 4364  32.459  20.744   8.264
   53POPC   C3B 4365  32.485  20.723   7.964
   53POPC   C4B 4366  32.493  20.666   7.664
   54POPC   NC3 4367   0.445   3.546   9.464
   54POPC   PO4 4368   0.392   3.581   9.164
   54POPC   GL1 4369   0.410   3.531   8.864
   54POPC   GL2 4370   0.440   3.428   8.864
   54POPC   C1A 4371   0.458   3.584   8.564
   54POPC   D2A 4372   0.391   3.561   8.264
   54POPC   C3A 4373   0.405   3.539   7.964
   54POPC   C4A 4374   0.461   3.534   7.664
   54POPC   C1B 4375   0.474   3.341   8.564
   54POPC   C2B 4376   0.424   3.310   8.264
   54POPC   C3B 4377   0.480   3.290   7.964
   54POPC   C4B 4378   0.424   3.288   7.664
   55POPC   NC3 4379  22.172   4.296   9.464
   55POPC   PO4 4380  22.134   4.364   9.164
   55POPC   GL1 4381  22.115   4.362   8.864
   55POPC   GL2 4382  22.012   4.294   8.864
   55POPC   C1A 4383  22.121   4.303   8.564
   55POPC   D2A 4384  22.169   4.302   8.264
   55POPC   C3A 4385  22.125   4.269   7.964
   55POPC   C4A 4386  22.194   4.352   7.664
   55POPC   C1B 4387  21.944   4.372   8.564
   55POPC   C2B 4388  21.911   4.388   8.264
   55POPC   C3B 4389  21.937   4.328   7.964
   55POPC   C4B 4390  21.889   4.330   7.664
   56POPC   NC3 4391   5.891  34.541   9.464
   56POPC   PO4 4392   5.830  34.591   9.164
   56POPC   GL1 4393   5.854  34.558   8.864
   56POPC   GL2 4394   5.718  34.561   8.864
   56POPC   C1A 4395   5.896  34.607   8.564
   56POPC   D2A 4396   5.903  34.553   8.264
   56POPC   C3A 4397   5.869  34.579   7.964
   56POPC   C4A 4398   5.914  34.559   7.664
   56POPC   C1B 4399   5.616  34.579   8.564
   56POPC   C2B 4400   5.651  34.647   8.264
   56POPC   C3B 4401   5.593  34.611   7.964
   56POPC   C4B 4402   5.579  34.583   7.664
   57POPC   NC3 4403   1.211  15.943   9.464
   57POPC   PO4 4404   1.181  15.905   9.164
   57POPC   GL1 4405   1.166  15.925   8.864
   57POPC   GL2 4406   1.333  15.880   8.864
   57POPC   C1A 4407   1.256  15.931   8.564
   57POPC   D2A 4408   1.242  15.906   8.264
   57POPC   C3A 4409   1.231  15.975   7.964
   57POPC   C4A 4410   1.177  15.951   7.664
   57POPC   C1B 4411   1.391  15.841   8.564
   57POPC   C2B 4412   1.439  15.838   8.264
   57POPC   C3B 4413   1.389  15.831   7.964
   57POPC   C4B 4414   1.374  15.803   7.664
   58POPC   NC3 4415  40.752  19.882   9.464
   58POPC   PO4 4416  40.749  19.806   9.164
   58POPC   GL1 4417  40.744  19.801   8.864
   58POPC   GL2 4418  40.704  19.925   8.864
   58POPC   C1A 4419  40.808  19.799   8.564
   58POPC   D2A 4420  40.808  19.807   8.264
   58POPC   C3A 4421  40.761  19.787   7.964
   58POPC   C4A 4422  40.741  19.884   7.664
   58POPC   C1B 4423  40.751  20.073   8.564
   58POPC   C2B 4424  40.746  20.097   8.264
   58POPC   C3B 4425  40.743  20.030   7.964
   58POPC   C4B 4426  40.679  20.123   7.664
   59POPC   NC3 4427  41.593  29.945   9.464
   59POPC   PO4 4428  41.606  29.952   9.164
   59POPC   GL1 4429  41.591  29.913   8.864
   59POPC   GL2 4430  41.729  29.912   8.864
   59POPC   C1A 4431  41.582  29.877   8.564
   59POPC   D2A 4432  41.589  29.919   8.264
   59POPC   C3A 4433  41.591  29.948   7.964
   59POPC   C4A 4434  41.563  29.897   7.664
   59POPC   C1B 4435  41.768  29.900   8.564
   59POPC   C2B 4436  41.857  29.926   8.264
   59POPC   C3B 4437  41.810  29.919   7.964
   59POPC   C4B 4438  41.822  29.983   7.664
   60POPC   NC3 4439  26.042  35.369   9.464
   60POPC   PO4 4440  26.017  35.305   9.164
   60POPC   GL1 4441  26.071  35.375   8.864
   60POPC   GL2 4442  25.965  35.424   8.864
   60POPC   C1A 4443  26.085  35.336   8.564
   60POPC   D2A 4444  26.046  35.303   8.264
   60POPC   C3A 4445  26.041  35.314   7.964
   60POPC   C4A 4446  26.085  35.323   7.664
   60POPC   C1B 4447  25.870  35.575   8.564
   60POPC   C2B 4448  25.912  35.523   8.264
   60POPC   C3B 4449  25.903  35.577   7.964
   60POPC   C4B 4450  25.886  35.585   7.664
   61POPC   NC3 4451  14.353  40.750   9.464
   61POPC   PO4 4452  14.401  40.743   9.164
   61POPC   GL1 4453  14.393  40.826   8.864
   61POPC   GL2 4454  14.358  40.887   8.864
   61POPC   C1A 4455  14.374  40.833   8.564
   61POPC   D2A 4456  14.408  40.784   8.264
   61POPC   C3A 4457  14.407  40.735   7.964
   61POPC   C4A 4458  14.391  40.765   7.664
   61POPC   C1B 4459  14.388  41.014   8.564
   61POPC   C2B 4460  14.331  40.986   8.264
   61POPC   C3B 4461  14.400  40.988   7.964
   61POPC   C4B 4462  14.389  40.992   7.664
   62POPC   NC3 4463  36.920   1.231   9.464
   62POPC   PO4 4464  36.891   1.237   9.164
   62POPC   GL1 4465  36.939   1.195   8.864
   62POPC   GL2 4466  36.784   1.087   8.864
   62POPC   C1A 4467  36.867   1.244   8.564
   62POPC   D2A 4468  36.953   1.171   8.264
   62POPC   C3A 4469  36.894   1.168   7.964
   62POPC   C4A 4470  36.888   1.231   7.664
   62POPC   C1B 4471  36.667   1.060   8.564
   62POPC   C2B 4472  36.695   1.008   8.264
   62POPC   C3B 4473  36.735   1.032   7.964
   62POPC   C4B 4474  36.758   1.040   7.664
   63POPC   NC3 4475  22.972  33.842   9.464
   63POPC   PO4 4476  22.940  33.840   9.164
   63POPC   GL1 4477  22.975  33.792   8.864
   63POPC   GL2 4478  22.835  33.850   8.864
   63POPC   C1A 4479  22.947  33.841   8.564
   63POPC   D2A 4480  22.966  33.829   8.264
   63POPC   C3A 4481  22.970  33.827   7.964
   63POPC   C4A 4482  22.962  33.845   7.664
   63POPC   C1B 4483  22.703  33.979   8.564
   63POPC   C2B 4484  22.774  33.924   8.264
   63POPC   C3B 4485  22.728  33.987   7.964
   63POPC   C4B 4486  22.716  33.906   7.664
   64POPC   NC3 4487   6.608   6.695   9.464
   64POPC   PO4 4488   6.655   6.682   9.164
   64POPC   GL1 4489   6.658   6.670   8.864
   64POPC   GL2 4490   6.539   6.746   8.864
   64POPC   C1A 4491   6.645   6.647   8.564
   64POPC   D2A 4492   6.654   6.644   8.264
   64POPC   C3A 4493   6.671   6.642   7.964
   64POPC   C4A 4494   6.612   6.676   7.664
   64POPC   C1B 4495   6.475   6.812   8.564
   64POPC   C2B 4496   6.552   6.809   8.264
   64POPC   C3B 4497   6.529   6.886   7.964
   64POPC   C4B 4498   6.527   6.840   7.664
   65POPC   NC3 4499  38.440   1.940   9.464
   65POPC   PO4 4500  38.458   1.940   9.164
   65POPC   GL1 4501  38.422   1.987   8.864
   65POPC   GL2 4502  38.367   2.004   8.864
   65POPC   C1A 4503  38.405   1.988   8.564
   65POPC   D2A 4504  38.454   1.999   8.264
   65POPC   C3A 4505  38.442   2.008   7.964
   65POPC   C4A 4506  38.444   1.948   7.664
   65POPC   C1B 4507  38.223   1.945   8.564
   65POPC   C2B 4508  38.196   1.942   8.264
   65POPC   C3B 4509  38.181   1.995   7.964
   65POPC   C4B 4510  38.194   1.950   7.664
   66POPC   NC3 4511  32.977  27.557   9.464
   66POPC   PO4 4512  33.029  27.548   9.164
   66POPC   GL1 4513  32.990  27.631   8.864
   66POPC   GL2 4514  33.182  27.538   8.864
   66POPC   C1A 4515  33.044  27.566   8.564
   66POPC   D2A 4516  33.009  27.559   8.264
   66POPC   C3A 4517  33.015  27.616   7.964
   66POPC   C4A 4518  33.068  27.634   7.664
   66POPC   C1B 4519  33.303  27.543   8.564
   66POPC   C2B 4520  33.273  27.560   8.264
   66POPC   C3B 4521  33.309  27.549   7.964
   66POPC   C4B 4522  33.252  27.575   7.664
   67POPC   NC3 4523  15.961  23.718   9.464
   67POPC   PO4 4524  15.940  23.735   9.164
   67POPC   GL1 4525  15.978  23.698   8.864
   67POPC   GL2 4526  15.835  23.747   8.864
   67POPC   C1A 4527  16.001  23.751   8.564
   67POPC   D2A 4528  15.931  23.672   8.264
   67POPC   C3A 4529  15.927  23.709   7.964
   67POPC   C4A 4530  15.979  23.756   7.664
   67POPC   C1B 4531  15.709  23.767   8.564
   67POPC   C2B 4532  15.749  23.771   8.264
   67POPC   C3B 4533  15.718  23.783   7.964
   67POPC   C4B 4534  15.709  23.730   7.664
   68POPC   NC3 4535  31.485  26.079   9.464
   68POPC   PO4 4536  31.468  26.027   9.164
   68POPC   GL1 4537  31.509  26.035   8.864
   68POPC   GL2 4538  31.363  25.952   8.864
   68POPC   C1A 4539  31.492  26.082   8.564
   68POPC   D2A 4540  31.472  26.049   8.264
   68POPC   C3A 4541  31.430  26.090   7.964
   68POPC   C4A 4542  31.434  26.007   7.664
   68POPC   C1B 4543  31.304  25.826   8.564
   68POPC   C2B 4544  31.256  25.827   8.264
   68POPC   C3B 4545  31.262  25.838   7.964
   68POPC   C4B 4546  31.285  25.882   7.664
   69POPC   NC3 4547  19.020  16.767   9.464
   69POPC   PO4 4548  19.038  16.691   9.164
   69POPC   GL1 4549  19.071  16.714   8.864
   69POPC   GL2 4550  19.168  16.614   8.864
   69POPC   C1A 4551  19.066  16.735   8.564
   69POPC   D2A 4552  19.053  16.684   8.264
   69POPC   C3A 4553  19.095  16.732   7.964
   69POPC   C4A 4554  19.080  16.748   7.664
   69POPC   C1B 4555  19.248  16.568   8.564
   69POPC   C2B 4556  19.297  16.587   8.264
   69POPC   C3B 4557  19.286  16.606   7.964
   69POPC   C4B 4558  19.257  16.529   7.664
   70POPC   NC3 4559   1.952   7.402   9.464
   70POPC   PO4 4560   2.037   7.415   9.164
   70POPC   GL1 4561   1.963   7.430   8.864
   70POPC   GL2 4562   1.874   7.333   8.864
   70POPC   C1A 4563   2.007   7.427   8.564
   70POPC   D2A 4564   1.983   7.430   8.264
   70POPC   C3A 4565   1.968   7.396   7.964
   70POPC   C4A 4566   1.989   7.433   7.664
   70POPC   C1B 4567   1.761   7.216   8.564
   70POPC   C2B 4568   1.749   7.295   8.264
   70POPC   C3B 4569   1.752   7.292   7.964
   70POPC   C4B 4570   1.765   7.216   7.664
   71POPC   NC3 4571  35.303  16.716   9.464
   71POPC   PO4 4572  35.393  16.705   9.164
   71POPC   GL1 4573  35.323  16.712   8.864
   71POPC   GL2 4574  35.233  16.779   8.864
   71POPC   C1A 4575  35.347  16.730   8.564
   71POPC   D2A 4576  35.326  16.712   8.264
   71POPC   C3A 4577  35.305  16.706   7.964
   71POPC   C4A 4578  35.398  16.722   7.664
   71POPC   C1B 4579  35.124  16.764   8.564
   71POPC   C2B 4580  35.131  16.851   8.264
   71POPC   C3B 4581  35.132  16.847   7.964
   71POPC   C4B 4582  35.084  16.832   7.664
   72POPC   NC3 4583  37.647  42.308   9.464
   72POPC   PO4 4584  37.657  42.340   9.164
   72POPC   GL1 4585  37.661  42.296   8.864
   72POPC   GL2 4586  37.806  42.340   8.864
   72POPC   C1A 4587  37.630  42.366   8.564
   72POPC   D2A 4588  37.644  42.316   8.264
   72POPC   C3A 4589  37.685  42.314   7.964
   72POPC   C4A 4590  37.650  42.302   7.664
   72POPC   C1B 4591  37.965  42.253   8.564
   72POPC   C2B 4592  37.901  42.300   8.264
   72POPC   C3B 4593  37.891  42.274   7.964
   72POPC   C4B 4594  37.907  42.296   7.664
   73POPC   NC3 4595   8.160  41.532   9.464
   73POPC   PO4 4596   8.225  41.602   9.164
   73POPC   GL1 4597   8.183  41.598   8.864
   73POPC   GL2 4598   8.272  41.629   8.864
   73POPC   C1A 4599   8.188  41.544   8.564
   73POPC   D2A 4600   8.162  41.551   8.264
   73POPC   C3A 4601   8.158  41.555   7.964
   73POPC   C4A 4602   8.240  41.520   7.664
   73POPC   C1B 4603   8.403  41.637   8.564
   73POPC   C2B 4604   8.403  41.674   8.264
   73POPC   C3B 4605   8.390  41.651   7.964
   73POPC   C4B 4606   8.392  41.680   7.664
   74POPC   NC3 4607  14.372  22.919   9.464
   74POPC   PO4 4608  14.426  22.976   9.164
   74POPC   GL1 4609  14.387  22.952   8.864
   74POPC   GL2 4610  14.311  22.904   8.864
   74POPC   C1A 4611  14.374  22.943   8.564
   74POPC   D2A 4612  14.359  22.931   8.264
   74POPC   C3A 4613  14.440  22.919   7.964
   74POPC   C4A 4614  14.374  22.924   7.664
   74POPC   C1B 4615  14.188  22.829   8.564
   74POPC   C2B 4616  14.155  22.843   8.264
   74POPC   C3B 4617  14.138  22.832   7.964
   74POPC   C4B 4618  14.217  22.867   7.664
   75POPC   NC3 4619  29.913  39.199   9.464
   75POPC   PO4 4620  29.918  39.231   9.164
   75POPC   GL1 4621  29.917  39.249   8.864
   75POPC   GL2 4622  29.956  39.303   8.864
   75POPC   C1A 4623  29.942  39.263   8.564
   75POPC   D2A 4624  29.962  39.275   8.264
   75POPC   C3A 4625  29.886  39.248   7.964
   75POPC   C4A 4626  29.968  39.196   7.664
   75POPC   C1B 4627  30.080  39.425   8.564
   75POPC   C2B 4628  30.045  39.432   8.264
   75POPC   C3B 4629  30.067  39.498   7.964
   75POPC   C4B 4630  30.070  39.443   7.664
   76POPC   NC3 4631  35.364  10.562   9.464
   76POPC   PO4 4632  35.379  10.512   9.164
   76POPC   GL1 4633  35.383  10.493   8.864
   76POPC   GL2 4634  35.400  10.432   8.864
   76POPC   C1A 4635  35.344  10.496   8.564
   76POPC   D2A 4636  35.305  10.542   8.264
   76POPC   C3A 4637  35.366  10.550   7.964
   76POPC   C4A 4638  35.337  10.491   7.664
   76POPC   C1B 4639  35.504  10.285   8.564
   76POPC   C2B 4640  35.510  10.266   8.264
   76POPC   C3B 4641  35.456  10.254   7.964
   76POPC   C4B 4642  35.430  10.255   7.664
   77POPC   NC3 4643  41.598   8.954   9.464
   77POPC   PO4 4644  41.509   8.993   9.164
   77POPC   GL1 4645  41.592   8.926   8.864
   77POPC   GL2 4646  41.436   9.051   8.864
   77POPC   C1A 4647  41.510   8.984   8.564
   77POPC   D2A 4648  41.604   8.937   8.264
   77POPC   C3A 4649  41.536   8.937   7.964
   77POPC   C4A 4650  41.520   8.949   7.664
   77POPC   C1B 4651  41.356   9.095   8.564
   77POPC   C2B 4652  41.343   9.084   8.264
   77POPC   C3B 4653  41.319   9.107   7.964
   77POPC   C4B 4654  41.300   9.071   7.664
   78POPC   NC3 4655  31.503  38.459   9.464
   78POPC   PO4 4656  31.500  38.449   9.164
   78POPC   GL1 4657  31.503  38.483   8.864
   78POPC   GL2 4658  31.420  38.538   8.864
   78POPC   C1A 4659  31.454  38.433   8.564
   78POPC   D2A 4660  31.499  38.444   8.264
   78POPC   C3A 4661  31.425  38.477   7.964
   78POPC   C4A 4662  31.489  38.489   7.664
   78POPC   C1B 4663  31.402  38.689   8.564
   78POPC   C2B 4664  31.361  38.744   8.264
   78POPC   C3B 4665  31.379  38.727   7.964
   78POPC   C4B 4666  31.372  38.711   7.664
   79POPC   NC3 4667  29.113  25.255   9.464
   79POPC   PO4 4668  29.152  25.292   9.164
   79POPC   GL1 4669  29.156  25.231   8.864
   79POPC   GL2 4670  29.111  25.180   8.864
   79POPC   C1A 4671  29.123  25.313   8.564
   79POPC   D2A 4672  29.169  25.270   8.264
   79POPC   C3A 4673  29.100  25.234   7.964
   79POPC   C4A 4674  29.129  25.294   7.664
   79POPC   C1B 4675  29.035  25.058   8.564
   79POPC   C2B 4676  29.001  25.048   8.264
   79POPC   C3B 4677  29.003  25.019   7.964
   79POPC   C4B 4678  29.043  25.032   7.664
   80POPC   NC3 4679   8.236  21.401   9.464
   80POPC   PO4 4680   8.159  21.388   9.164
   80POPC   GL1 4681   8.217  21.354   8.864
   80POPC   GL2 4682   8.110  21.488   8.864
   80POPC   C1A 4683   8.212  21.369   8.564
   80POPC   D2A 4684   8.221  21.364   8.264
   80POPC   C3A 4685   8.185  21.340   7.964
   80POPC   C4A 4686   8.246  21.389   7.664
   80POPC   C1B 4687   8.000  21.499   8.564
   80POPC   C2B 4688   8.020  21.532   8.264
   80POPC   C3B 4689   7.981  21.533   7.964
   80POPC   C4B 4690   7.978  21.498   7.664
   81POPC   NC3 4691   5.120  43.902   9.464
   81POPC   PO4 4692   5.065  43.873   9.164
   81POPC   GL1 4693   5.084  43.870   8.864
   81POPC   GL2 4694   5.006  43.825   8.864
   81POPC   C1A 4695   5.131  43.913   8.564
   81POPC   D2A 4696   5.143  43.930   8.264
   81POPC   C3A 4697   5.072  43.844   7.964
   81POPC   C4A 4698   5.089  43.901   7.664
   81POPC   C1B 4699   4.942  43.726   8.564
   81POPC   C2B 4700   4.937  43.657   8.264
   81POPC   C3B 4701   4.877  43.673   7.964
   81POPC   C4B 4702   4.962  43.678   7.664
   82POPC   NC3 4703  17.504   0.484   9.464
   82POPC   PO4 4704  17.535   0.417   9.164
   82POPC   GL1 4705  17.534   0.471   8.864
   82POPC   GL2 4706  17.407   0.398   8.864
   82POPC   C1A 4707  17.522   0.449   8.564
   82POPC   D2A 4708  17.505   0.420   8.264
   82POPC   C3A 4709  17.514   0.399   7.964
   82POPC   C4A 4710  17.463   0.436   7.664
   82POPC   C1B 4711  17.328   0.245   8.564
   82POPC   C2B 4712  17.277   0.254   8.264
   82POPC   C3B 4713  17.332   0.241   7.964
   82POPC   C4B 4714  17.358   0.307   7.664
   83POPC   NC3 4715  18.291  23.752   9.464
   83POPC   PO4 4716  18.273  23.736   9.164
   83POPC   GL1 4717  18.302  23.730   8.864
   83POPC   GL2 4718  18.364  23.828   8.864
   83POPC   C1A 4719  18.257  23.738   8.564
   83POPC   D2A 4720  18.265  23.741   8.264
   83POPC   C3A 4721  18.277  23.734   7.964
   83POPC   C4A 4722  18.241  23.710   7.664
   83POPC   C1B 4723  18.513  23.812   8.564
   83POPC   C2B 4724  18.503  23.831   8.264
   83POPC   C3B 4725  18.491  23.803   7.964
   83POPC   C4B 4726  18.527  23.813   7.664
   84POPC   NC3 4727   1.196  22.974   9.464
   84POPC   PO4 4728   1.166  22.935   9.164
   84POPC   GL1 4729   1.249  22.942   8.864
   84POPC   GL2 4730   1.207  23.004   8.864
   84POPC   C1A 4731   1.261  22.923   8.564
   84POPC   D2A 4732   1.246  22.969   8.264
   84POPC   C3A 4733   1.172  22.978   7.964
   84POPC   C4A 4734   1.169  22.957   7.664
   84POPC   C1B 4735   1.160  23.193   8.564
   84POPC   C2B 4736   1.082  23.202   8.264
   84POPC   C3B 4737   1.103  23.117   7.964
   84POPC   C4B 4738   1.129  23.211   7.664
   85POPC   NC3 4739  17.547  23.678   9.464
   85POPC   PO4 4740  17.526  23.706   9.164
   85POPC   GL1 4741  17.523  23.723   8.864
   85POPC   GL2 4742  17.629  23.608   8.864
   85POPC   C1A 4743  17.509  23.761   8.564
   85POPC   D2A 4744  17.554  23.753   8.264
   85POPC   C3A 4745  17.545  23.705   7.964
   85POPC   C4A 4746  17.471  23.746   7.664
   85POPC   C1B 4747  17.671  23.515   8.564
   85POPC   C2B 4748  17.714  23.542   8.264
   85POPC   C3B 4749  17.639  23.540   7.964
   85POPC   C4B 4750  17.730  23.502   7.664
   86POPC   NC3 4751  35.342  37.633   9.464
   86POPC   PO4 4752  35.325  37.716   9.164
   86POPC   GL1 4753  35.322  37.655   8.864
   86POPC   GL2 4754  35.356  37.828   8.864
   86POPC   C1A 4755  35.352  37.640   8.564
   86POPC   D2A 4756  35.397  37.718   8.264
   86POPC   C3A 4757  35.334  37.716   7.964
   86POPC   C4A 4758  35.306  37.676   7.664
   86POPC   C1B 4759  35.325  37.969   8.564
   86POPC   C2B 4760  35.333  37.967   8.264
   86POPC   C3B 4761  35.308  37.944   7.964
   86POPC   C4B 4762  35.280  37.872   7.664
   87POPC   NC3 4763  12.057   3.589   9.464
   87POPC   PO4 4764  12.052   3.527   9.164
   87POPC   GL1 4765  12.095   3.578   8.864
   87POPC   GL2 4766  12.030   3.670   8.864
   87POPC   C1A 4767  12.092   3.525   8.564
   87POPC   D2A 4768  12.087   3.558   8.264
   87POPC   C3A 4769  12.028   3.550   7.964
   87POPC   C4A 4770  12.096   3.569   7.664
   87POPC   C1B 4771  12.076   3.808   8.564
   87POPC   C2B 4772  12.073   3.767   8.264
   87POPC   C3B 4773  12.080   3.786   7.964
   87POPC   C4B 4774  12.077   3.777   7.664
   88POPC   NC3 4775  22.163  29.186   9.464
   88POPC   PO4 4776  22.132  29.129   9.164
   88POPC   GL1 4777  22.184  29.155   8.864
   88POPC   GL2 4778  22.024  29.047   8.864
   88POPC   C1A 4779  22.170  29.103   8.564
   88POPC   D2A 4780  22.156  29.142   8.264
   88POPC   C3A 4781  22.143  29.177   7.964
   88POPC   C4A 4782  22.141  29.105   7.664
   88POPC   C1B 4783  21.901  29.003   8.564
   88POPC   C2B 4784  21.934  29.043   8.264
   88POPC   C3B 4785  21.954  29.003   7.964
   88POPC   C4B 4786  21.918  29.050   7.664
   89POPC   NC3 4787  42.339  25.306   9.464
   89POPC   PO4 4788  42.328  25.294   9.164
   89POPC   GL1 4789  42.372  25.277   8.864
   89POPC   GL2 4790  42.304  25.184   8.864
   89POPC   C1A 4791  42.362  25.224   8.564
   89POPC   D2A 4792  42.298  25.296   8.264
   89POPC   C3A 4793  42.349  25.306   7.964
   89POPC   C4A 4794  42.317  25.258   7.664
   89POPC   C1B 4795  42.381  25.038   8.564
   89POPC   C2B 4796  42.333  24.993   8.264
   89POPC   C3B 4797  42.393  24.988   7.964
   89POPC   C4B 4798  42.357  25.056   7.664
   90POPC   NC3 4799  19.028  43.856   9.464
   90POPC   PO4 4800  19.079  43.882   9.164
   90POPC   GL1 4801  19.045  43.896   8.864
   90POPC   GL2 4802  18.889  43.855   8.864
   90POPC   C1A 4803  19.022  43.852   8.564
   90POPC   D2A 4804  19.051  43.935   8.264
   90POPC   C3A 4805  19.030  43.871   7.964
   90POPC   C4A 4806  19.099  43.889   7.664
   90POPC   C1B 4807  18.793  43.787   8.564
   90POPC   C2B 4808  18.783  43.811   8.264
   90POPC   C3B 4809  18.826  43.833   7.964
   90POPC   C4B 4810  18.799  43.800   7.664
   91POPC   NC3 4811  19.010  35.368   9.464
   91POPC   PO4 4812  19.026  35.312   9.164
   91POPC   GL1 4813  19.077  35.378   8.864
   91POPC   GL2 4814  18.937  35.406   8.864
   91POPC   C1A 4815  19.096  35.373   8.564
   91POPC   D2A 4816  19.037  35.367   8.264
   91POPC   C3A 4817  19.067  35.331   7.964
   91POPC   C4A 4818  19.089  35.323   7.664
   91POPC   C1B 4819  18.839  35.367   8.564
   91POPC   C2B 4820  18.835  35.381   8.264
   91POPC   C3B 4821  18.810  35.416   7.964
   91POPC   C4B 4822  18.792  35.392   7.664
   92POPC   NC3 4823  12.097  44.648   9.464
   92POPC   PO4 4824  12.106  44.626   9.164
   92POPC   GL1 4825  12.070  44.663   8.864
   92POPC   GL2 4826  12.063  44.738   8.864
   92POPC   C1A 4827  12.039  44.634   8.564
   92POPC   D2A 4828  12.076  44.650   8.264
   92POPC   C3A 4829  12.088  44.701   7.964
   92POPC   C4A 4830  12.091  44.683   7.664
   92POPC   C1B 4831  11.968  44.877   8.564
   92POPC   C2B 4832  12.000  44.911   8.264
   92POPC   C3B 4833  12.015  44.887   7.964
   92POPC   C4B 4834  11.938  44.890   7.664
   93POPC   NC3 4835  34.536  43.844   9.464
   93POPC   PO4 4836  34.613  43.922   9.164
   93POPC   GL1 4837  34.598  43.855   8.864
   93POPC   GL2 4838  34.726  43.777   8.864
   93POPC   C1A 4839  34.559  43.902   8.564
   93POPC   D2A 4840  34.553  43.867   8.264
   93POPC   C3A 4841  34.532  43.931   7.964
   93POPC   C4A 4842  34.539  43.894   7.664
   93POPC   C1B 4843  34.783  43.781   8.564
   93POPC   C2B 4844  34.819  43.713   8.264
   93POPC   C3B 4845  34.795  43.749   7.964
   93POPC   C4B 4846  34.795  43.743   7.664
   94POPC   NC3 4847  13.629  43.156   9.464
   94POPC   PO4 4848  13.614  43.128   9.164
   94POPC   GL1 4849  13.635  43.155   8.864
   94POPC   GL2 4850  13.681  43.065   8.864
   94POPC   C1A 4851  13.618  43.134   8.564
   94POPC   D2A 4852  13.614  43.076   8.264
   94POPC   C3A 4853  13.666  43.074   7.964
   94POPC   C4A 4854  13.583  43.157   7.664
   94POPC   C1B 4855  13.804  42.951   8.564
   94POPC   C2B 4856  13.828  42.928   8.264
   94POPC   C3B 4857  13.775  42.978   7.964
   94POPC   C4B 4858  13.831  42.931   7.664
   95POPC   NC3 4859  12.807  12.838   9.464
   95POPC   PO4 4860  12.869  12.831   9.164
   95POPC   GL1 4861  12.872  12.892   8.864
   95POPC   GL2 4862  12.836  12.966   8.864
   95POPC   C1A 4863  12.883  12.816   8.564
   95POPC   D2A 4864  12.888  12.821   8.264
   95POPC   C3A 4865  12.888  12.849   7.964
   95POPC   C4A 4866  12.804  12.841   7.664
   95POPC   C1B 4867  12.713  13.025   8.564
   95POPC   C2B 4868  12.752  13.034   8.264
   95POPC   C3B 4869  12.770  13.022   7.964
   95POPC   C4B 4870  12.764  13.113   7.664
   96POPC   NC3 4871  25.264  37.698   9.464
   96POPC   PO4 4872  25.281  37.693   9.164
   96POPC   GL1 4873  25.299  37.639   8.864
   96POPC   GL2 4874  25.330  37.614   8.864
   96POPC   C1A 4875  25.305  37.656   8.564
   96POPC   D2A 4876  25.254  37.725   8.264
   96POPC   C3A 4877  25.258  37.709   7.964
   96POPC   C4A 4878  25.295  37.665   7.664
   96POPC   C1B 4879  25.420  37.494   8.564
   96POPC   C2B 4880  25.485  37.509   8.264
   96POPC   C3B 4881  25.422  37.526   7.964
   96POPC   C4B 4882  25.459  37.557   7.664
   97POPC   NC3 4883  12.818   5.116   9.464
   97POPC   PO4 4884  12.802   5.079   9.164
   97POPC   GL1 4885  12.833   5.074   8.864
   97POPC   GL2 4886  12.763   5.067   8.864
   97POPC   C1A 4887  12.885   5.120   8.564
   97POPC   D2A 4888  12.886   5.059   8.264
   97POPC   C3A 4889  12.872   5.126   7.964
   97POPC   C4A 4890  12.857   5.120   7.664
   97POPC   C1B 4891  12.577   5.033   8.564
   97POPC   C2B 4892  12.558   5.038   8.264
   97POPC   C3B 4893  12.573   5.092   7.964
   97POPC   C4B 4894  12.602   5.093   7.664
   98POPC   NC3 4895   0.407  41.565   9.464
   98POPC   PO4 4896   0.460  41.556   9.164
   98POPC   GL1 4897   0.420  41.573   8.864
   98POPC   GL2 4898   0.549  41.577   8.864
   98POPC   C1A 4899   0.412  41.534   8.564
   98POPC   D2A 4900   0.451  41.559   8.264
   98POPC   C3A 4901   0.394  41.509   7.964
   98POPC   C4A 4902   0.482  41.604   7.664
   98POPC   C1B 4903   0.663  41.721   8.564
   98POPC   C2B 4904   0.698  41.700   8.264
   98POPC   C3B 4905   0.627  41.735   7.964
   98POPC   C4B 4906   0.638  41.644   7.664
   99POPC   NC3 4907  18.261  14.398   9.464
   99POPC   PO4 4908  18.287  14.425   9.164
   99POPC   GL1 4909  18.312  14.408   8.864
   99POPC   GL2 4910  18.355  14.371   8.864
   99POPC   C1A 4911  18.321  14.377   8.564
   99POPC   D2A 4912  18.263  14.422   8.264
   99POPC   C3A 4913  18.323  14.356   7.964
   99POPC   C4A 4914  18.235  14.360   7.664
   99POPC   C1B 4915  18.553  14.291   8.564
   99POPC   C2B 4916  18.510  14.264   8.264
   99POPC   C3B 4917  18.535  14.303   7.964
   99POPC   C4B 4918  18.481  14.345   7.664
  100POPC   NC3 4919  29.154   5.053   9.464
  100POPC   PO4 4920  29.183   5.070   9.164
  100POPC   GL1 4921  29.179   5.130   8.864
  100POPC   GL2 4922  29.252   5.103   8.864
  100POPC   C1A 4923  29.147   5.049   8.564
  100POPC   D2A 4924  29.193   5.058   8.264
  100POPC   C3A 4925  29.145   5.086   7.964
  100POPC   C4A 4926  29.170   5.128   7.664
  100POPC   C1B 4927  29.359   5.164   8.564
  100POPC   C2B 4928  29.371   5.191   8.264
  100POPC   C3B 4929  29.359   5.214   7.964
  100POPC   C4B 4930  29.351   5.138   7.664
  101POPC   NC3 4931  23.702  39.967   9.464
  101POPC   PO4 4932  23.722  39.965   9.164
  101POPC   GL1 4933  23.723  39.968   8.864
  101POPC   GL2 4934  23.633  39.979   8.864
  101POPC   C1A 4935  23.704  39.974   8.564
  101POPC   D2A 4936  23.738  39.973   8.264
  101POPC   C3A 4937  23.686  39.966   7.964
  101POPC   C4A 4938  23.747  39.983   7.664
  101POPC   C1B 4939  23.525  39.808   8.564
  101POPC   C2B 4940  23.513  39.825   8.264
  101POPC   C3B 4941  23.518  39.893   7.964
  101POPC   C4B 4942  23.494  39.882   7.664
  102POPC   NC3 4943  14.422  33.004   9.464
  102POPC   PO4 4944  14.411  32.983   9.164
  102POPC   GL1 4945  14.400  33.054   8.864
  102POPC   GL2 4946  14.458  32.951   8.864
  102POPC   C1A 4947  14.433  32.981   8.564
  102POPC   D2A 4948  14.366  33.007   8.264
  102POPC   C3A 4949  14.419  33.058   7.964
  102POPC   C4A 4950  14.406  33.057   7.664
  102POPC   C1B 4951  14.610  32.884   8.564
  102POPC   C2B 4952  14.599  32.815   8.264
  102POPC   C3B 4953  14.563  32.835   7.964
  102POPC   C4B 4954  14.556  32.849   7.664
  103POPC   NC3 4955   4.274  22.906   9.464
  103POPC   PO4 4956   4.303  22.943   9.164
  103POPC   GL1 4957   4.366  22.936   8.864
  103POPC   GL2 4958   4.212  22.861   8.864
  103POPC   C1A 4959   4.303  22.910   8.564
  103POPC   D2A 4960   4.366  22.944   8.264
  103POPC   C3A 4961   4.292  22.899   7.964
  103POPC   C4A 4962   4.299  22.974   7.664
  103POPC   C1B 4963   4.138  22.713   8.564
  103POPC   C2B 4964   4.185  22.761   8.264
  103POPC   C3B 4965   4.140  22.786   7.964
  103POPC   C4B 4966   4.164  22.724   7.664
  104POPC   NC3 4967   6.651  19.041   9.464
  104POPC   PO4 4968   6.598  19.087   9.164
  104POPC   GL1 4969   6.648  19.060   8.864
  104POPC   GL2 4970   6.742  19.102   8.864
  104POPC   C1A 4971   6.674  19.036   8.564
  104POPC   D2A 4972   6.605  19.053   8.264
  104POPC   C3A 4973   6.632  19.028   7.964
  104POPC   C4A 4974   6.612  19.080   7.664
  104POPC   C1B 4975   6.821  19.226   8.564
  104POPC   C2B 4976   6.813  19.292   8.264
  104POPC   C3B 4977   6.786  19.235   7.964
  104POPC   C4B 4978   6.807  19.212   7.664
  105POPC   NC3 4979   0.462  26.771   9.464
  105POPC   PO4 4980   0.473  26.808   9.164
  105POPC   GL1 4981   0.405  26.786   8.864
  105POPC   GL2 4982   0.545  26.848   8.864
  105POPC   C1A 4983   0.405  26.775   8.564
  105POPC   D2A 4984   0.388  26.783   8.264
  105POPC   C3A 4985   0.468  26.799   7.964
  105POPC   C4A 4986   0.446  26.824   7.664
  105POPC   C1B 4987   0.680  26.913   8.564
  105POPC   C2B 4988   0.657  26.895   8.264
  105POPC   C3B 4989   0.653  26.952   7.964
  105POPC   C4B 4990   0.638  26.956   7.664
  106POPC   NC3 4991  42.331   0.456   9.464
  106POPC   PO4 4992  42.296   0.431   9.164
  106POPC   GL1 4993  42.345   0.438   8.864
  106POPC   GL2 4994  42.196   0.435   8.864
  106POPC   C1A 4995  42.380   0.416   8.564
  106POPC   D2A 4996  42.324   0.469   8.264
  106POPC   C3A 4997  42.305   0.394   7.964
  106POPC   C4A 4998  42.374   0.464   7.664
  106POPC   C1B 4999  42.066   0.504   8.564
  106POPC   C2B 5000  42.110   0.482   8.264
  106POPC   C3B 5001  42.092   0.433   7.964
  106POPC   C4B 5002  42.040   0.464   7.664
  107POPC   NC3 5003  22.175   0.457   9.464
  107POPC   PO4 5004  22.179   0.419   9.164
  107POPC   GL1 5005  22.139   0.396   8.864
  107POPC   GL2 5006  22.100   0.371   8.864
  107POPC   C1A 5007  22.125   0.413   8.564
  107POPC   D2A 5008  22.115   0.399   8.264
  107POPC   C3A 5009  22.169   0.441   7.964
  107POPC   C4A 5010  22.211   0.451   7.664
  107POPC   C1B 5011  22.022   0.221   8.564
  107POPC   C2B 5012  22.047   0.192   8.264
  107POPC   C3B 5013  21.999   0.259   7.964
  107POPC   C4B 5014  22.065   0.248   7.664
  108POPC   NC3 5015  22.193  31.496   9.464
  108POPC   PO4 5016  22.170  31.514   9.164
  108POPC   GL1 5017  22.210  31.450   8.864
  108POPC   GL2 5018  22.098  31.388   8.864
  108POPC   C1A 5019  22.142  31.506   8.564
  108POPC   D2A 5020  22.170  31.468   8.264
  108POPC   C3A 5021  22.179  31.509   7.964
  108POPC   C4A 5022  22.153  31.454   7.664
  108POPC   C1B 5023  21.972  31.323   8.564
  108POPC   C2B 5024  21.990  31.360   8.264
  108POPC   C3B 5025  21.931  31.281   7.964
  108POPC   C4B 5026  21.962  31.304   7.664
  109POPC   NC3 5027  28.419  13.624   9.464
  109POPC   PO4 5028  28.388  13.669   9.164
  109POPC   GL1 5029  28.390  13.656   8.864
  109POPC   GL2 5030  28.287  13.715   8.864
  109POPC   C1A 5031  28.416  13.656   8.564
  109POPC   D2A 5032  28.412  13.600   8.264
  109POPC   C3A 5033  28.377  13.627   7.964
  109POPC   C4A 5034  28.386  13.623   7.664
  109POPC   C1B 5035  28.165  13.782   8.564
  109POPC   C2B 5036  28.213  13.805   8.264
  109POPC   C3B 5037  28.179  13.853   7.964
  109POPC   C4B 5038  28.177  13.822   7.664
  110POPC   NC3 5039  36.112  16.694   9.464
  110POPC   PO4 5040  36.162  16.743   9.164
  110POPC   GL1 5041  36.080  16.717   8.864
  110POPC   GL2 5042  36.185  16.649   8.864
  110POPC   C1A 5043  36.149  16.771   8.564
  110POPC   D2A 5044  36.078  16.697   8.264
  110POPC   C3A 5045  36.134  16.735   7.964
  110POPC   C4A 5046  36.128  16.767   7.664
  110POPC   C1B 5047  36.281  16.555   8.564
  110POPC   C2B 5048  36.338  16.546   8.264
  110POPC   C3B 5049  36.364  16.534   7.964
  110POPC   C4B 5050  36.274  16.622   7.664
  111POPC   NC3 5051  36.930  43.084   9.464
  111POPC   PO4 5052  36.861  43.160   9.164
  111POPC   GL1 5053  36.863  43.119   8.864
  111POPC   GL2 5054  37.024  43.007   8.864
  111POPC   C1A 5055  36.908  43.152   8.564
  111POPC   D2A 5056  36.944  43.131   8.264
  111POPC   C3A 5057  36.909  43.075   7.964
  111POPC   C4A 5058  36.863  43.101   7.664
  111POPC   C1B 5059  37.078  42.987   8.564
  111POPC   C2B 5060  37.067  42.964   8.264
  111POPC   C3B 5061  37.135  42.988   7.964
  111POPC   C4B 5062  37.084  42.965   7.664
  112POPC   NC3 5063  22.209  18.268   9.464
  112POPC   PO4 5064  22.141  18.316   9.164
  112POPC   GL1 5065  22.198  18.264   8.864
  112POPC   GL2 5066  22.084  18.331   8.864
  112POPC   C1A 5067  22.193  18.264   8.564
  112POPC   D2A 5068  22.149  18.331   8.264
  112POPC   C3A 5069  22.193  18.281   7.964
  112POPC   C4A 5070  22.135  18.262   7.664
  112POPC   C1B 5071  21.918  18.478   8.564
  112POPC   C2B 5072  22.007  18.483   8.264
  112POPC   C3B 5073  21.993  18.419   7.964
  112POPC   C4B 5074  21.985  18.411   7.664
  113POPC   NC3 5075  15.956  24.446   9.464
  113POPC   PO4 5076  15.951  24.535   9.164
  113POPC   GL1 5077  15.964  24.508   8.864
  113POPC   GL2 5078  16.075  24.536   8.864
  113POPC   C1A 5079  16.001  24.445   8.564
  113POPC   D2A 5080  15.909  24.444   8.264
  113POPC   C3A 5081  15.961  24.462   7.964
  113POPC   C4A 5082  15.919  24.491   7.664
  113POPC   C1B 5083  16.252  24.550   8.564
  113POPC   C2B 5084  16.223  24.519   8.264
  113POPC   C3B 5085  16.212  24.505   7.964
  113POPC   C4B 5086  16.243  24.548   7.664
  114POPC   NC3 5087  19.879  21.399   9.464
  114POPC   PO4 5088  19.835  21.401   9.164
  114POPC   GL1 5089  19.872  21.421   8.864
  114POPC   GL2 5090  19.723  21.508   8.864
  114POPC   C1A 5091  19.792  21.400   8.564
  114POPC   D2A 5092  19.835  21.409   8.264
  114POPC   C3A 5093  19.794  21.426   7.964
  114POPC   C4A 5094  19.853  21.358   7.664
  114POPC   C1B 5095  19.653  21.566   8.564
  114POPC   C2B 5096  19.602  21.572   8.264
  114POPC   C3B 5097  19.636  21.490   7.964
  114POPC   C4B 5098  19.630  21.487   7.664
  115POPC   NC3 5099   4.318  40.786   9.464
  115POPC   PO4 5100   4.301  40.798   9.164
  115POPC   GL1 5101   4.306  40.822   8.864
  115POPC   GL2 5102   4.237  40.729   8.864
  115POPC   C1A 5103   4.317  40.737   8.564
  115POPC   D2A 5104   4.339  40.777   8.264
  115POPC   C3A 5105   4.340  40.791   7.964
  115POPC   C4A 5106   4.350  40.802   7.664
  115POPC   C1B 5107   4.160  40.634   8.564
  115POPC   C2B 5108   4.132  40.574   8.264
  115POPC   C3B 5109   4.141  40.667   7.964
  115POPC   C4B 5110   4.116  40.654   7.664
  116POPC   NC3 5111  33.835  29.926   9.464
  116POPC   PO4 5112  33.755  29.879   9.164
  116POPC   GL1 5113  33.756  29.971   8.864
  116POPC   GL2 5114  33.939  29.910   8.864
  116POPC   C1A 5115  33.786  29.892   8.564
  116POPC   D2A 5116  33.841  29.953   8.264
  116POPC   C3A 5117  33.838  29.966   7.964
  116POPC   C4A 5118  33.829  29.967   7.664
  116POPC   C1B 5119  34.039  29.886   8.564
  116POPC   C2B 5120  34.026  29.867   8.264
  116POPC   C3B 5121  34.094  29.938   7.964
  116POPC   C4B 5122  34.089  29.932   7.664
  117POPC   NC3 5123  18.259  21.426   9.464
  117POPC   PO4 5124  18.248  21.412   9.164
  117POPC   GL1 5125  18.245  21.406   8.864
  117POPC   GL2 5126  18.188  21.327   8.864
  117POPC   C1A 5127  18.249  21.349   8.564
  117POPC   D2A 5128  18.314  21.340   8.264
  117POPC   C3A 5129  18.247  21.371   7.964
  117POPC   C4A 5130  18.238  21.348   7.664
  117POPC   C1B 5131  18.092  21.248   8.564
  117POPC   C2B 5132  18.112  21.214   8.264
  117POPC   C3B 5133  18.100  21.261   7.964
  117POPC   C4B 5134  18.048  21.260   7.664
  118POPC   NC3 5135  43.876  43.115   9.464
  118POPC   PO4 5136  43.876  43.102   9.164
  118POPC   GL1 5137  43.864  43.116   8.864
  118POPC   GL2 5138  43.945  42.999   8.864
  118POPC   C1A 5139  43.858  43.115   8.564
  118POPC   D2A 5140  43.929  43.104   8.264
  118POPC   C3A 5141  43.894  43.109   7.964
  118POPC   C4A 5142  43.852  43.154   7.664
  118POPC   C1B 5143  43.964  42.914   8.564
  118POPC   C2B 5144  44.018  42.878   8.264
  118POPC   C3B 5145  44.003  42.853   7.964
  118POPC   C4B 5146  43.978  42.894   7.664
  119POPC   NC3 5147  31.463  39.199   9.464
  119POPC   PO4 5148  31.454  39.226   9.164
  119POPC   GL1 5149  31.456  39.198   8.864
  119POPC   GL2 5150  31.586  39.144   8.864
  119POPC   C1A 5151  31.458  39.276   8.564
  119POPC   D2A 5152  31.446  39.276   8.264
  119POPC   C3A 5153  31.447  39.270   7.964
  119POPC   C4A 5154  31.487  39.184   7.664
  119POPC   C1B 5155  31.683  39.110   8.564
  119POPC   C2B 5156  31.676  39.097   8.264
  119POPC   C3B 5157  31.752  39.146   7.964
  119POPC   C4B 5158  31.666  39.168   7.664
  120POPC   NC3 5159  27.548  10.543   9.464
  120POPC   PO4 5160  27.639  10.555   9.164
  120POPC   GL1 5161  27.574  10.571   8.864
  120POPC   GL2 5162  27.673  10.559   8.864
  120POPC   C1A 5163  27.582  10.557   8.564
  120POPC   D2A 5164  27.616  10.528   8.264
  120POPC   C3A 5165  27.632  10.565   7.964
  120POPC   C4A 5166  27.608  10.528   7.664
  120POPC   C1B 5167  27.805  10.573   8.564
  120POPC   C2B 5168  27.797  10.489   8.264
  120POPC   C3B 5169  27.887  10.581   7.964
  120POPC   C4B 5170  27.868  10.489   7.664
  121POPC   NC3 5171  42.343  33.791   9.464
  121POPC   PO4 5172  42.353  33.795   9.164
  121POPC   GL1 5173  42.373  33.776   8.864
  121POPC   GL2 5174  42.275  33.647   8.864
  121POPC   C1A 5175  42.319  33.823   8.564
  121POPC   D2A 5176  42.360  33.840   8.264
  121POPC   C3A 5177  42.340  33.790   7.964
  121POPC   C4A 5178  42.329  33.816   7.664
  121POPC   C1B 5179  42.358  33.525   8.564
  121POPC   C2B 5180  42.265  33.593   8.264
  121POPC   C3B 5181  42.344  33.512   7.964
  121POPC   C4B 5182  42.342  33.524   7.664
  122POPC   NC3 5183   2.806  19.848   9.464
  122POPC   PO4 5184   2.738  19.859   9.164
  122POPC   GL1 5185   2.804  19.870   8.864
  122POPC   GL2 5186   2.867  19.776   8.864
  122POPC   C1A 5187   2.745  19.830   8.564
  122POPC   D2A 5188   2.749  19.848   8.264
  122POPC   C3A 5189   2.764  19.863   7.964
  122POPC   C4A 5190   2.777  19.805   7.664
  122POPC   C1B 5191   2.944  19.714   8.564
  122POPC   C2B 5192   3.006  19.640   8.264
  122POPC   C3B 5193   2.993  19.699   7.964
  122POPC   C4B 5194   2.972  19.651   7.664
  123POPC   NC3 5195  32.294  12.812   9.464
  123POPC   PO4 5196  32.297  12.847   9.164
  123POPC   GL1 5197  32.267  12.890   8.864
  123POPC   GL2 5198  32.209  12.990   8.864
  123POPC   C1A 5199  32.228  12.849   8.564
  123POPC   D2A 5200  32.235  12.804   8.264
  123POPC   C3A 5201  32.269  12.816   7.964
  123POPC   C4A 5202  32.204  12.842   7.664
  123POPC   C1B 5203  32.111  13.109   8.564
  123POPC   C2B 5204  32.136  13.045   8.264
  123POPC   C3B 5205  32.112  13.034   7.964
  123POPC   C4B 5206  32.152  13.099   7.664
  124POPC   NC3 5207  33.816  37.672   9.464
  124POPC   PO4 5208  33.772  37.670   9.164
  124POPC   GL1 5209  33.819  37.712   8.864
  124POPC   GL2 5210  33.719  37.631   8.864
  124POPC   C1A 5211  33.802  37.658   8.564
  124POPC   D2A 5212  33.751  37.636   8.264
  124POPC   C3A 5213  33.790  37.670   7.964
  124POPC   C4A 5214  33.773  37.689   7.664
  124POPC   C1B 5215  33.575  37.567   8.564
  124POPC   C2B 5216  33.613  37.585   8.264
  124POPC   C3B 5217  33.560  37.532   7.964
  124POPC   C4B 5218  33.641  37.495   7.664
  125POPC   NC3 5219  43.842  12.849   9.464
  125POPC   PO4 5220  43.932  12.865   9.164
  125POPC   GL1 5221  43.912  12.894   8.864
  125POPC   GL2 5222  43.721  12.875   8.864
  125POPC   C1A 5223  43.922  12.887   8.564
  125POPC   D2A 5224  43.865  12.842   8.264
  125POPC   C3A 5225  43.881  12.847   7.964
  125POPC   C4A 5226  43.934  12.825   7.664
  125POPC   C1B 5227  43.607  12.855   8.564
  125POPC   C2B 5228  43.656  12.820   8.264
  125POPC   C3B 5229  43.625  12.873   7.964
  125POPC   C4B 5230  43.674  12.836   7.664
  126POPC   NC3 5231  12.092  22.911   9.464
  126POPC   PO4 5232  12.048  22.960   9.164
  126POPC   GL1 5233  12.080  22.955   8.864
  126POPC   GL2 5234  12.188  22.854   8.864
  126POPC   C1A 5235  12.062  22.938   8.564
  126POPC   D2A 5236  12.093  22.917   8.264
  126POPC   C3A 5237  12.094  22.925   7.964
  126POPC   C4A 5238  12.031  22.968   7.664
  126POPC   C1B 5239  12.302  22.870   8.564
  126POPC   C2B 5240  12.317  22.838   8.264
  126POPC   C3B 5241  12.319  22.805   7.964
  126POPC   C4B 5242  12.284  22.818   7.664
  127POPC   NC3 5243  43.848  29.115   9.464
  127POPC   PO4 5244  43.892  29.095   9.164
  127POPC   GL1 5245  43.847  29.109   8.864
  127POPC   GL2 5246  43.861  29.253   8.864
  127POPC   C1A 5247  43.875  29.186   8.564
  127POPC   D2A 5248  43.849  29.108   8.264
  127POPC   C3A 5249  43.933  29.121   7.964
  127POPC   C4A 5250  43.898  29.166   7.664
  127POPC   C1B 5251  43.782  29.362   8.564
  127POPC   C2B 5252  43.794  29.404   8.264
  127POPC   C3B 5253  43.769  29.334   7.964
  127POPC   C4B 5254  43.774  29.347   7.664
  128POPC   NC3 5255  23.666   7.426   9.464
  128POPC   PO4 5256  23.669   7.398   9.164
  128POPC   GL1 5257  23.695   7.371   8.864
  128POPC   GL2 5258  23.832   7.433   8.864
  128POPC   C1A 5259  23.705   7.423   8.564
  128POPC   D2A 5260  23.718   7.434   8.264
  128POPC   C3A 5261  23.719   7.417   7.964
  128POPC   C4A 5262  23.672   7.414   7.664
  128POPC   C1B 5263  23.924   7.463   8.564
  128POPC   C2B 5264  23.925   7.502   8.264
  128POPC   C3B 5265  23.977   7.486   7.964
  128POPC   C4B 5266  23.911   7.510   7.664
  129POPC   NC3 5267  26.066  10.512   9.464
  129POPC   PO4 5268  26.064  10.495   9.164
  129POPC   GL1 5269  26.082  10.499   8.864
  129POPC   GL2 5270  25.964  10.647   8.864
  129POPC   C1A 5271  26.027  10.494   8.564
  129POPC   D2A 5272  26.056  10.519   8.264
  129POPC   C3A 5273  26.055  10.532   7.964
  129POPC   C4A 5274  26.006  10.485   7.664
  129POPC   C1B 5275  25.887  10.713   8.564
  129POPC   C2B 5276  25.839  10.699   8.264
  129POPC   C3B 5277  25.926  10.735   7.964
  129POPC   C4B 5278  25.840  10.683   7.664
  130POPC   NC3 5279  16.711   0.453   9.464
  130POPC   PO4 5280  16.777   0.477   9.164
  130POPC   GL1 5281  16.692   0.485   8.864
  130POPC   GL2 5282  16.870   0.516   8.864
  130POPC   C1A 5283  16.724   0.414   8.564
  130POPC   D2A 5284  16.697   0.463   8.264
  130POPC   C3A 5285  16.724   0.447   7.964
  130POPC   C4A 5286  16.738   0.471   7.664
  130POPC   C1B 5287  16.928   0.542   8.564
  130POPC   C2B 5288  16.957   0.540   8.264
  130POPC   C3B 5289  16.952   0.554   7.964
  130POPC   C4B 5290  16.944   0.505   7.664
  131POPC   NC3 5291  44.641  38.429   9.464
  131POPC   PO4 5292  44.650  38.494   9.164
  131POPC   GL1 5293  44.615  38.415   8.864
  131POPC   GL2 5294  44.803  38.398   8.864
  131POPC   C1A 5295  44.689  38.488   8.564
  131POPC   D2A 5296  44.646  38.483   8.264
  131POPC   C3A 5297  44.657  38.437   7.964
  131POPC   C4A 5298  44.709  38.417   7.664
  131POPC   C1B 5299  44.865  38.345   8.564
  131POPC   C2B 5300  44.913  38.304   8.264
  131POPC   C3B 5301  44.925  38.302   7.964
  131POPC   C4B 5302  44.839  38.354   7.664
  132POPC   NC3 5303   5.058  40.743   9.464
  132POPC   PO4 5304   5.125  40.807   9.164
  132POPC   GL1 5305   5.077  40.741   8.864
  132POPC   GL2 5306   5.236  40.802   8.864
  132POPC   C1A 5307   5.141  40.760   8.564
  132POPC   D2A 5308   5.066  40.805   8.264
  132POPC   C3A 5309   5.091  40.754   7.964
  132POPC   C4A 5310   5.093  40.805   7.664
  132POPC   C1B 5311   5.372  40.747   8.564
  132POPC   C2B 5312   5.318  40.808   8.264
  132POPC   C3B 5313   5.388  40.774   7.964
  132POPC   C4B 5314   5.366  40.760   7.664
  133POPC   NC3 5315  33.787  29.121   9.464
  133POPC   PO4 5316  33.780  29.102   9.164
  133POPC   GL1 5317  33.756  29.125   8.864
  133POPC   GL2 5318  33.670  29.089   8.864
  133POPC   C1A 5319  33.808  29.173   8.564
  133POPC   D2A 5320  33.813  29.100   8.264
  133POPC   C3A 5321  33.767  29.151   7.964
  133POPC   C4A 5322  33.833  29.142   7.664
  133POPC   C1B 5323  33.562  29.138   8.564
  133POPC   C2B 5324  33.561  29.100   8.264
  133POPC   C3B 5325  33.586  29.116   7.964
  133POPC   C4B 5326  33.553  29.104   7.664
  134POPC   NC3 5327  38.436   9.779   9.464
  134POPC   PO4 5328  38.421   9.736   9.164
  134POPC   GL1 5329  38.462   9.742   8.864
  134POPC   GL2 5330  38.567   9.763   8.864
  134POPC   C1A 5331  38.445   9.730   8.564
  134POPC   D2A 5332  38.472   9.766   8.264
  134POPC   C3A 5333  38.481   9.772   7.964
  134POPC   C4A 5334  38.418   9.784   7.664
  134POPC   C1B 5335  38.700   9.826   8.564
  134POPC   C2B 5336  38.649   9.831   8.264
  134POPC   C3B 5337  38.658   9.817   7.964
  134POPC   C4B 5338  38.734   9.822   7.664
  135POPC   NC3 5339  29.133   8.223   9.464
  135POPC   PO4 5340  29.117   8.162   9.164
  135POPC   GL1 5341  29.158   8.218   8.864
  135POPC   GL2 5342  29.284   8.154   8.864
  135POPC   C1A 5343  29.166   8.238   8.564
  135POPC   D2A 5344  29.130   8.180   8.264
  135POPC   C3A 5345  29.113   8.200   7.964
  135POPC   C4A 5346  29.118   8.196   7.664
  135POPC   C1B 5347  29.311   8.036   8.564
  135POPC   C2B 5348  29.359   8.072   8.264
  135POPC   C3B 5349  29.379   8.047   7.964
  135POPC   C4B 5350  29.320   8.102   7.664
  136POPC   NC3 5351  13.605  18.255   9.464
  136POPC   PO4 5352  13.610  18.242   9.164
  136POPC   GL1 5353  13.606  18.281   8.864
  136POPC   GL2 5354  13.706  18.412   8.864
  136POPC   C1A 5355  13.667  18.316   8.564
  136POPC   D2A 5356  13.637  18.297   8.264
  136POPC   C3A 5357  13.589  18.281   7.964
  136POPC   C4A 5358  13.650  18.320   7.664
  136POPC   C1B 5359  13.759  18.481   8.564
  136POPC   C2B 5360  13.769  18.473   8.264
  136POPC   C3B 5361  13.777  18.461   7.964
  136POPC   C4B 5362  13.682  18.492   7.664
  137POPC   NC3 5363  16.752  36.861   9.464
  137POPC   PO4 5364  16.731  36.932   9.164
  137POPC   GL1 5365  16.694  36.912   8.864
  137POPC   GL2 5366  16.817  37.006   8.864
  137POPC   C1A 5367  16.719  36.900   8.564
  137POPC   D2A 5368  16.763  36.908   8.264
  137POPC   C3A 5369  16.698  36.877   7.964
  137POPC   C4A 5370  16.738  36.917   7.664
  137POPC   C1B 5371  16.865  37.077   8.564
  137POPC   C2B 5372  16.833  37.081   8.264
  137POPC   C3B 5373  16.865  37.113   7.964
  137POPC   C4B 5374  16.914  37.054   7.664
  138POPC   NC3 5375  11.302  26.025   9.464
  138POPC   PO4 5376  11.346  26.070   9.164
  138POPC   GL1 5377  11.298  26.072   8.864
  138POPC   GL2 5378  11.367  25.944   8.864
  138POPC   C1A 5379  11.330  26.035   8.564
  138POPC   D2A 5380  11.282  26.025   8.264
  138POPC   C3A 5381  11.347  26.041   7.964
  138POPC   C4A 5382  11.259  26.052   7.664
  138POPC   C1B 5383  11.500  25.947   8.564
  138POPC   C2B 5384  11.560  25.974   8.264
  138POPC   C3B 5385  11.488  25.949   7.964
  138POPC   C4B 5386  11.520  25.879   7.664
  139POPC   NC3 5387   1.982   9.786   9.464
  139POPC   PO4 5388   1.968   9.734   9.164
  139POPC   GL1 5389   1.991   9.792   8.864
  139POPC   GL2 5390   2.061   9.802   8.864
  139POPC   C1A 5391   2.024   9.732   8.564
  139POPC   D2A 5392   1.961   9.725   8.264
  139POPC   C3A 5393   1.995   9.748   7.964
  139POPC   C4A 5394   1.978   9.794   7.664
  139POPC   C1B 5395   2.175   9.911   8.564
  139POPC   C2B 5396   2.188   9.892   8.264
  139POPC   C3B 5397   2.163   9.953   7.964
  139POPC   C4B 5398   2.170   9.906   7.664
  140POPC   NC3 5399   8.242  30.664   9.464
  140POPC   PO4 5400   8.241  30.729   9.164
  140POPC   GL1 5401   8.204  30.741   8.864
  140POPC   GL2 5402   8.043  30.769   8.864
  140POPC   C1A 5403   8.198  30.655   8.564
  140POPC   D2A 5404   8.200  30.684   8.264
  140POPC   C3A 5405   8.184  30.742   7.964
  140POPC   C4A 5406   8.160  30.713   7.664
  140POPC   C1B 5407   7.947  30.830   8.564
  140POPC   C2B 5408   7.968  30.847   8.264
  140POPC   C3B 5409   7.942  30.781   7.964
  140POPC   C4B 5410   7.969  30.781   7.664
  141POPC   NC3 5411  28.356  42.329   9.464
  141POPC   PO4 5412  28.419  42.348   9.164
  141POPC   GL1 5413  28.340  42.363   8.864
  141POPC   GL2 5414  28.490  42.264   8.864
  141POPC   C1A 5415  28.399  42.379   8.564
  141POPC   D2A 5416  28.328  42.307   8.264
  141POPC   C3A 5417  28.340  42.305   7.964
  141POPC   C4A 5418  28.369  42.357   7.664
  141POPC   C1B 5419  28.569  42.248   8.564
  141POPC   C2B 5420  28.600  42.280   8.264
  141POPC   C3B 5421  28.643  42.316   7.964
  141POPC   C4B 5422  28.572  42.254   7.664
  142POPC   NC3 5423  25.251  32.976   9.464
  142POPC   PO4 5424  25.296  33.039   9.164
  142POPC   GL1 5425  25.288  32.975   8.864
  142POPC   GL2 5426  25.274  32.877   8.864
  142POPC   C1A 5427  25.220  33.026   8.564
  142POPC   D2A 5428  25.229  33.027   8.264
  142POPC   C3A 5429  25.311  33.006   7.964
  142POPC   C4A 5430  25.233  32.987   7.664
  142POPC   C1B 5431  25.335  32.740   8.564
  142POPC   C2B 5432  25.276  32.803   8.264
  142POPC   C3B 5433  25.262  32.765   7.964
  142POPC   C4B 5434  25.292  32.777   7.664
  143POPC   NC3 5435  26.062  36.156   9.464
  143POPC   PO4 5436  26.047  36.152   9.164
  143POPC   GL1 5437  26.073  36.110   8.864
  143POPC   GL2 5438  26.102  36.169   8.864
  143POPC   C1A 5439  26.016  36.122   8.564
  143POPC   D2A 5440  26.089  36.086   8.264
  143POPC   C3A 5441  26.069  36.174   7.964
  143POPC   C4A 5442  26.022  36.083   7.664
  143POPC   C1B 5443  26.199  36.289   8.564
  143POPC   C2B 5444  26.221  36.272   8.264
  143POPC   C3B 5445  26.180  36.256   7.964
  143POPC   C4B 5446  26.266  36.260   7.664
  144POPC   NC3 5447  23.697  36.086   9.464
  144POPC   PO4 5448  23.753  36.158   9.164
  144POPC   GL1 5449  23.761  36.086   8.864
  144POPC   GL2 5450  23.549  36.142   8.864
  144POPC   C1A 5451  23.738  36.105   8.564
  144POPC   D2A 5452  23.678  36.163   8.264
  144POPC   C3A 5453  23.761  36.114   7.964
  144POPC   C4A 5454  23.761  36.116   7.664
  144POPC   C1B 5455  23.482  36.054   8.564
  144POPC   C2B 5456  23.497  36.113   8.264
  144POPC   C3B 5457  23.491  36.107   7.964
  144POPC   C4B 5458  23.431  36.141   7.664
  145POPC   NC3 5459  44.672  16.704   9.464
  145POPC   PO4 5460  44.613  16.723   9.164
  145POPC   GL1 5461  44.623  16.749   8.864
  145POPC   GL2 5462  44.665  16.626   8.864
  145POPC   C1A 5463  44.631  16.682   8.564
  145POPC   D2A 5464  44.697  16.728   8.264
  145POPC   C3A 5465  44.649  16.700   7.964
  145POPC   C4A 5466  44.689  16.731   7.664
  145POPC   C1B 5467  44.725  16.512   8.564
  145POPC   C2B 5468  44.705  16.509   8.264
  145POPC   C3B 5469  44.681  16.477   7.964
  145POPC   C4B 5470  44.659  16.510   7.664
  146POPC   NC3 5471   5.909  38.470   9.464
  146POPC   PO4 5472   5.855  38.425   9.164
  146POPC   GL1 5473   5.892  38.495   8.864
  146POPC   GL2 5474   5.952  38.532   8.864
  146POPC   C1A 5475   5.915  38.423   8.564
  146POPC   D2A 5476   5.914  38.492   8.264
  146POPC   C3A 5477   5.828  38.443   7.964
  146POPC   C4A 5478   5.884  38.479   7.664
  146POPC   C1B 5479   6.093  38.518   8.564
  146POPC   C2B 5480   6.140  38.552   8.264
  146POPC   C3B 5481   6.079  38.582   7.964
  146POPC   C4B 5482   6.082  38.543   7.664
  147POPC   NC3 5483  30.677  35.376   9.464
  147POPC   PO4 5484  30.744  35.346   9.164
  147POPC   GL1 5485  30.672  35.318   8.864
  147POPC   GL2 5486  30.779  35.237   8.864
  147POPC   C1A 5487  30.731  35.397   8.564
  147POPC   D2A 5488  30.695  35.319   8.264
  147POPC   C3A 5489  30.647  35.336   7.964
  147POPC   C4A 5490  30.650  35.386   7.664
  147POPC   C1B 5491  30.885  35.178   8.564
  147POPC   C2B 5492  30.865  35.191   8.264
  147POPC   C3B 5493  30.885  35.245   7.964
  147POPC   C4B 5494  30.910  35.226   7.664
  148POPC   NC3 5495  41.564   6.625   9.464
  148POPC   PO4 5496  41.589   6.617   9.164
  148POPC   GL1 5497  41.592   6.614   8.864
  148POPC   GL2 5498  41.586   6.721   8.864
  148POPC   C1A 5499  41.605   6.642   8.564
  148POPC   D2A 5500  41.533   6.691   8.264
  148POPC   C3A 5501  41.514   6.627   7.964
  148POPC   C4A 5502  41.590   6.684   7.664
  148POPC   C1B 5503  41.603   6.857   8.564
  148POPC   C2B 5504  41.594   6.872   8.264
  148POPC   C3B 5505  41.657   6.883   7.964
  148POPC   C4B 5506  41.613   6.873   7.664
  149POPC   NC3 5507  31.440  23.694   9.464
  149POPC   PO4 5508  31.424  23.722   9.164
  149POPC   GL1 5509  31.487  23.746   8.864
  149POPC   GL2 5510  31.538  23.583   8.864
  149POPC   C1A 5511  31.497  23.758   8.564
  149POPC   D2A 5512  31.433  23.714   8.264
  149POPC   C3A 5513  31.428  23.710   7.964
  149POPC   C4A 5514  31.428  23.761   7.664
  149POPC   C1B 5515  31.592  23.502   8.564
  149POPC   C2B 5516  31.516  23.487   8.264
  149POPC   C3B 5517  31.529  23.474   7.964
  149POPC   C4B 5518  31.560  23.525   7.664
  150POPC   NC3 5519  29.914  41.513   9.464
  150POPC   PO4 5520  29.899  41.565   9.164
  150POPC   GL1 5521  29.937  41.544   8.864
  150POPC   GL2 5522  30.073  41.617   8.864
  150POPC   C1A 5523  29.969  41.529   8.564
  150POPC   D2A 5524  29.920  41.575   8.264
  150POPC   C3A 5525  29.874  41.543   7.964
  150POPC   C4A 5526  29.956  41.549   7.664
  150POPC   C1B 5527  30.139  41.628   8.564
  150POPC   C2B 5528  30.157  41.668   8.264
  150POPC   C3B 5529  30.168  41.645   7.964
  150POPC   C4B 5530  30.155  41.711   7.664
  151POPC   NC3 5531  22.144  14.443   9.464
  151POPC   PO4 5532  22.160  14.416   9.164
  151POPC   GL1 5533  22.177  14.453   8.864
  151POPC   GL2 5534  22.061  14.491   8.864
  151POPC   C1A 5535  22.156  14.436   8.564
  151POPC   D2A 5536  22.186  14.386   8.264
  151POPC   C3A 5537  22.210  14.411   7.964
  151POPC   C4A 5538  22.133  14.356   7.664
  151POPC   C1B 5539  21.983  14.532   8.564
  151POPC   C2B 5540  22.014  14.536   8.264
  151POPC   C3B 5541  22.003  14.612   7.964
  151POPC   C4B 5542  21.946  14.572   7.664
  152POPC   NC3 5543  33.050  20.624   9.464
  152POPC   PO4 5544  33.048  20.580   9.164
  152POPC   GL1 5545  33.071  20.640   8.864
  152POPC   GL2 5546  32.937  20.697   8.864
  152POPC   C1A 5547  32.983  20.633   8.564
  152POPC   D2A 5548  33.034  20.579   8.264
  152POPC   C3A 5549  33.049  20.575   7.964
  152POPC   C4A 5550  33.025  20.566   7.664
  152POPC   C1B 5551  32.858  20.753   8.564
  152POPC   C2B 5552  32.865  20.799   8.264
  152POPC   C3B 5553  32.817  20.792   7.964
  152POPC   C4B 5554  32.863  20.764   7.664
  153POPC   NC3 5555  35.348   6.607   9.464
  153POPC   PO4 5556  35.369   6.628   9.164
  153POPC   GL1 5557  35.383   6.610   8.864
  153POPC   GL2 5558  35.244   6.720   8.864
  153POPC   C1A 5559  35.394   6.669   8.564
  153POPC   D2A 5560  35.307   6.605   8.264
  153POPC   C3A 5561  35.348   6.654   7.964
  153POPC   C4A 5562  35.357   6.616   7.664
  153POPC   C1B 5563  35.173   6.823   8.564
  153POPC   C2B 5564  35.140   6.754   8.264
  153POPC   C3B 5565  35.188   6.754   7.964
  153POPC   C4B 5566  35.122   6.789   7.664
  154POPC   NC3 5567  20.582  33.805   9.464
  154POPC   PO4 5568  20.603  33.830   9.164
  154POPC   GL1 5569  20.638  33.825   8.864
  154POPC   GL2 5570  20.559  33.916   8.864
  154POPC   C1A 5571  20.574  33.838   8.564
  154POPC   D2A 5572  20.655  33.822   8.264
  154POPC   C3A 5573  20.568  33.829   7.964
  154POPC   C4A 5574  20.588  33.763   7.664
  154POPC   C1B 5575  20.417  34.044   8.564
  154POPC   C2B 5576  20.499  34.018   8.264
  154POPC   C3B 5577  20.482  34.013   7.964
  154POPC   C4B 5578  20.420  33.973   7.664
  155POPC   NC3 5579  19.844   5.087   9.464
  155POPC   PO4 5580  19.872   5.109   9.164
  155POPC   GL1 5581  19.861   5.089   8.864
  155POPC   GL2 5582  19.790   5.238   8.864
  155POPC   C1A 5583  19.863   5.119   8.564
  155POPC   D2A 5584  19.881   5.093   8.264
  155POPC   C3A 5585  19.856   5.052   7.964
  155POPC   C4A 5586  19.819   5.109   7.664
  155POPC   C1B 5587  19.836   5.348   8.564
  155POPC   C2B 5588  19.792   5.296   8.264
  155POPC   C3B 5589  19.808   5.302   7.964
  155POPC   C4B 5590  19.836   5.321   7.664
  156POPC   NC3 5591  20.645  30.746   9.464
  156POPC   PO4 5592  20.648  30.733   9.164
  156POPC   GL1 5593  20.614  30.700   8.864
  156POPC   GL2 5594  20.475  30.763   8.864
  156POPC   C1A 5595  20.595  30.688   8.564
  156POPC   D2A 5596  20.584  30.658   8.264
  156POPC   C3A 5597  20.653  30.706   7.964
  156POPC   C4A 5598  20.615  30.721   7.664
  156POPC   C1B 5599  20.413  30.854   8.564
  156POPC   C2B 5600  20.431  30.857   8.264
  156POPC   C3B 5601  20.481  30.904   7.964
  156POPC   C4B 5602  20.415  30.904   7.664
  157POPC   NC3 5603  13.650  11.308   9.464
  157POPC   PO4 5604  13.625  11.282   9.164
  157POPC   GL1 5605  13.608  11.338   8.864
  157POPC   GL2 5606  13.537  11.211   8.864
  157POPC   C1A 5607  13.616  11.325   8.564
  157POPC   D2A 5608  13.654  11.250   8.264
  157POPC   C3A 5609  13.666  11.349   7.964
  157POPC   C4A 5610  13.671  11.277   7.664
  157POPC   C1B 5611  13.457  11.100   8.564
  157POPC   C2B 5612  13.504  11.088   8.264
  157POPC   C3B 5613  13.452  11.057   7.964
  157POPC   C4B 5614  13.519  11.067   7.664
  158POPC   NC3 5615  31.483  28.392   9.464
  158POPC   PO4 5616  31.423  28.403   9.164
  158POPC   GL1 5617  31.511  28.391   8.864
  158POPC   GL2 5618  31.588  28.424   8.864
  158POPC   C1A 5619  31.487  28.354   8.564
  158POPC   D2A 5620  31.463  28.358   8.264
  158POPC   C3A 5621  31.518  28.414   7.964
  158POPC   C4A 5622  31.497  28.324   7.664
  158POPC   C1B 5623  31.687  28.484   8.564
  158POPC   C2B 5624  31.663  28.437   8.264
  158POPC   C3B 5625  31.710  28.403   7.964
  158POPC   C4B 5626  31.727  28.481   7.664
  159POPC   NC3 5627  43.141  33.006   9.464
  159POPC   PO4 5628  43.073  33.020   9.164
  159POPC   GL1 5629  43.156  32.986   8.864
  159POPC   GL2 5630  43.269  33.082   8.864
  159POPC   C1A 5631  43.083  33.037   8.564
  159POPC   D2A 5632  43.134  33.072   8.264
  159POPC   C3A 5633  43.102  33.020   7.964
  159POPC   C4A 5634  43.135  33.038   7.664
  159POPC   C1B 5635  43.347  33.059   8.564
  159POPC   C2B 5636  43.317  33.039   8.264
  159POPC   C3B 5637  43.393  33.066   7.964
  159POPC   C4B 5638  43.350  33.061   7.664
  160POPC   NC3 5639  29.114   1.172   9.464
  160POPC   PO4 5640  29.178   1.202   9.164
  160POPC   GL1 5641  29.135   1.216   8.864
  160POPC   GL2 5642  29.122   1.323   8.864
  160POPC   C1A 5643  29.153   1.223   8.564
  160POPC   D2A 5644  29.132   1.247   8.264
  160POPC   C3A 5645  29.184   1.203   7.964
  160POPC   C4A 5646  29.157   1.224   7.664
  160POPC   C1B 5647  29.169   1.425   8.564
  160POPC   C2B 5648  29.195   1.480   8.264
  160POPC   C3B 5649  29.160   1.510   7.964
  160POPC   C4B 5650  29.174   1.459   7.664
  161POPC   NC3 5651   5.880  41.558   9.464
  161POPC   PO4 5652   5.884  41.568   9.164
  161POPC   GL1 5653   5.894  41.607   8.864
  161POPC   GL2 5654   5.969  41.556   8.864
  161POPC   C1A 5655   5.868  41.561   8.564
  161POPC   D2A 5656   5.911  41.538   8.264
  161POPC   C3A 5657   5.902  41.522   7.964
  161POPC   C4A 5658   5.913  41.597   7.664
  161POPC   C1B 5659   6.127  41.531   8.564
  161POPC   C2B 5660   6.082  41.547   8.264
  161POPC   C3B 5661   6.069  41.603   7.964
  161POPC   C4B 5662   6.150  41.575   7.664
  162POPC   NC3 5663  26.817  41.577   9.464
  162POPC   PO4 5664  26.818  41.591   9.164
  162POPC   GL1 5665  26.852  41.513   8.864
  162POPC   GL2 5666  26.910  41.645   8.864
  162POPC   C1A 5667  26.801  41.527   8.564
  162POPC   D2A 5668  26.792  41.542   8.264
  162POPC   C3A 5669  26.845  41.510   7.964
  162POPC   C4A 5670  26.803  41.604   7.664
  162POPC   C1B 5671  26.980  41.757   8.564
  162POPC   C2B 5672  27.043  41.716   8.264
  162POPC   C3B 5673  26.973  41.711   7.964
  162POPC   C4B 5674  26.971  41.758   7.664
  163POPC   NC3 5675  32.997  37.650   9.464
  163POPC   PO4 5676  33.026  37.678   9.164
  163POPC   GL1 5677  32.977  37.661   8.864
  163POPC   GL2 5678  32.922  37.654   8.864
  163POPC   C1A 5679  32.985  37.699   8.564
  163POPC   D2A 5680  32.993  37.651   8.264
  163POPC   C3A 5681  33.071  37.648   7.964
  163POPC   C4A 5682  32.992  37.633   7.664
  163POPC   C1B 5683  32.854  37.555   8.564
  163POPC   C2B 5684  32.833  37.566   8.264
  163POPC   C3B 5685  32.840  37.548   7.964
  163POPC   C4B 5686  32.838  37.559   7.664
  164POPC   NC3 5687  24.478  33.035   9.464
  164POPC   PO4 5688  24.463  33.030   9.164
  164POPC   GL1 5689  24.523  33.065   8.864
  164POPC   GL2 5690  24.471  32.901   8.864
  164POPC   C1A 5691  24.457  33.006   8.564
  164POPC   D2A 5692  24.495  33.043   8.264
  164POPC   C3A 5693  24.476  33.007   7.964
  164POPC   C4A 5694  24.531  33.056   7.664
  164POPC   C1B 5695  24.437  32.802   8.564
  164POPC   C2B 5696  24.442  32.768   8.264
  164POPC   C3B 5697  24.418  32.751   7.964
  164POPC   C4B 5698  24.390  32.812   7.664
  165POPC   NC3 5699  33.753  19.087   9.464
  165POPC   PO4 5700  33.759  19.078   9.164
  165POPC   GL1 5701  33.829  19.058   8.864
  165POPC   GL2 5702  33.709  19.118   8.864
  165POPC   C1A 5703  33.759  19.089   8.564
  165POPC   D2A 5704  33.786  19.018   8.264
  165POPC   C3A 5705  33.837  19.042   7.964
  165POPC   C4A 5706  33.790  19.101   7.664
  165POPC   C1B 5707  33.564  19.174   8.564
  165POPC   C2B 5708  33.530  19.132   8.264
  165POPC   C3B 5709  33.558  19.153   7.964
  165POPC   C4B 5710  33.520  19.137   7.664
  166POPC   NC3 5711  18.313  43.905   9.464
  166POPC   PO4 5712  18.245  43.913   9.164
  166POPC   GL1 5713  18.311  43.857   8.864
  166POPC   GL2 5714  18.307  44.031   8.864
  166POPC   C1A 5715  18.267  43.857   8.564
  166POPC   D2A 5716  18.291  43.843   8.264
  166POPC   C3A 5717  18.271  43.895   7.964
  166POPC   C4A 5718  18.294  43.884   7.664
  166POPC   C1B 5719  18.288  44.122   8.564
  166POPC   C2B 5720  18.233  44.087   8.264
  166POPC   C3B 5721  18.309  44.117   7.964
  166POPC   C4B 5722  18.278  44.117   7.664
  167POPC   NC3 5723  32.243  17.494   9.464
  167POPC   PO4 5724  32.208  17.496   9.164
  167POPC   GL1 5725  32.219  17.464   8.864
  167POPC   GL2 5726  32.279  17.613   8.864
  167POPC   C1A 5727  32.261  17.505   8.564
  167POPC   D2A 5728  32.224  17.539   8.264
  167POPC   C3A 5729  32.247  17.551   7.964
  167POPC   C4A 5730  32.222  17.552   7.664
  167POPC   C1B 5731  32.424  17.677   8.564
  167POPC   C2B 5732  32.345  17.754   8.264
  167POPC   C3B 5733  32.368  17.685   7.964
  167POPC   C4B 5734  32.341  17.713   7.664
  168POPC   NC3 5735  18.250  36.916   9.464
  168POPC   PO4 5736  18.291  36.909   9.164
  168POPC   GL1 5737  18.290  36.913   8.864
  168POPC   GL2 5738  18.194  36.968   8.864
  168POPC   C1A 5739  18.256  36.938   8.564
  168POPC   D2A 5740  18.280  36.946   8.264
  168POPC   C3A 5741  18.318  36.911   7.964
  168POPC   C4A 5742  18.299  36.945   7.664
  168POPC   C1B 5743  18.160  37.140   8.564
  168POPC   C2B 5744  18.168  37.124   8.264
  168POPC   C3B 5745  18.194  37.075   7.964
  168POPC   C4B 5746  18.136  37.157   7.664
  169POPC   NC3 5747  31.455  40.021   9.464
  169POPC   PO4 5748  31.467  40.018   9.164
  169POPC   GL1 5749  31.486  40.034   8.864
  169POPC   GL2 5750  31.633  40.000   8.864
  169POPC   C1A 5751  31.505  40.035   8.564
  169POPC   D2A 5752  31.481  40.002   8.264
  169POPC   C3A 5753  31.507  40.015   7.964
  169POPC   C4A 5754  31.487  40.056   7.664
  169POPC   C1B 5755  31.697  39.968   8.564
  169POPC   C2B 5756  31.690  39.975   8.264
  169POPC   C3B 5757  31.734  40.005   7.964
  169POPC   C4B 5758  31.722  39.947   7.664
  170POPC   NC3 5759  30.682  10.552   9.464
  170POPC   PO4 5760  30.686  10.482   9.164
  170POPC   GL1 5761  30.682  10.544   8.864
  170POPC   GL2 5762  30.748  10.388   8.864
  170POPC   C1A 5763  30.714  10.487   8.564
  170POPC   D2A 5764  30.703  10.567   8.264
  170POPC   C3A 5765  30.686  10.560   7.964
  170POPC   C4A 5766  30.659  10.532   7.664
  170POPC   C1B 5767  30.805  10.351   8.564
  170POPC   C2B 5768  30.798  10.328   8.264
  170POPC   C3B 5769  30.809  10.296   7.964
  170POPC   C4B 5770  30.770  10.284   7.664
  171POPC   NC3 5771  19.862  18.245   9.464
  171POPC   PO4 5772  19.861  18.283   9.164
  171POPC   GL1 5773  19.800  18.296   8.864
  171POPC   GL2 5774  19.958  18.331   8.864
  171POPC   C1A 5775  19.841  18.239   8.564
  171POPC   D2A 5776  19.808  18.238   8.264
  171POPC   C3A 5777  19.814  18.311   7.964
  171POPC   C4A 5778  19.873  18.297   7.664
  171POPC   C1B 5779  20.131  18.268   8.564
  171POPC   C2B 5780  20.065  18.334   8.264
  171POPC   C3B 5781  20.094  18.267   7.964
  171POPC   C4B 5782  20.084  18.287   7.664
  172POPC   NC3 5783  22.901  27.592   9.464
  172POPC   PO4 5784  22.929  27.618   9.164
  172POPC   GL1 5785  22.925  27.617   8.864
  172POPC   GL2 5786  22.863  27.698   8.864
  172POPC   C1A 5787  22.939  27.603   8.564
  172POPC   D2A 5788  22.931  27.574   8.264
  172POPC   C3A 5789  22.952  27.595   7.964
  172POPC   C4A 5790  22.979  27.624   7.664
  172POPC   C1B 5791  22.809  27.841   8.564
  172POPC   C2B 5792  22.827  27.857   8.264
  172POPC   C3B 5793  22.899  27.803   7.964
  172POPC   C4B 5794  22.898  27.847   7.664
  173POPC   NC3 5795  30.694   8.238   9.464
  173POPC   PO4 5796  30.746   8.165   9.164
  173POPC   GL1 5797  30.734   8.198   8.864
  173POPC   GL2 5798  30.865   8.135   8.864
  173POPC   C1A 5799  30.736   8.230   8.564
  173POPC   D2A 5800  30.744   8.202   8.264
  173POPC   C3A 5801  30.735   8.210   7.964
  173POPC   C4A 5802  30.657   8.232   7.664
  173POPC   C1B 5803  30.928   8.094   8.564
  173POPC   C2B 5804  30.912   8.096   8.264
  173POPC   C3B 5805  30.910   8.109   7.964
  173POPC   C4B 5806  30.926   8.138   7.664
  174POPC   NC3 5807  31.443  32.279   9.464
  174POPC   PO4 5808  31.423  32.200   9.164
  174POPC   GL1 5809  31.447  32.213   8.864
  174POPC   GL2 5810  31.382  32.121   8.864
  174POPC   C1A 5811  31.501  32.238   8.564
  174POPC   D2A 5812  31.469  32.246   8.264
  174POPC   C3A 5813  31.515  32.260   7.964
  174POPC   C4A 5814  31.498  32.252   7.664
  174POPC   C1B 5815  31.251  32.035   8.564
  174POPC   C2B 5816  31.324  32.090   8.264
  174POPC   C3B 5817  31.323  32.083   7.964
  174POPC   C4B 5818  31.334  32.061   7.664
  175POPC   NC3 5819  11.348   1.971   9.464
  175POPC   PO4 5820  11.282   2.004   9.164
  175POPC   GL1 5821  11.270   1.995   8.864
  175POPC   GL2 5822  11.466   2.036   8.864
  175POPC   C1A 5823  11.325   1.984   8.564
  175POPC   D2A 5824  11.289   1.968   8.264
  175POPC   C3A 5825  11.301   1.999   7.964
  175POPC   C4A 5826  11.329   2.027   7.664
  175POPC   C1B 5827  11.585   1.983   8.564
  175POPC   C2B 5828  11.565   2.027   8.264
  175POPC   C3B 5829  11.558   2.049   7.964
  175POPC   C4B 5830  11.571   2.036   7.664
  176POPC   NC3 5831  12.059   0.395   9.464
  176POPC   PO4 5832  12.051   0.455   9.164
  176POPC   GL1 5833  12.055   0.460   8.864
  176POPC   GL2 5834  12.015   0.330   8.864
  176POPC   C1A 5835  12.026   0.394   8.564
  176POPC   D2A 5836  12.044   0.440   8.264
  176POPC   C3A 5837  12.089   0.416   7.964
  176POPC   C4A 5838  12.032   0.388   7.664
  176POPC   C1B 5839  11.987   0.240   8.564
  176POPC   C2B 5840  11.967   0.224   8.264
  176POPC   C3B 5841  11.984   0.187   7.964
  176POPC   C4B 5842  12.025   0.207   7.664
  177POPC   NC3 5843  25.222  30.687   9.464
  177POPC   PO4 5844  25.313  30.710   9.164
  177POPC   GL1 5845  25.277  30.689   8.864
  177POPC   GL2 5846  25.263  30.566   8.864
  177POPC   C1A 5847  25.315  30.647   8.564
  177POPC   D2A 5848  25.268  30.690   8.264
  177POPC   C3A 5849  25.234  30.706   7.964
  177POPC   C4A 5850  25.237  30.689   7.664
  177POPC   C1B 5851  25.273  30.418   8.564
  177POPC   C2B 5852  25.264  30.474   8.264
  177POPC   C3B 5853  25.310  30.415   7.964
  177POPC   C4B 5854  25.311  30.489   7.664
  178POPC   NC3 5855  36.910  13.605   9.464
  178POPC   PO4 5856  36.912  13.650   9.164
  178POPC   GL1 5857  36.923  13.583   8.864
  178POPC   GL2 5858  37.012  13.474   8.864
  178POPC   C1A 5859  36.904  13.674   8.564
  178POPC   D2A 5860  36.892  13.589   8.264
  178POPC   C3A 5861  36.920  13.613   7.964
  178POPC   C4A 5862  36.854  13.599   7.664
  178POPC   C1B 5863  37.047  13.380   8.564
  178POPC   C2B 5864  37.057  13.405   8.264
  178POPC   C3B 5865  36.998  13.448   7.964
  178POPC   C4B 5866  37.081  13.441   7.664
  179POPC   NC3 5867  30.684  29.131   9.464
  179POPC   PO4 5868  30.662  29.127   9.164
  179POPC   GL1 5869  30.668  29.188   8.864
  179POPC   GL2 5870  30.629  28.989   8.864
  179POPC   C1A 5871  30.692  29.140   8.564
  179POPC   D2A 5872  30.697  29.128   8.264
  179POPC   C3A 5873  30.689  29.128   7.964
  179POPC   C4A 5874  30.745  29.173   7.664
  179POPC   C1B 5875  30.618  28.886   8.564
  179POPC   C2B 5876  30.605  28.886   8.264
  179POPC   C3B 5877  30.581  28.968   7.964
  179POPC   C4B 5878  30.571  28.950   7.664
  180POPC   NC3 5879  41.552   3.511   9.464
  180POPC   PO4 5880  41.583   3.561   9.164
  180POPC   GL1 5881  41.592   3.576   8.864
  180POPC   GL2 5882  41.640   3.594   8.864
  180POPC   C1A 5883  41.561   3.571   8.564
  180POPC   D2A 5884  41.512   3.558   8.264
  180POPC   C3A 5885  41.605   3.528   7.964
  180POPC   C4A 5886  41.531   3.507   7.664
  180POPC   C1B 5887  41.755   3.716   8.564
  180POPC   C2B 5888  41.706   3.706   8.264
  180POPC   C3B 5889  41.788   3.699   7.964
  180POPC   C4B 5890  41.786   3.656   7.664
  181POPC   NC3 5891  10.571  31.432   9.464
  181POPC   PO4 5892  10.531  31.499   9.164
  181POPC   GL1 5893  10.569  31.490   8.864
  181POPC   GL2 5894  10.652  31.520   8.864
  181POPC   C1A 5895  10.488  31.494   8.564
  181POPC   D2A 5896  10.533  31.446   8.264
  181POPC   C3A 5897  10.565  31.505   7.964
  181POPC   C4A 5898  10.493  31.474   7.664
  181POPC   C1B 5899  10.710  31.679   8.564
  181POPC   C2B 5900  10.712  31.614   8.264
  181POPC   C3B 5901  10.723  31.659   7.964
  181POPC   C4B 5902  10.667  31.639   7.664
  182POPC   NC3 5903   7.448   8.968   9.464
  182POPC   PO4 5904   7.429   8.959   9.164
  182POPC   GL1 5905   7.377   8.978   8.864
  182POPC   GL2 5906   7.473   8.839   8.864
  182POPC   C1A 5907   7.450   8.990   8.564
  182POPC   D2A 5908   7.393   8.956   8.264
  182POPC   C3A 5909   7.379   8.941   7.964
  182POPC   C4A 5910   7.421   8.987   7.664
  182POPC   C1B 5911   7.572   8.751   8.564
  182POPC   C2B 5912   7.632   8.752   8.264
  182POPC   C3B 5913   7.645   8.781   7.964
  182POPC   C4B 5914   7.645   8.760   7.664
  183POPC   NC3 5915  40.796  15.169   9.464
  183POPC   PO4 5916  40.753  15.204   9.164
  183POPC   GL1 5917  40.810  15.161   8.864
  183POPC   GL2 5918  40.678  15.169   8.864
  183POPC   C1A 5919  40.748  15.185   8.564
  183POPC   D2A 5920  40.783  15.196   8.264
  183POPC   C3A 5921  40.772  15.156   7.964
  183POPC   C4A 5922  40.776  15.154   7.664
  183POPC   C1B 5923  40.531  15.098   8.564
  183POPC   C2B 5924  40.573  15.147   8.264
  183POPC   C3B 5925  40.498  15.070   7.964
  183POPC   C4B 5926  40.562  15.127   7.664
  184POPC   NC3 5927  40.806  43.159   9.464
  184POPC   PO4 5928  40.776  43.159   9.164
  184POPC   GL1 5929  40.788  43.156   8.864
  184POPC   GL2 5930  40.729  43.182   8.864
  184POPC   C1A 5931  40.789  43.140   8.564
  184POPC   D2A 5932  40.831  43.071   8.264
  184POPC   C3A 5933  40.770  43.120   7.964
  184POPC   C4A 5934  40.788  43.155   7.664
  184POPC   C1B 5935  40.599  43.232   8.564
  184POPC   C2B 5936  40.606  43.295   8.264
  184POPC   C3B 5937  40.584  43.268   7.964
  184POPC   C4B 5938  40.583  43.280   7.664
  185POPC   NC3 5939   6.610   1.219   9.464
  185POPC   PO4 5940   6.688   1.186   9.164
  185POPC   GL1 5941   6.595   1.174   8.864
  185POPC   GL2 5942   6.732   1.248   8.864
  185POPC   C1A 5943   6.666   1.204   8.564
  185POPC   D2A 5944   6.643   1.168   8.264
  185POPC   C3A 5945   6.665   1.214   7.964
  185POPC   C4A 5946   6.688   1.224   7.664
  185POPC   C1B 5947   6.838   1.267   8.564
  185POPC   C2B 5948   6.862   1.269   8.264
  185POPC   C3B 5949   6.853   1.296   7.964
  185POPC   C4B 5950   6.920   1.265   7.664
  186POPC   NC3 5951  26.773  13.627   9.464
  186POPC   PO4 5952  26.808  13.586   9.164
  186POPC   GL1 5953  26.840  13.625   8.864
  186POPC   GL2 5954  26.658  13.726   8.864
  186POPC   C1A 5955  26.778  13.674   8.564
  186POPC   D2A 5956  26.785  13.629   8.264
  186POPC   C3A 5957  26.813  13.629   7.964
  186POPC   C4A 5958  26.863  13.597   7.664
  186POPC   C1B 5959  26.622  13.784   8.564
  186POPC   C2B 5960  26.545  13.780   8.264
  186POPC   C3B 5961  26.554  13.783   7.964
  186POPC   C4B 5962  26.640  13.701   7.664
  187POPC   NC3 5963  24.457  13.601   9.464
  187POPC   PO4 5964  24.463  13.632   9.164
  187POPC   GL1 5965  24.488  13.645   8.864
  187POPC   GL2 5966  24.354  13.507   8.864
  187POPC   C1A 5967  24.471  13.627   8.564
  187POPC   D2A 5968  24.484  13.615   8.264
  187POPC   C3A 5969  24.526  13.596   7.964
  187POPC   C4A 5970  24.454  13.635   7.664
  187POPC   C1B 5971  24.261  13.503   8.564
  187POPC   C2B 5972  24.278  13.437   8.264
  187POPC   C3B 5973  24.315  13.449   7.964
  187POPC   C4B 5974  24.335  13.506   7.664
  188POPC   NC3 5975  36.160  44.624   9.464
  188POPC   PO4 5976  36.113  44.617   9.164
  188POPC   GL1 5977  36.116  44.681   8.864
  188POPC   GL2 5978  36.192  44.518   8.864
  188POPC   C1A 5979  36.099  44.636   8.564
  188POPC   D2A 5980  36.085  44.620   8.264
  188POPC   C3A 5981  36.160  44.656   7.964
  188POPC   C4A 5982  36.143  44.647   7.664
  188POPC   C1B 5983  36.122  44.373   8.564
  188POPC   C2B 5984  36.208  44.394   8.264
  188POPC   C3B 5985  36.200  44.423   7.964
  188POPC   C4B 5986  36.175  44.464   7.664
  189POPC   NC3 5987  28.356  44.681   9.464
  189POPC   PO4 5988  28.329  44.660   9.164
  189POPC   GL1 5989  28.344  44.699   8.864
  189POPC   GL2 5990  28.388  44.770   8.864
  189POPC   C1A 5991  28.378  44.665   8.564
  189POPC   D2A 5992  28.338  44.623   8.264
  189POPC   C3A 5993  28.353  44.708   7.964
  189POPC   C4A 5994  28.375  44.621   7.664
  189POPC   C1B 5995  28.306  44.897   8.564
  189POPC   C2B 5996  28.334  44.888   8.264
  189POPC   C3B 5997  28.344  44.915   7.964
  189POPC   C4B 5998  28.355  44.912   7.664
  190POPC   NC3 5999  12.085  31.476   9.464
  190POPC   PO4 6000  12.090  31.498   9.164
  190POPC   GL1 6001  12.124  31.467   8.864
  190POPC   GL2 6002  12.207  31.425   8.864
  190POPC   C1A 6003  12.077  31.517   8.564
  190POPC   D2A 6004  12.091  31.522   8.264
  190POPC   C3A 6005  12.124  31.507   7.964
  190POPC   C4A 6006  12.104  31.445   7.664
  190POPC   C1B 6007  12.327  31.356   8.564
  190POPC   C2B 6008  12.354  31.381   8.264
  190POPC   C3B 6009  12.349  31.408   7.964
  190POPC   C4B 6010  12.363  31.411   7.664
  191POPC   NC3 6011  44.638  42.351   9.464
  191POPC   PO4 6012  44.668  42.342   9.164
  191POPC   GL1 6013  44.666  42.320   8.864
  191POPC   GL2 6014  44.766  42.388   8.864
  191POPC   C1A 6015  44.631  42.317   8.564
  191POPC   D2A 6016  44.679  42.346   8.264
  191POPC   C3A 6017  44.706  42.384   7.964
  191POPC   C4A 6018  44.705  42.336   7.664
  191POPC   C1B 6019  44.850  42.486   8.564
  191POPC   C2B 6020  44.861  42.482   8.264
  191POPC   C3B 6021  44.878  42.513   7.964
  191POPC   C4B 6022  44.879  42.524   7.664
  192POPC   NC3 6023  28.356  19.029   9.464
  192POPC   PO4 6024  28.404  19.083   9.164
  192POPC   GL1 6025  28.359  19.027   8.864
  192POPC   GL2 6026  28.317  18.935   8.864
  192POPC   C1A 6027  28.330  19.103   8.564
  192POPC   D2A 6028  28.418  19.024   8.264
  192POPC   C3A 6029  28.355  19.053   7.964
  192POPC   C4A 6030  28.391  19.019   7.664
  192POPC   C1B 6031  28.246  18.863   8.564
  192POPC   C2B 6032  28.262  18.849   8.264
  192POPC   C3B 6033  28.297  18.830   7.964
  192POPC   C4B 6034  28.284  18.777   7.664
  193POPC   NC3 6035  33.845   7.464   9.464
  193POPC   PO4 6036  33.797   7.458   9.164
  193POPC   GL1 6037  33.806   7.436   8.864
  193POPC   GL2 6038  33.862   7.511   8.864
  193POPC   C1A 6039  33.792   7.438   8.564
  193POPC   D2A 6040  33.830   7.372   8.264
  193POPC   C3A 6041  33.832   7.441   7.964
  193POPC   C4A 6042  33.814   7.456   7.664
  193POPC   C1B 6043  33.967   7.607   8.564
  193POPC   C2B 6044  33.880   7.603   8.264
  193POPC   C3B 6045  33.910   7.673   7.964
  193POPC   C4B 6046  33.945   7.607   7.664
  194POPC   NC3 6047  29.928   1.965   9.464
  194POPC   PO4 6048  29.947   2.016   9.164
  194POPC   GL1 6049  29.905   1.963   8.864
  194POPC   GL2 6050  30.023   1.926   8.864
  194POPC   C1A 6051  29.947   1.948   8.564
  194POPC   D2A 6052  29.958   2.017   8.264
  194POPC   C3A 6053  29.917   2.020   7.964
  194POPC   C4A 6054  29.928   2.022   7.664
  194POPC   C1B 6055  30.160   1.880   8.564
  194POPC   C2B 6056  30.097   1.879   8.264
  194POPC   C3B 6057  30.126   1.917   7.964
  194POPC   C4B 6058  30.168   1.871   7.664
  195POPC   NC3 6059  28.348  29.186   9.464
  195POPC   PO4 6060  28.385  29.153   9.164
  195POPC   GL1 6061  28.384  29.157   8.864
  195POPC   GL2 6062  28.314  29.116   8.864
  195POPC   C1A 6063  28.374  29.139   8.564
  195POPC   D2A 6064  28.367  29.192   8.264
  195POPC   C3A 6065  28.332  29.148   7.964
  195POPC   C4A 6066  28.324  29.182   7.664
  195POPC   C1B 6067  28.177  29.015   8.564
  195POPC   C2B 6068  28.154  29.026   8.264
  195POPC   C3B 6069  28.165  29.032   7.964
  195POPC   C4B 6070  28.158  29.034   7.664
  196POPC   NC3 6071  31.487  11.266   9.464
  196POPC   PO4 6072  31.516  11.314   9.164
  196POPC   GL1 6073  31.460  11.350   8.864
  196POPC   GL2 6074  31.528  11.376   8.864
  196POPC   C1A 6075  31.500  11.315   8.564
  196POPC   D2A 6076  31.492  11.296   8.264
  196POPC   C3A 6077  31.490  11.304   7.964
  196POPC   C4A 6078  31.511  11.254   7.664
  196POPC   C1B 6079  31.576  11.588   8.564
  196POPC   C2B 6080  31.594  11.501   8.264
  196POPC   C3B 6081  31.508  11.547   7.964
  196POPC   C4B 6082  31.542  11.505   7.664
  197POPC   NC3 6083  24.532   5.904   9.464
  197POPC   PO4 6084  24.479   5.855   9.164
  197POPC   GL1 6085  24.441   5.891   8.864
  197POPC   GL2 6086  24.399   5.799   8.864
  197POPC   C1A 6087  24.507   5.891   8.564
  197POPC   D2A 6088  24.488   5.918   8.264
  197POPC   C3A 6089  24.511   5.881   7.964
  197POPC   C4A 6090  24.499   5.864   7.664
  197POPC   C1B 6091  24.209   5.772   8.564
  197POPC   C2B 6092  24.290   5.774   8.264
  197POPC   C3B 6093  24.236   5.763   7.964
  197POPC   C4B 6094  24.284   5.814   7.664
  198POPC   NC3 6095  22.914  30.726   9.464
  198POPC   PO4 6096  22.946  30.718   9.164
  198POPC   GL1 6097  22.915  30.716   8.864
  198POPC   GL2 6098  22.849  30.634   8.864
  198POPC   C1A 6099  22.966  30.652   8.564
  198POPC   D2A 6100  22.946  30.703   8.264
  198POPC   C3A 6101  22.923  30.668   7.964
  198POPC   C4A 6102  22.949  30.664   7.664
  198POPC   C1B 6103  22.668  30.685   8.564
  198POPC   C2B 6104  22.645  30.612   8.264
  198POPC   C3B 6105  22.714  30.671   7.964
  198POPC   C4B 6106  22.738  30.638   7.664
  199POPC   NC3 6107   7.402  28.327   9.464
  199POPC   PO4 6108   7.454  28.378   9.164
  199POPC   GL1 6109   7.411  28.324   8.864
  199POPC   GL2 6110   7.588  28.377   8.864
  199POPC   C1A 6111   7.414  28.397   8.564
  199POPC   D2A 6112   7.419  28.383   8.264
  199POPC   C3A 6113   7.395  28.415   7.964
  199POPC   C4A 6114   7.439  28.389   7.664
  199POPC   C1B 6115   7.646  28.425   8.564
  199POPC   C2B 6116   7.705  28.454   8.264
  199POPC   C3B 6117   7.632  28.403   7.964
  199POPC   C4B 6118   7.685  28.432   7.664
  200POPC   NC3 6119   5.827   3.549   9.464
  200POPC   PO4 6120   5.834   3.575   9.164
  200POPC   GL1 6121   5.829   3.539   8.864
  200POPC   GL2 6122   6.000   3.488   8.864
  200POPC   C1A 6123   5.868   3.551   8.564
  200POPC   D2A 6124   5.914   3.589   8.264
  200POPC   C3A 6125   5.821   3.527   7.964
  200POPC   C4A 6126   5.852   3.513   7.664
  200POPC   C1B 6127   6.122   3.429   8.564
  200POPC   C2B 6128   6.151   3.468   8.264
  200POPC   C3B 6129   6.140   3.434   7.964
  200POPC   C4B 6130   6.057   3.463   7.664
  201POPC   NC3 6131  44.647   4.297   9.464
  201POPC   PO4 6132  44.650   4.302   9.164
  201POPC   GL1 6133  44.674   4.364   8.864
  201POPC   GL2 6134  44.640   4.187   8.864
  201POPC   C1A 6135  44.615   4.296   8.564
  201POPC   D2A 6136  44.617   4.366   8.264
  201POPC   C3A 6137  44.683   4.305   7.964
  201POPC   C4A 6138  44.684   4.342   7.664
  201POPC   C1B 6139  44.540   4.082   8.564
  201POPC   C2B 6140  44.502   4.100   8.264
  201POPC   C3B 6141  44.507   4.071   7.964
  201POPC   C4B 6142  44.510   4.127   7.664
  202POPC   NC3 6143  11.315  24.473   9.464
  202POPC   PO4 6144  11.330  24.455   9.164
  202POPC   GL1 6145  11.273  24.450   8.864
  202POPC   GL2 6146  11.369  24.557   8.864
  202POPC   C1A 6147  11.252  24.487   8.564
  202POPC   D2A 6148  11.305  24.514   8.264
  202POPC   C3A 6149  11.311  24.502   7.964
  202POPC   C4A 6150  11.310  24.446   7.664
  202POPC   C1B 6151  11.470  24.635   8.564
  202POPC   C2B 6152  11.507  24.625   8.264
  202POPC   C3B 6153  11.424  24.653   7.964
  202POPC   C4B 6154  11.485  24.705   7.664
  203POPC   NC3 6155  42.288  36.870   9.464
  203POPC   PO4 6156  42.324  36.943   9.164
  203POPC   GL1 6157  42.333  36.912   8.864
  203POPC   GL2 6158  42.413  36.812   8.864
  203POPC   C1A 6159  42.329  36.944   8.564
  203POPC   D2A 6160  42.312  36.948   8.264
  203POPC   C3A 6161  42.341  36.918   7.964
  203POPC   C4A 6162  42.378  36.858   7.664
  203POPC   C1B 6163  42.563  36.829   8.564
  203POPC   C2B 6164  42.517  36.765   8.264
  203POPC   C3B 6165  42.519  36.839   7.964
  203POPC   C4B 6166  42.517  36.848   7.664
  204POPC   NC3 6167   8.233  44.650   9.464
  204POPC   PO4 6168   8.170  44.653   9.164
  204POPC   GL1 6169   8.203  44.636   8.864
  204POPC   GL2 6170   8.100  44.802   8.864
  204POPC   C1A 6171   8.214  44.704   8.564
  204POPC   D2A 6172   8.156  44.694   8.264
  204POPC   C3A 6173   8.183  44.702   7.964
  204POPC   C4A 6174   8.151  44.699   7.664
  204POPC   C1B 6175   7.996  44.857   8.564
  204POPC   C2B 6176   8.055  44.864   8.264
  204POPC   C3B 6177   8.071  44.862   7.964
  204POPC   C4B 6178   8.071  44.869   7.664
  205POPC   NC3 6179  43.929  24.453   9.464
  205POPC   PO4 6180  43.862  24.450   9.164
  205POPC   GL1 6181  43.884  24.457   8.864
  205POPC   GL2 6182  43.785  24.542   8.864
  205POPC   C1A 6183  43.877  24.474   8.564
  205POPC   D2A 6184  43.870  24.461   8.264
  205POPC   C3A 6185  43.926  24.445   7.964
  205POPC   C4A 6186  43.896  24.461   7.664
  205POPC   C1B 6187  43.699  24.593   8.564
  205POPC   C2B 6188  43.647  24.598   8.264
  205POPC   C3B 6189  43.672  24.541   7.964
  205POPC   C4B 6190  43.660  24.594   7.664
  206POPC   NC3 6191  27.548  36.911   9.464
  206POPC   PO4 6192  27.626  36.951   9.164
  206POPC   GL1 6193  27.607  36.946   8.864
  206POPC   GL2 6194  27.516  36.924   8.864
  206POPC   C1A 6195  27.588  36.938   8.564
  206POPC   D2A 6196  27.559  36.908   8.264
  206POPC   C3A 6197  27.548  36.924   7.964
  206POPC   C4A 6198  27.588  36.936   7.664
  206POPC   C1B 6199  27.400  37.014   8.564
  206POPC   C2B 6200  27.369  37.021   8.264
  206POPC   C3B 6201  27.415  37.020   7.964
  206POPC   C4B 6202  27.384  36.986   7.664
  207POPC   NC3 6203   0.468  32.279   9.464
  207POPC   PO4 6204   0.407  32.216   9.164
  207POPC   GL1 6205   0.454  32.277   8.864
  207POPC   GL2 6206   0.516  32.385   8.864
  207POPC   C1A 6207   0.419  32.248   8.564
  207POPC   D2A 6208   0.481  32.208   8.264
  207POPC   C3A 6209   0.438  32.277   7.964
  207POPC   C4A 6210   0.400  32.274   7.664
  207POPC   C1B 6211   0.634  32.415   8.564
  207POPC   C2B 6212   0.611  32.455   8.264
  207POPC   C3B 6213   0.641  32.376   7.964
  207POPC   C4B 6214   0.656  32.398   7.664
  208POPC   NC3 6215  32.274  33.037   9.464
  208POPC   PO4 6216  32.227  33.018   9.164
  208POPC   GL1 6217  32.252  33.005   8.864
  208POPC   GL2 6218  32.107  32.961   8.864
  208POPC   C1A 6219  32.249  32.975   8.564
  208POPC   D2A 6220  32.261  33.018   8.264
  208POPC   C3A 6221  32.253  33.074   7.964
  208POPC   C4A 6222  32.247  33.023   7.664
  208POPC   C1B 6223  31.976  32.987   8.564
  208POPC   C2B 6224  32.060  32.944   8.264
  208POPC   C3B 6225  31.999  32.908   7.964
  208POPC   C4B 6226  32.002  32.978   7.664
  209POPC   NC3 6227  22.159  39.961   9.464
  209POPC   PO4 6228  22.163  39.973   9.164
  209POPC   GL1 6229  22.140  39.979   8.864
  209POPC   GL2 6230  22.255  39.877   8.864
  209POPC   C1A 6231  22.151  39.969   8.564
  209POPC   D2A 6232  22.136  40.021   8.264
  209POPC   C3A 6233  22.185  40.039   7.964
  209POPC   C4A 6234  22.126  40.037   7.664
  209POPC   C1B 6235  22.322  39.751   8.564
  209POPC   C2B 6236  22.235  39.787   8.264
  209POPC   C3B 6237  22.244  39.760   7.964
  209POPC   C4B 6238  22.311  39.801   7.664
  210POPC   NC3 6239  25.244  24.484   9.464
  210POPC   PO4 6240  25.295  24.531   9.164
  210POPC   GL1 6241  25.243  24.475   8.864
  210POPC   GL2 6242  25.358  24.569   8.864
  210POPC   C1A 6243  25.295  24.486   8.564
  210POPC   D2A 6244  25.290  24.457   8.264
  210POPC   C3A 6245  25.278  24.447   7.964
  210POPC   C4A 6246  25.285  24.536   7.664
  210POPC   C1B 6247  25.459  24.576   8.564
  210POPC   C2B 6248  25.449  24.585   8.264
  210POPC   C3B 6249  25.505  24.603   7.964
  210POPC   C4B 6250  25.528  24.539   7.664
  211POPC   NC3 6251   8.971  43.066   9.464
  211POPC   PO4 6252   8.945  43.134   9.164
  211POPC   GL1 6253   9.009  43.114   8.864
  211POPC   GL2 6254   8.944  43.268   8.864
  211POPC   C1A 6255   9.018  43.093   8.564
  211POPC   D2A 6256   8.995  43.096   8.264
  211POPC   C3A 6257   8.970  43.100   7.964
  211POPC   C4A 6258   8.990  43.109   7.664
  211POPC   C1B 6259   8.875  43.370   8.564
  211POPC   C2B 6260   8.842  43.294   8.264
  211POPC   C3B 6261   8.876  43.353   7.964
  211POPC   C4B 6262   8.858  43.311   7.664
  212POPC   NC3 6263  12.889  26.073   9.464
  212POPC   PO4 6264  12.875  26.063   9.164
  212POPC   GL1 6265  12.871  26.016   8.864
  212POPC   GL2 6266  12.858  25.970   8.864
  212POPC   C1A 6267  12.850  26.086   8.564
  212POPC   D2A 6268  12.892  25.995   8.264
  212POPC   C3A 6269  12.825  26.031   7.964
  212POPC   C4A 6270  12.889  26.085   7.664
  212POPC   C1B 6271  12.943  25.801   8.564
  212POPC   C2B 6272  12.950  25.761   8.264
  212POPC   C3B 6273  12.935  25.828   7.964
  212POPC   C4B 6274  12.879  25.785   7.664
  213POPC   NC3 6275  14.410   0.401   9.464
  213POPC   PO4 6276  14.361   0.407   9.164
  213POPC   GL1 6277  14.387   0.442   8.864
  213POPC   GL2 6278  14.517   0.399   8.864
  213POPC   C1A 6279  14.438   0.450   8.564
  213POPC   D2A 6280  14.418   0.445   8.264
  213POPC   C3A 6281  14.391   0.454   7.964
  213POPC   C4A 6282  14.376   0.458   7.664
  213POPC   C1B 6283  14.638   0.319   8.564
  213POPC   C2B 6284  14.607   0.296   8.264
  213POPC   C3B 6285  14.626   0.328   7.964
  213POPC   C4B 6286  14.609   0.261   7.664
  214POPC   NC3 6287  31.437   4.289   9.464
  214POPC   PO4 6288  31.503   4.296   9.164
  214POPC   GL1 6289  31.436   4.346   8.864
  214POPC   GL2 6290  31.510   4.408   8.864
  214POPC   C1A 6291  31.517   4.362   8.564
  214POPC   D2A 6292  31.503   4.294   8.264
  214POPC   C3A 6293  31.457   4.274   7.964
  214POPC   C4A 6294  31.454   4.354   7.664
  214POPC   C1B 6295  31.603   4.559   8.564
  214POPC   C2B 6296  31.541   4.535   8.264
  214POPC   C3B 6297  31.573   4.576   7.964
  214POPC   C4B 6298  31.619   4.583   7.664
  215POPC   NC3 6299  40.740   0.457   9.464
  215POPC   PO4 6300  40.820   0.421   9.164
  215POPC   GL1 6301  40.823   0.487   8.864
  215POPC   GL2 6302  40.705   0.591   8.864
  215POPC   C1A 6303  40.815   0.481   8.564
  215POPC   D2A 6304  40.830   0.424   8.264
  215POPC   C3A 6305  40.774   0.411   7.964
  215POPC   C4A 6306  40.801   0.402   7.664
  215POPC   C1B 6307  40.752   0.727   8.564
  215POPC   C2B 6308  40.691   0.658   8.264
  215POPC   C3B 6309  40.692   0.680   7.964
  215POPC   C4B 6310  40.768   0.655   7.664
  216POPC   NC3 6311   6.650  26.789   9.464
  216POPC   PO4 6312   6.668  26.831   9.164
  216POPC   GL1 6313   6.661  26.774   8.864
  216POPC   GL2 6314   6.575  26.952   8.864
  216POPC   C1A 6315   6.668  26.821   8.564
  216POPC   D2A 6316   6.619  26.836   8.264
  216POPC   C3A 6317   6.637  26.789   7.964
  216POPC   C4A 6318   6.660  26.791   7.664
  216POPC   C1B 6319   6.502  26.996   8.564
  216POPC   C2B 6320   6.505  27.052   8.264
  216POPC   C3B 6321   6.510  27.029   7.964
  216POPC   C4B 6322   6.531  27.011   7.664
  217POPC   NC3 6323  32.291  39.211   9.464
  217POPC   PO4 6324  32.261  39.280   9.164
  217POPC   GL1 6325  32.252  39.233   8.864
  217POPC   GL2 6326  32.199  39.300   8.864
  217POPC   C1A 6327  32.202  39.188   8.564
  217POPC   D2A 6328  32.235  39.240   8.264
  217POPC   C3A 6329  32.296  39.275   7.964
  217POPC   C4A 6330  32.214  39.182   7.664
  217POPC   C1B 6331  32.136  39.442   8.564
  217POPC   C2B 6332  32.164  39.432   8.264
  217POPC   C3B 6333  32.204  39.455   7.964
  217POPC   C4B 6334  32.148  39.500   7.664
  218POPC   NC3 6335  12.871  44.639   9.464
  218POPC   PO4 6336  12.885  44.651   9.164
  218POPC   GL1 6337  12.877  44.621   8.864
  218POPC   GL2 6338  12.989  44.635   8.864
  218POPC   C1A 6339  12.848  44.664   8.564
  218POPC   D2A 6340  12.819  44.649   8.264
  218POPC   C3A 6341  12.901  44.703   7.964
  218POPC   C4A 6342  12.868  44.663   7.664
  218POPC   C1B 6343  13.053  44.685   8.564
  218POPC   C2B 6344  13.143  44.644   8.264
  218POPC   C3B 6345  13.066  44.644   7.964
  218POPC   C4B 6346  13.086  44.679   7.664
  219POPC   NC3 6347   5.142  27.546   9.464
  219POPC   PO4 6348   5.111  27.547   9.164
  219POPC   GL1 6349   5.141  27.634   8.864
  219POPC   GL2 6350   5.207  27.668   8.864
  219POPC   C1A 6351   5.062  27.565   8.564
  219POPC   D2A 6352   5.061  27.556   8.264
  219POPC   C3A 6353   5.095  27.567   7.964
  219POPC   C4A 6354   5.078  27.567   7.664
  219POPC   C1B 6355   5.206  27.816   8.564
  219POPC   C2B 6356   5.199  27.750   8.264
  219POPC   C3B 6357   5.248  27.749   7.964
  219POPC   C4B 6358   5.231  27.769   7.664
  220POPC   NC3 6359  17.549  25.235   9.464
  220POPC   PO4 6360  17.536  25.243   9.164
  220POPC   GL1 6361  17.534  25.262   8.864
  220POPC   GL2 6362  17.439  25.149   8.864
  220POPC   C1A 6363  17.492  25.264   8.564
  220POPC   D2A 6364  17.480  25.274   8.264
  220POPC   C3A 6365  17.523  25.245   7.964
  220POPC   C4A 6366  17.553  25.217   7.664
  220POPC   C1B 6367  17.406  25.091   8.564
  220POPC   C2B 6368  17.354  25.070   8.264
  220POPC   C3B 6369  17.364  25.077   7.964
  220POPC   C4B 6370  17.397  25.055   7.664
  221POPC   NC3 6371  17.484  36.151   9.464
  221POPC   PO4 6372  17.484  36.170   9.164
  221POPC   GL1 6373  17.520  36.099   8.864
  221POPC   GL2 6374  17.490  36.011   8.864
  221POPC   C1A 6375  17.529  36.164   8.564
  221POPC   D2A 6376  17.553  36.124   8.264
  221POPC   C3A 6377  17.476  36.112   7.964
  221POPC   C4A 6378  17.527  36.120   7.664
  221POPC   C1B 6379  17.531  35.903   8.564
  221POPC   C2B 6380  17.517  35.888   8.264
  221POPC   C3B 6381  17.563  35.847   7.964
  221POPC   C4B 6382  17.494  35.868   7.664
  222POPC   NC3 6383  36.095   0.456   9.464
  222POPC   PO4 6384  36.107   0.395   9.164
  222POPC   GL1 6385  36.086   0.459   8.864
  222POPC   GL2 6386  36.048   0.477   8.864
  222POPC   C1A 6387  36.124   0.397   8.564
  222POPC   D2A 6388  36.151   0.478   8.264
  222POPC   C3A 6389  36.098   0.488   7.964
  222POPC   C4A 6390  36.107   0.470   7.664
  222POPC   C1B 6391  35.923   0.602   8.564
  222POPC   C2B 6392  35.950   0.560   8.264
  222POPC   C3B 6393  35.968   0.624   7.964
  222POPC   C4B 6394  35.989   0.631   7.664
  223POPC   NC3 6395  40.778  31.493   9.464
  223POPC   PO4 6396  40.827  31.466   9.164
  223POPC   GL1 6397  40.823  31.497   8.864
  223POPC   GL2 6398  40.721  31.525   8.864
  223POPC   C1A 6399  40.812  31.500   8.564
  223POPC   D2A 6400  40.779  31.464   8.264
  223POPC   C3A 6401  40.767  31.505   7.964
  223POPC   C4A 6402  40.772  31.518   7.664
  223POPC   C1B 6403  40.563  31.601   8.564
  223POPC   C2B 6404  40.576  31.630   8.264
  223POPC   C3B 6405  40.538  31.586   7.964
  223POPC   C4B 6406  40.603  31.633   7.664
  224POPC   NC3 6407  35.353  12.086   9.464
  224POPC   PO4 6408  35.372  12.112   9.164
  224POPC   GL1 6409  35.371  12.113   8.864
  224POPC   GL2 6410  35.264  12.034   8.864
  224POPC   C1A 6411  35.354  12.060   8.564
  224POPC   D2A 6412  35.343  12.122   8.264
  224POPC   C3A 6413  35.369  12.062   7.964
  224POPC   C4A 6414  35.393  12.063   7.664
  224POPC   C1B 6415  35.133  11.960   8.564
  224POPC   C2B 6416  35.140  11.905   8.264
  224POPC   C3B 6417  35.171  11.907   7.964
  224POPC   C4B 6418  35.146  11.893   7.664
  225POPC   NC3 6419  19.877   7.460   9.464
  225POPC   PO4 6420  19.810   7.394   9.164
  225POPC   GL1 6421  19.842   7.382   8.864
  225POPC   GL2 6422  19.768   7.272   8.864
  225POPC   C1A 6423  19.863   7.466   8.564
  225POPC   D2A 6424  19.857   7.387   8.264
  225POPC   C3A 6425  19.810   7.427   7.964
  225POPC   C4A 6426  19.859   7.405   7.664
  225POPC   C1B 6427  19.755   7.199   8.564
  225POPC   C2B 6428  19.700   7.198   8.264
  225POPC   C3B 6429  19.756   7.243   7.964
  225POPC   C4B 6430  19.678   7.191   7.664
  226POPC   NC3 6431  42.313  22.148   9.464
  226POPC   PO4 6432  42.328  22.172   9.164
  226POPC   GL1 6433  42.315  22.146   8.864
  226POPC   GL2 6434  42.179  22.190   8.864
  226POPC   C1A 6435  42.306  22.162   8.564
  226POPC   D2A 6436  42.325  22.196   8.264
  226POPC   C3A 6437  42.339  22.200   7.964
  226POPC   C4A 6438  42.369  22.201   7.664
  226POPC   C1B 6439  42.116  22.255   8.564
  226POPC   C2B 6440  42.062  22.316   8.264
  226POPC   C3B 6441  42.156  22.274   7.964
  226POPC   C4B 6442  42.083  22.315   7.664
  227POPC   NC3 6443  14.365  12.033   9.464
  227POPC   PO4 6444  14.386  12.055   9.164
  227POPC   GL1 6445  14.438  12.077   8.864
  227POPC   GL2 6446  14.341  12.164   8.864
  227POPC   C1A 6447  14.441  12.027   8.564
  227POPC   D2A 6448  14.368  12.113   8.264
  227POPC   C3A 6449  14.368  12.084   7.964
  227POPC   C4A 6450  14.392  12.060   7.664
  227POPC   C1B 6451  14.292  12.229   8.564
  227POPC   C2B 6452  14.249  12.291   8.264
  227POPC   C3B 6453  14.268  12.321   7.964
  227POPC   C4B 6454  14.240  12.257   7.664
  228POPC   NC3 6455   6.672  23.753   9.464
  228POPC   PO4 6456   6.643  23.689   9.164
  228POPC   GL1 6457   6.648  23.722   8.864
  228POPC   GL2 6458   6.670  23.816   8.864
  228POPC   C1A 6459   6.656  23.711   8.564
  228POPC   D2A 6460   6.693  23.707   8.264
  228POPC   C3A 6461   6.602  23.690   7.964
  228POPC   C4A 6462   6.625  23.733   7.664
  228POPC   C1B 6463   6.720  23.979   8.564
  228POPC   C2B 6464   6.664  23.941   8.264
  228POPC   C3B 6465   6.722  23.957   7.964
  228POPC   C4B 6466   6.694  23.979   7.664
  229POPC   NC3 6467  40.802  30.718   9.464
  229POPC   PO4 6468  40.800  30.703   9.164
  229POPC   GL1 6469  40.796  30.687   8.864
  229POPC   GL2 6470  40.931  30.702   8.864
  229POPC   C1A 6471  40.809  30.715   8.564
  229POPC   D2A 6472  40.825  30.657   8.264
  229POPC   C3A 6473  40.755  30.702   7.964
  229POPC   C4A 6474  40.760  30.651   7.664
  229POPC   C1B 6475  41.062  30.740   8.564
  229POPC   C2B 6476  41.068  30.797   8.264
  229POPC   C3B 6477  41.042  30.758   7.964
  229POPC   C4B 6478  41.028  30.775   7.664
  230POPC   NC3 6479  22.918  17.511   9.464
  230POPC   PO4 6480  22.949  17.528   9.164
  230POPC   GL1 6481  22.909  17.484   8.864
  230POPC   GL2 6482  23.031  17.428   8.864
  230POPC   C1A 6483  22.889  17.489   8.564
  230POPC   D2A 6484  22.918  17.517   8.264
  230POPC   C3A 6485  22.912  17.554   7.964
  230POPC   C4A 6486  22.985  17.486   7.664
  230POPC   C1B 6487  23.115  17.338   8.564
  230POPC   C2B 6488  23.073  17.299   8.264
  230POPC   C3B 6489  23.116  17.291   7.964
  230POPC   C4B 6490  23.126  17.334   7.664
  231POPC   NC3 6491  27.611  39.224   9.464
  231POPC   PO4 6492  27.617  39.206   9.164
  231POPC   GL1 6493  27.601  39.251   8.864
  231POPC   GL2 6494  27.434  39.231   8.864
  231POPC   C1A 6495  27.593  39.212   8.564
  231POPC   D2A 6496  27.558  39.217   8.264
  231POPC   C3A 6497  27.582  39.266   7.964
  231POPC   C4A 6498  27.641  39.184   7.664
  231POPC   C1B 6499  27.339  39.184   8.564
  231POPC   C2B 6500  27.346  39.159   8.264
  231POPC   C3B 6501  27.364  39.157   7.964
  231POPC   C4B 6502  27.352  39.108   7.664
  232POPC   NC3 6503  41.603   0.426   9.464
  232POPC   PO4 6504  41.553   0.452   9.164
  232POPC   GL1 6505  41.524   0.391   8.864
  232POPC   GL2 6506  41.680   0.477   8.864
  232POPC   C1A 6507  41.596   0.487   8.564
  232POPC   D2A 6508  41.567   0.458   8.264
  232POPC   C3A 6509  41.510   0.456   7.964
  232POPC   C4A 6510  41.592   0.485   7.664
  232POPC   C1B 6511  41.857   0.456   8.564
  232POPC   C2B 6512  41.806   0.443   8.264
  232POPC   C3B 6513  41.804   0.491   7.964
  232POPC   C4B 6514  41.835   0.431   7.664
  233POPC   NC3 6515  44.708  19.057   9.464
  233POPC   PO4 6516  44.625  19.075   9.164
  233POPC   GL1 6517  44.622  19.102   8.864
  233POPC   GL2 6518  44.816  19.050   8.864
  233POPC   C1A 6519  44.647  19.061   8.564
  233POPC   D2A 6520  44.674  19.098   8.264
  233POPC   C3A 6521  44.666  19.088   7.964
  233POPC   C4A 6522  44.625  19.099   7.664
  233POPC   C1B 6523  44.896  19.048   8.564
  233POPC   C2B 6524  44.871  19.065   8.264
  233POPC   C3B 6525  44.945  19.036   7.964
  233POPC   C4B 6526  44.938  19.001   7.664
  234POPC   NC3 6527  38.416   7.430   9.464
  234POPC   PO4 6528  38.470   7.434   9.164
  234POPC   GL1 6529  38.493   7.427   8.864
  234POPC   GL2 6530  38.382   7.351   8.864
  234POPC   C1A 6531  38.470   7.450   8.564
  234POPC   D2A 6532  38.489   7.390   8.264
  234POPC   C3A 6533  38.477   7.418   7.964
  234POPC   C4A 6534  38.501   7.456   7.664
  234POPC   C1B 6535  38.198   7.370   8.564
  234POPC   C2B 6536  38.249   7.325   8.264
  234POPC   C3B 6537  38.224   7.344   7.964
  234POPC   C4B 6538  38.234   7.381   7.664
  235POPC   NC3 6539   3.562  12.078   9.464
  235POPC   PO4 6540   3.589  12.057   9.164
  235POPC   GL1 6541   3.564  12.120   8.864
  235POPC   GL2 6542   3.633  11.928   8.864
  235POPC   C1A 6543   3.517  12.104   8.564
  235POPC   D2A 6544   3.491  12.028   8.264
  235POPC   C3A 6545   3.562  12.033   7.964
  235POPC   C4A 6546   3.520  12.065   7.664
  235POPC   C1B 6547   3.648  11.829   8.564
  235POPC   C2B 6548   3.659  11.863   8.264
  235POPC   C3B 6549   3.729  11.882   7.964
  235POPC   C4B 6550   3.689  11.877   7.664
  236POPC   NC3 6551  15.907   4.352   9.464
  236POPC   PO4 6552  15.959   4.332   9.164
  236POPC   GL1 6553  15.998   4.360   8.864
  236POPC   GL2 6554  15.954   4.171   8.864
  236POPC   C1A 6555  15.994   4.284   8.564
  236POPC   D2A 6556  15.977   4.360   8.264
  236POPC   C3A 6557  16.002   4.347   7.964
  236POPC   C4A 6558  15.945   4.330   7.664
  236POPC   C1B 6559  15.993   4.082   8.564
  236POPC   C2B 6560  15.965   4.039   8.264
  236POPC   C3B 6561  15.986   4.051   7.964
  236POPC   C4B 6562  15.974   4.056   7.664
  237POPC   NC3 6563  20.583  26.809   9.464
  237POPC   PO4 6564  20.563  26.829   9.164
  237POPC   GL1 6565  20.570  26.856   8.864
  237POPC   GL2 6566  20.648  26.940   8.864
  237POPC   C1A 6567  20.569  26.770   8.564
  237POPC   D2A 6568  20.632  26.785   8.264
  237POPC   C3A 6569  20.566  26.801   7.964
  237POPC   C4A 6570  20.580  26.773   7.664
  237POPC   C1B 6571  20.660  27.040   8.564
  237POPC   C2B 6572  20.662  27.020   8.264
  237POPC   C3B 6573  20.623  27.053   7.964
  237POPC   C4B 6574  20.636  27.088   7.664
  238POPC   NC3 6575   5.893  20.638   9.464
  238POPC   PO4 6576   5.825  20.598   9.164
  238POPC   GL1 6577   5.890  20.567   8.864
  238POPC   GL2 6578   5.740  20.541   8.864
  238POPC   C1A 6579   5.874  20.575   8.564
  238POPC   D2A 6580   5.895  20.620   8.264
  238POPC   C3A 6581   5.822  20.656   7.964
  238POPC   C4A 6582   5.897  20.654   7.664
  238POPC   C1B 6583   5.657  20.569   8.564
  238POPC   C2B 6584   5.628  20.601   8.264
  238POPC   C3B 6585   5.669  20.512   7.964
  238POPC   C4B 6586   5.653  20.562   7.664
  239POPC   NC3 6587  32.295  11.293   9.464
  239POPC   PO4 6588  32.263  11.312   9.164
  239POPC   GL1 6589  32.259  11.315   8.864
  239POPC   GL2 6590  32.117  11.324   8.864
  239POPC   C1A 6591  32.259  11.310   8.564
  239POPC   D2A 6592  32.202  11.293   8.264
  239POPC   C3A 6593  32.272  11.286   7.964
  239POPC   C4A 6594  32.265  11.287   7.664
  239POPC   C1B 6595  32.005  11.287   8.564
  239POPC   C2B 6596  32.019  11.251   8.264
  239POPC   C3B 6597  32.002  11.319   7.964
  239POPC   C4B 6598  31.999  11.339   7.664
  240POPC   NC3 6599   4.314  32.233   9.464
  240POPC   PO4 6600   4.269  32.248   9.164
  240POPC   GL1 6601   4.339  32.293   8.864
  240POPC   GL2 6602   4.200  32.392   8.864
  240POPC   C1A 6603   4.367  32.237   8.564
  240POPC   D2A 6604   4.351  32.242   8.264
  240POPC   C3A 6605   4.283  32.237   7.964
  240POPC   C4A 6606   4.270  32.204   7.664
  240POPC   C1B 6607   4.211  32.474   8.564
  240POPC   C2B 6608   4.135  32.426   8.264
  240POPC   C3B 6609   4.154  32.422   7.964
  240POPC   C4B 6610   4.146  32.483   7.664
  241POPC   NC3 6611   7.412   8.190   9.464
  241POPC   PO4 6612   7.374   8.200   9.164
  241POPC   GL1 6613   7.468   8.160   8.864
  241POPC   GL2 6614   7.485   8.322   8.864
  241POPC   C1A 6615   7.393   8.208   8.564
  241POPC   D2A 6616   7.379   8.234   8.264
  241POPC   C3A 6617   7.466   8.196   7.964
  241POPC   C4A 6618   7.403   8.193   7.664
  241POPC   C1B 6619   7.464   8.411   8.564
  241POPC   C2B 6620   7.448   8.486   8.264
  241POPC   C3B 6621   7.501   8.471   7.964
  241POPC   C4B 6622   7.503   8.413   7.664
  242POPC   NC3 6623  33.061  12.886   9.464
  242POPC   PO4 6624  33.001  12.809   9.164
  242POPC   GL1 6625  33.035  12.822   8.864
  242POPC   GL2 6626  33.173  12.850   8.864
  242POPC   C1A 6627  33.043  12.838   8.564
  242POPC   D2A 6628  33.003  12.806   8.264
  242POPC   C3A 6629  33.011  12.832   7.964
  242POPC   C4A 6630  32.993  12.873   7.664
  242POPC   C1B 6631  33.280  12.760   8.564
  242POPC   C2B 6632  33.287  12.801   8.264
  242POPC   C3B 6633  33.267  12.773   7.964
  242POPC   C4B 6634  33.312  12.750   7.664
  243POPC   NC3 6635   3.510   2.786   9.464
  243POPC   PO4 6636   3.581   2.779   9.164
  243POPC   GL1 6637   3.543   2.808   8.864
  243POPC   GL2 6638   3.634   2.640   8.864
  243POPC   C1A 6639   3.552   2.780   8.564
  243POPC   D2A 6640   3.588   2.787   8.264
  243POPC   C3A 6641   3.505   2.761   7.964
  243POPC   C4A 6642   3.492   2.809   7.664
  243POPC   C1B 6643   3.651   2.504   8.564
  243POPC   C2B 6644   3.654   2.549   8.264
  243POPC   C3B 6645   3.675   2.506   7.964
  243POPC   C4B 6646   3.619   2.521   7.664
  244POPC   NC3 6647  29.941   1.232   9.464
  244POPC   PO4 6648  29.892   1.195   9.164
  244POPC   GL1 6649  29.876   1.257   8.864
  244POPC   GL2 6650  29.883   1.290   8.864
  244POPC   C1A 6651  29.969   1.196   8.564
  244POPC   D2A 6652  29.931   1.182   8.264
  244POPC   C3A 6653  29.965   1.243   7.964
  244POPC   C4A 6654  29.936   1.217   7.664
  244POPC   C1B 6655  29.792   1.435   8.564
  244POPC   C2B 6656  29.760   1.452   8.264
  244POPC   C3B 6657  29.732   1.367   7.964
  244POPC   C4B 6658  29.763   1.434   7.664
  245POPC   NC3 6659   0.400  18.302   9.464
  245POPC   PO4 6660   0.405  18.282   9.164
  245POPC   GL1 6661   0.426  18.256   8.864
  245POPC   GL2 6662   0.546  18.352   8.864
  245POPC   C1A 6663   0.457  18.330   8.564
  245POPC   D2A 6664   0.418  18.329   8.264
  245POPC   C3A 6665   0.449  18.264   7.964
  245POPC   C4A 6666   0.410  18.321   7.664
  245POPC   C1B 6667   0.578  18.496   8.564
  245POPC   C2B 6668   0.565  18.471   8.264
  245POPC   C3B 6669   0.569  18.457   7.964
  245POPC   C4B 6670   0.574  18.543   7.664
  246POPC   NC3 6671   4.273  24.527   9.464
  246POPC   PO4 6672   4.284  24.536   9.164
  246POPC   GL1 6673   4.289  24.451   8.864
  246POPC   GL2 6674   4.381  24.536   8.864
  246POPC   C1A 6675   4.295  24.451   8.564
  246POPC   D2A 6676   4.313  24.474   8.264
  246POPC   C3A 6677   4.287  24.498   7.964
  246POPC   C4A 6678   4.310  24.527   7.664
  246POPC   C1B 6679   4.510  24.613   8.564
  246POPC   C2B 6680   4.550  24.610   8.264
  246POPC   C3B 6681   4.531  24.642   7.964
  246POPC   C4B 6682   4.544  24.610   7.664
  247POPC   NC3 6683  35.305  27.619   9.464
  247POPC   PO4 6684  35.362  27.560   9.164
  247POPC   GL1 6685  35.316  27.614   8.864
  247POPC   GL2 6686  35.292  27.515   8.864
  247POPC   C1A 6687  35.326  27.552   8.564
  247POPC   D2A 6688  35.331  27.559   8.264
  247POPC   C3A 6689  35.339  27.552   7.964
  247POPC   C4A 6690  35.347  27.609   7.664
  247POPC   C1B 6691  35.277  27.327   8.564
  247POPC   C2B 6692  35.330  27.368   8.264
  247POPC   C3B 6693  35.253  27.357   7.964
  247POPC   C4B 6694  35.250  27.367   7.664
  248POPC   NC3 6695  25.999  30.660   9.464
  248POPC   PO4 6696  26.033  30.719   9.164
  248POPC   GL1 6697  26.085  30.654   8.864
  248POPC   GL2 6698  25.995  30.840   8.864
  248POPC   C1A 6699  26.061  30.660   8.564
  248POPC   D2A 6700  26.063  30.657   8.264
  248POPC   C3A 6701  26.012  30.746   7.964
  248POPC   C4A 6702  26.026  30.740   7.664
  248POPC   C1B 6703  26.062  30.982   8.564
  248POPC   C2B 6704  25.993  30.987   8.264
  248POPC   C3B 6705  25.974  30.934   7.964
  248POPC   C4B 6706  26.025  30.922   7.664
  249POPC   NC3 6707  39.216  11.344   9.464
  249POPC   PO4 6708  39.270  11.333   9.164
  249POPC   GL1 6709  39.212  11.265   8.864
  249POPC   GL2 6710  39.343  11.345   8.864
  249POPC   C1A 6711  39.197  11.349   8.564
  249POPC   D2A 6712  39.222  11.310   8.264
  249POPC   C3A 6713  39.251  11.295   7.964
  249POPC   C4A 6714  39.261  11.286   7.664
  249POPC   C1B 6715  39.439  11.443   8.564
  249POPC   C2B 6716  39.471  11.472   8.264
  249POPC   C3B 6717  39.404  11.476   7.964
  249POPC   C4B 6718  39.425  11.410   7.664
  250POPC   NC3 6719   2.753  36.120   9.464
  250POPC   PO4 6720   2.805  36.127   9.164
  250POPC   GL1 6721   2.798  36.168   8.864
  250POPC   GL2 6722   2.854  36.217   8.864
  250POPC   C1A 6723   2.736  36.161   8.564
  250POPC   D2A 6724   2.752  36.169   8.264
  250POPC   C3A 6725   2.737  36.130   7.964
  250POPC   C4A 6726   2.731  36.164   7.664
  250POPC   C1B 6727   2.882  36.343   8.564
  250POPC   C2B 6728   2.871  36.367   8.264
  250POPC   C3B 6729   2.825  36.376   7.964
  250POPC   C4B 6730   2.895  36.341   7.664
  251POPC   NC3 6731  10.501   7.396   9.464
  251POPC   PO4 6732  10.547   7.421   9.164
  251POPC   GL1 6733  10.484   7.463   8.864
  251POPC   GL2 6734  10.572   7.353   8.864
  251POPC   C1A 6735  10.536   7.468   8.564
  251POPC   D2A 6736  10.508   7.429   8.264
  251POPC   C3A 6737  10.504   7.439   7.964
  251POPC   C4A 6738  10.526   7.466   7.664
  251POPC   C1B 6739  10.650   7.193   8.564
  251POPC   C2B 6740  10.613   7.256   8.264
  251POPC   C3B 6741  10.633   7.231   7.964
  251POPC   C4B 6742  10.611   7.161   7.664
  252POPC   NC3 6743  13.587   4.318   9.464
  252POPC   PO4 6744  13.586   4.322   9.164
  252POPC   GL1 6745  13.613   4.271   8.864
  252POPC   GL2 6746  13.521   4.320   8.864
  252POPC   C1A 6747  13.666   4.357   8.564
  252POPC   D2A 6748  13.618   4.366   8.264
  252POPC   C3A 6749  13.605   4.327   7.964
  252POPC   C4A 6750  13.609   4.295   7.664
  252POPC   C1B 6751  13.386   4.353   8.564
  252POPC   C2B 6752  13.373   4.323   8.264
  252POPC   C3B 6753  13.425   4.381   7.964
  252POPC   C4B 6754  13.413   4.355   7.664
  253POPC   NC3 6755   1.190  23.666   9.464
  253POPC   PO4 6756   1.211  23.723   9.164
  253POPC   GL1 6757   1.262  23.730   8.864
  253POPC   GL2 6758   1.272  23.793   8.864
  253POPC   C1A 6759   1.243  23.719   8.564
  253POPC   D2A 6760   1.210  23.746   8.264
  253POPC   C3A 6761   1.254  23.743   7.964
  253POPC   C4A 6762   1.194  23.710   7.664
  253POPC   C1B 6763   1.377  23.836   8.564
  253POPC   C2B 6764   1.404  23.910   8.264
  253POPC   C3B 6765   1.417  23.894   7.964
  253POPC   C4B 6766   1.404  23.926   7.664
  254POPC   NC3 6767  13.603   8.206   9.464
  254POPC   PO4 6768  13.600   8.148   9.164
  254POPC   GL1 6769  13.648   8.185   8.864
  254POPC   GL2 6770  13.640   8.293   8.864
  254POPC   C1A 6771  13.621   8.213   8.564
  254POPC   D2A 6772  13.590   8.186   8.264
  254POPC   C3A 6773  13.672   8.234   7.964
  254POPC   C4A 6774  13.633   8.212   7.664
  254POPC   C1B 6775  13.731   8.428   8.564
  254POPC   C2B 6776  13.699   8.458   8.264
  254POPC   C3B 6777  13.707   8.402   7.964
  254POPC   C4B 6778  13.662   8.475   7.664
  255POPC   NC3 6779  40.756  35.384   9.464
  255POPC   PO4 6780  40.777  35.323   9.164
  255POPC   GL1 6781  40.815  35.397   8.864
  255POPC   GL2 6782  40.911  35.364   8.864
  255POPC   C1A 6783  40.782  35.330   8.564
  255POPC   D2A 6784  40.746  35.384   8.264
  255POPC   C3A 6785  40.831  35.361   7.964
  255POPC   C4A 6786  40.777  35.396   7.664
  255POPC   C1B 6787  40.994  35.411   8.564
  255POPC   C2B 6788  40.979  35.401   8.264
  255POPC   C3B 6789  41.023  35.379   7.964
  255POPC   C4B 6790  41.075  35.436   7.664
  256POPC   NC3 6791  37.728  38.414   9.464
  256POPC   PO4 6792  37.671  38.487   9.164
  256POPC   GL1 6793  37.684  38.462   8.864
  256POPC   GL2 6794  37.643  38.337   8.864
  256POPC   C1A 6795  37.691  38.446   8.564
  256POPC   D2A 6796  37.729  38.422   8.264
  256POPC   C3A 6797  37.678  38.489   7.964
  256POPC   C4A 6798  37.724  38.490   7.664
  256POPC   C1B 6799  37.686  38.198   8.564
  256POPC   C2B 6800  37.652  38.230   8.264
  256POPC   C3B 6801  37.682  38.158   7.964
  256POPC   C4B 6802  37.694  38.171   7.664
  257POPC   NC3 6803   1.994  29.117   9.464
  257POPC   PO4 6804   2.005  29.181   9.164
  257POPC   GL1 6805   1.945  29.168   8.864
  257POPC   GL2 6806   1.878  29.165   8.864
  257POPC   C1A 6807   2.024  29.145   8.564
  257POPC   D2A 6808   1.978  29.193   8.264
  257POPC   C3A 6809   2.015  29.102   7.964
  257POPC   C4A 6810   1.946  29.110   7.664
  257POPC   C1B 6811   1.732  29.168   8.564
  257POPC   C2B 6812   1.760  29.111   8.264
  257POPC   C3B 6813   1.699  29.123   7.964
  257POPC   C4B 6814   1.733  29.126   7.664
  258POPC   NC3 6815  12.828  36.925   9.464
  258POPC   PO4 6816  12.869  36.945   9.164
  258POPC   GL1 6817  12.853  36.907   8.864
  258POPC   GL2 6818  12.747  36.898   8.864
  258POPC   C1A 6819  12.827  36.910   8.564
  258POPC   D2A 6820  12.812  36.872   8.264
  258POPC   C3A 6821  12.879  36.878   7.964
  258POPC   C4A 6822  12.877  36.908   7.664
  258POPC   C1B 6823  12.589  36.788   8.564
  258POPC   C2B 6824  12.669  36.787   8.264
  258POPC   C3B 6825  12.653  36.762   7.964
  258POPC   C4B 6826  12.621  36.812   7.664
  259POPC   NC3 6827  40.816   3.565   9.464
  259POPC   PO4 6828  40.745   3.579   9.164
  259POPC   GL1 6829  40.774   3.508   8.864
  259POPC   GL2 6830  40.919   3.516   8.864
  259POPC   C1A 6831  40.816   3.534   8.564
  259POPC   D2A 6832  40.813   3.547   8.264
  259POPC   C3A 6833  40.787   3.516   7.964
  259POPC   C4A 6834  40.814   3.586   7.664
  259POPC   C1B 6835  41.006   3.425   8.564
  259POPC   C2B 6836  41.016   3.428   8.264
  259POPC   C3B 6837  40.962   3.386   7.964
  259POPC   C4B 6838  40.997   3.406   7.664
  260POPC   NC3 6839  34.530  29.936   9.464
  260POPC   PO4 6840  34.607  29.881   9.164
  260POPC   GL1 6841  34.623  29.962   8.864
  260POPC   GL2 6842  34.433  29.893   8.864
  260POPC   C1A 6843  34.593  29.872   8.564
  260POPC   D2A 6844  34.542  29.956   8.264
  260POPC   C3A 6845  34.620  29.885   7.964
  260POPC   C4A 6846  34.581  29.889   7.664
  260POPC   C1B 6847  34.337  29.852   8.564
  260POPC   C2B 6848  34.302  29.811   8.264
  260POPC   C3B 6849  34.371  29.827   7.964
  260POPC   C4B 6850  34.384  29.823   7.664
  261POPC   NC3 6851  33.016  13.625   9.464
  261POPC   PO4 6852  33.008  13.654   9.164
  261POPC   GL1 6853  32.976  13.625   8.864
  261POPC   GL2 6854  33.092  13.643   8.864
  261POPC   C1A 6855  33.007  13.674   8.564
  261POPC   D2A 6856  32.986  13.621   8.264
  261POPC   C3A 6857  33.040  13.670   7.964
  261POPC   C4A 6858  33.049  13.627   7.664
  261POPC   C1B 6859  33.256  13.746   8.564
  261POPC   C2B 6860  33.273  13.714   8.264
  261POPC   C3B 6861  33.233  13.728   7.964
  261POPC   C4B 6862  33.205  13.703   7.664
  262POPC   NC3 6863   9.740  26.006   9.464
  262POPC   PO4 6864   9.707  26.049   9.164
  262POPC   GL1 6865   9.723  26.062   8.864
  262POPC   GL2 6866   9.806  26.180   8.864
  262POPC   C1A 6867   9.779  26.091   8.564
  262POPC   D2A 6868   9.744  26.017   8.264
  262POPC   C3A 6869   9.718  26.051   7.964
  262POPC   C4A 6870   9.703  26.058   7.664
  262POPC   C1B 6871   9.933  26.290   8.564
  262POPC   C2B 6872   9.846  26.239   8.264
  262POPC   C3B 6873   9.929  26.253   7.964
  262POPC   C4B 6874   9.897  26.299   7.664
  263POPC   NC3 6875  22.971  34.578   9.464
  263POPC   PO4 6876  22.963  34.608   9.164
  263POPC   GL1 6877  22.945  34.610   8.864
  263POPC   GL2 6878  23.000  34.712   8.864
  263POPC   C1A 6879  22.955  34.594   8.564
  263POPC   D2A 6880  22.943  34.539   8.264
  263POPC   C3A 6881  22.894  34.546   7.964
  263POPC   C4A 6882  22.956  34.588   7.664
  263POPC   C1B 6883  23.098  34.791   8.564
  263POPC   C2B 6884  23.098  34.755   8.264
  263POPC   C3B 6885  23.111  34.806   7.964
  263POPC   C4B 6886  23.117  34.739   7.664
  264POPC   NC3 6887  12.090  27.570   9.464
  264POPC   PO4 6888  12.068  27.621   9.164
  264POPC   GL1 6889  12.056  27.579   8.864
  264POPC   GL2 6890  11.938  27.636   8.864
  264POPC   C1A 6891  12.046  27.611   8.564
  264POPC   D2A 6892  12.055  27.587   8.264
  264POPC   C3A 6893  12.071  27.553   7.964
  264POPC   C4A 6894  12.047  27.637   7.664
  264POPC   C1B 6895  11.906  27.684   8.564
  264POPC   C2B 6896  11.822  27.768   8.264
  264POPC   C3B 6897  11.883  27.715   7.964
  264POPC   C4B 6898  11.876  27.732   7.664
  265POPC   NC3 6899  24.440   7.459   9.464
  265POPC   PO4 6900  24.463   7.443   9.164
  265POPC   GL1 6901  24.525   7.372   8.864
  265POPC   GL2 6902  24.457   7.515   8.864
  265POPC   C1A 6903  24.513   7.405   8.564
  265POPC   D2A 6904  24.469   7.399   8.264
  265POPC   C3A 6905  24.485   7.439   7.964
  265POPC   C4A 6906  24.523   7.453   7.664
  265POPC   C1B 6907  24.377   7.659   8.564
  265POPC   C2B 6908  24.367   7.683   8.264
  265POPC   C3B 6909  24.386   7.639   7.964
  265POPC   C4B 6910  24.420   7.615   7.664
  266POPC   NC3 6911  26.798  43.157   9.464
  266POPC   PO4 6912  26.843  43.065   9.164
  266POPC   GL1 6913  26.854  43.074   8.864
  266POPC   GL2 6914  26.756  43.266   8.864
  266POPC   C1A 6915  26.844  43.110   8.564
  266POPC   D2A 6916  26.837  43.117   8.264
  266POPC   C3A 6917  26.780  43.153   7.964
  266POPC   C4A 6918  26.815  43.073   7.664
  266POPC   C1B 6919  26.798  43.391   8.564
  266POPC   C2B 6920  26.784  43.349   8.264
  266POPC   C3B 6921  26.819  43.312   7.964
  266POPC   C4B 6922  26.818  43.328   7.664
  267POPC   NC3 6923  44.630  19.828   9.464
  267POPC   PO4 6924  44.644  19.878   9.164
  267POPC   GL1 6925  44.660  19.818   8.864
  267POPC   GL2 6926  44.684  19.732   8.864
  267POPC   C1A 6927  44.705  19.799   8.564
  267POPC   D2A 6928  44.676  19.819   8.264
  267POPC   C3A 6929  44.694  19.833   7.964
  267POPC   C4A 6930  44.627  19.840   7.664
  267POPC   C1B 6931  44.691  19.609   8.564
  267POPC   C2B 6932  44.662  19.569   8.264
  267POPC   C3B 6933  44.662  19.581   7.964
  267POPC   C4B 6934  44.653  19.621   7.664
  268POPC   NC3 6935   5.112  39.206   9.464
  268POPC   PO4 6936   5.105  39.272   9.164
  268POPC   GL1 6937   5.054  39.279   8.864
  268POPC   GL2 6938   5.105  39.401   8.864
  268POPC   C1A 6939   5.119  39.207   8.564
  268POPC   D2A 6940   5.070  39.195   8.264
  268POPC   C3A 6941   5.140  39.198   7.964
  268POPC   C4A 6942   5.055  39.274   7.664
  268POPC   C1B 6943   5.143  39.524   8.564
  268POPC   C2B 6944   5.181  39.520   8.264
  268POPC   C3B 6945   5.120  39.489   7.964
  268POPC   C4B 6946   5.099  39.520   7.664
  269POPC   NC3 6947  38.441  22.131   9.464
  269POPC   PO4 6948  38.457  22.206   9.164
  269POPC   GL1 6949  38.407  22.146   8.864
  269POPC   GL2 6950  38.455  22.248   8.864
  269POPC   C1A 6951  38.417  22.121   8.564
  269POPC   D2A 6952  38.474  22.125   8.264
  269POPC   C3A 6953  38.481  22.126   7.964
  269POPC   C4A 6954  38.472  22.112   7.664
  269POPC   C1B 6955  38.515  22.368   8.564
  269POPC   C2B 6956  38.489  22.428   8.264
  269POPC   C3B 6957  38.509  22.442   7.964
  269POPC   C4B 6958  38.522  22.380   7.664
  270POPC   NC3 6959  15.947  13.666   9.464
  270POPC   PO4 6960  15.910  13.626   9.164
  270POPC   GL1 6961  15.933  13.621   8.864
  270POPC   GL2 6962  16.074  13.681   8.864
  270POPC   C1A 6963  15.977  13.622   8.564
  270POPC   D2A 6964  15.990  13.676   8.264
  270POPC   C3A 6965  15.961  13.652   7.964
  270POPC   C4A 6966  15.949  13.662   7.664
  270POPC   C1B 6967  16.153  13.800   8.564
  270POPC   C2B 6968  16.150  13.841   8.264
  270POPC   C3B 6969  16.137  13.758   7.964
  270POPC   C4B 6970  16.176  13.775   7.664
  271POPC   NC3 6971  36.151   3.524   9.464
  271POPC   PO4 6972  36.114   3.512   9.164
  271POPC   GL1 6973  36.152   3.548   8.864
  271POPC   GL2 6974  36.261   3.458   8.864
  271POPC   C1A 6975  36.146   3.551   8.564
  271POPC   D2A 6976  36.153   3.498   8.264
  271POPC   C3A 6977  36.080   3.578   7.964
  271POPC   C4A 6978  36.111   3.528   7.664
  271POPC   C1B 6979  36.354   3.467   8.564
  271POPC   C2B 6980  36.362   3.477   8.264
  271POPC   C3B 6981  36.406   3.419   7.964
  271POPC   C4B 6982  36.368   3.505   7.664
  272POPC   NC3 6983  40.813  28.400   9.464
  272POPC   PO4 6984  40.804  28.411   9.164
  272POPC   GL1 6985  40.808  28.351   8.864
  272POPC   GL2 6986  40.809  28.235   8.864
  272POPC   C1A 6987  40.781  28.332   8.564
  272POPC   D2A 6988  40.748  28.374   8.264
  272POPC   C3A 6989  40.770  28.405   7.964
  272POPC   C4A 6990  40.828  28.342   7.664
  272POPC   C1B 6991  40.831  28.102   8.564
  272POPC   C2B 6992  40.825  28.071   8.264
  272POPC   C3B 6993  40.852  28.152   7.964
  272POPC   C4B 6994  40.810  28.103   7.664
  273POPC   NC3 6995  32.262   2.775   9.464
  273POPC   PO4 6996  32.204   2.751   9.164
  273POPC   GL1 6997  32.230   2.800   8.864
  273POPC   GL2 6998  32.325   2.669   8.864
  273POPC   C1A 6999  32.210   2.738   8.564
  273POPC   D2A 7000  32.199   2.793   8.264
  273POPC   C3A 7001  32.239   2.724   7.964
  273POPC   C4A 7002  32.224   2.775   7.664
  273POPC   C1B 7003  32.365   2.487   8.564
  273POPC   C2B 7004  32.367   2.503   8.264
  273POPC   C3B 7005  32.321   2.489   7.964
  273POPC   C4B 7006  32.339   2.577   7.664
  274POPC   NC3 7007  23.705  37.682   9.464
  274POPC   PO4 7008  23.715  37.644   9.164
  274POPC   GL1 7009  23.708  37.670   8.864
  274POPC   GL2 7010  23.766  37.615   8.864
  274POPC   C1A 7011  23.730  37.682   8.564
  274POPC   D2A 7012  23.734  37.651   8.264
  274POPC   C3A 7013  23.698  37.674   7.964
  274POPC   C4A 7014  23.758  37.659   7.664
  274POPC   C1B 7015  23.860  37.492   8.564
  274POPC   C2B 7016  23.849  37.452   8.264
  274POPC   C3B 7017  23.929  37.513   7.964
  274POPC   C4B 7018  23.895  37.521   7.664
  275POPC   NC3 7019  26.852  19.054   9.464
  275POPC   PO4 7020  26.859  19.027   9.164
  275POPC   GL1 7021  26.805  19.029   8.864
  275POPC   GL2 7022  26.813  19.153   8.864
  275POPC   C1A 7023  26.785  19.049   8.564
  275POPC   D2A 7024  26.865  19.058   8.264
  275POPC   C3A 7025  26.835  19.016   7.964
  275POPC   C4A 7026  26.821  19.031   7.664
  275POPC   C1B 7027  26.853  19.294   8.564
  275POPC   C2B 7028  26.854  19.308   8.264
  275POPC   C3B 7029  26.892  19.325   7.964
  275POPC   C4B 7030  26.905  19.319   7.664
  276POPC   NC3 7031  32.258  22.919   9.464
  276POPC   PO4 7032  32.277  22.955   9.164
  276POPC   GL1 7033  32.227  22.986   8.864
  276POPC   GL2 7034  32.125  23.054   8.864
  276POPC   C1A 7035  32.253  22.955   8.564
  276POPC   D2A 7036  32.293  22.912   8.264
  276POPC   C3A 7037  32.258  22.906   7.964
  276POPC   C4A 7038  32.291  22.973   7.664
  276POPC   C1B 7039  32.074  23.094   8.564
  276POPC   C2B 7040  32.045  23.077   8.264
  276POPC   C3B 7041  32.003  23.050   7.964
  276POPC   C4B 7042  32.058  23.105   7.664
  277POPC   NC3 7043  15.987  22.973   9.464
  277POPC   PO4 7044  15.937  22.925   9.164
  277POPC   GL1 7045  15.908  22.909   8.864
  277POPC   GL2 7046  16.075  23.031   8.864
  277POPC   C1A 7047  15.907  22.941   8.564
  277POPC   D2A 7048  15.990  22.941   8.264
  277POPC   C3A 7049  15.920  22.926   7.964
  277POPC   C4A 7050  16.000  22.983   7.664
  277POPC   C1B 7051  16.190  23.038   8.564
  277POPC   C2B 7052  16.197  23.114   8.264
  277POPC   C3B 7053  16.201  23.094   7.964
  277POPC   C4B 7054  16.152  23.035   7.664
  278POPC   NC3 7055   0.394  29.153   9.464
  278POPC   PO4 7056   0.392  29.164   9.164
  278POPC   GL1 7057   0.456  29.159   8.864
  278POPC   GL2 7058   0.558  29.183   8.864
  278POPC   C1A 7059   0.482  29.178   8.564
  278POPC   D2A 7060   0.483  29.117   8.264
  278POPC   C3A 7061   0.448  29.179   7.964
  278POPC   C4A 7062   0.396  29.173   7.664
  278POPC   C1B 7063   0.682  29.172   8.564
  278POPC   C2B 7064   0.639  29.191   8.264
  278POPC   C3B 7065   0.665  29.214   7.964
  278POPC   C4B 7066   0.651  29.188   7.664
  279POPC   NC3 7067  33.027  43.848   9.464
  279POPC   PO4 7068  33.029  43.854   9.164
  279POPC   GL1 7069  33.037  43.885   8.864
  279POPC   GL2 7070  33.086  43.971   8.864
  279POPC   C1A 7071  33.045  43.852   8.564
  279POPC   D2A 7072  32.995  43.914   8.264
  279POPC   C3A 7073  33.004  43.864   7.964
  279POPC   C4A 7074  33.061  43.857   7.664
  279POPC   C1B 7075  33.210  44.072   8.564
  279POPC   C2B 7076  33.178  44.128   8.264
  279POPC   C3B 7077  33.229  44.068   7.964
  279POPC   C4B 7078  33.155  44.039   7.664
  280POPC   NC3 7079   9.699  39.238   9.464
  280POPC   PO4 7080   9.788  39.206   9.164
  280POPC   GL1 7081   9.745  39.202   8.864
  280POPC   GL2 7082   9.740  39.115   8.864
  280POPC   C1A 7083   9.765  39.267   8.564
  280POPC   D2A 7084   9.767  39.211   8.264
  280POPC   C3A 7085   9.786  39.280   7.964
  280POPC   C4A 7086   9.718  39.253   7.664
  280POPC   C1B 7087   9.794  38.994   8.564
  280POPC   C2B 7088   9.756  38.945   8.264
  280POPC   C3B 7089   9.849  38.972   7.964
  280POPC   C4B 7090   9.777  39.010   7.664
  281POPC   NC3 7091  26.820  18.296   9.464
  281POPC   PO4 7092  26.789  18.281   9.164
  281POPC   GL1 7093  26.859  18.277   8.864
  281POPC   GL2 7094  26.733  18.221   8.864
  281POPC   C1A 7095  26.820  18.259   8.564
  281POPC   D2A 7096  26.787  18.322   8.264
  281POPC   C3A 7097  26.815  18.312   7.964
  281POPC   C4A 7098  26.861  18.238   7.664
  281POPC   C1B 7099  26.548  18.260   8.564
  281POPC   C2B 7100  26.570  18.264   8.264
  281POPC   C3B 7101  26.612  18.213   7.964
  281POPC   C4B 7102  26.539  18.202   7.664
  282POPC   NC3 7103  23.664  34.538   9.464
  282POPC   PO4 7104  23.743  34.575   9.164
  282POPC   GL1 7105  23.671  34.622   8.864
  282POPC   GL2 7106  23.816  34.492   8.864
  282POPC   C1A 7107  23.735  34.590   8.564
  282POPC   D2A 7108  23.759  34.621   8.264
  282POPC   C3A 7109  23.686  34.612   7.964
  282POPC   C4A 7110  23.760  34.613   7.664
  282POPC   C1B 7111  23.830  34.382   8.564
  282POPC   C2B 7112  23.815  34.328   8.264
  282POPC   C3B 7113  23.871  34.319   7.964
  282POPC   C4B 7114  23.887  34.366   7.664
  283POPC   NC3 7115  19.877  12.124   9.464
  283POPC   PO4 7116  19.809  12.067   9.164
  283POPC   GL1 7117  19.868  12.037   8.864
  283POPC   GL2 7118  19.710  12.162   8.864
  283POPC   C1A 7119  19.876  12.104   8.564
  283POPC   D2A 7120  19.823  12.123   8.264
  283POPC   C3A 7121  19.860  12.046   7.964
  283POPC   C4A 7122  19.788  12.077   7.664
  283POPC   C1B 7123  19.627  12.162   8.564
  283POPC   C2B 7124  19.610  12.155   8.264
  283POPC   C3B 7125  19.642  12.203   7.964
  283POPC   C4B 7126  19.594  12.166   7.664
  284POPC   NC3 7127  10.499   1.165   9.464
  284POPC   PO4 7128  10.519   1.232   9.164
  284POPC   GL1 7129  10.534   1.235   8.864
  284POPC   GL2 7130  10.426   1.171   8.864
  284POPC   C1A 7131  10.505   1.253   8.564
  284POPC   D2A 7132  10.558   1.245   8.264
  284POPC   C3A 7133  10.486   1.215   7.964
  284POPC   C4A 7134  10.558   1.169   7.664
  284POPC   C1B 7135  10.252   1.197   8.564
  284POPC   C2B 7136  10.314   1.195   8.264
  284POPC   C3B 7137  10.308   1.210   7.964
  284POPC   C4B 7138  10.268   1.181   7.664
  285POPC   NC3 7139  12.074  12.874   9.464
  285POPC   PO4 7140  12.081  12.865   9.164
  285POPC   GL1 7141  12.033  12.836   8.864
  285POPC   GL2 7142  12.214  12.758   8.864
  285POPC   C1A 7143  12.073  12.848   8.564
  285POPC   D2A 7144  12.111  12.868   8.264
  285POPC   C3A 7145  12.108  12.852   7.964
  285POPC   C4A 7146  12.046  12.854   7.664
  285POPC   C1B 7147  12.256  12.771   8.564
  285POPC   C2B 7148  12.320  12.763   8.264
  285POPC   C3B 7149  12.289  12.752   7.964
  285POPC   C4B 7150  12.320  12.701   7.664
  286POPC   NC3 7151  40.045  44.613   9.464
  286POPC   PO4 7152  40.023  44.694   9.164
  286POPC   GL1 7153  40.001  44.692   8.864
  286POPC   GL2 7154  40.139  44.760   8.864
  286POPC   C1A 7155  40.031  44.676   8.564
  286POPC   D2A 7156  40.005  44.646   8.264
  286POPC   C3A 7157  40.015  44.662   7.964
  286POPC   C4A 7158  39.972  44.615   7.664
  286POPC   C1B 7159  40.181  44.815   8.564
  286POPC   C2B 7160  40.203  44.789   8.264
  286POPC   C3B 7161  40.214  44.749   7.964
  286POPC   C4B 7162  40.207  44.801   7.664
  287POPC   NC3 7163  27.569  35.399   9.464
  287POPC   PO4 7164  27.585  35.302   9.164
  287POPC   GL1 7165  27.608  35.399   8.864
  287POPC   GL2 7166  27.555  35.248   8.864
  287POPC   C1A 7167  27.629  35.325   8.564
  287POPC   D2A 7168  27.595  35.341   8.264
  287POPC   C3A 7169  27.549  35.335   7.964
  287POPC   C4A 7170  27.625  35.400   7.664
  287POPC   C1B 7171  27.574  35.140   8.564
  287POPC   C2B 7172  27.583  35.053   8.264
  287POPC   C3B 7173  27.597  35.151   7.964
  287POPC   C4B 7174  27.595  35.127   7.664
  288POPC   NC3 7175  28.404  26.030   9.464
  288POPC   PO4 7176  28.414  26.024   9.164
  288POPC   GL1 7177  28.336  26.039   8.864
  288POPC   GL2 7178  28.425  25.931   8.864
  288POPC   C1A 7179  28.349  26.014   8.564
  288POPC   D2A 7180  28.398  26.085   8.264
  288POPC   C3A 7181  28.327  26.082   7.964
  288POPC   C4A 7182  28.320  26.016   7.664
  288POPC   C1B 7183  28.434  25.842   8.564
  288POPC   C2B 7184  28.427  25.821   8.264
  288POPC   C3B 7185  28.402  25.813   7.964
  288POPC   C4B 7186  28.364  25.831   7.664
  289POPC   NC3 7187  40.036  40.029   9.464
  289POPC   PO4 7188  39.961  40.009   9.164
  289POPC   GL1 7189  40.036  40.025   8.864
  289POPC   GL2 7190  39.986  39.888   8.864
  289POPC   C1A 7191  39.965  39.977   8.564
  289POPC   D2A 7192  40.012  39.979   8.264
  289POPC   C3A 7193  40.007  39.973   7.964
  289POPC   C4A 7194  39.996  39.995   7.664
  289POPC   C1B 7195  39.940  39.727   8.564
  289POPC   C2B 7196  39.936  39.768   8.264
  289POPC   C3B 7197  39.862  39.749   7.964
  289POPC   C4B 7198  39.891  39.733   7.664
  290POPC   NC3 7199  26.048  17.471   9.464
  290POPC   PO4 7200  26.026  17.473   9.164
  290POPC   GL1 7201  26.023  17.515   8.864
  290POPC   GL2 7202  26.139  17.549   8.864
  290POPC   C1A 7203  26.024  17.493   8.564
  290POPC   D2A 7204  26.028  17.494   8.264
  290POPC   C3A 7205  26.064  17.531   7.964
  290POPC   C4A 7206  26.071  17.508   7.664
  290POPC   C1B 7207  26.244  17.565   8.564
  290POPC   C2B 7208  26.260  17.606   8.264
  290POPC   C3B 7209  26.254  17.617   7.964
  290POPC   C4B 7210  26.260  17.644   7.664
  291POPC   NC3 7211  38.495  41.560   9.464
  291POPC   PO4 7212  38.465  41.561   9.164
  291POPC   GL1 7213  38.473  41.551   8.864
  291POPC   GL2 7214  38.372  41.514   8.864
  291POPC   C1A 7215  38.417  41.589   8.564
  291POPC   D2A 7216  38.464  41.558   8.264
  291POPC   C3A 7217  38.489  41.597   7.964
  291POPC   C4A 7218  38.444  41.520   7.664
  291POPC   C1B 7219  38.293  41.372   8.564
  291POPC   C2B 7220  38.230  41.357   8.264
  291POPC   C3B 7221  38.308  41.408   7.964
  291POPC   C4B 7222  38.226  41.433   7.664
  292POPC   NC3 7223  39.965   4.308   9.464
  292POPC   PO4 7224  40.009   4.280   9.164
  292POPC   GL1 7225  40.035   4.310   8.864
  292POPC   GL2 7226  39.926   4.261   8.864
  292POPC   C1A 7227  40.053   4.289   8.564
  292POPC   D2A 7228  40.046   4.313   8.264
  292POPC   C3A 7229  40.001   4.284   7.964
  292POPC   C4A 7230  40.048   4.271   7.664
  292POPC   C1B 7231  39.780   4.149   8.564
  292POPC   C2B 7232  39.824   4.103   8.264
  292POPC   C3B 7233  39.840   4.132   7.964
  292POPC   C4B 7234  39.799   4.144   7.664
  293POPC   NC3 7235  19.881   4.354   9.464
  293POPC   PO4 7236  19.828   4.313   9.164
  293POPC   GL1 7237  19.850   4.366   8.864
  293POPC   GL2 7238  19.885   4.184   8.864
  293POPC   C1A 7239  19.798   4.293   8.564
  293POPC   D2A 7240  19.871   4.290   8.264
  293POPC   C3A 7241  19.851   4.356   7.964
  293POPC   C4A 7242  19.818   4.295   7.664
  293POPC   C1B 7243  19.910   4.073   8.564
  293POPC   C2B 7244  19.923   4.088   8.264
  293POPC   C3B 7245  19.958   4.068   7.964
  293POPC   C4B 7246  19.971   4.067   7.664
  294POPC   NC3 7247   2.764  44.683   9.464
  294POPC   PO4 7248   2.722  44.706   9.164
  294POPC   GL1 7249   2.755  44.674   8.864
  294POPC   GL2 7250   2.758  44.529   8.864
  294POPC   C1A 7251   2.796  44.706   8.564
  294POPC   D2A 7252   2.762  44.708   8.264
  294POPC   C3A 7253   2.738  44.643   7.964
  294POPC   C4A 7254   2.750  44.655   7.664
  294POPC   C1B 7255   2.743  44.426   8.564
  294POPC   C2B 7256   2.724  44.424   8.264
  294POPC   C3B 7257   2.739  44.469   7.964
  294POPC   C4B 7258   2.729  44.397   7.664
  295POPC   NC3 7259   9.724   9.740   9.464
  295POPC   PO4 7260   9.743   9.796   9.164
  295POPC   GL1 7261   9.770   9.744   8.864
  295POPC   GL2 7262   9.854   9.751   8.864
  295POPC   C1A 7263   9.770   9.705   8.564
  295POPC   D2A 7264   9.768   9.764   8.264
  295POPC   C3A 7265   9.784   9.787   7.964
  295POPC   C4A 7266   9.739   9.723   7.664
  295POPC   C1B 7267   9.973   9.861   8.564
  295POPC   C2B 7268   9.980   9.817   8.264
  295POPC   C3B 7269   9.985   9.791   7.964
  295POPC   C4B 7270   9.993   9.868   7.664
  296POPC   NC3 7271  14.387  12.809   9.464
  296POPC   PO4 7272  14.398  12.809   9.164
  296POPC   GL1 7273  14.439  12.896   8.864
  296POPC   GL2 7274  14.309  12.865   8.864
  296POPC   C1A 7275  14.377  12.814   8.564
  296POPC   D2A 7276  14.441  12.852   8.264
  296POPC   C3A 7277  14.381  12.899   7.964
  296POPC   C4A 7278  14.384  12.833   7.664
  296POPC   C1B 7279  14.179  12.740   8.564
  296POPC   C2B 7280  14.151  12.766   8.264
  296POPC   C3B 7281  14.208  12.759   7.964
  296POPC   C4B 7282  14.129  12.778   7.664
  297POPC   NC3 7283  39.259  35.308   9.464
  297POPC   PO4 7284  39.220  35.402   9.164
  297POPC   GL1 7285  39.183  35.343   8.864
  297POPC   GL2 7286  39.333  35.437   8.864
  297POPC   C1A 7287  39.212  35.323   8.564
  297POPC   D2A 7288  39.256  35.375   8.264
  297POPC   C3A 7289  39.268  35.371   7.964
  297POPC   C4A 7290  39.251  35.352   7.664
  297POPC   C1B 7291  39.382  35.541   8.564
  297POPC   C2B 7292  39.447  35.551   8.264
  297POPC   C3B 7293  39.432  35.480   7.964
  297POPC   C4B 7294  39.441  35.493   7.664
  298POPC   NC3 7295  12.033  28.351   9.464
  298POPC   PO4 7296  12.032  28.349   9.164
  298POPC   GL1 7297  12.098  28.409   8.864
  298POPC   GL2 7298  11.919  28.418   8.864
  298POPC   C1A 7299  12.095  28.397   8.564
  298POPC   D2A 7300  12.095  28.395   8.264
  298POPC   C3A 7301  12.026  28.409   7.964
  298POPC   C4A 7302  12.051  28.354   7.664
  298POPC   C1B 7303  11.817  28.417   8.564
  298POPC   C2B 7304  11.839  28.457   8.264
  298POPC   C3B 7305  11.877  28.417   7.964
  298POPC   C4B 7306  11.794  28.445   7.664
  299POPC   NC3 7307   8.212  25.278   9.464
  299POPC   PO4 7308   8.179  25.265   9.164
  299POPC   GL1 7309   8.234  25.302   8.864
  299POPC   GL2 7310   8.312  25.179   8.864
  299POPC   C1A 7311   8.232  25.315   8.564
  299POPC   D2A 7312   8.158  25.312   8.264
  299POPC   C3A 7313   8.218  25.296   7.964
  299POPC   C4A 7314   8.190  25.293   7.664
  299POPC   C1B 7315   8.392  25.114   8.564
  299POPC   C2B 7316   8.353  25.072   8.264
  299POPC   C3B 7317   8.391  25.081   7.964
  299POPC   C4B 7318   8.383  25.117   7.664
  300POPC   NC3 7319  37.633  33.774   9.464
  300POPC   PO4 7320  37.689  33.782   9.164
  300POPC   GL1 7321  37.688  33.754   8.864
  300POPC   GL2 7322  37.536  33.759   8.864
  300POPC   C1A 7323  37.701  33.769   8.564
  300POPC   D2A 7324  37.682  33.793   8.264
  300POPC   C3A 7325  37.637  33.777   7.964
  300POPC   C4A 7326  37.689  33.793   7.664
  300POPC   C1B 7327  37.486  33.689   8.564
  300POPC   C2B 7328  37.476  33.669   8.264
  300POPC   C3B 7329  37.476  33.721   7.964
  300POPC   C4B 7330  37.453  33.661   7.664
  301POPC   NC3 7331  15.994   9.792   9.464
  301POPC   PO4 7332  15.967   9.712   9.164
  301POPC   GL1 7333  15.988   9.749   8.864
  301POPC   GL2 7334  16.112   9.748   8.864
  301POPC   C1A 7335  15.967   9.754   8.564
  301POPC   D2A 7336  15.947   9.776   8.264
  301POPC   C3A 7337  15.932   9.766   7.964
  301POPC   C4A 7338  15.966   9.703   7.664
  301POPC   C1B 7339  16.195   9.760   8.564
  301POPC   C2B 7340  16.244   9.724   8.264
  301POPC   C3B 7341  16.209   9.711   7.964
  301POPC   C4B 7342  16.212   9.711   7.664
  302POPC   NC3 7343  13.578   7.432   9.464
  302POPC   PO4 7344  13.670   7.387   9.164
  302POPC   GL1 7345  13.620   7.459   8.864
  302POPC   GL2 7346  13.524   7.389   8.864
  302POPC   C1A 7347  13.602   7.384   8.564
  302POPC   D2A 7348  13.590   7.404   8.264
  302POPC   C3A 7349  13.590   7.446   7.964
  302POPC   C4A 7350  13.641   7.377   7.664
  302POPC   C1B 7351  13.430   7.297   8.564
  302POPC   C2B 7352  13.392   7.236   8.264
  302POPC   C3B 7353  13.383   7.316   7.964
  302POPC   C4B 7354  13.404   7.329   7.664
  303POPC   NC3 7355   6.681  36.882   9.464
  303POPC   PO4 7356   6.677  36.880   9.164
  303POPC   GL1 7357   6.628  36.884   8.864
  303POPC   GL2 7358   6.588  37.019   8.864
  303POPC   C1A 7359   6.635  36.880   8.564
  303POPC   D2A 7360   6.628  36.891   8.264
  303POPC   C3A 7361   6.635  36.924   7.964
  303POPC   C4A 7362   6.662  36.881   7.664
  303POPC   C1B 7363   6.423  37.063   8.564
  303POPC   C2B 7364   6.470  37.029   8.264
  303POPC   C3B 7365   6.473  37.077   7.964
  303POPC   C4B 7366   6.480  37.113   7.664
  304POPC   NC3 7367  29.153  29.109   9.464
  304POPC   PO4 7368  29.171  29.165   9.164
  304POPC   GL1 7369  29.162  29.193   8.864
  304POPC   GL2 7370  29.059  29.215   8.864
  304POPC   C1A 7371  29.139  29.187   8.564
  304POPC   D2A 7372  29.110  29.105   8.264
  304POPC   C3A 7373  29.190  29.107   7.964
  304POPC   C4A 7374  29.169  29.167   7.664
  304POPC   C1B 7375  28.884  29.239   8.564
  304POPC   C2B 7376  28.891  29.164   8.264
  304POPC   C3B 7377  28.891  29.150   7.964
  304POPC   C4B 7378  28.868  29.200   7.664
  305POPC   NC3 7379  21.388   3.499   9.464
  305POPC   PO4 7380  21.423   3.504   9.164
  305POPC   GL1 7381  21.368   3.575   8.864
  305POPC   GL2 7382  21.491   3.518   8.864
  305POPC   C1A 7383  21.363   3.538   8.564
  305POPC   D2A 7384  21.373   3.518   8.264
  305POPC   C3A 7385  21.382   3.561   7.964
  305POPC   C4A 7386  21.370   3.559   7.664
  305POPC   C1B 7387  21.563   3.420   8.564
  305POPC   C2B 7388  21.632   3.440   8.264
  305POPC   C3B 7389  21.629   3.388   7.964
  305POPC   C4B 7390  21.627   3.392   7.664
  306POPC   NC3 7391   8.929  27.570   9.464
  306POPC   PO4 7392   8.945  27.586   9.164
  306POPC   GL1 7393   9.007  27.607   8.864
  306POPC   GL2 7394   8.884  27.507   8.864
  306POPC   C1A 7395   8.989  27.583   8.564
  306POPC   D2A 7396   8.957  27.597   8.264
  306POPC   C3A 7397   9.016  27.606   7.964
  306POPC   C4A 7398   8.990  27.615   7.664
  306POPC   C1B 7399   8.780  27.411   8.564
  306POPC   C2B 7400   8.813  27.386   8.264
  306POPC   C3B 7401   8.763  27.416   7.964
  306POPC   C4B 7402   8.826  27.389   7.664
  307POPC   NC3 7403  20.608  36.156   9.464
  307POPC   PO4 7404  20.640  36.156   9.164
  307POPC   GL1 7405  20.642  36.143   8.864
  307POPC   GL2 7406  20.539  36.251   8.864
  307POPC   C1A 7407  20.580  36.092   8.564
  307POPC   D2A 7408  20.565  36.150   8.264
  307POPC   C3A 7409  20.596  36.144   7.964
  307POPC   C4A 7410  20.594  36.158   7.664
  307POPC   C1B 7411  20.518  36.388   8.564
  307POPC   C2B 7412  20.598  36.388   8.264
  307POPC   C3B 7413  20.536  36.345   7.964
  307POPC   C4B 7414  20.596  36.353   7.664
  308POPC   NC3 7415  36.137  10.475   9.464
  308POPC   PO4 7416  36.132  10.551   9.164
  308POPC   GL1 7417  36.088  10.490   8.864
  308POPC   GL2 7418  36.203  10.466   8.864
  308POPC   C1A 7419  36.144  10.563   8.564
  308POPC   D2A 7420  36.144  10.573   8.264
  308POPC   C3A 7421  36.120  10.522   7.964
  308POPC   C4A 7422  36.169  10.560   7.664
  308POPC   C1B 7423  36.391  10.517   8.564
  308POPC   C2B 7424  36.378  10.450   8.264
  308POPC   C3B 7425  36.358  10.486   7.964
  308POPC   C4B 7426  36.386  10.502   7.664
  309POPC   NC3 7427  36.902  43.860   9.464
  309POPC   PO4 7428  36.895  43.857   9.164
  309POPC   GL1 7429  36.934  43.889   8.864
  309POPC   GL2 7430  37.008  43.859   8.864
  309POPC   C1A 7431  36.903  43.868   8.564
  309POPC   D2A 7432  36.882  43.929   8.264
  309POPC   C3A 7433  36.874  43.862   7.964
  309POPC   C4A 7434  36.917  43.868   7.664
  309POPC   C1B 7435  37.095  43.798   8.564
  309POPC   C2B 7436  37.100  43.835   8.264
  309POPC   C3B 7437  37.164  43.845   7.964
  309POPC   C4B 7438  37.103  43.765   7.664
  310POPC   NC3 7439  19.022  26.011   9.464
  310POPC   PO4 7440  19.019  26.029   9.164
  310POPC   GL1 7441  19.085  26.035   8.864
  310POPC   GL2 7442  19.180  26.132   8.864
  310POPC   C1A 7443  19.098  26.070   8.564
  310POPC   D2A 7444  19.061  26.075   8.264
  310POPC   C3A 7445  19.073  25.998   7.964
  310POPC   C4A 7446  19.047  26.042   7.664
  310POPC   C1B 7447  19.317  26.118   8.564
  310POPC   C2B 7448  19.247  26.173   8.264
  310POPC   C3B 7449  19.293  26.121   7.964
  310POPC   C4B 7450  19.317  26.138   7.664
  311POPC   NC3 7451  16.747   2.014   9.464
  311POPC   PO4 7452  16.750   1.989   9.164
  311POPC   GL1 7453  16.715   2.027   8.864
  311POPC   GL2 7454  16.686   2.136   8.864
  311POPC   C1A 7455  16.771   1.960   8.564
  311POPC   D2A 7456  16.770   1.995   8.264
  311POPC   C3A 7457  16.737   2.002   7.964
  311POPC   C4A 7458  16.763   2.027   7.664
  311POPC   C1B 7459  16.743   2.262   8.564
  311POPC   C2B 7460  16.730   2.232   8.264
  311POPC   C3B 7461  16.692   2.229   7.964
  311POPC   C4B 7462  16.727   2.264   7.664
  312POPC   NC3 7463  18.275   2.760   9.464
  312POPC   PO4 7464  18.296   2.743   9.164
  312POPC   GL1 7465  18.286   2.757   8.864
  312POPC   GL2 7466  18.428   2.773   8.864
  312POPC   C1A 7467  18.239   2.758   8.564
  312POPC   D2A 7468  18.237   2.790   8.264
  312POPC   C3A 7469  18.270   2.798   7.964
  312POPC   C4A 7470  18.313   2.791   7.664
  312POPC   C1B 7471  18.526   2.709   8.564
  312POPC   C2B 7472  18.491   2.781   8.264
  312POPC   C3B 7473  18.495   2.694   7.964
  312POPC   C4B 7474  18.485   2.744   7.664
  313POPC   NC3 7475  28.394  10.541   9.464
  313POPC   PO4 7476  28.344  10.499   9.164
  313POPC   GL1 7477  28.392  10.519   8.864
  313POPC   GL2 7478  28.517  10.597   8.864
  313POPC   C1A 7479  28.405  10.486   8.564
  313POPC   D2A 7480  28.396  10.551   8.264
  313POPC   C3A 7481  28.401  10.502   7.964
  313POPC   C4A 7482  28.408  10.491   7.664
  313POPC   C1B 7483  28.590  10.609   8.564
  313POPC   C2B 7484  28.630  10.606   8.264
  313POPC   C3B 7485  28.644  10.556   7.964
  313POPC   C4B 7486  28.657  10.618   7.664
  314POPC   NC3 7487  10.560  42.365   9.464
  314POPC   PO4 7488  10.480  42.363   9.164
  314POPC   GL1 7489  10.509  42.324   8.864
  314POPC   GL2 7490  10.538  42.230   8.864
  314POPC   C1A 7491  10.570  42.310   8.564
  314POPC   D2A 7492  10.554  42.357   8.264
  314POPC   C3A 7493  10.510  42.359   7.964
  314POPC   C4A 7494  10.489  42.289   7.664
  314POPC   C1B 7495  10.530  42.096   8.564
  314POPC   C2B 7496  10.571  42.124   8.264
  314POPC   C3B 7497  10.563  42.091   7.964
  314POPC   C4B 7498  10.508  42.042   7.664
  315POPC   NC3 7499  43.850  15.145   9.464
  315POPC   PO4 7500  43.930  15.224   9.164
  315POPC   GL1 7501  43.907  15.198   8.864
  315POPC   GL2 7502  43.959  15.104   8.864
  315POPC   C1A 7503  43.914  15.209   8.564
  315POPC   D2A 7504  43.889  15.134   8.264
  315POPC   C3A 7505  43.861  15.168   7.964
  315POPC   C4A 7506  43.853  15.166   7.664
  315POPC   C1B 7507  44.043  14.987   8.564
  315POPC   C2B 7508  44.086  14.989   8.264
  315POPC   C3B 7509  44.004  14.941   7.964
  315POPC   C4B 7510  44.073  14.947   7.664
  316POPC   NC3 7511  12.080  22.135   9.464
  316POPC   PO4 7512  12.043  22.210   9.164
  316POPC   GL1 7513  12.027  22.170   8.864
  316POPC   GL2 7514  12.146  22.279   8.864
  316POPC   C1A 7515  12.124  22.120   8.564
  316POPC   D2A 7516  12.033  22.121   8.264
  316POPC   C3A 7517  12.057  22.130   7.964
  316POPC   C4A 7518  12.087  22.171   7.664
  316POPC   C1B 7519  12.162  22.395   8.564
  316POPC   C2B 7520  12.121  22.382   8.264
  316POPC   C3B 7521  12.102  22.410   7.964
  316POPC   C4B 7522  12.129  22.379   7.664
  317POPC   NC3 7523  39.978  22.918   9.464
  317POPC   PO4 7524  40.035  22.905   9.164
  317POPC   GL1 7525  39.965  22.972   8.864
  317POPC   GL2 7526  40.117  22.981   8.864
  317POPC   C1A 7527  40.028  22.972   8.564
  317POPC   D2A 7528  40.004  22.923   8.264
  317POPC   C3A 7529  40.054  22.967   7.964
  317POPC   C4A 7530  39.965  22.986   7.664
  317POPC   C1B 7531  40.288  23.015   8.564
  317POPC   C2B 7532  40.219  23.035   8.264
  317POPC   C3B 7533  40.249  22.985   7.964
  317POPC   C4B 7534  40.262  23.030   7.664
  318POPC   NC3 7535  12.888  19.055   9.464
  318POPC   PO4 7536  12.828  19.009   9.164
  318POPC   GL1 7537  12.890  19.065   8.864
  318POPC   GL2 7538  12.859  18.973   8.864
  318POPC   C1A 7539  12.883  19.056   8.564
  318POPC   D2A 7540  12.837  19.065   8.264
  318POPC   C3A 7541  12.803  19.069   7.964
  318POPC   C4A 7542  12.849  19.024   7.664
  318POPC   C1B 7543  12.793  18.847   8.564
  318POPC   C2B 7544  12.795  18.832   8.264
  318POPC   C3B 7545  12.832  18.770   7.964
  318POPC   C4B 7546  12.779  18.762   7.664
  319POPC   NC3 7547   2.813  14.432   9.464
  319POPC   PO4 7548   2.778  14.435   9.164
  319POPC   GL1 7549   2.741  14.373   8.864
  319POPC   GL2 7550   2.809  14.563   8.864
  319POPC   C1A 7551   2.780  14.357   8.564
  319POPC   D2A 7552   2.749  14.406   8.264
  319POPC   C3A 7553   2.753  14.379   7.964
  319POPC   C4A 7554   2.722  14.406   7.664
  319POPC   C1B 7555   2.842  14.658   8.564
  319POPC   C2B 7556   2.767  14.636   8.264
  319POPC   C3B 7557   2.815  14.691   7.964
  319POPC   C4B 7558   2.831  14.622   7.664
  320POPC   NC3 7559  35.378  33.832   9.464
  320POPC   PO4 7560  35.311  33.781   9.164
  320POPC   GL1 7561  35.314  33.821   8.864
  320POPC   GL2 7562  35.209  33.743   8.864
  320POPC   C1A 7563  35.306  33.764   8.564
  320POPC   D2A 7564  35.371  33.789   8.264
  320POPC   C3A 7565  35.369  33.755   7.964
  320POPC   C4A 7566  35.332  33.818   7.664
  320POPC   C1B 7567  35.094  33.746   8.564
  320POPC   C2B 7568  35.143  33.690   8.264
  320POPC   C3B 7569  35.127  33.679   7.964
  320POPC   C4B 7570  35.152  33.670   7.664
  321POPC   NC3 7571  43.125  28.388   9.464
  321POPC   PO4 7572  43.120  28.392   9.164
  321POPC   GL1 7573  43.144  28.417   8.864
  321POPC   GL2 7574  43.245  28.443   8.864
  321POPC   C1A 7575  43.134  28.342   8.564
  321POPC   D2A 7576  43.121  28.335   8.264
  321POPC   C3A 7577  43.093  28.355   7.964
  321POPC   C4A 7578  43.159  28.359   7.664
  321POPC   C1B 7579  43.345  28.527   8.564
  321POPC   C2B 7580  43.303  28.522   8.264
  321POPC   C3B 7581  43.336  28.496   7.964
  321POPC   C4B 7582  43.309  28.486   7.664
  322POPC   NC3 7583  12.816  13.585   9.464
  322POPC   PO4 7584  12.854  13.658   9.164
  322POPC   GL1 7585  12.900  13.624   8.864
  322POPC   GL2 7586  12.961  13.538   8.864
  322POPC   C1A 7587  12.847  13.598   8.564
  322POPC   D2A 7588  12.817  13.647   8.264
  322POPC   C3A 7589  12.888  13.664   7.964
  322POPC   C4A 7590  12.817  13.669   7.664
  322POPC   C1B 7591  13.069  13.497   8.564
  322POPC   C2B 7592  13.059  13.563   8.264
  322POPC   C3B 7593  13.082  13.558   7.964
  322POPC   C4B 7594  13.045  13.516   7.664
  323POPC   NC3 7595  30.649  37.700   9.464
  323POPC   PO4 7596  30.724  37.689   9.164
  323POPC   GL1 7597  30.657  37.702   8.864
  323POPC   GL2 7598  30.769  37.595   8.864
  323POPC   C1A 7599  30.723  37.671   8.564
  323POPC   D2A 7600  30.706  37.675   8.264
  323POPC   C3A 7601  30.739  37.682   7.964
  323POPC   C4A 7602  30.653  37.717   7.664
  323POPC   C1B 7603  30.811  37.503   8.564
  323POPC   C2B 7604  30.835  37.461   8.264
  323POPC   C3B 7605  30.818  37.470   7.964
  323POPC   C4B 7606  30.821  37.507   7.664
  324POPC   NC3 7607  36.860  20.566   9.464
  324POPC   PO4 7608  36.952  20.619   9.164
  324POPC   GL1 7609  36.940  20.565   8.864
  324POPC   GL2 7610  36.786  20.639   8.864
  324POPC   C1A 7611  36.884  20.658   8.564
  324POPC   D2A 7612  36.886  20.630   8.264
  324POPC   C3A 7613  36.860  20.630   7.964
  324POPC   C4A 7614  36.857  20.603   7.664
  324POPC   C1B 7615  36.609  20.656   8.564
  324POPC   C2B 7616  36.608  20.646   8.264
  324POPC   C3B 7617  36.616  20.646   7.964
  324POPC   C4B 7618  36.679  20.639   7.664
  325POPC   NC3 7619  43.078  42.348   9.464
  325POPC   PO4 7620  43.150  42.335   9.164
  325POPC   GL1 7621  43.101  42.287   8.864
  325POPC   GL2 7622  43.045  42.262   8.864
  325POPC   C1A 7623  43.114  42.376   8.564
  325POPC   D2A 7624  43.134  42.364   8.264
  325POPC   C3A 7625  43.105  42.342   7.964
  325POPC   C4A 7626  43.131  42.325   7.664
  325POPC   C1B 7627  43.060  42.109   8.564
  325POPC   C2B 7628  43.010  42.119   8.264
  325POPC   C3B 7629  43.069  42.120   7.964
  325POPC   C4B 7630  43.008  42.078   7.664
  326POPC   NC3 7631  36.920  38.485   9.464
  326POPC   PO4 7632  36.915  38.435   9.164
  326POPC   GL1 7633  36.942  38.497   8.864
  326POPC   GL2 7634  36.863  38.581   8.864
  326POPC   C1A 7635  36.859  38.471   8.564
  326POPC   D2A 7636  36.866  38.496   8.264
  326POPC   C3A 7637  36.864  38.470   7.964
  326POPC   C4A 7638  36.915  38.434   7.664
  326POPC   C1B 7639  36.744  38.660   8.564
  326POPC   C2B 7640  36.779  38.640   8.264
  326POPC   C3B 7641  36.705  38.672   7.964
  326POPC   C4B 7642  36.786  38.661   7.664
  327POPC   NC3 7643  31.519   9.001   9.464
  327POPC   PO4 7644  31.489   9.004   9.164
  327POPC   GL1 7645  31.483   8.973   8.864
  327POPC   GL2 7646  31.553   8.958   8.864
  327POPC   C1A 7647  31.518   9.002   8.564
  327POPC   D2A 7648  31.432   9.020   8.264
  327POPC   C3A 7649  31.487   8.933   7.964
  327POPC   C4A 7650  31.463   9.015   7.664
  327POPC   C1B 7651  31.730   8.892   8.564
  327POPC   C2B 7652  31.694   8.925   8.264
  327POPC   C3B 7653  31.719   8.904   7.964
  327POPC   C4B 7654  31.732   8.850   7.664
  328POPC   NC3 7655  19.871  32.979   9.464
  328POPC   PO4 7656  19.874  33.058   9.164
  328POPC   GL1 7657  19.822  33.029   8.864
  328POPC   GL2 7658  19.778  32.940   8.864
  328POPC   C1A 7659  19.836  32.988   8.564
  328POPC   D2A 7660  19.816  33.073   8.264
  328POPC   C3A 7661  19.833  33.013   7.964
  328POPC   C4A 7662  19.786  33.043   7.664
  328POPC   C1B 7663  19.647  32.829   8.564
  328POPC   C2B 7664  19.674  32.802   8.264
  328POPC   C3B 7665  19.622  32.816   7.964
  328POPC   C4B 7666  19.678  32.894   7.664
  329POPC   NC3 7667  39.239   6.651   9.464
  329POPC   PO4 7668  39.261   6.600   9.164
  329POPC   GL1 7669  39.230   6.611   8.864
  329POPC   GL2 7670  39.238   6.796   8.864
  329POPC   C1A 7671  39.184   6.689   8.564
  329POPC   D2A 7672  39.201   6.606   8.264
  329POPC   C3A 7673  39.240   6.647   7.964
  329POPC   C4A 7674  39.272   6.686   7.664
  329POPC   C1B 7675  39.296   6.832   8.564
  329POPC   C2B 7676  39.302   6.917   8.264
  329POPC   C3B 7677  39.368   6.864   7.964
  329POPC   C4B 7678  39.349   6.857   7.664
  330POPC   NC3 7679  36.922  33.020   9.464
  330POPC   PO4 7680  36.915  32.975   9.164
  330POPC   GL1 7681  36.905  32.986   8.864
  330POPC   GL2 7682  36.931  33.104   8.864
  330POPC   C1A 7683  36.874  33.048   8.564
  330POPC   D2A 7684  36.937  33.022   8.264
  330POPC   C3A 7685  36.934  33.011   7.964
  330POPC   C4A 7686  36.884  32.990   7.664
  330POPC   C1B 7687  36.939  33.320   8.564
  330POPC   C2B 7688  36.865  33.307   8.264
  330POPC   C3B 7689  36.920  33.324   7.964
  330POPC   C4B 7690  36.928  33.282   7.664
  331POPC   NC3 7691   5.115  41.559   9.464
  331POPC   PO4 7692   5.098  41.579   9.164
  331POPC   GL1 7693   5.065  41.533   8.864
  331POPC   GL2 7694   5.151  41.461   8.864
  331POPC   C1A 7695   5.053  41.519   8.564
  331POPC   D2A 7696   5.118  41.596   8.264
  331POPC   C3A 7697   5.050  41.591   7.964
  331POPC   C4A 7698   5.111  41.537   7.664
  331POPC   C1B 7699   5.201  41.322   8.564
  331POPC   C2B 7700   5.246  41.382   8.264
  331POPC   C3B 7701   5.233  41.344   7.964
  331POPC   C4B 7702   5.189  41.317   7.664
  332POPC   NC3 7703   5.908  43.155   9.464
  332POPC   PO4 7704   5.869  43.081   9.164
  332POPC   GL1 7705   5.907  43.115   8.864
  332POPC   GL2 7706   5.789  43.218   8.864
  332POPC   C1A 7707   5.916  43.155   8.564
  332POPC   D2A 7708   5.912  43.080   8.264
  332POPC   C3A 7709   5.854  43.142   7.964
  332POPC   C4A 7710   5.850  43.134   7.664
  332POPC   C1B 7711   5.656  43.250   8.564
  332POPC   C2B 7712   5.722  43.268   8.264
  332POPC   C3B 7713   5.692  43.296   7.964
  332POPC   C4B 7714   5.733  43.301   7.664
  333POPC   NC3 7715  43.099   8.174   9.464
  333POPC   PO4 7716  43.120   8.173   9.164
  333POPC   GL1 7717  43.144   8.192   8.864
  333POPC   GL2 7718  43.238   8.132   8.864
  333POPC   C1A 7719  43.158   8.193   8.564
  333POPC   D2A 7720  43.136   8.202   8.264
  333POPC   C3A 7721  43.093   8.159   7.964
  333POPC   C4A 7722  43.132   8.206   7.664
  333POPC   C1B 7723  43.350   8.121   8.564
  333POPC   C2B 7724  43.367   8.195   8.264
  333POPC   C3B 7725  43.355   8.208   7.964
  333POPC   C4B 7726  43.316   8.199   7.664
  334POPC   NC3 7727  12.063  15.922   9.464
  334POPC   PO4 7728  12.116  15.936   9.164
  334POPC   GL1 7729  12.036  15.934   8.864
  334POPC   GL2 7730  12.215  15.897   8.864
  334POPC   C1A 7731  12.092  15.980   8.564
  334POPC   D2A 7732  12.123  15.912   8.264
  334POPC   C3A 7733  12.065  15.965   7.964
  334POPC   C4A 7734  12.090  15.998   7.664
  334POPC   C1B 7735  12.292  15.818   8.564
  334POPC   C2B 7736  12.286  15.778   8.264
  334POPC   C3B 7737  12.251  15.768   7.964
  334POPC   C4B 7738  12.239  15.807   7.664
  335POPC   NC3 7739  33.774  39.209   9.464
  335POPC   PO4 7740  33.781  39.279   9.164
  335POPC   GL1 7741  33.775  39.214   8.864
  335POPC   GL2 7742  33.958  39.196   8.864
  335POPC   C1A 7743  33.805  39.232   8.564
  335POPC   D2A 7744  33.788  39.246   8.264
  335POPC   C3A 7745  33.805  39.200   7.964
  335POPC   C4A 7746  33.757  39.223   7.664
  335POPC   C1B 7747  34.067  39.130   8.564
  335POPC   C2B 7748  34.031  39.135   8.264
  335POPC   C3B 7749  33.986  39.169   7.964
  335POPC   C4B 7750  33.986  39.127   7.664
  336POPC   NC3 7751  25.278  31.446   9.464
  336POPC   PO4 7752  25.279  31.504   9.164
  336POPC   GL1 7753  25.266  31.492   8.864
  336POPC   GL2 7754  25.299  31.330   8.864
  336POPC   C1A 7755  25.313  31.433   8.564
  336POPC   D2A 7756  25.300  31.488   8.264
  336POPC   C3A 7757  25.302  31.509   7.964
  336POPC   C4A 7758  25.302  31.500   7.664
  336POPC   C1B 7759  25.407  31.206   8.564
  336POPC   C2B 7760  25.420  31.295   8.264
  336POPC   C3B 7761  25.418  31.222   7.964
  336POPC   C4B 7762  25.428  31.300   7.664
  337POPC   NC3 7763  18.275  33.022   9.464
  337POPC   PO4 7764  18.292  33.034   9.164
  337POPC   GL1 7765  18.287  33.012   8.864
  337POPC   GL2 7766  18.227  33.131   8.864
  337POPC   C1A 7767  18.318  32.996   8.564
  337POPC   D2A 7768  18.264  33.021   8.264
  337POPC   C3A 7769  18.308  33.037   7.964
  337POPC   C4A 7770  18.291  33.068   7.664
  337POPC   C1B 7771  18.220  33.279   8.564
  337POPC   C2B 7772  18.156  33.223   8.264
  337POPC   C3B 7773  18.175  33.241   7.964
  337POPC   C4B 7774  18.238  33.300   7.664
  338POPC   NC3 7775  26.858  23.746   9.464
  338POPC   PO4 7776  26.821  23.755   9.164
  338POPC   GL1 7777  26.769  23.664   8.864
  338POPC   GL2 7778  26.718  23.831   8.864
  338POPC   C1A 7779  26.787  23.746   8.564
  338POPC   D2A 7780  26.863  23.688   8.264
  338POPC   C3A 7781  26.804  23.710   7.964
  338POPC   C4A 7782  26.783  23.738   7.664
  338POPC   C1B 7783  26.592  23.926   8.564
  338POPC   C2B 7784  26.635  23.847   8.264
  338POPC   C3B 7785  26.641  23.922   7.964
  338POPC   C4B 7786  26.608  23.841   7.664
  339POPC   NC3 7787   2.778   5.093   9.464
  339POPC   PO4 7788   2.756   5.131   9.164
  339POPC   GL1 7789   2.750   5.113   8.864
  339POPC   GL2 7790   2.628   5.179   8.864
  339POPC   C1A 7791   2.739   5.059   8.564
  339POPC   D2A 7792   2.805   5.046   8.264
  339POPC   C3A 7793   2.806   5.087   7.964
  339POPC   C4A 7794   2.797   5.114   7.664
  339POPC   C1B 7795   2.528   5.186   8.564
  339POPC   C2B 7796   2.508   5.172   8.264
  339POPC   C3B 7797   2.514   5.218   7.964
  339POPC   C4B 7798   2.541   5.236   7.664
  340POPC   NC3 7799  33.065  19.850   9.464
  340POPC   PO4 7800  33.063  19.787   9.164
  340POPC   GL1 7801  33.002  19.872   8.864
  340POPC   GL2 7802  32.857  19.819   8.864
  340POPC   C1A 7803  33.010  19.884   8.564
  340POPC   D2A 7804  33.045  19.809   8.264
  340POPC   C3A 7805  33.022  19.799   7.964
  340POPC   C4A 7806  32.980  19.808   7.664
  340POPC   C1B 7807  32.826  19.823   8.564
  340POPC   C2B 7808  32.737  19.747   8.264
  340POPC   C3B 7809  32.741  19.753   7.964
  340POPC   C4B 7810  32.790  19.788   7.664
  341POPC   NC3 7811  30.649  31.434   9.464
  341POPC   PO4 7812  30.695  31.444   9.164
  341POPC   GL1 7813  30.666  31.439   8.864
  341POPC   GL2 7814  30.827  31.441   8.864
  341POPC   C1A 7815  30.711  31.501   8.564
  341POPC   D2A 7816  30.732  31.519   8.264
  341POPC   C3A 7817  30.656  31.428   7.964
  341POPC   C4A 7818  30.738  31.513   7.664
  341POPC   C1B 7819  30.971  31.347   8.564
  341POPC   C2B 7820  30.960  31.371   8.264
  341POPC   C3B 7821  30.923  31.355   7.964
  341POPC   C4B 7822  30.968  31.416   7.664
  342POPC   NC3 7823  43.136  39.275   9.464
  342POPC   PO4 7824  43.105  39.252   9.164
  342POPC   GL1 7825  43.153  39.261   8.864
  342POPC   GL2 7826  42.976  39.194   8.864
  342POPC   C1A 7827  43.074  39.271   8.564
  342POPC   D2A 7828  43.101  39.212   8.264
  342POPC   C3A 7829  43.106  39.250   7.964
  342POPC   C4A 7830  43.069  39.234   7.664
  342POPC   C1B 7831  42.893  39.098   8.564
  342POPC   C2B 7832  42.880  39.038   8.264
  342POPC   C3B 7833  42.912  39.022   7.964
  342POPC   C4B 7834  42.931  39.084   7.664
  343POPC   NC3 7835  41.514  26.010   9.464
  343POPC   PO4 7836  41.528  26.060   9.164
  343POPC   GL1 7837  41.533  26.030   8.864
  343POPC   GL2 7838  41.509  25.931   8.864
  343POPC   C1A 7839  41.523  26.043   8.564
  343POPC   D2A 7840  41.534  26.026   8.264
  343POPC   C3A 7841  41.530  26.061   7.964
  343POPC   C4A 7842  41.531  26.075   7.664
  343POPC   C1B 7843  41.408  25.842   8.564
  343POPC   C2B 7844  41.392  25.810   8.264
  343POPC   C3B 7845  41.428  25.851   7.964
  343POPC   C4B 7846  41.421  25.829   7.664
  344POPC   NC3 7847  18.311  42.384   9.464
  344POPC   PO4 7848  18.283  42.307   9.164
  344POPC   GL1 7849  18.278  42.350   8.864
  344POPC   GL2 7850  18.413  42.416   8.864
  344POPC   C1A 7851  18.305  42.347   8.564
  344POPC   D2A 7852  18.309  42.340   8.264
  344POPC   C3A 7853  18.288  42.290   7.964
  344POPC   C4A 7854  18.235  42.332   7.664
  344POPC   C1B 7855  18.521  42.459   8.564
  344POPC   C2B 7856  18.500  42.449   8.264
  344POPC   C3B 7857  18.466  42.470   7.964
  344POPC   C4B 7858  18.520  42.495   7.664
  345POPC   NC3 7859  33.754  10.487   9.464
  345POPC   PO4 7860  33.846  10.560   9.164
  345POPC   GL1 7861  33.758  10.512   8.864
  345POPC   GL2 7862  33.722  10.449   8.864
  345POPC   C1A 7863  33.791  10.563   8.564
  345POPC   D2A 7864  33.750  10.508   8.264
  345POPC   C3A 7865  33.818  10.566   7.964
  345POPC   C4A 7866  33.805  10.482   7.664
  345POPC   C1B 7867  33.537  10.405   8.564
  345POPC   C2B 7868  33.516  10.448   8.264
  345POPC   C3B 7869  33.548  10.412   7.964
  345POPC   C4B 7870  33.592  10.395   7.664
  346POPC   NC3 7871  43.074  23.757   9.464
  346POPC   PO4 7872  43.132  23.702   9.164
  346POPC   GL1 7873  43.075  23.757   8.864
  346POPC   GL2 7874  43.088  23.631   8.864
  346POPC   C1A 7875  43.092  23.679   8.564
  346POPC   D2A 7876  43.065  23.736   8.264
  346POPC   C3A 7877  43.145  23.706   7.964
  346POPC   C4A 7878  43.071  23.694   7.664
  346POPC   C1B 7879  43.148  23.423   8.564
  346POPC   C2B 7880  43.075  23.463   8.264
  346POPC   C3B 7881  43.154  23.438   7.964
  346POPC   C4B 7882  43.103  23.461   7.664
  347POPC   NC3 7883  27.618  12.829   9.464
  347POPC   PO4 7884  27.602  12.807   9.164
  347POPC   GL1 7885  27.557  12.817   8.864
  347POPC   GL2 7886  27.674  12.964   8.864
  347POPC   C1A 7887  27.630  12.830   8.564
  347POPC   D2A 7888  27.642  12.811   8.264
  347POPC   C3A 7889  27.573  12.882   7.964
  347POPC   C4A 7890  27.561  12.860   7.664
  347POPC   C1B 7891  27.799  13.013   8.564
  347POPC   C2B 7892  27.823  13.061   8.264
  347POPC   C3B 7893  27.758  13.051   7.964
  347POPC   C4B 7894  27.757  12.973   7.664
  348POPC   NC3 7895   5.867  44.699   9.464
  348POPC   PO4 7896   5.877  44.619   9.164
  348POPC   GL1 7897   5.882  44.621   8.864
  348POPC   GL2 7898   5.835  44.784   8.864
  348POPC   C1A 7899   5.909  44.612   8.564
  348POPC   D2A 7900   5.880  44.671   8.264
  348POPC   C3A 7901   5.891  44.698   7.964
  348POPC   C4A 7902   5.888  44.668   7.664
  348POPC   C1B 7903   5.880  44.897   8.564
  348POPC   C2B 7904   5.843  44.868   8.264
  348POPC   C3B 7905   5.844  44.906   7.964
  348POPC   C4B 7906   5.837  44.901   7.664
  349POPC   NC3 7907  29.188   0.462   9.464
  349POPC   PO4 7908  29.169   0.417   9.164
  349POPC   GL1 7909  29.118   0.398   8.864
  349POPC   GL2 7910  29.090   0.354   8.864
  349POPC   C1A 7911  29.111   0.484   8.564
  349POPC   D2A 7912  29.107   0.451   8.264
  349POPC   C3A 7913  29.124   0.426   7.964
  349POPC   C4A 7914  29.122   0.396   7.664
  349POPC   C1B 7915  28.962   0.301   8.564
  349POPC   C2B 7916  28.989   0.337   8.264
  349POPC   C3B 7917  28.930   0.322   7.964
  349POPC   C4B 7918  28.943   0.247   7.664
  350POPC   NC3 7919  35.400  26.072   9.464
  350POPC   PO4 7920  35.375  26.028   9.164
  350POPC   GL1 7921  35.373  26.016   8.864
  350POPC   GL2 7922  35.243  26.048   8.864
  350POPC   C1A 7923  35.395  26.060   8.564
  350POPC   D2A 7924  35.384  26.055   8.264
  350POPC   C3A 7925  35.359  26.000   7.964
  350POPC   C4A 7926  35.338  26.010   7.664
  350POPC   C1B 7927  35.115  26.048   8.564
  350POPC   C2B 7928  35.146  26.038   8.264
  350POPC   C3B 7929  35.072  26.034   7.964
  350POPC   C4B 7930  35.101  26.116   7.664
  351POPC   NC3 7931  43.898   1.168   9.464
  351POPC   PO4 7932  43.911   1.219   9.164
  351POPC   GL1 7933  43.932   1.227   8.864
  351POPC   GL2 7934  43.777   1.176   8.864
  351POPC   C1A 7935  43.897   1.171   8.564
  351POPC   D2A 7936  43.914   1.245   8.264
  351POPC   C3A 7937  43.839   1.202   7.964
  351POPC   C4A 7938  43.929   1.200   7.664
  351POPC   C1B 7939  43.698   1.120   8.564
  351POPC   C2B 7940  43.670   1.113   8.264
  351POPC   C3B 7941  43.650   1.164   7.964
  351POPC   C4B 7942  43.608   1.107   7.664
  352POPC   NC3 7943  30.692  42.365   9.464
  352POPC   PO4 7944  30.684  42.359   9.164
  352POPC   GL1 7945  30.730  42.342   8.864
  352POPC   GL2 7946  30.654  42.258   8.864
  352POPC   C1A 7947  30.744  42.340   8.564
  352POPC   D2A 7948  30.663  42.350   8.264
  352POPC   C3A 7949  30.700  42.363   7.964
  352POPC   C4A 7950  30.713  42.335   7.664
  352POPC   C1B 7951  30.586  42.067   8.564
  352POPC   C2B 7952  30.621  42.056   8.264
  352POPC   C3B 7953  30.609  42.146   7.964
  352POPC   C4B 7954  30.583  42.085   7.664
  353POPC   NC3 7955  18.244   3.577   9.464
  353POPC   PO4 7956  18.239   3.496   9.164
  353POPC   GL1 7957  18.323   3.547   8.864
  353POPC   GL2 7958  18.357   3.521   8.864
  353POPC   C1A 7959  18.288   3.508   8.564
  353POPC   D2A 7960  18.263   3.496   8.264
  353POPC   C3A 7961  18.311   3.553   7.964
  353POPC   C4A 7962  18.286   3.498   7.664
  353POPC   C1B 7963  18.500   3.564   8.564
  353POPC   C2B 7964  18.520   3.542   8.264
  353POPC   C3B 7965  18.572   3.581   7.964
  353POPC   C4B 7966  18.542   3.622   7.664
  354POPC   NC3 7967  18.282  19.851   9.464
  354POPC   PO4 7968  18.237  19.869   9.164
  354POPC   GL1 7969  18.254  19.859   8.864
  354POPC   GL2 7970  18.300  19.938   8.864
  354POPC   C1A 7971  18.249  19.848   8.564
  354POPC   D2A 7972  18.325  19.822   8.264
  354POPC   C3A 7973  18.263  19.845   7.964
  354POPC   C4A 7974  18.330  19.860   7.664
  354POPC   C1B 7975  18.278  20.060   8.564
  354POPC   C2B 7976  18.247  20.098   8.264
  354POPC   C3B 7977  18.185  20.062   7.964
  354POPC   C4B 7978  18.219  20.128   7.664
  355POPC   NC3 7979  31.468  40.786   9.464
  355POPC   PO4 7980  31.509  40.749   9.164
  355POPC   GL1 7981  31.436  40.743   8.864
  355POPC   GL2 7982  31.375  40.778   8.864
  355POPC   C1A 7983  31.476  40.784   8.564
  355POPC   D2A 7984  31.446  40.775   8.264
  355POPC   C3A 7985  31.509  40.814   7.964
  355POPC   C4A 7986  31.479  40.766   7.664
  355POPC   C1B 7987  31.270  40.787   8.564
  355POPC   C2B 7988  31.186  40.747   8.264
  355POPC   C3B 7989  31.267  40.785   7.964
  355POPC   C4B 7990  31.178  40.816   7.664
  356POPC   NC3 7991  31.441  35.347   9.464
  356POPC   PO4 7992  31.436  35.395   9.164
  356POPC   GL1 7993  31.448  35.389   8.864
  356POPC   GL2 7994  31.520  35.187   8.864
  356POPC   C1A 7995  31.521  35.386   8.564
  356POPC   D2A 7996  31.427  35.319   8.264
  356POPC   C3A 7997  31.475  35.331   7.964
  356POPC   C4A 7998  31.445  35.318   7.664
  356POPC   C1B 7999  31.527  35.109   8.564
  356POPC   C2B 8000  31.497  35.117   8.264
  356POPC   C3B 8001  31.546  35.136   7.964
  356POPC   C4B 8002  31.504  35.080   7.664
  357POPC   NC3 8003  37.631  10.508   9.464
  357POPC   PO4 8004  37.727  10.518   9.164
  357POPC   GL1 8005  37.719  10.553   8.864
  357POPC   GL2 8006  37.736  10.390   8.864
  357POPC   C1A 8007  37.719  10.493   8.564
  357POPC   D2A 8008  37.685  10.482   8.264
  357POPC   C3A 8009  37.633  10.511   7.964
  357POPC   C4A 8010  37.726  10.495   7.664
  357POPC   C1B 8011  37.806  10.326   8.564
  357POPC   C2B 8012  37.811  10.319   8.264
  357POPC   C3B 8013  37.768  10.281   7.964
  357POPC   C4B 8014  37.765  10.297   7.664
  358POPC   NC3 8015  36.174  14.444   9.464
  358POPC   PO4 8016  36.157  14.357   9.164
  358POPC   GL1 8017  36.154  14.446   8.864
  358POPC   GL2 8018  36.201  14.435   8.864
  358POPC   C1A 8019  36.091  14.359   8.564
  358POPC   D2A 8020  36.125  14.355   8.264
  358POPC   C3A 8021  36.119  14.450   7.964
  358POPC   C4A 8022  36.108  14.419   7.664
  358POPC   C1B 8023  36.366  14.504   8.564
  358POPC   C2B 8024  36.398  14.515   8.264
  358POPC   C3B 8025  36.385  14.547   7.964
  358POPC   C4B 8026  36.342  14.539   7.664
  359POPC   NC3 8027  43.134  15.978   9.464
  359POPC   PO4 8028  43.084  15.913   9.164
  359POPC   GL1 8029  43.063  15.925   8.864
  359POPC   GL2 8030  43.000  16.060   8.864
  359POPC   C1A 8031  43.119  15.944   8.564
  359POPC   D2A 8032  43.078  15.981   8.264
  359POPC   C3A 8033  43.109  15.921   7.964
  359POPC   C4A 8034  43.070  15.991   7.664
  359POPC   C1B 8035  42.853  16.103   8.564
  359POPC   C2B 8036  42.877  16.097   8.264
  359POPC   C3B 8037  42.899  16.142   7.964
  359POPC   C4B 8038  42.903  16.058   7.664
  360POPC   NC3 8039  26.812   2.006   9.464
  360POPC   PO4 8040  26.794   1.969   9.164
  360POPC   GL1 8041  26.839   1.976   8.864
  360POPC   GL2 8042  26.687   1.946   8.864
  360POPC   C1A 8043  26.775   2.033   8.564
  360POPC   D2A 8044  26.860   1.975   8.264
  360POPC   C3A 8045  26.780   2.009   7.964
  360POPC   C4A 8046  26.791   1.951   7.664
  360POPC   C1B 8047  26.625   1.868   8.564
  360POPC   C2B 8048  26.592   1.898   8.264
  360POPC   C3B 8049  26.653   1.837   7.964
  360POPC   C4B 8050  26.566   1.886   7.664
  361POPC   NC3 8051  15.155  43.905   9.464
  361POPC   PO4 8052  15.222  43.856   9.164
  361POPC   GL1 8053  15.210  43.885   8.864
  361POPC   GL2 8054  15.102  43.940   8.864
  361POPC   C1A 8055  15.179  43.872   8.564
  361POPC   D2A 8056  15.183  43.889   8.264
  361POPC   C3A 8057  15.141  43.876   7.964
  361POPC   C4A 8058  15.222  43.935   7.664
  361POPC   C1B 8059  14.938  43.953   8.564
  361POPC   C2B 8060  14.931  43.959   8.264
  361POPC   C3B 8061  14.978  43.981   7.964
  361POPC   C4B 8062  14.976  43.947   7.664
  362POPC   NC3 8063  23.727  32.259   9.464
  362POPC   PO4 8064  23.678  32.276   9.164
  362POPC   GL1 8065  23.671  32.275   8.864
  362POPC   GL2 8066  23.631  32.183   8.864
  362POPC   C1A 8067  23.679  32.294   8.564
  362POPC   D2A 8068  23.749  32.238   8.264
  362POPC   C3A 8069  23.707  32.202   7.964
  362POPC   C4A 8070  23.733  32.227   7.664
  362POPC   C1B 8071  23.579  32.017   8.564
  362POPC   C2B 8072  23.573  31.985   8.264
  362POPC   C3B 8073  23.579  31.990   7.964
  362POPC   C4B 8074  23.565  32.041   7.664
  363POPC   NC3 8075  12.897  36.095   9.464
  363POPC   PO4 8076  12.843  36.151   9.164
  363POPC   GL1 8077  12.845  36.089   8.864
  363POPC   GL2 8078  12.840  35.973   8.864
  363POPC   C1A 8079  12.851  36.141   8.564
  363POPC   D2A 8080  12.884  36.126   8.264
  363POPC   C3A 8081  12.821  36.115   7.964
  363POPC   C4A 8082  12.837  36.171   7.664
  363POPC   C1B 8083  12.890  35.916   8.564
  363POPC   C2B 8084  12.935  35.875   8.264
  363POPC   C3B 8085  12.910  35.903   7.964
  363POPC   C4B 8086  12.940  35.892   7.664
  364POPC   NC3 8087  38.478  11.303   9.464
  364POPC   PO4 8088  38.471  11.324   9.164
  364POPC   GL1 8089  38.485  11.326   8.864
  364POPC   GL2 8090  38.339  11.272   8.864
  364POPC   C1A 8091  38.454  11.254   8.564
  364POPC   D2A 8092  38.435  11.300   8.264
  364POPC   C3A 8093  38.487  11.290   7.964
  364POPC   C4A 8094  38.453  11.287   7.664
  364POPC   C1B 8095  38.245  11.356   8.564
  364POPC   C2B 8096  38.190  11.348   8.264
  364POPC   C3B 8097  38.233  11.281   7.964
  364POPC   C4B 8098  38.247  11.300   7.664
  365POPC   NC3 8099   4.350   4.336   9.464
  365POPC   PO4 8100   4.343   4.304   9.164
  365POPC   GL1 8101   4.324   4.283   8.864
  365POPC   GL2 8102   4.198   4.297   8.864
  365POPC   C1A 8103   4.274   4.269   8.564
  365POPC   D2A 8104   4.360   4.315   8.264
  365POPC   C3A 8105   4.350   4.323   7.964
  365POPC   C4A 8106   4.333   4.345   7.664
  365POPC   C1B 8107   4.025   4.379   8.564
  365POPC   C2B 8108   4.050   4.367   8.264
  365POPC   C3B 8109   4.027   4.369   7.964
  365POPC   C4B 8110   4.108   4.362   7.664
  366POPC   NC3 8111   4.343  30.729   9.464
  366POPC   PO4 8112   4.362  30.676   9.164
  366POPC   GL1 8113   4.282  30.650   8.864
  366POPC   GL2 8114   4.355  30.840   8.864
  366POPC   C1A 8115   4.349  30.731   8.564
  366POPC   D2A 8116   4.331  30.686   8.264
  366POPC   C3A 8117   4.302  30.651   7.964
  366POPC   C4A 8118   4.353  30.682   7.664
  366POPC   C1B 8119   4.357  30.937   8.564
  366POPC   C2B 8120   4.365  30.982   8.264
  366POPC   C3B 8121   4.304  30.976   7.964
  366POPC   C4B 8122   4.338  30.976   7.664
  367POPC   NC3 8123  15.991   1.170   9.464
  367POPC   PO4 8124  15.975   1.216   9.164
  367POPC   GL1 8125  15.994   1.239   8.864
  367POPC   GL2 8126  15.857   1.097   8.864
  367POPC   C1A 8127  16.002   1.165   8.564
  367POPC   D2A 8128  15.964   1.194   8.264
  367POPC   C3A 8129  15.920   1.251   7.964
  367POPC   C4A 8130  15.932   1.177   7.664
  367POPC   C1B 8131  15.808   0.995   8.564
  367POPC   C2B 8132  15.767   1.053   8.264
  367POPC   C3B 8133  15.795   1.062   7.964
  367POPC   C4B 8134  15.749   1.011   7.664
  368POPC   NC3 8135  27.555  43.111   9.464
  368POPC   PO4 8136  27.545  43.077   9.164
  368POPC   GL1 8137  27.640  43.131   8.864
  368POPC   GL2 8138  27.633  42.989   8.864
  368POPC   C1A 8139  27.590  43.150   8.564
  368POPC   D2A 8140  27.619  43.140   8.264
  368POPC   C3A 8141  27.601  43.086   7.964
  368POPC   C4A 8142  27.555  43.083   7.664
  368POPC   C1B 8143  27.730  42.900   8.564
  368POPC   C2B 8144  27.777  42.930   8.264
  368POPC   C3B 8145  27.781  42.952   7.964
  368POPC   C4B 8146  27.775  42.896   7.664
  369POPC   NC3 8147  31.518   7.411   9.464
  369POPC   PO4 8148  31.469   7.376   9.164
  369POPC   GL1 8149  31.493   7.396   8.864
  369POPC   GL2 8150  31.503   7.280   8.864
  369POPC   C1A 8151  31.425   7.447   8.564
  369POPC   D2A 8152  31.462   7.422   8.264
  369POPC   C3A 8153  31.448   7.413   7.964
  369POPC   C4A 8154  31.482   7.404   7.664
  369POPC   C1B 8155  31.487   7.123   8.564
  369POPC   C2B 8156  31.509   7.175   8.264
  369POPC   C3B 8157  31.526   7.168   7.964
  369POPC   C4B 8158  31.506   7.126   7.664
  370POPC   NC3 8159  17.490  17.514   9.464
  370POPC   PO4 8160  17.529  17.529   9.164
  370POPC   GL1 8161  17.521  17.507   8.864
  370POPC   GL2 8162  17.494  17.638   8.864
  370POPC   C1A 8163  17.542  17.518   8.564
  370POPC   D2A 8164  17.473  17.493   8.264
  370POPC   C3A 8165  17.538  17.530   7.964
  370POPC   C4A 8166  17.526  17.476   7.664
  370POPC   C1B 8167  17.441  17.737   8.564
  370POPC   C2B 8168  17.495  17.722   8.264
  370POPC   C3B 8169  17.464  17.726   7.964
  370POPC   C4B 8170  17.476  17.765   7.664
  371POPC   NC3 8171   3.571   5.071   9.464
  371POPC   PO4 8172   3.563   5.048   9.164
  371POPC   GL1 8173   3.528   5.109   8.864
  371POPC   GL2 8174   3.674   5.130   8.864
  371POPC   C1A 8175   3.508   5.143   8.564
  371POPC   D2A 8176   3.531   5.135   8.264
  371POPC   C3A 8177   3.538   5.093   7.964
  371POPC   C4A 8178   3.504   5.119   7.664
  371POPC   C1B 8179   3.784   5.037   8.564
  371POPC   C2B 8180   3.753   5.070   8.264
  371POPC   C3B 8181   3.805   5.052   7.964
  371POPC   C4B 8182   3.758   5.071   7.664
  372POPC   NC3 8183   4.292   7.415   9.464
  372POPC   PO4 8184   4.276   7.378   9.164
  372POPC   GL1 8185   4.345   7.430   8.864
  372POPC   GL2 8186   4.326   7.352   8.864
  372POPC   C1A 8187   4.316   7.424   8.564
  372POPC   D2A 8188   4.337   7.413   8.264
  372POPC   C3A 8189   4.279   7.449   7.964
  372POPC   C4A 8190   4.296   7.440   7.664
  372POPC   C1B 8191   4.415   7.173   8.564
  372POPC   C2B 8192   4.415   7.175   8.264
  372POPC   C3B 8193   4.405   7.196   7.964
  372POPC   C4B 8194   4.382   7.187   7.664
  373POPC   NC3 8195  42.350  43.066   9.464
  373POPC   PO4 8196  42.321  43.120   9.164
  373POPC   GL1 8197  42.305  43.101   8.864
  373POPC   GL2 8198  42.180  43.095   8.864
  373POPC   C1A 8199  42.290  43.067   8.564
  373POPC   D2A 8200  42.308  43.123   8.264
  373POPC   C3A 8201  42.365  43.128   7.964
  373POPC   C4A 8202  42.318  43.111   7.664
  373POPC   C1B 8203  42.098  43.025   8.564
  373POPC   C2B 8204  42.078  42.935   8.264
  373POPC   C3B 8205  42.118  42.949   7.964
  373POPC   C4B 8206  42.114  42.957   7.664
  374POPC   NC3 8207  10.517  36.169   9.464
  374POPC   PO4 8208  10.561  36.123   9.164
  374POPC   GL1 8209  10.482  36.103   8.864
  374POPC   GL2 8210  10.622  36.194   8.864
  374POPC   C1A 8211  10.528  36.136   8.564
  374POPC   D2A 8212  10.571  36.086   8.264
  374POPC   C3A 8213  10.547  36.104   7.964
  374POPC   C4A 8214  10.547  36.135   7.664
  374POPC   C1B 8215  10.799  36.228   8.564
  374POPC   C2B 8216  10.788  36.243   8.264
  374POPC   C3B 8217  10.778  36.248   7.964
  374POPC   C4B 8218  10.733  36.196   7.664
  375POPC   NC3 8219   8.205  29.899   9.464
  375POPC   PO4 8220   8.221  29.904   9.164
  375POPC   GL1 8221   8.172  29.950   8.864
  375POPC   GL2 8222   8.325  30.010   8.864
  375POPC   C1A 8223   8.187  29.876   8.564
  375POPC   D2A 8224   8.237  29.895   8.264
  375POPC   C3A 8225   8.173  29.878   7.964
  375POPC   C4A 8226   8.183  29.902   7.664
  375POPC   C1B 8227   8.378  30.011   8.564
  375POPC   C2B 8228   8.365  30.025   8.264
  375POPC   C3B 8229   8.387  30.094   7.964
  375POPC   C4B 8230   8.436  30.030   7.664
  376POPC   NC3 8231  34.622  40.774   9.464
  376POPC   PO4 8232  34.572  40.813   9.164
  376POPC   GL1 8233  34.562  40.806   8.864
  376POPC   GL2 8234  34.506  40.740   8.864
  376POPC   C1A 8235  34.590  40.761   8.564
  376POPC   D2A 8236  34.594  40.773   8.264
  376POPC   C3A 8237  34.556  40.754   7.964
  376POPC   C4A 8238  34.556  40.819   7.664
  376POPC   C1B 8239  34.356  40.584   8.564
  376POPC   C2B 8240  34.374  40.613   8.264
  376POPC   C3B 8241  34.363  40.662   7.964
  376POPC   C4B 8242  34.349  40.599   7.664
  377POPC   NC3 8243   4.281  23.735   9.464
  377POPC   PO4 8244   4.346  23.700   9.164
  377POPC   GL1 8245   4.363  23.756   8.864
  377POPC   GL2 8246   4.431  23.810   8.864
  377POPC   C1A 8247   4.275  23.688   8.564
  377POPC   D2A 8248   4.273  23.665   8.264
  377POPC   C3A 8249   4.359  23.750   7.964
  377POPC   C4A 8250   4.284  23.683   7.664
  377POPC   C1B 8251   4.533  23.941   8.564
  377POPC   C2B 8252   4.476  23.885   8.264
  377POPC   C3B 8253   4.528  23.887   7.964
  377POPC   C4B 8254   4.437  23.883   7.664
  378POPC   NC3 8255  28.367  14.408   9.464
  378POPC   PO4 8256  28.389  14.368   9.164
  378POPC   GL1 8257  28.364  14.402   8.864
  378POPC   GL2 8258  28.225  14.428   8.864
  378POPC   C1A 8259  28.325  14.355   8.564
  378POPC   D2A 8260  28.401  14.389   8.264
  378POPC   C3A 8261  28.325  14.370   7.964
  378POPC   C4A 8262  28.377  14.361   7.664
  378POPC   C1B 8263  28.089  14.481   8.564
  378POPC   C2B 8264  28.170  14.456   8.264
  378POPC   C3B 8265  28.169  14.410   7.964
  378POPC   C4B 8266  28.139  14.422   7.664
  379POPC   NC3 8267  29.125  19.104   9.464
  379POPC   PO4 8268  29.145  19.048   9.164
  379POPC   GL1 8269  29.118  19.018   8.864
  379POPC   GL2 8270  29.150  18.978   8.864
  379POPC   C1A 8271  29.184  19.056   8.564
  379POPC   D2A 8272  29.184  19.099   8.264
  379POPC   C3A 8273  29.152  19.043   7.964
  379POPC   C4A 8274  29.109  19.092   7.664
  379POPC   C1B 8275  29.273  18.805   8.564
  379POPC   C2B 8276  29.205  18.806   8.264
  379POPC   C3B 8277  29.272  18.776   7.964
  379POPC   C4B 8278  29.189  18.839   7.664
  380POPC   NC3 8279   5.849  11.263   9.464
  380POPC   PO4 8280   5.893  11.268   9.164
  380POPC   GL1 8281   5.875  11.309   8.864
  380POPC   GL2 8282   5.721  11.400   8.864
  380POPC   C1A 8283   5.850  11.301   8.564
  380POPC   D2A 8284   5.890  11.324   8.264
  380POPC   C3A 8285   5.864  11.309   7.964
  380POPC   C4A 8286   5.821  11.317   7.664
  380POPC   C1B 8287   5.625  11.452   8.564
  380POPC   C2B 8288   5.680  11.432   8.264
  380POPC   C3B 8289   5.619  11.421   7.964
  380POPC   C4B 8290   5.653  11.444   7.664
  381POPC   NC3 8291  39.195  18.331   9.464
  381POPC   PO4 8292  39.190  18.308   9.164
  381POPC   GL1 8293  39.246  18.265   8.864
  381POPC   GL2 8294  39.338  18.167   8.864
  381POPC   C1A 8295  39.266  18.289   8.564
  381POPC   D2A 8296  39.240  18.277   8.264
  381POPC   C3A 8297  39.223  18.269   7.964
  381POPC   C4A 8298  39.212  18.280   7.664
  381POPC   C1B 8299  39.352  18.081   8.564
  381POPC   C2B 8300  39.423  18.131   8.264
  381POPC   C3B 8301  39.418  18.112   7.964
  381POPC   C4B 8302  39.373  18.052   7.664
  382POPC   NC3 8303  11.280  37.660   9.464
  382POPC   PO4 8304  11.274  37.698   9.164
  382POPC   GL1 8305  11.253  37.679   8.864
  382POPC   GL2 8306  11.353  37.773   8.864
  382POPC   C1A 8307  11.321  37.643   8.564
  382POPC   D2A 8308  11.260  37.653   8.264
  382POPC   C3A 8309  11.299  37.652   7.964
  382POPC   C4A 8310  11.347  37.671   7.664
  382POPC   C1B 8311  11.314  37.894   8.564
  382POPC   C2B 8312  11.299  37.907   8.264
  382POPC   C3B 8313  11.304  37.889   7.964
  382POPC   C4B 8314  11.289  37.975   7.664
  383POPC   NC3 8315  18.245   5.049   9.464
  383POPC   PO4 8316  18.320   5.050   9.164
  383POPC   GL1 8317  18.250   5.057   8.864
  383POPC   GL2 8318  18.215   5.030   8.864
  383POPC   C1A 8319  18.248   5.109   8.564
  383POPC   D2A 8320  18.252   5.140   8.264
  383POPC   C3A 8321  18.295   5.086   7.964
  383POPC   C4A 8322  18.245   5.069   7.664
  383POPC   C1B 8323  18.192   4.897   8.564
  383POPC   C2B 8324  18.219   4.907   8.264
  383POPC   C3B 8325  18.129   4.897   7.964
  383POPC   C4B 8326  18.141   4.824   7.664
  384POPC   NC3 8327  37.634  15.212   9.464
  384POPC   PO4 8328  37.650  15.213   9.164
  384POPC   GL1 8329  37.661  15.171   8.864
  384POPC   GL2 8330  37.725  15.337   8.864
  384POPC   C1A 8331  37.675  15.174   8.564
  384POPC   D2A 8332  37.710  15.154   8.264
  384POPC   C3A 8333  37.646  15.206   7.964
  384POPC   C4A 8334  37.687  15.142   7.664
  384POPC   C1B 8335  37.713  15.424   8.564
  384POPC   C2B 8336  37.768  15.422   8.264
  384POPC   C3B 8337  37.726  15.388   7.964
  384POPC   C4B 8338  37.699  15.471   7.664
  385POPC   NC3 8339   4.282   3.535   9.464
  385POPC   PO4 8340   4.303   3.533   9.164
  385POPC   GL1 8341   4.304   3.547   8.864
  385POPC   GL2 8342   4.393   3.669   8.864
  385POPC   C1A 8343   4.297   3.571   8.564
  385POPC   D2A 8344   4.361   3.540   8.264
  385POPC   C3A 8345   4.299   3.554   7.964
  385POPC   C4A 8346   4.293   3.577   7.664
  385POPC   C1B 8347   4.416   3.785   8.564
  385POPC   C2B 8348   4.400   3.735   8.264
  385POPC   C3B 8349   4.393   3.733   7.964
  385POPC   C4B 8350   4.445   3.807   7.664
  386POPC   NC3 8351  29.882  31.463   9.464
  386POPC   PO4 8352  29.902  31.517   9.164
  386POPC   GL1 8353  29.944  31.433   8.864
  386POPC   GL2 8354  29.883  31.377   8.864
  386POPC   C1A 8355  29.944  31.444   8.564
  386POPC   D2A 8356  29.942  31.472   8.264
  386POPC   C3A 8357  29.936  31.499   7.964
  386POPC   C4A 8358  29.902  31.425   7.664
  386POPC   C1B 8359  29.795  31.312   8.564
  386POPC   C2B 8360  29.806  31.301   8.264
  386POPC   C3B 8361  29.738  31.320   7.964
  386POPC   C4B 8362  29.743  31.296   7.664
  387POPC   NC3 8363   7.453  26.827   9.464
  387POPC   PO4 8364   7.395  26.812   9.164
  387POPC   GL1 8365   7.424  26.813   8.864
  387POPC   GL2 8366   7.272  26.774   8.864
  387POPC   C1A 8367   7.425  26.794   8.564
  387POPC   D2A 8368   7.409  26.823   8.264
  387POPC   C3A 8369   7.456  26.817   7.964
  387POPC   C4A 8370   7.438  26.796   7.664
  387POPC   C1B 8371   7.228  26.765   8.564
  387POPC   C2B 8372   7.209  26.710   8.264
  387POPC   C3B 8373   7.139  26.735   7.964
  387POPC   C4B 8374   7.153  26.748   7.664
  388POPC   NC3 8375  16.767   8.175   9.464
  388POPC   PO4 8376  16.684   8.226   9.164
  388POPC   GL1 8377  16.741   8.207   8.864
  388POPC   GL2 8378  16.655   8.268   8.864
  388POPC   C1A 8379  16.701   8.165   8.564
  388POPC   D2A 8380  16.688   8.168   8.264
  388POPC   C3A 8381  16.718   8.147   7.964
  388POPC   C4A 8382  16.713   8.198   7.664
  388POPC   C1B 8383  16.487   8.324   8.564
  388POPC   C2B 8384  16.465   8.336   8.264
  388POPC   C3B 8385  16.480   8.261   7.964
  388POPC   C4B 8386  16.505   8.288   7.664
  389POPC   NC3 8387  12.100   1.214   9.464
  389POPC   PO4 8388  12.113   1.169   9.164
  389POPC   GL1 8389  12.104   1.179   8.864
  389POPC   GL2 8390  12.237   1.230   8.864
  389POPC   C1A 8391  12.064   1.239   8.564
  389POPC   D2A 8392  12.053   1.249   8.264
  389POPC   C3A 8393  12.101   1.237   7.964
  389POPC   C4A 8394  12.074   1.242   7.664
  389POPC   C1B 8395  12.298   1.235   8.564
  389POPC   C2B 8396  12.290   1.197   8.264
  389POPC   C3B 8397  12.292   1.241   7.964
  389POPC   C4B 8398  12.315   1.184   7.664
  390POPC   NC3 8399   8.989  38.487   9.464
  390POPC   PO4 8400   8.936  38.423   9.164
  390POPC   GL1 8401   8.989  38.505   8.864
  390POPC   GL2 8402   8.835  38.347   8.864
  390POPC   C1A 8403   8.969  38.456   8.564
  390POPC   D2A 8404   9.016  38.495   8.264
  390POPC   C3A 8405   9.007  38.489   7.964
  390POPC   C4A 8406   8.954  38.488   7.664
  390POPC   C1B 8407   8.733  38.333   8.564
  390POPC   C2B 8408   8.717  38.290   8.264
  390POPC   C3B 8409   8.737  38.350   7.964
  390POPC   C4B 8410   8.740  38.334   7.664
  391POPC   NC3 8411  41.523  43.903   9.464
  391POPC   PO4 8412  41.535  43.915   9.164
  391POPC   GL1 8413  41.519  43.906   8.864
  391POPC   GL2 8414  41.651  43.961   8.864
  391POPC   C1A 8415  41.532  43.925   8.564
  391POPC   D2A 8416  41.606  43.851   8.264
  391POPC   C3A 8417  41.513  43.933   7.964
  391POPC   C4A 8418  41.606  43.892   7.664
  391POPC   C1B 8419  41.725  44.029   8.564
  391POPC   C2B 8420  41.783  44.033   8.264
  391POPC   C3B 8421  41.737  44.065   7.964
  391POPC   C4B 8422  41.795  43.994   7.664
  392POPC   NC3 8423  33.760  42.364   9.464
  392POPC   PO4 8424  33.755  42.353   9.164
  392POPC   GL1 8425  33.809  42.326   8.864
  392POPC   GL2 8426  33.872  42.494   8.864
  392POPC   C1A 8427  33.752  42.381   8.564
  392POPC   D2A 8428  33.835  42.344   8.264
  392POPC   C3A 8429  33.825  42.344   7.964
  392POPC   C4A 8430  33.808  42.286   7.664
  392POPC   C1B 8431  33.822  42.578   8.564
  392POPC   C2B 8432  33.874  42.533   8.264
  392POPC   C3B 8433  33.883  42.577   7.964
  392POPC   C4B 8434  33.889  42.589   7.664
  393POPC   NC3 8435  44.704  43.907   9.464
  393POPC   PO4 8436  44.690  43.912   9.164
  393POPC   GL1 8437  44.678  43.923   8.864
  393POPC   GL2 8438  44.745  43.851   8.864
  393POPC   C1A 8439  44.710  43.838   8.564
  393POPC   D2A 8440  44.626  43.887   8.264
  393POPC   C3A 8441  44.691  43.837   7.964
  393POPC   C4A 8442  44.668  43.843   7.664
  393POPC   C1B 8443  44.933  43.887   8.564
  393POPC   C2B 8444  44.952  43.932   8.264
  393POPC   C3B 8445  44.864  43.924   7.964
  393POPC   C4B 8446  44.894  43.881   7.664
  394POPC   NC3 8447  34.540  15.933   9.464
  394POPC   PO4 8448  34.611  15.978   9.164
  394POPC   GL1 8449  34.607  15.941   8.864
  394POPC   GL2 8450  34.546  15.856   8.864
  394POPC   C1A 8451  34.579  15.948   8.564
  394POPC   D2A 8452  34.552  15.925   8.264
  394POPC   C3A 8453  34.562  15.954   7.964
  394POPC   C4A 8454  34.573  15.948   7.664
  394POPC   C1B 8455  34.531  15.658   8.564
  394POPC   C2B 8456  34.509  15.678   8.264
  394POPC   C3B 8457  34.583  15.693   7.964
  394POPC   C4B 8458  34.522  15.701   7.664
  395POPC   NC3 8459   2.807  36.881   9.464
  395POPC   PO4 8460   2.797  36.873   9.164
  395POPC   GL1 8461   2.752  36.884   8.864
  395POPC   GL2 8462   2.795  36.742   8.864
  395POPC   C1A 8463   2.784  36.916   8.564
  395POPC   D2A 8464   2.802  36.942   8.264
  395POPC   C3A 8465   2.743  36.858   7.964
  395POPC   C4A 8466   2.770  36.889   7.664
  395POPC   C1B 8467   2.809  36.707   8.564
  395POPC   C2B 8468   2.858  36.626   8.264
  395POPC   C3B 8469   2.838  36.646   7.964
  395POPC   C4B 8470   2.874  36.686   7.664
  396POPC   NC3 8471  36.122  11.322   9.464
  396POPC   PO4 8472  36.129  11.277   9.164
  396POPC   GL1 8473  36.117  11.265   8.864
  396POPC   GL2 8474  36.015  11.383   8.864
  396POPC   C1A 8475  36.170  11.285   8.564
  396POPC   D2A 8476  36.159  11.331   8.264
  396POPC   C3A 8477  36.086  11.327   7.964
  396POPC   C4A 8478  36.121  11.270   7.664
  396POPC   C1B 8479  35.973  11.459   8.564
  396POPC   C2B 8480  35.935  11.441   8.264
  396POPC   C3B 8481  35.892  11.443   7.964
  396POPC   C4B 8482  35.978  11.415   7.664
  397POPC   NC3 8483  17.553  42.374   9.464
  397POPC   PO4 8484  17.492  42.323   9.164
  397POPC   GL1 8485  17.522  42.299   8.864
  397POPC   GL2 8486  17.579  42.470   8.864
  397POPC   C1A 8487  17.471  42.375   8.564
  397POPC   D2A 8488  17.480  42.337   8.264
  397POPC   C3A 8489  17.466  42.315   7.964
  397POPC   C4A 8490  17.511  42.301   7.664
  397POPC   C1B 8491  17.555  42.552   8.564
  397POPC   C2B 8492  17.596  42.549   8.264
  397POPC   C3B 8493  17.618  42.592   7.964
  397POPC   C4B 8494  17.564  42.597   7.664
  398POPC   NC3 8495  29.122  19.841   9.464
  398POPC   PO4 8496  29.181  19.856   9.164
  398POPC   GL1 8497  29.133  19.842   8.864
  398POPC   GL2 8498  29.249  19.990   8.864
  398POPC   C1A 8499  29.194  19.868   8.564
  398POPC   D2A 8500  29.151  19.814   8.264
  398POPC   C3A 8501  29.163  19.879   7.964
  398POPC   C4A 8502  29.153  19.816   7.664
  398POPC   C1B 8503  29.304  20.040   8.564
  398POPC   C2B 8504  29.297  20.024   8.264
  398POPC   C3B 8505  29.298  20.009   7.964
  398POPC   C4B 8506  29.253  20.018   7.664
  399POPC   NC3 8507  43.925   4.351   9.464
  399POPC   PO4 8508  43.912   4.360   9.164
  399POPC   GL1 8509  43.873   4.298   8.864
  399POPC   GL2 8510  43.732   4.236   8.864
  399POPC   C1A 8511  43.863   4.313   8.564
  399POPC   D2A 8512  43.866   4.339   8.264
  399POPC   C3A 8513  43.847   4.299   7.964
  399POPC   C4A 8514  43.879   4.279   7.664
  399POPC   C1B 8515  43.710   4.207   8.564
  399POPC   C2B 8516  43.620   4.194   8.264
  399POPC   C3B 8517  43.704   4.144   7.964
  399POPC   C4B 8518  43.654   4.151   7.664
  400POPC   NC3 8519  43.889  28.323   9.464
  400POPC   PO4 8520  43.931  28.359   9.164
  400POPC   GL1 8521  43.865  28.404   8.864
  400POPC   GL2 8522  43.867  28.530   8.864
  400POPC   C1A 8523  43.905  28.333   8.564
  400POPC   D2A 8524  43.898  28.337   8.264
  400POPC   C3A 8525  43.923  28.320   7.964
  400POPC   C4A 8526  43.892  28.388   7.664
  400POPC   C1B 8527  43.759  28.616   8.564
  400POPC   C2B 8528  43.800  28.569   8.264
  400POPC   C3B 8529  43.834  28.560   7.964
  400POPC   C4B 8530  43.829  28.587   7.664
  401POPC   NC3 8531  12.081  12.053   9.464
  401POPC   PO4 8532  12.044  12.053   9.164
  401POPC   GL1 8533  12.040  12.041   8.864
  401POPC   GL2 8534  12.236  12.014   8.864
  401POPC   C1A 8535  12.039  12.040   8.564
  401POPC   D2A 8536  12.027  12.032   8.264
  401POPC   C3A 8537  12.031  12.096   7.964
  401POPC   C4A 8538  12.040  12.032   7.664
  401POPC   C1B 8539  12.333  12.000   8.564
  401POPC   C2B 8540  12.323  12.037   8.264
  401POPC   C3B 8541  12.324  11.996   7.964
  401POPC   C4B 8542  12.290  12.040   7.664
  402POPC   NC3 8543  24.467  12.832   9.464
  402POPC   PO4 8544  24.495  12.885   9.164
  402POPC   GL1 8545  24.489  12.842   8.864
  402POPC   GL2 8546  24.333  12.864   8.864
  402POPC   C1A 8547  24.522  12.856   8.564
  402POPC   D2A 8548  24.482  12.862   8.264
  402POPC   C3A 8549  24.459  12.825   7.964
  402POPC   C4A 8550  24.455  12.881   7.664
  402POPC   C1B 8551  24.204  12.836   8.564
  402POPC   C2B 8552  24.277  12.819   8.264
  402POPC   C3B 8553  24.257  12.788   7.964
  402POPC   C4B 8554  24.289  12.818   7.664
  403POPC   NC3 8555   8.172  10.523   9.464
  403POPC   PO4 8556   8.174  10.500   9.164
  403POPC   GL1 8557   8.214  10.482   8.864
  403POPC   GL2 8558   8.045  10.541   8.864
  403POPC   C1A 8559   8.230  10.569   8.564
  403POPC   D2A 8560   8.212  10.529   8.264
  403POPC   C3A 8561   8.186  10.559   7.964
  403POPC   C4A 8562   8.184  10.502   7.664
  403POPC   C1B 8563   7.942  10.588   8.564
  403POPC   C2B 8564   7.989  10.514   8.264
  403POPC   C3B 8565   7.917  10.541   7.964
  403POPC   C4B 8566   7.920  10.530   7.664
  404POPC   NC3 8567   8.185   6.645   9.464
  404POPC   PO4 8568   8.206   6.595   9.164
  404POPC   GL1 8569   8.155   6.671   8.864
  404POPC   GL2 8570   8.298   6.580   8.864
  404POPC   C1A 8571   8.189   6.648   8.564
  404POPC   D2A 8572   8.175   6.642   8.264
  404POPC   C3A 8573   8.231   6.679   7.964
  404POPC   C4A 8574   8.184   6.634   7.664
  404POPC   C1B 8575   8.272   6.385   8.564
  404POPC   C2B 8576   8.305   6.388   8.264
  404POPC   C3B 8577   8.295   6.433   7.964
  404POPC   C4B 8578   8.268   6.464   7.664
  405POPC   NC3 8579  11.288  33.752   9.464
  405POPC   PO4 8580  11.349  33.803   9.164
  405POPC   GL1 8581  11.309  33.763   8.864
  405POPC   GL2 8582  11.202  33.666   8.864
  405POPC   C1A 8583  11.322  33.795   8.564
  405POPC   D2A 8584  11.262  33.772   8.264
  405POPC   C3A 8585  11.329  33.845   7.964
  405POPC   C4A 8586  11.268  33.766   7.664
  405POPC   C1B 8587  11.123  33.575   8.564
  405POPC   C2B 8588  11.115  33.572   8.264
  405POPC   C3B 8589  11.105  33.621   7.964
  405POPC   C4B 8590  11.194  33.602   7.664
  406POPC   NC3 8591  19.878  15.151   9.464
  406POPC   PO4 8592  19.794  15.130   9.164
  406POPC   GL1 8593  19.802  15.188   8.864
  406POPC   GL2 8594  19.755  15.087   8.864
  406POPC   C1A 8595  19.796  15.189   8.564
  406POPC   D2A 8596  19.804  15.184   8.264
  406POPC   C3A 8597  19.790  15.203   7.964
  406POPC   C4A 8598  19.801  15.216   7.664
  406POPC   C1B 8599  19.720  14.975   8.564
  406POPC   C2B 8600  19.670  15.015   8.264
  406POPC   C3B 8601  19.655  14.943   7.964
  406POPC   C4B 8602  19.746  14.976   7.664
  407POPC   NC3 8603  13.590   2.026   9.464
  407POPC   PO4 8604  13.639   2.025   9.164
  407POPC   GL1 8605  13.647   2.008   8.864
  407POPC   GL2 8606  13.750   2.048   8.864
  407POPC   C1A 8607  13.588   1.942   8.564
  407POPC   D2A 8608  13.642   2.014   8.264
  407POPC   C3A 8609  13.603   1.996   7.964
  407POPC   C4A 8610  13.624   1.978   7.664
  407POPC   C1B 8611  13.782   2.154   8.564
  407POPC   C2B 8612  13.821   2.211   8.264
  407POPC   C3B 8613  13.754   2.178   7.964
  407POPC   C4B 8614  13.786   2.185   7.664
  408POPC   NC3 8615   1.961   2.030   9.464
  408POPC   PO4 8616   1.969   2.000   9.164
  408POPC   GL1 8617   1.946   1.943   8.864
  408POPC   GL2 8618   1.876   1.881   8.864
  408POPC   C1A 8619   1.982   2.028   8.564
  408POPC   D2A 8620   2.008   2.019   8.264
  408POPC   C3A 8621   1.990   1.999   7.964
  408POPC   C4A 8622   1.990   1.993   7.664
  408POPC   C1B 8623   1.823   1.901   8.564
  408POPC   C2B 8624   1.769   1.840   8.264
  408POPC   C3B 8625   1.773   1.857   7.964
  408POPC   C4B 8626   1.810   1.845   7.664
  409POPC   NC3 8627   1.175  43.154   9.464
  409POPC   PO4 8628   1.178  43.148   9.164
  409POPC   GL1 8629   1.200  43.120   8.864
  409POPC   GL2 8630   1.205  43.018   8.864
  409POPC   C1A 8631   1.221  43.107   8.564
  409POPC   D2A 8632   1.167  43.125   8.264
  409POPC   C3A 8633   1.177  43.159   7.964
  409POPC   C4A 8634   1.195  43.117   7.664
  409POPC   C1B 8635   1.179  42.842   8.564
  409POPC   C2B 8636   1.157  42.820   8.264
  409POPC   C3B 8637   1.166  42.883   7.964
  409POPC   C4B 8638   1.230  42.853   7.664
  410POPC   NC3 8639  33.806  28.348   9.464
  410POPC   PO4 8640  33.814  28.348   9.164
  410POPC   GL1 8641  33.813  28.410   8.864
  410POPC   GL2 8642  33.821  28.262   8.864
  410POPC   C1A 8643  33.759  28.348   8.564
  410POPC   D2A 8644  33.776  28.320   8.264
  410POPC   C3A 8645  33.842  28.388   7.964
  410POPC   C4A 8646  33.774  28.368   7.664
  410POPC   C1B 8647  33.757  28.110   8.564
  410POPC   C2B 8648  33.745  28.118   8.264
  410POPC   C3B 8649  33.767  28.147   7.964
  410POPC   C4B 8650  33.743  28.165   7.664
  411POPC   NC3 8651  40.777   4.326   9.464
  411POPC   PO4 8652  40.808   4.278   9.164
  411POPC   GL1 8653  40.759   4.362   8.864
  411POPC   GL2 8654  40.687   4.242   8.864
  411POPC   C1A 8655  40.791   4.313   8.564
  411POPC   D2A 8656  40.796   4.365   8.264
  411POPC   C3A 8657  40.757   4.310   7.964
  411POPC   C4A 8658  40.753   4.333   7.664
  411POPC   C1B 8659  40.657   4.103   8.564
  411POPC   C2B 8660  40.622   4.168   8.264
  411POPC   C3B 8661  40.664   4.139   7.964
  411POPC   C4B 8662  40.638   4.090   7.664
  412POPC   NC3 8663   1.988  28.377   9.464
  412POPC   PO4 8664   2.027  28.351   9.164
  412POPC   GL1 8665   1.968  28.391   8.864
  412POPC   GL2 8666   1.962  28.251   8.864
  412POPC   C1A 8667   2.001  28.362   8.564
  412POPC   D2A 8668   1.960  28.369   8.264
  412POPC   C3A 8669   1.956  28.366   7.964
  412POPC   C4A 8670   1.953  28.380   7.664
  412POPC   C1B 8671   2.000  28.129   8.564
  412POPC   C2B 8672   2.023  28.120   8.264
  412POPC   C3B 8673   2.064  28.152   7.964
  412POPC   C4B 8674   2.032  28.121   7.664
  413POPC   NC3 8675  39.270   5.853   9.464
  413POPC   PO4 8676  39.236   5.839   9.164
  413POPC   GL1 8677  39.250   5.917   8.864
  413POPC   GL2 8678  39.231   6.021   8.864
  413POPC   C1A 8679  39.208   5.909   8.564
  413POPC   D2A 8680  39.200   5.894   8.264
  413POPC   C3A 8681  39.240   5.880   7.964
  413POPC   C4A 8682  39.207   5.871   7.664
  413POPC   C1B 8683  39.314   6.090   8.564
  413POPC   C2B 8684  39.335   6.122   8.264
  413POPC   C3B 8685  39.335   6.113   7.964
  413POPC   C4B 8686  39.331   6.144   7.664
  414POPC   NC3 8687   4.322   1.200   9.464
  414POPC   PO4 8688   4.302   1.204   9.164
  414POPC   GL1 8689   4.272   1.195   8.864
  414POPC   GL2 8690   4.213   1.218   8.864
  414POPC   C1A 8691   4.367   1.223   8.564
  414POPC   D2A 8692   4.318   1.165   8.264
  414POPC   C3A 8693   4.280   1.212   7.964
  414POPC   C4A 8694   4.342   1.245   7.664
  414POPC   C1B 8695   4.031   1.242   8.564
  414POPC   C2B 8696   4.106   1.281   8.264
  414POPC   C3B 8697   4.102   1.287   7.964
  414POPC   C4B 8698   4.079   1.199   7.664
  415POPC   NC3 8699  43.862   5.055   9.464
  415POPC   PO4 8700  43.864   5.077   9.164
  415POPC   GL1 8701  43.869   5.085   8.864
  415POPC   GL2 8702  43.899   5.241   8.864
  415POPC   C1A 8703  43.886   5.048   8.564
  415POPC   D2A 8704  43.907   5.129   8.264
  415POPC   C3A 8705  43.876   5.045   7.964
  415POPC   C4A 8706  43.918   5.097   7.664
  415POPC   C1B 8707  43.781   5.354   8.564
  415POPC   C2B 8708  43.818   5.314   8.264
  415POPC   C3B 8709  43.771   5.379   7.964
  415POPC   C4B 8710  43.835   5.375   7.664
  416POPC   NC3 8711  24.441   3.535   9.464
  416POPC   PO4 8712  24.526   3.493   9.164
  416POPC   GL1 8713  24.511   3.525   8.864
  416POPC   GL2 8714  24.405   3.474   8.864
  416POPC   C1A 8715  24.528   3.506   8.564
  416POPC   D2A 8716  24.482   3.550   8.264
  416POPC   C3A 8717  24.469   3.575   7.964
  416POPC   C4A 8718  24.483   3.542   7.664
  416POPC   C1B 8719  24.250   3.448   8.564
  416POPC   C2B 8720  24.277   3.440   8.264
  416POPC   C3B 8721  24.245   3.495   7.964
  416POPC   C4B 8722  24.273   3.466   7.664
  417POPC   NC3 8723   9.774  33.776   9.464
  417POPC   PO4 8724   9.780  33.802   9.164
  417POPC   GL1 8725   9.718  33.820   8.864
  417POPC   GL2 8726   9.587  33.825   8.864
  417POPC   C1A 8727   9.732  33.826   8.564
  417POPC   D2A 8728   9.699  33.790   8.264
  417POPC   C3A 8729   9.773  33.795   7.964
  417POPC   C4A 8730   9.721  33.845   7.664
  417POPC   C1B 8731   9.531  33.854   8.564
  417POPC   C2B 8732   9.505  33.835   8.264
  417POPC   C3B 8733   9.456  33.816   7.964
  417POPC   C4B 8734   9.458  33.829   7.664
  418POPC   NC3 8735  40.827   5.866   9.464
  418POPC   PO4 8736  40.785   5.893   9.164
  418POPC   GL1 8737  40.781   5.896   8.864
  418POPC   GL2 8738  40.818   5.773   8.864
  418POPC   C1A 8739  40.819   5.881   8.564
  418POPC   D2A 8740  40.782   5.829   8.264
  418POPC   C3A 8741  40.813   5.823   7.964
  418POPC   C4A 8742  40.801   5.895   7.664
  418POPC   C1B 8743  40.988   5.726   8.564
  418POPC   C2B 8744  40.938   5.645   8.264
  418POPC   C3B 8745  40.959   5.725   7.964
  418POPC   C4B 8746  40.942   5.724   7.664
  419POPC   NC3 8747  26.055  13.619   9.464
  419POPC   PO4 8748  26.047  13.628   9.164
  419POPC   GL1 8749  26.012  13.595   8.864
  419POPC   GL2 8750  26.059  13.739   8.864
  419POPC   C1A 8751  26.048  13.606   8.564
  419POPC   D2A 8752  26.013  13.602   8.264
  419POPC   C3A 8753  26.081  13.610   7.964
  419POPC   C4A 8754  26.032  13.594   7.664
  419POPC   C1B 8755  26.047  13.905   8.564
  419POPC   C2B 8756  25.991  13.897   8.264
  419POPC   C3B 8757  26.002  13.847   7.964
  419POPC   C4B 8758  26.025  13.925   7.664
  420POPC   NC3 8759  32.979  31.503   9.464
  420POPC   PO4 8760  33.004  31.444   9.164
  420POPC   GL1 8761  33.043  31.513   8.864
  420POPC   GL2 8762  33.053  31.315   8.864
  420POPC   C1A 8763  33.067  31.522   8.564
  420POPC   D2A 8764  33.041  31.438   8.264
  420POPC   C3A 8765  33.070  31.424   7.964
  420POPC   C4A 8766  33.012  31.511   7.664
  420POPC   C1B 8767  33.127  31.236   8.564
  420POPC   C2B 8768  33.159  31.210   8.264
  420POPC   C3B 8769  33.112  31.245   7.964
  420POPC   C4B 8770  33.133  31.275   7.664
  421POPC   NC3 8771   4.339  27.635   9.464
  421POPC   PO4 8772   4.352  27.618   9.164
  421POPC   GL1 8773   4.296  27.596   8.864
  421POPC   GL2 8774   4.447  27.630   8.864
  421POPC   C1A 8775   4.364  27.571   8.564
  421POPC   D2A 8776   4.365  27.609   8.264
  421POPC   C3A 8777   4.296  27.631   7.964
  421POPC   C4A 8778   4.337  27.548   7.664
  421POPC   C1B 8779   4.542  27.632   8.564
  421POPC   C2B 8780   4.572  27.570   8.264
  421POPC   C3B 8781   4.563  27.604   7.964
  421POPC   C4B 8782   4.571  27.642   7.664
  422POPC   NC3 8783   9.793  12.062   9.464
  422POPC   PO4 8784   9.699  12.076   9.164
  422POPC   GL1 8785   9.707  12.104   8.864
  422POPC   GL2 8786   9.679  11.906   8.864
  422POPC   C1A 8787   9.710  12.053   8.564
  422POPC   D2A 8788   9.744  12.110   8.264
  422POPC   C3A 8789   9.782  12.069   7.964
  422POPC   C4A 8790   9.796  12.088   7.664
  422POPC   C1B 8791   9.722  11.816   8.564
  422POPC   C2B 8792   9.676  11.850   8.264
  422POPC   C3B 8793   9.693  11.822   7.964
  422POPC   C4B 8794   9.748  11.784   7.664
  423POPC   NC3 8795  11.251   5.050   9.464
  423POPC   PO4 8796  11.269   5.093   9.164
  423POPC   GL1 8797  11.289   5.139   8.864
  423POPC   GL2 8798  11.456   5.096   8.864
  423POPC   C1A 8799  11.346   5.129   8.564
  423POPC   D2A 8800  11.312   5.139   8.264
  423POPC   C3A 8801  11.266   5.081   7.964
  423POPC   C4A 8802  11.334   5.063   7.664
  423POPC   C1B 8803  11.532   5.080   8.564
  423POPC   C2B 8804  11.562   5.111   8.264
  423POPC   C3B 8805  11.568   5.061   7.964
  423POPC   C4B 8806  11.558   5.041   7.664
  424POPC   NC3 8807   7.384   0.390   9.464
  424POPC   PO4 8808   7.451   0.408   9.164
  424POPC   GL1 8809   7.380   0.485   8.864
  424POPC   GL2 8810   7.517   0.368   8.864
  424POPC   C1A 8811   7.460   0.408   8.564
  424POPC   D2A 8812   7.383   0.488   8.264
  424POPC   C3A 8813   7.433   0.416   7.964
  424POPC   C4A 8814   7.391   0.422   7.664
  424POPC   C1B 8815   7.664   0.338   8.564
  424POPC   C2B 8816   7.680   0.384   8.264
  424POPC   C3B 8817   7.656   0.425   7.964
  424POPC   C4B 8818   7.701   0.433   7.664
  425POPC   NC3 8819  29.893  24.536   9.464
  425POPC   PO4 8820  29.964  24.447   9.164
  425POPC   GL1 8821  29.922  24.518   8.864
  425POPC   GL2 8822  30.020  24.593   8.864
  425POPC   C1A 8823  29.913  24.537   8.564
  425POPC   D2A 8824  29.910  24.506   8.264
  425POPC   C3A 8825  29.873  24.449   7.964
  425POPC   C4A 8826  29.896  24.449   7.664
  425POPC   C1B 8827  30.081  24.641   8.564
  425POPC   C2B 8828  30.126  24.705   8.264
  425POPC   C3B 8829  30.124  24.727   7.964
  425POPC   C4B 8830  30.103  24.689   7.664
  426POPC   NC3 8831  30.676  13.636   9.464
  426POPC   PO4 8832  30.671  13.667   9.164
  426POPC   GL1 8833  30.668  13.640   8.864
  426POPC   GL2 8834  30.817  13.756   8.864
  426POPC   C1A 8835  30.675  13.591   8.564
  426POPC   D2A 8836  30.675  13.616   8.264
  426POPC   C3A 8837  30.707  13.593   7.964
  426POPC   C4A 8838  30.654  13.657   7.664
  426POPC   C1B 8839  30.884  13.793   8.564
  426POPC   C2B 8840  30.886  13.829   8.264
  426POPC   C3B 8841  30.836  13.822   7.964
  426POPC   C4B 8842  30.828  13.840   7.664
  427POPC   NC3 8843  15.918  17.522   9.464
  427POPC   PO4 8844  15.912  17.549   9.164
  427POPC   GL1 8845  15.938  17.514   8.864
  427POPC   GL2 8846  15.906  17.604   8.864
  427POPC   C1A 8847  15.965  17.529   8.564
  427POPC   D2A 8848  15.953  17.534   8.264
  427POPC   C3A 8849  15.948  17.512   7.964
  427POPC   C4A 8850  15.962  17.495   7.664
  427POPC   C1B 8851  15.809  17.683   8.564
  427POPC   C2B 8852  15.771  17.687   8.264
  427POPC   C3B 8853  15.790  17.703   7.964
  427POPC   C4B 8854  15.770  17.717   7.664
  428POPC   NC3 8855  44.711  24.535   9.464
  428POPC   PO4 8856  44.632  24.499   9.164
  428POPC   GL1 8857  44.646  24.518   8.864
  428POPC   GL2 8858  44.671  24.333   8.864
  428POPC   C1A 8859  44.618  24.515   8.564
  428POPC   D2A 8860  44.634  24.514   8.264
  428POPC   C3A 8861  44.651  24.489   7.964
  428POPC   C4A 8862  44.622  24.524   7.664
  428POPC   C1B 8863  44.690  24.205   8.564
  428POPC   C2B 8864  44.689  24.193   8.264
  428POPC   C3B 8865  44.702  24.209   7.964
  428POPC   C4B 8866  44.637  24.244   7.664
  429POPC   NC3 8867  28.358   2.761   9.464
  429POPC   PO4 8868  28.394   2.733   9.164
  429POPC   GL1 8869  28.322   2.782   8.864
  429POPC   GL2 8870  28.257   2.770   8.864
  429POPC   C1A 8871  28.348   2.800   8.564
  429POPC   D2A 8872  28.386   2.753   8.264
  429POPC   C3A 8873  28.407   2.800   7.964
  429POPC   C4A 8874  28.330   2.749   7.664
  429POPC   C1B 8875  28.135   2.843   8.564
  429POPC   C2B 8876  28.143   2.827   8.264
  429POPC   C3B 8877  28.154   2.843   7.964
  429POPC   C4B 8878  28.089   2.835   7.664
  430POPC   NC3 8879  38.500  21.381   9.464
  430POPC   PO4 8880  38.419  21.360   9.164
  430POPC   GL1 8881  38.466  21.410   8.864
  430POPC   GL2 8882  38.282  21.453   8.864
  430POPC   C1A 8883  38.435  21.344   8.564
  430POPC   D2A 8884  38.473  21.411   8.264
  430POPC   C3A 8885  38.439  21.410   7.964
  430POPC   C4A 8886  38.445  21.385   7.664
  430POPC   C1B 8887  38.178  21.450   8.564
  430POPC   C2B 8888  38.222  21.418   8.264
  430POPC   C3B 8889  38.175  21.407   7.964
  430POPC   C4B 8890  38.195  21.446   7.664
  431POPC   NC3 8891   3.499  39.979   9.464
  431POPC   PO4 8892   3.515  39.962   9.164
  431POPC   GL1 8893   3.493  40.040   8.864
  431POPC   GL2 8894   3.616  40.165   8.864
  431POPC   C1A 8895   3.540  39.967   8.564
  431POPC   D2A 8896   3.559  40.032   8.264
  431POPC   C3A 8897   3.580  40.009   7.964
  431POPC   C4A 8898   3.518  40.000   7.664
  431POPC   C1B 8899   3.648  40.203   8.564
  431POPC   C2B 8900   3.691  40.269   8.264
  431POPC   C3B 8901   3.672  40.182   7.964
  431POPC   C4B 8902   3.607  40.275   7.664
  432POPC   NC3 8903  28.413  28.372   9.464
  432POPC   PO4 8904  28.388  28.344   9.164
  432POPC   GL1 8905  28.398  28.359   8.864
  432POPC   GL2 8906  28.538  28.321   8.864
  432POPC   C1A 8907  28.364  28.390   8.564
  432POPC   D2A 8908  28.333  28.367   8.264
  432POPC   C3A 8909  28.393  28.400   7.964
  432POPC   C4A 8910  28.334  28.397   7.664
  432POPC   C1B 8911  28.601  28.302   8.564
  432POPC   C2B 8912  28.579  28.286   8.264
  432POPC   C3B 8913  28.609  28.311   7.964
  432POPC   C4B 8914  28.583  28.306   7.664
  433POPC   NC3 8915  10.568  15.131   9.464
  433POPC   PO4 8916  10.490  15.192   9.164
  433POPC   GL1 8917  10.573  15.199   8.864
  433POPC   GL2 8918  10.417  15.131   8.864
  433POPC   C1A 8919  10.561  15.211   8.564
  433POPC   D2A 8920  10.513  15.217   8.264
  433POPC   C3A 8921  10.566  15.199   7.964
  433POPC   C4A 8922  10.548  15.203   7.664
  433POPC   C1B 8923  10.308  14.988   8.564
  433POPC   C2B 8924  10.344  15.007   8.264
  433POPC   C3B 8925  10.359  14.972   7.964
  433POPC   C4B 8926  10.372  14.967   7.664
  434POPC   NC3 8927  21.390  27.556   9.464
  434POPC   PO4 8928  21.434  27.553   9.164
  434POPC   GL1 8929  21.428  27.630   8.864
  434POPC   GL2 8930  21.454  27.662   8.864
  434POPC   C1A 8931  21.373  27.611   8.564
  434POPC   D2A 8932  21.379  27.599   8.264
  434POPC   C3A 8933  21.343  27.571   7.964
  434POPC   C4A 8934  21.385  27.611   7.664
  434POPC   C1B 8935  21.667  27.719   8.564
  434POPC   C2B 8936  21.597  27.699   8.264
  434POPC   C3B 8937  21.582  27.660   7.964
  434POPC   C4B 8938  21.668  27.643   7.664
  435POPC   NC3 8939  43.096  31.507   9.464
  435POPC   PO4 8940  43.134  31.496   9.164
  435POPC   GL1 8941  43.092  31.508   8.864
  435POPC   GL2 8942  43.251  31.387   8.864
  435POPC   C1A 8943  43.118  31.438   8.564
  435POPC   D2A 8944  43.091  31.470   8.264
  435POPC   C3A 8945  43.122  31.450   7.964
  435POPC   C4A 8946  43.128  31.452   7.664
  435POPC   C1B 8947  43.371  31.343   8.564
  435POPC   C2B 8948  43.376  31.388   8.264
  435POPC   C3B 8949  43.378  31.396   7.964
  435POPC   C4B 8950  43.303  31.405   7.664
  436POPC   NC3 8951   2.794  32.251   9.464
  436POPC   PO4 8952   2.809  32.238   9.164
  436POPC   GL1 8953   2.718  32.227   8.864
  436POPC   GL2 8954   2.684  32.228   8.864
  436POPC   C1A 8955   2.758  32.227   8.564
  436POPC   D2A 8956   2.719  32.236   8.264
  436POPC   C3A 8957   2.730  32.202   7.964
  436POPC   C4A 8958   2.779  32.242   7.664
  436POPC   C1B 8959   2.573  32.174   8.564
  436POPC   C2B 8960   2.515  32.145   8.264
  436POPC   C3B 8961   2.563  32.178   7.964
  436POPC   C4B 8962   2.528  32.167   7.664
  437POPC   NC3 8963   5.112   1.941   9.464
  437POPC   PO4 8964   5.073   1.979   9.164
  437POPC   GL1 8965   5.062   1.979   8.864
  437POPC   GL2 8966   5.146   2.083   8.864
  437POPC   C1A 8967   5.140   1.985   8.564
  437POPC   D2A 8968   5.072   1.996   8.264
  437POPC   C3A 8969   5.045   1.999   7.964
  437POPC   C4A 8970   5.143   1.964   7.664
  437POPC   C1B 8971   5.083   2.268   8.564
  437POPC   C2B 8972   5.139   2.286   8.264
  437POPC   C3B 8973   5.090   2.269   7.964
  437POPC   C4B 8974   5.143   2.264   7.664
  438POPC   NC3 8975  37.647   4.340   9.464
  438POPC   PO4 8976  37.645   4.331   9.164
  438POPC   GL1 8977  37.723   4.318   8.864
  438POPC   GL2 8978  37.841   4.270   8.864
  438POPC   C1A 8979  37.657   4.359   8.564
  438POPC   D2A 8980  37.717   4.292   8.264
  438POPC   C3A 8981  37.653   4.312   7.964
  438POPC   C4A 8982  37.637   4.337   7.664
  438POPC   C1B 8983  37.909   4.311   8.564
  438POPC   C2B 8984  37.903   4.296   8.264
  438POPC   C3B 8985  37.900   4.281   7.964
  438POPC   C4B 8986  37.896   4.326   7.664
  439POPC   NC3 8987  31.460  37.679   9.464
  439POPC   PO4 8988  31.491  37.683   9.164
  439POPC   GL1 8989  31.503  37.668   8.864
  439POPC   GL2 8990  31.449  37.761   8.864
  439POPC   C1A 8991  31.433  37.711   8.564
  439POPC   D2A 8992  31.492  37.664   8.264
  439POPC   C3A 8993  31.521  37.640   7.964
  439POPC   C4A 8994  31.501  37.646   7.664
  439POPC   C1B 8995  31.371  37.945   8.564
  439POPC   C2B 8996  31.431  37.904   8.264
  439POPC   C3B 8997  31.375  37.941   7.964
  439POPC   C4B 8998  31.426  37.929   7.664
  440POPC   NC3 8999  12.858  26.824   9.464
  440POPC   PO4 9000  12.901  26.785   9.164
  440POPC   GL1 9001  12.829  26.819   8.864
  440POPC   GL2 9002  12.825  26.741   8.864
  440POPC   C1A 9003  12.839  26.840   8.564
  440POPC   D2A 9004  12.830  26.859   8.264
  440POPC   C3A 9005  12.869  26.790   7.964
  440POPC   C4A 9006  12.853  26.852   7.664
  440POPC   C1B 9007  12.694  26.611   8.564
  440POPC   C2B 9008  12.730  26.650   8.264
  440POPC   C3B 9009  12.714  26.593   7.964
  440POPC   C4B 9010  12.755  26.652   7.664
  441POPC   NC3 9011   7.427   9.715   9.464
  441POPC   PO4 9012   7.381   9.739   9.164
  441POPC   GL1 9013   7.439   9.706   8.864
  441POPC   GL2 9014   7.436   9.657   8.864
  441POPC   C1A 9015   7.393   9.721   8.564
  441POPC   D2A 9016   7.418   9.773   8.264
  441POPC   C3A 9017   7.390   9.764   7.964
  441POPC   C4A 9018   7.435   9.720   7.664
  441POPC   C1B 9019   7.342   9.462   8.564
  441POPC   C2B 9020   7.391   9.551   8.264
  441POPC   C3B 9021   7.367   9.493   7.964
  441POPC   C4B 9022   7.353   9.470   7.664
  442POPC   NC3 9023  26.013  38.409   9.464
  442POPC   PO4 9024  25.992  38.478   9.164
  442POPC   GL1 9025  26.018  38.423   8.864
  442POPC   GL2 9026  25.989  38.590   8.864
  442POPC   C1A 9027  26.082  38.457   8.564
  442POPC   D2A 9028  26.061  38.408   8.264
  442POPC   C3A 9029  25.994  38.502   7.964
  442POPC   C4A 9030  26.077  38.407   7.664
  442POPC   C1B 9031  26.023  38.649   8.564
  442POPC   C2B 9032  26.028  38.741   8.264
  442POPC   C3B 9033  25.944  38.695   7.964
  442POPC   C4B 9034  25.953  38.735   7.664
  443POPC   NC3 9035  27.602   1.962   9.464
  443POPC   PO4 9036  27.616   1.983   9.164
  443POPC   GL1 9037  27.610   1.973   8.864
  443POPC   GL2 9038  27.493   1.842   8.864
  443POPC   C1A 9039  27.603   1.995   8.564
  443POPC   D2A 9040  27.612   1.959   8.264
  443POPC   C3A 9041  27.620   1.948   7.964
  443POPC   C4A 9042  27.602   1.951   7.664
  443POPC   C1B 9043  27.523   1.765   8.564
  443POPC   C2B 9044  27.438   1.750   8.264
  443POPC   C3B 9045  27.472   1.733   7.964
  443POPC   C4B 9046  27.458   1.781   7.664
  444POPC   NC3 9047  34.593  22.173   9.464
  444POPC   PO4 9048  34.537  22.163   9.164
  444POPC   GL1 9049  34.562  22.127   8.864
  444POPC   GL2 9050  34.566  22.043   8.864
  444POPC   C1A 9051  34.593  22.183   8.564
  444POPC   D2A 9052  34.571  22.154   8.264
  444POPC   C3A 9053  34.545  22.123   7.964
  444POPC   C4A 9054  34.536  22.122   7.664
  444POPC   C1B 9055  34.621  21.922   8.564
  444POPC   C2B 9056  34.602  21.910   8.264
  444POPC   C3B 9057  34.550  21.924   7.964
  444POPC   C4B 9058  34.612  21.914   7.664
  445POPC   NC3 9059   1.998  32.213   9.464
  445POPC   PO4 9060   2.005  32.259   9.164
  445POPC   GL1 9061   1.962  32.288   8.864
  445POPC   GL2 9062   1.900  32.262   8.864
  445POPC   C1A 9063   2.023  32.268   8.564
  445POPC   D2A 9064   1.995  32.245   8.264
  445POPC   C3A 9065   1.983  32.230   7.964
  445POPC   C4A 9066   1.950  32.291   7.664
  445POPC   C1B 9067   1.802  32.319   8.564
  445POPC   C2B 9068   1.717  32.345   8.264
  445POPC   C3B 9069   1.792  32.329   7.964
  445POPC   C4B 9070   1.784  32.398   7.664
  446POPC   NC3 9071   7.374  23.731   9.464
  446POPC   PO4 9072   7.443  23.714   9.164
  446POPC   GL1 9073   7.442  23.670   8.864
  446POPC   GL2 9074   7.499  23.601   8.864
  446POPC   C1A 9075   7.447  23.679   8.564
  446POPC   D2A 9076   7.428  23.671   8.264
  446POPC   C3A 9077   7.394  23.705   7.964
  446POPC   C4A 9078   7.396  23.714   7.664
  446POPC   C1B 9079   7.485  23.488   8.564
  446POPC   C2B 9080   7.559  23.515   8.264
  446POPC   C3B 9081   7.544  23.475   7.964
  446POPC   C4B 9082   7.546  23.508   7.664
  447POPC   NC3 9083  12.055   7.447   9.464
  447POPC   PO4 9084  12.028   7.462   9.164
  447POPC   GL1 9085  12.059   7.455   8.864
  447POPC   GL2 9086  12.083   7.549   8.864
  447POPC   C1A 9087  12.038   7.449   8.564
  447POPC   D2A 9088  12.076   7.432   8.264
  447POPC   C3A 9089  12.040   7.447   7.964
  447POPC   C4A 9090  12.039   7.441   7.664
  447POPC   C1B 9091  12.038   7.703   8.564
  447POPC   C2B 9092  12.013   7.657   8.264
  447POPC   C3B 9093  12.055   7.698   7.964
  447POPC   C4B 9094  11.965   7.629   7.664
  448POPC   NC3 9095  36.139  12.805   9.464
  448POPC   PO4 9096  36.168  12.842   9.164
  448POPC   GL1 9097  36.104  12.822   8.864
  448POPC   GL2 9098  35.991  12.818   8.864
  448POPC   C1A 9099  36.137  12.895   8.564
  448POPC   D2A 9100  36.166  12.819   8.264
  448POPC   C3A 9101  36.130  12.854   7.964
  448POPC   C4A 9102  36.142  12.822   7.664
  448POPC   C1B 9103  35.842  12.824   8.564
  448POPC   C2B 9104  35.883  12.819   8.264
  448POPC   C3B 9105  35.901  12.763   7.964
  448POPC   C4B 9106  35.843  12.789   7.664
  449POPC   NC3 9107   9.701  15.910   9.464
  449POPC   PO4 9108   9.745  15.913   9.164
  449POPC   GL1 9109   9.725  15.918   8.864
  449POPC   GL2 9110   9.614  15.924   8.864
  449POPC   C1A 9111   9.756  16.002   8.564
  449POPC   D2A 9112   9.789  15.987   8.264
  449POPC   C3A 9113   9.734  15.990   7.964
  449POPC   C4A 9114   9.746  15.922   7.664
  449POPC   C1B 9115   9.553  15.836   8.564
  449POPC   C2B 9116   9.507  15.806   8.264
  449POPC   C3B 9117   9.551  15.802   7.964
  449POPC   C4B 9118   9.575  15.790   7.664
  450POPC   NC3 9119  29.115  40.032   9.464
  450POPC   PO4 9120  29.111  40.043   9.164
  450POPC   GL1 9121  29.184  40.017   8.864
  450POPC   GL2 9122  28.977  40.026   8.864
  450POPC   C1A 9123  29.123  40.010   8.564
  450POPC   D2A 9124  29.129  39.999   8.264
  450POPC   C3A 9125  29.105  40.006   7.964
  450POPC   C4A 9126  29.130  40.017   7.664
  450POPC   C1B 9127  28.860  40.011   8.564
  450POPC   C2B 9128  28.869  39.931   8.264
  450POPC   C3B 9129  28.934  39.961   7.964
  450POPC   C4B 9130  28.930  39.998   7.664
  451POPC   NC3 9131  43.126  22.976   9.464
  451POPC   PO4 9132  43.063  22.938   9.164
  451POPC   GL1 9133  43.097  22.951   8.864
  451POPC   GL2 9134  43.191  22.878   8.864
  451POPC   C1A 9135  43.076  22.986   8.564
  451POPC   D2A 9136  43.065  22.911   8.264
  451POPC   C3A 9137  43.091  22.925   7.964
  451POPC   C4A 9138  43.122  22.979   7.664
  451POPC   C1B 9139  43.293  22.750   8.564
  451POPC   C2B 9140  43.277  22.706   8.264
  451POPC   C3B 9141  43.250  22.696   7.964
  451POPC   C4B 9142  43.274  22.726   7.664
  452POPC   NC3 9143  33.812  13.608   9.464
  452POPC   PO4 9144  33.847  13.646   9.164
  452POPC   GL1 9145  33.797  13.658   8.864
  452POPC   GL2 9146  33.723  13.622   8.864
  452POPC   C1A 9147  33.793  13.592   8.564
  452POPC   D2A 9148  33.792  13.627   8.264
  452POPC   C3A 9149  33.813  13.649   7.964
  452POPC   C4A 9150  33.792  13.659   7.664
  452POPC   C1B 9151  33.575  13.757   8.564
  452POPC   C2B 9152  33.536  13.689   8.264
  452POPC   C3B 9153  33.528  13.755   7.964
  452POPC   C4B 9154  33.515  13.661   7.664
  453POPC   NC3 9155  36.134  24.537   9.464
  453POPC   PO4 9156  36.131  24.495   9.164
  453POPC   GL1 9157  36.118  24.441   8.864
  453POPC   GL2 9158  35.981  24.527   8.864
  453POPC   C1A 9159  36.153  24.471   8.564
  453POPC   D2A 9160  36.082  24.517   8.264
  453POPC   C3A 9161  36.164  24.447   7.964
  453POPC   C4A 9162  36.131  24.497   7.664
  453POPC   C1B 9163  35.871  24.628   8.564
  453POPC   C2B 9164  35.859  24.560   8.264
  453POPC   C3B 9165  35.877  24.573   7.964
  453POPC   C4B 9166  35.868  24.622   7.664
  454POPC   NC3 9167  42.374  18.309   9.464
  454POPC   PO4 9168  42.345  18.307   9.164
  454POPC   GL1 9169  42.300  18.268   8.864
  454POPC   GL2 9170  42.239  18.329   8.864
  454POPC   C1A 9171  42.381  18.278   8.564
  454POPC   D2A 9172  42.302  18.290   8.264
  454POPC   C3A 9173  42.326  18.277   7.964
  454POPC   C4A 9174  42.314  18.323   7.664
  454POPC   C1B 9175  42.125  18.425   8.564
  454POPC   C2B 9176  42.058  18.431   8.264
  454POPC   C3B 9177  42.103  18.419   7.964
  454POPC   C4B 9178  42.121  18.400   7.664
  455POPC   NC3 9179   8.944  28.365   9.464
  455POPC   PO4 9180   9.002  28.323   9.164
  455POPC   GL1 9181   8.985  28.369   8.864
  455POPC   GL2 9182   9.126  28.347   8.864
  455POPC   C1A 9183   8.965  28.372   8.564
  455POPC   D2A 9184   8.961  28.393   8.264
  455POPC   C3A 9185   8.931  28.415   7.964
  455POPC   C4A 9186   8.962  28.398   7.664
  455POPC   C1B 9187   9.228  28.372   8.564
  455POPC   C2B 9188   9.231  28.370   8.264
  455POPC   C3B 9189   9.216  28.342   7.964
  455POPC   C4B 9190   9.192  28.328   7.664
  456POPC   NC3 9191   1.248  28.394   9.464
  456POPC   PO4 9192   1.212  28.331   9.164
  456POPC   GL1 9193   1.196  28.330   8.864
  456POPC   GL2 9194   1.371  28.457   8.864
  456POPC   C1A 9195   1.177  28.352   8.564
  456POPC   D2A 9196   1.190  28.395   8.264
  456POPC   C3A 9197   1.237  28.321   7.964
  456POPC   C4A 9198   1.235  28.325   7.664
  456POPC   C1B 9199   1.456  28.460   8.564
  456POPC   C2B 9200   1.437  28.513   8.264
  456POPC   C3B 9201   1.469  28.458   7.964
  456POPC   C4B 9202   1.457  28.498   7.664
  457POPC   NC3 9203  21.375   8.174   9.464
  457POPC   PO4 9204  21.402   8.246   9.164
  457POPC   GL1 9205  21.368   8.213   8.864
  457POPC   GL2 9206  21.325   8.218   8.864
  457POPC   C1A 9207  21.382   8.222   8.564
  457POPC   D2A 9208  21.352   8.213   8.264
  457POPC   C3A 9209  21.388   8.152   7.964
  457POPC   C4A 9210  21.374   8.174   7.664
  457POPC   C1B 9211  21.195   8.318   8.564
  457POPC   C2B 9212  21.167   8.299   8.264
  457POPC   C3B 9213  21.155   8.333   7.964
  457POPC   C4B 9214  21.148   8.352   7.664
  458POPC   NC3 9215  12.037  43.915   9.464
  458POPC   PO4 9216  12.086  43.902   9.164
  458POPC   GL1 9217  12.079  43.915   8.864
  458POPC   GL2 9218  12.194  43.911   8.864
  458POPC   C1A 9219  12.056  43.870   8.564
  458POPC   D2A 9220  12.044  43.889   8.264
  458POPC   C3A 9221  12.114  43.863   7.964
  458POPC   C4A 9222  12.068  43.915   7.664
  458POPC   C1B 9223  12.317  43.851   8.564
  458POPC   C2B 9224  12.367  43.936   8.264
  458POPC   C3B 9225  12.277  43.894   7.964
  458POPC   C4B 9226  12.280  43.858   7.664
  459POPC   NC3 9227  15.915  12.842   9.464
  459POPC   PO4 9228  15.975  12.900   9.164
  459POPC   GL1 9229  15.925  12.874   8.864
  459POPC   GL2 9230  15.934  12.729   8.864
  459POPC   C1A 9231  15.952  12.832   8.564
  459POPC   D2A 9232  15.967  12.881   8.264
  459POPC   C3A 9233  15.931  12.894   7.964
  459POPC   C4A 9234  15.910  12.839   7.664
  459POPC   C1B 9235  15.951  12.640   8.564
  459POPC   C2B 9236  15.930  12.600   8.264
  459POPC   C3B 9237  15.930  12.606   7.964
  459POPC   C4B 9238  15.871  12.642   7.664
  460POPC   NC3 9239  10.489  24.504   9.464
  460POPC   PO4 9240  10.561  24.500   9.164
  460POPC   GL1 9241  10.501  24.443   8.864
  460POPC   GL2 9242  10.437  24.431   8.864
  460POPC   C1A 9243  10.485  24.461   8.564
  460POPC   D2A 9244  10.567  24.465   8.264
  460POPC   C3A 9245  10.565  24.506   7.964
  460POPC   C4A 9246  10.544  24.514   7.664
  460POPC   C1B 9247  10.394  24.288   8.564
  460POPC   C2B 9248  10.415  24.307   8.264
  460POPC   C3B 9249  10.355  24.295   7.964
  460POPC   C4B 9250  10.364  24.243   7.664
  461POPC   NC3 9251  29.162   1.978   9.464
  461POPC   PO4 9252  29.137   1.968   9.164
  461POPC   GL1 9253  29.108   1.988   8.864
  461POPC   GL2 9254  29.183   1.920   8.864
  461POPC   C1A 9255  29.158   1.948   8.564
  461POPC   D2A 9256  29.099   1.945   8.264
  461POPC   C3A 9257  29.151   1.956   7.964
  461POPC   C4A 9258  29.156   1.943   7.664
  461POPC   C1B 9259  29.284   1.812   8.564
  461POPC   C2B 9260  29.276   1.730   8.264
  461POPC   C3B 9261  29.291   1.774   7.964
  461POPC   C4B 9262  29.272   1.733   7.664
  462POPC   NC3 9263  27.580   1.245   9.464
  462POPC   PO4 9264  27.637   1.213   9.164
  462POPC   GL1 9265  27.633   1.180   8.864
  462POPC   GL2 9266  27.635   1.290   8.864
  462POPC   C1A 9267  27.543   1.239   8.564
  462POPC   D2A 9268  27.549   1.183   8.264
  462POPC   C3A 9269  27.592   1.220   7.964
  462POPC   C4A 9270  27.564   1.261   7.664
  462POPC   C1B 9271  27.637   1.464   8.564
  462POPC   C2B 9272  27.632   1.458   8.264
  462POPC   C3B 9273  27.691   1.421   7.964
  462POPC   C4B 9274  27.652   1.463   7.664
  463POPC   NC3 9275  22.163  36.136   9.464
  463POPC   PO4 9276  22.209  36.085   9.164
  463POPC   GL1 9277  22.161  36.166   8.864
  463POPC   GL2 9278  22.318  36.078   8.864
  463POPC   C1A 9279  22.146  36.128   8.564
  463POPC   D2A 9280  22.194  36.085   8.264
  463POPC   C3A 9281  22.144  36.145   7.964
  463POPC   C4A 9282  22.210  36.108   7.664
  463POPC   C1B 9283  22.410  36.032   8.564
  463POPC   C2B 9284  22.341  35.958   8.264
  463POPC   C3B 9285  22.427  36.025   7.964
  463POPC   C4B 9286  22.391  36.009   7.664
  464POPC   NC3 9287   6.686  28.384   9.464
  464POPC   PO4 9288   6.622  28.417   9.164
  464POPC   GL1 9289   6.636  28.393   8.864
  464POPC   GL2 9290   6.684  28.238   8.864
  464POPC   C1A 9291   6.652  28.407   8.564
  464POPC   D2A 9292   6.691  28.405   8.264
  464POPC   C3A 9293   6.618  28.402   7.964
  464POPC   C4A 9294   6.656  28.401   7.664
  464POPC   C1B 9295   6.673  28.116   8.564
  464POPC   C2B 9296   6.708  28.132   8.264
  464POPC   C3B 9297   6.634  28.103   7.964
  464POPC   C4B 9298   6.681  28.166   7.664
  465POPC   NC3 9299  40.790  22.208   9.464
  465POPC   PO4 9300  40.775  22.125   9.164
  465POPC   GL1 9301  40.824  22.181   8.864
  465POPC   GL2 9302  40.860  22.034   8.864
  465POPC   C1A 9303  40.789  22.180   8.564
  465POPC   D2A 9304  40.741  22.149   8.264
  465POPC   C3A 9305  40.749  22.178   7.964
  465POPC   C4A 9306  40.755  22.188   7.664
  465POPC   C1B 9307  40.990  22.014   8.564
  465POPC   C2B 9308  40.923  21.956   8.264
  465POPC   C3B 9309  40.977  21.940   7.964
  465POPC   C4B 9310  40.983  21.975   7.664
  466POPC   NC3 9311  30.700   2.791   9.464
  466POPC   PO4 9312  30.667   2.747   9.164
  466POPC   GL1 9313  30.683   2.732   8.864
  466POPC   GL2 9314  30.813   2.832   8.864
  466POPC   C1A 9315  30.651   2.791   8.564
  466POPC   D2A 9316  30.698   2.793   8.264
  466POPC   C3A 9317  30.675   2.760   7.964
  466POPC   C4A 9318  30.728   2.771   7.664
  466POPC   C1B 9319  30.847   2.933   8.564
  466POPC   C2B 9320  30.867   2.931   8.264
  466POPC   C3B 9321  30.907   2.962   7.964
  466POPC   C4B 9322  30.922   2.889   7.664
  467POPC   NC3 9323  20.601  18.262   9.464
  467POPC   PO4 9324  20.597  18.287   9.164
  467POPC   GL1 9325  20.593  18.281   8.864
  467POPC   GL2 9326  20.730  18.217   8.864
  467POPC   C1A 9327  20.587  18.324   8.564
  467POPC   D2A 9328  20.563  18.291   8.264
  467POPC   C3A 9329  20.622  18.260   7.964
  467POPC   C4A 9330  20.609  18.278   7.664
  467POPC   C1B 9331  20.793  18.166   8.564
  467POPC   C2B 9332  20.832  18.087   8.264
  467POPC   C3B 9333  20.807  18.161   7.964
  467POPC   C4B 9334  20.825  18.114   7.664
  468POPC   NC3 9335  11.334  31.458   9.464
  468POPC   PO4 9336  11.328  31.494   9.164
  468POPC   GL1 9337  11.307  31.515   8.864
  468POPC   GL2 9338  11.168  31.509   8.864
  468POPC   C1A 9339  11.345  31.482   8.564
  468POPC   D2A 9340  11.285  31.518   8.264
  468POPC   C3A 9341  11.310  31.489   7.964
  468POPC   C4A 9342  11.336  31.512   7.664
  468POPC   C1B 9343  11.066  31.482   8.564
  468POPC   C2B 9344  11.077  31.498   8.264
  468POPC   C3B 9345  11.049  31.462   7.964
  468POPC   C4B 9346  11.015  31.458   7.664
  469POPC   NC3 9347  12.900  43.867   9.464
  469POPC   PO4 9348  12.817  43.907   9.164
  469POPC   GL1 9349  12.878  43.850   8.864
  469POPC   GL2 9350  12.993  43.911   8.864
  469POPC   C1A 9351  12.894  43.861   8.564
  469POPC   D2A 9352  12.852  43.848   8.264
  469POPC   C3A 9353  12.841  43.915   7.964
  469POPC   C4A 9354  12.889  43.868   7.664
  469POPC   C1B 9355  13.037  44.029   8.564
  469POPC   C2B 9356  13.118  44.012   8.264
  469POPC   C3B 9357  13.095  43.993   7.964
  469POPC   C4B 9358  13.033  43.986   7.664
  470POPC   NC3 9359  32.996  23.672   9.464
  470POPC   PO4 9360  33.053  23.666   9.164
  470POPC   GL1 9361  32.988  23.744   8.864
  470POPC   GL2 9362  33.023  23.591   8.864
  470POPC   C1A 9363  33.010  23.722   8.564
  470POPC   D2A 9364  33.021  23.718   8.264
  470POPC   C3A 9365  32.979  23.667   7.964
  470POPC   C4A 9366  33.022  23.752   7.664
  470POPC   C1B 9367  33.106  23.441   8.564
  470POPC   C2B 9368  33.103  23.516   8.264
  470POPC   C3B 9369  33.060  23.470   7.964
  470POPC   C4B 9370  33.102  23.481   7.664
  471POPC   NC3 9371  16.685  14.440   9.464
  471POPC   PO4 9372  16.729  14.370   9.164
  471POPC   GL1 9373  16.738  14.452   8.864
  471POPC   GL2 9374  16.888  14.468   8.864
  471POPC   C1A 9375  16.726  14.393   8.564
  471POPC   D2A 9376  16.757  14.379   8.264
  471POPC   C3A 9377  16.704  14.369   7.964
  471POPC   C4A 9378  16.741  14.426   7.664
  471POPC   C1B 9379  16.950  14.518   8.564
  471POPC   C2B 9380  16.956  14.503   8.264
  471POPC   C3B 9381  16.979  14.508   7.964
  471POPC   C4B 9382  16.981  14.515   7.664
  472POPC   NC3 9383  12.109  40.816   9.464
  472POPC   PO4 9384  12.040  40.811   9.164
  472POPC   GL1 9385  12.097  40.758   8.864
  472POPC   GL2 9386  12.006  40.897   8.864
  472POPC   C1A 9387  12.055  40.771   8.564
  472POPC   D2A 9388  12.123  40.773   8.264
  472POPC   C3A 9389  12.074  40.813   7.964
  472POPC   C4A 9390  12.072  40.826   7.664
  472POPC   C1B 9391  11.939  40.970   8.564
  472POPC   C2B 9392  11.875  40.957   8.264
  472POPC   C3B 9393  11.855  40.907   7.964
  472POPC   C4B 9394  11.927  41.000   7.664
  473POPC   NC3 9395  29.962  34.603   9.464
  473POPC   PO4 9396  29.927  34.582   9.164
  473POPC   GL1 9397  29.881  34.568   8.864
  473POPC   GL2 9398  29.903  34.443   8.864
  473POPC   C1A 9399  29.896  34.618   8.564
  473POPC   D2A 9400  29.886  34.568   8.264
  473POPC   C3A 9401  29.887  34.545   7.964
  473POPC   C4A 9402  29.946  34.612   7.664
  473POPC   C1B 9403  29.892  34.371   8.564
  473POPC   C2B 9404  29.870  34.289   8.264
  473POPC   C3B 9405  29.862  34.339   7.964
  473POPC   C4B 9406  29.877  34.289   7.664
  474POPC   NC3 9407   8.225  19.068   9.464
  474POPC   PO4 9408   8.240  19.029   9.164
  474POPC   GL1 9409   8.154  19.058   8.864
  474POPC   GL2 9410   8.287  19.103   8.864
  474POPC   C1A 9411   8.192  19.048   8.564
  474POPC   D2A 9412   8.167  19.076   8.264
  474POPC   C3A 9413   8.244  19.018   7.964
  474POPC   C4A 9414   8.211  19.024   7.664
  474POPC   C1B 9415   8.393  19.236   8.564
  474POPC   C2B 9416   8.323  19.232   8.264
  474POPC   C3B 9417   8.365  19.232   7.964
  474POPC   C4B 9418   8.333  19.214   7.664
  475POPC   NC3 9419   9.750   0.388   9.464
  475POPC   PO4 9420   9.762   0.449   9.164
  475POPC   GL1 9421   9.771   0.402   8.864
  475POPC   GL2 9422   9.645   0.487   8.864
  475POPC   C1A 9423   9.763   0.444   8.564
  475POPC   D2A 9424   9.709   0.392   8.264
  475POPC   C3A 9425   9.781   0.455   7.964
  475POPC   C4A 9426   9.738   0.448   7.664
  475POPC   C1B 9427   9.520   0.573   8.564
  475POPC   C2B 9428   9.574   0.601   8.264
  475POPC   C3B 9429   9.538   0.515   7.964
  475POPC   C4B 9430   9.489   0.516   7.664
  476POPC   NC3 9431  40.025  20.561   9.464
  476POPC   PO4 9432  40.039  20.586   9.164
  476POPC   GL1 9433  40.028  20.643   8.864
  476POPC   GL2 9434  40.067  20.711   8.864
  476POPC   C1A 9435  40.050  20.641   8.564
  476POPC   D2A 9436  39.972  20.584   8.264
  476POPC   C3A 9437  39.971  20.599   7.964
  476POPC   C4A 9438  40.001  20.582   7.664
  476POPC   C1B 9439  40.045  20.855   8.564
  476POPC   C2B 9440  40.067  20.863   8.264
  476POPC   C3B 9441  40.042  20.878   7.964
  476POPC   C4B 9442  40.089  20.895   7.664
  477POPC   NC3 9443  14.423  15.969   9.464
  477POPC   PO4 9444  14.398  15.951   9.164
  477POPC   GL1 9445  14.367  15.922   8.864
  477POPC   GL2 9446  14.465  16.018   8.864
  477POPC   C1A 9447  14.450  15.911   8.564
  477POPC   D2A 9448  14.398  15.916   8.264
  477POPC   C3A 9449  14.445  15.926   7.964
  477POPC   C4A 9450  14.358  15.990   7.664
  477POPC   C1B 9451  14.545  16.131   8.564
  477POPC   C2B 9452  14.594  16.136   8.264
  477POPC   C3B 9453  14.587  16.126   7.964
  477POPC   C4B 9454  14.522  16.158   7.664
  478POPC   NC3 9455   6.656   3.493   9.464
  478POPC   PO4 9456   6.610   3.524   9.164
  478POPC   GL1 9457   6.606   3.525   8.864
  478POPC   GL2 9458   6.536   3.484   8.864
  478POPC   C1A 9459   6.686   3.566   8.564
  478POPC   D2A 9460   6.625   3.565   8.264
  478POPC   C3A 9461   6.670   3.517   7.964
  478POPC   C4A 9462   6.693   3.508   7.664
  478POPC   C1B 9463   6.459   3.348   8.564
  478POPC   C2B 9464   6.432   3.362   8.264
  478POPC   C3B 9465   6.501   3.376   7.964
  478POPC   C4B 9466   6.453   3.354   7.664
  479POPC   NC3 9467  36.138  12.059   9.464
  479POPC   PO4 9468  36.165  12.074   9.164
  479POPC   GL1 9469  36.156  12.112   8.864
  479POPC   GL2 9470  36.176  12.005   8.864
  479POPC   C1A 9471  36.164  12.057   8.564
  479POPC   D2A 9472  36.108  12.122   8.264
  479POPC   C3A 9473  36.173  12.076   7.964
  479POPC   C4A 9474  36.173  12.110   7.664
  479POPC   C1B 9475  36.161  11.805   8.564
  479POPC   C2B 9476  36.228  11.813   8.264
  479POPC   C3B 9477  36.233  11.841   7.964
  479POPC   C4B 9478  36.187  11.853   7.664
  480POPC   NC3 9479  28.352  26.823   9.464
  480POPC   PO4 9480  28.402  26.846   9.164
  480POPC   GL1 9481  28.352  26.773   8.864
  480POPC   GL2 9482  28.198  26.793   8.864
  480POPC   C1A 9483  28.354  26.792   8.564
  480POPC   D2A 9484  28.409  26.772   8.264
  480POPC   C3A 9485  28.335  26.823   7.964
  480POPC   C4A 9486  28.372  26.793   7.664
  480POPC   C1B 9487  28.100  26.810   8.564
  480POPC   C2B 9488  28.160  26.810   8.264
  480POPC   C3B 9489  28.120  26.803   7.964
  480POPC   C4B 9490  28.080  26.809   7.664
  481POPC   NC3 9491   8.967   5.072   9.464
  481POPC   PO4 9492   9.012   5.116   9.164
  481POPC   GL1 9493   8.931   5.078   8.864
  481POPC   GL2 9494   9.134   5.079   8.864
  481POPC   C1A 9495   8.991   5.114   8.564
  481POPC   D2A 9496   8.976   5.117   8.264
  481POPC   C3A 9497   8.974   5.093   7.964
  481POPC   C4A 9498   8.965   5.088   7.664
  481POPC   C1B 9499   9.157   4.988   8.564
  481POPC   C2B 9500   9.231   4.955   8.264
  481POPC   C3B 9501   9.211   5.011   7.964
  481POPC   C4B 9502   9.218   5.028   7.664
  482POPC   NC3 9503  33.007  39.983   9.464
  482POPC   PO4 9504  32.977  40.045   9.164
  482POPC   GL1 9505  33.000  39.967   8.864
  482POPC   GL2 9506  33.166  39.969   8.864
  482POPC   C1A 9507  33.041  39.989   8.564
  482POPC   D2A 9508  32.979  39.989   8.264
  482POPC   C3A 9509  33.057  40.051   7.964
  482POPC   C4A 9510  33.019  40.028   7.664
  482POPC   C1B 9511  33.247  39.880   8.564
  482POPC   C2B 9512  33.239  39.882   8.264
  482POPC   C3B 9513  33.179  39.874   7.964
  482POPC   C4B 9514  33.225  39.820   7.664
  483POPC   NC3 9515  18.289   5.915   9.464
  483POPC   PO4 9516  18.302   5.877   9.164
  483POPC   GL1 9517  18.269   5.914   8.864
  483POPC   GL2 9518  18.155   5.931   8.864
  483POPC   C1A 9519  18.312   5.856   8.564
  483POPC   D2A 9520  18.307   5.873   8.264
  483POPC   C3A 9521  18.250   5.891   7.964
  483POPC   C4A 9522  18.246   5.909   7.664
  483POPC   C1B 9523  18.053   6.009   8.564
  483POPC   C2B 9524  18.086   6.025   8.264
  483POPC   C3B 9525  18.089   5.947   7.964
  483POPC   C4B 9526  18.089   5.987   7.664
  484POPC   NC3 9527  21.425  19.096   9.464
  484POPC   PO4 9528  21.358  19.105   9.164
  484POPC   GL1 9529  21.349  19.052   8.864
  484POPC   GL2 9530  21.275  19.030   8.864
  484POPC   C1A 9531  21.427  19.063   8.564
  484POPC   D2A 9532  21.392  19.009   8.264
  484POPC   C3A 9533  21.411  19.065   7.964
  484POPC   C4A 9534  21.412  19.107   7.664
  484POPC   C1B 9535  21.189  18.921   8.564
  484POPC   C2B 9536  21.145  18.954   8.264
  484POPC   C3B 9537  21.201  18.881   7.964
  484POPC   C4B 9538  21.222  18.955   7.664
  485POPC   NC3 9539   0.472  40.804   9.464
  485POPC   PO4 9540   0.450  40.767   9.164
  485POPC   GL1 9541   0.393  40.797   8.864
  485POPC   GL2 9542   0.320  40.843   8.864
  485POPC   C1A 9543   0.467  40.751   8.564
  485POPC   D2A 9544   0.444  40.813   8.264
  485POPC   C3A 9545   0.454  40.797   7.964
  485POPC   C4A 9546   0.478  40.832   7.664
  485POPC   C1B 9547   0.163  40.866   8.564
  485POPC   C2B 9548   0.232  40.853   8.264
  485POPC   C3B 9549   0.255  40.876   7.964
  485POPC   C4B 9550   0.192  40.855   7.664
  486POPC   NC3 9551  34.610  33.048   9.464
  486POPC   PO4 9552  34.614  32.979   9.164
  486POPC   GL1 9553  34.535  33.012   8.864
  486POPC   GL2 9554  34.518  33.172   8.864
  486POPC   C1A 9555  34.572  33.053   8.564
  486POPC   D2A 9556  34.623  33.041   8.264
  486POPC   C3A 9557  34.564  32.982   7.964
  486POPC   C4A 9558  34.545  33.064   7.664
  486POPC   C1B 9559  34.498  33.249   8.564
  486POPC   C2B 9560  34.443  33.251   8.264
  486POPC   C3B 9561  34.517  33.254   7.964
  486POPC   C4B 9562  34.516  33.248   7.664
  487POPC   NC3 9563  38.436  36.095   9.464
  487POPC   PO4 9564  38.483  36.165   9.164
  487POPC   GL1 9565  38.425  36.153   8.864
  487POPC   GL2 9566  38.496  36.210   8.864
  487POPC   C1A 9567  38.456  36.145   8.564
  487POPC   D2A 9568  38.446  36.175   8.264
  487POPC   C3A 9569  38.503  36.144   7.964
  487POPC   C4A 9570  38.484  36.134   7.664
  487POPC   C1B 9571  38.486  36.398   8.564
  487POPC   C2B 9572  38.535  36.410   8.264
  487POPC   C3B 9573  38.526  36.331   7.964
  487POPC   C4B 9574  38.540  36.321   7.664
  488POPC   NC3 9575   4.356  25.997   9.464
  488POPC   PO4 9576   4.330  26.044   9.164
  488POPC   GL1 9577   4.361  26.059   8.864
  488POPC   GL2 9578   4.388  25.986   8.864
  488POPC   C1A 9579   4.357  26.000   8.564
  488POPC   D2A 9580   4.274  26.053   8.264
  488POPC   C3A 9581   4.279  26.088   7.964
  488POPC   C4A 9582   4.310  25.991   7.664
  488POPC   C1B 9583   4.563  25.924   8.564
  488POPC   C2B 9584   4.489  25.882   8.264
  488POPC   C3B 9585   4.564  25.931   7.964
  488POPC   C4B 9586   4.532  25.935   7.664
  489POPC   NC3 9587  34.554  19.875   9.464
  489POPC   PO4 9588  34.580  19.876   9.164
  489POPC   GL1 9589  34.589  19.841   8.864
  489POPC   GL2 9590  34.534  19.957   8.864
  489POPC   C1A 9591  34.574  19.854   8.564
  489POPC   D2A 9592  34.582  19.838   8.264
  489POPC   C3A 9593  34.601  19.871   7.964
  489POPC   C4A 9594  34.610  19.874   7.664
  489POPC   C1B 9595  34.407  20.040   8.564
  489POPC   C2B 9596  34.464  20.077   8.264
  489POPC   C3B 9597  34.396  19.996   7.964
  489POPC   C4B 9598  34.387  20.073   7.664
  490POPC   NC3 9599  40.793   2.002   9.464
  490POPC   PO4 9600  40.796   1.948   9.164
  490POPC   GL1 9601  40.748   2.036   8.864
  490POPC   GL2 9602  40.890   1.950   8.864
  490POPC   C1A 9603  40.820   1.945   8.564
  490POPC   D2A 9604  40.808   2.019   8.264
  490POPC   C3A 9605  40.821   2.010   7.964
  490POPC   C4A 9606  40.747   1.941   7.664
  490POPC   C1B 9607  40.973   1.831   8.564
  490POPC   C2B 9608  40.958   1.816   8.264
  490POPC   C3B 9609  40.948   1.891   7.964
  490POPC   C4B 9610  40.988   1.894   7.664
  491POPC   NC3 9611  36.913  16.761   9.464
  491POPC   PO4 9612  36.890  16.694   9.164
  491POPC   GL1 9613  36.882  16.711   8.864
  491POPC   GL2 9614  36.990  16.603   8.864
  491POPC   C1A 9615  36.921  16.733   8.564
  491POPC   D2A 9616  36.858  16.736   8.264
  491POPC   C3A 9617  36.939  16.723   7.964
  491POPC   C4A 9618  36.906  16.744   7.664
  491POPC   C1B 9619  37.024  16.480   8.564
  491POPC   C2B 9620  37.094  16.479   8.264
  491POPC   C3B 9621  37.067  16.571   7.964
  491POPC   C4B 9622  37.081  16.551   7.664
  492POPC   NC3 9623  13.656  28.349   9.464
  492POPC   PO4 9624  13.676  28.362   9.164
  492POPC   GL1 9625  13.613  28.321   8.864
  492POPC   GL2 9626  13.565  28.438   8.864
  492POPC   C1A 9627  13.668  28.386   8.564
  492POPC   D2A 9628  13.658  28.400   8.264
  492POPC   C3A 9629  13.644  28.408   7.964
  492POPC   C4A 9630  13.608  28.338   7.664
  492POPC   C1B 9631  13.531  28.553   8.564
  492POPC   C2B 9632  13.535  28.627   8.264
  492POPC   C3B 9633  13.464  28.599   7.964
  492POPC   C4B 9634  13.518  28.561   7.664
  493POPC   NC3 9635  39.985   6.644   9.464
  493POPC   PO4 9636  40.050   6.628   9.164
  493POPC   GL1 9637  40.022   6.598   8.864
  493POPC   GL2 9638  39.912   6.750   8.864
  493POPC   C1A 9639  39.997   6.596   8.564
  493POPC   D2A 9640  39.969   6.639   8.264
  493POPC   C3A 9641  39.985   6.606   7.964
  493POPC   C4A 9642  39.973   6.629   7.664
  493POPC   C1B 9643  39.842   6.762   8.564
  493POPC   C2B 9644  39.829   6.769   8.264
  493POPC   C3B 9645  39.864   6.759   7.964
  493POPC   C4B 9646  39.796   6.836   7.664
  494POPC   NC3 9647  20.587   3.516   9.464
  494POPC   PO4 9648  20.587   3.550   9.164
  494POPC   GL1 9649  20.630   3.544   8.864
  494POPC   GL2 9650  20.540   3.591   8.864
  494POPC   C1A 9651  20.572   3.591   8.564
  494POPC   D2A 9652  20.567   3.546   8.264
  494POPC   C3A 9653  20.632   3.519   7.964
  494POPC   C4A 9654  20.564   3.495   7.664
  494POPC   C1B 9655  20.412   3.651   8.564
  494POPC   C2B 9656  20.354   3.649   8.264
  494POPC   C3B 9657  20.348   3.650   7.964
  494POPC   C4B 9658  20.402   3.646   7.664
  495POPC   NC3 9659  31.480  19.853   9.464
  495POPC   PO4 9660  31.441  19.818   9.164
  495POPC   GL1 9661  31.440  19.825   8.864
  495POPC   GL2 9662  31.337  19.897   8.864
  495POPC   C1A 9663  31.483  19.838   8.564
  495POPC   D2A 9664  31.434  19.808   8.264
  495POPC   C3A 9665  31.492  19.809   7.964
  495POPC   C4A 9666  31.459  19.844   7.664
  495POPC   C1B 9667  31.328  20.033   8.564
  495POPC   C2B 9668  31.233  20.033   8.264
  495POPC   C3B 9669  31.309  19.963   7.964
  495POPC   C4B 9670  31.316  19.954   7.664
  496POPC   NC3 9671  37.638   9.790   9.464
  496POPC   PO4 9672  37.678   9.798   9.164
  496POPC   GL1 9673  37.697   9.745   8.864
  496POPC   GL2 9674  37.598   9.741   8.864
  496POPC   C1A 9675  37.685   9.724   8.564
  496POPC   D2A 9676  37.680   9.720   8.264
  496POPC   C3A 9677  37.690   9.732   7.964
  496POPC   C4A 9678  37.657   9.745   7.664
  496POPC   C1B 9679  37.393   9.740   8.564
  496POPC   C2B 9680  37.478   9.760   8.264
  496POPC   C3B 9681  37.384   9.707   7.964
  496POPC   C4B 9682  37.380   9.706   7.664
  497POPC   NC3 9683  44.622   5.105   9.464
  497POPC   PO4 9684  44.629   5.060   9.164
  497POPC   GL1 9685  44.702   5.052   8.864
  497POPC   GL2 9686  44.784   5.123   8.864
  497POPC   C1A 9687  44.645   5.120   8.564
  497POPC   D2A 9688  44.639   5.048   8.264
  497POPC   C3A 9689  44.659   5.047   7.964
  497POPC   C4A 9690  44.642   5.138   7.664
  497POPC   C1B 9691  44.886   5.057   8.564
  497POPC   C2B 9692  44.946   5.102   8.264
  497POPC   C3B 9693  44.919   5.078   7.964
  497POPC   C4B 9694  44.917   5.012   7.664
  498POPC   NC3 9695  29.873  11.330   9.464
  498POPC   PO4 9696  29.920  11.348   9.164
  498POPC   GL1 9697  29.881  11.316   8.864
  498POPC   GL2 9698  29.858  11.390   8.864
  498POPC   C1A 9699  29.911  11.307   8.564
  498POPC   D2A 9700  29.970  11.350   8.264
  498POPC   C3A 9701  29.919  11.278   7.964
  498POPC   C4A 9702  29.875  11.346   7.664
  498POPC   C1B 9703  29.915  11.499   8.564
  498POPC   C2B 9704  29.855  11.561   8.264
  498POPC   C3B 9705  29.921  11.589   7.964
  498POPC   C4B 9706  29.844  11.511   7.664
  499POPC   NC3 9707  43.886   0.393   9.464
  499POPC   PO4 9708  43.907   0.437   9.164
  499POPC   GL1 9709  43.844   0.403   8.864
  499POPC   GL2 9710  44.004   0.400   8.864
  499POPC   C1A 9711  43.888   0.411   8.564
  499POPC   D2A 9712  43.855   0.444   8.264
  499POPC   C3A 9713  43.928   0.401   7.964
  499POPC   C4A 9714  43.909   0.416   7.664
  499POPC   C1B 9715  44.170   0.437   8.564
  499POPC   C2B 9716  44.136   0.457   8.264
  499POPC   C3B 9717  44.139   0.432   7.964
  499POPC   C4B 9718  44.174   0.379   7.664
  500POPC   NC3 9719  17.547  24.484   9.464
  500POPC   PO4 9720  17.496  24.499   9.164
  500POPC   GL1 9721  17.550  24.458   8.864
  500POPC   GL2 9722  17.580  24.596   8.864
  500POPC   C1A 9723  17.482  24.493   8.564
  500POPC   D2A 9724  17.505  24.502   8.264
  500POPC   C3A 9725  17.537  24.464   7.964
  500POPC   C4A 9726  17.462  24.461   7.664
  500POPC   C1B 9727  17.653  24.643   8.564
  500POPC   C2B 9728  17.677  24.596   8.264
  500POPC   C3B 9729  17.739  24.670   7.964
  500POPC   C4B 9730  17.707  24.614   7.664
  501POPC   NC3 9731  21.348  26.049   9.464
  501POPC   PO4 9732  21.355  26.001   9.164
  501POPC   GL1 9733  21.352  26.029   8.864
  501POPC   GL2 9734  21.418  25.890   8.864
  501POPC   C1A 9735  21.380  26.043   8.564
  501POPC   D2A 9736  21.362  26.065   8.264
  501POPC   C3A 9737  21.421  26.029   7.964
  501POPC   C4A 9738  21.357  26.028   7.664
  501POPC   C1B 9739  21.373  25.793   8.564
  501POPC   C2B 9740  21.343  25.772   8.264
  501POPC   C3B 9741  21.331  25.748   7.964
  501POPC   C4B 9742  21.341  25.752   7.664
  502POPC   NC3 9743  43.847  27.603   9.464
  502POPC   PO4 9744  43.888  27.641   9.164
  502POPC   GL1 9745  43.838  27.559   8.864
  502POPC   GL2 9746  43.747  27.486   8.864
  502POPC   C1A 9747  43.919  27.635   8.564
  502POPC   D2A 9748  43.892  27.615   8.264
  502POPC   C3A 9749  43.852  27.582   7.964
  502POPC   C4A 9750  43.933  27.610   7.664
  502POPC   C1B 9751  43.727  27.463   8.564
  502POPC   C2B 9752  43.650  27.481   8.264
  502POPC   C3B 9753  43.651  27.468   7.964
  502POPC   C4B 9754  43.711  27.492   7.664
  503POPC   NC3 9755  11.296   3.570   9.464
  503POPC   PO4 9756  11.336   3.588   9.164
  503POPC   GL1 9757  11.324   3.499   8.864
  503POPC   GL2 9758  11.427   3.516   8.864
  503POPC   C1A 9759  11.330   3.568   8.564
  503POPC   D2A 9760  11.274   3.541   8.264
  503POPC   C3A 9761  11.263   3.551   7.964
  503POPC   C4A 9762  11.300   3.547   7.664
  503POPC   C1B 9763  11.508   3.413   8.564
  503POPC   C2B 9764  11.521   3.453   8.264
  503POPC   C3B 9765  11.547   3.433   7.964
  503POPC   C4B 9766  11.529   3.445   7.664
  504POPC   NC3 9767  38.475   8.935   9.464
  504POPC   PO4 9768  38.436   8.924   9.164
  504POPC   GL1 9769  38.470   8.934   8.864
  504POPC   GL2 9770  38.312   9.012   8.864
  504POPC   C1A 9771  38.469   8.946   8.564
  504POPC   D2A 9772  38.486   8.943   8.264
  504POPC   C3A 9773  38.471   8.954   7.964
  504POPC   C4A 9774  38.489   9.012   7.664
  504POPC   C1B 9775  38.226   9.102   8.564
  504POPC   C2B 9776  38.212   9.052   8.264
  504POPC   C3B 9777  38.207   9.127   7.964
  504POPC   C4B 9778  38.212   9.130   7.664
  505POPC   NC3 9779  39.221  16.742   9.464
  505POPC   PO4 9780  39.199  16.760   9.164
  505POPC   GL1 9781  39.271  16.769   8.864
  505POPC   GL2 9782  39.263  16.793   8.864
  505POPC   C1A 9783  39.230  16.696   8.564
  505POPC   D2A 9784  39.197  16.725   8.264
  505POPC   C3A 9785  39.259  16.722   7.964
  505POPC   C4A 9786  39.186  16.762   7.664
  505POPC   C1B 9787  39.338  16.983   8.564
  505POPC   C2B 9788  39.397  16.938   8.264
  505POPC   C3B 9789  39.349  16.987   7.964
  505POPC   C4B 9790  39.347  16.923   7.664
  506POPC   NC3 9791  40.041  27.568   9.464
  506POPC   PO4 9792  39.976  27.567   9.164
  506POPC   GL1 9793  39.976  27.601   8.864
  506POPC   GL2 9794  39.887  27.714   8.864
  506POPC   C1A 9795  40.042  27.610   8.564
  506POPC   D2A 9796  40.023  27.576   8.264
  506POPC   C3A 9797  40.050  27.642   7.964
  506POPC   C4A 9798  39.961  27.579   7.664
  506POPC   C1B 9799  39.848  27.781   8.564
  506POPC   C2B 9800  39.824  27.768   8.264
  506POPC   C3B 9801  39.803  27.767   7.964
  506POPC   C4B 9802  39.895  27.819   7.664
  507POPC   NC3 9803  36.867  12.852   9.464
  507POPC   PO4 9804  36.902  12.847   9.164
  507POPC   GL1 9805  36.877  12.886   8.864
  507POPC   GL2 9806  36.800  12.831   8.864
  507POPC   C1A 9807  36.925  12.887   8.564
  507POPC   D2A 9808  36.904  12.850   8.264
  507POPC   C3A 9809  36.886  12.888   7.964
  507POPC   C4A 9810  36.951  12.859   7.664
  507POPC   C1B 9811  36.707  12.763   8.564
  507POPC   C2B 9812  36.633  12.833   8.264
  507POPC   C3B 9813  36.643  12.795   7.964
  507POPC   C4B 9814  36.643  12.806   7.664
  508POPC   NC3 9815   3.549  32.277   9.464
  508POPC   PO4 9816   3.558  32.250   9.164
  508POPC   GL1 9817   3.561  32.230   8.864
  508POPC   GL2 9818   3.661  32.255   8.864
  508POPC   C1A 9819   3.515  32.282   8.564
  508POPC   D2A 9820   3.571  32.206   8.264
  508POPC   C3A 9821   3.516  32.271   7.964
  508POPC   C4A 9822   3.550  32.298   7.664
  508POPC   C1B 9823   3.837  32.216   8.564
  508POPC   C2B 9824   3.775  32.225   8.264
  508POPC   C3B 9825   3.810  32.220   7.964
  508POPC   C4B 9826   3.797  32.257   7.664
  509POPC   NC3 9827   1.242  36.939   9.464
  509POPC   PO4 9828   1.259  36.923   9.164
  509POPC   GL1 9829   1.194  36.865   8.864
  509POPC   GL2 9830   1.078  36.986   8.864
  509POPC   C1A 9831   1.250  36.876   8.564
  509POPC   D2A 9832   1.211  36.858   8.264
  509POPC   C3A 9833   1.178  36.902   7.964
  509POPC   C4A 9834   1.254  36.944   7.664
  509POPC   C1B 9835   1.025  37.045   8.564
  509POPC   C2B 9836   0.951  37.037   8.264
  509POPC   C3B 9837   0.989  36.962   7.964
  509POPC   C4B 9838   1.012  37.029   7.664
  510POPC   NC3 9839   2.039   6.599   9.464
  510POPC   PO4 9840   1.984   6.623   9.164
  510POPC   GL1 9841   1.981   6.690   8.864
  510POPC   GL2 9842   1.931   6.701   8.864
  510POPC   C1A 9843   1.976   6.643   8.564
  510POPC   D2A 9844   2.035   6.597   8.264
  510POPC   C3A 9845   2.018   6.637   7.964
  510POPC   C4A 9846   2.010   6.595   7.664
  510POPC   C1B 9847   1.839   6.883   8.564
  510POPC   C2B 9848   1.783   6.832   8.264
  510POPC   C3B 9849   1.866   6.867   7.964
  510POPC   C4B 9850   1.797   6.824   7.664
  511POPC   NC3 9851  33.050  17.465   9.464
  511POPC   PO4 9852  32.998  17.551   9.164
  511POPC   GL1 9853  33.045  17.541   8.864
  511POPC   GL2 9854  33.048  17.360   8.864
  511POPC   C1A 9855  33.052  17.515   8.564
  511POPC   D2A 9856  33.071  17.479   8.264
  511POPC   C3A 9857  33.063  17.486   7.964
  511POPC   C4A 9858  33.023  17.535   7.664
  511POPC   C1B 9859  33.009  17.280   8.564
  511POPC   C2B 9860  32.998  17.286   8.264
  511POPC   C3B 9861  33.088  17.293   7.964
  511POPC   C4B 9862  33.034  17.273   7.664
  512POPC   NC3 9863  15.914   5.851   9.464
  512POPC   PO4 9864  15.984   5.911   9.164
  512POPC   GL1 9865  15.925   5.875   8.864
  512POPC   GL2 9866  16.074   5.922   8.864
  512POPC   C1A 9867  15.979   5.820   8.564
  512POPC   D2A 9868  15.971   5.899   8.264
  512POPC   C3A 9869  15.963   5.901   7.964
  512POPC   C4A 9870  15.993   5.845   7.664
  512POPC   C1B 9871  16.160   6.005   8.564
  512POPC   C2B 9872  16.198   6.017   8.264
  512POPC   C3B 9873  16.229   6.008   7.964
  512POPC   C4B 9874  16.199   5.944   7.664
  513POPC   NC3 9875  10.539  14.389   9.464
  513POPC   PO4 9876  10.565  14.385   9.164
  513POPC   GL1 9877  10.572  14.417   8.864
  513POPC   GL2 9878  10.614  14.451   8.864
  513POPC   C1A 9879  10.476  14.385   8.564
  513POPC   D2A 9880  10.573  14.394   8.264
  513POPC   C3A 9881  10.525  14.365   7.964
  513POPC   C4A 9882  10.508  14.420   7.664
  513POPC   C1B 9883  10.736  14.550   8.564
  513POPC   C2B 9884  10.774  14.498   8.264
  513POPC   C3B 9885  10.738  14.491   7.964
  513POPC   C4B 9886  10.735  14.485   7.664
  514POPC   NC3 9887  34.559  26.037   9.464
  514POPC   PO4 9888  34.560  26.089   9.164
  514POPC   GL1 9889  34.609  26.020   8.864
  514POPC   GL2 9890  34.506  26.119   8.864
  514POPC   C1A 9891  34.545  26.015   8.564
  514POPC   D2A 9892  34.527  26.016   8.264
  514POPC   C3A 9893  34.621  26.023   7.964
  514POPC   C4A 9894  34.613  25.995   7.664
  514POPC   C1B 9895  34.371  26.172   8.564
  514POPC   C2B 9896  34.334  26.118   8.264
  514POPC   C3B 9897  34.338  26.187   7.964
  514POPC   C4B 9898  34.375  26.156   7.664
  515POPC   NC3 9899   6.685  37.710   9.464
  515POPC   PO4 9900   6.618  37.691   9.164
  515POPC   GL1 9901   6.660  37.720   8.864
  515POPC   GL2 9902   6.549  37.560   8.864
  515POPC   C1A 9903   6.674  37.704   8.564
  515POPC   D2A 9904   6.635  37.726   8.264
  515POPC   C3A 9905   6.608  37.649   7.964
  515POPC   C4A 9906   6.633  37.707   7.664
  515POPC   C1B 9907   6.499  37.498   8.564
  515POPC   C2B 9908   6.525  37.493   8.264
  515POPC   C3B 9909   6.525  37.492   7.964
  515POPC   C4B 9910   6.535  37.423   7.664
  516POPC   NC3 9911  15.192  25.295   9.464
  516POPC   PO4 9912  15.187  25.233   9.164
  516POPC   GL1 9913  15.193  25.291   8.864
  516POPC   GL2 9914  15.040  25.263   8.864
  516POPC   C1A 9915  15.194  25.256   8.564
  516POPC   D2A 9916  15.192  25.239   8.264
  516POPC   C3A 9917  15.160  25.287   7.964
  516POPC   C4A 9918  15.155  25.285   7.664
  516POPC   C1B 9919  14.967  25.196   8.564
  516POPC   C2B 9920  14.974  25.221   8.264
  516POPC   C3B 9921  14.933  25.162   7.964
  516POPC   C4B 9922  14.903  25.216   7.664
  517POPC   NC3 9923  12.898   1.945   9.464
  517POPC   PO4 9924  12.888   2.007   9.164
  517POPC   GL1 9925  12.866   1.991   8.864
  517POPC   GL2 9926  12.964   1.959   8.864
  517POPC   C1A 9927  12.852   1.984   8.564
  517POPC   D2A 9928  12.815   1.978   8.264
  517POPC   C3A 9929  12.870   2.006   7.964
  517POPC   C4A 9930  12.830   1.975   7.664
  517POPC   C1B 9931  13.107   1.928   8.564
  517POPC   C2B 9932  13.059   1.911   8.264
  517POPC   C3B 9933  13.072   1.898   7.964
  517POPC   C4B 9934  13.033   1.899   7.664
  518POPC   NC3 9935  29.886   2.755   9.464
  518POPC   PO4 9936  29.873   2.812   9.164
  518POPC   GL1 9937  29.902   2.797   8.864
  518POPC   GL2 9938  29.894   2.620   8.864
  518POPC   C1A 9939  29.910   2.739   8.564
  518POPC   D2A 9940  29.920   2.728   8.264
  518POPC   C3A 9941  29.879   2.748   7.964
  518POPC   C4A 9942  29.905   2.794   7.664
  518POPC   C1B 9943  29.772   2.543   8.564
  518POPC   C2B 9944  29.824   2.529   8.264
  518POPC   C3B 9945  29.770   2.570   7.964
  518POPC   C4B 9946  29.767   2.553   7.664
  519POPC   NC3 9947  33.827   5.846   9.464
  519POPC   PO4 9948  33.787   5.859   9.164
  519POPC   GL1 9949  33.782   5.898   8.864
  519POPC   GL2 9950  33.888   5.961   8.864
  519POPC   C1A 9951  33.818   5.881   8.564
  519POPC   D2A 9952  33.831   5.831   8.264
  519POPC   C3A 9953  33.793   5.831   7.964
  519POPC   C4A 9954  33.816   5.895   7.664
  519POPC   C1B 9955  33.862   6.118   8.564
  519POPC   C2B 9956  33.879   6.149   8.264
  519POPC   C3B 9957  33.912   6.064   7.964
  519POPC   C4B 9958  33.947   6.115   7.664
  520POPC   NC3 9959  34.560  27.597   9.464
  520POPC   PO4 9960  34.586  27.583   9.164
  520POPC   GL1 9961  34.546  27.549   8.864
  520POPC   GL2 9962  34.494  27.671   8.864
  520POPC   C1A 9963  34.593  27.560   8.564
  520POPC   D2A 9964  34.572  27.567   8.264
  520POPC   C3A 9965  34.564  27.569   7.964
  520POPC   C4A 9966  34.625  27.624   7.664
  520POPC   C1B 9967  34.373  27.677   8.564
  520POPC   C2B 9968  34.341  27.705   8.264
  520POPC   C3B 9969  34.376  27.699   7.964
  520POPC   C4B 9970  34.375  27.692   7.664
  521POPC   NC3 9971  26.776  22.171   9.464
  521POPC   PO4 9972  26.769  22.147   9.164
  521POPC   GL1 9973  26.797  22.141   8.864
  521POPC   GL2 9974  26.725  22.289   8.864
  521POPC   C1A 9975  26.825  22.118   8.564
  521POPC   D2A 9976  26.833  22.186   8.264
  521POPC   C3A 9977  26.778  22.130   7.964
  521POPC   C4A 9978  26.839  22.142   7.664
  521POPC   C1B 9979  26.682  22.350   8.564
  521POPC   C2B 9980  26.609  22.381   8.264
  521POPC   C3B 9981  26.675  22.354   7.964
  521POPC   C4B 9982  26.613  22.303   7.664
  522POPC   NC3 9983   6.634  43.132   9.464
  522POPC   PO4 9984   6.660  43.073   9.164
  522POPC   GL1 9985   6.595  43.072   8.864
  522POPC   GL2 9986   6.508  43.041   8.864
  522POPC   C1A 9987   6.620  43.142   8.564
  522POPC   D2A 9988   6.649  43.136   8.264
  522POPC   C3A 9989   6.643  43.119   7.964
  522POPC   C4A 9990   6.666  43.094   7.664
  522POPC   C1B 9991   6.487  42.969   8.564
  522POPC   C2B 9992   6.473  42.892   8.264
  522POPC   C3B 9993   6.507  42.933   7.964
  522POPC   C4B 9994   6.419  42.962   7.664
  523POPC   NC3 9995  11.329  41.528   9.464
  523POPC   PO4 9996  11.317  41.585   9.164
  523POPC   GL1 9997  11.256  41.597   8.864
  523POPC   GL2 9998  11.236  41.672   8.864
  523POPC   C1A 9999  11.261  41.542   8.564
  523POPC   D2A10000  11.296  41.542   8.264
  523POPC   C3A10001  11.309  41.609   7.964
  523POPC   C4A10002  11.326  41.588   7.664
  523POPC   C1B10003  11.291  41.822   8.564
  523POPC   C2B10004  11.222  41.799   8.264
  523POPC   C3B10005  11.256  41.814   7.964
  523POPC   C4B10006  11.283  41.769   7.664
  524POPC   NC310007  36.150  13.675   9.464
  524POPC   PO410008  36.146  13.639   9.164
  524POPC   GL110009  36.167  13.624   8.864
  524POPC   GL210010  36.130  13.787   8.864
  524POPC   C1A10011  36.134  13.658   8.564
  524POPC   D2A10012  36.176  13.640   8.264
  524POPC   C3A10013  36.158  13.603   7.964
  524POPC   C4A10014  36.173  13.667   7.664
  524POPC   C1B10015  36.158  13.835   8.564
  524POPC   C2B10016  36.082  13.848   8.264
  524POPC   C3B10017  36.112  13.924   7.964
  524POPC   C4B10018  36.081  13.893   7.664
  525POPC   NC310019  29.898  28.419   9.464
  525POPC   PO410020  29.894  28.371   9.164
  525POPC   GL110021  29.936  28.416   8.864
  525POPC   GL210022  29.897  28.433   8.864
  525POPC   C1A10023  29.967  28.377   8.564
  525POPC   D2A10024  29.941  28.374   8.264
  525POPC   C3A10025  29.894  28.337   7.964
  525POPC   C4A10026  29.956  28.411   7.664
  525POPC   C1B10027  29.761  28.607   8.564
  525POPC   C2B10028  29.805  28.587   8.264
  525POPC   C3B10029  29.829  28.553   7.964
  525POPC   C4B10030  29.831  28.594   7.664
  526POPC   NC310031   1.177  12.877   9.464
  526POPC   PO410032   1.172  12.877   9.164
  526POPC   GL110033   1.224  12.823   8.864
  526POPC   GL210034   1.220  12.763   8.864
  526POPC   C1A10035   1.206  12.846   8.564
  526POPC   D2A10036   1.250  12.876   8.264
  526POPC   C3A10037   1.195  12.825   7.964
  526POPC   C4A10038   1.238  12.813   7.664
  526POPC   C1B10039   1.244  12.560   8.564
  526POPC   C2B10040   1.239  12.636   8.264
  526POPC   C3B10041   1.229  12.637   7.964
  526POPC   C4B10042   1.256  12.600   7.664
  527POPC   NC310043  36.891   1.985   9.464
  527POPC   PO410044  36.949   1.979   9.164
  527POPC   GL110045  36.953   2.004   8.864
  527POPC   GL210046  36.822   2.071   8.864
  527POPC   C1A10047  36.938   1.964   8.564
  527POPC   D2A10048  36.907   2.033   8.264
  527POPC   C3A10049  36.880   2.001   7.964
  527POPC   C4A10050  36.903   2.008   7.664
  527POPC   C1B10051  36.750   2.246   8.564
  527POPC   C2B10052  36.809   2.198   8.264
  527POPC   C3B10053  36.823   2.198   7.964
  527POPC   C4B10054  36.794   2.204   7.664
  528POPC   NC310055   1.180  43.885   9.464
  528POPC   PO410056   1.177  43.927   9.164
  528POPC   GL110057   1.199  43.862   8.864
  528POPC   GL210058   1.346  43.880   8.864
  528POPC   C1A10059   1.252  43.893   8.564
  528POPC   D2A10060   1.199  43.842   8.264
  528POPC   C3A10061   1.198  43.860   7.964
  528POPC   C4A10062   1.239  43.927   7.664
  528POPC   C1B10063   1.417  43.784   8.564
  528POPC   C2B10064   1.478  43.851   8.264
  528POPC   C3B10065   1.448  43.781   7.964
  528POPC   C4B10066   1.500  43.841   7.664
  529POPC   NC310067  16.713  34.548   9.464
  529POPC   PO410068  16.762  34.572   9.164
  529POPC   GL110069  16.729  34.571   8.864
  529POPC   GL210070  16.698  34.651   8.864
  529POPC   C1A10071  16.742  34.602   8.564
  529POPC   D2A10072  16.724  34.607   8.264
  529POPC   C3A10073  16.684  34.596   7.964
  529POPC   C4A10074  16.746  34.534   7.664
  529POPC   C1B10075  16.558  34.743   8.564
  529POPC   C2B10076  16.560  34.818   8.264
  529POPC   C3B10077  16.608  34.788   7.964
  529POPC   C4B10078  16.627  34.751   7.664
  530POPC   NC310079  26.004  40.810   9.464
  530POPC   PO410080  26.025  40.814   9.164
  530POPC   GL110081  25.995  40.764   8.864
  530POPC   GL210082  26.136  40.718   8.864
  530POPC   C1A10083  26.086  40.777   8.564
  530POPC   D2A10084  26.046  40.766   8.264
  530POPC   C3A10085  26.051  40.808   7.964
  530POPC   C4A10086  26.061  40.796   7.664
  530POPC   C1B10087  26.188  40.613   8.564
  530POPC   C2B10088  26.151  40.561   8.264
  530POPC   C3B10089  26.220  40.581   7.964
  530POPC   C4B10090  26.185  40.541   7.664
  531POPC   NC310091  32.271  36.088   9.464
  531POPC   PO410092  32.260  36.133   9.164
  531POPC   GL110093  32.255  36.117   8.864
  531POPC   GL210094  32.207  36.056   8.864
  531POPC   C1A10095  32.224  36.166   8.564
  531POPC   D2A10096  32.208  36.104   8.264
  531POPC   C3A10097  32.273  36.149   7.964
  531POPC   C4A10098  32.270  36.123   7.664
  531POPC   C1B10099  32.156  35.927   8.564
  531POPC   C2B10100  32.166  35.941   8.264
  531POPC   C3B10101  32.087  35.923   7.964
  531POPC   C4B10102  32.104  35.866   7.664
  532POPC   NC310103  17.520  44.705   9.464
  532POPC   PO410104  17.510  44.668   9.164
  532POPC   GL110105  17.542  44.688   8.864
  532POPC   GL210106  17.573  44.752   8.864
  532POPC   C1A10107  17.510  44.632   8.564
  532POPC   D2A10108  17.497  44.684   8.264
  532POPC   C3A10109  17.486  44.629   7.964
  532POPC   C4A10110  17.537  44.663   7.664
  532POPC   C1B10111  17.632  44.840   8.564
  532POPC   C2B10112  17.653  44.839   8.264
  532POPC   C3B10113  17.629  44.869   7.964
  532POPC   C4B10114  17.699  44.856   7.664
  533POPC   NC310115  15.996  15.147   9.464
  533POPC   PO410116  15.924  15.145   9.164
  533POPC   GL110117  15.959  15.217   8.864
  533POPC   GL210118  15.840  15.197   8.864
  533POPC   C1A10119  15.961  15.156   8.564
  533POPC   D2A10120  15.981  15.135   8.264
  533POPC   C3A10121  15.913  15.133   7.964
  533POPC   C4A10122  15.930  15.135   7.664
  533POPC   C1B10123  15.723  15.156   8.564
  533POPC   C2B10124  15.674  15.155   8.264
  533POPC   C3B10125  15.728  15.183   7.964
  533POPC   C4B10126  15.710  15.147   7.664
  534POPC   NC310127  10.547  41.577   9.464
  534POPC   PO410128  10.497  41.599   9.164
  534POPC   GL110129  10.499  41.535   8.864
  534POPC   GL210130  10.621  41.687   8.864
  534POPC   C1A10131  10.538  41.588   8.564
  534POPC   D2A10132  10.496  41.583   8.264
  534POPC   C3A10133  10.508  41.541   7.964
  534POPC   C4A10134  10.494  41.570   7.664
  534POPC   C1B10135  10.658  41.749   8.564
  534POPC   C2B10136  10.650  41.702   8.264
  534POPC   C3B10137  10.711  41.759   7.964
  534POPC   C4B10138  10.649  41.738   7.664
  535POPC   NC310139  42.378  13.667   9.464
  535POPC   PO410140  42.311  13.637   9.164
  535POPC   GL110141  42.355  13.642   8.864
  535POPC   GL210142  42.448  13.642   8.864
  535POPC   C1A10143  42.288  13.641   8.564
  535POPC   D2A10144  42.323  13.615   8.264
  535POPC   C3A10145  42.316  13.586   7.964
  535POPC   C4A10146  42.329  13.594   7.664
  535POPC   C1B10147  42.553  13.593   8.564
  535POPC   C2B10148  42.541  13.617   8.264
  535POPC   C3B10149  42.623  13.590   7.964
  535POPC   C4B10150  42.615  13.584   7.664
  536POPC   NC310151  10.512  44.686   9.464
  536POPC   PO410152  10.527  44.702   9.164
  536POPC   GL110153  10.534  44.655   8.864
  536POPC   GL210154  10.652  44.778   8.864
  536POPC   C1A10155  10.509  44.625   8.564
  536POPC   D2A10156  10.528  44.680   8.264
  536POPC   C3A10157  10.476  44.632   7.964
  536POPC   C4A10158  10.498  44.687   7.664
  536POPC   C1B10159  10.711  44.820   8.564
  536POPC   C2B10160  10.735  44.842   8.264
  536POPC   C3B10161  10.718  44.833   7.964
  536POPC   C4B10162  10.720  44.889   7.664
  537POPC   NC310163  30.669  12.099   9.464
  537POPC   PO410164  30.744  12.071   9.164
  537POPC   GL110165  30.672  12.056   8.864
  537POPC   GL210166  30.545  12.136   8.864
  537POPC   C1A10167  30.684  12.122   8.564
  537POPC   D2A10168  30.688  12.082   8.264
  537POPC   C3A10169  30.660  12.090   7.964
  537POPC   C4A10170  30.712  12.083   7.664
  537POPC   C1B10171  30.488  12.212   8.564
  537POPC   C2B10172  30.513  12.253   8.264
  537POPC   C3B10173  30.492  12.237   7.964
  537POPC   C4B10174  30.494  12.226   7.664
  538POPC   NC310175   1.968  38.443   9.464
  538POPC   PO410176   2.006  38.469   9.164
  538POPC   GL110177   1.977  38.427   8.864
  538POPC   GL210178   2.114  38.422   8.864
  538POPC   C1A10179   1.990  38.412   8.564
  538POPC   D2A10180   1.979  38.457   8.264
  538POPC   C3A10181   1.958  38.419   7.964
  538POPC   C4A10182   1.987  38.418   7.664
  538POPC   C1B10183   2.156  38.267   8.564
  538POPC   C2B10184   2.180  38.260   8.264
  538POPC   C3B10185   2.214  38.275   7.964
  538POPC   C4B10186   2.140  38.337   7.664
  539POPC   NC310187  29.891  17.525   9.464
  539POPC   PO410188  29.894  17.494   9.164
  539POPC   GL110189  29.898  17.460   8.864
  539POPC   GL210190  29.803  17.477   8.864
  539POPC   C1A10191  29.947  17.503   8.564
  539POPC   D2A10192  29.914  17.491   8.264
  539POPC   C3A10193  29.940  17.463   7.964
  539POPC   C4A10194  29.888  17.527   7.664
  539POPC   C1B10195  29.707  17.520   8.564
  539POPC   C2B10196  29.664  17.538   8.264
  539POPC   C3B10197  29.674  17.460   7.964
  539POPC   C4B10198  29.713  17.533   7.664
  540POPC   NC310199  24.495   4.317   9.464
  540POPC   PO410200  24.504   4.351   9.164
  540POPC   GL110201  24.510   4.337   8.864
  540POPC   GL210202  24.430   4.421   8.864
  540POPC   C1A10203  24.465   4.314   8.564
  540POPC   D2A10204  24.518   4.293   8.264
  540POPC   C3A10205  24.454   4.286   7.964
  540POPC   C4A10206  24.469   4.321   7.664
  540POPC   C1B10207  24.293   4.445   8.564
  540POPC   C2B10208  24.296   4.458   8.264
  540POPC   C3B10209  24.276   4.440   7.964
  540POPC   C4B10210  24.277   4.491   7.664
  541POPC   NC310211  17.478  21.346   9.464
  541POPC   PO410212  17.519  21.408   9.164
  541POPC   GL110213  17.489  21.431   8.864
  541POPC   GL210214  17.414  21.348   8.864
  541POPC   C1A10215  17.484  21.386   8.564
  541POPC   D2A10216  17.498  21.405   8.264
  541POPC   C3A10217  17.513  21.336   7.964
  541POPC   C4A10218  17.539  21.370   7.664
  541POPC   C1B10219  17.304  21.225   8.564
  541POPC   C2B10220  17.261  21.219   8.264
  541POPC   C3B10221  17.294  21.236   7.964
  541POPC   C4B10222  17.263  21.269   7.664
  542POPC   NC310223  29.952  33.822   9.464
  542POPC   PO410224  29.970  33.802   9.164
  542POPC   GL110225  29.954  33.776   8.864
  542POPC   GL210226  29.897  33.643   8.864
  542POPC   C1A10227  29.963  33.774   8.564
  542POPC   D2A10228  29.952  33.822   8.264
  542POPC   C3A10229  29.872  33.770   7.964
  542POPC   C4A10230  29.879  33.836   7.664
  542POPC   C1B10231  29.897  33.512   8.564
  542POPC   C2B10232  29.908  33.508   8.264
  542POPC   C3B10233  29.890  33.565   7.964
  542POPC   C4B10234  29.951  33.534   7.664
  543POPC   NC310235   9.011  19.090   9.464
  543POPC   PO410236   8.934  19.106   9.164
  543POPC   GL110237   8.976  19.013   8.864
  543POPC   GL210238   9.048  19.063   8.864
  543POPC   C1A10239   8.964  19.051   8.564
  543POPC   D2A10240   8.943  19.064   8.264
  543POPC   C3A10241   8.931  19.015   7.964
  543POPC   C4A10242   8.977  19.012   7.664
  543POPC   C1B10243   9.248  19.089   8.564
  543POPC   C2B10244   9.248  19.099   8.264
  543POPC   C3B10245   9.252  19.062   7.964
  543POPC   C4B10246   9.244  19.077   7.664
  544POPC   NC310247   2.002  18.249   9.464
  544POPC   PO410248   1.991  18.311   9.164
  544POPC   GL110249   2.016  18.289   8.864
  544POPC   GL210250   1.872  18.300   8.864
  544POPC   C1A10251   2.035  18.319   8.564
  544POPC   D2A10252   1.951  18.255   8.264
  544POPC   C3A10253   1.994  18.274   7.964
  544POPC   C4A10254   1.959  18.264   7.664
  544POPC   C1B10255   1.782  18.395   8.564
  544POPC   C2B10256   1.799  18.359   8.264
  544POPC   C3B10257   1.759  18.376   7.964
  544POPC   C4B10258   1.739  18.421   7.664
  545POPC   NC310259  22.137  17.489   9.464
  545POPC   PO410260  22.124  17.521   9.164
  545POPC   GL110261  22.163  17.480   8.864
  545POPC   GL210262  22.065  17.592   8.864
  545POPC   C1A10263  22.123  17.547   8.564
  545POPC   D2A10264  22.205  17.538   8.264
  545POPC   C3A10265  22.138  17.467   7.964
  545POPC   C4A10266  22.127  17.457   7.664
  545POPC   C1B10267  21.959  17.567   8.564
  545POPC   C2B10268  21.903  17.544   8.264
  545POPC   C3B10269  21.913  17.568   7.964
  545POPC   C4B10270  21.941  17.631   7.664
  546POPC   NC310271   7.398  43.845   9.464
  546POPC   PO410272   7.434  43.841   9.164
  546POPC   GL110273   7.458  43.892   8.864
  546POPC   GL210274   7.351  43.949   8.864
  546POPC   C1A10275   7.436  43.856   8.564
  546POPC   D2A10276   7.402  43.843   8.264
  546POPC   C3A10277   7.406  43.851   7.964
  546POPC   C4A10278   7.430  43.912   7.664
  546POPC   C1B10279   7.322  44.129   8.564
  546POPC   C2B10280   7.279  44.061   8.264
  546POPC   C3B10281   7.241  44.086   7.964
  546POPC   C4B10282   7.322  44.136   7.664
  547POPC   NC310283  37.643   5.878   9.464
  547POPC   PO410284  37.667   5.849   9.164
  547POPC   GL110285  37.670   5.901   8.864
  547POPC   GL210286  37.746   5.793   8.864
  547POPC   C1A10287  37.632   5.882   8.564
  547POPC   D2A10288  37.701   5.882   8.264
  547POPC   C3A10289  37.640   5.902   7.964
  547POPC   C4A10290  37.655   5.898   7.664
  547POPC   C1B10291  37.856   5.790   8.564
  547POPC   C2B10292  37.925   5.744   8.264
  547POPC   C3B10293  37.853   5.773   7.964
  547POPC   C4B10294  37.923   5.707   7.664
  548POPC   NC310295  44.655  40.035   9.464
  548POPC   PO410296  44.628  40.039   9.164
  548POPC   GL110297  44.631  39.983   8.864
  548POPC   GL210298  44.546  40.043   8.864
  548POPC   C1A10299  44.686  40.024   8.564
  548POPC   D2A10300  44.623  40.034   8.264
  548POPC   C3A10301  44.694  39.962   7.964
  548POPC   C4A10302  44.676  40.020   7.664
  548POPC   C1B10303  44.393  40.112   8.564
  548POPC   C2B10304  44.461  40.126   8.264
  548POPC   C3B10305  44.413  40.042   7.964
  548POPC   C4B10306  44.417  40.117   7.664
  549POPC   NC310307  10.526   9.734   9.464
  549POPC   PO410308  10.509   9.705   9.164
  549POPC   GL110309  10.569   9.730   8.864
  549POPC   GL210310  10.612   9.832   8.864
  549POPC   C1A10311  10.573   9.720   8.564
  549POPC   D2A10312  10.501   9.700   8.264
  549POPC   C3A10313  10.552   9.796   7.964
  549POPC   C4A10314  10.491   9.788   7.664
  549POPC   C1B10315  10.730   9.914   8.564
  549POPC   C2B10316  10.646   9.895   8.264
  549POPC   C3B10317  10.710   9.935   7.964
  549POPC   C4B10318  10.661   9.907   7.664
  550POPC   NC310319  32.228   5.107   9.464
  550POPC   PO410320  32.254   5.113   9.164
  550POPC   GL110321  32.266   5.138   8.864
  550POPC   GL210322  32.373   5.120   8.864
  550POPC   C1A10323  32.198   5.053   8.564
  550POPC   D2A10324  32.271   5.052   8.264
  550POPC   C3A10325  32.213   5.115   7.964
  550POPC   C4A10326  32.286   5.142   7.664
  550POPC   C1B10327  32.482   5.068   8.564
  550POPC   C2B10328  32.548   5.106   8.264
  550POPC   C3B10329  32.512   5.051   7.964
  550POPC   C4B10330  32.486   5.052   7.664
  551POPC   NC310331  39.991  32.230   9.464
  551POPC   PO410332  40.036  32.265   9.164
  551POPC   GL110333  39.977  32.230   8.864
  551POPC   GL210334  39.988  32.386   8.864
  551POPC   C1A10335  39.992  32.295   8.564
  551POPC   D2A10336  39.963  32.258   8.264
  551POPC   C3A10337  40.029  32.265   7.964
  551POPC   C4A10338  40.051  32.207   7.664
  551POPC   C1B10339  40.022  32.485   8.564
  551POPC   C2B10340  39.997  32.510   8.264
  551POPC   C3B10341  40.042  32.533   7.964
  551POPC   C4B10342  39.991  32.543   7.664
  552POPC   NC310343   1.183   5.064   9.464
  552POPC   PO410344   1.249   5.076   9.164
  552POPC   GL110345   1.198   5.142   8.864
  552POPC   GL210346   1.358   5.164   8.864
  552POPC   C1A10347   1.256   5.114   8.564
  552POPC   D2A10348   1.226   5.125   8.264
  552POPC   C3A10349   1.174   5.109   7.964
  552POPC   C4A10350   1.229   5.065   7.664
  552POPC   C1B10351   1.437   5.152   8.564
  552POPC   C2B10352   1.398   5.197   8.264
  552POPC   C3B10353   1.402   5.203   7.964
  552POPC   C4B10354   1.486   5.141   7.664
  553POPC   NC310355  31.507  36.125   9.464
  553POPC   PO410356  31.434  36.147   9.164
  553POPC   GL110357  31.463  36.120   8.864
  553POPC   GL210358  31.389  36.048   8.864
  553POPC   C1A10359  31.480  36.168   8.564
  553POPC   D2A10360  31.454  36.166   8.264
  553POPC   C3A10361  31.492  36.096   7.964
  553POPC   C4A10362  31.494  36.169   7.664
  553POPC   C1B10363  31.316  35.983   8.564
  553POPC   C2B10364  31.327  35.973   8.264
  553POPC   C3B10365  31.288  35.942   7.964
  553POPC   C4B10366  31.280  35.955   7.664
  554POPC   NC310367   5.069  33.794   9.464
  554POPC   PO410368   5.045  33.773   9.164
  554POPC   GL110369   5.094  33.835   8.864
  554POPC   GL210370   5.095  33.640   8.864
  554POPC   C1A10371   5.101  33.792   8.564
  554POPC   D2A10372   5.093  33.830   8.264
  554POPC   C3A10373   5.100  33.802   7.964
  554POPC   C4A10374   5.084  33.779   7.664
  554POPC   C1B10375   5.049  33.527   8.564
  554POPC   C2B10376   5.037  33.518   8.264
  554POPC   C3B10377   5.055  33.520   7.964
  554POPC   C4B10378   5.002  33.576   7.664
  555POPC   NC310379  43.142   5.059   9.464
  555POPC   PO410380  43.105   5.048   9.164
  555POPC   GL110381  43.087   5.142   8.864
  555POPC   GL210382  43.069   5.227   8.864
  555POPC   C1A10383  43.122   5.085   8.564
  555POPC   D2A10384  43.067   5.058   8.264
  555POPC   C3A10385  43.084   5.117   7.964
  555POPC   C4A10386  43.159   5.108   7.664
  555POPC   C1B10387  43.094   5.318   8.564
  555POPC   C2B10388  43.075   5.307   8.264
  555POPC   C3B10389  43.086   5.308   7.964
  555POPC   C4B10390  43.164   5.380   7.664
  556POPC   NC310391  32.286  19.832   9.464
  556POPC   PO410392  32.243  19.833   9.164
  556POPC   GL110393  32.257  19.822   8.864
  556POPC   GL210394  32.344  19.926   8.864
  556POPC   C1A10395  32.291  19.829   8.564
  556POPC   D2A10396  32.248  19.843   8.264
  556POPC   C3A10397  32.237  19.879   7.964
  556POPC   C4A10398  32.214  19.869   7.664
  556POPC   C1B10399  32.480  19.906   8.564
  556POPC   C2B10400  32.459  19.961   8.264
  556POPC   C3B10401  32.494  19.970   7.964
  556POPC   C4B10402  32.467  19.921   7.664
  557POPC   NC310403  39.212  34.539   9.464
  557POPC   PO410404  39.258  34.583   9.164
  557POPC   GL110405  39.228  34.583   8.864
  557POPC   GL210406  39.277  34.725   8.864
  557POPC   C1A10407  39.229  34.533   8.564
  557POPC   D2A10408  39.269  34.556   8.264
  557POPC   C3A10409  39.257  34.563   7.964
  557POPC   C4A10410  39.183  34.547   7.664
  557POPC   C1B10411  39.230  34.822   8.564
  557POPC   C2B10412  39.247  34.800   8.264
  557POPC   C3B10413  39.283  34.822   7.964
  557POPC   C4B10414  39.264  34.796   7.664
  558POPC   NC310415  43.925  29.871   9.464
  558POPC   PO410416  43.921  29.882   9.164
  558POPC   GL110417  43.899  29.903   8.864
  558POPC   GL210418  43.987  29.884   8.864
  558POPC   C1A10419  43.846  29.889   8.564
  558POPC   D2A10420  43.931  29.933   8.264
  558POPC   C3A10421  43.879  29.928   7.964
  558POPC   C4A10422  43.857  29.872   7.664
  558POPC   C1B10423  44.126  29.864   8.564
  558POPC   C2B10424  44.127  29.916   8.264
  558POPC   C3B10425  44.089  29.861   7.964
  558POPC   C4B10426  44.123  29.840   7.664
  559POPC   NC310427  44.618   7.392   9.464
  559POPC   PO410428  44.626   7.418   9.164
  559POPC   GL110429  44.653   7.436   8.864
  559POPC   GL210430  44.715   7.579   8.864
  559POPC   C1A10431  44.635   7.416   8.564
  559POPC   D2A10432  44.618   7.435   8.264
  559POPC   C3A10433  44.708   7.423   7.964
  559POPC   C4A10434  44.698   7.389   7.664
  559POPC   C1B10435  44.728   7.669   8.564
  559POPC   C2B10436  44.688   7.666   8.264
  559POPC   C3B10437  44.707   7.643   7.964
  559POPC   C4B10438  44.761   7.646   7.664
  560POPC   NC310439  40.805  29.122   9.464
  560POPC   PO410440  40.775  29.147   9.164
  560POPC   GL110441  40.738  29.137   8.864
  560POPC   GL210442  40.862  29.061   8.864
  560POPC   C1A10443  40.766  29.144   8.564
  560POPC   D2A10444  40.800  29.116   8.264
  560POPC   C3A10445  40.740  29.147   7.964
  560POPC   C4A10446  40.830  29.180   7.664
  560POPC   C1B10447  40.885  28.899   8.564
  560POPC   C2B10448  40.913  28.891   8.264
  560POPC   C3B10449  40.863  28.918   7.964
  560POPC   C4B10450  40.899  28.878   7.664
  561POPC   NC310451   4.305  34.537   9.464
  561POPC   PO410452   4.338  34.593   9.164
  561POPC   GL110453   4.344  34.545   8.864
  561POPC   GL210454   4.321  34.426   8.864
  561POPC   C1A10455   4.355  34.622   8.564
  561POPC   D2A10456   4.332  34.596   8.264
  561POPC   C3A10457   4.338  34.547   7.964
  561POPC   C4A10458   4.280  34.537   7.664
  561POPC   C1B10459   4.372  34.322   8.564
  561POPC   C2B10460   4.392  34.329   8.264
  561POPC   C3B10461   4.319  34.283   7.964
  561POPC   C4B10462   4.307  34.329   7.664
  562POPC   NC310463  36.935   0.481   9.464
  562POPC   PO410464  36.937   0.404   9.164
  562POPC   GL110465  36.919   0.418   8.864
  562POPC   GL210466  36.970   0.402   8.864
  562POPC   C1A10467  36.942   0.482   8.564
  562POPC   D2A10468  36.924   0.413   8.264
  562POPC   C3A10469  36.911   0.459   7.964
  562POPC   C4A10470  36.911   0.487   7.664
  562POPC   C1B10471  37.146   0.303   8.564
  562POPC   C2B10472  37.088   0.298   8.264
  562POPC   C3B10473  37.117   0.312   7.964
  562POPC   C4B10474  37.160   0.331   7.664
  563POPC   NC310475  13.626   5.854   9.464
  563POPC   PO410476  13.640   5.819   9.164
  563POPC   GL110477  13.644   5.910   8.864
  563POPC   GL210478  13.504   5.959   8.864
  563POPC   C1A10479  13.670   5.834   8.564
  563POPC   D2A10480  13.669   5.828   8.264
  563POPC   C3A10481  13.639   5.884   7.964
  563POPC   C4A10482  13.606   5.867   7.664
  563POPC   C1B10483  13.429   6.040   8.564
  563POPC   C2B10484  13.487   6.019   8.264
  563POPC   C3B10485  13.467   6.023   7.964
  563POPC   C4B10486  13.482   6.034   7.664
  564POPC   NC310487  14.382  26.086   9.464
  564POPC   PO410488  14.366  26.042   9.164
  564POPC   GL110489  14.429  26.080   8.864
  564POPC   GL210490  14.455  26.199   8.864
  564POPC   C1A10491  14.358  26.026   8.564
  564POPC   D2A10492  14.440  25.997   8.264
  564POPC   C3A10493  14.445  26.007   7.964
  564POPC   C4A10494  14.419  26.077   7.664
  564POPC   C1B10495  14.486  26.305   8.564
  564POPC   C2B10496  14.548  26.297   8.264
  564POPC   C3B10497  14.493  26.298   7.964
  564POPC   C4B10498  14.531  26.294   7.664
  565POPC   NC310499  19.815  35.363   9.464
  565POPC   PO410500  19.812  35.332   9.164
  565POPC   GL110501  19.832  35.311   8.864
  565POPC   GL210502  19.854  35.439   8.864
  565POPC   C1A10503  19.793  35.346   8.564
  565POPC   D2A10504  19.837  35.398   8.264
  565POPC   C3A10505  19.858  35.327   7.964
  565POPC   C4A10506  19.785  35.373   7.664
  565POPC   C1B10507  19.965  35.632   8.564
  565POPC   C2B10508  19.917  35.584   8.264
  565POPC   C3B10509  19.904  35.577   7.964
  565POPC   C4B10510  19.921  35.573   7.664
  566POPC   NC310511  10.510   1.942   9.464
  566POPC   PO410512  10.514   1.974   9.164
  566POPC   GL110513  10.475   2.003   8.864
  566POPC   GL210514  10.403   1.899   8.864
  566POPC   C1A10515  10.481   2.032   8.564
  566POPC   D2A10516  10.556   1.970   8.264
  566POPC   C3A10517  10.479   2.034   7.964
  566POPC   C4A10518  10.523   1.968   7.664
  566POPC   C1B10519  10.336   1.817   8.564
  566POPC   C2B10520  10.374   1.783   8.264
  566POPC   C3B10521  10.313   1.763   7.964
  566POPC   C4B10522  10.403   1.839   7.664
  567POPC   NC310523  23.727  30.719   9.464
  567POPC   PO410524  23.737  30.673   9.164
  567POPC   GL110525  23.664  30.655   8.864
  567POPC   GL210526  23.629  30.773   8.864
  567POPC   C1A10527  23.673  30.692   8.564
  567POPC   D2A10528  23.680  30.653   8.264
  567POPC   C3A10529  23.723  30.684   7.964
  567POPC   C4A10530  23.758  30.671   7.664
  567POPC   C1B10531  23.492  30.736   8.564
  567POPC   C2B10532  23.519  30.752   8.264
  567POPC   C3B10533  23.426  30.816   7.964
  567POPC   C4B10534  23.492  30.754   7.664
  568POPC   NC310535   3.519  20.614   9.464
  568POPC   PO410536   3.573  20.615   9.164
  568POPC   GL110537   3.532  20.621   8.864
  568POPC   GL210538   3.629  20.736   8.864
  568POPC   C1A10539   3.539  20.578   8.564
  568POPC   D2A10540   3.566  20.659   8.264
  568POPC   C3A10541   3.579  20.580   7.964
  568POPC   C4A10542   3.571  20.597   7.664
  568POPC   C1B10543   3.784  20.817   8.564
  568POPC   C2B10544   3.684  20.731   8.264
  568POPC   C3B10545   3.739  20.764   7.964
  568POPC   C4B10546   3.759  20.735   7.664
  569POPC   NC310547  40.752  19.081   9.464
  569POPC   PO410548  40.763  19.054   9.164
  569POPC   GL110549  40.758  19.100   8.864
  569POPC   GL210550  40.895  18.991   8.864
  569POPC   C1A10551  40.742  19.055   8.564
  569POPC   D2A10552  40.773  19.057   8.264
  569POPC   C3A10553  40.822  19.033   7.964
  569POPC   C4A10554  40.789  19.091   7.664
  569POPC   C1B10555  40.901  18.835   8.564
  569POPC   C2B10556  40.976  18.843   8.264
  569POPC   C3B10557  40.938  18.898   7.964
  569POPC   C4B10558  40.935  18.912   7.664
  570POPC   NC310559   1.981  39.270   9.464
  570POPC   PO410560   1.945  39.258   9.164
  570POPC   GL110561   2.006  39.183   8.864
  570POPC   GL210562   2.060  39.144   8.864
  570POPC   C1A10563   1.993  39.189   8.564
  570POPC   D2A10564   1.943  39.198   8.264
  570POPC   C3A10565   1.981  39.209   7.964
  570POPC   C4A10566   2.033  39.258   7.664
  570POPC   C1B10567   2.104  39.063   8.564
  570POPC   C2B10568   2.095  39.032   8.264
  570POPC   C3B10569   2.111  39.028   7.964
  570POPC   C4B10570   2.191  39.062   7.664
  571POPC   NC310571   6.671  11.294   9.464
  571POPC   PO410572   6.685  11.255   9.164
  571POPC   GL110573   6.691  11.341   8.864
  571POPC   GL210574   6.682  11.160   8.864
  571POPC   C1A10575   6.597  11.331   8.564
  571POPC   D2A10576   6.685  11.305   8.264
  571POPC   C3A10577   6.692  11.289   7.964
  571POPC   C4A10578   6.680  11.329   7.664
  571POPC   C1B10579   6.636  11.095   8.564
  571POPC   C2B10580   6.675  11.060   8.264
  571POPC   C3B10581   6.693  11.077   7.964
  571POPC   C4B10582   6.643  11.061   7.664
  572POPC   NC310583   0.459  13.640   9.464
  572POPC   PO410584   0.457  13.646   9.164
  572POPC   GL110585   0.485  13.590   8.864
  572POPC   GL210586   0.370  13.524   8.864
  572POPC   C1A10587   0.393  13.621   8.564
  572POPC   D2A10588   0.473  13.634   8.264
  572POPC   C3A10589   0.451  13.672   7.964
  572POPC   C4A10590   0.396  13.662   7.664
  572POPC   C1B10591   0.256  13.407   8.564
  572POPC   C2B10592   0.264  13.402   8.264
  572POPC   C3B10593   0.258  13.426   7.964
  572POPC   C4B10594   0.299  13.395   7.664
  573POPC   NC310595  43.933  43.895   9.464
  573POPC   PO410596  43.909  43.902   9.164
  573POPC   GL110597  43.919  43.874   8.864
  573POPC   GL210598  44.001  43.774   8.864
  573POPC   C1A10599  43.860  43.864   8.564
  573POPC   D2A10600  43.920  43.934   8.264
  573POPC   C3A10601  43.869  43.868   7.964
  573POPC   C4A10602  43.915  43.910   7.664
  573POPC   C1B10603  44.144  43.741   8.564
  573POPC   C2B10604  44.114  43.705   8.264
  573POPC   C3B10605  44.137  43.790   7.964
  573POPC   C4B10606  44.082  43.789   7.664
  574POPC   NC310607  25.229   8.929   9.464
  574POPC   PO410608  25.278   8.932   9.164
  574POPC   GL110609  25.287   8.984   8.864
  574POPC   GL210610  25.219   8.929   8.864
  574POPC   C1A10611  25.306   8.999   8.564
  574POPC   D2A10612  25.219   8.979   8.264
  574POPC   C3A10613  25.287   8.941   7.964
  574POPC   C4A10614  25.288   9.009   7.664
  574POPC   C1B10615  25.118   8.792   8.564
  574POPC   C2B10616  25.083   8.815   8.264
  574POPC   C3B10617  25.075   8.822   7.964
  574POPC   C4B10618  25.130   8.808   7.664
  575POPC   NC310619   4.354  33.001   9.464
  575POPC   PO410620   4.322  33.045   9.164
  575POPC   GL110621   4.270  33.027   8.864
  575POPC   GL210622   4.221  32.873   8.864
  575POPC   C1A10623   4.296  32.996   8.564
  575POPC   D2A10624   4.364  32.976   8.264
  575POPC   C3A10625   4.355  32.976   7.964
  575POPC   C4A10626   4.341  33.053   7.664
  575POPC   C1B10627   4.191  32.812   8.564
  575POPC   C2B10628   4.196  32.817   8.264
  575POPC   C3B10629   4.183  32.825   7.964
  575POPC   C4B10630   4.210  32.823   7.664
  576POPC   NC310631  26.066  18.279   9.464
  576POPC   PO410632  25.996  18.297   9.164
  576POPC   GL110633  26.035  18.322   8.864
  576POPC   GL210634  26.091  18.410   8.864
  576POPC   C1A10635  26.030  18.294   8.564
  576POPC   D2A10636  26.031  18.281   8.264
  576POPC   C3A10637  26.080  18.320   7.964
  576POPC   C4A10638  26.071  18.280   7.664
  576POPC   C1B10639  26.192  18.495   8.564
  576POPC   C2B10640  26.231  18.518   8.264
  576POPC   C3B10641  26.161  18.477   7.964
  576POPC   C4B10642  26.150  18.457   7.664
  577POPC   NC310643  37.668  41.552   9.464
  577POPC   PO410644  37.684  41.571   9.164
  577POPC   GL110645  37.719  41.608   8.864
  577POPC   GL210646  37.716  41.477   8.864
  577POPC   C1A10647  37.693  41.546   8.564
  577POPC   D2A10648  37.694  41.573   8.264
  577POPC   C3A10649  37.724  41.567   7.964
  577POPC   C4A10650  37.703  41.530   7.664
  577POPC   C1B10651  37.781  41.294   8.564
  577POPC   C2B10652  37.832  41.295   8.264
  577POPC   C3B10653  37.845  41.341   7.964
  577POPC   C4B10654  37.783  41.374   7.664
  578POPC   NC310655   2.038  31.444   9.464
  578POPC   PO410656   2.017  31.503   9.164
  578POPC   GL110657   2.029  31.452   8.864
  578POPC   GL210658   2.029  31.629   8.864
  578POPC   C1A10659   1.953  31.507   8.564
  578POPC   D2A10660   1.995  31.486   8.264
  578POPC   C3A10661   1.990  31.440   7.964
  578POPC   C4A10662   1.944  31.502   7.664
  578POPC   C1B10663   2.112  31.717   8.564
  578POPC   C2B10664   2.070  31.743   8.264
  578POPC   C3B10665   2.119  31.726   7.964
  578POPC   C4B10666   2.053  31.690   7.664
  579POPC   NC310667  34.619  44.681   9.464
  579POPC   PO410668  34.595  44.612   9.164
  579POPC   GL110669  34.549  44.698   8.864
  579POPC   GL210670  34.706  44.660   8.864
  579POPC   C1A10671  34.552  44.709   8.564
  579POPC   D2A10672  34.567  44.668   8.264
  579POPC   C3A10673  34.570  44.614   7.964
  579POPC   C4A10674  34.558  44.689   7.664
  579POPC   C1B10675  34.852  44.629   8.564
  579POPC   C2B10676  34.779  44.676   8.264
  579POPC   C3B10677  34.789  44.595   7.964
  579POPC   C4B10678  34.845  44.608   7.664
  580POPC   NC310679  16.767  41.522   9.464
  580POPC   PO410680  16.707  41.594   9.164
  580POPC   GL110681  16.754  41.550   8.864
  580POPC   GL210682  16.704  41.641   8.864
  580POPC   C1A10683  16.758  41.535   8.564
  580POPC   D2A10684  16.692  41.545   8.264
  580POPC   C3A10685  16.750  41.597   7.964
  580POPC   C4A10686  16.703  41.585   7.664
  580POPC   C1B10687  16.734  41.854   8.564
  580POPC   C2B10688  16.659  41.816   8.264
  580POPC   C3B10689  16.693  41.765   7.964
  580POPC   C4B10690  16.687  41.834   7.664
  581POPC   NC310691  33.760   2.778   9.464
  581POPC   PO410692  33.819   2.723   9.164
  581POPC   GL110693  33.774   2.725   8.864
  581POPC   GL210694  33.698   2.730   8.864
  581POPC   C1A10695  33.848   2.736   8.564
  581POPC   D2A10696  33.796   2.741   8.264
  581POPC   C3A10697  33.844   2.745   7.964
  581POPC   C4A10698  33.806   2.781   7.664
  581POPC   C1B10699  33.553   2.631   8.564
  581POPC   C2B10700  33.555   2.696   8.264
  581POPC   C3B10701  33.547   2.651   7.964
  581POPC   C4B10702  33.549   2.666   7.664
  582POPC   NC310703  33.013   4.321   9.464
  582POPC   PO410704  33.032   4.314   9.164
  582POPC   GL110705  33.031   4.329   8.864
  582POPC   GL210706  32.896   4.362   8.864
  582POPC   C1A10707  33.069   4.279   8.564
  582POPC   D2A10708  33.059   4.290   8.264
  582POPC   C3A10709  32.993   4.333   7.964
  582POPC   C4A10710  33.000   4.328   7.664
  582POPC   C1B10711  32.834   4.484   8.564
  582POPC   C2B10712  32.868   4.494   8.264
  582POPC   C3B10713  32.850   4.524   7.964
  582POPC   C4B10714  32.859   4.445   7.664
  583POPC   NC310715  15.988  37.692   9.464
  583POPC   PO410716  15.984  37.641   9.164
  583POPC   GL110717  15.954  37.654   8.864
  583POPC   GL210718  15.803  37.712   8.864
  583POPC   C1A10719  15.927  37.693   8.564
  583POPC   D2A10720  15.955  37.669   8.264
  583POPC   C3A10721  15.934  37.651   7.964
  583POPC   C4A10722  15.906  37.701   7.664
  583POPC   C1B10723  15.730  37.686   8.564
  583POPC   C2B10724  15.733  37.642   8.264
  583POPC   C3B10725  15.750  37.727   7.964
  583POPC   C4B10726  15.719  37.676   7.664
  584POPC   NC310727  43.909   5.868   9.464
  584POPC   PO410728  43.882   5.873   9.164
  584POPC   GL110729  43.918   5.913   8.864
  584POPC   GL210730  43.800   5.831   8.864
  584POPC   C1A10731  43.852   5.830   8.564
  584POPC   D2A10732  43.890   5.898   8.264
  584POPC   C3A10733  43.874   5.903   7.964
  584POPC   C4A10734  43.859   5.885   7.664
  584POPC   C1B10735  43.606   5.806   8.564
  584POPC   C2B10736  43.599   5.824   8.264
  584POPC   C3B10737  43.618   5.897   7.964
  584POPC   C4B10738  43.612   5.862   7.664
  585POPC   NC310739  26.786  42.337   9.464
  585POPC   PO410740  26.804  42.337   9.164
  585POPC   GL110741  26.802  42.307   8.864
  585POPC   GL210742  26.815  42.182   8.864
  585POPC   C1A10743  26.842  42.287   8.564
  585POPC   D2A10744  26.815  42.285   8.264
  585POPC   C3A10745  26.820  42.316   7.964
  585POPC   C4A10746  26.853  42.321   7.664
  585POPC   C1B10747  26.904  42.127   8.564
  585POPC   C2B10748  26.874  42.127   8.264
  585POPC   C3B10749  26.883  42.110   7.964
  585POPC   C4B10750  26.899  42.084   7.664
  586POPC   NC310751  44.664  17.509   9.464
  586POPC   PO410752  44.643  17.460   9.164
  586POPC   GL110753  44.639  17.468   8.864
  586POPC   GL210754  44.778  17.582   8.864
  586POPC   C1A10755  44.709  17.544   8.564
  586POPC   D2A10756  44.680  17.537   8.264
  586POPC   C3A10757  44.699  17.548   7.964
  586POPC   C4A10758  44.625  17.498   7.664
  586POPC   C1B10759  44.852  17.568   8.564
  586POPC   C2B10760  44.849  17.614   8.264
  586POPC   C3B10761  44.855  17.570   7.964
  586POPC   C4B10762  44.879  17.592   7.664
  587POPC   NC310763  18.241  16.690   9.464
  587POPC   PO410764  18.313  16.765   9.164
  587POPC   GL110765  18.260  16.754   8.864
  587POPC   GL210766  18.344  16.812   8.864
  587POPC   C1A10767  18.275  16.755   8.564
  587POPC   D2A10768  18.274  16.738   8.264
  587POPC   C3A10769  18.259  16.712   7.964
  587POPC   C4A10770  18.298  16.687   7.664
  587POPC   C1B10771  18.309  16.952   8.564
  587POPC   C2B10772  18.367  16.961   8.264
  587POPC   C3B10773  18.337  16.964   7.964
  587POPC   C4B10774  18.327  16.984   7.664
  588POPC   NC310775  23.755   5.891   9.464
  588POPC   PO410776  23.738   5.877   9.164
  588POPC   GL110777  23.716   5.838   8.864
  588POPC   GL210778  23.687   6.018   8.864
  588POPC   C1A10779  23.712   5.832   8.564
  588POPC   D2A10780  23.678   5.863   8.264
  588POPC   C3A10781  23.745   5.848   7.964
  588POPC   C4A10782  23.669   5.876   7.664
  588POPC   C1B10783  23.707   6.077   8.564
  588POPC   C2B10784  23.644   6.079   8.264
  588POPC   C3B10785  23.675   6.069   7.964
  588POPC   C4B10786  23.634   6.158   7.664
  589POPC   NC310787   5.876  32.991   9.464
  589POPC   PO410788   5.914  33.044   9.164
  589POPC   GL110789   5.862  33.000   8.864
  589POPC   GL210790   5.902  33.079   8.864
  589POPC   C1A10791   5.875  33.050   8.564
  589POPC   D2A10792   5.863  33.011   8.264
  589POPC   C3A10793   5.877  32.976   7.964
  589POPC   C4A10794   5.871  33.021   7.664
  589POPC   C1B10795   6.007  33.200   8.564
  589POPC   C2B10796   5.983  33.169   8.264
  589POPC   C3B10797   6.035  33.203   7.964
  589POPC   C4B10798   6.020  33.243   7.664
  590POPC   NC310799  13.591  26.041   9.464
  590POPC   PO410800  13.584  26.089   9.164
  590POPC   GL110801  13.593  26.021   8.864
  590POPC   GL210802  13.716  26.035   8.864
  590POPC   C1A10803  13.586  26.041   8.564
  590POPC   D2A10804  13.631  26.066   8.264
  590POPC   C3A10805  13.644  26.068   7.964
  590POPC   C4A10806  13.678  26.001   7.664
  590POPC   C1B10807  13.829  26.043   8.564
  590POPC   C2B10808  13.885  26.013   8.264
  590POPC   C3B10809  13.924  25.991   7.964
  590POPC   C4B10810  13.887  25.968   7.664
  591POPC   NC310811   5.872  36.923   9.464
  591POPC   PO410812   5.882  36.896   9.164
  591POPC   GL110813   5.888  36.857   8.864
  591POPC   GL210814   5.742  36.900   8.864
  591POPC   C1A10815   5.847  36.874   8.564
  591POPC   D2A10816   5.877  36.879   8.264
  591POPC   C3A10817   5.851  36.898   7.964
  591POPC   C4A10818   5.881  36.936   7.664
  591POPC   C1B10819   5.591  36.862   8.564
  591POPC   C2B10820   5.587  36.959   8.264
  591POPC   C3B10821   5.652  36.931   7.964
  591POPC   C4B10822   5.653  36.915   7.664
  592POPC   NC310823   8.195   0.408   9.464
  592POPC   PO410824   8.207   0.429   9.164
  592POPC   GL110825   8.246   0.437   8.864
  592POPC   GL210826   8.062   0.406   8.864
  592POPC   C1A10827   8.224   0.431   8.564
  592POPC   D2A10828   8.202   0.432   8.264
  592POPC   C3A10829   8.156   0.409   7.964
  592POPC   C4A10830   8.228   0.414   7.664
  592POPC   C1B10831   7.952   0.287   8.564
  592POPC   C2B10832   8.011   0.328   8.264
  592POPC   C3B10833   8.016   0.313   7.964
  592POPC   C4B10834   8.027   0.261   7.664
  593POPC   NC310835  14.452  10.527   9.464
  593POPC   PO410836  14.405  10.518   9.164
  593POPC   GL110837  14.413  10.503   8.864
  593POPC   GL210838  14.463  10.638   8.864
  593POPC   C1A10839  14.382  10.509   8.564
  593POPC   D2A10840  14.439  10.505   8.264
  593POPC   C3A10841  14.367  10.529   7.964
  593POPC   C4A10842  14.367  10.523   7.664
  593POPC   C1B10843  14.552  10.697   8.564
  593POPC   C2B10844  14.496  10.747   8.264
  593POPC   C3B10845  14.566  10.778   7.964
  593POPC   C4B10846  14.482  10.741   7.664
  594POPC   NC310847   1.968   4.356   9.464
  594POPC   PO410848   1.990   4.348   9.164
  594POPC   GL110849   1.967   4.332   8.864
  594POPC   GL210850   1.980   4.404   8.864
  594POPC   C1A10851   2.013   4.300   8.564
  594POPC   D2A10852   2.025   4.272   8.264
  594POPC   C3A10853   1.974   4.348   7.964
  594POPC   C4A10854   1.957   4.307   7.664
  594POPC   C1B10855   1.913   4.548   8.564
  594POPC   C2B10856   1.907   4.589   8.264
  594POPC   C3B10857   1.969   4.512   7.964
  594POPC   C4B10858   1.909   4.585   7.664
  595POPC   NC310859  26.811  12.835   9.464
  595POPC   PO410860  26.846  12.898   9.164
  595POPC   GL110861  26.813  12.827   8.864
  595POPC   GL210862  26.920  12.754   8.864
  595POPC   C1A10863  26.847  12.832   8.564
  595POPC   D2A10864  26.828  12.852   8.264
  595POPC   C3A10865  26.807  12.852   7.964
  595POPC   C4A10866  26.794  12.890   7.664
  595POPC   C1B10867  26.978  12.731   8.564
  595POPC   C2B10868  27.031  12.687   8.264
  595POPC   C3B10869  27.054  12.705   7.964
  595POPC   C4B10870  27.034  12.666   7.664
  596POPC   NC310871  43.118  12.887   9.464
  596POPC   PO410872  43.138  12.864   9.164
  596POPC   GL110873  43.160  12.833   8.864
  596POPC   GL210874  43.191  12.784   8.864
  596POPC   C1A10875  43.113  12.835   8.564
  596POPC   D2A10876  43.097  12.901   8.264
  596POPC   C3A10877  43.158  12.875   7.964
  596POPC   C4A10878  43.129  12.814   7.664
  596POPC   C1B10879  43.314  12.658   8.564
  596POPC   C2B10880  43.253  12.695   8.264
  596POPC   C3B10881  43.289  12.637   7.964
  596POPC   C4B10882  43.237  12.711   7.664
  597POPC   NC310883   6.676  16.694   9.464
  597POPC   PO410884   6.635  16.720   9.164
  597POPC   GL110885   6.688  16.768   8.864
  597POPC   GL210886   6.727  16.817   8.864
  597POPC   C1A10887   6.606  16.742   8.564
  597POPC   D2A10888   6.687  16.759   8.264
  597POPC   C3A10889   6.638  16.727   7.964
  597POPC   C4A10890   6.690  16.742   7.664
  597POPC   C1B10891   6.771  16.937   8.564
  597POPC   C2B10892   6.768  16.960   8.264
  597POPC   C3B10893   6.771  16.920   7.964
  597POPC   C4B10894   6.823  16.881   7.664
  598POPC   NC310895   5.072  16.744   9.464
  598POPC   PO410896   5.114  16.743   9.164
  598POPC   GL110897   5.095  16.708   8.864
  598POPC   GL210898   5.018  16.656   8.864
  598POPC   C1A10899   5.130  16.777   8.564
  598POPC   D2A10900   5.067  16.700   8.264
  598POPC   C3A10901   5.075  16.759   7.964
  598POPC   C4A10902   5.123  16.714   7.664
  598POPC   C1B10903   4.884  16.585   8.564
  598POPC   C2B10904   4.906  16.612   8.264
  598POPC   C3B10905   4.857  16.525   7.964
  598POPC   C4B10906   4.938  16.566   7.664
  599POPC   NC310907   8.932  25.304   9.464
  599POPC   PO410908   9.019  25.269   9.164
  599POPC   GL110909   8.938  25.279   8.864
  599POPC   GL210910   8.938  25.137   8.864
  599POPC   C1A10911   8.966  25.224   8.564
  599POPC   D2A10912   9.022  25.256   8.264
  599POPC   C3A10913   8.926  25.236   7.964
  599POPC   C4A10914   8.956  25.229   7.664
  599POPC   C1B10915   8.855  25.051   8.564
  599POPC   C2B10916   8.864  25.044   8.264
  599POPC   C3B10917   8.867  25.100   7.964
  599POPC   C4B10918   8.826  25.049   7.664
  600POPC   NC310919  12.857  30.683   9.464
  600POPC   PO410920  12.857  30.660   9.164
  600POPC   GL110921  12.871  30.686   8.864
  600POPC   GL210922  12.902  30.559   8.864
  600POPC   C1A10923  12.817  30.726   8.564
  600POPC   D2A10924  12.857  30.653   8.264
  600POPC   C3A10925  12.878  30.719   7.964
  600POPC   C4A10926  12.879  30.746   7.664
  600POPC   C1B10927  13.021  30.515   8.564
  600POPC   C2B10928  12.992  30.532   8.264
  600POPC   C3B10929  13.050  30.522   7.964
  600POPC   C4B10930  13.030  30.555   7.664
  601POPC   NC310931  35.350  40.803   9.464
  601POPC   PO410932  35.341  40.786   9.164
  601POPC   GL110933  35.307  40.781   8.864
  601POPC   GL210934  35.209  40.754   8.864
  601POPC   C1A10935  35.361  40.741   8.564
  601POPC   D2A10936  35.305  40.772   8.264
  601POPC   C3A10937  35.394  40.740   7.964
  601POPC   C4A10938  35.305  40.763   7.664
  601POPC   C1B10939  35.145  40.748   8.564
  601POPC   C2B10940  35.111  40.782   8.264
  601POPC   C3B10941  35.140  40.750   7.964
  601POPC   C4B10942  35.064  40.744   7.664
  602POPC   NC310943  25.222   1.224   9.464
  602POPC   PO410944  25.283   1.214   9.164
  602POPC   GL110945  25.276   1.213   8.864
  602POPC   GL210946  25.193   1.115   8.864
  602POPC   C1A10947  25.308   1.230   8.564
  602POPC   D2A10948  25.254   1.171   8.264
  602POPC   C3A10949  25.221   1.176   7.964
  602POPC   C4A10950  25.298   1.237   7.664
  602POPC   C1B10951  24.993   1.132   8.564
  602POPC   C2B10952  25.030   1.141   8.264
  602POPC   C3B10953  25.071   1.112   7.964
  602POPC   C4B10954  25.009   1.098   7.664
  603POPC   NC310955   5.051  18.332   9.464
  603POPC   PO410956   5.085  18.287   9.164
  603POPC   GL110957   5.085  18.279   8.864
  603POPC   GL210958   5.201  18.224   8.864
  603POPC   C1A10959   5.087  18.270   8.564
  603POPC   D2A10960   5.121  18.299   8.264
  603POPC   C3A10961   5.109  18.306   7.964
  603POPC   C4A10962   5.057  18.323   7.664
  603POPC   C1B10963   5.288  18.096   8.564
  603POPC   C2B10964   5.232  18.096   8.264
  603POPC   C3B10965   5.235  18.099   7.964
  603POPC   C4B10966   5.263  18.102   7.664
  604POPC   NC310967  29.167  36.857   9.464
  604POPC   PO410968  29.154  36.884   9.164
  604POPC   GL110969  29.103  36.914   8.864
  604POPC   GL210970  29.032  36.873   8.864
  604POPC   C1A10971  29.157  36.868   8.564
  604POPC   D2A10972  29.182  36.855   8.264
  604POPC   C3A10973  29.166  36.917   7.964
  604POPC   C4A10974  29.183  36.917   7.664
  604POPC   C1B10975  28.901  36.825   8.564
  604POPC   C2B10976  28.888  36.856   8.264
  604POPC   C3B10977  28.938  36.887   7.964
  604POPC   C4B10978  28.910  36.865   7.664
  605POPC   NC310979  38.482   0.441   9.464
  605POPC   PO410980  38.445   0.483   9.164
  605POPC   GL110981  38.449   0.485   8.864
  605POPC   GL210982  38.365   0.514   8.864
  605POPC   C1A10983  38.432   0.431   8.564
  605POPC   D2A10984  38.482   0.425   8.264
  605POPC   C3A10985  38.488   0.405   7.964
  605POPC   C4A10986  38.408   0.471   7.664
  605POPC   C1B10987  38.233   0.501   8.564
  605POPC   C2B10988  38.256   0.530   8.264
  605POPC   C3B10989  38.260   0.529   7.964
  605POPC   C4B10990  38.227   0.500   7.664
  606POPC   NC310991   5.108   3.530   9.464
  606POPC   PO410992   5.047   3.497   9.164
  606POPC   GL110993   5.094   3.498   8.864
  606POPC   GL210994   5.001   3.466   8.864
  606POPC   C1A10995   5.089   3.535   8.564
  606POPC   D2A10996   5.141   3.513   8.264
  606POPC   C3A10997   5.057   3.540   7.964
  606POPC   C4A10998   5.099   3.546   7.664
  606POPC   C1B10999   4.855   3.522   8.564
  606POPC   C2B11000   4.872   3.493   8.264
  606POPC   C3B11001   4.876   3.448   7.964
  606POPC   C4B11002   4.807   3.489   7.664
  607POPC   NC311003   3.511  26.834   9.464
  607POPC   PO411004   3.527  26.804   9.164
  607POPC   GL111005   3.591  26.791   8.864
  607POPC   GL211006   3.702  26.715   8.864
  607POPC   C1A11007   3.549  26.789   8.564
  607POPC   D2A11008   3.511  26.816   8.264
  607POPC   C3A11009   3.500  26.852   7.964
  607POPC   C4A11010   3.506  26.803   7.664
  607POPC   C1B11011   3.786  26.728   8.564
  607POPC   C2B11012   3.729  26.699   8.264
  607POPC   C3B11013   3.724  26.727   7.964
  607POPC   C4B11014   3.739  26.705   7.664
  608POPC   NC311015  29.150  20.635   9.464
  608POPC   PO411016  29.188  20.606   9.164
  608POPC   GL111017  29.112  20.563   8.864
  608POPC   GL211018  29.020  20.661   8.864
  608POPC   C1A11019  29.169  20.583   8.564
  608POPC   D2A11020  29.108  20.590   8.264
  608POPC   C3A11021  29.128  20.572   7.964
  608POPC   C4A11022  29.153  20.649   7.664
  608POPC   C1B11023  28.908  20.665   8.564
  608POPC   C2B11024  28.951  20.719   8.264
  608POPC   C3B11025  28.910  20.659   7.964
  608POPC   C4B11026  28.940  20.688   7.664
  609POPC   NC311027  41.523  42.290   9.464
  609POPC   PO411028  41.550  42.336   9.164
  609POPC   GL111029  41.533  42.331   8.864
  609POPC   GL211030  41.492  42.264   8.864
  609POPC   C1A11031  41.589  42.355   8.564
  609POPC   D2A11032  41.561  42.292   8.264
  609POPC   C3A11033  41.519  42.366   7.964
  609POPC   C4A11034  41.568  42.369   7.664
  609POPC   C1B11035  41.521  42.072   8.564
  609POPC   C2B11036  41.525  42.132   8.264
  609POPC   C3B11037  41.530  42.061   7.964
  609POPC   C4B11038  41.459  42.073   7.664
  610POPC   NC311039  10.531  29.941   9.464
  610POPC   PO411040  10.542  29.911   9.164
  610POPC   GL111041  10.530  29.883   8.864
  610POPC   GL211042  10.576  29.851   8.864
  610POPC   C1A11043  10.483  29.884   8.564
  610POPC   D2A11044  10.489  29.955   8.264
  610POPC   C3A11045  10.517  29.956   7.964
  610POPC   C4A11046  10.547  29.939   7.664
  610POPC   C1B11047  10.686  29.747   8.564
  610POPC   C2B11048  10.680  29.660   8.264
  610POPC   C3B11049  10.648  29.704   7.964
  610POPC   C4B11050  10.607  29.729   7.664
  611POPC   NC311051  25.307  40.809   9.464
  611POPC   PO411052  25.223  40.748   9.164
  611POPC   GL111053  25.249  40.814   8.864
  611POPC   GL211054  25.115  40.809   8.864
  611POPC   C1A11055  25.274  40.746   8.564
  611POPC   D2A11056  25.281  40.819   8.264
  611POPC   C3A11057  25.253  40.804   7.964
  611POPC   C4A11058  25.228  40.825   7.664
  611POPC   C1B11059  25.014  40.944   8.564
  611POPC   C2B11060  25.037  40.910   8.264
  611POPC   C3B11061  25.012  40.852   7.964
  611POPC   C4B11062  25.085  40.924   7.664
  612POPC   NC311063  10.531  36.905   9.464
  612POPC   PO411064  10.541  36.926   9.164
  612POPC   GL111065  10.545  36.893   8.864
  612POPC   GL211066  10.635  36.905   8.864
  612POPC   C1A11067  10.517  36.907   8.564
  612POPC   D2A11068  10.533  36.869   8.264
  612POPC   C3A11069  10.522  36.877   7.964
  612POPC   C4A11070  10.534  36.857   7.664
  612POPC   C1B11071  10.781  36.898   8.564
  612POPC   C2B11072  10.759  36.903   8.264
  612POPC   C3B11073  10.749  36.892   7.964
  612POPC   C4B11074  10.770  36.873   7.664
  613POPC   NC311075  42.340  40.801   9.464
  613POPC   PO411076  42.316  40.818   9.164
  613POPC   GL111077  42.337  40.750   8.864
  613POPC   GL211078  42.271  40.634   8.864
  613POPC   C1A11079  42.298  40.753   8.564
  613POPC   D2A11080  42.315  40.810   8.264
  613POPC   C3A11081  42.381  40.797   7.964
  613POPC   C4A11082  42.375  40.766   7.664
  613POPC   C1B11083  42.205  40.558   8.564
  613POPC   C2B11084  42.218  40.571   8.264
  613POPC   C3B11085  42.178  40.590   7.964
  613POPC   C4B11086  42.178  40.526   7.664
  614POPC   NC311087  42.362  44.712   9.464
  614POPC   PO411088  42.349  44.709   9.164
  614POPC   GL111089  42.299  44.623   8.864
  614POPC   GL211090  42.323  44.538   8.864
  614POPC   C1A11091  42.326  44.630   8.564
  614POPC   D2A11092  42.323  44.672   8.264
  614POPC   C3A11093  42.327  44.701   7.964
  614POPC   C4A11094  42.326  44.664   7.664
  614POPC   C1B11095  42.357  44.388   8.564
  614POPC   C2B11096  42.371  44.397   8.264
  614POPC   C3B11097  42.399  44.392   7.964
  614POPC   C4B11098  42.369  44.433   7.664
  615POPC   NC311099  29.963  19.041   9.464
  615POPC   PO411100  29.947  19.068   9.164
  615POPC   GL111101  29.928  19.090   8.864
  615POPC   GL211102  29.778  19.061   8.864
  615POPC   C1A11103  29.963  19.107   8.564
  615POPC   D2A11104  29.918  19.076   8.264
  615POPC   C3A11105  29.910  19.046   7.964
  615POPC   C4A11106  29.941  19.043   7.664
  615POPC   C1B11107  29.701  19.032   8.564
  615POPC   C2B11108  29.715  19.021   8.264
  615POPC   C3B11109  29.623  19.096   7.964
  615POPC   C4B11110  29.650  19.063   7.664
  616POPC   NC311111  10.527  21.349   9.464
  616POPC   PO411112  10.563  21.340   9.164
  616POPC   GL111113  10.513  21.430   8.864
  616POPC   GL211114  10.427  21.350   8.864
  616POPC   C1A11115  10.531  21.407   8.564
  616POPC   D2A11116  10.557  21.414   8.264
  616POPC   C3A11117  10.546  21.359   7.964
  616POPC   C4A11118  10.526  21.341   7.664
  616POPC   C1B11119  10.307  21.331   8.564
  616POPC   C2B11120  10.315  21.267   8.264
  616POPC   C3B11121  10.284  21.347   7.964
  616POPC   C4B11122  10.334  21.349   7.664
  617POPC   NC311123  34.544  17.471   9.464
  617POPC   PO411124  34.620  17.495   9.164
  617POPC   GL111125  34.593  17.506   8.864
  617POPC   GL211126  34.561  17.378   8.864
  617POPC   C1A11127  34.529  17.554   8.564
  617POPC   D2A11128  34.579  17.551   8.264
  617POPC   C3A11129  34.549  17.521   7.964
  617POPC   C4A11130  34.595  17.509   7.664
  617POPC   C1B11131  34.504  17.281   8.564
  617POPC   C2B11132  34.493  17.297   8.264
  617POPC   C3B11133  34.466  17.310   7.964
  617POPC   C4B11134  34.460  17.263   7.664
  618POPC   NC311135  22.200  27.597   9.464
  618POPC   PO411136  22.160  27.568   9.164
  618POPC   GL111137  22.156  27.624   8.864
  618POPC   GL211138  22.277  27.514   8.864
  618POPC   C1A11139  22.127  27.552   8.564
  618POPC   D2A11140  22.203  27.570   8.264
  618POPC   C3A11141  22.171  27.589   7.964
  618POPC   C4A11142  22.174  27.560   7.664
  618POPC   C1B11143  22.381  27.512   8.564
  618POPC   C2B11144  22.444  27.500   8.264
  618POPC   C3B11145  22.346  27.499   7.964
  618POPC   C4B11146  22.371  27.531   7.664
  619POPC   NC311147   3.557   5.901   9.464
  619POPC   PO411148   3.577   5.873   9.164
  619POPC   GL111149   3.576   5.910   8.864
  619POPC   GL211150   3.484   5.952   8.864
  619POPC   C1A11151   3.530   5.913   8.564
  619POPC   D2A11152   3.534   5.864   8.264
  619POPC   C3A11153   3.545   5.898   7.964
  619POPC   C4A11154   3.563   5.846   7.664
  619POPC   C1B11155   3.307   6.050   8.564
  619POPC   C2B11156   3.334   5.991   8.264
  619POPC   C3B11157   3.370   5.998   7.964
  619POPC   C4B11158   3.360   6.073   7.664
  620POPC   NC311159   8.942   1.219   9.464
  620POPC   PO411160   8.979   1.183   9.164
  620POPC   GL111161   9.002   1.222   8.864
  620POPC   GL211162   8.936   1.367   8.864
  620POPC   C1A11163   9.018   1.183   8.564
  620POPC   D2A11164   9.011   1.239   8.264
  620POPC   C3A11165   8.959   1.178   7.964
  620POPC   C4A11166   8.968   1.187   7.664
  620POPC   C1B11167   8.825   1.438   8.564
  620POPC   C2B11168   8.857   1.432   8.264
  620POPC   C3B11169   8.828   1.467   7.964
  620POPC   C4B11170   8.884   1.421   7.664
  621POPC   NC311171  37.683  28.374   9.464
  621POPC   PO411172  37.675  28.328   9.164
  621POPC   GL111173  37.727  28.404   8.864
  621POPC   GL211174  37.785  28.310   8.864
  621POPC   C1A11175  37.631  28.336   8.564
  621POPC   D2A11176  37.693  28.386   8.264
  621POPC   C3A11177  37.638  28.354   7.964
  621POPC   C4A11178  37.659  28.378   7.664
  621POPC   C1B11179  37.791  28.159   8.564
  621POPC   C2B11180  37.799  28.191   8.264
  621POPC   C3B11181  37.820  28.206   7.964
  621POPC   C4B11182  37.802  28.173   7.664
  622POPC   NC311183   5.143   2.791   9.464
  622POPC   PO411184   5.088   2.774   9.164
  622POPC   GL111185   5.110   2.792   8.864
  622POPC   GL211186   4.955   2.677   8.864
  622POPC   C1A11187   5.082   2.724   8.564
  622POPC   D2A11188   5.077   2.732   8.264
  622POPC   C3A11189   5.073   2.748   7.964
  622POPC   C4A11190   5.118   2.736   7.664
  622POPC   C1B11191   4.856   2.641   8.564
  622POPC   C2B11192   4.825   2.674   8.264
  622POPC   C3B11193   4.889   2.686   7.964
  622POPC   C4B11194   4.846   2.662   7.664
  623POPC   NC311195  33.783  32.288   9.464
  623POPC   PO411196  33.788  32.240   9.164
  623POPC   GL111197  33.794  32.228   8.864
  623POPC   GL211198  33.749  32.359   8.864
  623POPC   C1A11199  33.800  32.229   8.564
  623POPC   D2A11200  33.810  32.219   8.264
  623POPC   C3A11201  33.840  32.223   7.964
  623POPC   C4A11202  33.768  32.255   7.664
  623POPC   C1B11203  33.713  32.481   8.564
  623POPC   C2B11204  33.663  32.489   8.264
  623POPC   C3B11205  33.669  32.472   7.964
  623POPC   C4B11206  33.655  32.464   7.664
  624POPC   NC311207  32.987  36.126   9.464
  624POPC   PO411208  33.052  36.121   9.164
  624POPC   GL111209  33.056  36.134   8.864
  624POPC   GL211210  32.920  36.230   8.864
  624POPC   C1A11211  33.032  36.170   8.564
  624POPC   D2A11212  33.050  36.107   8.264
  624POPC   C3A11213  33.025  36.168   7.964
  624POPC   C4A11214  33.014  36.149   7.664
  624POPC   C1B11215  32.914  36.344   8.564
  624POPC   C2B11216  32.831  36.354   8.264
  624POPC   C3B11217  32.875  36.291   7.964
  624POPC   C4B11218  32.914  36.313   7.664
  625POPC   NC311219   5.114  19.067   9.464
  625POPC   PO411220   5.044  19.087   9.164
  625POPC   GL111221   5.132  19.096   8.864
  625POPC   GL211222   5.194  18.977   8.864
  625POPC   C1A11223   5.126  19.064   8.564
  625POPC   D2A11224   5.119  19.017   8.264
  625POPC   C3A11225   5.076  19.080   7.964
  625POPC   C4A11226   5.084  19.078   7.664
  625POPC   C1B11227   5.318  18.851   8.564
  625POPC   C2B11228   5.323  18.863   8.264
  625POPC   C3B11229   5.302  18.922   7.964
  625POPC   C4B11230   5.281  18.915   7.664
  626POPC   NC311231  22.160   1.191   9.464
  626POPC   PO411232  22.165   1.227   9.164
  626POPC   GL111233  22.132   1.236   8.864
  626POPC   GL211234  22.126   1.094   8.864
  626POPC   C1A11235  22.191   1.188   8.564
  626POPC   D2A11236  22.162   1.193   8.264
  626POPC   C3A11237  22.164   1.258   7.964
  626POPC   C4A11238  22.115   1.239   7.664
  626POPC   C1B11239  22.171   0.917   8.564
  626POPC   C2B11240  22.152   0.982   8.264
  626POPC   C3B11241  22.107   0.945   7.964
  626POPC   C4B11242  22.180   0.994   7.664
  627POPC   NC311243   7.392  26.046   9.464
  627POPC   PO411244   7.457  25.995   9.164
  627POPC   GL111245   7.385  26.078   8.864
  627POPC   GL211246   7.436  25.910   8.864
  627POPC   C1A11247   7.405  26.037   8.564
  627POPC   D2A11248   7.400  26.027   8.264
  627POPC   C3A11249   7.467  26.089   7.964
  627POPC   C4A11250   7.420  26.077   7.664
  627POPC   C1B11251   7.379  25.827   8.564
  627POPC   C2B11252   7.341  25.791   8.264
  627POPC   C3B11253   7.381  25.809   7.964
  627POPC   C4B11254   7.403  25.825   7.664
  628POPC   NC311255  35.326  44.620   9.464
  628POPC   PO411256  35.398  44.654   9.164
  628POPC   GL111257  35.387  44.630   8.864
  628POPC   GL211258  35.350  44.791   8.864
  628POPC   C1A11259  35.356  44.666   8.564
  628POPC   D2A11260  35.350  44.653   8.264
  628POPC   C3A11261  35.353  44.687   7.964
  628POPC   C4A11262  35.355  44.619   7.664
  628POPC   C1B11263  35.331  44.947   8.564
  628POPC   C2B11264  35.301  44.886   8.264
  628POPC   C3B11265  35.329  44.940   7.964
  628POPC   C4B11266  35.350  44.937   7.664
  629POPC   NC311267  36.876  29.899   9.464
  629POPC   PO411268  36.891  29.932   9.164
  629POPC   GL111269  36.902  29.883   8.864
  629POPC   GL211270  37.031  29.855   8.864
  629POPC   C1A11271  36.874  29.966   8.564
  629POPC   D2A11272  36.929  29.887   8.264
  629POPC   C3A11273  36.938  29.929   7.964
  629POPC   C4A11274  36.873  29.878   7.664
  629POPC   C1B11275  37.110  29.785   8.564
  629POPC   C2B11276  37.080  29.786   8.264
  629POPC   C3B11277  37.150  29.828   7.964
  629POPC   C4B11278  37.159  29.821   7.664
  630POPC   NC311279  12.036   1.941   9.464
  630POPC   PO411280  12.098   1.975   9.164
  630POPC   GL111281  12.049   2.021   8.864
  630POPC   GL211282  11.975   2.024   8.864
  630POPC   C1A11283  12.062   2.008   8.564
  630POPC   D2A11284  12.066   1.985   8.264
  630POPC   C3A11285  12.084   2.006   7.964
  630POPC   C4A11286  12.082   2.013   7.664
  630POPC   C1B11287  11.897   2.167   8.564
  630POPC   C2B11288  11.913   2.161   8.264
  630POPC   C3B11289  11.884   2.126   7.964
  630POPC   C4B11290  11.921   2.125   7.664
  631POPC   NC311291  29.930  21.417   9.464
  631POPC   PO411292  29.950  21.428   9.164
  631POPC   GL111293  29.932  21.390   8.864
  631POPC   GL211294  30.024  21.375   8.864
  631POPC   C1A11295  29.968  21.402   8.564
  631POPC   D2A11296  29.876  21.371   8.264
  631POPC   C3A11297  29.954  21.349   7.964
  631POPC   C4A11298  29.897  21.430   7.664
  631POPC   C1B11299  30.157  21.298   8.564
  631POPC   C2B11300  30.207  21.271   8.264
  631POPC   C3B11301  30.154  21.279   7.964
  631POPC   C4B11302  30.195  21.335   7.664
  632POPC   NC311303  10.490  39.280   9.464
  632POPC   PO411304  10.508  39.277   9.164
  632POPC   GL111305  10.565  39.253   8.864
  632POPC   GL211306  10.695  39.171   8.864
  632POPC   C1A11307  10.550  39.195   8.564
  632POPC   D2A11308  10.542  39.247   8.264
  632POPC   C3A11309  10.554  39.230   7.964
  632POPC   C4A11310  10.500  39.231   7.664
  632POPC   C1B11311  10.798  39.207   8.564
  632POPC   C2B11312  10.727  39.201   8.264
  632POPC   C3B11313  10.771  39.140   7.964
  632POPC   C4B11314  10.737  39.200   7.664
  633POPC   NC311315  20.567   4.319   9.464
  633POPC   PO411316  20.599   4.312   9.164
  633POPC   GL111317  20.625   4.294   8.864
  633POPC   GL211318  20.774   4.309   8.864
  633POPC   C1A11319  20.639   4.325   8.564
  633POPC   D2A11320  20.564   4.269   8.264
  633POPC   C3A11321  20.645   4.310   7.964
  633POPC   C4A11322  20.622   4.365   7.664
  633POPC   C1B11323  20.888   4.353   8.564
  633POPC   C2B11324  20.839   4.397   8.264
  633POPC   C3B11325  20.809   4.407   7.964
  633POPC   C4B11326  20.890   4.342   7.664
  634POPC   NC311327  36.934  22.926   9.464
  634POPC   PO411328  36.902  22.960   9.164
  634POPC   GL111329  36.927  22.981   8.864
  634POPC   GL211330  36.821  23.046   8.864
  634POPC   C1A11331  36.951  22.921   8.564
  634POPC   D2A11332  36.903  22.933   8.264
  634POPC   C3A11333  36.876  22.958   7.964
  634POPC   C4A11334  36.867  22.918   7.664
  634POPC   C1B11335  36.747  23.136   8.564
  634POPC   C2B11336  36.835  23.152   8.264
  634POPC   C3B11337  36.772  23.120   7.964
  634POPC   C4B11338  36.770  23.124   7.664
  635POPC   NC311339  11.283   8.200   9.464
  635POPC   PO411340  11.337   8.204   9.164
  635POPC   GL111341  11.260   8.220   8.864
  635POPC   GL211342  11.194   8.136   8.864
  635POPC   C1A11343  11.255   8.234   8.564
  635POPC   D2A11344  11.328   8.176   8.264
  635POPC   C3A11345  11.267   8.233   7.964
  635POPC   C4A11346  11.299   8.218   7.664
  635POPC   C1B11347  11.102   7.995   8.564
  635POPC   C2B11348  11.156   8.057   8.264
  635POPC   C3B11349  11.071   8.062   7.964
  635POPC   C4B11350  11.128   7.975   7.664
  636POPC   NC311351  22.906  35.386   9.464
  636POPC   PO411352  22.946  35.393   9.164
  636POPC   GL111353  22.973  35.302   8.864
  636POPC   GL211354  23.018  35.497   8.864
  636POPC   C1A11355  22.894  35.384   8.564
  636POPC   D2A11356  22.933  35.381   8.264
  636POPC   C3A11357  22.947  35.388   7.964
  636POPC   C4A11358  22.898  35.370   7.664
  636POPC   C1B11359  22.992  35.616   8.564
  636POPC   C2B11360  23.001  35.592   8.264
  636POPC   C3B11361  23.074  35.583   7.964
  636POPC   C4B11362  22.991  35.558   7.664
  637POPC   NC311363  12.867  12.069   9.464
  637POPC   PO411364  12.874  12.110   9.164
  637POPC   GL111365  12.802  12.090   8.864
  637POPC   GL211366  12.913  11.943   8.864
  637POPC   C1A11367  12.832  12.066   8.564
  637POPC   D2A11368  12.833  12.033   8.264
  637POPC   C3A11369  12.867  12.039   7.964
  637POPC   C4A11370  12.867  12.039   7.664
  637POPC   C1B11371  12.952  11.885   8.564
  637POPC   C2B11372  12.934  11.815   8.264
  637POPC   C3B11373  12.992  11.816   7.964
  637POPC   C4B11374  12.967  11.834   7.664
  638POPC   NC311375  23.689  39.229   9.464
  638POPC   PO411376  23.759  39.266   9.164
  638POPC   GL111377  23.757  39.262   8.864
  638POPC   GL211378  23.542  39.209   8.864
  638POPC   C1A11379  23.713  39.187   8.564
  638POPC   D2A11380  23.750  39.264   8.264
  638POPC   C3A11381  23.729  39.230   7.964
  638POPC   C4A11382  23.683  39.250   7.664
  638POPC   C1B11383  23.508  39.262   8.564
  638POPC   C2B11384  23.486  39.234   8.264
  638POPC   C3B11385  23.431  39.269   7.964
  638POPC   C4B11386  23.442  39.320   7.664
  639POPC   NC311387  22.961  43.152   9.464
  639POPC   PO411388  22.908  43.107   9.164
  639POPC   GL111389  22.971  43.086   8.864
  639POPC   GL211390  23.014  43.091   8.864
  639POPC   C1A11391  22.917  43.124   8.564
  639POPC   D2A11392  22.946  43.127   8.264
  639POPC   C3A11393  22.919  43.117   7.964
  639POPC   C4A11394  22.961  43.137   7.664
  639POPC   C1B11395  23.169  43.058   8.564
  639POPC   C2B11396  23.187  43.035   8.264
  639POPC   C3B11397  23.129  43.021   7.964
  639POPC   C4B11398  23.122  43.033   7.664
  640POPC   NC311399  10.492  33.059   9.464
  640POPC   PO411400  10.500  32.997   9.164
  640POPC   GL111401  10.481  33.033   8.864
  640POPC   GL211402  10.679  33.075   8.864
  640POPC   C1A11403  10.559  33.065   8.564
  640POPC   D2A11404  10.542  33.033   8.264
  640POPC   C3A11405  10.546  32.998   7.964
  640POPC   C4A11406  10.538  33.027   7.664
  640POPC   C1B11407  10.817  33.077   8.564
  640POPC   C2B11408  10.770  33.020   8.264
  640POPC   C3B11409  10.808  33.043   7.964
  640POPC   C4B11410  10.807  33.059   7.664
  641POPC   NC311411   2.800  17.552   9.464
  641POPC   PO411412   2.793  17.547   9.164
  641POPC   GL111413   2.789  17.512   8.864
  641POPC   GL211414   2.692  17.587   8.864
  641POPC   C1A11415   2.724  17.505   8.564
  641POPC   D2A11416   2.814  17.467   8.264
  641POPC   C3A11417   2.811  17.524   7.964
  641POPC   C4A11418   2.735  17.481   7.664
  641POPC   C1B11419   2.622  17.662   8.564
  641POPC   C2B11420   2.630  17.729   8.264
  641POPC   C3B11421   2.595  17.738   7.964
  641POPC   C4B11422   2.616  17.684   7.664
  642POPC   NC311423  22.962   5.891   9.464
  642POPC   PO411424  22.911   5.832   9.164
  642POPC   GL111425  22.941   5.886   8.864
  642POPC   GL211426  23.085   5.896   8.864
  642POPC   C1A11427  22.950   5.865   8.564
  642POPC   D2A11428  22.934   5.895   8.264
  642POPC   C3A11429  22.918   5.821   7.964
  642POPC   C4A11430  22.959   5.845   7.664
  642POPC   C1B11431  23.152   5.967   8.564
  642POPC   C2B11432  23.180   6.002   8.264
  642POPC   C3B11433  23.133   5.926   7.964
  642POPC   C4B11434  23.147   5.932   7.664
  643POPC   NC311435  37.678   2.807   9.464
  643POPC   PO411436  37.670   2.791   9.164
  643POPC   GL111437  37.659   2.765   8.864
  643POPC   GL211438  37.592   2.732   8.864
  643POPC   C1A11439  37.716   2.771   8.564
  643POPC   D2A11440  37.639   2.803   8.264
  643POPC   C3A11441  37.677   2.783   7.964
  643POPC   C4A11442  37.708   2.760   7.664
  643POPC   C1B11443  37.478   2.582   8.564
  643POPC   C2B11444  37.428   2.589   8.264
  643POPC   C3B11445  37.511   2.595   7.964
  643POPC   C4B11446  37.491   2.589   7.664
  644POPC   NC311447  39.248  14.430   9.464
  644POPC   PO411448  39.207  14.400   9.164
  644POPC   GL111449  39.277  14.406   8.864
  644POPC   GL211450  39.137  14.376   8.864
  644POPC   C1A11451  39.236  14.449   8.564
  644POPC   D2A11452  39.234  14.415   8.264
  644POPC   C3A11453  39.256  14.417   7.964
  644POPC   C4A11454  39.262  14.355   7.664
  644POPC   C1B11455  38.987  14.272   8.564
  644POPC   C2B11456  38.983  14.237   8.264
  644POPC   C3B11457  39.028  14.292   7.964
  644POPC   C4B11458  39.031  14.256   7.664
  645POPC   NC311459  41.556  16.713   9.464
  645POPC   PO411460  41.559  16.771   9.164
  645POPC   GL111461  41.523  16.772   8.864
  645POPC   GL211462  41.487  16.683   8.864
  645POPC   C1A11463  41.563  16.683   8.564
  645POPC   D2A11464  41.567  16.754   8.264
  645POPC   C3A11465  41.537  16.688   7.964
  645POPC   C4A11466  41.510  16.710   7.664
  645POPC   C1B11467  41.320  16.590   8.564
  645POPC   C2B11468  41.362  16.645   8.264
  645POPC   C3B11469  41.355  16.630   7.964
  645POPC   C4B11470  41.325  16.621   7.664
  646POPC   NC311471  12.051  35.363   9.464
  646POPC   PO411472  12.035  35.352   9.164
  646POPC   GL111473  12.087  35.326   8.864
  646POPC   GL211474  12.043  35.424   8.864
  646POPC   C1A11475  12.034  35.324   8.564
  646POPC   D2A11476  12.114  35.327   8.264
  646POPC   C3A11477  12.065  35.379   7.964
  646POPC   C4A11478  12.085  35.331   7.664
  646POPC   C1B11479  11.959  35.549   8.564
  646POPC   C2B11480  11.920  35.565   8.264
  646POPC   C3B11481  11.901  35.552   7.964
  646POPC   C4B11482  11.881  35.526   7.664
  647POPC   NC311483  22.196  34.572   9.464
  647POPC   PO411484  22.158  34.580   9.164
  647POPC   GL111485  22.158  34.597   8.864
  647POPC   GL211486  22.070  34.503   8.864
  647POPC   C1A11487  22.174  34.589   8.564
  647POPC   D2A11488  22.188  34.533   8.264
  647POPC   C3A11489  22.189  34.567   7.964
  647POPC   C4A11490  22.189  34.558   7.664
  647POPC   C1B11491  22.088  34.355   8.564
  647POPC   C2B11492  22.086  34.391   8.264
  647POPC   C3B11493  22.044  34.346   7.964
  647POPC   C4B11494  22.038  34.353   7.664
  648POPC   NC311495   4.289   5.092   9.464
  648POPC   PO411496   4.312   5.103   9.164
  648POPC   GL111497   4.344   5.089   8.864
  648POPC   GL211498   4.227   4.978   8.864
  648POPC   C1A11499   4.267   5.137   8.564
  648POPC   D2A11500   4.343   5.069   8.264
  648POPC   C3A11501   4.296   5.057   7.964
  648POPC   C4A11502   4.285   5.106   7.664
  648POPC   C1B11503   4.164   4.928   8.564
  648POPC   C2B11504   4.198   4.839   8.264
  648POPC   C3B11505   4.138   4.838   7.964
  648POPC   C4B11506   4.213   4.853   7.664
  649POPC   NC311507  33.055  42.288   9.464
  649POPC   PO411508  32.989  42.363   9.164
  649POPC   GL111509  33.058  42.322   8.864
  649POPC   GL211510  32.958  42.482   8.864
  649POPC   C1A11511  32.993  42.322   8.564
  649POPC   D2A11512  32.978  42.357   8.264
  649POPC   C3A11513  32.997  42.295   7.964
  649POPC   C4A11514  33.065  42.384   7.664
  649POPC   C1B11515  32.935  42.591   8.564
  649POPC   C2B11516  32.924  42.592   8.264
  649POPC   C3B11517  32.969  42.555   7.964
  649POPC   C4B11518  32.946  42.565   7.664
  650POPC   NC311519  38.447   5.868   9.464
  650POPC   PO411520  38.448   5.888   9.164
  650POPC   GL111521  38.468   5.909   8.864
  650POPC   GL211522  38.378   5.799   8.864
  650POPC   C1A11523  38.499   5.907   8.564
  650POPC   D2A11524  38.430   5.881   8.264
  650POPC   C3A11525  38.432   5.862   7.964
  650POPC   C4A11526  38.417   5.839   7.664
  650POPC   C1B11527  38.223   5.722   8.564
  650POPC   C2B11528  38.218   5.792   8.264
  650POPC   C3B11529  38.235   5.795   7.964
  650POPC   C4B11530  38.273   5.743   7.664
  651POPC   NC311531  28.370  43.880   9.464
  651POPC   PO411532  28.361  43.884   9.164
  651POPC   GL111533  28.402  43.928   8.864
  651POPC   GL211534  28.361  44.042   8.864
  651POPC   C1A11535  28.385  43.878   8.564
  651POPC   D2A11536  28.415  43.864   8.264
  651POPC   C3A11537  28.362  43.905   7.964
  651POPC   C4A11538  28.382  43.880   7.664
  651POPC   C1B11539  28.389  44.140   8.564
  651POPC   C2B11540  28.358  44.167   8.264
  651POPC   C3B11541  28.368  44.122   7.964
  651POPC   C4B11542  28.379  44.147   7.664
  652POPC   NC311543  20.588  17.548   9.464
  652POPC   PO411544  20.634  17.530   9.164
  652POPC   GL111545  20.656  17.522   8.864
  652POPC   GL211546  20.530  17.470   8.864
  652POPC   C1A11547  20.605  17.491   8.564
  652POPC   D2A11548  20.652  17.507   8.264
  652POPC   C3A11549  20.562  17.467   7.964
  652POPC   C4A11550  20.614  17.466   7.664
  652POPC   C1B11551  20.356  17.525   8.564
  652POPC   C2B11552  20.377  17.461   8.264
  652POPC   C3B11553  20.312  17.542   7.964
  652POPC   C4B11554  20.394  17.494   7.664
  653POPC   NC311555  21.376   4.335   9.464
  653POPC   PO411556  21.348   4.310   9.164
  653POPC   GL111557  21.345   4.288   8.864
  653POPC   GL211558  21.255   4.273   8.864
  653POPC   C1A11559  21.353   4.271   8.564
  653POPC   D2A11560  21.351   4.329   8.264
  653POPC   C3A11561  21.363   4.351   7.964
  653POPC   C4A11562  21.365   4.273   7.664
  653POPC   C1B11563  21.122   4.245   8.564
  653POPC   C2B11564  21.134   4.258   8.264
  653POPC   C3B11565  21.105   4.248   7.964
  653POPC   C4B11566  21.163   4.242   7.664
  654POPC   NC311567  33.753  18.299   9.464
  654POPC   PO411568  33.776  18.260   9.164
  654POPC   GL111569  33.795  18.267   8.864
  654POPC   GL211570  33.819  18.114   8.864
  654POPC   C1A11571  33.796  18.291   8.564
  654POPC   D2A11572  33.793  18.295   8.264
  654POPC   C3A11573  33.825  18.327   7.964
  654POPC   C4A11574  33.819  18.302   7.664
  654POPC   C1B11575  33.703  18.056   8.564
  654POPC   C2B11576  33.735  18.023   8.264
  654POPC   C3B11577  33.747  18.029   7.964
  654POPC   C4B11578  33.778  18.071   7.664
  655POPC   NC311579  15.964   7.390   9.464
  655POPC   PO411580  15.995   7.446   9.164
  655POPC   GL111581  15.940   7.402   8.864
  655POPC   GL211582  16.032   7.385   8.864
  655POPC   C1A11583  16.001   7.447   8.564
  655POPC   D2A11584  15.940   7.462   8.264
  655POPC   C3A11585  15.915   7.468   7.964
  655POPC   C4A11586  15.983   7.382   7.664
  655POPC   C1B11587  16.186   7.284   8.564
  655POPC   C2B11588  16.173   7.279   8.264
  655POPC   C3B11589  16.141   7.317   7.964
  655POPC   C4B11590  16.151   7.358   7.664
  656POPC   NC311591   7.377  39.985   9.464
  656POPC   PO411592   7.456  39.982   9.164
  656POPC   GL111593   7.415  40.012   8.864
  656POPC   GL211594   7.578  40.076   8.864
  656POPC   C1A11595   7.382  40.037   8.564
  656POPC   D2A11596   7.389  40.014   8.264
  656POPC   C3A11597   7.448  40.044   7.964
  656POPC   C4A11598   7.412  40.002   7.664
  656POPC   C1B11599   7.636  40.139   8.564
  656POPC   C2B11600   7.629  40.151   8.264
  656POPC   C3B11601   7.678  40.085   7.964
  656POPC   C4B11602   7.656  40.167   7.664
  657POPC   NC311603  21.435   9.014   9.464
  657POPC   PO411604  21.398   8.928   9.164
  657POPC   GL111605  21.348   8.958   8.864
  657POPC   GL211606  21.305   8.847   8.864
  657POPC   C1A11607  21.355   8.940   8.564
  657POPC   D2A11608  21.346   9.007   8.264
  657POPC   C3A11609  21.401   8.959   7.964
  657POPC   C4A11610  21.380   9.017   7.664
  657POPC   C1B11611  21.230   8.840   8.564
  657POPC   C2B11612  21.178   8.791   8.264
  657POPC   C3B11613  21.148   8.821   7.964
  657POPC   C4B11614  21.191   8.831   7.664
  658POPC   NC311615   0.468   6.627   9.464
  658POPC   PO411616   0.457   6.603   9.164
  658POPC   GL111617   0.482   6.671   8.864
  658POPC   GL211618   0.452   6.559   8.864
  658POPC   C1A11619   0.393   6.624   8.564
  658POPC   D2A11620   0.406   6.641   8.264
  658POPC   C3A11621   0.476   6.663   7.964
  658POPC   C4A11622   0.399   6.603   7.664
  658POPC   C1B11623   0.352   6.434   8.564
  658POPC   C2B11624   0.420   6.432   8.264
  658POPC   C3B11625   0.343   6.451   7.964
  658POPC   C4B11626   0.406   6.371   7.664
  659POPC   NC311627  19.844  29.956   9.464
  659POPC   PO411628  19.836  29.924   9.164
  659POPC   GL111629  19.868  29.877   8.864
  659POPC   GL211630  19.766  29.775   8.864
  659POPC   C1A11631  19.820  29.896   8.564
  659POPC   D2A11632  19.856  29.871   8.264
  659POPC   C3A11633  19.803  29.925   7.964
  659POPC   C4A11634  19.792  29.915   7.664
  659POPC   C1B11635  19.769  29.712   8.564
  659POPC   C2B11636  19.767  29.654   8.264
  659POPC   C3B11637  19.722  29.688   7.964
  659POPC   C4B11638  19.703  29.662   7.664
  660POPC   NC311639   1.259  15.142   9.464
  660POPC   PO411640   1.234  15.226   9.164
  660POPC   GL111641   1.254  15.191   8.864
  660POPC   GL211642   1.080  15.091   8.864
  660POPC   C1A11643   1.257  15.203   8.564
  660POPC   D2A11644   1.262  15.211   8.264
  660POPC   C3A11645   1.259  15.184   7.964
  660POPC   C4A11646   1.176  15.196   7.664
  660POPC   C1B11647   1.007  15.059   8.564
  660POPC   C2B11648   1.044  15.043   8.264
  660POPC   C3B11649   1.011  15.051   7.964
  660POPC   C4B11650   1.023  15.025   7.664
  661POPC   NC311651  21.354  38.412   9.464
  661POPC   PO411652  21.428  38.501   9.164
  661POPC   GL111653  21.414  38.496   8.864
  661POPC   GL211654  21.303  38.573   8.864
  661POPC   C1A11655  21.348  38.459   8.564
  661POPC   D2A11656  21.362  38.458   8.264
  661POPC   C3A11657  21.388  38.474   7.964
  661POPC   C4A11658  21.392  38.430   7.664
  661POPC   C1B11659  21.220  38.583   8.564
  661POPC   C2B11660  21.232  38.671   8.264
  661POPC   C3B11661  21.170  38.674   7.964
  661POPC   C4B11662  21.240  38.634   7.664
  662POPC   NC311663  12.044  26.780   9.464
  662POPC   PO411664  12.073  26.813   9.164
  662POPC   GL111665  12.050  26.779   8.864
  662POPC   GL211666  12.056  26.901   8.864
  662POPC   C1A11667  12.062  26.838   8.564
  662POPC   D2A11668  12.099  26.770   8.264
  662POPC   C3A11669  12.099  26.796   7.964
  662POPC   C4A11670  12.096  26.810   7.664
  662POPC   C1B11671  12.011  27.092   8.564
  662POPC   C2B11672  11.983  27.050   8.264
  662POPC   C3B11673  11.999  27.065   7.964
  662POPC   C4B11674  12.003  27.056   7.664
  663POPC   NC311675  30.664  16.716   9.464
  663POPC   PO411676  30.671  16.712   9.164
  663POPC   GL111677  30.711  16.726   8.864
  663POPC   GL211678  30.853  16.713   8.864
  663POPC   C1A11679  30.746  16.687   8.564
  663POPC   D2A11680  30.702  16.734   8.264
  663POPC   C3A11681  30.668  16.736   7.964
  663POPC   C4A11682  30.648  16.742   7.664
  663POPC   C1B11683  30.995  16.715   8.564
  663POPC   C2B11684  30.935  16.733   8.264
  663POPC   C3B11685  30.914  16.667   7.964
  663POPC   C4B11686  30.943  16.722   7.664
  664POPC   NC311687  41.587  12.805   9.464
  664POPC   PO411688  41.553  12.839   9.164
  664POPC   GL111689  41.529  12.860   8.864
  664POPC   GL211690  41.409  12.865   8.864
  664POPC   C1A11691  41.541  12.813   8.564
  664POPC   D2A11692  41.540  12.816   8.264
  664POPC   C3A11693  41.563  12.859   7.964
  664POPC   C4A11694  41.558  12.878   7.664
  664POPC   C1B11695  41.296  13.000   8.564
  664POPC   C2B11696  41.328  12.994   8.264
  664POPC   C3B11697  41.354  13.000   7.964
  664POPC   C4B11698  41.328  12.936   7.664
  665POPC   NC311699  37.685  29.933   9.464
  665POPC   PO411700  37.713  29.964   9.164
  665POPC   GL111701  37.698  29.943   8.864
  665POPC   GL211702  37.646  29.994   8.864
  665POPC   C1A11703  37.708  29.914   8.564
  665POPC   D2A11704  37.668  29.966   8.264
  665POPC   C3A11705  37.647  29.898   7.964
  665POPC   C4A11706  37.723  29.954   7.664
  665POPC   C1B11707  37.557  30.106   8.564
  665POPC   C2B11708  37.528  30.145   8.264
  665POPC   C3B11709  37.564  30.067   7.964
  665POPC   C4B11710  37.512  30.071   7.664
  666POPC   NC311711  22.980  11.329   9.464
  666POPC   PO411712  22.938  11.338   9.164
  666POPC   GL111713  22.927  11.285   8.864
  666POPC   GL211714  22.961  11.412   8.864
  666POPC   C1A11715  22.970  11.350   8.564
  666POPC   D2A11716  22.967  11.339   8.264
  666POPC   C3A11717  22.921  11.318   7.964
  666POPC   C4A11718  22.894  11.279   7.664
  666POPC   C1B11719  23.018  11.492   8.564
  666POPC   C2B11720  22.998  11.570   8.264
  666POPC   C3B11721  22.981  11.503   7.964
  666POPC   C4B11722  23.000  11.520   7.664
  667POPC   NC311723  25.283  15.193   9.464
  667POPC   PO411724  25.230  15.151   9.164
  667POPC   GL111725  25.231  15.223   8.864
  667POPC   GL211726  25.299  15.103   8.864
  667POPC   C1A11727  25.237  15.142   8.564
  667POPC   D2A11728  25.224  15.180   8.264
  667POPC   C3A11729  25.306  15.138   7.964
  667POPC   C4A11730  25.242  15.203   7.664
  667POPC   C1B11731  25.324  14.987   8.564
  667POPC   C2B11732  25.355  14.945   8.264
  667POPC   C3B11733  25.338  14.961   7.964
  667POPC   C4B11734  25.363  14.939   7.664
  668POPC   NC311735  14.449  23.690   9.464
  668POPC   PO411736  14.410  23.693   9.164
  668POPC   GL111737  14.419  23.716   8.864
  668POPC   GL211738  14.351  23.634   8.864
  668POPC   C1A11739  14.355  23.757   8.564
  668POPC   D2A11740  14.358  23.687   8.264
  668POPC   C3A11741  14.422  23.763   7.964
  668POPC   C4A11742  14.447  23.699   7.664
  668POPC   C1B11743  14.335  23.480   8.564
  668POPC   C2B11744  14.342  23.483   8.264
  668POPC   C3B11745  14.326  23.428   7.964
  668POPC   C4B11746  14.368  23.459   7.664
  669POPC   NC311747  26.012  27.612   9.464
  669POPC   PO411748  25.995  27.610   9.164
  669POPC   GL111749  26.033  27.571   8.864
  669POPC   GL211750  26.103  27.713   8.864
  669POPC   C1A11751  26.054  27.620   8.564
  669POPC   D2A11752  26.069  27.574   8.264
  669POPC   C3A11753  26.034  27.590   7.964
  669POPC   C4A11754  26.062  27.642   7.664
  669POPC   C1B11755  26.198  27.757   8.564
  669POPC   C2B11756  26.217  27.761   8.264
  669POPC   C3B11757  26.165  27.841   7.964
  669POPC   C4B11758  26.140  27.842   7.664
  670POPC   NC311759  23.755  14.426   9.464
  670POPC   PO411760  23.714  14.436   9.164
  670POPC   GL111761  23.712  14.429   8.864
  670POPC   GL211762  23.683  14.471   8.864
  670POPC   C1A11763  23.695  14.394   8.564
  670POPC   D2A11764  23.731  14.419   8.264
  670POPC   C3A11765  23.754  14.393   7.964
  670POPC   C4A11766  23.741  14.404   7.664
  670POPC   C1B11767  23.573  14.631   8.564
  670POPC   C2B11768  23.582  14.608   8.264
  670POPC   C3B11769  23.638  14.612   7.964
  670POPC   C4B11770  23.567  14.595   7.664
  671POPC   NC311771  44.656  31.500   9.464
  671POPC   PO411772  44.656  31.443   9.164
  671POPC   GL111773  44.690  31.448   8.864
  671POPC   GL211774  44.567  31.371   8.864
  671POPC   C1A11775  44.677  31.492   8.564
  671POPC   D2A11776  44.693  31.502   8.264
  671POPC   C3A11777  44.703  31.460   7.964
  671POPC   C4A11778  44.705  31.489   7.664
  671POPC   C1B11779  44.544  31.303   8.564
  671POPC   C2B11780  44.574  31.261   8.264
  671POPC   C3B11781  44.519  31.222   7.964
  671POPC   C4B11782  44.548  31.265   7.664
  672POPC   NC311783  35.380  15.922   9.464
  672POPC   PO411784  35.303  15.944   9.164
  672POPC   GL111785  35.396  15.969   8.864
  672POPC   GL211786  35.398  16.010   8.864
  672POPC   C1A11787  35.321  15.942   8.564
  672POPC   D2A11788  35.365  15.930   8.264
  672POPC   C3A11789  35.345  16.000   7.964
  672POPC   C4A11790  35.373  15.950   7.664
  672POPC   C1B11791  35.519  16.102   8.564
  672POPC   C2B11792  35.478  16.176   8.264
  672POPC   C3B11793  35.545  16.177   7.964
  672POPC   C4B11794  35.521  16.180   7.664
  673POPC   NC311795  23.736   5.083   9.464
  673POPC   PO411796  23.685   5.117   9.164
  673POPC   GL111797  23.673   5.115   8.864
  673POPC   GL211798  23.745   5.009   8.864
  673POPC   C1A11799  23.721   5.083   8.564
  673POPC   D2A11800  23.761   5.068   8.264
  673POPC   C3A11801  23.683   5.104   7.964
  673POPC   C4A11802  23.690   5.083   7.664
  673POPC   C1B11803  23.682   4.829   8.564
  673POPC   C2B11804  23.751   4.819   8.264
  673POPC   C3B11805  23.700   4.798   7.964
  673POPC   C4B11806  23.678   4.862   7.664
  674POPC   NC311807  29.960  42.325   9.464
  674POPC   PO411808  29.917  42.381   9.164
  674POPC   GL111809  29.952  42.376   8.864
  674POPC   GL211810  29.909  42.465   8.864
  674POPC   C1A11811  29.923  42.307   8.564
  674POPC   D2A11812  29.903  42.322   8.264
  674POPC   C3A11813  29.921  42.340   7.964
  674POPC   C4A11814  29.928  42.363   7.664
  674POPC   C1B11815  29.796  42.531   8.564
  674POPC   C2B11816  29.820  42.548   8.264
  674POPC   C3B11817  29.774  42.528   7.964
  674POPC   C4B11818  29.812  42.563   7.664
  675POPC   NC311819   5.140  24.508   9.464
  675POPC   PO411820   5.118  24.482   9.164
  675POPC   GL111821   5.060  24.516   8.864
  675POPC   GL211822   4.967  24.541   8.864
  675POPC   C1A11823   5.127  24.514   8.564
  675POPC   D2A11824   5.055  24.484   8.264
  675POPC   C3A11825   5.045  24.503   7.964
  675POPC   C4A11826   5.058  24.532   7.664
  675POPC   C1B11827   4.920  24.672   8.564
  675POPC   C2B11828   4.922  24.715   8.264
  675POPC   C3B11829   4.938  24.705   7.964
  675POPC   C4B11830   4.925  24.663   7.664
  676POPC   NC311831  39.958   7.381   9.464
  676POPC   PO411832  39.965   7.412   9.164
  676POPC   GL111833  40.046   7.388   8.864
  676POPC   GL211834  40.079   7.388   8.864
  676POPC   C1A11835  39.997   7.438   8.564
  676POPC   D2A11836  39.966   7.470   8.264
  676POPC   C3A11837  39.971   7.446   7.964
  676POPC   C4A11838  40.034   7.432   7.664
  676POPC   C1B11839  40.264   7.382   8.564
  676POPC   C2B11840  40.293   7.313   8.264
  676POPC   C3B11841  40.230   7.319   7.964
  676POPC   C4B11842  40.227   7.305   7.664
  677POPC   NC311843  35.359  28.385   9.464
  677POPC   PO411844  35.399  28.319   9.164
  677POPC   GL111845  35.399  28.371   8.864
  677POPC   GL211846  35.298  28.274   8.864
  677POPC   C1A11847  35.397  28.373   8.564
  677POPC   D2A11848  35.308  28.337   8.264
  677POPC   C3A11849  35.308  28.357   7.964
  677POPC   C4A11850  35.326  28.384   7.664
  677POPC   C1B11851  35.201  28.227   8.564
  677POPC   C2B11852  35.155  28.210   8.264
  677POPC   C3B11853  35.198  28.197   7.964
  677POPC   C4B11854  35.182  28.179   7.664
  678POPC   NC311855   5.116  26.838   9.464
  678POPC   PO411856   5.073  26.861   9.164
  678POPC   GL111857   5.073  26.839   8.864
  678POPC   GL211858   5.132  26.958   8.864
  678POPC   C1A11859   5.110  26.786   8.564
  678POPC   D2A11860   5.124  26.777   8.264
  678POPC   C3A11861   5.138  26.835   7.964
  678POPC   C4A11862   5.075  26.812   7.664
  678POPC   C1B11863   5.215  26.996   8.564
  678POPC   C2B11864   5.177  27.019   8.264
  678POPC   C3B11865   5.255  26.987   7.964
  678POPC   C4B11866   5.177  27.029   7.664
  679POPC   NC311867  29.936  15.963   9.464
  679POPC   PO411868  29.949  15.979   9.164
  679POPC   GL111869  29.905  16.000   8.864
  679POPC   GL211870  30.088  15.904   8.864
  679POPC   C1A11871  29.955  15.922   8.564
  679POPC   D2A11872  29.903  15.980   8.264
  679POPC   C3A11873  29.910  15.996   7.964
  679POPC   C4A11874  29.969  15.970   7.664
  679POPC   C1B11875  30.148  15.868   8.564
  679POPC   C2B11876  30.152  15.939   8.264
  679POPC   C3B11877  30.211  15.953   7.964
  679POPC   C4B11878  30.192  15.889   7.664
  680POPC   NC311879  43.896  42.313   9.464
  680POPC   PO411880  43.877  42.320   9.164
  680POPC   GL111881  43.861  42.305   8.864
  680POPC   GL211882  43.808  42.412   8.864
  680POPC   C1A11883  43.932  42.358   8.564
  680POPC   D2A11884  43.880  42.346   8.264
  680POPC   C3A11885  43.929  42.322   7.964
  680POPC   C4A11886  43.887  42.355   7.664
  680POPC   C1B11887  43.796  42.619   8.564
  680POPC   C2B11888  43.786  42.540   8.264
  680POPC   C3B11889  43.843  42.532   7.964
  680POPC   C4B11890  43.753  42.605   7.664
  681POPC   NC311891  17.511  43.066   9.464
  681POPC   PO411892  17.516  43.145   9.164
  681POPC   GL111893  17.515  43.117   8.864
  681POPC   GL211894  17.451  43.235   8.864
  681POPC   C1A11895  17.477  43.096   8.564
  681POPC   D2A11896  17.491  43.152   8.264
  681POPC   C3A11897  17.545  43.072   7.964
  681POPC   C4A11898  17.535  43.143   7.664
  681POPC   C1B11899  17.441  43.285   8.564
  681POPC   C2B11900  17.422  43.301   8.264
  681POPC   C3B11901  17.359  43.376   7.964
  681POPC   C4B11902  17.403  43.348   7.664
  682POPC   NC311903   5.862  12.901   9.464
  682POPC   PO411904   5.867  12.866   9.164
  682POPC   GL111905   5.893  12.893   8.864
  682POPC   GL211906   5.962  12.791   8.864
  682POPC   C1A11907   5.890  12.833   8.564
  682POPC   D2A11908   5.884  12.856   8.264
  682POPC   C3A11909   5.886  12.856   7.964
  682POPC   C4A11910   5.869  12.871   7.664
  682POPC   C1B11911   6.035  12.655   8.564
  682POPC   C2B11912   6.015  12.664   8.264
  682POPC   C3B11913   6.039  12.704   7.964
  682POPC   C4B11914   6.084  12.711   7.664
  683POPC   NC311915  28.356  15.187   9.464
  683POPC   PO411916  28.342  15.151   9.164
  683POPC   GL111917  28.348  15.209   8.864
  683POPC   GL211918  28.539  15.176   8.864
  683POPC   C1A11919  28.339  15.197   8.564
  683POPC   D2A11920  28.389  15.201   8.264
  683POPC   C3A11921  28.331  15.154   7.964
  683POPC   C4A11922  28.388  15.206   7.664
  683POPC   C1B11923  28.636  15.216   8.564
  683POPC   C2B11924  28.595  15.176   8.264
  683POPC   C3B11925  28.616  15.270   7.964
  683POPC   C4B11926  28.652  15.223   7.664
  684POPC   NC311927  34.595  31.504   9.464
  684POPC   PO411928  34.529  31.464   9.164
  684POPC   GL111929  34.538  31.453   8.864
  684POPC   GL211930  34.676  31.522   8.864
  684POPC   C1A11931  34.552  31.499   8.564
  684POPC   D2A11932  34.556  31.423   8.264
  684POPC   C3A11933  34.532  31.501   7.964
  684POPC   C4A11934  34.589  31.494   7.664
  684POPC   C1B11935  34.856  31.554   8.564
  684POPC   C2B11936  34.822  31.549   8.264
  684POPC   C3B11937  34.827  31.525   7.964
  684POPC   C4B11938  34.839  31.547   7.664
  685POPC   NC311939  36.170  15.923   9.464
  685POPC   PO411940  36.111  15.915   9.164
  685POPC   GL111941  36.162  15.927   8.864
  685POPC   GL211942  36.217  15.860   8.864
  685POPC   C1A11943  36.116  15.935   8.564
  685POPC   D2A11944  36.128  15.938   8.264
  685POPC   C3A11945  36.124  15.915   7.964
  685POPC   C4A11946  36.098  16.004   7.664
  685POPC   C1B11947  36.305  15.818   8.564
  685POPC   C2B11948  36.352  15.814   8.264
  685POPC   C3B11949  36.282  15.787   7.964
  685POPC   C4B11950  36.324  15.774   7.664
  686POPC   NC311951  12.803  29.935   9.464
  686POPC   PO411952  12.860  29.908   9.164
  686POPC   GL111953  12.810  29.890   8.864
  686POPC   GL211954  12.765  29.865   8.864
  686POPC   C1A11955  12.853  29.915   8.564
  686POPC   D2A11956  12.812  29.951   8.264
  686POPC   C3A11957  12.864  29.969   7.964
  686POPC   C4A11958  12.818  29.893   7.664
  686POPC   C1B11959  12.678  29.751   8.564
  686POPC   C2B11960  12.648  29.732   8.264
  686POPC   C3B11961  12.612  29.816   7.964
  686POPC   C4B11962  12.697  29.769   7.664
  687POPC   NC311963   0.409  43.127   9.464
  687POPC   PO411964   0.432  43.097   9.164
  687POPC   GL111965   0.443  43.159   8.864
  687POPC   GL211966   0.359  43.212   8.864
  687POPC   C1A11967   0.415  43.100   8.564
  687POPC   D2A11968   0.422  43.094   8.264
  687POPC   C3A11969   0.441  43.118   7.964
  687POPC   C4A11970   0.463  43.158   7.664
  687POPC   C1B11971   0.349  43.342   8.564
  687POPC   C2B11972   0.300  43.358   8.264
  687POPC   C3B11973   0.345  43.321   7.964
  687POPC   C4B11974   0.301  43.326   7.664
  688POPC   NC311975  15.913  42.384   9.464
  688POPC   PO411976  15.933  42.369   9.164
  688POPC   GL111977  15.983  42.325   8.864
  688POPC   GL211978  16.060  42.188   8.864
  688POPC   C1A11979  15.974  42.312   8.564
  688POPC   D2A11980  15.956  42.303   8.264
  688POPC   C3A11981  15.943  42.366   7.964
  688POPC   C4A11982  15.960  42.293   7.664
  688POPC   C1B11983  16.119  42.130   8.564
  688POPC   C2B11984  16.111  42.145   8.264
  688POPC   C3B11985  16.128  42.152   7.964
  688POPC   C4B11986  16.135  42.125   7.664
  689POPC   NC311987   7.388  25.222   9.464
  689POPC   PO411988   7.435  25.271   9.164
  689POPC   GL111989   7.437  25.287   8.864
  689POPC   GL211990   7.326  25.297   8.864
  689POPC   C1A11991   7.388  25.284   8.564
  689POPC   D2A11992   7.468  25.292   8.264
  689POPC   C3A11993   7.397  25.260   7.964
  689POPC   C4A11994   7.454  25.298   7.664
  689POPC   C1B11995   7.194  25.360   8.564
  689POPC   C2B11996   7.167  25.368   8.264
  689POPC   C3B11997   7.236  25.440   7.964
  689POPC   C4B11998   7.254  25.433   7.664
  690POPC   NC311999   3.511  27.603   9.464
  690POPC   PO412000   3.526  27.601   9.164
  690POPC   GL112001   3.552  27.618   8.864
  690POPC   GL212002   3.406  27.635   8.864
  690POPC   C1A12003   3.533  27.572   8.564
  690POPC   D2A12004   3.537  27.641   8.264
  690POPC   C3A12005   3.531  27.594   7.964
  690POPC   C4A12006   3.578  27.611   7.664
  690POPC   C1B12007   3.305  27.625   8.564
  690POPC   C2B12008   3.318  27.596   8.264
  690POPC   C3B12009   3.266  27.615   7.964
  690POPC   C4B12010   3.280  27.660   7.664
  691POPC   NC312011  32.217   9.706   9.464
  691POPC   PO412012  32.208   9.715   9.164
  691POPC   GL112013  32.205   9.737   8.864
  691POPC   GL212014  32.240   9.620   8.864
  691POPC   C1A12015  32.240   9.738   8.564
  691POPC   D2A12016  32.211   9.775   8.264
  691POPC   C3A12017  32.209   9.715   7.964
  691POPC   C4A12018  32.204   9.780   7.664
  691POPC   C1B12019  32.248   9.486   8.564
  691POPC   C2B12020  32.328   9.476   8.264
  691POPC   C3B12021  32.286   9.454   7.964
  691POPC   C4B12022  32.308   9.547   7.664
  692POPC   NC312023  13.654  29.134   9.464
  692POPC   PO412024  13.665  29.180   9.164
  692POPC   GL112025  13.677  29.159   8.864
  692POPC   GL212026  13.616  29.007   8.864
  692POPC   C1A12027  13.647  29.096   8.564
  692POPC   D2A12028  13.615  29.103   8.264
  692POPC   C3A12029  13.653  29.185   7.964
  692POPC   C4A12030  13.666  29.113   7.664
  692POPC   C1B12031  13.600  28.860   8.564
  692POPC   C2B12032  13.633  28.896   8.264
  692POPC   C3B12033  13.667  28.914   7.964
  692POPC   C4B12034  13.625  28.918   7.664
  693POPC   NC312035  33.819  26.823   9.464
  693POPC   PO412036  33.811  26.769   9.164
  693POPC   GL112037  33.835  26.782   8.864
  693POPC   GL212038  33.938  26.759   8.864
  693POPC   C1A12039  33.799  26.816   8.564
  693POPC   D2A12040  33.763  26.775   8.264
  693POPC   C3A12041  33.821  26.848   7.964
  693POPC   C4A12042  33.759  26.782   7.664
  693POPC   C1B12043  34.000  26.737   8.564
  693POPC   C2B12044  34.006  26.752   8.264
  693POPC   C3B12045  34.024  26.693   7.964
  693POPC   C4B12046  34.010  26.733   7.664
  694POPC   NC312047  37.635  31.517   9.464
  694POPC   PO412048  37.669  31.424   9.164
  694POPC   GL112049  37.636  31.497   8.864
  694POPC   GL212050  37.807  31.398   8.864
  694POPC   C1A12051  37.724  31.468   8.564
  694POPC   D2A12052  37.645  31.503   8.264
  694POPC   C3A12053  37.721  31.513   7.964
  694POPC   C4A12054  37.701  31.488   7.664
  694POPC   C1B12055  37.940  31.393   8.564
  694POPC   C2B12056  37.895  31.380   8.264
  694POPC   C3B12057  37.916  31.450   7.964
  694POPC   C4B12058  37.877  31.395   7.664
  695POPC   NC312059   8.241  22.975   9.464
  695POPC   PO412060   8.240  22.900   9.164
  695POPC   GL112061   8.166  22.920   8.864
  695POPC   GL212062   8.085  22.868   8.864
  695POPC   C1A12063   8.185  22.967   8.564
  695POPC   D2A12064   8.190  22.920   8.264
  695POPC   C3A12065   8.234  22.939   7.964
  695POPC   C4A12066   8.226  22.917   7.664
  695POPC   C1B12067   8.091  22.734   8.564
  695POPC   C2B12068   8.044  22.692   8.264
  695POPC   C3B12069   8.071  22.741   7.964
  695POPC   C4B12070   8.101  22.768   7.664
  696POPC   NC312071  39.228  41.539   9.464
  696POPC   PO412072  39.186  41.584   9.164
  696POPC   GL112073  39.203  41.558   8.864
  696POPC   GL212074  39.238  41.424   8.864
  696POPC   C1A12075  39.196  41.512   8.564
  696POPC   D2A12076  39.190  41.607   8.264
  696POPC   C3A12077  39.217  41.537   7.964
  696POPC   C4A12078  39.194  41.509   7.664
  696POPC   C1B12079  39.201  41.273   8.564
  696POPC   C2B12080  39.235  41.272   8.264
  696POPC   C3B12081  39.250  41.306   7.964
  696POPC   C4B12082  39.238  41.337   7.664
  697POPC   NC312083   8.176   7.428   9.464
  697POPC   PO412084   8.151   7.461   9.164
  697POPC   GL112085   8.212   7.416   8.864
  697POPC   GL212086   8.288   7.457   8.864
  697POPC   C1A12087   8.206   7.459   8.564
  697POPC   D2A12088   8.177   7.437   8.264
  697POPC   C3A12089   8.228   7.413   7.964
  697POPC   C4A12090   8.186   7.398   7.664
  697POPC   C1B12091   8.472   7.442   8.564
  697POPC   C2B12092   8.414   7.451   8.264
  697POPC   C3B12093   8.434   7.399   7.964
  697POPC   C4B12094   8.490   7.371   7.664
  698POPC   NC312095  39.994   1.952   9.464
  698POPC   PO412096  39.958   2.040   9.164
  698POPC   GL112097  39.967   1.981   8.864
  698POPC   GL212098  40.113   1.967   8.864
  698POPC   C1A12099  39.989   1.974   8.564
  698POPC   D2A12100  39.986   2.010   8.264
  698POPC   C3A12101  39.976   2.027   7.964
  698POPC   C4A12102  39.998   1.977   7.664
  698POPC   C1B12103  40.286   2.003   8.564
  698POPC   C2B12104  40.286   2.035   8.264
  698POPC   C3B12105  40.304   2.013   7.964
  698POPC   C4B12106  40.207   2.075   7.664
  699POPC   NC312107  43.064  40.803   9.464
  699POPC   PO412108  43.101  40.775   9.164
  699POPC   GL112109  43.095  40.735   8.864
  699POPC   GL212110  42.977  40.762   8.864
  699POPC   C1A12111  43.158  40.798   8.564
  699POPC   D2A12112  43.097  40.812   8.264
  699POPC   C3A12113  43.127  40.734   7.964
  699POPC   C4A12114  43.113  40.802   7.664
  699POPC   C1B12115  42.869  40.656   8.564
  699POPC   C2B12116  42.888  40.632   8.264
  699POPC   C3B12117  42.864  40.621   7.964
  699POPC   C4B12118  42.918  40.627   7.664
  700POPC   NC312119  43.882  33.823   9.464
  700POPC   PO412120  43.836  33.808   9.164
  700POPC   GL112121  43.909  33.799   8.864
  700POPC   GL212122  43.722  33.786   8.864
  700POPC   C1A12123  43.930  33.840   8.564
  700POPC   D2A12124  43.910  33.785   8.264
  700POPC   C3A12125  43.904  33.833   7.964
  700POPC   C4A12126  43.884  33.787   7.664
  700POPC   C1B12127  43.682  33.708   8.564
  700POPC   C2B12128  43.685  33.712   8.264
  700POPC   C3B12129  43.617  33.720   7.964
  700POPC   C4B12130  43.613  33.659   7.664
  701POPC   NC312131   6.681  20.577   9.464
  701POPC   PO412132   6.621  20.630   9.164
  701POPC   GL112133   6.666  20.613   8.864
  701POPC   GL212134   6.603  20.511   8.864
  701POPC   C1A12135   6.614  20.632   8.564
  701POPC   D2A12136   6.657  20.583   8.264
  701POPC   C3A12137   6.631  20.634   7.964
  701POPC   C4A12138   6.609  20.636   7.664
  701POPC   C1B12139   6.623  20.361   8.564
  701POPC   C2B12140   6.616  20.316   8.264
  701POPC   C3B12141   6.641  20.311   7.964
  701POPC   C4B12142   6.607  20.356   7.664
  702POPC   NC312143  36.144   9.787   9.464
  702POPC   PO412144  36.143   9.720   9.164
  702POPC   GL112145  36.079   9.727   8.864
  702POPC   GL212146  35.976   9.706   8.864
  702POPC   C1A12147  36.166   9.757   8.564
  702POPC   D2A12148  36.170   9.717   8.264
  702POPC   C3A12149  36.141   9.783   7.964
  702POPC   C4A12150  36.138   9.725   7.664
  702POPC   C1B12151  35.936   9.677   8.564
  702POPC   C2B12152  35.924   9.631   8.264
  702POPC   C3B12153  35.922   9.660   7.964
  702POPC   C4B12154  35.940   9.624   7.664
  703POPC   NC312155   9.739  20.659   9.464
  703POPC   PO412156   9.718  20.579   9.164
  703POPC   GL112157   9.773  20.570   8.864
  703POPC   GL212158   9.745  20.747   8.864
  703POPC   C1A12159   9.722  20.588   8.564
  703POPC   D2A12160   9.756  20.653   8.264
  703POPC   C3A12161   9.790  20.570   7.964
  703POPC   C4A12162   9.774  20.573   7.664
  703POPC   C1B12163   9.665  20.851   8.564
  703POPC   C2B12164   9.704  20.808   8.264
  703POPC   C3B12165   9.676  20.886   7.964
  703POPC   C4B12166   9.651  20.875   7.664
  704POPC   NC312167  43.102   1.979   9.464
  704POPC   PO412168  43.085   2.028   9.164
  704POPC   GL112169  43.061   1.997   8.864
  704POPC   GL212170  43.176   2.065   8.864
  704POPC   C1A12171  43.125   1.966   8.564
  704POPC   D2A12172  43.063   2.038   8.264
  704POPC   C3A12173  43.154   1.965   7.964
  704POPC   C4A12174  43.081   2.019   7.664
  704POPC   C1B12175  43.343   2.169   8.564
  704POPC   C2B12176  43.345   2.117   8.264
  704POPC   C3B12177  43.269   2.191   7.964
  704POPC   C4B12178  43.306   2.193   7.664
  705POPC   NC312179  13.633  33.794   9.464
  705POPC   PO412180  13.655  33.788   9.164
  705POPC   GL112181  13.585  33.790   8.864
  705POPC   GL212182  13.671  33.876   8.864
  705POPC   C1A12183  13.611  33.850   8.564
  705POPC   D2A12184  13.643  33.814   8.264
  705POPC   C3A12185  13.595  33.765   7.964
  705POPC   C4A12186  13.596  33.775   7.664
  705POPC   C1B12187  13.651  34.015   8.564
  705POPC   C2B12188  13.698  34.092   8.264
  705POPC   C3B12189  13.609  34.076   7.964
  705POPC   C4B12190  13.634  34.053   7.664
  706POPC   NC312191  29.876  26.815   9.464
  706POPC   PO412192  29.890  26.776   9.164
  706POPC   GL112193  29.930  26.847   8.864
  706POPC   GL212194  29.840  26.847   8.864
  706POPC   C1A12195  29.943  26.822   8.564
  706POPC   D2A12196  29.940  26.809   8.264
  706POPC   C3A12197  29.952  26.843   7.964
  706POPC   C4A12198  29.899  26.805   7.664
  706POPC   C1B12199  29.744  26.941   8.564
  706POPC   C2B12200  29.676  26.998   8.264
  706POPC   C3B12201  29.681  26.971   7.964
  706POPC   C4B12202  29.761  26.944   7.664
  707POPC   NC312203  25.233  44.685   9.464
  707POPC   PO412204  25.235  44.645   9.164
  707POPC   GL112205  25.290  44.680   8.864
  707POPC   GL212206  25.361  44.738   8.864
  707POPC   C1A12207  25.301  44.624   8.564
  707POPC   D2A12208  25.292  44.710   8.264
  707POPC   C3A12209  25.236  44.653   7.964
  707POPC   C4A12210  25.240  44.683   7.664
  707POPC   C1B12211  25.450  44.891   8.564
  707POPC   C2B12212  25.377  44.825   8.264
  707POPC   C3B12213  25.445  44.863   7.964
  707POPC   C4B12214  25.395  44.840   7.664
  708POPC   NC312215  43.878   8.215   9.464
  708POPC   PO412216  43.929   8.173   9.164
  708POPC   GL112217  43.924   8.183   8.864
  708POPC   GL212218  43.800   8.265   8.864
  708POPC   C1A12219  43.912   8.203   8.564
  708POPC   D2A12220  43.871   8.245   8.264
  708POPC   C3A12221  43.916   8.203   7.964
  708POPC   C4A12222  43.920   8.236   7.664
  708POPC   C1B12223  43.615   8.330   8.564
  708POPC   C2B12224  43.631   8.284   8.264
  708POPC   C3B12225  43.663   8.246   7.964
  708POPC   C4B12226  43.687   8.332   7.664
  709POPC   NC312227  40.016   8.154   9.464
  709POPC   PO412228  40.010   8.179   9.164
  709POPC   GL112229  40.021   8.175   8.864
  709POPC   GL212230  39.882   8.196   8.864
  709POPC   C1A12231  39.980   8.218   8.564
  709POPC   D2A12232  40.048   8.223   8.264
  709POPC   C3A12233  40.023   8.161   7.964
  709POPC   C4A12234  40.015   8.246   7.664
  709POPC   C1B12235  39.794   8.223   8.564
  709POPC   C2B12236  39.714   8.219   8.264
  709POPC   C3B12237  39.757   8.184   7.964
  709POPC   C4B12238  39.799   8.255   7.664
  710POPC   NC312239   7.387  21.391   9.464
  710POPC   PO412240   7.423  21.361   9.164
  710POPC   GL112241   7.417  21.399   8.864
  710POPC   GL212242   7.443  21.537   8.864
  710POPC   C1A12243   7.466  21.407   8.564
  710POPC   D2A12244   7.441  21.433   8.264
  710POPC   C3A12245   7.450  21.381   7.964
  710POPC   C4A12246   7.384  21.370   7.664
  710POPC   C1B12247   7.397  21.619   8.564
  710POPC   C2B12248   7.372  21.676   8.264
  710POPC   C3B12249   7.351  21.613   7.964
  710POPC   C4B12250   7.398  21.603   7.664
  711POPC   NC312251  42.358  16.688   9.464
  711POPC   PO412252  42.310  16.688   9.164
  711POPC   GL112253  42.313  16.753   8.864
  711POPC   GL212254  42.260  16.838   8.864
  711POPC   C1A12255  42.375  16.758   8.564
  711POPC   D2A12256  42.373  16.736   8.264
  711POPC   C3A12257  42.313  16.749   7.964
  711POPC   C4A12258  42.287  16.709   7.664
  711POPC   C1B12259  42.119  16.871   8.564
  711POPC   C2B12260  42.115  16.879   8.264
  711POPC   C3B12261  42.141  16.870   7.964
  711POPC   C4B12262  42.098  16.835   7.664
  712POPC   NC312263  19.787  22.113   9.464
  712POPC   PO412264  19.793  22.122   9.164
  712POPC   GL112265  19.857  22.165   8.864
  712POPC   GL212266  19.828  22.242   8.864
  712POPC   C1A12267  19.804  22.117   8.564
  712POPC   D2A12268  19.875  22.200   8.264
  712POPC   C3A12269  19.861  22.123   7.964
  712POPC   C4A12270  19.796  22.117   7.664
  712POPC   C1B12271  19.783  22.354   8.564
  712POPC   C2B12272  19.738  22.401   8.264
  712POPC   C3B12273  19.758  22.380   7.964
  712POPC   C4B12274  19.739  22.381   7.664
  713POPC   NC312275  40.814  34.578   9.464
  713POPC   PO412276  40.748  34.543   9.164
  713POPC   GL112277  40.773  34.527   8.864
  713POPC   GL212278  40.725  34.487   8.864
  713POPC   C1A12279  40.754  34.533   8.564
  713POPC   D2A12280  40.786  34.527   8.264
  713POPC   C3A12281  40.741  34.624   7.964
  713POPC   C4A12282  40.760  34.562   7.664
  713POPC   C1B12283  40.678  34.298   8.564
  713POPC   C2B12284  40.670  34.337   8.264
  713POPC   C3B12285  40.689  34.320   7.964
  713POPC   C4B12286  40.643  34.372   7.664
  714POPC   NC312287  43.867  26.026   9.464
  714POPC   PO412288  43.889  26.089   9.164
  714POPC   GL112289  43.843  26.061   8.864
  714POPC   GL212290  43.814  25.910   8.864
  714POPC   C1A12291  43.929  26.065   8.564
  714POPC   D2A12292  43.891  26.018   8.264
  714POPC   C3A12293  43.866  26.014   7.964
  714POPC   C4A12294  43.882  26.038   7.664
  714POPC   C1B12295  43.744  25.824   8.564
  714POPC   C2B12296  43.723  25.804   8.264
  714POPC   C3B12297  43.767  25.865   7.964
  714POPC   C4B12298  43.710  25.858   7.664
  715POPC   NC312299  33.782  12.853   9.464
  715POPC   PO412300  33.807  12.853   9.164
  715POPC   GL112301  33.826  12.840   8.864
  715POPC   GL212302  33.902  12.757   8.864
  715POPC   C1A12303  33.787  12.844   8.564
  715POPC   D2A12304  33.785  12.821   8.264
  715POPC   C3A12305  33.753  12.891   7.964
  715POPC   C4A12306  33.849  12.895   7.664
  715POPC   C1B12307  34.061  12.764   8.564
  715POPC   C2B12308  33.998  12.713   8.264
  715POPC   C3B12309  34.052  12.746   7.964
  715POPC   C4B12310  33.998  12.776   7.664
  716POPC   NC312311  29.166   3.551   9.464
  716POPC   PO412312  29.150   3.560   9.164
  716POPC   GL112313  29.127   3.512   8.864
  716POPC   GL212314  29.113   3.455   8.864
  716POPC   C1A12315  29.100   3.550   8.564
  716POPC   D2A12316  29.174   3.568   8.264
  716POPC   C3A12317  29.156   3.498   7.964
  716POPC   C4A12318  29.165   3.545   7.664
  716POPC   C1B12319  29.093   3.312   8.564
  716POPC   C2B12320  29.088   3.280   8.264
  716POPC   C3B12321  29.015   3.308   7.964
  716POPC   C4B12322  29.075   3.330   7.664
  717POPC   NC312323  43.882  36.138   9.464
  717POPC   PO412324  43.930  36.145   9.164
  717POPC   GL112325  43.849  36.124   8.864
  717POPC   GL212326  43.969  36.077   8.864
  717POPC   C1A12327  43.921  36.154   8.564
  717POPC   D2A12328  43.931  36.156   8.264
  717POPC   C3A12329  43.877  36.111   7.964
  717POPC   C4A12330  43.907  36.085   7.664
  717POPC   C1B12331  44.163  36.113   8.564
  717POPC   C2B12332  44.148  36.157   8.264
  717POPC   C3B12333  44.094  36.078   7.964
  717POPC   C4B12334  44.118  36.095   7.664
  718POPC   NC312335  36.935  36.921   9.464
  718POPC   PO412336  36.878  36.864   9.164
  718POPC   GL112337  36.932  36.916   8.864
  718POPC   GL212338  36.927  37.062   8.864
  718POPC   C1A12339  36.910  36.931   8.564
  718POPC   D2A12340  36.953  36.915   8.264
  718POPC   C3A12341  36.904  36.915   7.964
  718POPC   C4A12342  36.855  36.907   7.664
  718POPC   C1B12343  36.848  37.151   8.564
  718POPC   C2B12344  36.848  37.113   8.264
  718POPC   C3B12345  36.868  37.169   7.964
  718POPC   C4B12346  36.863  37.167   7.664
  719POPC   NC312347  29.148  16.708   9.464
  719POPC   PO412348  29.165  16.686   9.164
  719POPC   GL112349  29.181  16.699   8.864
  719POPC   GL212350  29.275  16.768   8.864
  719POPC   C1A12351  29.170  16.780   8.564
  719POPC   D2A12352  29.195  16.753   8.264
  719POPC   C3A12353  29.148  16.762   7.964
  719POPC   C4A12354  29.129  16.763   7.664
  719POPC   C1B12355  29.399  16.856   8.564
  719POPC   C2B12356  29.371  16.840   8.264
  719POPC   C3B12357  29.359  16.886   7.964
  719POPC   C4B12358  29.350  16.839   7.664
  720POPC   NC312359  41.580  19.833   9.464
  720POPC   PO412360  41.547  19.846   9.164
  720POPC   GL112361  41.561  19.843   8.864
  720POPC   GL212362  41.673  19.711   8.864
  720POPC   C1A12363  41.573  19.848   8.564
  720POPC   D2A12364  41.536  19.794   8.264
  720POPC   C3A12365  41.529  19.835   7.964
  720POPC   C4A12366  41.532  19.818   7.664
  720POPC   C1B12367  41.733  19.674   8.564
  720POPC   C2B12368  41.766  19.711   8.264
  720POPC   C3B12369  41.780  19.640   7.964
  720POPC   C4B12370  41.704  19.673   7.664
  721POPC   NC312371  23.692  44.629   9.464
  721POPC   PO412372  23.676  44.646   9.164
  721POPC   GL112373  23.728  44.678   8.864
  721POPC   GL212374  23.859  44.630   8.864
  721POPC   C1A12375  23.745  44.654   8.564
  721POPC   D2A12376  23.738  44.693   8.264
  721POPC   C3A12377  23.728  44.667   7.964
  721POPC   C4A12378  23.736  44.645   7.664
  721POPC   C1B12379  23.953  44.710   8.564
  721POPC   C2B12380  23.961  44.702   8.264
  721POPC   C3B12381  23.994  44.722   7.964
  721POPC   C4B12382  23.964  44.633   7.664
  722POPC   NC312383   1.245  38.485   9.464
  722POPC   PO412384   1.193  38.454   9.164
  722POPC   GL112385   1.207  38.415   8.864
  722POPC   GL212386   1.101  38.497   8.864
  722POPC   C1A12387   1.214  38.477   8.564
  722POPC   D2A12388   1.231  38.430   8.264
  722POPC   C3A12389   1.248  38.474   7.964
  722POPC   C4A12390   1.264  38.436   7.664
  722POPC   C1B12391   1.073  38.609   8.564
  722POPC   C2B12392   1.048  38.650   8.264
  722POPC   C3B12393   1.050  38.616   7.964
  722POPC   C4B12394   1.028  38.596   7.664
  723POPC   NC312395   4.271  38.428   9.464
  723POPC   PO412396   4.304  38.488   9.164
  723POPC   GL112397   4.305  38.486   8.864
  723POPC   GL212398   4.485  38.482   8.864
  723POPC   C1A12399   4.326  38.447   8.564
  723POPC   D2A12400   4.342  38.494   8.264
  723POPC   C3A12401   4.357  38.445   7.964
  723POPC   C4A12402   4.304  38.423   7.664
  723POPC   C1B12403   4.572  38.510   8.564
  723POPC   C2B12404   4.579  38.524   8.264
  723POPC   C3B12405   4.551  38.522   7.964
  723POPC   C4B12406   4.577  38.564   7.664
  724POPC   NC312407  29.943  22.210   9.464
  724POPC   PO412408  29.899  22.121   9.164
  724POPC   GL112409  29.926  22.193   8.864
  724POPC   GL212410  29.936  22.325   8.864
  724POPC   C1A12411  29.942  22.120   8.564
  724POPC   D2A12412  29.920  22.206   8.264
  724POPC   C3A12413  29.883  22.211   7.964
  724POPC   C4A12414  29.903  22.177   7.664
  724POPC   C1B12415  29.865  22.458   8.564
  724POPC   C2B12416  29.930  22.453   8.264
  724POPC   C3B12417  29.861  22.443   7.964
  724POPC   C4B12418  29.903  22.378   7.664
  725POPC   NC312419   5.825   8.186   9.464
  725POPC   PO412420   5.886   8.197   9.164
  725POPC   GL112421   5.821   8.240   8.864
  725POPC   GL212422   5.811   8.278   8.864
  725POPC   C1A12423   5.899   8.235   8.564
  725POPC   D2A12424   5.830   8.158   8.264
  725POPC   C3A12425   5.916   8.245   7.964
  725POPC   C4A12426   5.850   8.182   7.664
  725POPC   C1B12427   5.822   8.425   8.564
  725POPC   C2B12428   5.806   8.429   8.264
  725POPC   C3B12429   5.826   8.473   7.964
  725POPC   C4B12430   5.799   8.495   7.664
  726POPC   NC312431  14.421  36.896   9.464
  726POPC   PO412432  14.444  36.925   9.164
  726POPC   GL112433  14.395  36.948   8.864
  726POPC   GL212434  14.356  37.028   8.864
  726POPC   C1A12435  14.451  36.858   8.564
  726POPC   D2A12436  14.430  36.953   8.264
  726POPC   C3A12437  14.429  36.878   7.964
  726POPC   C4A12438  14.427  36.944   7.664
  726POPC   C1B12439  14.270  37.128   8.564
  726POPC   C2B12440  14.246  37.119   8.264
  726POPC   C3B12441  14.310  37.081   7.964
  726POPC   C4B12442  14.236  37.108   7.664
  727POPC   NC312443   5.058  13.647   9.464
  727POPC   PO412444   5.074  13.599   9.164
  727POPC   GL112445   5.125  13.634   8.864
  727POPC   GL212446   5.186  13.611   8.864
  727POPC   C1A12447   5.125  13.655   8.564
  727POPC   D2A12448   5.104  13.666   8.264
  727POPC   C3A12449   5.057  13.634   7.964
  727POPC   C4A12450   5.094  13.589   7.664
  727POPC   C1B12451   5.333  13.575   8.564
  727POPC   C2B12452   5.318  13.552   8.264
  727POPC   C3B12453   5.335  13.599   7.964
  727POPC   C4B12454   5.312  13.565   7.664
  728POPC   NC312455  31.463  15.173   9.464
  728POPC   PO412456  31.517  15.192   9.164
  728POPC   GL112457  31.457  15.149   8.864
  728POPC   GL212458  31.492  15.049   8.864
  728POPC   C1A12459  31.451  15.190   8.564
  728POPC   D2A12460  31.438  15.193   8.264
  728POPC   C3A12461  31.466  15.167   7.964
  728POPC   C4A12462  31.475  15.173   7.664
  728POPC   C1B12463  31.461  14.894   8.564
  728POPC   C2B12464  31.433  14.909   8.264
  728POPC   C3B12465  31.447  14.973   7.964
  728POPC   C4B12466  31.412  14.884   7.664
  729POPC   NC312467  23.697   8.182   9.464
  729POPC   PO412468  23.750   8.161   9.164
  729POPC   GL112469  23.754   8.158   8.864
  729POPC   GL212470  23.574   8.186   8.864
  729POPC   C1A12471  23.743   8.169   8.564
  729POPC   D2A12472  23.697   8.219   8.264
  729POPC   C3A12473  23.757   8.186   7.964
  729POPC   C4A12474  23.742   8.214   7.664
  729POPC   C1B12475  23.513   8.144   8.564
  729POPC   C2B12476  23.432   8.120   8.264
  729POPC   C3B12477  23.428   8.197   7.964
  729POPC   C4B12478  23.432   8.173   7.664
  730POPC   NC312479  36.870  18.329   9.464
  730POPC   PO412480  36.920  18.244   9.164
  730POPC   GL112481  36.880  18.250   8.864
  730POPC   GL212482  37.001  18.365   8.864
  730POPC   C1A12483  36.946  18.276   8.564
  730POPC   D2A12484  36.905  18.268   8.264
  730POPC   C3A12485  36.942  18.272   7.964
  730POPC   C4A12486  36.932  18.237   7.664
  730POPC   C1B12487  37.124  18.345   8.564
  730POPC   C2B12488  37.090  18.374   8.264
  730POPC   C3B12489  37.103  18.378   7.964
  730POPC   C4B12490  37.172  18.429   7.664
  731POPC   NC312491  40.751  36.860   9.464
  731POPC   PO412492  40.769  36.868   9.164
  731POPC   GL112493  40.779  36.920   8.864
  731POPC   GL212494  40.877  36.981   8.864
  731POPC   C1A12495  40.768  36.906   8.564
  731POPC   D2A12496  40.733  36.915   8.264
  731POPC   C3A12497  40.819  36.881   7.964
  731POPC   C4A12498  40.745  36.860   7.664
  731POPC   C1B12499  41.024  37.090   8.564
  731POPC   C2B12500  41.025  37.018   8.264
  731POPC   C3B12501  41.027  37.075   7.964
  731POPC   C4B12502  41.023  37.062   7.664
  732POPC   NC312503  24.513  22.934   9.464
  732POPC   PO412504  24.539  22.985   9.164
  732POPC   GL112505  24.497  22.950   8.864
  732POPC   GL212506  24.523  23.086   8.864
  732POPC   C1A12507  24.538  22.962   8.564
  732POPC   D2A12508  24.511  22.962   8.264
  732POPC   C3A12509  24.470  22.931   7.964
  732POPC   C4A12510  24.483  22.951   7.664
  732POPC   C1B12511  24.627  23.168   8.564
  732POPC   C2B12512  24.610  23.133   8.264
  732POPC   C3B12513  24.586  23.108   7.964
  732POPC   C4B12514  24.597  23.157   7.664
  733POPC   NC312515   8.154  14.433   9.464
  733POPC   PO412516   8.219  14.393   9.164
  733POPC   GL112517   8.197  14.406   8.864
  733POPC   GL212518   8.054  14.497   8.864
  733POPC   C1A12519   8.198  14.434   8.564
  733POPC   D2A12520   8.163  14.405   8.264
  733POPC   C3A12521   8.169  14.448   7.964
  733POPC   C4A12522   8.237  14.396   7.664
  733POPC   C1B12523   7.940  14.486   8.564
  733POPC   C2B12524   7.948  14.547   8.264
  733POPC   C3B12525   7.972  14.484   7.964
  733POPC   C4B12526   7.942  14.473   7.664
  734POPC   NC312527  23.733   6.634   9.464
  734POPC   PO412528  23.727   6.650   9.164
  734POPC   GL112529  23.751   6.690   8.864
  734POPC   GL212530  23.716   6.805   8.864
  734POPC   C1A12531  23.758   6.687   8.564
  734POPC   D2A12532  23.685   6.609   8.264
  734POPC   C3A12533  23.698   6.673   7.964
  734POPC   C4A12534  23.705   6.681   7.664
  734POPC   C1B12535  23.636   6.871   8.564
  734POPC   C2B12536  23.620   6.929   8.264
  734POPC   C3B12537  23.613   6.835   7.964
  734POPC   C4B12538  23.667   6.875   7.664
  735POPC   NC312539  32.292  31.521   9.464
  735POPC   PO412540  32.217  31.474   9.164
  735POPC   GL112541  32.236  31.465   8.864
  735POPC   GL212542  32.119  31.488   8.864
  735POPC   C1A12543  32.203  31.427   8.564
  735POPC   D2A12544  32.217  31.484   8.264
  735POPC   C3A12545  32.251  31.425   7.964
  735POPC   C4A12546  32.252  31.435   7.664
  735POPC   C1B12547  32.041  31.475   8.564
  735POPC   C2B12548  32.035  31.505   8.264
  735POPC   C3B12549  31.963  31.523   7.964
  735POPC   C4B12550  31.951  31.521   7.664
  736POPC   NC312551  19.032   3.581   9.464
  736POPC   PO412552  19.063   3.575   9.164
  736POPC   GL112553  19.088   3.534   8.864
  736POPC   GL212554  19.233   3.521   8.864
  736POPC   C1A12555  19.091   3.560   8.564
  736POPC   D2A12556  19.083   3.576   8.264
  736POPC   C3A12557  19.045   3.565   7.964
  736POPC   C4A12558  19.039   3.496   7.664
  736POPC   C1B12559  19.261   3.558   8.564
  736POPC   C2B12560  19.356   3.509   8.264
  736POPC   C3B12561  19.341   3.528   7.964
  736POPC   C4B12562  19.299   3.561   7.664
  737POPC   NC312563  36.929  17.522   9.464
  737POPC   PO412564  36.923  17.503   9.164
  737POPC   GL112565  36.886  17.536   8.864
  737POPC   GL212566  37.014  17.400   8.864
  737POPC   C1A12567  36.874  17.533   8.564
  737POPC   D2A12568  36.901  17.494   8.264
  737POPC   C3A12569  36.905  17.484   7.964
  737POPC   C4A12570  36.898  17.503   7.664
  737POPC   C1B12571  37.009  17.289   8.564
  737POPC   C2B12572  37.024  17.284   8.264
  737POPC   C3B12573  37.040  17.262   7.964
  737POPC   C4B12574  37.009  17.304   7.664
  738POPC   NC312575  43.073  41.541   9.464
  738POPC   PO412576  43.146  41.510   9.164
  738POPC   GL112577  43.066  41.510   8.864
  738POPC   GL212578  43.218  41.491   8.864
  738POPC   C1A12579  43.151  41.591   8.564
  738POPC   D2A12580  43.113  41.553   8.264
  738POPC   C3A12581  43.068  41.524   7.964
  738POPC   C4A12582  43.096  41.521   7.664
  738POPC   C1B12583  43.349  41.456   8.564
  738POPC   C2B12584  43.312  41.449   8.264
  738POPC   C3B12585  43.323  41.517   7.964
  738POPC   C4B12586  43.319  41.506   7.664
  739POPC   NC312587  43.066   4.286   9.464
  739POPC   PO412588  43.147   4.346   9.164
  739POPC   GL112589  43.087   4.349   8.864
  739POPC   GL212590  42.992   4.337   8.864
  739POPC   C1A12591  43.064   4.307   8.564
  739POPC   D2A12592  43.101   4.277   8.264
  739POPC   C3A12593  43.079   4.331   7.964
  739POPC   C4A12594  43.094   4.326   7.664
  739POPC   C1B12595  42.904   4.326   8.564
  739POPC   C2B12596  42.859   4.270   8.264
  739POPC   C3B12597  42.896   4.300   7.964
  739POPC   C4B12598  42.825   4.298   7.664
  740POPC   NC312599  35.363  30.673   9.464
  740POPC   PO412600  35.388  30.659   9.164
  740POPC   GL112601  35.321  30.681   8.864
  740POPC   GL212602  35.352  30.842   8.864
  740POPC   C1A12603  35.308  30.730   8.564
  740POPC   D2A12604  35.309  30.659   8.264
  740POPC   C3A12605  35.360  30.672   7.964
  740POPC   C4A12606  35.324  30.742   7.664
  740POPC   C1B12607  35.265  30.968   8.564
  740POPC   C2B12608  35.340  30.979   8.264
  740POPC   C3B12609  35.280  30.913   7.964
  740POPC   C4B12610  35.340  30.989   7.664
  741POPC   NC312611  42.346   5.106   9.464
  741POPC   PO412612  42.330   5.112   9.164
  741POPC   GL112613  42.330   5.070   8.864
  741POPC   GL212614  42.171   5.135   8.864
  741POPC   C1A12615  42.350   5.059   8.564
  741POPC   D2A12616  42.286   5.097   8.264
  741POPC   C3A12617  42.300   5.091   7.964
  741POPC   C4A12618  42.383   5.113   7.664
  741POPC   C1B12619  42.086   5.198   8.564
  741POPC   C2B12620  42.077   5.230   8.264
  741POPC   C3B12621  42.093   5.186   7.964
  741POPC   C4B12622  42.110   5.144   7.664
  742POPC   NC312623   4.330  19.840   9.464
  742POPC   PO412624   4.353  19.844   9.164
  742POPC   GL112625   4.343  19.834   8.864
  742POPC   GL212626   4.435  19.904   8.864
  742POPC   C1A12627   4.344  19.844   8.564
  742POPC   D2A12628   4.303  19.840   8.264
  742POPC   C3A12629   4.335  19.872   7.964
  742POPC   C4A12630   4.296  19.835   7.664
  742POPC   C1B12631   4.549  19.990   8.564
  742POPC   C2B12632   4.487  19.970   8.264
  742POPC   C3B12633   4.553  19.950   7.964
  742POPC   C4B12634   4.518  20.002   7.664
  743POPC   NC312635  11.314  22.172   9.464
  743POPC   PO412636  11.299  22.167   9.164
  743POPC   GL112637  11.334  22.204   8.864
  743POPC   GL212638  11.387  22.191   8.864
  743POPC   C1A12639  11.308  22.205   8.564
  743POPC   D2A12640  11.298  22.175   8.264
  743POPC   C3A12641  11.279  22.115   7.964
  743POPC   C4A12642  11.257  22.151   7.664
  743POPC   C1B12643  11.507  22.243   8.564
  743POPC   C2B12644  11.552  22.219   8.264
  743POPC   C3B12645  11.579  22.191   7.964
  743POPC   C4B12646  11.561  22.175   7.664
  744POPC   NC312647  20.567  39.209   9.464
  744POPC   PO412648  20.632  39.213   9.164
  744POPC   GL112649  20.616  39.252   8.864
  744POPC   GL212650  20.708  39.318   8.864
  744POPC   C1A12651  20.585  39.216   8.564
  744POPC   D2A12652  20.622  39.251   8.264
  744POPC   C3A12653  20.579  39.241   7.964
  744POPC   C4A12654  20.641  39.259   7.664
  744POPC   C1B12655  20.790  39.373   8.564
  744POPC   C2B12656  20.783  39.367   8.264
  744POPC   C3B12657  20.815  39.448   7.964
  744POPC   C4B12658  20.772  39.438   7.664
  745POPC   NC312659  17.531  14.433   9.464
  745POPC   PO412660  17.545  14.426   9.164
  745POPC   GL112661  17.479  14.408   8.864
  745POPC   GL212662  17.378  14.375   8.864
  745POPC   C1A12663  17.470  14.356   8.564
  745POPC   D2A12664  17.526  14.425   8.264
  745POPC   C3A12665  17.548  14.388   7.964
  745POPC   C4A12666  17.513  14.360   7.664
  745POPC   C1B12667  17.271  14.268   8.564
  745POPC   C2B12668  17.306  14.294   8.264
  745POPC   C3B12669  17.293  14.228   7.964
  745POPC   C4B12670  17.286  14.254   7.664
  746POPC   NC312671  38.480  28.388   9.464
  746POPC   PO412672  38.482  28.340   9.164
  746POPC   GL112673  38.464  28.410   8.864
  746POPC   GL212674  38.381  28.243   8.864
  746POPC   C1A12675  38.492  28.344   8.564
  746POPC   D2A12676  38.500  28.342   8.264
  746POPC   C3A12677  38.460  28.388   7.964
  746POPC   C4A12678  38.413  28.392   7.664
  746POPC   C1B12679  38.362  28.122   8.564
  746POPC   C2B12680  38.361  28.128   8.264
  746POPC   C3B12681  38.330  28.184   7.964
  746POPC   C4B12682  38.389  28.176   7.664
  747POPC   NC312683  15.905  19.787   9.464
  747POPC   PO412684  15.941  19.847   9.164
  747POPC   GL112685  15.963  19.830   8.864
  747POPC   GL212686  15.915  19.897   8.864
  747POPC   C1A12687  15.944  19.802   8.564
  747POPC   D2A12688  15.941  19.865   8.264
  747POPC   C3A12689  15.960  19.839   7.964
  747POPC   C4A12690  15.924  19.846   7.664
  747POPC   C1B12691  15.799  20.049   8.564
  747POPC   C2B12692  15.772  20.030   8.264
  747POPC   C3B12693  15.751  20.028   7.964
  747POPC   C4B12694  15.835  20.046   7.664
  748POPC   NC312695   4.308  12.827   9.464
  748POPC   PO412696   4.302  12.853   9.164
  748POPC   GL112697   4.274  12.831   8.864
  748POPC   GL212698   4.332  12.968   8.864
  748POPC   C1A12699   4.316  12.820   8.564
  748POPC   D2A12700   4.291  12.884   8.264
  748POPC   C3A12701   4.329  12.813   7.964
  748POPC   C4A12702   4.351  12.854   7.664
  748POPC   C1B12703   4.467  13.054   8.564
  748POPC   C2B12704   4.457  13.030   8.264
  748POPC   C3B12705   4.445  13.099   7.964
  748POPC   C4B12706   4.426  13.087   7.664
  749POPC   NC312707  24.446  11.332   9.464
  749POPC   PO412708  24.519  11.275   9.164
  749POPC   GL112709  24.507  11.334   8.864
  749POPC   GL212710  24.449  11.198   8.864
  749POPC   C1A12711  24.467  11.265   8.564
  749POPC   D2A12712  24.526  11.256   8.264
  749POPC   C3A12713  24.488  11.333   7.964
  749POPC   C4A12714  24.487  11.308   7.664
  749POPC   C1B12715  24.505  11.078   8.564
  749POPC   C2B12716  24.472  11.075   8.264
  749POPC   C3B12717  24.456  11.004   7.964
  749POPC   C4B12718  24.448  11.025   7.664
  750POPC   NC312719  42.363  35.391   9.464
  750POPC   PO412720  42.337  35.378   9.164
  750POPC   GL112721  42.366  35.398   8.864
  750POPC   GL212722  42.180  35.350   8.864
  750POPC   C1A12723  42.341  35.344   8.564
  750POPC   D2A12724  42.366  35.345   8.264
  750POPC   C3A12725  42.314  35.392   7.964
  750POPC   C4A12726  42.368  35.377   7.664
  750POPC   C1B12727  42.038  35.330   8.564
  750POPC   C2B12728  42.061  35.385   8.264
  750POPC   C3B12729  42.058  35.325   7.964
  750POPC   C4B12730  42.041  35.408   7.664
  751POPC   NC312731   4.294  39.977   9.464
  751POPC   PO412732   4.344  40.013   9.164
  751POPC   GL112733   4.310  40.048   8.864
  751POPC   GL212734   4.392  40.013   8.864
  751POPC   C1A12735   4.276  40.017   8.564
  751POPC   D2A12736   4.339  40.025   8.264
  751POPC   C3A12737   4.363  39.994   7.964
  751POPC   C4A12738   4.309  40.028   7.664
  751POPC   C1B12739   4.565  39.952   8.564
  751POPC   C2B12740   4.519  39.922   8.264
  751POPC   C3B12741   4.542  39.918   7.964
  751POPC   C4B12742   4.526  39.990   7.664
  752POPC   NC312743   9.797   5.828   9.464
  752POPC   PO412744   9.738   5.834   9.164
  752POPC   GL112745   9.730   5.912   8.864
  752POPC   GL212746   9.680   5.971   8.864
  752POPC   C1A12747   9.744   5.870   8.564
  752POPC   D2A12748   9.737   5.878   8.264
  752POPC   C3A12749   9.741   5.914   7.964
  752POPC   C4A12750   9.762   5.824   7.664
  752POPC   C1B12751   9.630   6.110   8.564
  752POPC   C2B12752   9.642   6.114   8.264
  752POPC   C3B12753   9.647   6.145   7.964
  752POPC   C4B12754   9.678   6.103   7.664
  753POPC   NC312755  38.458  20.598   9.464
  753POPC   PO412756  38.497  20.640   9.164
  753POPC   GL112757  38.471  20.563   8.864
  753POPC   GL212758  38.417  20.455   8.864
  753POPC   C1A12759  38.425  20.621   8.564
  753POPC   D2A12760  38.449  20.639   8.264
  753POPC   C3A12761  38.471  20.618   7.964
  753POPC   C4A12762  38.490  20.612   7.664
  753POPC   C1B12763  38.364  20.375   8.564
  753POPC   C2B12764  38.417  20.414   8.264
  753POPC   C3B12765  38.420  20.369   7.964
  753POPC   C4B12766  38.419  20.335   7.664
  754POPC   NC312767  17.516  20.604   9.464
  754POPC   PO412768  17.492  20.598   9.164
  754POPC   GL112769  17.481  20.577   8.864
  754POPC   GL212770  17.413  20.647   8.864
  754POPC   C1A12771  17.522  20.598   8.564
  754POPC   D2A12772  17.515  20.576   8.264
  754POPC   C3A12773  17.515  20.633   7.964
  754POPC   C4A12774  17.518  20.622   7.664
  754POPC   C1B12775  17.242  20.783   8.564
  754POPC   C2B12776  17.279  20.722   8.264
  754POPC   C3B12777  17.327  20.769   7.964
  754POPC   C4B12778  17.313  20.718   7.664
  755POPC   NC312779  37.718  36.930   9.464
  755POPC   PO412780  37.689  36.934   9.164
  755POPC   GL112781  37.675  36.858   8.864
  755POPC   GL212782  37.603  36.906   8.864
  755POPC   C1A12783  37.692  36.892   8.564
  755POPC   D2A12784  37.720  36.927   8.264
  755POPC   C3A12785  37.646  36.949   7.964
  755POPC   C4A12786  37.684  36.931   7.664
  755POPC   C1B12787  37.401  36.876   8.564
  755POPC   C2B12788  37.448  36.897   8.264
  755POPC   C3B12789  37.392  36.868   7.964
  755POPC   C4B12790  37.457  36.856   7.664
  756POPC   NC312791  43.151  26.036   9.464
  756POPC   PO412792  43.110  26.073   9.164
  756POPC   GL112793  43.070  26.024   8.864
  756POPC   GL212794  43.169  25.892   8.864
  756POPC   C1A12795  43.115  26.006   8.564
  756POPC   D2A12796  43.109  26.009   8.264
  756POPC   C3A12797  43.082  26.075   7.964
  756POPC   C4A12798  43.129  26.003   7.664
  756POPC   C1B12799  43.233  25.802   8.564
  756POPC   C2B12800  43.262  25.777   8.264
  756POPC   C3B12801  43.254  25.782   7.964
  756POPC   C4B12802  43.194  25.800   7.664
  757POPC   NC312803  32.275  37.646   9.464
  757POPC   PO412804  32.249  37.726   9.164
  757POPC   GL112805  32.231  37.656   8.864
  757POPC   GL212806  32.188  37.761   8.864
  757POPC   C1A12807  32.250  37.658   8.564
  757POPC   D2A12808  32.240  37.640   8.264
  757POPC   C3A12809  32.294  37.632   7.964
  757POPC   C4A12810  32.220  37.655   7.664
  757POPC   C1B12811  32.061  37.854   8.564
  757POPC   C2B12812  32.042  37.814   8.264
  757POPC   C3B12813  32.042  37.850   7.964
  757POPC   C4B12814  32.007  37.792   7.664
  758POPC   NC312815  14.375   7.390   9.464
  758POPC   PO412816  14.431   7.381   9.164
  758POPC   GL112817  14.385   7.454   8.864
  758POPC   GL212818  14.425   7.311   8.864
  758POPC   C1A12819  14.380   7.458   8.564
  758POPC   D2A12820  14.404   7.374   8.264
  758POPC   C3A12821  14.376   7.429   7.964
  758POPC   C4A12822  14.443   7.440   7.664
  758POPC   C1B12823  14.560   7.177   8.564
  758POPC   C2B12824  14.542   7.205   8.264
  758POPC   C3B12825  14.507   7.155   7.964
  758POPC   C4B12826  14.545   7.176   7.664
  759POPC   NC312827  26.835  10.496   9.464
  759POPC   PO412828  26.791  10.501   9.164
  759POPC   GL112829  26.822  10.482   8.864
  759POPC   GL212830  26.710  10.536   8.864
  759POPC   C1A12831  26.776  10.505   8.564
  759POPC   D2A12832  26.833  10.573   8.264
  759POPC   C3A12833  26.788  10.564   7.964
  759POPC   C4A12834  26.848  10.573   7.664
  759POPC   C1B12835  26.592  10.552   8.564
  759POPC   C2B12836  26.589  10.543   8.264
  759POPC   C3B12837  26.561  10.573   7.964
  759POPC   C4B12838  26.564  10.508   7.664
  760POPC   NC312839  31.503  26.820   9.464
  760POPC   PO412840  31.474  26.800   9.164
  760POPC   GL112841  31.461  26.861   8.864
  760POPC   GL212842  31.600  26.894   8.864
  760POPC   C1A12843  31.442  26.803   8.564
  760POPC   D2A12844  31.472  26.867   8.264
  760POPC   C3A12845  31.501  26.838   7.964
  760POPC   C4A12846  31.437  26.776   7.664
  760POPC   C1B12847  31.688  26.925   8.564
  760POPC   C2B12848  31.672  26.985   8.264
  760POPC   C3B12849  31.720  26.974   7.964
  760POPC   C4B12850  31.709  26.977   7.664
  761POPC   NC312851  36.952   9.778   9.464
  761POPC   PO412852  36.887   9.777   9.164
  761POPC   GL112853  36.936   9.765   8.864
  761POPC   GL212854  37.044   9.853   8.864
  761POPC   C1A12855  36.885   9.699   8.564
  761POPC   D2A12856  36.883   9.794   8.264
  761POPC   C3A12857  36.866   9.705   7.964
  761POPC   C4A12858  36.875   9.736   7.664
  761POPC   C1B12859  37.177   9.883   8.564
  761POPC   C2B12860  37.134   9.897   8.264
  761POPC   C3B12861  37.139   9.835   7.964
  761POPC   C4B12862  37.087   9.895   7.664
  762POPC   NC312863   5.075  36.952   9.464
  762POPC   PO412864   5.114  36.925   9.164
  762POPC   GL112865   5.068  36.902   8.864
  762POPC   GL212866   4.992  37.020   8.864
  762POPC   C1A12867   5.122  36.898   8.564
  762POPC   D2A12868   5.066  36.899   8.264
  762POPC   C3A12869   5.126  36.940   7.964
  762POPC   C4A12870   5.069  36.858   7.664
  762POPC   C1B12871   4.874  37.061   8.564
  762POPC   C2B12872   4.906  37.069   8.264
  762POPC   C3B12873   4.870  37.061   7.964
  762POPC   C4B12874   4.910  37.101   7.664
  763POPC   NC312875  19.023  22.151   9.464
  763POPC   PO412876  19.044  22.190   9.164
  763POPC   GL112877  19.075  22.122   8.864
  763POPC   GL212878  19.065  22.081   8.864
  763POPC   C1A12879  19.090  22.162   8.564
  763POPC   D2A12880  19.076  22.115   8.264
  763POPC   C3A12881  19.075  22.193   7.964
  763POPC   C4A12882  19.031  22.173   7.664
  763POPC   C1B12883  19.006  21.879   8.564
  763POPC   C2B12884  19.038  21.865   8.264
  763POPC   C3B12885  18.994  21.894   7.964
  763POPC   C4B12886  19.007  21.925   7.664
  764POPC   NC312887   4.293  16.735   9.464
  764POPC   PO412888   4.291  16.765   9.164
  764POPC   GL112889   4.360  16.683   8.864
  764POPC   GL212890   4.322  16.571   8.864
  764POPC   C1A12891   4.340  16.702   8.564
  764POPC   D2A12892   4.289  16.696   8.264
  764POPC   C3A12893   4.311  16.695   7.964
  764POPC   C4A12894   4.359  16.707   7.664
  764POPC   C1B12895   4.356  16.520   8.564
  764POPC   C2B12896   4.301  16.458   8.264
  764POPC   C3B12897   4.362  16.495   7.964
  764POPC   C4B12898   4.351  16.513   7.664
  765POPC   NC312899   2.027  44.681   9.464
  765POPC   PO412900   2.003  44.624   9.164
  765POPC   GL112901   1.978  44.639   8.864
  765POPC   GL212902   1.849  44.732   8.864
  765POPC   C1A12903   1.947  44.701   8.564
  765POPC   D2A12904   1.998  44.673   8.264
  765POPC   C3A12905   1.941  44.676   7.964
  765POPC   C4A12906   1.978  44.631   7.664
  765POPC   C1B12907   1.793  44.745   8.564
  765POPC   C2B12908   1.745  44.762   8.264
  765POPC   C3B12909   1.766  44.698   7.964
  765POPC   C4B12910   1.710  44.731   7.664
  766POPC   NC312911  42.370   7.399   9.464
  766POPC   PO412912  42.292   7.422   9.164
  766POPC   GL112913  42.335   7.406   8.864
  766POPC   GL212914  42.254   7.360   8.864
  766POPC   C1A12915  42.324   7.432   8.564
  766POPC   D2A12916  42.287   7.469   8.264
  766POPC   C3A12917  42.376   7.408   7.964
  766POPC   C4A12918  42.378   7.413   7.664
  766POPC   C1B12919  42.100   7.327   8.564
  766POPC   C2B12920  42.116   7.361   8.264
  766POPC   C3B12921  42.128   7.326   7.964
  766POPC   C4B12922  42.059   7.316   7.664
  767POPC   NC312923  23.666  23.753   9.464
  767POPC   PO412924  23.696  23.758   9.164
  767POPC   GL112925  23.719  23.747   8.864
  767POPC   GL212926  23.747  23.817   8.864
  767POPC   C1A12927  23.677  23.727   8.564
  767POPC   D2A12928  23.692  23.763   8.264
  767POPC   C3A12929  23.702  23.672   7.964
  767POPC   C4A12930  23.713  23.726   7.664
  767POPC   C1B12931  23.859  23.896   8.564
  767POPC   C2B12932  23.808  23.896   8.264
  767POPC   C3B12933  23.842  23.942   7.964
  767POPC   C4B12934  23.804  23.949   7.664
  768POPC   NC312935   3.584  44.625   9.464
  768POPC   PO412936   3.533  44.654   9.164
  768POPC   GL112937   3.582  44.683   8.864
  768POPC   GL212938   3.487  44.498   8.864
  768POPC   C1A12939   3.540  44.653   8.564
  768POPC   D2A12940   3.578  44.694   8.264
  768POPC   C3A12941   3.495  44.668   7.964
  768POPC   C4A12942   3.554  44.613   7.664
  768POPC   C1B12943   3.540  44.373   8.564
  768POPC   C2B12944   3.479  44.417   8.264
  768POPC   C3B12945   3.462  44.409   7.964
  768POPC   C4B12946   3.475  44.370   7.664
  769POPC   NC312947  13.597  32.234   9.464
  769POPC   PO412948  13.661  32.269   9.164
  769POPC   GL112949  13.633  32.225   8.864
  769POPC   GL212950  13.495  32.146   8.864
  769POPC   C1A12951  13.674  32.273   8.564
  769POPC   D2A12952  13.647  32.203   8.264
  769POPC   C3A12953  13.661  32.268   7.964
  769POPC   C4A12954  13.664  32.251   7.664
  769POPC   C1B12955  13.388  32.149   8.564
  769POPC   C2B12956  13.444  32.097   8.264
  769POPC   C3B12957  13.438  32.171   7.964
  769POPC   C4B12958  13.374  32.084   7.664
  770POPC   NC312959   1.263  24.475   9.464
  770POPC   PO412960   1.179  24.490   9.164
  770POPC   GL112961   1.194  24.528   8.864
  770POPC   GL212962   1.098  24.541   8.864
  770POPC   C1A12963   1.250  24.468   8.564
  770POPC   D2A12964   1.208  24.484   8.264
  770POPC   C3A12965   1.235  24.537   7.964
  770POPC   C4A12966   1.212  24.447   7.664
  770POPC   C1B12967   0.969  24.508   8.564
  770POPC   C2B12968   0.945  24.555   8.264
  770POPC   C3B12969   0.974  24.528   7.964
  770POPC   C4B12970   1.000  24.484   7.664
  771POPC   NC312971   1.225   3.518   9.464
  771POPC   PO412972   1.216   3.573   9.164
  771POPC   GL112973   1.204   3.527   8.864
  771POPC   GL212974   1.249   3.654   8.864
  771POPC   C1A12975   1.260   3.580   8.564
  771POPC   D2A12976   1.194   3.539   8.264
  771POPC   C3A12977   1.192   3.529   7.964
  771POPC   C4A12978   1.234   3.532   7.664
  771POPC   C1B12979   1.179   3.769   8.564
  771POPC   C2B12980   1.246   3.788   8.264
  771POPC   C3B12981   1.213   3.832   7.964
  771POPC   C4B12982   1.170   3.821   7.664
  772POPC   NC312983  19.827  22.937   9.464
  772POPC   PO412984  19.822  22.933   9.164
  772POPC   GL112985  19.875  22.914   8.864
  772POPC   GL212986  19.819  23.050   8.864
  772POPC   C1A12987  19.879  22.899   8.564
  772POPC   D2A12988  19.817  22.936   8.264
  772POPC   C3A12989  19.873  22.926   7.964
  772POPC   C4A12990  19.841  22.891   7.664
  772POPC   C1B12991  19.806  23.221   8.564
  772POPC   C2B12992  19.843  23.186   8.264
  772POPC   C3B12993  19.835  23.193   7.964
  772POPC   C4B12994  19.873  23.177   7.664
  773POPC   NC312995   2.009  29.890   9.464
  773POPC   PO412996   1.953  29.877   9.164
  773POPC   GL112997   1.953  29.943   8.864
  773POPC   GL212998   2.069  30.002   8.864
  773POPC   C1A12999   2.022  29.875   8.564
  773POPC   D2A13000   1.943  29.969   8.264
  773POPC   C3A13001   1.945  29.894   7.964
  773POPC   C4A13002   1.986  29.969   7.664
  773POPC   C1B13003   2.159  30.037   8.564
  773POPC   C2B13004   2.169  30.069   8.264
  773POPC   C3B13005   2.216  30.088   7.964
  773POPC   C4B13006   2.152  30.025   7.664
  774POPC   NC313007  32.257  24.539   9.464
  774POPC   PO413008  32.295  24.531   9.164
  774POPC   GL113009  32.198  24.471   8.864
  774POPC   GL213010  32.390  24.389   8.864
  774POPC   C1A13011  32.275  24.445   8.564
  774POPC   D2A13012  32.225  24.522   8.264
  774POPC   C3A13013  32.255  24.448   7.964
  774POPC   C4A13014  32.267  24.462   7.664
  774POPC   C1B13015  32.443  24.339   8.564
  774POPC   C2B13016  32.409  24.352   8.264
  774POPC   C3B13017  32.430  24.322   7.964
  774POPC   C4B13018  32.416  24.358   7.664
  775POPC   NC313019  14.361  27.566   9.464
  775POPC   PO413020  14.427  27.556   9.164
  775POPC   GL113021  14.374  27.634   8.864
  775POPC   GL213022  14.526  27.669   8.864
  775POPC   C1A13023  14.375  27.639   8.564
  775POPC   D2A13024  14.437  27.593   8.264
  775POPC   C3A13025  14.382  27.579   7.964
  775POPC   C4A13026  14.433  27.548   7.664
  775POPC   C1B13027  14.694  27.669   8.564
  775POPC   C2B13028  14.601  27.649   8.264
  775POPC   C3B13029  14.627  27.704   7.964
  775POPC   C4B13030  14.596  27.695   7.664
  776POPC   NC313031  36.900  10.489   9.464
  776POPC   PO413032  36.865  10.511   9.164
  776POPC   GL113033  36.888  10.536   8.864
  776POPC   GL213034  36.909  10.627   8.864
  776POPC   C1A13035  36.936  10.521   8.564
  776POPC   D2A13036  36.863  10.556   8.264
  776POPC   C3A13037  36.886  10.537   7.964
  776POPC   C4A13038  36.863  10.562   7.664
  776POPC   C1B13039  36.819  10.761   8.564
  776POPC   C2B13040  36.861  10.790   8.264
  776POPC   C3B13041  36.799  10.725   7.964
  776POPC   C4B13042  36.818  10.784   7.664
  777POPC   NC313043  26.040  11.278   9.464
  777POPC   PO413044  26.011  11.293   9.164
  777POPC   GL113045  26.068  11.313   8.864
  777POPC   GL213046  26.019  11.387   8.864
  777POPC   C1A13047  26.090  11.347   8.564
  777POPC   D2A13048  26.078  11.338   8.264
  777POPC   C3A13049  26.059  11.272   7.964
  777POPC   C4A13050  26.001  11.297   7.664
  777POPC   C1B13051  25.998  11.538   8.564
  777POPC   C2B13052  25.993  11.581   8.264
  777POPC   C3B13053  26.014  11.510   7.964
  777POPC   C4B13054  26.045  11.588   7.664
  778POPC   NC313055  36.135   5.062   9.464
  778POPC   PO413056  36.144   5.048   9.164
  778POPC   GL113057  36.153   5.055   8.864
  778POPC   GL213058  36.025   5.137   8.864
  778POPC   C1A13059  36.124   5.141   8.564
  778POPC   D2A13060  36.154   5.103   8.264
  778POPC   C3A13061  36.144   5.104   7.964
  778POPC   C4A13062  36.156   5.125   7.664
  778POPC   C1B13063  35.872   5.151   8.564
  778POPC   C2B13064  35.872   5.154   8.264
  778POPC   C3B13065  35.854   5.123   7.964
  778POPC   C4B13066  35.913   5.118   7.664
  779POPC   NC313067  15.208  24.500   9.464
  779POPC   PO413068  15.138  24.472   9.164
  779POPC   GL113069  15.169  24.514   8.864
  779POPC   GL213070  15.294  24.571   8.864
  779POPC   C1A13071  15.145  24.480   8.564
  779POPC   D2A13072  15.163  24.446   8.264
  779POPC   C3A13073  15.162  24.453   7.964
  779POPC   C4A13074  15.226  24.488   7.664
  779POPC   C1B13075  15.410  24.563   8.564
  779POPC   C2B13076  15.417  24.555   8.264
  779POPC   C3B13077  15.433  24.559   7.964
  779POPC   C4B13078  15.398  24.556   7.664
  780POPC   NC313079   8.227  15.219   9.464
  780POPC   PO413080   8.161  15.183   9.164
  780POPC   GL113081   8.175  15.194   8.864
  780POPC   GL213082   8.187  15.072   8.864
  780POPC   C1A13083   8.208  15.212   8.564
  780POPC   D2A13084   8.168  15.149   8.264
  780POPC   C3A13085   8.158  15.149   7.964
  780POPC   C4A13086   8.204  15.138   7.664
  780POPC   C1B13087   8.221  14.921   8.564
  780POPC   C2B13088   8.191  14.919   8.264
  780POPC   C3B13089   8.161  14.907   7.964
  780POPC   C4B13090   8.208  14.918   7.664
  781POPC   NC313091  29.180  13.664   9.464
  781POPC   PO413092  29.108  13.593   9.164
  781POPC   GL113093  29.176  13.612   8.864
  781POPC   GL213094  29.294  13.592   8.864
  781POPC   C1A13095  29.187  13.596   8.564
  781POPC   D2A13096  29.102  13.589   8.264
  781POPC   C3A13097  29.119  13.616   7.964
  781POPC   C4A13098  29.154  13.584   7.664
  781POPC   C1B13099  29.387  13.682   8.564
  781POPC   C2B13100  29.416  13.629   8.264
  781POPC   C3B13101  29.425  13.630   7.964
  781POPC   C4B13102  29.444  13.606   7.664
  782POPC   NC313103  26.074  12.079   9.464
  782POPC   PO413104  26.001  12.084   9.164
  782POPC   GL113105  26.049  12.060   8.864
  782POPC   GL213106  25.959  12.128   8.864
  782POPC   C1A13107  26.059  12.051   8.564
  782POPC   D2A13108  26.043  12.091   8.264
  782POPC   C3A13109  26.035  12.109   7.964
  782POPC   C4A13110  26.075  12.060   7.664
  782POPC   C1B13111  25.835  12.207   8.564
  782POPC   C2B13112  25.893  12.224   8.264
  782POPC   C3B13113  25.800  12.197   7.964
  782POPC   C4B13114  25.846  12.238   7.664
  783POPC   NC313115   5.879  29.907   9.464
  783POPC   PO413116   5.917  29.937   9.164
  783POPC   GL113117   5.878  29.917   8.864
  783POPC   GL213118   5.730  29.969   8.864
  783POPC   C1A13119   5.840  29.883   8.564
  783POPC   D2A13120   5.897  29.926   8.264
  783POPC   C3A13121   5.917  29.907   7.964
  783POPC   C4A13122   5.895  29.967   7.664
  783POPC   C1B13123   5.638  30.029   8.564
  783POPC   C2B13124   5.658  30.032   8.264
  783POPC   C3B13125   5.643  30.034   7.964
  783POPC   C4B13126   5.694  30.026   7.664
  784POPC   NC313127  31.434  22.133   9.464
  784POPC   PO413128  31.442  22.190   9.164
  784POPC   GL113129  31.498  22.171   8.864
  784POPC   GL213130  31.405  22.263   8.864
  784POPC   C1A13131  31.510  22.194   8.564
  784POPC   D2A13132  31.522  22.204   8.264
  784POPC   C3A13133  31.502  22.116   7.964
  784POPC   C4A13134  31.480  22.153   7.664
  784POPC   C1B13135  31.217  22.285   8.564
  784POPC   C2B13136  31.271  22.332   8.264
  784POPC   C3B13137  31.225  22.329   7.964
  784POPC   C4B13138  31.284  22.286   7.664
  785POPC   NC313139   8.943   6.631   9.464
  785POPC   PO413140   8.970   6.604   9.164
  785POPC   GL113141   8.982   6.690   8.864
  785POPC   GL213142   8.847   6.534   8.864
  785POPC   C1A13143   8.949   6.633   8.564
  785POPC   D2A13144   8.977   6.641   8.264
  785POPC   C3A13145   8.958   6.651   7.964
  785POPC   C4A13146   8.991   6.658   7.664
  785POPC   C1B13147   8.737   6.509   8.564
  785POPC   C2B13148   8.800   6.523   8.264
  785POPC   C3B13149   8.751   6.514   7.964
  785POPC   C4B13150   8.725   6.502   7.664
  786POPC   NC313151  26.005  36.918   9.464
  786POPC   PO413152  26.012  36.902   9.164
  786POPC   GL113153  26.089  36.916   8.864
  786POPC   GL213154  25.963  36.789   8.864
  786POPC   C1A13155  26.000  36.913   8.564
  786POPC   D2A13156  26.039  36.946   8.264
  786POPC   C3A13157  26.078  36.860   7.964
  786POPC   C4A13158  26.071  36.894   7.664
  786POPC   C1B13159  25.891  36.748   8.564
  786POPC   C2B13160  25.895  36.739   8.264
  786POPC   C3B13161  25.877  36.704   7.964
  786POPC   C4B13162  25.891  36.788   7.664
  787POPC   NC313163  34.564  11.305   9.464
  787POPC   PO413164  34.615  11.285   9.164
  787POPC   GL113165  34.527  11.287   8.864
  787POPC   GL213166  34.626  11.384   8.864
  787POPC   C1A13167  34.560  11.301   8.564
  787POPC   D2A13168  34.571  11.286   8.264
  787POPC   C3A13169  34.541  11.342   7.964
  787POPC   C4A13170  34.615  11.331   7.664
  787POPC   C1B13171  34.709  11.531   8.564
  787POPC   C2B13172  34.765  11.509   8.264
  787POPC   C3B13173  34.740  11.533   7.964
  787POPC   C4B13174  34.752  11.507   7.664
  788POPC   NC313175   1.959  14.385   9.464
  788POPC   PO413176   1.972  14.385   9.164
  788POPC   GL113177   1.971  14.370   8.864
  788POPC   GL213178   1.976  14.491   8.864
  788POPC   C1A13179   2.021  14.395   8.564
  788POPC   D2A13180   2.008  14.391   8.264
  788POPC   C3A13181   1.966  14.360   7.964
  788POPC   C4A13182   2.000  14.419   7.664
  788POPC   C1B13183   1.963  14.613   8.564
  788POPC   C2B13184   1.940  14.702   8.264
  788POPC   C3B13185   1.949  14.649   7.964
  788POPC   C4B13186   1.956  14.610   7.664
  789POPC   NC313187  28.396  40.809   9.464
  789POPC   PO413188  28.409  40.796   9.164
  789POPC   GL113189  28.397  40.776   8.864
  789POPC   GL213190  28.468  40.767   8.864
  789POPC   C1A13191  28.379  40.742   8.564
  789POPC   D2A13192  28.325  40.784   8.264
  789POPC   C3A13193  28.409  40.742   7.964
  789POPC   C4A13194  28.347  40.746   7.664
  789POPC   C1B13195  28.639  40.655   8.564
  789POPC   C2B13196  28.566  40.733   8.264
  789POPC   C3B13197  28.566  40.728   7.964
  789POPC   C4B13198  28.552  40.680   7.664
  790POPC   NC313199   8.966  37.706   9.464
  790POPC   PO413200   9.021  37.701   9.164
  790POPC   GL113201   8.926  37.717   8.864
  790POPC   GL213202   8.963  37.830   8.864
  790POPC   C1A13203   8.987  37.725   8.564
  790POPC   D2A13204   8.957  37.658   8.264
  790POPC   C3A13205   8.967  37.636   7.964
  790POPC   C4A13206   8.950  37.721   7.664
  790POPC   C1B13207   8.933  37.959   8.564
  790POPC   C2B13208   8.898  37.895   8.264
  790POPC   C3B13209   8.879  37.964   7.964
  790POPC   C4B13210   8.891  37.954   7.664
  791POPC   NC313211  17.496   5.077   9.464
  791POPC   PO413212  17.548   5.118   9.164
  791POPC   GL113213  17.480   5.110   8.864
  791POPC   GL213214  17.654   5.075   8.864
  791POPC   C1A13215  17.522   5.107   8.564
  791POPC   D2A13216  17.483   5.087   8.264
  791POPC   C3A13217  17.470   5.051   7.964
  791POPC   C4A13218  17.482   5.052   7.664
  791POPC   C1B13219  17.748   5.076   8.564
  791POPC   C2B13220  17.799   5.051   8.264
  791POPC   C3B13221  17.796   5.116   7.964
  791POPC   C4B13222  17.805   5.071   7.664
  792POPC   NC313223  20.602  34.541   9.464
  792POPC   PO413224  20.612  34.595   9.164
  792POPC   GL113225  20.590  34.625   8.864
  792POPC   GL213226  20.612  34.690   8.864
  792POPC   C1A13227  20.651  34.555   8.564
  792POPC   D2A13228  20.626  34.591   8.264
  792POPC   C3A13229  20.630  34.529   7.964
  792POPC   C4A13230  20.657  34.601   7.664
  792POPC   C1B13231  20.618  34.865   8.564
  792POPC   C2B13232  20.597  34.849   8.264
  792POPC   C3B13233  20.528  34.832   7.964
  792POPC   C4B13234  20.603  34.800   7.664
  793POPC   NC313235   1.965   8.167   9.464
  793POPC   PO413236   1.962   8.164   9.164
  793POPC   GL113237   1.993   8.211   8.864
  793POPC   GL213238   2.099   8.252   8.864
  793POPC   C1A13239   1.978   8.211   8.564
  793POPC   D2A13240   1.945   8.185   8.264
  793POPC   C3A13241   2.011   8.183   7.964
  793POPC   C4A13242   2.023   8.170   7.664
  793POPC   C1B13243   2.274   8.251   8.564
  793POPC   C2B13244   2.279   8.229   8.264
  793POPC   C3B13245   2.283   8.278   7.964
  793POPC   C4B13246   2.226   8.229   7.664
  794POPC   NC313247   6.602  42.314   9.464
  794POPC   PO413248   6.651  42.333   9.164
  794POPC   GL113249   6.657  42.310   8.864
  794POPC   GL213250   6.476  42.313   8.864
  794POPC   C1A13251   6.618  42.315   8.564
  794POPC   D2A13252   6.652  42.326   8.264
  794POPC   C3A13253   6.660  42.352   7.964
  794POPC   C4A13254   6.681  42.322   7.664
  794POPC   C1B13255   6.434  42.367   8.564
  794POPC   C2B13256   6.371  42.306   8.264
  794POPC   C3B13257   6.442  42.378   7.964
  794POPC   C4B13258   6.350  42.389   7.664
  795POPC   NC313259  19.033  31.457   9.464
  795POPC   PO413260  19.083  31.481   9.164
  795POPC   GL113261  19.038  31.485   8.864
  795POPC   GL213262  19.131  31.387   8.864
  795POPC   C1A13263  19.103  31.480   8.564
  795POPC   D2A13264  19.011  31.509   8.264
  795POPC   C3A13265  19.017  31.443   7.964
  795POPC   C4A13266  19.037  31.475   7.664
  795POPC   C1B13267  19.235  31.321   8.564
  795POPC   C2B13268  19.280  31.279   8.264
  795POPC   C3B13269  19.226  31.308   7.964
  795POPC   C4B13270  19.243  31.279   7.664
  796POPC   NC313271  15.208  40.779   9.464
  796POPC   PO413272  15.208  40.814   9.164
  796POPC   GL113273  15.208  40.813   8.864
  796POPC   GL213274  15.112  40.726   8.864
  796POPC   C1A13275  15.227  40.829   8.564
  796POPC   D2A13276  15.155  40.733   8.264
  796POPC   C3A13277  15.204  40.760   7.964
  796POPC   C4A13278  15.157  40.830   7.664
  796POPC   C1B13279  14.911  40.692   8.564
  796POPC   C2B13280  14.903  40.681   8.264
  796POPC   C3B13281  14.958  40.716   7.964
  796POPC   C4B13282  14.913  40.724   7.664
  797POPC   NC313283  19.061   5.852   9.464
  797POPC   PO413284  19.067   5.881   9.164
  797POPC   GL113285  19.076   5.894   8.864
  797POPC   GL213286  19.108   5.811   8.864
  797POPC   C1A13287  19.033   5.889   8.564
  797POPC   D2A13288  19.096   5.865   8.264
  797POPC   C3A13289  19.029   5.859   7.964
  797POPC   C4A13290  19.057   5.859   7.664
  797POPC   C1B13291  19.284   5.698   8.564
  797POPC   C2B13292  19.209   5.732   8.264
  797POPC   C3B13293  19.281   5.730   7.964
  797POPC   C4B13294  19.235   5.741   7.664
  798POPC   NC313295  42.363  20.580   9.464
  798POPC   PO413296  42.363  20.606   9.164
  798POPC   GL113297  42.286  20.639   8.864
  798POPC   GL213298  42.454  20.496   8.864
  798POPC   C1A13299  42.348  20.648   8.564
  798POPC   D2A13300  42.344  20.659   8.264
  798POPC   C3A13301  42.372  20.650   7.964
  798POPC   C4A13302  42.363  20.619   7.664
  798POPC   C1B13303  42.490  20.430   8.564
  798POPC   C2B13304  42.562  20.460   8.264
  798POPC   C3B13305  42.516  20.437   7.964
  798POPC   C4B13306  42.511  20.492   7.664
  799POPC   NC313307   7.428  18.332   9.464
  799POPC   PO413308   7.413  18.262   9.164
  799POPC   GL113309   7.380  18.256   8.864
  799POPC   GL213310   7.500  18.354   8.864
  799POPC   C1A13311   7.376  18.319   8.564
  799POPC   D2A13312   7.389  18.310   8.264
  799POPC   C3A13313   7.424  18.243   7.964
  799POPC   C4A13314   7.426  18.247   7.664
  799POPC   C1B13315   7.662  18.433   8.564
  799POPC   C2B13316   7.608  18.432   8.264
  799POPC   C3B13317   7.695  18.407   7.964
  799POPC   C4B13318   7.640  18.439   7.664
  800POPC   NC313319  38.489  35.372   9.464
  800POPC   PO413320  38.459  35.385   9.164
  800POPC   GL113321  38.417  35.375   8.864
  800POPC   GL213322  38.335  35.428   8.864
  800POPC   C1A13323  38.457  35.346   8.564
  800POPC   D2A13324  38.438  35.399   8.264
  800POPC   C3A13325  38.479  35.380   7.964
  800POPC   C4A13326  38.417  35.388   7.664
  800POPC   C1B13327  38.284  35.471   8.564
  800POPC   C2B13328  38.302  35.537   8.264
  800POPC   C3B13329  38.226  35.533   7.964
  800POPC   C4B13330  38.273  35.529   7.664
  801POPC   NC313331  32.201  29.949   9.464
  801POPC   PO413332  32.206  29.927   9.164
  801POPC   GL113333  32.227  29.942   8.864
  801POPC   GL213334  32.141  29.800   8.864
  801POPC   C1A13335  32.231  29.876   8.564
  801POPC   D2A13336  32.253  29.882   8.264
  801POPC   C3A13337  32.276  29.875   7.964
  801POPC   C4A13338  32.261  29.930   7.664
  801POPC   C1B13339  32.090  29.797   8.564
  801POPC   C2B13340  32.026  29.793   8.264
  801POPC   C3B13341  32.091  29.740   7.964
  801POPC   C4B13342  32.035  29.797   7.664
  802POPC   NC313343  37.650  19.102   9.464
  802POPC   PO413344  37.663  19.061   9.164
  802POPC   GL113345  37.715  19.041   8.864
  802POPC   GL213346  37.685  18.954   8.864
  802POPC   C1A13347  37.677  19.048   8.564
  802POPC   D2A13348  37.659  19.097   8.264
  802POPC   C3A13349  37.635  19.023   7.964
  802POPC   C4A13350  37.692  19.059   7.664
  802POPC   C1B13351  37.650  18.789   8.564
  802POPC   C2B13352  37.713  18.759   8.264
  802POPC   C3B13353  37.715  18.806   7.964
  802POPC   C4B13354  37.685  18.812   7.664
  803POPC   NC313355  40.789  10.520   9.464
  803POPC   PO413356  40.831  10.562   9.164
  803POPC   GL113357  40.818  10.548   8.864
  803POPC   GL213358  40.841  10.463   8.864
  803POPC   C1A13359  40.752  10.489   8.564
  803POPC   D2A13360  40.768  10.571   8.264
  803POPC   C3A13361  40.738  10.555   7.964
  803POPC   C4A13362  40.808  10.499   7.664
  803POPC   C1B13363  40.989  10.373   8.564
  803POPC   C2B13364  40.949  10.374   8.264
  803POPC   C3B13365  40.990  10.313   7.964
  803POPC   C4B13366  40.925  10.318   7.664
  804POPC   NC313367   9.724   2.788   9.464
  804POPC   PO413368   9.748   2.748   9.164
  804POPC   GL113369   9.768   2.770   8.864
  804POPC   GL213370   9.672   2.871   8.864
  804POPC   C1A13371   9.795   2.725   8.564
  804POPC   D2A13372   9.756   2.745   8.264
  804POPC   C3A13373   9.778   2.803   7.964
  804POPC   C4A13374   9.764   2.754   7.664
  804POPC   C1B13375   9.511   2.944   8.564
  804POPC   C2B13376   9.516   2.886   8.264
  804POPC   C3B13377   9.549   2.954   7.964
  804POPC   C4B13378   9.564   2.940   7.664
  805POPC   NC313379  11.265  44.657   9.464
  805POPC   PO413380  11.335  44.669   9.164
  805POPC   GL113381  11.272  44.704   8.864
  805POPC   GL213382  11.381  44.625   8.864
  805POPC   C1A13383  11.320  44.663   8.564
  805POPC   D2A13384  11.274  44.672   8.264
  805POPC   C3A13385  11.257  44.635   7.964
  805POPC   C4A13386  11.340  44.657   7.664
  805POPC   C1B13387  11.512  44.506   8.564
  805POPC   C2B13388  11.541  44.541   8.264
  805POPC   C3B13389  11.516  44.537   7.964
  805POPC   C4B13390  11.537  44.531   7.664
  806POPC   NC313391  19.085  12.826   9.464
  806POPC   PO413392  19.073  12.815   9.164
  806POPC   GL113393  19.076  12.889   8.864
  806POPC   GL213394  19.198  12.842   8.864
  806POPC   C1A13395  19.088  12.890   8.564
  806POPC   D2A13396  19.082  12.833   8.264
  806POPC   C3A13397  19.103  12.859   7.964
  806POPC   C4A13398  19.026  12.888   7.664
  806POPC   C1B13399  19.282  12.799   8.564
  806POPC   C2B13400  19.260  12.761   8.264
  806POPC   C3B13401  19.339  12.810   7.964
  806POPC   C4B13402  19.306  12.784   7.664
  807POPC   NC313403  12.080  37.633   9.464
  807POPC   PO413404  12.095  37.673   9.164
  807POPC   GL113405  12.073  37.654   8.864
  807POPC   GL213406  12.121  37.792   8.864
  807POPC   C1A13407  12.068  37.634   8.564
  807POPC   D2A13408  12.026  37.646   8.264
  807POPC   C3A13409  12.113  37.688   7.964
  807POPC   C4A13410  12.027  37.652   7.664
  807POPC   C1B13411  12.175  37.973   8.564
  807POPC   C2B13412  12.131  37.936   8.264
  807POPC   C3B13413  12.135  37.942   7.964
  807POPC   C4B13414  12.090  37.956   7.664
  808POPC   NC313415  26.815  36.085   9.464
  808POPC   PO413416  26.829  36.122   9.164
  808POPC   GL113417  26.803  36.083   8.864
  808POPC   GL213418  26.687  36.141   8.864
  808POPC   C1A13419  26.834  36.174   8.564
  808POPC   D2A13420  26.847  36.145   8.264
  808POPC   C3A13421  26.847  36.163   7.964
  808POPC   C4A13422  26.818  36.169   7.664
  808POPC   C1B13423  26.530  36.069   8.564
  808POPC   C2B13424  26.573  36.099   8.264
  808POPC   C3B13425  26.568  36.143   7.964
  808POPC   C4B13426  26.576  36.137   7.664
  809POPC   NC313427  22.964  26.080   9.464
  809POPC   PO413428  22.944  26.006   9.164
  809POPC   GL113429  22.949  26.049   8.864
  809POPC   GL213430  22.889  25.938   8.864
  809POPC   C1A13431  22.960  26.000   8.564
  809POPC   D2A13432  22.968  26.025   8.264
  809POPC   C3A13433  22.889  26.037   7.964
  809POPC   C4A13434  22.909  26.042   7.664
  809POPC   C1B13435  22.797  25.766   8.564
  809POPC   C2B13436  22.809  25.853   8.264
  809POPC   C3B13437  22.871  25.814   7.964
  809POPC   C4B13438  22.851  25.806   7.664
  810POPC   NC313439   3.501  19.811   9.464
  810POPC   PO413440   3.568  19.824   9.164
  810POPC   GL113441   3.562  19.884   8.864
  810POPC   GL213442   3.637  19.680   8.864
  810POPC   C1A13443   3.545  19.813   8.564
  810POPC   D2A13444   3.573  19.853   8.264
  810POPC   C3A13445   3.540  19.876   7.964
  810POPC   C4A13446   3.556  19.877   7.664
  810POPC   C1B13447   3.693  19.622   8.564
  810POPC   C2B13448   3.649  19.657   8.264
  810POPC   C3B13449   3.666  19.578   7.964
  810POPC   C4B13450   3.681  19.625   7.664
  811POPC   NC313451  29.142  23.712   9.464
  811POPC   PO413452  29.165  23.741   9.164
  811POPC   GL113453  29.133  23.739   8.864
  811POPC   GL213454  29.014  23.803   8.864
  811POPC   C1A13455  29.166  23.689   8.564
  811POPC   D2A13456  29.179  23.704   8.264
  811POPC   C3A13457  29.138  23.693   7.964
  811POPC   C4A13458  29.180  23.754   7.664
  811POPC   C1B13459  28.924  23.898   8.564
  811POPC   C2B13460  28.953  23.922   8.264
  811POPC   C3B13461  28.970  23.860   7.964
  811POPC   C4B13462  28.922  23.902   7.664
  812POPC   NC313463   2.786  11.266   9.464
  812POPC   PO413464   2.769  11.288   9.164
  812POPC   GL113465   2.729  11.340   8.864
  812POPC   GL213466   2.846  11.253   8.864
  812POPC   C1A13467   2.748  11.338   8.564
  812POPC   D2A13468   2.742  11.256   8.264
  812POPC   C3A13469   2.727  11.320   7.964
  812POPC   C4A13470   2.725  11.347   7.664
  812POPC   C1B13471   2.992  11.123   8.564
  812POPC   C2B13472   2.955  11.152   8.264
  812POPC   C3B13473   2.962  11.194   7.964
  812POPC   C4B13474   3.018  11.198   7.664
  813POPC   NC313475  22.180  10.567   9.464
  813POPC   PO413476  22.113  10.574   9.164
  813POPC   GL113477  22.210  10.522   8.864
  813POPC   GL213478  22.162  10.446   8.864
  813POPC   C1A13479  22.200  10.509   8.564
  813POPC   D2A13480  22.177  10.539   8.264
  813POPC   C3A13481  22.156  10.479   7.964
  813POPC   C4A13482  22.155  10.504   7.664
  813POPC   C1B13483  22.205  10.230   8.564
  813POPC   C2B13484  22.181  10.243   8.264
  813POPC   C3B13485  22.143  10.240   7.964
  813POPC   C4B13486  22.147  10.253   7.664
  814POPC   NC313487   2.756  23.697   9.464
  814POPC   PO413488   2.756  23.728   9.164
  814POPC   GL113489   2.785  23.682   8.864
  814POPC   GL213490   2.727  23.791   8.864
  814POPC   C1A13491   2.802  23.675   8.564
  814POPC   D2A13492   2.766  23.762   8.264
  814POPC   C3A13493   2.807  23.676   7.964
  814POPC   C4A13494   2.716  23.681   7.664
  814POPC   C1B13495   2.756  23.956   8.564
  814POPC   C2B13496   2.778  23.932   8.264
  814POPC   C3B13497   2.746  23.983   7.964
  814POPC   C4B13498   2.744  23.989   7.664
  815POPC   NC313499  15.930  15.988   9.464
  815POPC   PO413500  15.952  15.974   9.164
  815POPC   GL113501  15.978  15.942   8.864
  815POPC   GL213502  15.925  15.792   8.864
  815POPC   C1A13503  15.972  15.974   8.564
  815POPC   D2A13504  15.995  15.956   8.264
  815POPC   C3A13505  15.968  15.948   7.964
  815POPC   C4A13506  15.925  15.908   7.664
  815POPC   C1B13507  15.895  15.682   8.564
  815POPC   C2B13508  15.947  15.723   8.264
  815POPC   C3B13509  15.899  15.686   7.964
  815POPC   C4B13510  15.932  15.668   7.664
  816POPC   NC313511  32.267  25.270   9.464
  816POPC   PO413512  32.245  25.261   9.164
  816POPC   GL113513  32.209  25.302   8.864
  816POPC   GL213514  32.184  25.349   8.864
  816POPC   C1A13515  32.257  25.224   8.564
  816POPC   D2A13516  32.258  25.249   8.264
  816POPC   C3A13517  32.214  25.253   7.964
  816POPC   C4A13518  32.201  25.249   7.664
  816POPC   C1B13519  32.088  25.406   8.564
  816POPC   C2B13520  32.020  25.437   8.264
  816POPC   C3B13521  32.030  25.419   7.964
  816POPC   C4B13522  32.058  25.444   7.664
  817POPC   NC313523  44.629  23.693   9.464
  817POPC   PO413524  44.671  23.725   9.164
  817POPC   GL113525  44.662  23.700   8.864
  817POPC   GL213526  44.590  23.551   8.864
  817POPC   C1A13527  44.686  23.700   8.564
  817POPC   D2A13528  44.672  23.757   8.264
  817POPC   C3A13529  44.615  23.701   7.964
  817POPC   C4A13530  44.657  23.696   7.664
  817POPC   C1B13531  44.537  23.479   8.564
  817POPC   C2B13532  44.531  23.493   8.264
  817POPC   C3B13533  44.597  23.517   7.964
  817POPC   C4B13534  44.526  23.485   7.664
  818POPC   NC313535  30.712  40.018   9.464
  818POPC   PO413536  30.701  39.977   9.164
  818POPC   GL113537  30.728  39.962   8.864
  818POPC   GL213538  30.604  40.039   8.864
  818POPC   C1A13539  30.679  40.020   8.564
  818POPC   D2A13540  30.666  40.045   8.264
  818POPC   C3A13541  30.721  39.989   7.964
  818POPC   C4A13542  30.699  40.013   7.664
  818POPC   C1B13543  30.461  40.013   8.564
  818POPC   C2B13544  30.431  39.965   8.264
  818POPC   C3B13545  30.407  39.988   7.964
  818POPC   C4B13546  30.414  39.958   7.664
  819POPC   NC313547  19.013  33.841   9.464
  819POPC   PO413548  19.089  33.808   9.164
  819POPC   GL113549  19.041  33.849   8.864
  819POPC   GL213550  18.989  33.679   8.864
  819POPC   C1A13551  19.015  33.822   8.564
  819POPC   D2A13552  19.011  33.770   8.264
  819POPC   C3A13553  19.039  33.817   7.964
  819POPC   C4A13554  19.040  33.781   7.664
  819POPC   C1B13555  18.947  33.525   8.564
  819POPC   C2B13556  18.934  33.552   8.264
  819POPC   C3B13557  18.934  33.522   7.964
  819POPC   C4B13558  18.938  33.605   7.664
  820POPC   NC313559  20.598  32.255   9.464
  820POPC   PO413560  20.659  32.244   9.164
  820POPC   GL113561  20.572  32.256   8.864
  820POPC   GL213562  20.464  32.310   8.864
  820POPC   C1A13563  20.611  32.251   8.564
  820POPC   D2A13564  20.626  32.271   8.264
  820POPC   C3A13565  20.656  32.216   7.964
  820POPC   C4A13566  20.601  32.235   7.664
  820POPC   C1B13567  20.380  32.319   8.564
  820POPC   C2B13568  20.412  32.350   8.264
  820POPC   C3B13569  20.390  32.397   7.964
  820POPC   C4B13570  20.416  32.391   7.664
  821POPC   NC313571  18.275  25.292   9.464
  821POPC   PO413572  18.266  25.243   9.164
  821POPC   GL113573  18.235  25.222   8.864
  821POPC   GL213574  18.293  25.146   8.864
  821POPC   C1A13575  18.289  25.232   8.564
  821POPC   D2A13576  18.309  25.300   8.264
  821POPC   C3A13577  18.241  25.313   7.964
  821POPC   C4A13578  18.321  25.219   7.664
  821POPC   C1B13579  18.333  25.041   8.564
  821POPC   C2B13580  18.290  25.048   8.264
  821POPC   C3B13581  18.293  25.020   7.964
  821POPC   C4B13582  18.326  24.989   7.664
  822POPC   NC313583  10.549  40.806   9.464
  822POPC   PO413584  10.520  40.817   9.164
  822POPC   GL113585  10.519  40.818   8.864
  822POPC   GL213586  10.606  40.802   8.864
  822POPC   C1A13587  10.500  40.824   8.564
  822POPC   D2A13588  10.485  40.733   8.264
  822POPC   C3A13589  10.478  40.737   7.964
  822POPC   C4A13590  10.555  40.811   7.664
  822POPC   C1B13591  10.768  40.812   8.564
  822POPC   C2B13592  10.798  40.768   8.264
  822POPC   C3B13593  10.736  40.810   7.964
  822POPC   C4B13594  10.798  40.731   7.664
  823POPC   NC313595  22.191  26.803   9.464
  823POPC   PO413596  22.193  26.784   9.164
  823POPC   GL113597  22.212  26.815   8.864
  823POPC   GL213598  22.213  26.940   8.864
  823POPC   C1A13599  22.210  26.795   8.564
  823POPC   D2A13600  22.118  26.783   8.264
  823POPC   C3A13601  22.121  26.832   7.964
  823POPC   C4A13602  22.191  26.848   7.664
  823POPC   C1B13603  22.226  27.093   8.564
  823POPC   C2B13604  22.264  27.009   8.264
  823POPC   C3B13605  22.250  27.053   7.964
  823POPC   C4B13606  22.244  27.029   7.664
  824POPC   NC313607   8.217  36.867   9.464
  824POPC   PO413608   8.165  36.861   9.164
  824POPC   GL113609   8.213  36.893   8.864
  824POPC   GL213610   8.196  36.830   8.864
  824POPC   C1A13611   8.150  36.932   8.564
  824POPC   D2A13612   8.188  36.922   8.264
  824POPC   C3A13613   8.191  36.948   7.964
  824POPC   C4A13614   8.163  36.908   7.664
  824POPC   C1B13615   8.123  36.696   8.564
  824POPC   C2B13616   8.144  36.629   8.264
  824POPC   C3B13617   8.150  36.699   7.964
  824POPC   C4B13618   8.175  36.704   7.664
  825POPC   NC313619  43.117  19.053   9.464
  825POPC   PO413620  43.132  19.016   9.164
  825POPC   GL113621  43.086  19.020   8.864
  825POPC   GL213622  43.018  19.010   8.864
  825POPC   C1A13623  43.154  19.036   8.564
  825POPC   D2A13624  43.151  19.055   8.264
  825POPC   C3A13625  43.158  19.047   7.964
  825POPC   C4A13626  43.072  19.025   7.664
  825POPC   C1B13627  42.893  19.014   8.564
  825POPC   C2B13628  42.829  18.990   8.264
  825POPC   C3B13629  42.881  18.989   7.964
  825POPC   C4B13630  42.858  18.985   7.664
  826POPC   NC313631  20.600  20.598   9.464
  826POPC   PO413632  20.609  20.642   9.164
  826POPC   GL113633  20.572  20.607   8.864
  826POPC   GL213634  20.745  20.637   8.864
  826POPC   C1A13635  20.569  20.635   8.564
  826POPC   D2A13636  20.585  20.653   8.264
  826POPC   C3A13637  20.648  20.631   7.964
  826POPC   C4A13638  20.584  20.610   7.664
  826POPC   C1B13639  20.835  20.713   8.564
  826POPC   C2B13640  20.790  20.802   8.264
  826POPC   C3B13641  20.839  20.776   7.964
  826POPC   C4B13642  20.849  20.721   7.664
  827POPC   NC313643  12.048   8.203   9.464
  827POPC   PO413644  12.099   8.216   9.164
  827POPC   GL113645  12.123   8.156   8.864
  827POPC   GL213646  12.110   8.345   8.864
  827POPC   C1A13647  12.062   8.180   8.564
  827POPC   D2A13648  12.101   8.200   8.264
  827POPC   C3A13649  12.030   8.188   7.964
  827POPC   C4A13650  12.106   8.174   7.664
  827POPC   C1B13651  12.200   8.376   8.564
  827POPC   C2B13652  12.196   8.371   8.264
  827POPC   C3B13653  12.171   8.464   7.964
  827POPC   C4B13654  12.207   8.388   7.664
  828POPC   NC313655  39.197  19.800   9.464
  828POPC   PO413656  39.186  19.850   9.164
  828POPC   GL113657  39.251  19.792   8.864
  828POPC   GL213658  39.381  19.843   8.864
  828POPC   C1A13659  39.207  19.869   8.564
  828POPC   D2A13660  39.247  19.844   8.264
  828POPC   C3A13661  39.268  19.878   7.964
  828POPC   C4A13662  39.194  19.873   7.664
  828POPC   C1B13663  39.462  19.869   8.564
  828POPC   C2B13664  39.478  19.902   8.264
  828POPC   C3B13665  39.483  19.875   7.964
  828POPC   C4B13666  39.468  19.902   7.664
  829POPC   NC313667  15.137  15.920   9.464
  829POPC   PO413668  15.146  15.967   9.164
  829POPC   GL113669  15.159  15.910   8.864
  829POPC   GL213670  15.169  15.816   8.864
  829POPC   C1A13671  15.163  15.982   8.564
  829POPC   D2A13672  15.155  15.988   8.264
  829POPC   C3A13673  15.155  15.906   7.964
  829POPC   C4A13674  15.152  15.947   7.664
  829POPC   C1B13675  15.184  15.733   8.564
  829POPC   C2B13676  15.211  15.733   8.264
  829POPC   C3B13677  15.211  15.705   7.964
  829POPC   C4B13678  15.127  15.728   7.664
  830POPC   NC313679  19.853  36.167   9.464
  830POPC   PO413680  19.825  36.082   9.164
  830POPC   GL113681  19.850  36.096   8.864
  830POPC   GL213682  19.927  36.159   8.864
  830POPC   C1A13683  19.824  36.134   8.564
  830POPC   D2A13684  19.824  36.120   8.264
  830POPC   C3A13685  19.883  36.091   7.964
  830POPC   C4A13686  19.879  36.088   7.664
  830POPC   C1B13687  20.045  36.273   8.564
  830POPC   C2B13688  20.015  36.255   8.264
  830POPC   C3B13689  20.074  36.309   7.964
  830POPC   C4B13690  20.023  36.262   7.664
  831POPC   NC313691  23.683  43.859   9.464
  831POPC   PO413692  23.690  43.874   9.164
  831POPC   GL113693  23.703  43.877   8.864
  831POPC   GL213694  23.822  44.003   8.864
  831POPC   C1A13695  23.669  43.848   8.564
  831POPC   D2A13696  23.763  43.922   8.264
  831POPC   C3A13697  23.753  43.936   7.964
  831POPC   C4A13698  23.739  43.935   7.664
  831POPC   C1B13699  23.890  44.075   8.564
  831POPC   C2B13700  23.917  44.058   8.264
  831POPC   C3B13701  23.917  44.051   7.964
  831POPC   C4B13702  23.895  44.048   7.664
  832POPC   NC313703  40.778  33.074   9.464
  832POPC   PO413704  40.813  33.068   9.164
  832POPC   GL113705  40.752  33.041   8.864
  832POPC   GL213706  40.654  33.017   8.864
  832POPC   C1A13707  40.788  33.018   8.564
  832POPC   D2A13708  40.755  33.013   8.264
  832POPC   C3A13709  40.741  33.041   7.964
  832POPC   C4A13710  40.734  33.060   7.664
  832POPC   C1B13711  40.501  32.950   8.564
  832POPC   C2B13712  40.570  32.896   8.264
  832POPC   C3B13713  40.498  32.902   7.964
  832POPC   C4B13714  40.572  32.973   7.664
  833POPC   NC313715  32.284  16.763   9.464
  833POPC   PO413716  32.278  16.775   9.164
  833POPC   GL113717  32.239  16.776   8.864
  833POPC   GL213718  32.348  16.796   8.864
  833POPC   C1A13719  32.297  16.773   8.564
  833POPC   D2A13720  32.264  16.742   8.264
  833POPC   C3A13721  32.257  16.758   7.964
  833POPC   C4A13722  32.271  16.767   7.664
  833POPC   C1B13723  32.478  16.923   8.564
  833POPC   C2B13724  32.458  16.904   8.264
  833POPC   C3B13725  32.489  16.879   7.964
  833POPC   C4B13726  32.455  16.894   7.664
  834POPC   NC313727   4.274  25.291   9.464
  834POPC   PO413728   4.289  25.227   9.164
  834POPC   GL113729   4.316  25.288   8.864
  834POPC   GL213730   4.358  25.160   8.864
  834POPC   C1A13731   4.365  25.249   8.564
  834POPC   D2A13732   4.275  25.240   8.264
  834POPC   C3A13733   4.361  25.298   7.964
  834POPC   C4A13734   4.311  25.249   7.664
  834POPC   C1B13735   4.407  25.019   8.564
  834POPC   C2B13736   4.412  25.063   8.264
  834POPC   C3B13737   4.330  25.018   7.964
  834POPC   C4B13738   4.389  25.061   7.664
  835POPC   NC313739  40.765   9.736   9.464
  835POPC   PO413740  40.827   9.705   9.164
  835POPC   GL113741  40.822   9.778   8.864
  835POPC   GL213742  40.881   9.662   8.864
  835POPC   C1A13743  40.785   9.782   8.564
  835POPC   D2A13744  40.781   9.790   8.264
  835POPC   C3A13745  40.812   9.735   7.964
  835POPC   C4A13746  40.768   9.737   7.664
  835POPC   C1B13747  40.922   9.529   8.564
  835POPC   C2B13748  40.950   9.569   8.264
  835POPC   C3B13749  40.861   9.563   7.964
  835POPC   C4B13750  40.879   9.538   7.664
  836POPC   NC313751   6.640  15.145   9.464
  836POPC   PO413752   6.653  15.209   9.164
  836POPC   GL113753   6.612  15.220   8.864
  836POPC   GL213754   6.799  15.185   8.864
  836POPC   C1A13755   6.636  15.183   8.564
  836POPC   D2A13756   6.604  15.162   8.264
  836POPC   C3A13757   6.627  15.159   7.964
  836POPC   C4A13758   6.673  15.171   7.664
  836POPC   C1B13759   6.866  15.087   8.564
  836POPC   C2B13760   6.862  15.127   8.264
  836POPC   C3B13761   6.857  15.144   7.964
  836POPC   C4B13762   6.891  15.143   7.664
  837POPC   NC313763   0.455  20.590   9.464
  837POPC   PO413764   0.426  20.588   9.164
  837POPC   GL113765   0.470  20.561   8.864
  837POPC   GL213766   0.372  20.575   8.864
  837POPC   C1A13767   0.429  20.605   8.564
  837POPC   D2A13768   0.409  20.563   8.264
  837POPC   C3A13769   0.480  20.590   7.964
  837POPC   C4A13770   0.440  20.647   7.664
  837POPC   C1B13771   0.238  20.504   8.564
  837POPC   C2B13772   0.280  20.420   8.264
  837POPC   C3B13773   0.269  20.455   7.964
  837POPC   C4B13774   0.190  20.432   7.664
  838POPC   NC313775  35.392  26.824   9.464
  838POPC   PO413776  35.312  26.835   9.164
  838POPC   GL113777  35.336  26.778   8.864
  838POPC   GL213778  35.209  26.814   8.864
  838POPC   C1A13779  35.387  26.828   8.564
  838POPC   D2A13780  35.351  26.775   8.264
  838POPC   C3A13781  35.366  26.776   7.964
  838POPC   C4A13782  35.366  26.799   7.664
  838POPC   C1B13783  35.083  26.714   8.564
  838POPC   C2B13784  35.164  26.676   8.264
  838POPC   C3B13785  35.077  26.752   7.964
  838POPC   C4B13786  35.106  26.678   7.664
  839POPC   NC313787  20.595  12.121   9.464
  839POPC   PO413788  20.597  12.073   9.164
  839POPC   GL113789  20.583  12.120   8.864
  839POPC   GL213790  20.586  11.968   8.864
  839POPC   C1A13791  20.637  12.102   8.564
  839POPC   D2A13792  20.574  12.086   8.264
  839POPC   C3A13793  20.641  12.107   7.964
  839POPC   C4A13794  20.613  12.067   7.664
  839POPC   C1B13795  20.556  11.866   8.564
  839POPC   C2B13796  20.530  11.799   8.264
  839POPC   C3B13797  20.550  11.845   7.964
  839POPC   C4B13798  20.613  11.807   7.664
  840POPC   NC313799   6.655  19.824   9.464
  840POPC   PO413800   6.669  19.873   9.164
  840POPC   GL113801   6.612  19.836   8.864
  840POPC   GL213802   6.578  19.708   8.864
  840POPC   C1A13803   6.654  19.880   8.564
  840POPC   D2A13804   6.673  19.788   8.264
  840POPC   C3A13805   6.657  19.862   7.964
  840POPC   C4A13806   6.641  19.884   7.664
  840POPC   C1B13807   6.572  19.580   8.564
  840POPC   C2B13808   6.576  19.559   8.264
  840POPC   C3B13809   6.640  19.540   7.964
  840POPC   C4B13810   6.588  19.586   7.664
  841POPC   NC313811  44.691  30.667   9.464
  841POPC   PO413812  44.692  30.738   9.164
  841POPC   GL113813  44.619  30.687   8.864
  841POPC   GL213814  44.791  30.780   8.864
  841POPC   C1A13815  44.666  30.668   8.564
  841POPC   D2A13816  44.665  30.741   8.264
  841POPC   C3A13817  44.624  30.682   7.964
  841POPC   C4A13818  44.647  30.718   7.664
  841POPC   C1B13819  44.869  30.910   8.564
  841POPC   C2B13820  44.862  30.894   8.264
  841POPC   C3B13821  44.812  30.928   7.964
  841POPC   C4B13822  44.823  30.835   7.664
  842POPC   NC313823  38.410  33.847   9.464
  842POPC   PO413824  38.429  33.765   9.164
  842POPC   GL113825  38.408  33.779   8.864
  842POPC   GL213826  38.560  33.882   8.864
  842POPC   C1A13827  38.455  33.830   8.564
  842POPC   D2A13828  38.484  33.762   8.264
  842POPC   C3A13829  38.456  33.827   7.964
  842POPC   C4A13830  38.433  33.777   7.664
  842POPC   C1B13831  38.566  34.062   8.564
  842POPC   C2B13832  38.535  34.053   8.264
  842POPC   C3B13833  38.588  34.028   7.964
  842POPC   C4B13834  38.546  33.990   7.664
  843POPC   NC313835  35.382  19.055   9.464
  843POPC   PO413836  35.343  19.088   9.164
  843POPC   GL113837  35.343  19.052   8.864
  843POPC   GL213838  35.508  19.020   8.864
  843POPC   C1A13839  35.385  19.009   8.564
  843POPC   D2A13840  35.340  19.070   8.264
  843POPC   C3A13841  35.315  19.051   7.964
  843POPC   C4A13842  35.341  19.063   7.664
  843POPC   C1B13843  35.537  18.936   8.564
  843POPC   C2B13844  35.599  18.911   8.264
  843POPC   C3B13845  35.598  18.970   7.964
  843POPC   C4B13846  35.558  18.978   7.664
  844POPC   NC313847   1.177  26.814   9.464
  844POPC   PO413848   1.245  26.848   9.164
  844POPC   GL113849   1.232  26.779   8.864
  844POPC   GL213850   1.135  26.746   8.864
  844POPC   C1A13851   1.259  26.841   8.564
  844POPC   D2A13852   1.252  26.842   8.264
  844POPC   C3A13853   1.239  26.804   7.964
  844POPC   C4A13854   1.173  26.840   7.664
  844POPC   C1B13855   0.981  26.715   8.564
  844POPC   C2B13856   0.969  26.634   8.264
  844POPC   C3B13857   1.036  26.671   7.964
  844POPC   C4B13858   1.027  26.718   7.664
  845POPC   NC313859  25.237  22.210   9.464
  845POPC   PO413860  25.233  22.124   9.164
  845POPC   GL113861  25.268  22.189   8.864
  845POPC   GL213862  25.350  21.996   8.864
  845POPC   C1A13863  25.245  22.158   8.564
  845POPC   D2A13864  25.227  22.149   8.264
  845POPC   C3A13865  25.289  22.143   7.964
  845POPC   C4A13866  25.307  22.146   7.664
  845POPC   C1B13867  25.356  21.934   8.564
  845POPC   C2B13868  25.321  21.928   8.264
  845POPC   C3B13869  25.379  21.878   7.964
  845POPC   C4B13870  25.340  21.938   7.664
  846POPC   NC313871  15.134  21.371   9.464
  846POPC   PO413872  15.156  21.416   9.164
  846POPC   GL113873  15.151  21.364   8.864
  846POPC   GL213874  15.061  21.349   8.864
  846POPC   C1A13875  15.136  21.346   8.564
  846POPC   D2A13876  15.220  21.346   8.264
  846POPC   C3A13877  15.169  21.420   7.964
  846POPC   C4A13878  15.170  21.413   7.664
  846POPC   C1B13879  14.966  21.384   8.564
  846POPC   C2B13880  14.928  21.316   8.264
  846POPC   C3B13881  14.903  21.379   7.964
  846POPC   C4B13882  14.977  21.312   7.664
  847POPC   NC313883  33.042  14.410   9.464
  847POPC   PO413884  32.976  14.418   9.164
  847POPC   GL113885  32.976  14.389   8.864
  847POPC   GL213886  32.939  14.520   8.864
  847POPC   C1A13887  33.019  14.369   8.564
  847POPC   D2A13888  32.982  14.417   8.264
  847POPC   C3A13889  32.990  14.401   7.964
  847POPC   C4A13890  33.074  14.379   7.664
  847POPC   C1B13891  32.857  14.595   8.564
  847POPC   C2B13892  32.886  14.538   8.264
  847POPC   C3B13893  32.793  14.550   7.964
  847POPC   C4B13894  32.868  14.580   7.664
  848POPC   NC313895  22.909  39.265   9.464
  848POPC   PO413896  22.901  39.242   9.164
  848POPC   GL113897  22.903  39.281   8.864
  848POPC   GL213898  22.809  39.318   8.864
  848POPC   C1A13899  22.903  39.264   8.564
  848POPC   D2A13900  22.969  39.222   8.264
  848POPC   C3A13901  22.915  39.221   7.964
  848POPC   C4A13902  22.907  39.187   7.664
  848POPC   C1B13903  22.713  39.273   8.564
  848POPC   C2B13904  22.679  39.273   8.264
  848POPC   C3B13905  22.668  39.295   7.964
  848POPC   C4B13906  22.695  39.284   7.664
  849POPC   NC313907   3.500  14.432   9.464
  849POPC   PO413908   3.590  14.438   9.164
  849POPC   GL113909   3.519  14.370   8.864
  849POPC   GL213910   3.503  14.332   8.864
  849POPC   C1A13911   3.497  14.449   8.564
  849POPC   D2A13912   3.547  14.364   8.264
  849POPC   C3A13913   3.524  14.426   7.964
  849POPC   C4A13914   3.540  14.355   7.664
  849POPC   C1B13915   3.480  14.184   8.564
  849POPC   C2B13916   3.386  14.213   8.264
  849POPC   C3B13917   3.424  14.212   7.964
  849POPC   C4B13918   3.417  14.132   7.664
  850POPC   NC313919  13.596  40.796   9.464
  850POPC   PO413920  13.600  40.776   9.164
  850POPC   GL113921  13.638  40.829   8.864
  850POPC   GL213922  13.718  40.822   8.864
  850POPC   C1A13923  13.647  40.773   8.564
  850POPC   D2A13924  13.625  40.823   8.264
  850POPC   C3A13925  13.613  40.752   7.964
  850POPC   C4A13926  13.629  40.749   7.664
  850POPC   C1B13927  13.835  40.944   8.564
  850POPC   C2B13928  13.809  40.871   8.264
  850POPC   C3B13929  13.807  40.960   7.964
  850POPC   C4B13930  13.884  40.868   7.664
  851POPC   NC313931   8.989  13.630   9.464
  851POPC   PO413932   8.953  13.615   9.164
  851POPC   GL113933   8.962  13.669   8.864
  851POPC   GL213934   8.963  13.511   8.864
  851POPC   C1A13935   8.998  13.618   8.564
  851POPC   D2A13936   8.924  13.581   8.264
  851POPC   C3A13937   9.003  13.587   7.964
  851POPC   C4A13938   8.967  13.648   7.664
  851POPC   C1B13939   8.955  13.400   8.564
  851POPC   C2B13940   9.005  13.419   8.264
  851POPC   C3B13941   9.039  13.420   7.964
  851POPC   C4B13942   9.009  13.385   7.664
  852POPC   NC313943  23.707  36.876   9.464
  852POPC   PO413944  23.733  36.854   9.164
  852POPC   GL113945  23.758  36.907   8.864
  852POPC   GL213946  23.573  36.925   8.864
  852POPC   C1A13947  23.741  36.944   8.564
  852POPC   D2A13948  23.667  36.951   8.264
  852POPC   C3A13949  23.681  36.858   7.964
  852POPC   C4A13950  23.688  36.928   7.664
  852POPC   C1B13951  23.468  36.828   8.564
  852POPC   C2B13952  23.515  36.833   8.264
  852POPC   C3B13953  23.477  36.810   7.964
  852POPC   C4B13954  23.447  36.899   7.664
  853POPC   NC313955  10.540  37.678   9.464
  853POPC   PO413956  10.552  37.630   9.164
  853POPC   GL113957  10.477  37.717   8.864
  853POPC   GL213958  10.404  37.554   8.864
  853POPC   C1A13959  10.512  37.671   8.564
  853POPC   D2A13960  10.523  37.684   8.264
  853POPC   C3A13961  10.574  37.670   7.964
  853POPC   C4A13962  10.546  37.718   7.664
  853POPC   C1B13963  10.331  37.532   8.564
  853POPC   C2B13964  10.297  37.538   8.264
  853POPC   C3B13965  10.291  37.529   7.964
  853POPC   C4B13966  10.365  37.473   7.664
  854POPC   NC313967  34.580   1.235   9.464
  854POPC   PO413968  34.550   1.247   9.164
  854POPC   GL113969  34.617   1.166   8.864
  854POPC   GL213970  34.628   1.276   8.864
  854POPC   C1A13971  34.618   1.229   8.564
  854POPC   D2A13972  34.580   1.260   8.264
  854POPC   C3A13973  34.623   1.262   7.964
  854POPC   C4A13974  34.603   1.196   7.664
  854POPC   C1B13975  34.746   1.361   8.564
  854POPC   C2B13976  34.786   1.421   8.264
  854POPC   C3B13977  34.786   1.410   7.964
  854POPC   C4B13978  34.722   1.349   7.664
  855POPC   NC313979  13.641  29.949   9.464
  855POPC   PO413980  13.664  29.879   9.164
  855POPC   GL113981  13.580  29.968   8.864
  855POPC   GL213982  13.581  30.063   8.864
  855POPC   C1A13983  13.593  29.887   8.564
  855POPC   D2A13984  13.672  29.951   8.264
  855POPC   C3A13985  13.675  29.950   7.964
  855POPC   C4A13986  13.595  29.908   7.664
  855POPC   C1B13987  13.638  30.211   8.564
  855POPC   C2B13988  13.606  30.150   8.264
  855POPC   C3B13989  13.590  30.126   7.964
  855POPC   C4B13990  13.653  30.203   7.664
  856POPC   NC313991  27.555  18.266   9.464
  856POPC   PO413992  27.611  18.326   9.164
  856POPC   GL113993  27.566  18.310   8.864
  856POPC   GL213994  27.648  18.217   8.864
  856POPC   C1A13995  27.611  18.258   8.564
  856POPC   D2A13996  27.595  18.283   8.264
  856POPC   C3A13997  27.580  18.326   7.964
  856POPC   C4A13998  27.615  18.260   7.664
  856POPC   C1B13999  27.799  18.121   8.564
  856POPC   C2B14000  27.797  18.114   8.264
  856POPC   C3B14001  27.786  18.089   7.964
  856POPC   C4B14002  27.798  18.084   7.664
  857POPC   NC314003   8.221  22.193   9.464
  857POPC   PO414004   8.232  22.131   9.164
  857POPC   GL114005   8.189  22.152   8.864
  857POPC   GL214006   8.196  21.999   8.864
  857POPC   C1A14007   8.235  22.206   8.564
  857POPC   D2A14008   8.185  22.204   8.264
  857POPC   C3A14009   8.161  22.125   7.964
  857POPC   C4A14010   8.215  22.141   7.664
  857POPC   C1B14011   8.262  21.962   8.564
  857POPC   C2B14012   8.322  21.896   8.264
  857POPC   C3B14013   8.252  21.888   7.964
  857POPC   C4B14014   8.250  21.895   7.664
  858POPC   NC314015   4.304  44.683   9.464
  858POPC   PO414016   4.366  44.701   9.164
  858POPC   GL114017   4.334  44.693   8.864
  858POPC   GL214018   4.378  44.742   8.864
  858POPC   C1A14019   4.350  44.670   8.564
  858POPC   D2A14020   4.326  44.623   8.264
  858POPC   C3A14021   4.311  44.617   7.964
  858POPC   C4A14022   4.359  44.674   7.664
  858POPC   C1B14023   4.328  44.907   8.564
  858POPC   C2B14024   4.388  44.955   8.264
  858POPC   C3B14025   4.313  44.944   7.964
  858POPC   C4B14026   4.378  44.861   7.664
  859POPC   NC314027   1.953  27.562   9.464
  859POPC   PO414028   2.033  27.629   9.164
  859POPC   GL114029   1.973  27.616   8.864
  859POPC   GL214030   2.137  27.559   8.864
  859POPC   C1A14031   1.948  27.546   8.564
  859POPC   D2A14032   2.001  27.554   8.264
  859POPC   C3A14033   2.036  27.576   7.964
  859POPC   C4A14034   2.006  27.565   7.664
  859POPC   C1B14035   2.197  27.466   8.564
  859POPC   C2B14036   2.211  27.403   8.264
  859POPC   C3B14037   2.233  27.445   7.964
  859POPC   C4B14038   2.230  27.431   7.664
  860POPC   NC314039  19.854   3.558   9.464
  860POPC   PO414040  19.840   3.563   9.164
  860POPC   GL114041  19.827   3.494   8.864
  860POPC   GL214042  19.804   3.683   8.864
  860POPC   C1A14043  19.812   3.534   8.564
  860POPC   D2A14044  19.880   3.571   8.264
  860POPC   C3A14045  19.862   3.505   7.964
  860POPC   C4A14046  19.828   3.522   7.664
  860POPC   C1B14047  19.786   3.830   8.564
  860POPC   C2B14048  19.854   3.823   8.264
  860POPC   C3B14049  19.790   3.820   7.964
  860POPC   C4B14050  19.806   3.781   7.664
  861POPC   NC314051  43.922  41.584   9.464
  861POPC   PO414052  43.915  41.545   9.164
  861POPC   GL114053  43.897  41.589   8.864
  861POPC   GL214054  43.952  41.657   8.864
  861POPC   C1A14055  43.916  41.583   8.564
  861POPC   D2A14056  43.916  41.527   8.264
  861POPC   C3A14057  43.931  41.553   7.964
  861POPC   C4A14058  43.872  41.590   7.664
  861POPC   C1B14059  44.058  41.699   8.564
  861POPC   C2B14060  44.057  41.708   8.264
  861POPC   C3B14061  44.078  41.688   7.964
  861POPC   C4B14062  44.068  41.699   7.664
  862POPC   NC314063   2.811  30.693   9.464
  862POPC   PO414064   2.812  30.726   9.164
  862POPC   GL114065   2.718  30.716   8.864
  862POPC   GL214066   2.598  30.618   8.864
  862POPC   C1A14067   2.795  30.743   8.564
  862POPC   D2A14068   2.797  30.746   8.264
  862POPC   C3A14069   2.723  30.700   7.964
  862POPC   C4A14070   2.763  30.649   7.664
  862POPC   C1B14071   2.560  30.655   8.564
  862POPC   C2B14072   2.495  30.633   8.264
  862POPC   C3B14073   2.496  30.677   7.964
  862POPC   C4B14074   2.487  30.639   7.664
  863POPC   NC314075  12.056  38.446   9.464
  863POPC   PO414076  12.042  38.505   9.164
  863POPC   GL114077  12.070  38.407   8.864
  863POPC   GL214078  12.102  38.330   8.864
  863POPC   C1A14079  12.029  38.414   8.564
  863POPC   D2A14080  12.063  38.477   8.264
  863POPC   C3A14081  12.038  38.468   7.964
  863POPC   C4A14082  12.089  38.437   7.664
  863POPC   C1B14083  12.194  38.252   8.564
  863POPC   C2B14084  12.229  38.192   8.264
  863POPC   C3B14085  12.167  38.210   7.964
  863POPC   C4B14086  12.148  38.236   7.664
  864POPC   NC314087  41.557  21.345   9.464
  864POPC   PO414088  41.543  21.357   9.164
  864POPC   GL114089  41.534  21.407   8.864
  864POPC   GL214090  41.588  21.466   8.864
  864POPC   C1A14091  41.549  21.361   8.564
  864POPC   D2A14092  41.567  21.371   8.264
  864POPC   C3A14093  41.543  21.391   7.964
  864POPC   C4A14094  41.560  21.399   7.664
  864POPC   C1B14095  41.644  21.600   8.564
  864POPC   C2B14096  41.655  21.579   8.264
  864POPC   C3B14097  41.605  21.582   7.964
  864POPC   C4B14098  41.658  21.597   7.664
  865POPC   NC314099   5.071  23.678   9.464
  865POPC   PO414100   5.095  23.698   9.164
  865POPC   GL114101   5.114  23.695   8.864
  865POPC   GL214102   5.185  23.681   8.864
  865POPC   C1A14103   5.053  23.689   8.564
  865POPC   D2A14104   5.051  23.687   8.264
  865POPC   C3A14105   5.073  23.710   7.964
  865POPC   C4A14106   5.058  23.731   7.664
  865POPC   C1B14107   5.294  23.581   8.564
  865POPC   C2B14108   5.280  23.567   8.264
  865POPC   C3B14109   5.282  23.595   7.964
  865POPC   C4B14110   5.286  23.549   7.664
  866POPC   NC314111   4.359  43.850   9.464
  866POPC   PO414112   4.267  43.931   9.164
  866POPC   GL114113   4.284  43.841   8.864
  866POPC   GL214114   4.193  43.797   8.864
  866POPC   C1A14115   4.293  43.846   8.564
  866POPC   D2A14116   4.313  43.926   8.264
  866POPC   C3A14117   4.360  43.882   7.964
  866POPC   C4A14118   4.365  43.838   7.664
  866POPC   C1B14119   4.123  43.767   8.564
  866POPC   C2B14120   4.033  43.791   8.264
  866POPC   C3B14121   4.069  43.818   7.964
  866POPC   C4B14122   4.120  43.755   7.664
  867POPC   NC314123  23.742   4.307   9.464
  867POPC   PO414124  23.735   4.323   9.164
  867POPC   GL114125  23.704   4.299   8.864
  867POPC   GL214126  23.553   4.279   8.864
  867POPC   C1A14127  23.698   4.304   8.564
  867POPC   D2A14128  23.668   4.343   8.264
  867POPC   C3A14129  23.713   4.274   7.964
  867POPC   C4A14130  23.672   4.316   7.664
  867POPC   C1B14131  23.459   4.218   8.564
  867POPC   C2B14132  23.437   4.285   8.264
  867POPC   C3B14133  23.494   4.272   7.964
  867POPC   C4B14134  23.500   4.241   7.664
  868POPC   NC314135  22.926  37.694   9.464
  868POPC   PO414136  22.980  37.673   9.164
  868POPC   GL114137  22.966  37.722   8.864
  868POPC   GL214138  22.856  37.678   8.864
  868POPC   C1A14139  22.983  37.633   8.564
  868POPC   D2A14140  22.956  37.724   8.264
  868POPC   C3A14141  22.900  37.722   7.964
  868POPC   C4A14142  22.910  37.729   7.664
  868POPC   C1B14143  22.667  37.619   8.564
  868POPC   C2B14144  22.702  37.613   8.264
  868POPC   C3B14145  22.665  37.629   7.964
  868POPC   C4B14146  22.739  37.586   7.664
  869POPC   NC314147   1.239  16.742   9.464
  869POPC   PO414148   1.259  16.724   9.164
  869POPC   GL114149   1.263  16.770   8.864
  869POPC   GL214150   1.078  16.682   8.864
  869POPC   C1A14151   1.240  16.708   8.564
  869POPC   D2A14152   1.203  16.713   8.264
  869POPC   C3A14153   1.176  16.681   7.964
  869POPC   C4A14154   1.219  16.734   7.664
  869POPC   C1B14155   1.024  16.680   8.564
  869POPC   C2B14156   1.001  16.643   8.264
  869POPC   C3B14157   0.992  16.671   7.964
  869POPC   C4B14158   0.940  16.611   7.664
  870POPC   NC314159  40.763  18.251   9.464
  870POPC   PO414160  40.831  18.236   9.164
  870POPC   GL114161  40.830  18.320   8.864
  870POPC   GL214162  40.806  18.363   8.864
  870POPC   C1A14163  40.825  18.281   8.564
  870POPC   D2A14164  40.814  18.234   8.264
  870POPC   C3A14165  40.814  18.236   7.964
  870POPC   C4A14166  40.788  18.278   7.664
  870POPC   C1B14167  40.875  18.508   8.564
  870POPC   C2B14168  40.828  18.509   8.264
  870POPC   C3B14169  40.848  18.566   7.964
  870POPC   C4B14170  40.883  18.514   7.664
  871POPC   NC314171  17.540  33.839   9.464
  871POPC   PO414172  17.462  33.756   9.164
  871POPC   GL114173  17.537  33.834   8.864
  871POPC   GL214174  17.420  33.812   8.864
  871POPC   C1A14175  17.516  33.846   8.564
  871POPC   D2A14176  17.543  33.845   8.264
  871POPC   C3A14177  17.489  33.785   7.964
  871POPC   C4A14178  17.526  33.821   7.664
  871POPC   C1B14179  17.261  33.804   8.564
  871POPC   C2B14180  17.236  33.770   8.264
  871POPC   C3B14181  17.283  33.797   7.964
  871POPC   C4B14182  17.271  33.781   7.664
  872POPC   NC314183  20.590   1.264   9.464
  872POPC   PO414184  20.626   1.245   9.164
  872POPC   GL114185  20.658   1.205   8.864
  872POPC   GL214186  20.769   1.234   8.864
  872POPC   C1A14187  20.605   1.249   8.564
  872POPC   D2A14188  20.596   1.188   8.264
  872POPC   C3A14189  20.647   1.241   7.964
  872POPC   C4A14190  20.648   1.206   7.664
  872POPC   C1B14191  20.835   1.232   8.564
  872POPC   C2B14192  20.814   1.224   8.264
  872POPC   C3B14193  20.905   1.230   7.964
  872POPC   C4B14194  20.908   1.172   7.664
  873POPC   NC314195  20.658  26.041   9.464
  873POPC   PO414196  20.593  26.003   9.164
  873POPC   GL114197  20.627  25.992   8.864
  873POPC   GL214198  20.574  25.912   8.864
  873POPC   C1A14199  20.659  25.993   8.564
  873POPC   D2A14200  20.616  26.006   8.264
  873POPC   C3A14201  20.596  26.037   7.964
  873POPC   C4A14202  20.626  26.016   7.664
  873POPC   C1B14203  20.471  25.817   8.564
  873POPC   C2B14204  20.435  25.832   8.264
  873POPC   C3B14205  20.473  25.847   7.964
  873POPC   C4B14206  20.439  25.837   7.664
  874POPC   NC314207   3.523  12.870   9.464
  874POPC   PO414208   3.580  12.861   9.164
  874POPC   GL114209   3.545  12.859   8.864
  874POPC   GL214210   3.617  12.895   8.864
  874POPC   C1A14211   3.540  12.808   8.564
  874POPC   D2A14212   3.520  12.893   8.264
  874POPC   C3A14213   3.535  12.846   7.964
  874POPC   C4A14214   3.549  12.892   7.664
  874POPC   C1B14215   3.756  12.840   8.564
  874POPC   C2B14216   3.799  12.894   8.264
  874POPC   C3B14217   3.743  12.846   7.964
  874POPC   C4B14218   3.821  12.910   7.664
  875POPC   NC314219  40.795  27.605   9.464
  875POPC   PO414220  40.755  27.598   9.164
  875POPC   GL114221  40.776  27.550   8.864
  875POPC   GL214222  40.806  27.717   8.864
  875POPC   C1A14223  40.820  27.556   8.564
  875POPC   D2A14224  40.735  27.549   8.264
  875POPC   C3A14225  40.741  27.590   7.964
  875POPC   C4A14226  40.797  27.568   7.664
  875POPC   C1B14227  40.962  27.821   8.564
  875POPC   C2B14228  40.951  27.805   8.264
  875POPC   C3B14229  40.901  27.807   7.964
  875POPC   C4B14230  40.967  27.789   7.664
  876POPC   NC314231  31.431   2.717   9.464
  876POPC   PO414232  31.520   2.758   9.164
  876POPC   GL114233  31.449   2.750   8.864
  876POPC   GL214234  31.380   2.852   8.864
  876POPC   C1A14235  31.500   2.726   8.564
  876POPC   D2A14236  31.440   2.806   8.264
  876POPC   C3A14237  31.510   2.813   7.964
  876POPC   C4A14238  31.465   2.749   7.664
  876POPC   C1B14239  31.279   2.910   8.564
  876POPC   C2B14240  31.242   2.918   8.264
  876POPC   C3B14241  31.248   2.917   7.964
  876POPC   C4B14242  31.263   2.848   7.664
  877POPC   NC314243  44.642  39.256   9.464
  877POPC   PO414244  44.637  39.256   9.164
  877POPC   GL114245  44.696  39.211   8.864
  877POPC   GL214246  44.677  39.330   8.864
  877POPC   C1A14247  44.653  39.271   8.564
  877POPC   D2A14248  44.708  39.221   8.264
  877POPC   C3A14249  44.657  39.225   7.964
  877POPC   C4A14250  44.696  39.232   7.664
  877POPC   C1B14251  44.686  39.463   8.564
  877POPC   C2B14252  44.687  39.500   8.264
  877POPC   C3B14253  44.653  39.460   7.964
  877POPC   C4B14254  44.666  39.514   7.664
  878POPC   NC314255   7.404  24.526   9.464
  878POPC   PO414256   7.419  24.482   9.164
  878POPC   GL114257   7.451  24.530   8.864
  878POPC   GL214258   7.397  24.631   8.864
  878POPC   C1A14259   7.374  24.489   8.564
  878POPC   D2A14260   7.463  24.473   8.264
  878POPC   C3A14261   7.427  24.473   7.964
  878POPC   C4A14262   7.415  24.494   7.664
  878POPC   C1B14263   7.324  24.751   8.564
  878POPC   C2B14264   7.292  24.757   8.264
  878POPC   C3B14265   7.305  24.722   7.964
  878POPC   C4B14266   7.327  24.739   7.664
  879POPC   NC314267  22.125  23.743   9.464
  879POPC   PO414268  22.153  23.744   9.164
  879POPC   GL114269  22.132  23.713   8.864
  879POPC   GL214270  22.183  23.611   8.864
  879POPC   C1A14271  22.138  23.724   8.564
  879POPC   D2A14272  22.131  23.762   8.264
  879POPC   C3A14273  22.133  23.727   7.964
  879POPC   C4A14274  22.177  23.666   7.664
  879POPC   C1B14275  22.143  23.468   8.564
  879POPC   C2B14276  22.173  23.506   8.264
  879POPC   C3B14277  22.168  23.422   7.964
  879POPC   C4B14278  22.197  23.438   7.664
  880POPC   NC314279  36.090  43.084   9.464
  880POPC   PO414280  36.132  43.145   9.164
  880POPC   GL114281  36.139  43.098   8.864
  880POPC   GL214282  36.224  43.104   8.864
  880POPC   C1A14283  36.090  43.107   8.564
  880POPC   D2A14284  36.135  43.131   8.264
  880POPC   C3A14285  36.166  43.151   7.964
  880POPC   C4A14286  36.128  43.108   7.664
  880POPC   C1B14287  36.333  43.113   8.564
  880POPC   C2B14288  36.388  43.116   8.264
  880POPC   C3B14289  36.386  43.123   7.964
  880POPC   C4B14290  36.373  43.123   7.664
  881POPC   NC314291  11.293  34.542   9.464
  881POPC   PO414292  11.263  34.583   9.164
  881POPC   GL114293  11.316  34.556   8.864
  881POPC   GL214294  11.352  34.479   8.864
  881POPC   C1A14295  11.304  34.586   8.564
  881POPC   D2A14296  11.280  34.547   8.264
  881POPC   C3A14297  11.276  34.604   7.964
  881POPC   C4A14298  11.335  34.599   7.664
  881POPC   C1B14299  11.392  34.383   8.564
  881POPC   C2B14300  11.398  34.328   8.264
  881POPC   C3B14301  11.472  34.382   7.964
  881POPC   C4B14302  11.457  34.328   7.664
  882POPC   NC314303   5.065  31.492   9.464
  882POPC   PO414304   5.067  31.442   9.164
  882POPC   GL114305   5.079  31.430   8.864
  882POPC   GL214306   5.244  31.573   8.864
  882POPC   C1A14307   5.067  31.497   8.564
  882POPC   D2A14308   5.069  31.433   8.264
  882POPC   C3A14309   5.126  31.446   7.964
  882POPC   C4A14310   5.138  31.452   7.664
  882POPC   C1B14311   5.256  31.572   8.564
  882POPC   C2B14312   5.287  31.580   8.264
  882POPC   C3B14313   5.273  31.575   7.964
  882POPC   C4B14314   5.313  31.603   7.664
  883POPC   NC314315  33.845   1.234   9.464
  883POPC   PO414316  33.781   1.258   9.164
  883POPC   GL114317  33.791   1.232   8.864
  883POPC   GL214318  33.659   1.236   8.864
  883POPC   C1A14319  33.815   1.246   8.564
  883POPC   D2A14320  33.806   1.260   8.264
  883POPC   C3A14321  33.793   1.225   7.964
  883POPC   C4A14322  33.769   1.207   7.664
  883POPC   C1B14323  33.583   1.290   8.564
  883POPC   C2B14324  33.531   1.289   8.264
  883POPC   C3B14325  33.606   1.259   7.964
  883POPC   C4B14326  33.600   1.307   7.664
  884POPC   NC314327   8.200  33.061   9.464
  884POPC   PO414328   8.239  33.048   9.164
  884POPC   GL114329   8.160  33.012   8.864
  884POPC   GL214330   8.046  33.041   8.864
  884POPC   C1A14331   8.159  33.073   8.564
  884POPC   D2A14332   8.147  32.983   8.264
  884POPC   C3A14333   8.226  33.021   7.964
  884POPC   C4A14334   8.177  33.064   7.664
  884POPC   C1B14335   7.995  32.960   8.564
  884POPC   C2B14336   7.953  32.945   8.264
  884POPC   C3B14337   7.940  32.982   7.964
  884POPC   C4B14338   7.910  32.966   7.664
  885POPC   NC314339  29.144  14.374   9.464
  885POPC   PO414340  29.140  14.451   9.164
  885POPC   GL114341  29.184  14.439   8.864
  885POPC   GL214342  29.078  14.495   8.864
  885POPC   C1A14343  29.168  14.379   8.564
  885POPC   D2A14344  29.161  14.446   8.264
  885POPC   C3A14345  29.195  14.358   7.964
  885POPC   C4A14346  29.179  14.413   7.664
  885POPC   C1B14347  28.974  14.577   8.564
  885POPC   C2B14348  28.921  14.519   8.264
  885POPC   C3B14349  28.903  14.559   7.964
  885POPC   C4B14350  28.979  14.562   7.664
  886POPC   NC314351   7.410   3.527   9.464
  886POPC   PO414352   7.411   3.515   9.164
  886POPC   GL114353   7.380   3.529   8.864
  886POPC   GL214354   7.476   3.674   8.864
  886POPC   C1A14355   7.410   3.496   8.564
  886POPC   D2A14356   7.408   3.503   8.264
  886POPC   C3A14357   7.424   3.543   7.964
  886POPC   C4A14358   7.377   3.499   7.664
  886POPC   C1B14359   7.626   3.707   8.564
  886POPC   C2B14360   7.627   3.707   8.264
  886POPC   C3B14361   7.579   3.732   7.964
  886POPC   C4B14362   7.580   3.731   7.664
  887POPC   NC314363  20.660  27.592   9.464
  887POPC   PO414364  20.575  27.633   9.164
  887POPC   GL114365  20.597  27.603   8.864
  887POPC   GL214366  20.670  27.624   8.864
  887POPC   C1A14367  20.609  27.583   8.564
  887POPC   D2A14368  20.608  27.583   8.264
  887POPC   C3A14369  20.646  27.613   7.964
  887POPC   C4A14370  20.615  27.564   7.664
  887POPC   C1B14371  20.836  27.720   8.564
  887POPC   C2B14372  20.791  27.758   8.264
  887POPC   C3B14373  20.798  27.713   7.964
  887POPC   C4B14374  20.784  27.717   7.664
  888POPC   NC314375  15.973  44.685   9.464
  888POPC   PO414376  15.965  44.689   9.164
  888POPC   GL114377  15.923  44.655   8.864
  888POPC   GL214378  15.853  44.603   8.864
  888POPC   C1A14379  15.989  44.657   8.564
  888POPC   D2A14380  15.937  44.704   8.264
  888POPC   C3A14381  15.916  44.663   7.964
  888POPC   C4A14382  15.949  44.635   7.664
  888POPC   C1B14383  15.703  44.625   8.564
  888POPC   C2B14384  15.695  44.672   8.264
  888POPC   C3B14385  15.718  44.667   7.964
  888POPC   C4B14386  15.694  44.599   7.664
  889POPC   NC314387  22.185   2.020   9.464
  889POPC   PO414388  22.139   1.940   9.164
  889POPC   GL114389  22.167   1.992   8.864
  889POPC   GL214390  22.153   2.125   8.864
  889POPC   C1A14391  22.198   1.954   8.564
  889POPC   D2A14392  22.168   1.968   8.264
  889POPC   C3A14393  22.143   1.942   7.964
  889POPC   C4A14394  22.211   2.010   7.664
  889POPC   C1B14395  22.139   2.221   8.564
  889POPC   C2B14396  22.191   2.212   8.264
  889POPC   C3B14397  22.148   2.213   7.964
  889POPC   C4B14398  22.200   2.254   7.664
  890POPC   NC314399  44.672  27.608   9.464
  890POPC   PO414400  44.636  27.558   9.164
  890POPC   GL114401  44.643  27.603   8.864
  890POPC   GL214402  44.818  27.703   8.864
  890POPC   C1A14403  44.695  27.642   8.564
  890POPC   D2A14404  44.684  27.583   8.264
  890POPC   C3A14405  44.646  27.570   7.964
  890POPC   C4A14406  44.687  27.586   7.664
  890POPC   C1B14407  44.921  27.693   8.564
  890POPC   C2B14408  44.916  27.719   8.264
  890POPC   C3B14409  44.841  27.734   7.964
  890POPC   C4B14410  44.918  27.710   7.664
  891POPC   NC314411  36.939  29.182   9.464
  891POPC   PO414412  36.935  29.140   9.164
  891POPC   GL114413  36.929  29.134   8.864
  891POPC   GL214414  36.780  29.117   8.864
  891POPC   C1A14415  36.867  29.159   8.564
  891POPC   D2A14416  36.911  29.168   8.264
  891POPC   C3A14417  36.885  29.108   7.964
  891POPC   C4A14418  36.927  29.148   7.664
  891POPC   C1B14419  36.689  29.068   8.564
  891POPC   C2B14420  36.638  29.018   8.264
  891POPC   C3B14421  36.682  29.031   7.964
  891POPC   C4B14422  36.627  29.097   7.664
  892POPC   NC314423  36.086  36.160   9.464
  892POPC   PO414424  36.134  36.116   9.164
  892POPC   GL114425  36.127  36.087   8.864
  892POPC   GL214426  36.202  36.101   8.864
  892POPC   C1A14427  36.143  36.159   8.564
  892POPC   D2A14428  36.138  36.086   8.264
  892POPC   C3A14429  36.160  36.142   7.964
  892POPC   C4A14430  36.135  36.176   7.664
  892POPC   C1B14431  36.354  36.011   8.564
  892POPC   C2B14432  36.362  36.018   8.264
  892POPC   C3B14433  36.381  36.036   7.964
  892POPC   C4B14434  36.321  36.054   7.664
  893POPC   NC314435   2.025  19.884   9.464
  893POPC   PO414436   1.986  19.791   9.164
  893POPC   GL114437   2.016  19.787   8.864
  893POPC   GL214438   1.977  19.720   8.864
  893POPC   C1A14439   2.036  19.819   8.564
  893POPC   D2A14440   1.974  19.815   8.264
  893POPC   C3A14441   2.025  19.855   7.964
  893POPC   C4A14442   1.992  19.792   7.664
  893POPC   C1B14443   1.880  19.656   8.564
  893POPC   C2B14444   1.853  19.570   8.264
  893POPC   C3B14445   1.886  19.649   7.964
  893POPC   C4B14446   1.851  19.640   7.664
  894POPC   NC314447   5.877  27.584   9.464
  894POPC   PO414448   5.836  27.611   9.164
  894POPC   GL114449   5.819  27.572   8.864
  894POPC   GL214450   5.908  27.700   8.864
  894POPC   C1A14451   5.822  27.568   8.564
  894POPC   D2A14452   5.896  27.591   8.264
  894POPC   C3A14453   5.917  27.563   7.964
  894POPC   C4A14454   5.856  27.586   7.664
  894POPC   C1B14455   5.955  27.850   8.564
  894POPC   C2B14456   5.941  27.788   8.264
  894POPC   C3B14457   5.960  27.837   7.964
  894POPC   C4B14458   5.989  27.867   7.664
  895POPC   NC314459   9.795  14.426   9.464
  895POPC   PO414460   9.742  14.388   9.164
  895POPC   GL114461   9.763  14.360   8.864
  895POPC   GL214462   9.695  14.458   8.864
  895POPC   C1A14463   9.714  14.451   8.564
  895POPC   D2A14464   9.757  14.413   8.264
  895POPC   C3A14465   9.728  14.360   7.964
  895POPC   C4A14466   9.723  14.435   7.664
  895POPC   C1B14467   9.518  14.593   8.564
  895POPC   C2B14468   9.541  14.566   8.264
  895POPC   C3B14469   9.520  14.548   7.964
  895POPC   C4B14470   9.596  14.583   7.664
  896POPC   NC314471  13.671  38.460   9.464
  896POPC   PO414472  13.646  38.454   9.164
  896POPC   GL114473  13.608  38.436   8.864
  896POPC   GL214474  13.526  38.591   8.864
  896POPC   C1A14475  13.641  38.441   8.564
  896POPC   D2A14476  13.653  38.433   8.264
  896POPC   C3A14477  13.645  38.498   7.964
  896POPC   C4A14478  13.659  38.469   7.664
  896POPC   C1B14479  13.487  38.628   8.564
  896POPC   C2B14480  13.553  38.678   8.264
  896POPC   C3B14481  13.465  38.682   7.964
  896POPC   C4B14482  13.504  38.721   7.664
  897POPC   NC314483  34.597  25.283   9.464
  897POPC   PO414484  34.604  25.255   9.164
  897POPC   GL114485  34.537  25.238   8.864
  897POPC   GL214486  34.439  25.189   8.864
  897POPC   C1A14487  34.566  25.270   8.564
  897POPC   D2A14488  34.582  25.228   8.264
  897POPC   C3A14489  34.616  25.302   7.964
  897POPC   C4A14490  34.536  25.255   7.664
  897POPC   C1B14491  34.395  25.074   8.564
  897POPC   C2B14492  34.409  25.114   8.264
  897POPC   C3B14493  34.342  25.101   7.964
  897POPC   C4B14494  34.358  25.143   7.664
  898POPC   NC314495  22.905  38.472   9.464
  898POPC   PO414496  22.890  38.421   9.164
  898POPC   GL114497  22.980  38.483   8.864
  898POPC   GL214498  22.909  38.583   8.864
  898POPC   C1A14499  22.965  38.423   8.564
  898POPC   D2A14500  22.977  38.459   8.264
  898POPC   C3A14501  22.941  38.408   7.964
  898POPC   C4A14502  22.905  38.406   7.664
  898POPC   C1B14503  22.965  38.709   8.564
  898POPC   C2B14504  22.926  38.701   8.264
  898POPC   C3B14505  22.988  38.676   7.964
  898POPC   C4B14506  23.005  38.694   7.664
  899POPC   NC314507  35.364  36.091   9.464
  899POPC   PO414508  35.396  36.167   9.164
  899POPC   GL114509  35.350  36.087   8.864
  899POPC   GL214510  35.441  36.196   8.864
  899POPC   C1A14511  35.383  36.102   8.564
  899POPC   D2A14512  35.342  36.163   8.264
  899POPC   C3A14513  35.304  36.165   7.964
  899POPC   C4A14514  35.357  36.131   7.664
  899POPC   C1B14515  35.601  36.247   8.564
  899POPC   C2B14516  35.553  36.261   8.264
  899POPC   C3B14517  35.535  36.219   7.964
  899POPC   C4B14518  35.587  36.278   7.664
  900POPC   NC314519   1.236  40.776   9.464
  900POPC   PO414520   1.170  40.749   9.164
  900POPC   GL114521   1.219  40.799   8.864
  900POPC   GL214522   1.182  40.666   8.864
  900POPC   C1A14523   1.247  40.742   8.564
  900POPC   D2A14524   1.215  40.766   8.264
  900POPC   C3A14525   1.179  40.734   7.964
  900POPC   C4A14526   1.170  40.832   7.664
  900POPC   C1B14527   1.083  40.520   8.564
  900POPC   C2B14528   1.063  40.534   8.264
  900POPC   C3B14529   1.146  40.589   7.964
  900POPC   C4B14530   1.090  40.569   7.664
  901POPC   NC314531  15.163   4.324   9.464
  901POPC   PO414532  15.150   4.366   9.164
  901POPC   GL114533  15.174   4.286   8.864
  901POPC   GL214534  15.226   4.424   8.864
  901POPC   C1A14535  15.184   4.342   8.564
  901POPC   D2A14536  15.163   4.287   8.264
  901POPC   C3A14537  15.224   4.303   7.964
  901POPC   C4A14538  15.139   4.282   7.664
  901POPC   C1B14539  15.299   4.531   8.564
  901POPC   C2B14540  15.239   4.551   8.264
  901POPC   C3B14541  15.233   4.548   7.964
  901POPC   C4B14542  15.243   4.548   7.664
  902POPC   NC314543  36.857   5.129   9.464
  902POPC   PO414544  36.869   5.099   9.164
  902POPC   GL114545  36.860   5.078   8.864
  902POPC   GL214546  36.755   5.099   8.864
  902POPC   C1A14547  36.860   5.140   8.564
  902POPC   D2A14548  36.866   5.077   8.264
  902POPC   C3A14549  36.931   5.051   7.964
  902POPC   C4A14550  36.935   5.067   7.664
  902POPC   C1B14551  36.672   5.061   8.564
  902POPC   C2B14552  36.620   5.056   8.264
  902POPC   C3B14553  36.697   5.108   7.964
  902POPC   C4B14554  36.617   5.046   7.664
  903POPC   NC314555  38.498  42.344   9.464
  903POPC   PO414556  38.458  42.364   9.164
  903POPC   GL114557  38.479  42.319   8.864
  903POPC   GL214558  38.554  42.385   8.864
  903POPC   C1A14559  38.435  42.347   8.564
  903POPC   D2A14560  38.446  42.344   8.264
  903POPC   C3A14561  38.482  42.380   7.964
  903POPC   C4A14562  38.482  42.287   7.664
  903POPC   C1B14563  38.719  42.358   8.564
  903POPC   C2B14564  38.689  42.312   8.264
  903POPC   C3B14565  38.686  42.382   7.964
  903POPC   C4B14566  38.749  42.317   7.664
  904POPC   NC314567  18.323  20.590   9.464
  904POPC   PO414568  18.265  20.582   9.164
  904POPC   GL114569  18.271  20.645   8.864
  904POPC   GL214570  18.383  20.519   8.864
  904POPC   C1A14571  18.290  20.622   8.564
  904POPC   D2A14572  18.307  20.578   8.264
  904POPC   C3A14573  18.288  20.594   7.964
  904POPC   C4A14574  18.275  20.632   7.664
  904POPC   C1B14575  18.443  20.455   8.564
  904POPC   C2B14576  18.464  20.392   8.264
  904POPC   C3B14577  18.493  20.402   7.964
  904POPC   C4B14578  18.493  20.435   7.664
  905POPC   NC314579   7.403  41.579   9.464
  905POPC   PO414580   7.449  41.578   9.164
  905POPC   GL114581   7.423  41.579   8.864
  905POPC   GL214582   7.305  41.604   8.864
  905POPC   C1A14583   7.374  41.558   8.564
  905POPC   D2A14584   7.435  41.512   8.264
  905POPC   C3A14585   7.454  41.598   7.964
  905POPC   C4A14586   7.430  41.522   7.664
  905POPC   C1B14587   7.214  41.605   8.564
  905POPC   C2B14588   7.219  41.631   8.264
  905POPC   C3B14589   7.140  41.576   7.964
  905POPC   C4B14590   7.207  41.645   7.664
  906POPC   NC314591  19.801  41.565   9.464
  906POPC   PO414592  19.859  41.539   9.164
  906POPC   GL114593  19.816  41.582   8.864
  906POPC   GL214594  19.900  41.440   8.864
  906POPC   C1A14595  19.840  41.528   8.564
  906POPC   D2A14596  19.789  41.530   8.264
  906POPC   C3A14597  19.865  41.539   7.964
  906POPC   C4A14598  19.791  41.553   7.664
  906POPC   C1B14599  20.070  41.454   8.564
  906POPC   C2B14600  20.060  41.429   8.264
  906POPC   C3B14601  20.066  41.394   7.964
  906POPC   C4B14602  20.085  41.378   7.664
  907POPC   NC314603  44.651  15.974   9.464
  907POPC   PO414604  44.685  15.964   9.164
  907POPC   GL114605  44.625  15.936   8.864
  907POPC   GL214606  44.603  16.074   8.864
  907POPC   C1A14607  44.696  15.943   8.564
  907POPC   D2A14608  44.662  15.939   8.264
  907POPC   C3A14609  44.650  15.951   7.964
  907POPC   C4A14610  44.664  16.000   7.664
  907POPC   C1B14611  44.462  16.165   8.564
  907POPC   C2B14612  44.473  16.113   8.264
  907POPC   C3B14613  44.491  16.179   7.964
  907POPC   C4B14614  44.503  16.195   7.664
  908POPC   NC314615  44.671  28.410   9.464
  908POPC   PO414616  44.656  28.345   9.164
  908POPC   GL114617  44.674  28.345   8.864
  908POPC   GL214618  44.771  28.465   8.864
  908POPC   C1A14619  44.632  28.345   8.564
  908POPC   D2A14620  44.664  28.331   8.264
  908POPC   C3A14621  44.688  28.389   7.964
  908POPC   C4A14622  44.694  28.411   7.664
  908POPC   C1B14623  44.935  28.514   8.564
  908POPC   C2B14624  44.879  28.442   8.264
  908POPC   C3B14625  44.885  28.505   7.964
  908POPC   C4B14626  44.865  28.433   7.664
  909POPC   NC314627  14.449   5.079   9.464
  909POPC   PO414628  14.441   5.089   9.164
  909POPC   GL114629  14.370   5.072   8.864
  909POPC   GL214630  14.269   5.089   8.864
  909POPC   C1A14631  14.398   5.131   8.564
  909POPC   D2A14632  14.418   5.055   8.264
  909POPC   C3A14633  14.373   5.133   7.964
  909POPC   C4A14634  14.395   5.077   7.664
  909POPC   C1B14635  14.157   5.073   8.564
  909POPC   C2B14636  14.120   5.106   8.264
  909POPC   C3B14637  14.131   5.082   7.964
  909POPC   C4B14638  14.110   5.126   7.664
  910POPC   NC314639  23.669  12.853   9.464
  910POPC   PO414640  23.725  12.813   9.164
  910POPC   GL114641  23.753  12.870   8.864
  910POPC   GL214642  23.584  12.735   8.864
  910POPC   C1A14643  23.734  12.835   8.564
  910POPC   D2A14644  23.690  12.829   8.264
  910POPC   C3A14645  23.744  12.822   7.964
  910POPC   C4A14646  23.708  12.879   7.664
  910POPC   C1B14647  23.555  12.682   8.564
  910POPC   C2B14648  23.554  12.672   8.264
  910POPC   C3B14649  23.474  12.714   7.964
  910POPC   C4B14650  23.483  12.696   7.664
  911POPC   NC314651  43.073  40.017   9.464
  911POPC   PO414652  43.067  40.028   9.164
  911POPC   GL114653  43.074  40.035   8.864
  911POPC   GL214654  43.241  39.954   8.864
  911POPC   C1A14655  43.094  40.046   8.564
  911POPC   D2A14656  43.062  39.996   8.264
  911POPC   C3A14657  43.143  40.022   7.964
  911POPC   C4A14658  43.159  39.976   7.664
  911POPC   C1B14659  43.296  39.891   8.564
  911POPC   C2B14660  43.363  39.905   8.264
  911POPC   C3B14661  43.377  39.937   7.964
  911POPC   C4B14662  43.324  39.868   7.664
  912POPC   NC314663  26.838  25.240   9.464
  912POPC   PO414664  26.857  25.254   9.164
  912POPC   GL114665  26.803  25.238   8.864
  912POPC   GL214666  26.740  25.381   8.864
  912POPC   C1A14667  26.801  25.294   8.564
  912POPC   D2A14668  26.774  25.273   8.264
  912POPC   C3A14669  26.819  25.309   7.964
  912POPC   C4A14670  26.775  25.292   7.664
  912POPC   C1B14671  26.667  25.450   8.564
  912POPC   C2B14672  26.715  25.455   8.264
  912POPC   C3B14673  26.667  25.510   7.964
  912POPC   C4B14674  26.681  25.521   7.664
  913POPC   NC314675  35.334  40.009   9.464
  913POPC   PO414676  35.336  40.039   9.164
  913POPC   GL114677  35.346  40.011   8.864
  913POPC   GL214678  35.419  39.979   8.864
  913POPC   C1A14679  35.323  40.047   8.564
  913POPC   D2A14680  35.344  39.987   8.264
  913POPC   C3A14681  35.400  40.043   7.964
  913POPC   C4A14682  35.326  39.993   7.664
  913POPC   C1B14683  35.542  39.880   8.564
  913POPC   C2B14684  35.549  39.873   8.264
  913POPC   C3B14685  35.584  39.898   7.964
  913POPC   C4B14686  35.608  39.923   7.664
  914POPC   NC314687  22.897   9.703   9.464
  914POPC   PO414688  22.950   9.783   9.164
  914POPC   GL114689  22.951   9.763   8.864
  914POPC   GL214690  22.956   9.831   8.864
  914POPC   C1A14691  22.944   9.732   8.564
  914POPC   D2A14692  22.920   9.743   8.264
  914POPC   C3A14693  22.948   9.766   7.964
  914POPC   C4A14694  22.978   9.700   7.664
  914POPC   C1B14695  22.881   9.964   8.564
  914POPC   C2B14696  22.942   9.960   8.264
  914POPC   C3B14697  22.878  10.048   7.964
  914POPC   C4B14698  22.897   9.972   7.664
  915POPC   NC314699   6.637   8.171   9.464
  915POPC   PO414700   6.599   8.175   9.164
  915POPC   GL114701   6.657   8.182   8.864
  915POPC   GL214702   6.738   8.195   8.864
  915POPC   C1A14703   6.631   8.217   8.564
  915POPC   D2A14704   6.680   8.189   8.264
  915POPC   C3A14705   6.665   8.204   7.964
  915POPC   C4A14706   6.694   8.218   7.664
  915POPC   C1B14707   6.896   8.278   8.564
  915POPC   C2B14708   6.895   8.280   8.264
  915POPC   C3B14709   6.874   8.268   7.964
  915POPC   C4B14710   6.860   8.301   7.664
  916POPC   NC314711  27.548  44.675   9.464
  916POPC   PO414712  27.604  44.700   9.164
  916POPC   GL114713  27.590  44.646   8.864
  916POPC   GL214714  27.495  44.649   8.864
  916POPC   C1A14715  27.601  44.693   8.564
  916POPC   D2A14716  27.544  44.634   8.264
  916POPC   C3A14717  27.573  44.634   7.964
  916POPC   C4A14718  27.565  44.637   7.664
  916POPC   C1B14719  27.320  44.575   8.564
  916POPC   C2B14720  27.330  44.533   8.264
  916POPC   C3B14721  27.386  44.543   7.964
  916POPC   C4B14722  27.406  44.544   7.664
  917POPC   NC314723  43.132  12.096   9.464
  917POPC   PO414724  43.114  12.090   9.164
  917POPC   GL114725  43.154  12.028   8.864
  917POPC   GL214726  43.133  11.966   8.864
  917POPC   C1A14727  43.127  12.122   8.564
  917POPC   D2A14728  43.076  12.117   8.264
  917POPC   C3A14729  43.115  12.093   7.964
  917POPC   C4A14730  43.065  12.089   7.664
  917POPC   C1B14731  43.093  11.819   8.564
  917POPC   C2B14732  43.044  11.831   8.264
  917POPC   C3B14733  43.030  11.870   7.964
  917POPC   C4B14734  43.019  11.853   7.664
  918POPC   NC314735  39.263   8.190   9.464
  918POPC   PO414736  39.258   8.226   9.164
  918POPC   GL114737  39.212   8.245   8.864
  918POPC   GL214738  39.205   8.097   8.864
  918POPC   C1A14739  39.191   8.239   8.564
  918POPC   D2A14740  39.241   8.208   8.264
  918POPC   C3A14741  39.184   8.198   7.964
  918POPC   C4A14742  39.255   8.170   7.664
  918POPC   C1B14743  39.172   8.007   8.564
  918POPC   C2B14744  39.166   7.958   8.264
  918POPC   C3B14745  39.188   7.941   7.964
  918POPC   C4B14746  39.158   7.921   7.664
  919POPC   NC314747   6.639   5.143   9.464
  919POPC   PO414748   6.620   5.065   9.164
  919POPC   GL114749   6.595   5.132   8.864
  919POPC   GL214750   6.725   5.130   8.864
  919POPC   C1A14751   6.638   5.054   8.564
  919POPC   D2A14752   6.652   5.103   8.264
  919POPC   C3A14753   6.650   5.052   7.964
  919POPC   C4A14754   6.680   5.058   7.664
  919POPC   C1B14755   6.806   5.219   8.564
  919POPC   C2B14756   6.852   5.274   8.264
  919POPC   C3B14757   6.836   5.267   7.964
  919POPC   C4B14758   6.796   5.236   7.664
  920POPC   NC314759  35.319  34.567   9.464
  920POPC   PO414760  35.370  34.572   9.164
  920POPC   GL114761  35.325  34.554   8.864
  920POPC   GL214762  35.436  34.644   8.864
  920POPC   C1A14763  35.392  34.590   8.564
  920POPC   D2A14764  35.394  34.603   8.264
  920POPC   C3A14765  35.326  34.527   7.964
  920POPC   C4A14766  35.320  34.611   7.664
  920POPC   C1B14767  35.555  34.739   8.564
  920POPC   C2B14768  35.558  34.731   8.264
  920POPC   C3B14769  35.517  34.703   7.964
  920POPC   C4B14770  35.601  34.714   7.664
  921POPC   NC314771  14.420  24.512   9.464
  921POPC   PO414772  14.422  24.533   9.164
  921POPC   GL114773  14.399  24.440   8.864
  921POPC   GL214774  14.519  24.457   8.864
  921POPC   C1A14775  14.390  24.509   8.564
  921POPC   D2A14776  14.418  24.447   8.264
  921POPC   C3A14777  14.374  24.516   7.964
  921POPC   C4A14778  14.365  24.451   7.664
  921POPC   C1B14779  14.586  24.357   8.564
  921POPC   C2B14780  14.639  24.381   8.264
  921POPC   C3B14781  14.593  24.379   7.964
  921POPC   C4B14782  14.601  24.413   7.664
  922POPC   NC314783   9.731  42.359   9.464
  922POPC   PO414784   9.700  42.335   9.164
  922POPC   GL114785   9.703  42.299   8.864
  922POPC   GL214786   9.688  42.490   8.864
  922POPC   C1A14787   9.778  42.373   8.564
  922POPC   D2A14788   9.741  42.338   8.264
  922POPC   C3A14789   9.752  42.335   7.964
  922POPC   C4A14790   9.761  42.349   7.664
  922POPC   C1B14791   9.626  42.576   8.564
  922POPC   C2B14792   9.659  42.593   8.264
  922POPC   C3B14793   9.652  42.553   7.964
  922POPC   C4B14794   9.576  42.540   7.664
  923POPC   NC314795  25.290  34.587   9.464
  923POPC   PO414796  25.312  34.586   9.164
  923POPC   GL114797  25.249  34.583   8.864
  923POPC   GL214798  25.133  34.510   8.864
  923POPC   C1A14799  25.237  34.576   8.564
  923POPC   D2A14800  25.238  34.621   8.264
  923POPC   C3A14801  25.303  34.573   7.964
  923POPC   C4A14802  25.228  34.609   7.664
  923POPC   C1B14803  24.997  34.469   8.564
  923POPC   C2B14804  24.990  34.454   8.264
  923POPC   C3B14805  25.020  34.436   7.964
  923POPC   C4B14806  25.032  34.470   7.664
  924POPC   NC314807  40.752  20.630   9.464
  924POPC   PO414808  40.776  20.601   9.164
  924POPC   GL114809  40.798  20.607   8.864
  924POPC   GL214810  40.713  20.542   8.864
  924POPC   C1A14811  40.758  20.592   8.564
  924POPC   D2A14812  40.792  20.567   8.264
  924POPC   C3A14813  40.804  20.560   7.964
  924POPC   C4A14814  40.805  20.593   7.664
  924POPC   C1B14815  40.596  20.485   8.564
  924POPC   C2B14816  40.541  20.524   8.264
  924POPC   C3B14817  40.583  20.563   7.964
  924POPC   C4B14818  40.585  20.498   7.664
  925POPC   NC314819  33.027  44.663   9.464
  925POPC   PO414820  32.994  44.651   9.164
  925POPC   GL114821  33.051  44.657   8.864
  925POPC   GL214822  32.887  44.705   8.864
  925POPC   C1A14823  33.058  44.692   8.564
  925POPC   D2A14824  32.975  44.618   8.264
  925POPC   C3A14825  33.027  44.682   7.964
  925POPC   C4A14826  33.003  44.646   7.664
  925POPC   C1B14827  32.781  44.723   8.564
  925POPC   C2B14828  32.775  44.777   8.264
  925POPC   C3B14829  32.768  44.800   7.964
  925POPC   C4B14830  32.766  44.801   7.664
  926POPC   NC314831  30.689  36.078   9.464
  926POPC   PO414832  30.727  36.103   9.164
  926POPC   GL114833  30.732  36.116   8.864
  926POPC   GL214834  30.804  36.003   8.864
  926POPC   C1A14835  30.720  36.136   8.564
  926POPC   D2A14836  30.652  36.172   8.264
  926POPC   C3A14837  30.744  36.091   7.964
  926POPC   C4A14838  30.732  36.160   7.664
  926POPC   C1B14839  30.892  35.979   8.564
  926POPC   C2B14840  30.853  35.973   8.264
  926POPC   C3B14841  30.815  35.938   7.964
  926POPC   C4B14842  30.860  35.906   7.664
  927POPC   NC314843  40.038  37.645   9.464
  927POPC   PO414844  40.000  37.647   9.164
  927POPC   GL114845  39.987  37.679   8.864
  927POPC   GL214846  40.107  37.735   8.864
  927POPC   C1A14847  39.983  37.633   8.564
  927POPC   D2A14848  39.979  37.695   8.264
  927POPC   C3A14849  40.054  37.687   7.964
  927POPC   C4A14850  40.038  37.710   7.664
  927POPC   C1B14851  40.284  37.735   8.564
  927POPC   C2B14852  40.257  37.809   8.264
  927POPC   C3B14853  40.189  37.760   7.964
  927POPC   C4B14854  40.228  37.816   7.664
  928POPC   NC314855  34.581  19.066   9.464
  928POPC   PO414856  34.593  19.053   9.164
  928POPC   GL114857  34.608  19.089   8.864
  928POPC   GL214858  34.684  19.125   8.864
  928POPC   C1A14859  34.552  19.090   8.564
  928POPC   D2A14860  34.566  19.026   8.264
  928POPC   C3A14861  34.594  19.011   7.964
  928POPC   C4A14862  34.596  19.061   7.664
  928POPC   C1B14863  34.845  19.167   8.564
  928POPC   C2B14864  34.828  19.132   8.264
  928POPC   C3B14865  34.780  19.145   7.964
  928POPC   C4B14866  34.795  19.176   7.664
  929POPC   NC314867  35.359  41.573   9.464
  929POPC   PO414868  35.356  41.532   9.164
  929POPC   GL114869  35.400  41.538   8.864
  929POPC   GL214870  35.467  41.642   8.864
  929POPC   C1A14871  35.386  41.557   8.564
  929POPC   D2A14872  35.393  41.551   8.264
  929POPC   C3A14873  35.308  41.541   7.964
  929POPC   C4A14874  35.369  41.532   7.664
  929POPC   C1B14875  35.603  41.635   8.564
  929POPC   C2B14876  35.520  41.683   8.264
  929POPC   C3B14877  35.612  41.718   7.964
  929POPC   C4B14878  35.610  41.689   7.664
  930POPC   NC314879   0.467  17.531   9.464
  930POPC   PO414880   0.394  17.551   9.164
  930POPC   GL114881   0.466  17.526   8.864
  930POPC   GL214882   0.514  17.426   8.864
  930POPC   C1A14883   0.402  17.532   8.564
  930POPC   D2A14884   0.462  17.521   8.264
  930POPC   C3A14885   0.417  17.519   7.964
  930POPC   C4A14886   0.431  17.532   7.664
  930POPC   C1B14887   0.672  17.476   8.564
  930POPC   C2B14888   0.681  17.411   8.264
  930POPC   C3B14889   0.664  17.402   7.964
  930POPC   C4B14890   0.648  17.441   7.664
  931POPC   NC314891  18.255  19.055   9.464
  931POPC   PO414892  18.291  19.043   9.164
  931POPC   GL114893  18.295  19.029   8.864
  931POPC   GL214894  18.334  18.938   8.864
  931POPC   C1A14895  18.312  19.023   8.564
  931POPC   D2A14896  18.258  19.106   8.264
  931POPC   C3A14897  18.310  19.086   7.964
  931POPC   C4A14898  18.268  19.025   7.664
  931POPC   C1B14899  18.364  18.838   8.564
  931POPC   C2B14900  18.453  18.892   8.264
  931POPC   C3B14901  18.430  18.863   7.964
  931POPC   C4B14902  18.364  18.846   7.664
  932POPC   NC314903  15.953  14.383   9.464
  932POPC   PO414904  15.978  14.375   9.164
  932POPC   GL114905  16.003  14.392   8.864
  932POPC   GL214906  15.911  14.249   8.864
  932POPC   C1A14907  15.912  14.432   8.564
  932POPC   D2A14908  15.985  14.425   8.264
  932POPC   C3A14909  15.965  14.387   7.964
  932POPC   C4A14910  15.943  14.386   7.664
  932POPC   C1B14911  15.822  14.188   8.564
  932POPC   C2B14912  15.851  14.162   8.264
  932POPC   C3B14913  15.860  14.145   7.964
  932POPC   C4B14914  15.817  14.187   7.664
  933POPC   NC314915  38.474  14.362   9.464
  933POPC   PO414916  38.423  14.380   9.164
  933POPC   GL114917  38.439  14.430   8.864
  933POPC   GL214918  38.337  14.423   8.864
  933POPC   C1A14919  38.504  14.378   8.564
  933POPC   D2A14920  38.479  14.402   8.264
  933POPC   C3A14921  38.433  14.440   7.964
  933POPC   C4A14922  38.496  14.368   7.664
  933POPC   C1B14923  38.226  14.557   8.564
  933POPC   C2B14924  38.229  14.572   8.264
  933POPC   C3B14925  38.261  14.522   7.964
  933POPC   C4B14926  38.287  14.535   7.664
  934POPC   NC314927   5.881  17.467   9.464
  934POPC   PO414928   5.843  17.528   9.164
  934POPC   GL114929   5.881  17.530   8.864
  934POPC   GL214930   5.729  17.488   8.864
  934POPC   C1A14931   5.904  17.493   8.564
  934POPC   D2A14932   5.850  17.461   8.264
  934POPC   C3A14933   5.847  17.507   7.964
  934POPC   C4A14934   5.828  17.538   7.664
  934POPC   C1B14935   5.666  17.492   8.564
  934POPC   C2B14936   5.641  17.417   8.264
  934POPC   C3B14937   5.577  17.469   7.964
  934POPC   C4B14938   5.633  17.437   7.664
  935POPC   NC314939  19.834  19.820   9.464
  935POPC   PO414940  19.835  19.840   9.164
  935POPC   GL114941  19.836  19.841   8.864
  935POPC   GL214942  19.965  19.891   8.864
  935POPC   C1A14943  19.795  19.871   8.564
  935POPC   D2A14944  19.872  19.847   8.264
  935POPC   C3A14945  19.806  19.881   7.964
  935POPC   C4A14946  19.817  19.851   7.664
  935POPC   C1B14947  20.031  19.968   8.564
  935POPC   C2B14948  20.016  20.018   8.264
  935POPC   C3B14949  19.972  20.045   7.964
  935POPC   C4B14950  19.992  19.966   7.664
  936POPC   NC314951   6.665   4.330   9.464
  936POPC   PO414952   6.603   4.313   9.164
  936POPC   GL114953   6.653   4.363   8.864
  936POPC   GL214954   6.779   4.395   8.864
  936POPC   C1A14955   6.639   4.311   8.564
  936POPC   D2A14956   6.667   4.328   8.264
  936POPC   C3A14957   6.687   4.308   7.964
  936POPC   C4A14958   6.637   4.289   7.664
  936POPC   C1B14959   6.884   4.388   8.564
  936POPC   C2B14960   6.877   4.429   8.264
  936POPC   C3B14961   6.893   4.376   7.964
  936POPC   C4B14962   6.852   4.410   7.664
  937POPC   NC314963  27.597  24.460   9.464
  937POPC   PO414964  27.587  24.499   9.164
  937POPC   GL114965  27.546  24.489   8.864
  937POPC   GL214966  27.486  24.418   8.864
  937POPC   C1A14967  27.618  24.498   8.564
  937POPC   D2A14968  27.632  24.506   8.264
  937POPC   C3A14969  27.569  24.458   7.964
  937POPC   C4A14970  27.547  24.476   7.664
  937POPC   C1B14971  27.355  24.364   8.564
  937POPC   C2B14972  27.384  24.343   8.264
  937POPC   C3B14973  27.338  24.303   7.964
  937POPC   C4B14974  27.410  24.342   7.664
  938POPC   NC314975  31.450  24.532   9.464
  938POPC   PO414976  31.522  24.532   9.164
  938POPC   GL114977  31.491  24.475   8.864
  938POPC   GL214978  31.615  24.415   8.864
  938POPC   C1A14979  31.440  24.484   8.564
  938POPC   D2A14980  31.507  24.532   8.264
  938POPC   C3A14981  31.510  24.449   7.964
  938POPC   C4A14982  31.423  24.463   7.664
  938POPC   C1B14983  31.733  24.364   8.564
  938POPC   C2B14984  31.672  24.433   8.264
  938POPC   C3B14985  31.739  24.378   7.964
  938POPC   C4B14986  31.660  24.414   7.664
  939POPC   NC314987  22.892   0.398   9.464
  939POPC   PO414988  22.984   0.477   9.164
  939POPC   GL114989  22.905   0.419   8.864
  939POPC   GL214990  22.965   0.365   8.864
  939POPC   C1A14991  22.971   0.471   8.564
  939POPC   D2A14992  22.979   0.404   8.264
  939POPC   C3A14993  22.892   0.464   7.964
  939POPC   C4A14994  22.941   0.468   7.664
  939POPC   C1B14995  23.003   0.213   8.564
  939POPC   C2B14996  22.968   0.240   8.264
  939POPC   C3B14997  23.026   0.236   7.964
  939POPC   C4B14998  23.021   0.214   7.664
  940POPC   NC314999  15.948  35.380   9.464
  940POPC   PO415000  15.964  35.326   9.164
  940POPC   GL115001  15.983  35.360   8.864
  940POPC   GL215002  15.991  35.420   8.864
  940POPC   C1A15003  15.958  35.305   8.564
  940POPC   D2A15004  15.934  35.377   8.264
  940POPC   C3A15005  15.992  35.393   7.964
  940POPC   C4A15006  15.907  35.303   7.664
  940POPC   C1B15007  16.159  35.514   8.564
  940POPC   C2B15008  16.153  35.560   8.264
  940POPC   C3B15009  16.107  35.493   7.964
  940POPC   C4B15010  16.120  35.502   7.664
  941POPC   NC315011  31.469  41.521   9.464
  941POPC   PO415012  31.423  41.509   9.164
  941POPC   GL115013  31.507  41.579   8.864
  941POPC   GL215014  31.307  41.472   8.864
  941POPC   C1A15015  31.432  41.608   8.564
  941POPC   D2A15016  31.439  41.579   8.264
  941POPC   C3A15017  31.438  41.577   7.964
  941POPC   C4A15018  31.429  41.560   7.664
  941POPC   C1B15019  31.222  41.525   8.564
  941POPC   C2B15020  31.227  41.467   8.264
  941POPC   C3B15021  31.220  41.434   7.964
  941POPC   C4B15022  31.260  41.455   7.664
  942POPC   NC315023  38.499  44.648   9.464
  942POPC   PO415024  38.490  44.710   9.164
  942POPC   GL115025  38.431  44.677   8.864
  942POPC   GL215026  38.617  44.716   8.864
  942POPC   C1A15027  38.486  44.667   8.564
  942POPC   D2A15028  38.465  44.631   8.264
  942POPC   C3A15029  38.459  44.638   7.964
  942POPC   C4A15030  38.477  44.667   7.664
  942POPC   C1B15031  38.672  44.672   8.564
  942POPC   C2B15032  38.750  44.665   8.264
  942POPC   C3B15033  38.736  44.678   7.964
  942POPC   C4B15034  38.699  44.753   7.664
  943POPC   NC315035  40.047   8.953   9.464
  943POPC   PO415036  40.012   8.926   9.164
  943POPC   GL115037  40.001   8.969   8.864
  943POPC   GL215038  39.964   9.079   8.864
  943POPC   C1A15039  40.025   8.970   8.564
  943POPC   D2A15040  39.964   8.999   8.264
  943POPC   C3A15041  39.962   8.945   7.964
  943POPC   C4A15042  39.984   9.003   7.664
  943POPC   C1B15043  39.958   9.226   8.564
  943POPC   C2B15044  39.874   9.225   8.264
  943POPC   C3B15045  39.952   9.180   7.964
  943POPC   C4B15046  39.873   9.214   7.664
  944POPC   NC315047   1.254   6.604   9.464
  944POPC   PO415048   1.248   6.612   9.164
  944POPC   GL115049   1.220   6.647   8.864
  944POPC   GL215050   1.337   6.602   8.864
  944POPC   C1A15051   1.181   6.664   8.564
  944POPC   D2A15052   1.225   6.661   8.264
  944POPC   C3A15053   1.249   6.633   7.964
  944POPC   C4A15054   1.191   6.601   7.664
  944POPC   C1B15055   1.412   6.442   8.564
  944POPC   C2B15056   1.354   6.425   8.264
  944POPC   C3B15057   1.406   6.424   7.964
  944POPC   C4B15058   1.419   6.490   7.664
  945POPC   NC315059  43.132  21.421   9.464
  945POPC   PO415060  43.113  21.416   9.164
  945POPC   GL115061  43.084  21.410   8.864
  945POPC   GL215062  43.038  21.334   8.864
  945POPC   C1A15063  43.152  21.391   8.564
  945POPC   D2A15064  43.150  21.364   8.264
  945POPC   C3A15065  43.068  21.424   7.964
  945POPC   C4A15066  43.102  21.402   7.664
  945POPC   C1B15067  42.916  21.322   8.564
  945POPC   C2B15068  42.840  21.297   8.264
  945POPC   C3B15069  42.900  21.303   7.964
  945POPC   C4B15070  42.876  21.288   7.664
  946POPC   NC315071  44.633   8.157   9.464
  946POPC   PO415072  44.649   8.191   9.164
  946POPC   GL115073  44.644   8.215   8.864
  946POPC   GL215074  44.716   8.083   8.864
  946POPC   C1A15075  44.692   8.160   8.564
  946POPC   D2A15076  44.646   8.218   8.264
  946POPC   C3A15077  44.621   8.212   7.964
  946POPC   C4A15078  44.638   8.149   7.664
  946POPC   C1B15079  44.800   7.964   8.564
  946POPC   C2B15080  44.856   7.974   8.264
  946POPC   C3B15081  44.863   8.023   7.964
  946POPC   C4B15082  44.791   7.993   7.664
  947POPC   NC315083  40.741   8.164   9.464
  947POPC   PO415084  40.781   8.177   9.164
  947POPC   GL115085  40.761   8.242   8.864
  947POPC   GL215086  40.848   8.357   8.864
  947POPC   C1A15087  40.739   8.226   8.564
  947POPC   D2A15088  40.787   8.214   8.264
  947POPC   C3A15089  40.788   8.239   7.964
  947POPC   C4A15090  40.816   8.215   7.664
  947POPC   C1B15091  40.893   8.459   8.564
  947POPC   C2B15092  40.888   8.418   8.264
  947POPC   C3B15093  40.927   8.454   7.964
  947POPC   C4B15094  40.925   8.423   7.664
  948POPC   NC315095  43.125  35.387   9.464
  948POPC   PO415096  43.098  35.330   9.164
  948POPC   GL115097  43.128  35.367   8.864
  948POPC   GL215098  43.023  35.399   8.864
  948POPC   C1A15099  43.131  35.303   8.564
  948POPC   D2A15100  43.152  35.310   8.264
  948POPC   C3A15101  43.140  35.320   7.964
  948POPC   C4A15102  43.104  35.360   7.664
  948POPC   C1B15103  42.898  35.405   8.564
  948POPC   C2B15104  42.857  35.395   8.264
  948POPC   C3B15105  42.887  35.414   7.964
  948POPC   C4B15106  42.892  35.389   7.664
  949POPC   NC315107  11.289  25.223   9.464
  949POPC   PO415108  11.336  25.219   9.164
  949POPC   GL115109  11.303  25.286   8.864
  949POPC   GL215110  11.400  25.299   8.864
  949POPC   C1A15111  11.329  25.307   8.564
  949POPC   D2A15112  11.314  25.251   8.264
  949POPC   C3A15113  11.317  25.234   7.964
  949POPC   C4A15114  11.321  25.262   7.664
  949POPC   C1B15115  11.587  25.271   8.564
  949POPC   C2B15116  11.519  25.229   8.264
  949POPC   C3B15117  11.543  25.289   7.964
  949POPC   C4B15118  11.570  25.219   7.664
  950POPC   NC315119  36.114  19.882   9.464
  950POPC   PO415120  36.129  19.861   9.164
  950POPC   GL115121  36.090  19.820   8.864
  950POPC   GL215122  36.087  19.766   8.864
  950POPC   C1A15123  36.120  19.790   8.564
  950POPC   D2A15124  36.165  19.853   8.264
  950POPC   C3A15125  36.158  19.876   7.964
  950POPC   C4A15126  36.079  19.815   7.664
  950POPC   C1B15127  36.010  19.639   8.564
  950POPC   C2B15128  35.993  19.564   8.264
  950POPC   C3B15129  35.973  19.606   7.964
  950POPC   C4B15130  35.993  19.655   7.664
  951POPC   NC315131  44.643  22.172   9.464
  951POPC   PO415132  44.661  22.204   9.164
  951POPC   GL115133  44.673  22.141   8.864
  951POPC   GL215134  44.719  22.235   8.864
  951POPC   C1A15135  44.649  22.187   8.564
  951POPC   D2A15136  44.664  22.152   8.264
  951POPC   C3A15137  44.710  22.185   7.964
  951POPC   C4A15138  44.634  22.206   7.664
  951POPC   C1B15139  44.755  22.351   8.564
  951POPC   C2B15140  44.760  22.325   8.264
  951POPC   C3B15141  44.831  22.415   7.964
  951POPC   C4B15142  44.847  22.366   7.664
  952POPC   NC315143   6.654  41.554   9.464
  952POPC   PO415144   6.677  41.524   9.164
  952POPC   GL115145   6.631  41.542   8.864
  952POPC   GL215146   6.716  41.438   8.864
  952POPC   C1A15147   6.686  41.583   8.564
  952POPC   D2A15148   6.664  41.603   8.264
  952POPC   C3A15149   6.597  41.576   7.964
  952POPC   C4A15150   6.689  41.529   7.664
  952POPC   C1B15151   6.882  41.388   8.564
  952POPC   C2B15152   6.826  41.410   8.264
  952POPC   C3B15153   6.873  41.369   7.964
  952POPC   C4B15154   6.889  41.409   7.664
  953POPC   NC315155  16.003  34.554   9.464
  953POPC   PO415156  15.917  34.566   9.164
  953POPC   GL115157  15.993  34.616   8.864
  953POPC   GL215158  15.859  34.583   8.864
  953POPC   C1A15159  16.000  34.529   8.564
  953POPC   D2A15160  15.979  34.605   8.264
  953POPC   C3A15161  15.924  34.614   7.964
  953POPC   C4A15162  15.988  34.563   7.664
  953POPC   C1B15163  15.704  34.609   8.564
  953POPC   C2B15164  15.689  34.628   8.264
  953POPC   C3B15165  15.702  34.660   7.964
  953POPC   C4B15166  15.700  34.684   7.664
  954POPC   NC315167  28.383  15.930   9.464
  954POPC   PO415168  28.345  15.937   9.164
  954POPC   GL115169  28.366  15.943   8.864
  954POPC   GL215170  28.295  16.052   8.864
  954POPC   C1A15171  28.333  15.911   8.564
  954POPC   D2A15172  28.349  16.001   8.264
  954POPC   C3A15173  28.328  15.941   7.964
  954POPC   C4A15174  28.368  15.932   7.664
  954POPC   C1B15175  28.206  16.205   8.564
  954POPC   C2B15176  28.235  16.194   8.264
  954POPC   C3B15177  28.219  16.166   7.964
  954POPC   C4B15178  28.228  16.138   7.664
  955POPC   NC315179  36.169  26.032   9.464
  955POPC   PO415180  36.156  26.024   9.164
  955POPC   GL115181  36.087  26.011   8.864
  955POPC   GL215182  36.271  26.069   8.864
  955POPC   C1A15183  36.141  26.090   8.564
  955POPC   D2A15184  36.123  26.050   8.264
  955POPC   C3A15185  36.115  26.056   7.964
  955POPC   C4A15186  36.078  26.058   7.664
  955POPC   C1B15187  36.362  26.184   8.564
  955POPC   C2B15188  36.386  26.142   8.264
  955POPC   C3B15189  36.398  26.155   7.964
  955POPC   C4B15190  36.351  26.154   7.664
  956POPC   NC315191  40.736  15.931   9.464
  956POPC   PO415192  40.825  15.952   9.164
  956POPC   GL115193  40.785  15.963   8.864
  956POPC   GL215194  40.645  15.901   8.864
  956POPC   C1A15195  40.778  15.961   8.564
  956POPC   D2A15196  40.819  15.985   8.264
  956POPC   C3A15197  40.806  15.917   7.964
  956POPC   C4A15198  40.813  15.950   7.664
  956POPC   C1B15199  40.584  15.773   8.564
  956POPC   C2B15200  40.653  15.733   8.264
  956POPC   C3B15201  40.584  15.770   7.964
  956POPC   C4B15202  40.562  15.752   7.664
  957POPC   NC315203  20.564   6.681   9.464
  957POPC   PO415204  20.649   6.616   9.164
  957POPC   GL115205  20.640   6.690   8.864
  957POPC   GL215206  20.439   6.612   8.864
  957POPC   C1A15207  20.602   6.622   8.564
  957POPC   D2A15208  20.574   6.621   8.264
  957POPC   C3A15209  20.589   6.637   7.964
  957POPC   C4A15210  20.637   6.653   7.664
  957POPC   C1B15211  20.361   6.577   8.564
  957POPC   C2B15212  20.321   6.636   8.264
  957POPC   C3B15213  20.371   6.622   7.964
  957POPC   C4B15214  20.370   6.626   7.664
  958POPC   NC315215  39.192  39.268   9.464
  958POPC   PO415216  39.264  39.258   9.164
  958POPC   GL115217  39.241  39.232   8.864
  958POPC   GL215218  39.197  39.115   8.864
  958POPC   C1A15219  39.255  39.199   8.564
  958POPC   D2A15220  39.226  39.184   8.264
  958POPC   C3A15221  39.266  39.199   7.964
  958POPC   C4A15222  39.216  39.226   7.664
  958POPC   C1B15223  39.182  38.953   8.564
  958POPC   C2B15224  39.232  38.960   8.264
  958POPC   C3B15225  39.222  38.999   7.964
  958POPC   C4B15226  39.219  38.995   7.664
  959POPC   NC315227  35.335  42.287   9.464
  959POPC   PO415228  35.354  42.307   9.164
  959POPC   GL115229  35.378  42.312   8.864
  959POPC   GL215230  35.342  42.206   8.864
  959POPC   C1A15231  35.313  42.376   8.564
  959POPC   D2A15232  35.321  42.365   8.264
  959POPC   C3A15233  35.382  42.315   7.964
  959POPC   C4A15234  35.312  42.370   7.664
  959POPC   C1B15235  35.234  42.100   8.564
  959POPC   C2B15236  35.279  42.137   8.264
  959POPC   C3B15237  35.294  42.087   7.964
  959POPC   C4B15238  35.244  42.106   7.664
  960POPC   NC315239  35.309  25.263   9.464
  960POPC   PO415240  35.396  25.230   9.164
  960POPC   GL115241  35.308  25.218   8.864
  960POPC   GL215242  35.418  25.374   8.864
  960POPC   C1A15243  35.389  25.218   8.564
  960POPC   D2A15244  35.307  25.239   8.264
  960POPC   C3A15245  35.319  25.232   7.964
  960POPC   C4A15246  35.392  25.282   7.664
  960POPC   C1B15247  35.500  25.403   8.564
  960POPC   C2B15248  35.544  25.484   8.264
  960POPC   C3B15249  35.567  25.497   7.964
  960POPC   C4B15250  35.553  25.496   7.664
  961POPC   NC315251  33.010   7.429   9.464
  961POPC   PO415252  33.031   7.419   9.164
  961POPC   GL115253  33.036   7.458   8.864
  961POPC   GL215254  32.954   7.477   8.864
  961POPC   C1A15255  33.055   7.416   8.564
  961POPC   D2A15256  33.041   7.423   8.264
  961POPC   C3A15257  33.057   7.468   7.964
  961POPC   C4A15258  33.000   7.463   7.664
  961POPC   C1B15259  32.808   7.589   8.564
  961POPC   C2B15260  32.825   7.597   8.264
  961POPC   C3B15261  32.809   7.529   7.964
  961POPC   C4B15262  32.861   7.523   7.664
  962POPC   NC315263  22.980  32.255   9.464
  962POPC   PO415264  22.949  32.287   9.164
  962POPC   GL115265  22.912  32.268   8.864
  962POPC   GL215266  22.850  32.366   8.864
  962POPC   C1A15267  22.948  32.283   8.564
  962POPC   D2A15268  22.926  32.267   8.264
  962POPC   C3A15269  22.917  32.249   7.964
  962POPC   C4A15270  22.959  32.213   7.664
  962POPC   C1B15271  22.757  32.489   8.564
  962POPC   C2B15272  22.814  32.415   8.264
  962POPC   C3B15273  22.822  32.427   7.964
  962POPC   C4B15274  22.762  32.431   7.664
  963POPC   NC315275  25.296  14.386   9.464
  963POPC   PO415276  25.242  14.369   9.164
  963POPC   GL115277  25.298  14.387   8.864
  963POPC   GL215278  25.120  14.468   8.864
  963POPC   C1A15279  25.275  14.427   8.564
  963POPC   D2A15280  25.257  14.441   8.264
  963POPC   C3A15281  25.257  14.408   7.964
  963POPC   C4A15282  25.268  14.364   7.664
  963POPC   C1B15283  25.020  14.458   8.564
  963POPC   C2B15284  25.024  14.478   8.264
  963POPC   C3B15285  25.065  14.482   7.964
  963POPC   C4B15286  25.050  14.486   7.664
  964POPC   NC315287  37.633   1.196   9.464
  964POPC   PO415288  37.634   1.226   9.164
  964POPC   GL115289  37.673   1.254   8.864
  964POPC   GL215290  37.624   1.071   8.864
  964POPC   C1A15291  37.696   1.192   8.564
  964POPC   D2A15292  37.632   1.208   8.264
  964POPC   C3A15293  37.725   1.212   7.964
  964POPC   C4A15294  37.711   1.245   7.664
  964POPC   C1B15295  37.635   1.022   8.564
  964POPC   C2B15296  37.553   0.966   8.264
  964POPC   C3B15297  37.550   0.954   7.964
  964POPC   C4B15298  37.627   1.005   7.664
  965POPC   NC315299  16.742  11.251   9.464
  965POPC   PO415300  16.692  11.253   9.164
  965POPC   GL115301  16.781  11.260   8.864
  965POPC   GL215302  16.671  11.193   8.864
  965POPC   C1A15303  16.726  11.285   8.564
  965POPC   D2A15304  16.768  11.262   8.264
  965POPC   C3A15305  16.749  11.265   7.964
  965POPC   C4A15306  16.725  11.281   7.664
  965POPC   C1B15307  16.506  11.169   8.564
  965POPC   C2B15308  16.544  11.167   8.264
  965POPC   C3B15309  16.559  11.174   7.964
  965POPC   C4B15310  16.472  11.174   7.664
  966POPC   NC315311  29.947   5.106   9.464
  966POPC   PO415312  29.966   5.104   9.164
  966POPC   GL115313  29.873   5.044   8.864
  966POPC   GL215314  30.002   5.185   8.864
  966POPC   C1A15315  29.918   5.116   8.564
  966POPC   D2A15316  29.931   5.127   8.264
  966POPC   C3A15317  29.927   5.064   7.964
  966POPC   C4A15318  29.898   5.058   7.664
  966POPC   C1B15319  30.128   5.241   8.564
  966POPC   C2B15320  30.066   5.313   8.264
  966POPC   C3B15321  30.087   5.269   7.964
  966POPC   C4B15322  30.090   5.252   7.664
  967POPC   NC315323  36.873  34.618   9.464
  967POPC   PO415324  36.871  34.532   9.164
  967POPC   GL115325  36.875  34.531   8.864
  967POPC   GL215326  36.832  34.497   8.864
  967POPC   C1A15327  36.938  34.555   8.564
  967POPC   D2A15328  36.890  34.572   8.264
  967POPC   C3A15329  36.923  34.558   7.964
  967POPC   C4A15330  36.863  34.573   7.664
  967POPC   C1B15331  36.654  34.434   8.564
  967POPC   C2B15332  36.716  34.465   8.264
  967POPC   C3B15333  36.648  34.511   7.964
  967POPC   C4B15334  36.678  34.482   7.664
  968POPC   NC315335  27.583  12.099   9.464
  968POPC   PO415336  27.574  12.116   9.164
  968POPC   GL115337  27.562  12.066   8.864
  968POPC   GL215338  27.523  12.029   8.864
  968POPC   C1A15339  27.584  12.048   8.564
  968POPC   D2A15340  27.598  12.048   8.264
  968POPC   C3A15341  27.564  12.085   7.964
  968POPC   C4A15342  27.632  12.101   7.664
  968POPC   C1B15343  27.365  11.916   8.564
  968POPC   C2B15344  27.367  11.988   8.264
  968POPC   C3B15345  27.424  11.934   7.964
  968POPC   C4B15346  27.423  11.996   7.664
  969POPC   NC315347  43.112  43.858   9.464
  969POPC   PO415348  43.086  43.891   9.164
  969POPC   GL115349  43.108  43.907   8.864
  969POPC   GL215350  43.149  43.811   8.864
  969POPC   C1A15351  43.118  43.858   8.564
  969POPC   D2A15352  43.116  43.837   8.264
  969POPC   C3A15353  43.155  43.929   7.964
  969POPC   C4A15354  43.130  43.891   7.664
  969POPC   C1B15355  43.103  43.642   8.564
  969POPC   C2B15356  43.169  43.597   8.264
  969POPC   C3B15357  43.101  43.623   7.964
  969POPC   C4B15358  43.150  43.625   7.664
  970POPC   NC315359  36.940   8.984   9.464
  970POPC   PO415360  36.874   8.933   9.164
  970POPC   GL115361  36.931   8.975   8.864
  970POPC   GL215362  36.755   8.952   8.864
  970POPC   C1A15363  36.909   9.005   8.564
  970POPC   D2A15364  36.941   9.000   8.264
  970POPC   C3A15365  36.942   9.019   7.964
  970POPC   C4A15366  36.944   9.003   7.664
  970POPC   C1B15367  36.668   8.904   8.564
  970POPC   C2B15368  36.679   8.920   8.264
  970POPC   C3B15369  36.623   8.860   7.964
  970POPC   C4B15370  36.634   8.889   7.664
  971POPC   NC315371  32.283  12.053   9.464
  971POPC   PO415372  32.250  12.112   9.164
  971POPC   GL115373  32.258  12.092   8.864
  971POPC   GL215374  32.360  12.031   8.864
  971POPC   C1A15375  32.270  12.114   8.564
  971POPC   D2A15376  32.256  12.035   8.264
  971POPC   C3A15377  32.274  12.048   7.964
  971POPC   C4A15378  32.224  12.058   7.664
  971POPC   C1B15379  32.545  12.007   8.564
  971POPC   C2B15380  32.495  12.047   8.264
  971POPC   C3B15381  32.491  12.085   7.964
  971POPC   C4B15382  32.504  12.060   7.664
  972POPC   NC315383  43.095  18.321   9.464
  972POPC   PO415384  43.120  18.305   9.164
  972POPC   GL115385  43.080  18.302   8.864
  972POPC   GL215386  43.184  18.403   8.864
  972POPC   C1A15387  43.097  18.318   8.564
  972POPC   D2A15388  43.137  18.316   8.264
  972POPC   C3A15389  43.120  18.240   7.964
  972POPC   C4A15390  43.134  18.257   7.664
  972POPC   C1B15391  43.264  18.453   8.564
  972POPC   C2B15392  43.222  18.452   8.264
  972POPC   C3B15393  43.269  18.510   7.964
  972POPC   C4B15394  43.239  18.484   7.664
  973POPC   NC315395  29.133  43.907   9.464
  973POPC   PO415396  29.129  43.895   9.164
  973POPC   GL115397  29.170  43.874   8.864
  973POPC   GL215398  29.089  43.809   8.864
  973POPC   C1A15399  29.145  43.908   8.564
  973POPC   D2A15400  29.126  43.894   8.264
  973POPC   C3A15401  29.187  43.888   7.964
  973POPC   C4A15402  29.166  43.899   7.664
  973POPC   C1B15403  29.156  43.685   8.564
  973POPC   C2B15404  29.151  43.677   8.264
  973POPC   C3B15405  29.104  43.625   7.964
  973POPC   C4B15406  29.133  43.630   7.664
  974POPC   NC315407  18.315  44.641   9.464
  974POPC   PO415408  18.254  44.615   9.164
  974POPC   GL115409  18.326  44.709   8.864
  974POPC   GL215410  18.453  44.681   8.864
  974POPC   C1A15411  18.286  44.619   8.564
  974POPC   D2A15412  18.252  44.640   8.264
  974POPC   C3A15413  18.285  44.652   7.964
  974POPC   C4A15414  18.273  44.622   7.664
  974POPC   C1B15415  18.520  44.581   8.564
  974POPC   C2B15416  18.565  44.644   8.264
  974POPC   C3B15417  18.551  44.621   7.964
  974POPC   C4B15418  18.552  44.620   7.664
  975POPC   NC315419  40.021  43.888   9.464
  975POPC   PO415420  40.001  43.881   9.164
  975POPC   GL115421  40.026  43.886   8.864
  975POPC   GL215422  40.107  43.788   8.864
  975POPC   C1A15423  39.997  43.929   8.564
  975POPC   D2A15424  39.982  43.928   8.264
  975POPC   C3A15425  39.972  43.888   7.964
  975POPC   C4A15426  40.009  43.897   7.664
  975POPC   C1B15427  40.208  43.686   8.564
  975POPC   C2B15428  40.215  43.649   8.264
  975POPC   C3B15429  40.140  43.726   7.964
  975POPC   C4B15430  40.134  43.710   7.664
  976POPC   NC315431   8.150  43.067   9.464
  976POPC   PO415432   8.181  43.077   9.164
  976POPC   GL115433   8.171  43.061   8.864
  976POPC   GL215434   8.189  43.240   8.864
  976POPC   C1A15435   8.158  43.160   8.564
  976POPC   D2A15436   8.195  43.109   8.264
  976POPC   C3A15437   8.196  43.084   7.964
  976POPC   C4A15438   8.182  43.083   7.664
  976POPC   C1B15439   8.125  43.305   8.564
  976POPC   C2B15440   8.090  43.315   8.264
  976POPC   C3B15441   8.108  43.346   7.964
  976POPC   C4B15442   8.067  43.311   7.664
  977POPC   NC315443  29.169  11.264   9.464
  977POPC   PO415444  29.152  11.252   9.164
  977POPC   GL115445  29.104  11.298   8.864
  977POPC   GL215446  29.176  11.433   8.864
  977POPC   C1A15447  29.148  11.305   8.564
  977POPC   D2A15448  29.176  11.296   8.264
  977POPC   C3A15449  29.155  11.289   7.964
  977POPC   C4A15450  29.183  11.253   7.664
  977POPC   C1B15451  29.102  11.549   8.564
  977POPC   C2B15452  29.100  11.586   8.264
  977POPC   C3B15453  29.132  11.571   7.964
  977POPC   C4B15454  29.145  11.502   7.664
  978POPC   NC315455  19.018  34.567   9.464
  978POPC   PO415456  19.100  34.620   9.164
  978POPC   GL115457  19.042  34.541   8.864
  978POPC   GL215458  18.982  34.460   8.864
  978POPC   C1A15459  19.030  34.623   8.564
  978POPC   D2A15460  19.011  34.599   8.264
  978POPC   C3A15461  19.043  34.596   7.964
  978POPC   C4A15462  19.010  34.566   7.664
  978POPC   C1B15463  18.962  34.352   8.564
  978POPC   C2B15464  18.985  34.333   8.264
  978POPC   C3B15465  19.002  34.305   7.964
  978POPC   C4B15466  18.960  34.297   7.664
  979POPC   NC315467  20.644  41.509   9.464
  979POPC   PO415468  20.577  41.510   9.164
  979POPC   GL115469  20.615  41.589   8.864
  979POPC   GL215470  20.568  41.672   8.864
  979POPC   C1A15471  20.571  41.557   8.564
  979POPC   D2A15472  20.567  41.551   8.264
  979POPC   C3A15473  20.655  41.587   7.964
  979POPC   C4A15474  20.585  41.584   7.664
  979POPC   C1B15475  20.561  41.787   8.564
  979POPC   C2B15476  20.639  41.822   8.264
  979POPC   C3B15477  20.589  41.764   7.964
  979POPC   C4B15478  20.585  41.825   7.664
  980POPC   NC315479  35.331   9.701   9.464
  980POPC   PO415480  35.322   9.747   9.164
  980POPC   GL115481  35.319   9.718   8.864
  980POPC   GL215482  35.404   9.864   8.864
  980POPC   C1A15483  35.338   9.753   8.564
  980POPC   D2A15484  35.326   9.784   8.264
  980POPC   C3A15485  35.310   9.798   7.964
  980POPC   C4A15486  35.327   9.721   7.664
  980POPC   C1B15487  35.380   9.962   8.564
  980POPC   C2B15488  35.347   9.970   8.264
  980POPC   C3B15489  35.315   9.976   7.964
  980POPC   C4B15490  35.322  10.033   7.664
  981POPC   NC315491  36.169   1.243   9.464
  981POPC   PO415492  36.091   1.249   9.164
  981POPC   GL115493  36.131   1.204   8.864
  981POPC   GL215494  36.267   1.165   8.864
  981POPC   C1A15495  36.145   1.240   8.564
  981POPC   D2A15496  36.137   1.173   8.264
  981POPC   C3A15497  36.146   1.256   7.964
  981POPC   C4A15498  36.125   1.243   7.664
  981POPC   C1B15499  36.389   1.109   8.564
  981POPC   C2B15500  36.332   1.072   8.264
  981POPC   C3B15501  36.334   1.127   7.964
  981POPC   C4B15502  36.352   1.112   7.664
  982POPC   NC315503  15.955  36.163   9.464
  982POPC   PO415504  15.996  36.082   9.164
  982POPC   GL115505  15.928  36.104   8.864
  982POPC   GL215506  15.872  36.194   8.864
  982POPC   C1A15507  15.922  36.146   8.564
  982POPC   D2A15508  15.976  36.173   8.264
  982POPC   C3A15509  15.951  36.170   7.964
  982POPC   C4A15510  15.969  36.173   7.664
  982POPC   C1B15511  15.878  36.393   8.564
  982POPC   C2B15512  15.807  36.326   8.264
  982POPC   C3B15513  15.838  36.349   7.964
  982POPC   C4B15514  15.810  36.322   7.664
  983POPC   NC315515  39.230  40.816   9.464
  983POPC   PO415516  39.277  40.826   9.164
  983POPC   GL115517  39.187  40.783   8.864
  983POPC   GL215518  39.353  40.810   8.864
  983POPC   C1A15519  39.273  40.765   8.564
  983POPC   D2A15520  39.266  40.826   8.264
  983POPC   C3A15521  39.216  40.794   7.964
  983POPC   C4A15522  39.279  40.740   7.664
  983POPC   C1B15523  39.434  40.915   8.564
  983POPC   C2B15524  39.425  40.878   8.264
  983POPC   C3B15525  39.417  40.865   7.964
  983POPC   C4B15526  39.421  40.932   7.664
  984POPC   NC315527   5.061  29.191   9.464
  984POPC   PO415528   5.067  29.175   9.164
  984POPC   GL115529   5.074  29.140   8.864
  984POPC   GL215530   5.034  29.026   8.864
  984POPC   C1A15531   5.043  29.116   8.564
  984POPC   D2A15532   5.046  29.164   8.264
  984POPC   C3A15533   5.066  29.188   7.964
  984POPC   C4A15534   5.137  29.141   7.664
  984POPC   C1B15535   4.921  28.969   8.564
  984POPC   C2B15536   4.955  29.001   8.264
  984POPC   C3B15537   4.886  28.931   7.964
  984POPC   C4B15538   4.945  28.930   7.664
  985POPC   NC315539  15.910   0.427   9.464
  985POPC   PO415540  15.968   0.415   9.164
  985POPC   GL115541  15.912   0.424   8.864
  985POPC   GL215542  16.073   0.536   8.864
  985POPC   C1A15543  15.971   0.439   8.564
  985POPC   D2A15544  15.919   0.447   8.264
  985POPC   C3A15545  15.995   0.398   7.964
  985POPC   C4A15546  15.962   0.434   7.664
  985POPC   C1B15547  16.118   0.647   8.564
  985POPC   C2B15548  16.155   0.616   8.264
  985POPC   C3B15549  16.145   0.664   7.964
  985POPC   C4B15550  16.116   0.661   7.664
  986POPC   NC315551  33.035  16.734   9.464
  986POPC   PO415552  33.010  16.750   9.164
  986POPC   GL115553  32.989  16.744   8.864
  986POPC   GL215554  32.974  16.651   8.864
  986POPC   C1A15555  32.989  16.746   8.564
  986POPC   D2A15556  33.041  16.722   8.264
  986POPC   C3A15557  33.046  16.768   7.964
  986POPC   C4A15558  32.988  16.766   7.664
  986POPC   C1B15559  32.780  16.601   8.564
  986POPC   C2B15560  32.847  16.570   8.264
  986POPC   C3B15561  32.802  16.525   7.964
  986POPC   C4B15562  32.835  16.566   7.664
  987POPC   NC315563   0.413  22.901   9.464
  987POPC   PO415564   0.419  22.972   9.164
  987POPC   GL115565   0.427  22.892   8.864
  987POPC   GL215566   0.438  22.837   8.864
  987POPC   C1A15567   0.470  22.924   8.564
  987POPC   D2A15568   0.475  22.899   8.264
  987POPC   C3A15569   0.406  22.947   7.964
  987POPC   C4A15570   0.469  22.982   7.664
  987POPC   C1B15571   0.486  22.729   8.564
  987POPC   C2B15572   0.555  22.706   8.264
  987POPC   C3B15573   0.484  22.747   7.964
  987POPC   C4B15574   0.551  22.738   7.664
  988POPC   NC315575  22.890  26.835   9.464
  988POPC   PO415576  22.944  26.822   9.164
  988POPC   GL115577  22.911  26.838   8.864
  988POPC   GL215578  23.000  26.770   8.864
  988POPC   C1A15579  22.958  26.852   8.564
  988POPC   D2A15580  22.982  26.855   8.264
  988POPC   C3A15581  22.900  26.788   7.964
  988POPC   C4A15582  22.925  26.835   7.664
  988POPC   C1B15583  23.127  26.678   8.564
  988POPC   C2B15584  23.157  26.642   8.264
  988POPC   C3B15585  23.119  26.631   7.964
  988POPC   C4B15586  23.149  26.622   7.664
  989POPC   NC315587  28.402   2.003   9.464
  989POPC   PO415588  28.367   2.017   9.164
  989POPC   GL115589  28.372   2.008   8.864
  989POPC   GL215590  28.322   2.089   8.864
  989POPC   C1A15591  28.343   2.022   8.564
  989POPC   D2A15592  28.380   1.969   8.264
  989POPC   C3A15593  28.352   2.000   7.964
  989POPC   C4A15594  28.365   1.981   7.664
  989POPC   C1B15595  28.274   2.208   8.564
  989POPC   C2B15596  28.287   2.177   8.264
  989POPC   C3B15597  28.229   2.179   7.964
  989POPC   C4B15598  28.199   2.223   7.664
  990POPC   NC315599  41.562   9.705   9.464
  990POPC   PO415600  41.539   9.761   9.164
  990POPC   GL115601  41.564   9.722   8.864
  990POPC   GL215602  41.512   9.836   8.864
  990POPC   C1A15603  41.546   9.757   8.564
  990POPC   D2A15604  41.571   9.797   8.264
  990POPC   C3A15605  41.568   9.717   7.964
  990POPC   C4A15606  41.532   9.765   7.664
  990POPC   C1B15607  41.438  10.001   8.564
  990POPC   C2B15608  41.445   9.968   8.264
  990POPC   C3B15609  41.401   9.979   7.964
  990POPC   C4B15610  41.431   9.981   7.664
  991POPC   NC315611  26.061  22.114   9.464
  991POPC   PO415612  26.047  22.115   9.164
  991POPC   GL115613  26.035  22.129   8.864
  991POPC   GL215614  26.166  22.139   8.864
  991POPC   C1A15615  26.079  22.113   8.564
  991POPC   D2A15616  26.053  22.130   8.264
  991POPC   C3A15617  26.041  22.129   7.964
  991POPC   C4A15618  26.033  22.212   7.664
  991POPC   C1B15619  26.238  22.128   8.564
  991POPC   C2B15620  26.304  22.043   8.264
  991POPC   C3B15621  26.252  22.093   7.964
  991POPC   C4B15622  26.264  22.048   7.664
  992POPC   NC315623   4.281  36.899   9.464
  992POPC   PO415624   4.307  36.927   9.164
  992POPC   GL115625   4.341  36.863   8.864
  992POPC   GL215626   4.310  36.762   8.864
  992POPC   C1A15627   4.311  36.950   8.564
  992POPC   D2A15628   4.292  36.937   8.264
  992POPC   C3A15629   4.274  36.913   7.964
  992POPC   C4A15630   4.280  36.911   7.664
  992POPC   C1B15631   4.327  36.706   8.564
  992POPC   C2B15632   4.315  36.656   8.264
  992POPC   C3B15633   4.379  36.685   7.964
  992POPC   C4B15634   4.318  36.639   7.664
  993POPC   NC315635  29.175  40.802   9.464
  993POPC   PO415636  29.156  40.772   9.164
  993POPC   GL115637  29.169  40.804   8.864
  993POPC   GL215638  29.069  40.653   8.864
  993POPC   C1A15639  29.158  40.798   8.564
  993POPC   D2A15640  29.160  40.737   8.264
  993POPC   C3A15641  29.186  40.824   7.964
  993POPC   C4A15642  29.125  40.812   7.664
  993POPC   C1B15643  29.026  40.556   8.564
  993POPC   C2B15644  29.037  40.598   8.264
  993POPC   C3B15645  29.018  40.540   7.964
  993POPC   C4B15646  28.966  40.612   7.664
  994POPC   NC315647  43.914  25.280   9.464
  994POPC   PO415648  43.868  25.264   9.164
  994POPC   GL115649  43.909  25.284   8.864
  994POPC   GL215650  43.913  25.397   8.864
  994POPC   C1A15651  43.857  25.283   8.564
  994POPC   D2A15652  43.906  25.306   8.264
  994POPC   C3A15653  43.891  25.277   7.964
  994POPC   C4A15654  43.851  25.269   7.664
  994POPC   C1B15655  43.955  25.445   8.564
  994POPC   C2B15656  44.011  25.516   8.264
  994POPC   C3B15657  43.962  25.497   7.964
  994POPC   C4B15658  43.948  25.502   7.664
  995POPC   NC315659  43.132  14.360   9.464
  995POPC   PO415660  43.065  14.429   9.164
  995POPC   GL115661  43.115  14.372   8.864
  995POPC   GL215662  43.173  14.444   8.864
  995POPC   C1A15663  43.077  14.367   8.564
  995POPC   D2A15664  43.157  14.360   8.264
  995POPC   C3A15665  43.071  14.409   7.964
  995POPC   C4A15666  43.066  14.429   7.664
  995POPC   C1B15667  43.343  14.513   8.564
  995POPC   C2B15668  43.376  14.557   8.264
  995POPC   C3B15669  43.315  14.520   7.964
  995POPC   C4B15670  43.368  14.537   7.664
  996POPC   NC315671  28.372  11.345   9.464
  996POPC   PO415672  28.320  11.324   9.164
  996POPC   GL115673  28.339  11.334   8.864
  996POPC   GL215674  28.379  11.170   8.864
  996POPC   C1A15675  28.378  11.295   8.564
  996POPC   D2A15676  28.418  11.334   8.264
  996POPC   C3A15677  28.330  11.299   7.964
  996POPC   C4A15678  28.370  11.294   7.664
  996POPC   C1B15679  28.414  11.096   8.564
  996POPC   C2B15680  28.378  11.098   8.264
  996POPC   C3B15681  28.416  11.019   7.964
  996POPC   C4B15682  28.408  11.023   7.664
  997POPC   NC315683  35.316  18.315   9.464
  997POPC   PO415684  35.323  18.250   9.164
  997POPC   GL115685  35.342  18.256   8.864
  997POPC   GL215686  35.444  18.209   8.864
  997POPC   C1A15687  35.330  18.316   8.564
  997POPC   D2A15688  35.377  18.283   8.264
  997POPC   C3A15689  35.396  18.321   7.964
  997POPC   C4A15690  35.338  18.321   7.664
  997POPC   C1B15691  35.498  18.147   8.564
  997POPC   C2B15692  35.582  18.090   8.264
  997POPC   C3B15693  35.532  18.083   7.964
  997POPC   C4B15694  35.494  18.141   7.664
  998POPC   NC315695   8.207  13.596   9.464
  998POPC   PO415696   8.240  13.641   9.164
  998POPC   GL115697   8.246  13.659   8.864
  998POPC   GL215698   8.039  13.609   8.864
  998POPC   C1A15699   8.206  13.667   8.564
  998POPC   D2A15700   8.234  13.614   8.264
  998POPC   C3A15701   8.189  13.674   7.964
  998POPC   C4A15702   8.209  13.638   7.664
  998POPC   C1B15703   8.011  13.521   8.564
  998POPC   C2B15704   7.924  13.567   8.264
  998POPC   C3B15705   7.955  13.523   7.964
  998POPC   C4B15706   7.976  13.543   7.664
  999POPC   NC315707  36.121   4.289   9.464
  999POPC   PO415708  36.151   4.297   9.164
  999POPC   GL115709  36.146   4.321   8.864
  999POPC   GL215710  36.061   4.189   8.864
  999POPC   C1A15711  36.174   4.304   8.564
  999POPC   D2A15712  36.116   4.320   8.264
  999POPC   C3A15713  36.101   4.346   7.964
  999POPC   C4A15714  36.081   4.332   7.664
  999POPC   C1B15715  35.997   4.060   8.564
  999POPC   C2B15716  36.018   4.130   8.264
  999POPC   C3B15717  36.021   4.077   7.964
  999POPC   C4B15718  36.029   4.069   7.664
 1000POPC   NC315719  17.493  34.591   9.464
 1000POPC   PO415720  17.470  34.532   9.164
 1000POPC   GL115721  17.547  34.534   8.864
 1000POPC   GL215722  17.467  34.479   8.864
 1000POPC   C1A15723  17.551  34.574   8.564
 1000POPC   D2A15724  17.469  34.596   8.264
 1000POPC   C3A15725  17.469  34.574   7.964
 1000POPC   C4A15726  17.483  34.527   7.664
 1000POPC   C1B15727  17.433  34.292   8.564
 1000POPC   C2B15728  17.458  34.376   8.264
 1000POPC   C3B15729  17.456  34.331   7.964
 1000POPC   C4B15730  17.413  34.366   7.664
 1001POPC   NC315731  20.567  29.954   9.464
 1001POPC   PO415732  20.632  29.923   9.164
 1001POPC   GL115733  20.576  29.940   8.864
 1001POPC   GL215734  20.452  29.913   8.864
 1001POPC   C1A15735  20.590  29.936   8.564
 1001POPC   D2A15736  20.585  29.897   8.264
 1001POPC   C3A15737  20.637  29.967   7.964
 1001POPC   C4A15738  20.613  29.877   7.664
 1001POPC   C1B15739  20.332  29.805   8.564
 1001POPC   C2B15740  20.388  29.864   8.264
 1001POPC   C3B15741  20.361  29.816   7.964
 1001POPC   C4B15742  20.396  29.883   7.664
 1002POPC   NC315743  43.100  13.587   9.464
 1002POPC   PO415744  43.064  13.624   9.164
 1002POPC   GL115745  43.073  13.613   8.864
 1002POPC   GL215746  43.049  13.696   8.864
 1002POPC   C1A15747  43.115  13.641   8.564
 1002POPC   D2A15748  43.139  13.654   8.264
 1002POPC   C3A15749  43.132  13.676   7.964
 1002POPC   C4A15750  43.076  13.664   7.664
 1002POPC   C1B15751  42.947  13.782   8.564
 1002POPC   C2B15752  42.983  13.859   8.264
 1002POPC   C3B15753  42.992  13.859   7.964
 1002POPC   C4B15754  42.991  13.828   7.664
 1003POPC   NC315755   0.400  42.314   9.464
 1003POPC   PO415756   0.449  42.339   9.164
 1003POPC   GL115757   0.424  42.382   8.864
 1003POPC   GL215758   0.531  42.378   8.864
 1003POPC   C1A15759   0.464  42.380   8.564
 1003POPC   D2A15760   0.433  42.292   8.264
 1003POPC   C3A15761   0.463  42.368   7.964
 1003POPC   C4A15762   0.457  42.313   7.664
 1003POPC   C1B15763   0.670  42.409   8.564
 1003POPC   C2B15764   0.629  42.418   8.264
 1003POPC   C3B15765   0.676  42.447   7.964
 1003POPC   C4B15766   0.660  42.480   7.664
 1004POPC   NC315767  40.031   3.526   9.464
 1004POPC   PO415768  39.988   3.573   9.164
 1004POPC   GL115769  40.051   3.574   8.864
 1004POPC   GL215770  40.081   3.399   8.864
 1004POPC   C1A15771  39.995   3.553   8.564
 1004POPC   D2A15772  40.028   3.529   8.264
 1004POPC   C3A15773  39.972   3.516   7.964
 1004POPC   C4A15774  40.032   3.522   7.664
 1004POPC   C1B15775  40.105   3.259   8.564
 1004POPC   C2B15776  40.061   3.307   8.264
 1004POPC   C3B15777  40.089   3.312   7.964
 1004POPC   C4B15778  40.113   3.322   7.664
 1005POPC   NC315779  15.954  36.886   9.464
 1005POPC   PO415780  15.979  36.887   9.164
 1005POPC   GL115781  15.965  36.867   8.864
 1005POPC   GL215782  16.028  36.837   8.864
 1005POPC   C1A15783  15.916  36.934   8.564
 1005POPC   D2A15784  15.924  36.951   8.264
 1005POPC   C3A15785  15.991  36.918   7.964
 1005POPC   C4A15786  16.004  36.877   7.664
 1005POPC   C1B15787  16.126  36.708   8.564
 1005POPC   C2B15788  16.134  36.744   8.264
 1005POPC   C3B15789  16.090  36.722   7.964
 1005POPC   C4B15790  16.087  36.713   7.664
 1006POPC   NC315791   2.763  13.624   9.464
 1006POPC   PO415792   2.784  13.635   9.164
 1006POPC   GL115793   2.769  13.627   8.864
 1006POPC   GL215794   2.836  13.597   8.864
 1006POPC   C1A15795   2.796  13.626   8.564
 1006POPC   D2A15796   2.746  13.640   8.264
 1006POPC   C3A15797   2.802  13.603   7.964
 1006POPC   C4A15798   2.746  13.656   7.664
 1006POPC   C1B15799   2.987  13.560   8.564
 1006POPC   C2B15800   2.983  13.571   8.264
 1006POPC   C3B15801   2.994  13.578   7.964
 1006POPC   C4B15802   3.033  13.534   7.664
 1007POPC   NC315803  37.654  16.689   9.464
 1007POPC   PO415804  37.688  16.723   9.164
 1007POPC   GL115805  37.656  16.685   8.864
 1007POPC   GL215806  37.753  16.595   8.864
 1007POPC   C1A15807  37.700  16.769   8.564
 1007POPC   D2A15808  37.729  16.694   8.264
 1007POPC   C3A15809  37.727  16.757   7.964
 1007POPC   C4A15810  37.660  16.735   7.664
 1007POPC   C1B15811  37.778  16.488   8.564
 1007POPC   C2B15812  37.862  16.522   8.264
 1007POPC   C3B15813  37.790  16.558   7.964
 1007POPC   C4B15814  37.866  16.569   7.664
 1008POPC   NC315815   7.398  34.597   9.464
 1008POPC   PO415816   7.374  34.618   9.164
 1008POPC   GL115817   7.380  34.551   8.864
 1008POPC   GL215818   7.476  34.427   8.864
 1008POPC   C1A15819   7.422  34.600   8.564
 1008POPC   D2A15820   7.410  34.589   8.264
 1008POPC   C3A15821   7.379  34.603   7.964
 1008POPC   C4A15822   7.383  34.594   7.664
 1008POPC   C1B15823   7.465  34.383   8.564
 1008POPC   C2B15824   7.504  34.330   8.264
 1008POPC   C3B15825   7.547  34.341   7.964
 1008POPC   C4B15826   7.528  34.339   7.664
 1009POPC   NC315827  13.628  12.104   9.464
 1009POPC   PO415828  13.636  12.122   9.164
 1009POPC   GL115829  13.627  12.046   8.864
 1009POPC   GL215830  13.786  12.088   8.864
 1009POPC   C1A15831  13.583  12.125   8.564
 1009POPC   D2A15832  13.624  12.045   8.264
 1009POPC   C3A15833  13.590  12.116   7.964
 1009POPC   C4A15834  13.620  12.085   7.664
 1009POPC   C1B15835  13.897  12.088   8.564
 1009POPC   C2B15836  13.907  12.089   8.264
 1009POPC   C3B15837  13.894  12.094   7.964
 1009POPC   C4B15838  13.863  12.135   7.664
 1010POPC   NC315839  32.251   7.468   9.464
 1010POPC   PO415840  32.249   7.465   9.164
 1010POPC   GL115841  32.226   7.460   8.864
 1010POPC   GL215842  32.353   7.449   8.864
 1010POPC   C1A15843  32.201   7.446   8.564
 1010POPC   D2A15844  32.276   7.437   8.264
 1010POPC   C3A15845  32.285   7.425   7.964
 1010POPC   C4A15846  32.209   7.461   7.664
 1010POPC   C1B15847  32.457   7.536   8.564
 1010POPC   C2B15848  32.448   7.599   8.264
 1010POPC   C3B15849  32.450   7.580   7.964
 1010POPC   C4B15850  32.435   7.564   7.664
 1011POPC   NC315851  23.702  31.497   9.464
 1011POPC   PO415852  23.702  31.445   9.164
 1011POPC   GL115853  23.677  31.446   8.864
 1011POPC   GL215854  23.743  31.576   8.864
 1011POPC   C1A15855  23.749  31.491   8.564
 1011POPC   D2A15856  23.739  31.496   8.264
 1011POPC   C3A15857  23.692  31.445   7.964
 1011POPC   C4A15858  23.704  31.431   7.664
 1011POPC   C1B15859  23.799  31.719   8.564
 1011POPC   C2B15860  23.813  31.718   8.264
 1011POPC   C3B15861  23.818  31.729   7.964
 1011POPC   C4B15862  23.773  31.738   7.664
 1012POPC   NC315863  38.406   8.191   9.464
 1012POPC   PO415864  38.436   8.149   9.164
 1012POPC   GL115865  38.417   8.182   8.864
 1012POPC   GL215866  38.572   8.212   8.864
 1012POPC   C1A15867  38.442   8.163   8.564
 1012POPC   D2A15868  38.470   8.192   8.264
 1012POPC   C3A15869  38.485   8.231   7.964
 1012POPC   C4A15870  38.504   8.178   7.664
 1012POPC   C1B15871  38.646   8.294   8.564
 1012POPC   C2B15872  38.673   8.292   8.264
 1012POPC   C3B15873  38.659   8.269   7.964
 1012POPC   C4B15874  38.708   8.266   7.664
 1013POPC   NC315875  11.346  12.086   9.464
 1013POPC   PO415876  11.348  12.098   9.164
 1013POPC   GL115877  11.272  12.059   8.864
 1013POPC   GL215878  11.241  12.235   8.864
 1013POPC   C1A15879  11.313  12.072   8.564
 1013POPC   D2A15880  11.303  12.046   8.264
 1013POPC   C3A15881  11.312  12.086   7.964
 1013POPC   C4A15882  11.261  12.077   7.664
 1013POPC   C1B15883  11.219  12.342   8.564
 1013POPC   C2B15884  11.188  12.329   8.264
 1013POPC   C3B15885  11.223  12.258   7.964
 1013POPC   C4B15886  11.134  12.326   7.664
 1014POPC   NC315887   7.444   5.915   9.464
 1014POPC   PO415888   7.384   5.908   9.164
 1014POPC   GL115889   7.431   5.909   8.864
 1014POPC   GL215890   7.392   5.990   8.864
 1014POPC   C1A15891   7.465   5.865   8.564
 1014POPC   D2A15892   7.414   5.856   8.264
 1014POPC   C3A15893   7.469   5.910   7.964
 1014POPC   C4A15894   7.388   5.842   7.664
 1014POPC   C1B15895   7.275   6.106   8.564
 1014POPC   C2B15896   7.356   6.131   8.264
 1014POPC   C3B15897   7.290   6.080   7.964
 1014POPC   C4B15898   7.344   6.083   7.664
 1015POPC   NC315899  43.100  24.523   9.464
 1015POPC   PO415900  43.112  24.511   9.164
 1015POPC   GL115901  43.144  24.512   8.864
 1015POPC   GL215902  43.177  24.522   8.864
 1015POPC   C1A15903  43.062  24.477   8.564
 1015POPC   D2A15904  43.127  24.499   8.264
 1015POPC   C3A15905  43.076  24.449   7.964
 1015POPC   C4A15906  43.147  24.476   7.664
 1015POPC   C1B15907  43.296  24.597   8.564
 1015POPC   C2B15908  43.309  24.579   8.264
 1015POPC   C3B15909  43.312  24.577   7.964
 1015POPC   C4B15910  43.388  24.621   7.664
 1016POPC   NC315911  34.623   0.422   9.464
 1016POPC   PO415912  34.615   0.419   9.164
 1016POPC   GL115913  34.550   0.400   8.864
 1016POPC   GL215914  34.561   0.555   8.864
 1016POPC   C1A15915  34.607   0.466   8.564
 1016POPC   D2A15916  34.529   0.485   8.264
 1016POPC   C3A15917  34.587   0.427   7.964
 1016POPC   C4A15918  34.585   0.462   7.664
 1016POPC   C1B15919  34.544   0.685   8.564
 1016POPC   C2B15920  34.516   0.643   8.264
 1016POPC   C3B15921  34.517   0.707   7.964
 1016POPC   C4B15922  34.501   0.702   7.664
 1017POPC   NC315923  40.021   9.730   9.464
 1017POPC   PO415924  40.034   9.745   9.164
 1017POPC   GL115925  39.988   9.745   8.864
 1017POPC   GL215926  40.153   9.759   8.864
 1017POPC   C1A15927  40.057   9.712   8.564
 1017POPC   D2A15928  40.026   9.773   8.264
 1017POPC   C3A15929  39.989   9.781   7.964
 1017POPC   C4A15930  40.025   9.748   7.664
 1017POPC   C1B15931  40.268   9.724   8.564
 1017POPC   C2B15932  40.236   9.704   8.264
 1017POPC   C3B15933  40.212   9.725   7.964
 1017POPC   C4B15934  40.234   9.783   7.664
 1018POPC   NC315935  26.062  20.591   9.464
 1018POPC   PO415936  26.003  20.597   9.164
 1018POPC   GL115937  26.079  20.612   8.864
 1018POPC   GL215938  26.103  20.527   8.864
 1018POPC   C1A15939  26.084  20.563   8.564
 1018POPC   D2A15940  26.007  20.653   8.264
 1018POPC   C3A15941  26.007  20.592   7.964
 1018POPC   C4A15942  26.080  20.629   7.664
 1018POPC   C1B15943  26.221  20.438   8.564
 1018POPC   C2B15944  26.215  20.406   8.264
 1018POPC   C3B15945  26.214  20.477   7.964
 1018POPC   C4B15946  26.198  20.396   7.664
 1019POPC   NC315947  28.374   9.020   9.464
 1019POPC   PO415948  28.387   8.937   9.164
 1019POPC   GL115949  28.418   8.975   8.864
 1019POPC   GL215950  28.508   8.871   8.864
 1019POPC   C1A15951  28.417   8.941   8.564
 1019POPC   D2A15952  28.418   8.953   8.264
 1019POPC   C3A15953  28.397   8.996   7.964
 1019POPC   C4A15954  28.343   8.985   7.664
 1019POPC   C1B15955  28.576   8.757   8.564
 1019POPC   C2B15956  28.589   8.831   8.264
 1019POPC   C3B15957  28.595   8.805   7.964
 1019POPC   C4B15958  28.586   8.774   7.664
 1020POPC   NC315959  27.585  41.601   9.464
 1020POPC   PO415960  27.623  41.536   9.164
 1020POPC   GL115961  27.586  41.564   8.864
 1020POPC   GL215962  27.478  41.607   8.864
 1020POPC   C1A15963  27.611  41.534   8.564
 1020POPC   D2A15964  27.603  41.584   8.264
 1020POPC   C3A15965  27.550  41.587   7.964
 1020POPC   C4A15966  27.633  41.556   7.664
 1020POPC   C1B15967  27.421  41.783   8.564
 1020POPC   C2B15968  27.446  41.721   8.264
 1020POPC   C3B15969  27.424  41.736   7.964
 1020POPC   C4B15970  27.412  41.766   7.664
 1021POPC   NC315971  36.946   7.413   9.464
 1021POPC   PO415972  36.924   7.424   9.164
 1021POPC   GL115973  36.951   7.445   8.864
 1021POPC   GL215974  37.059   7.374   8.864
 1021POPC   C1A15975  36.948   7.394   8.564
 1021POPC   D2A15976  36.947   7.415   8.264
 1021POPC   C3A15977  36.944   7.447   7.964
 1021POPC   C4A15978  36.904   7.467   7.664
 1021POPC   C1B15979  37.192   7.406   8.564
 1021POPC   C2B15980  37.172   7.419   8.264
 1021POPC   C3B15981  37.129   7.415   7.964
 1021POPC   C4B15982  37.121   7.408   7.664
 1022POPC   NC315983  30.730  25.223   9.464
 1022POPC   PO415984  30.705  25.222   9.164
 1022POPC   GL115985  30.656  25.259   8.864
 1022POPC   GL215986  30.587  25.238   8.864
 1022POPC   C1A15987  30.690  25.291   8.564
 1022POPC   D2A15988  30.725  25.268   8.264
 1022POPC   C3A15989  30.731  25.272   7.964
 1022POPC   C4A15990  30.705  25.233   7.664
 1022POPC   C1B15991  30.443  25.188   8.564
 1022POPC   C2B15992  30.484  25.169   8.264
 1022POPC   C3B15993  30.430  25.164   7.964
 1022POPC   C4B15994  30.463  25.176   7.664
 1023POPC   NC315995  38.463  43.907   9.464
 1023POPC   PO415996  38.484  43.858   9.164
 1023POPC   GL115997  38.443  43.866   8.864
 1023POPC   GL215998  38.408  43.986   8.864
 1023POPC   C1A15999  38.489  43.841   8.564
 1023POPC   D2A16000  38.480  43.864   8.264
 1023POPC   C3A16001  38.477  43.905   7.964
 1023POPC   C4A16002  38.441  43.855   7.664
 1023POPC   C1B16003  38.350  44.103   8.564
 1023POPC   C2B16004  38.344  44.143   8.264
 1023POPC   C3B16005  38.377  44.138   7.964
 1023POPC   C4B16006  38.319  44.086   7.664
 1024POPC   NC316007  33.822  43.860   9.464
 1024POPC   PO416008  33.801  43.880   9.164
 1024POPC   GL116009  33.772  43.902   8.864
 1024POPC   GL216010  33.662  43.876   8.864
 1024POPC   C1A16011  33.773  43.855   8.564
 1024POPC   D2A16012  33.835  43.869   8.264
 1024POPC   C3A16013  33.793  43.916   7.964
 1024POPC   C4A16014  33.768  43.904   7.664
 1024POPC   C1B16015  33.576  43.811   8.564
 1024POPC   C2B16016  33.539  43.824   8.264
 1024POPC   C3B16017  33.557  43.845   7.964
 1024POPC   C4B16018  33.525  43.814   7.664
 1025POPC   NC316019  14.381  15.207   9.464
 1025POPC   PO416020  14.398  15.196   9.164
 1025POPC   GL116021  14.404  15.146   8.864
 1025POPC   GL216022  14.481  15.278   8.864
 1025POPC   C1A16023  14.395  15.217   8.564
 1025POPC   D2A16024  14.453  15.133   8.264
 1025POPC   C3A16025  14.415  15.179   7.964
 1025POPC   C4A16026  14.400  15.208   7.664
 1025POPC   C1B16027  14.634  15.324   8.564
 1025POPC   C2B16028  14.633  15.343   8.264
 1025POPC   C3B16029  14.558  15.288   7.964
 1025POPC   C4B16030  14.642  15.317   7.664
 1026POPC   NC316031  42.293  22.984   9.464
 1026POPC   PO416032  42.354  22.902   9.164
 1026POPC   GL116033  42.315  22.930   8.864
 1026POPC   GL216034  42.480  23.017   8.864
 1026POPC   C1A16035  42.376  22.892   8.564
 1026POPC   D2A16036  42.285  22.926   8.264
 1026POPC   C3A16037  42.347  22.912   7.964
 1026POPC   C4A16038  42.297  22.944   7.664
 1026POPC   C1B16039  42.609  23.065   8.564
 1026POPC   C2B16040  42.583  22.989   8.264
 1026POPC   C3B16041  42.561  22.986   7.964
 1026POPC   C4B16042  42.607  22.990   7.664
 1027POPC   NC316043  27.622  16.777   9.464
 1027POPC   PO416044  27.564  16.764   9.164
 1027POPC   GL116045  27.595  16.740   8.864
 1027POPC   GL216046  27.536  16.645   8.864
 1027POPC   C1A16047  27.625  16.739   8.564
 1027POPC   D2A16048  27.580  16.716   8.264
 1027POPC   C3A16049  27.624  16.763   7.964
 1027POPC   C4A16050  27.626  16.717   7.664
 1027POPC   C1B16051  27.472  16.528   8.564
 1027POPC   C2B16052  27.460  16.472   8.264
 1027POPC   C3B16053  27.491  16.516   7.964
 1027POPC   C4B16054  27.424  16.544   7.664
 1028POPC   NC316055  35.344   2.036   9.464
 1028POPC   PO416056  35.309   2.010   9.164
 1028POPC   GL116057  35.308   1.976   8.864
 1028POPC   GL216058  35.275   1.970   8.864
 1028POPC   C1A16059  35.358   1.954   8.564
 1028POPC   D2A16060  35.380   2.006   8.264
 1028POPC   C3A16061  35.401   2.021   7.964
 1028POPC   C4A16062  35.351   1.997   7.664
 1028POPC   C1B16063  35.154   1.995   8.564
 1028POPC   C2B16064  35.131   1.993   8.264
 1028POPC   C3B16065  35.055   1.955   7.964
 1028POPC   C4B16066  35.055   1.942   7.664
 1029POPC   NC316067   2.000  26.029   9.464
 1029POPC   PO416068   1.980  26.081   9.164
 1029POPC   GL116069   2.019  26.002   8.864
 1029POPC   GL216070   2.062  26.030   8.864
 1029POPC   C1A16071   1.961  26.073   8.564
 1029POPC   D2A16072   2.024  26.059   8.264
 1029POPC   C3A16073   1.997  26.013   7.964
 1029POPC   C4A16074   2.038  25.992   7.664
 1029POPC   C1B16075   2.215  25.987   8.564
 1029POPC   C2B16076   2.274  25.986   8.264
 1029POPC   C3B16077   2.202  25.968   7.964
 1029POPC   C4B16078   2.197  25.940   7.664
 1030POPC   NC316079  43.148  29.924   9.464
 1030POPC   PO416080  43.089  29.939   9.164
 1030POPC   GL116081  43.131  29.907   8.864
 1030POPC   GL216082  43.259  30.003   8.864
 1030POPC   C1A16083  43.149  29.935   8.564
 1030POPC   D2A16084  43.157  29.950   8.264
 1030POPC   C3A16085  43.137  29.895   7.964
 1030POPC   C4A16086  43.126  29.882   7.664
 1030POPC   C1B16087  43.293  30.018   8.564
 1030POPC   C2B16088  43.312  29.972   8.264
 1030POPC   C3B16089  43.313  29.987   7.964
 1030POPC   C4B16090  43.349  29.980   7.664
 1031POPC   NC316091   9.000  15.133   9.464
 1031POPC   PO416092   8.946  15.164   9.164
 1031POPC   GL116093   8.923  15.218   8.864
 1031POPC   GL216094   8.873  15.254   8.864
 1031POPC   C1A16095   8.964  15.130   8.564
 1031POPC   D2A16096   9.009  15.132   8.264
 1031POPC   C3A16097   9.001  15.196   7.964
 1031POPC   C4A16098   8.992  15.166   7.664
 1031POPC   C1B16099   8.818  15.376   8.564
 1031POPC   C2B16100   8.849  15.445   8.264
 1031POPC   C3B16101   8.853  15.385   7.964
 1031POPC   C4B16102   8.818  15.374   7.664
 1032POPC   NC316103  30.709   6.666   9.464
 1032POPC   PO416104  30.734   6.610   9.164
 1032POPC   GL116105  30.677   6.669   8.864
 1032POPC   GL216106  30.767   6.529   8.864
 1032POPC   C1A16107  30.673   6.681   8.564
 1032POPC   D2A16108  30.686   6.637   8.264
 1032POPC   C3A16109  30.718   6.659   7.964
 1032POPC   C4A16110  30.660   6.625   7.664
 1032POPC   C1B16111  30.775   6.474   8.564
 1032POPC   C2B16112  30.796   6.396   8.264
 1032POPC   C3B16113  30.842   6.406   7.964
 1032POPC   C4B16114  30.826   6.408   7.664
 1033POPC   NC316115   0.454  37.671   9.464
 1033POPC   PO416116   0.450  37.640   9.164
 1033POPC   GL116117   0.416  37.722   8.864
 1033POPC   GL216118   0.483  37.738   8.864
 1033POPC   C1A16119   0.388  37.708   8.564
 1033POPC   D2A16120   0.479  37.657   8.264
 1033POPC   C3A16121   0.468  37.645   7.964
 1033POPC   C4A16122   0.461  37.633   7.664
 1033POPC   C1B16123   0.558  37.851   8.564
 1033POPC   C2B16124   0.637  37.917   8.264
 1033POPC   C3B16125   0.569  37.842   7.964
 1033POPC   C4B16126   0.621  37.859   7.664
 1034POPC   NC316127  14.367  19.094   9.464
 1034POPC   PO416128  14.407  19.095   9.164
 1034POPC   GL116129  14.376  19.088   8.864
 1034POPC   GL216130  14.320  19.015   8.864
 1034POPC   C1A16131  14.448  19.015   8.564
 1034POPC   D2A16132  14.405  19.065   8.264
 1034POPC   C3A16133  14.358  19.092   7.964
 1034POPC   C4A16134  14.396  19.050   7.664
 1034POPC   C1B16135  14.156  18.994   8.564
 1034POPC   C2B16136  14.161  18.985   8.264
 1034POPC   C3B16137  14.179  19.040   7.964
 1034POPC   C4B16138  14.123  19.032   7.664
 1035POPC   NC316139  43.875  15.991   9.464
 1035POPC   PO416140  43.923  15.957   9.164
 1035POPC   GL116141  43.912  15.945   8.864
 1035POPC   GL216142  43.794  15.976   8.864
 1035POPC   C1A16143  43.877  15.929   8.564
 1035POPC   D2A16144  43.866  15.913   8.264
 1035POPC   C3A16145  43.855  15.993   7.964
 1035POPC   C4A16146  43.840  16.004   7.664
 1035POPC   C1B16147  43.697  16.069   8.564
 1035POPC   C2B16148  43.714  16.089   8.264
 1035POPC   C3B16149  43.713  16.095   7.964
 1035POPC   C4B16150  43.672  16.100   7.664
 1036POPC   NC316151   0.390  27.633   9.464
 1036POPC   PO416152   0.406  27.598   9.164
 1036POPC   GL116153   0.471  27.633   8.864
 1036POPC   GL216154   0.432  27.463   8.864
 1036POPC   C1A16155   0.485  27.585   8.564
 1036POPC   D2A16156   0.443  27.623   8.264
 1036POPC   C3A16157   0.460  27.611   7.964
 1036POPC   C4A16158   0.396  27.572   7.664
 1036POPC   C1B16159   0.460  27.348   8.564
 1036POPC   C2B16160   0.371  27.390   8.264
 1036POPC   C3B16161   0.398  27.355   7.964
 1036POPC   C4B16162   0.451  27.345   7.664
 1037POPC   NC316163   5.850  19.087   9.464
 1037POPC   PO416164   5.852  19.063   9.164
 1037POPC   GL116165   5.903  19.088   8.864
 1037POPC   GL216166   5.730  19.122   8.864
 1037POPC   C1A16167   5.834  19.019   8.564
 1037POPC   D2A16168   5.835  19.014   8.264
 1037POPC   C3A16169   5.823  19.059   7.964
 1037POPC   C4A16170   5.910  19.107   7.664
 1037POPC   C1B16171   5.718  19.251   8.564
 1037POPC   C2B16172   5.654  19.216   8.264
 1037POPC   C3B16173   5.645  19.206   7.964
 1037POPC   C4B16174   5.643  19.254   7.664
 1038POPC   NC316175  33.837   6.619   9.464
 1038POPC   PO416176  33.839   6.597   9.164
 1038POPC   GL116177  33.758   6.689   8.864
 1038POPC   GL216178  33.821   6.760   8.864
 1038POPC   C1A16179  33.803   6.647   8.564
 1038POPC   D2A16180  33.759   6.688   8.264
 1038POPC   C3A16181  33.784   6.662   7.964
 1038POPC   C4A16182  33.755   6.665   7.664
 1038POPC   C1B16183  33.825   6.917   8.564
 1038POPC   C2B16184  33.894   6.903   8.264
 1038POPC   C3B16185  33.868   6.931   7.964
 1038POPC   C4B16186  33.824   6.842   7.664
 1039POPC   NC316187  38.450  12.104   9.464
 1039POPC   PO416188  38.417  12.071   9.164
 1039POPC   GL116189  38.455  12.111   8.864
 1039POPC   GL216190  38.544  11.989   8.864
 1039POPC   C1A16191  38.491  12.080   8.564
 1039POPC   D2A16192  38.468  12.050   8.264
 1039POPC   C3A16193  38.429  12.069   7.964
 1039POPC   C4A16194  38.450  12.041   7.664
 1039POPC   C1B16195  38.619  11.929   8.564
 1039POPC   C2B16196  38.625  11.910   8.264
 1039POPC   C3B16197  38.609  11.917   7.964
 1039POPC   C4B16198  38.609  11.905   7.664
 1040POPC   NC316199   9.002  41.546   9.464
 1040POPC   PO416200   9.021  41.580   9.164
 1040POPC   GL116201   8.925  41.569   8.864
 1040POPC   GL216202   8.860  41.482   8.864
 1040POPC   C1A16203   8.978  41.525   8.564
 1040POPC   D2A16204   8.976  41.521   8.264
 1040POPC   C3A16205   8.964  41.528   7.964
 1040POPC   C4A16206   8.936  41.515   7.664
 1040POPC   C1B16207   8.760  41.377   8.564
 1040POPC   C2B16208   8.763  41.435   8.264
 1040POPC   C3B16209   8.796  41.448   7.964
 1040POPC   C4B16210   8.757  41.467   7.664
 1041POPC   NC316211  39.971  19.845   9.464
 1041POPC   PO416212  40.043  19.852   9.164
 1041POPC   GL116213  39.982  19.847   8.864
 1041POPC   GL216214  39.923  19.954   8.864
 1041POPC   C1A16215  39.969  19.838   8.564
 1041POPC   D2A16216  39.969  19.878   8.264
 1041POPC   C3A16217  40.032  19.814   7.964
 1041POPC   C4A16218  39.965  19.853   7.664
 1041POPC   C1B16219  39.889  20.059   8.564
 1041POPC   C2B16220  39.875  20.052   8.264
 1041POPC   C3B16221  39.834  20.013   7.964
 1041POPC   C4B16222  39.914  20.065   7.664
 1042POPC   NC316223  23.733  43.144   9.464
 1042POPC   PO416224  23.747  43.096   9.164
 1042POPC   GL116225  23.722  43.100   8.864
 1042POPC   GL216226  23.780  43.019   8.864
 1042POPC   C1A16227  23.731  43.098   8.564
 1042POPC   D2A16228  23.745  43.134   8.264
 1042POPC   C3A16229  23.679  43.096   7.964
 1042POPC   C4A16230  23.670  43.158   7.664
 1042POPC   C1B16231  23.897  42.975   8.564
 1042POPC   C2B16232  23.924  43.019   8.264
 1042POPC   C3B16233  23.980  42.950   7.964
 1042POPC   C4B16234  23.907  43.009   7.664
 1043POPC   NC316235  21.380  12.809   9.464
 1043POPC   PO416236  21.410  12.867   9.164
 1043POPC   GL116237  21.368  12.841   8.864
 1043POPC   GL216238  21.377  12.734   8.864
 1043POPC   C1A16239  21.364  12.859   8.564
 1043POPC   D2A16240  21.347  12.810   8.264
 1043POPC   C3A16241  21.394  12.894   7.964
 1043POPC   C4A16242  21.400  12.883   7.664
 1043POPC   C1B16243  21.308  12.582   8.564
 1043POPC   C2B16244  21.379  12.586   8.264
 1043POPC   C3B16245  21.370  12.564   7.964
 1043POPC   C4B16246  21.301  12.615   7.664
 1044POPC   NC316247  43.859  13.596   9.464
 1044POPC   PO416248  43.868  13.673   9.164
 1044POPC   GL116249  43.861  13.582   8.864
 1044POPC   GL216250  43.845  13.757   8.864
 1044POPC   C1A16251  43.841  13.614   8.564
 1044POPC   D2A16252  43.895  13.653   8.264
 1044POPC   C3A16253  43.842  13.644   7.964
 1044POPC   C4A16254  43.860  13.674   7.664
 1044POPC   C1B16255  43.762  13.882   8.564
 1044POPC   C2B16256  43.767  13.881   8.264
 1044POPC   C3B16257  43.781  13.819   7.964
 1044POPC   C4B16258  43.698  13.863   7.664
 1045POPC   NC316259  25.298  22.945   9.464
 1045POPC   PO416260  25.224  22.947   9.164
 1045POPC   GL116261  25.274  22.959   8.864
 1045POPC   GL216262  25.342  23.074   8.864
 1045POPC   C1A16263  25.280  22.929   8.564
 1045POPC   D2A16264  25.246  22.975   8.264
 1045POPC   C3A16265  25.222  22.986   7.964
 1045POPC   C4A16266  25.275  22.963   7.664
 1045POPC   C1B16267  25.413  23.109   8.564
 1045POPC   C2B16268  25.428  23.084   8.264
 1045POPC   C3B16269  25.417  23.117   7.964
 1045POPC   C4B16270  25.468  23.101   7.664
 1046POPC   NC316271  43.838  22.160   9.464
 1046POPC   PO416272  43.900  22.148   9.164
 1046POPC   GL116273  43.870  22.168   8.864
 1046POPC   GL216274  44.013  22.070   8.864
 1046POPC   C1A16275  43.907  22.168   8.564
 1046POPC   D2A16276  43.890  22.176   8.264
 1046POPC   C3A16277  43.846  22.163   7.964
 1046POPC   C4A16278  43.904  22.119   7.664
 1046POPC   C1B16279  44.091  22.016   8.564
 1046POPC   C2B16280  44.103  22.029   8.264
 1046POPC   C3B16281  44.097  22.026   7.964
 1046POPC   C4B16282  44.073  22.074   7.664
 1047POPC   NC316283  16.730  17.535   9.464
 1047POPC   PO416284  16.694  17.521   9.164
 1047POPC   GL116285  16.724  17.544   8.864
 1047POPC   GL216286  16.629  17.495   8.864
 1047POPC   C1A16287  16.727  17.520   8.564
 1047POPC   D2A16288  16.720  17.461   8.264
 1047POPC   C3A16289  16.733  17.482   7.964
 1047POPC   C4A16290  16.780  17.518   7.664
 1047POPC   C1B16291  16.434  17.534   8.564
 1047POPC   C2B16292  16.471  17.533   8.264
 1047POPC   C3B16293  16.442  17.515   7.964
 1047POPC   C4B16294  16.469  17.464   7.664
 1048POPC   NC316295  35.322  38.433   9.464
 1048POPC   PO416296  35.326  38.447   9.164
 1048POPC   GL116297  35.401  38.442   8.864
 1048POPC   GL216298  35.344  38.344   8.864
 1048POPC   C1A16299  35.348  38.424   8.564
 1048POPC   D2A16300  35.315  38.466   8.264
 1048POPC   C3A16301  35.324  38.479   7.964
 1048POPC   C4A16302  35.385  38.427   7.664
 1048POPC   C1B16303  35.302  38.187   8.564
 1048POPC   C2B16304  35.346  38.186   8.264
 1048POPC   C3B16305  35.313  38.165   7.964
 1048POPC   C4B16306  35.339  38.186   7.664
 1049POPC   NC316307  34.591  38.451   9.464
 1049POPC   PO416308  34.566  38.423   9.164
 1049POPC   GL116309  34.567  38.466   8.864
 1049POPC   GL216310  34.432  38.485   8.864
 1049POPC   C1A16311  34.547  38.446   8.564
 1049POPC   D2A16312  34.565  38.438   8.264
 1049POPC   C3A16313  34.576  38.406   7.964
 1049POPC   C4A16314  34.575  38.468   7.664
 1049POPC   C1B16315  34.337  38.527   8.564
 1049POPC   C2B16316  34.292  38.561   8.264
 1049POPC   C3B16317  34.341  38.496   7.964
 1049POPC   C4B16318  34.294  38.541   7.664
 1050POPC   NC316319  26.793  40.793   9.464
 1050POPC   PO416320  26.814  40.758   9.164
 1050POPC   GL116321  26.808  40.797   8.864
 1050POPC   GL216322  26.760  40.930   8.864
 1050POPC   C1A16323  26.812  40.786   8.564
 1050POPC   D2A16324  26.831  40.755   8.264
 1050POPC   C3A16325  26.810  40.828   7.964
 1050POPC   C4A16326  26.797  40.739   7.664
 1050POPC   C1B16327  26.648  40.973   8.564
 1050POPC   C2B16328  26.642  40.950   8.264
 1050POPC   C3B16329  26.707  41.000   7.964
 1050POPC   C4B16330  26.716  40.982   7.664
 1051POPC   NC316331  18.281   4.320   9.464
 1051POPC   PO416332  18.243   4.274   9.164
 1051POPC   GL116333  18.264   4.283   8.864
 1051POPC   GL216334  18.345   4.349   8.864
 1051POPC   C1A16335  18.312   4.339   8.564
 1051POPC   D2A16336  18.281   4.290   8.264
 1051POPC   C3A16337  18.248   4.325   7.964
 1051POPC   C4A16338  18.270   4.348   7.664
 1051POPC   C1B16339  18.544   4.460   8.564
 1051POPC   C2B16340  18.537   4.430   8.264
 1051POPC   C3B16341  18.517   4.480   7.964
 1051POPC   C4B16342  18.499   4.449   7.664
 1052POPC   NC316343   6.618  36.089   9.464
 1052POPC   PO416344   6.626  36.081   9.164
 1052POPC   GL116345   6.659  36.162   8.864
 1052POPC   GL216346   6.704  36.036   8.864
 1052POPC   C1A16347   6.683  36.146   8.564
 1052POPC   D2A16348   6.651  36.145   8.264
 1052POPC   C3A16349   6.618  36.143   7.964
 1052POPC   C4A16350   6.685  36.145   7.664
 1052POPC   C1B16351   6.837  35.925   8.564
 1052POPC   C2B16352   6.758  35.885   8.264
 1052POPC   C3B16353   6.787  35.890   7.964
 1052POPC   C4B16354   6.797  35.972   7.664
 1053POPC   NC316355  29.893  39.968   9.464
 1053POPC   PO416356  29.915  40.041   9.164
 1053POPC   GL116357  29.919  40.004   8.864
 1053POPC   GL216358  29.961  40.068   8.864
 1053POPC   C1A16359  29.883  40.009   8.564
 1053POPC   D2A16360  29.924  40.031   8.264
 1053POPC   C3A16361  29.887  39.971   7.964
 1053POPC   C4A16362  29.949  40.021   7.664
 1053POPC   C1B16363  30.078  40.248   8.564
 1053POPC   C2B16364  30.054  40.214   8.264
 1053POPC   C3B16365  29.995  40.244   7.964
 1053POPC   C4B16366  30.048  40.244   7.664
 1054POPC   NC316367  22.210  12.802   9.464
 1054POPC   PO416368  22.159  12.838   9.164
 1054POPC   GL116369  22.161  12.859   8.864
 1054POPC   GL216370  22.275  12.871   8.864
 1054POPC   C1A16371  22.164  12.860   8.564
 1054POPC   D2A16372  22.169  12.826   8.264
 1054POPC   C3A16373  22.116  12.865   7.964
 1054POPC   C4A16374  22.127  12.806   7.664
 1054POPC   C1B16375  22.437  12.937   8.564
 1054POPC   C2B16376  22.433  12.889   8.264
 1054POPC   C3B16377  22.365  12.921   7.964
 1054POPC   C4B16378  22.419  12.872   7.664
 1055POPC   NC316379  29.899  29.874   9.464
 1055POPC   PO416380  29.918  29.928   9.164
 1055POPC   GL116381  29.962  29.970   8.864
 1055POPC   GL216382  29.772  29.847   8.864
 1055POPC   C1A16383  29.940  29.916   8.564
 1055POPC   D2A16384  29.872  29.896   8.264
 1055POPC   C3A16385  29.945  29.938   7.964
 1055POPC   C4A16386  29.964  29.895   7.664
 1055POPC   C1B16387  29.704  29.860   8.564
 1055POPC   C2B16388  29.690  29.890   8.264
 1055POPC   C3B16389  29.661  29.815   7.964
 1055POPC   C4B16390  29.642  29.873   7.664
 1056POPC   NC316391  28.358  16.746   9.464
 1056POPC   PO416392  28.395  16.682   9.164
 1056POPC   GL116393  28.411  16.729   8.864
 1056POPC   GL216394  28.216  16.782   8.864
 1056POPC   C1A16395  28.369  16.721   8.564
 1056POPC   D2A16396  28.345  16.780   8.264
 1056POPC   C3A16397  28.408  16.683   7.964
 1056POPC   C4A16398  28.409  16.732   7.664
 1056POPC   C1B16399  28.083  16.815   8.564
 1056POPC   C2B16400  28.088  16.742   8.264
 1056POPC   C3B16401  28.103  16.736   7.964
 1056POPC   C4B16402  28.125  16.829   7.664
 1057POPC   NC316403  42.318  39.992   9.464
 1057POPC   PO416404  42.335  39.987   9.164
 1057POPC   GL116405  42.299  40.016   8.864
 1057POPC   GL216406  42.315  40.078   8.864
 1057POPC   C1A16407  42.360  39.991   8.564
 1057POPC   D2A16408  42.337  39.998   8.264
 1057POPC   C3A16409  42.296  40.006   7.964
 1057POPC   C4A16410  42.293  40.037   7.664
 1057POPC   C1B16411  42.256  40.221   8.564
 1057POPC   C2B16412  42.219  40.207   8.264
 1057POPC   C3B16413  42.233  40.200   7.964
 1057POPC   C4B16414  42.180  40.191   7.664
 1058POPC   NC316415  15.919   5.080   9.464
 1058POPC   PO416416  15.917   5.094   9.164
 1058POPC   GL116417  15.960   5.136   8.864
 1058POPC   GL216418  15.830   5.062   8.864
 1058POPC   C1A16419  15.977   5.074   8.564
 1058POPC   D2A16420  15.962   5.112   8.264
 1058POPC   C3A16421  15.999   5.133   7.964
 1058POPC   C4A16422  15.952   5.052   7.664
 1058POPC   C1B16423  15.716   5.055   8.564
 1058POPC   C2B16424  15.671   5.080   8.264
 1058POPC   C3B16425  15.709   5.069   7.964
 1058POPC   C4B16426  15.676   5.086   7.664
 1059POPC   NC316427  31.470  27.628   9.464
 1059POPC   PO416428  31.482  27.635   9.164
 1059POPC   GL116429  31.511  27.637   8.864
 1059POPC   GL216430  31.505  27.452   8.864
 1059POPC   C1A16431  31.473  27.620   8.564
 1059POPC   D2A16432  31.440  27.543   8.264
 1059POPC   C3A16433  31.484  27.605   7.964
 1059POPC   C4A16434  31.441  27.574   7.664
 1059POPC   C1B16435  31.456  27.332   8.564
 1059POPC   C2B16436  31.446  27.309   8.264
 1059POPC   C3B16437  31.517  27.312   7.964
 1059POPC   C4B16438  31.447  27.372   7.664
 1060POPC   NC316439   7.454  39.270   9.464
 1060POPC   PO416440   7.396  39.222   9.164
 1060POPC   GL116441   7.421  39.182   8.864
 1060POPC   GL216442   7.269  39.321   8.864
 1060POPC   C1A16443   7.390  39.279   8.564
 1060POPC   D2A16444   7.376  39.193   8.264
 1060POPC   C3A16445   7.372  39.277   7.964
 1060POPC   C4A16446   7.439  39.198   7.664
 1060POPC   C1B16447   7.185  39.397   8.564
 1060POPC   C2B16448   7.240  39.309   8.264
 1060POPC   C3B16449   7.213  39.363   7.964
 1060POPC   C4B16450   7.230  39.312   7.664
 1061POPC   NC316451  42.314  19.062   9.464
 1061POPC   PO416452  42.340  19.030   9.164
 1061POPC   GL116453  42.305  19.075   8.864
 1061POPC   GL216454  42.199  19.177   8.864
 1061POPC   C1A16455  42.360  19.053   8.564
 1061POPC   D2A16456  42.327  19.107   8.264
 1061POPC   C3A16457  42.354  19.034   7.964
 1061POPC   C4A16458  42.299  19.067   7.664
 1061POPC   C1B16459  42.184  19.236   8.564
 1061POPC   C2B16460  42.124  19.187   8.264
 1061POPC   C3B16461  42.149  19.165   7.964
 1061POPC   C4B16462  42.148  19.237   7.664
 1062POPC   NC316463  23.715  26.009   9.464
 1062POPC   PO416464  23.744  26.013   9.164
 1062POPC   GL116465  23.681  25.997   8.864
 1062POPC   GL216466  23.753  26.207   8.864
 1062POPC   C1A16467  23.742  26.020   8.564
 1062POPC   D2A16468  23.736  26.036   8.264
 1062POPC   C3A16469  23.681  26.030   7.964
 1062POPC   C4A16470  23.723  26.001   7.664
 1062POPC   C1B16471  23.809  26.283   8.564
 1062POPC   C2B16472  23.798  26.247   8.264
 1062POPC   C3B16473  23.810  26.326   7.964
 1062POPC   C4B16474  23.780  26.278   7.664
 1063POPC   NC316475  15.134  20.579   9.464
 1063POPC   PO416476  15.150  20.657   9.164
 1063POPC   GL116477  15.134  20.576   8.864
 1063POPC   GL216478  15.048  20.607   8.864
 1063POPC   C1A16479  15.215  20.581   8.564
 1063POPC   D2A16480  15.141  20.619   8.264
 1063POPC   C3A16481  15.140  20.572   7.964
 1063POPC   C4A16482  15.146  20.561   7.664
 1063POPC   C1B16483  14.945  20.547   8.564
 1063POPC   C2B16484  14.935  20.572   8.264
 1063POPC   C3B16485  14.900  20.567   7.964
 1063POPC   C4B16486  14.983  20.598   7.664
 1064POPC   NC316487  32.201   8.969   9.464
 1064POPC   PO416488  32.282   8.936   9.164
 1064POPC   GL116489  32.297   8.933   8.864
 1064POPC   GL216490  32.325   9.008   8.864
 1064POPC   C1A16491  32.257   8.989   8.564
 1064POPC   D2A16492  32.204   8.956   8.264
 1064POPC   C3A16493  32.208   8.946   7.964
 1064POPC   C4A16494  32.270   8.970   7.664
 1064POPC   C1B16495  32.524   9.002   8.564
 1064POPC   C2B16496  32.494   9.000   8.264
 1064POPC   C3B16497  32.511   8.951   7.964
 1064POPC   C4B16498  32.545   8.943   7.664
 1065POPC   NC316499  24.479  44.686   9.464
 1065POPC   PO416500  24.448  44.650   9.164
 1065POPC   GL116501  24.489  44.634   8.864
 1065POPC   GL216502  24.423  44.792   8.864
 1065POPC   C1A16503  24.533  44.707   8.564
 1065POPC   D2A16504  24.450  44.656   8.264
 1065POPC   C3A16505  24.539  44.658   7.964
 1065POPC   C4A16506  24.527  44.694   7.664
 1065POPC   C1B16507  24.446  44.874   8.564
 1065POPC   C2B16508  24.427  44.917   8.264
 1065POPC   C3B16509  24.437  44.945   7.964
 1065POPC   C4B16510  24.380  44.884   7.664
 1066POPC   NC316511  37.690  34.566   9.464
 1066POPC   PO416512  37.705  34.612   9.164
 1066POPC   GL116513  37.636  34.564   8.864
 1066POPC   GL216514  37.620  34.650   8.864
 1066POPC   C1A16515  37.704  34.556   8.564
 1066POPC   D2A16516  37.659  34.545   8.264
 1066POPC   C3A16517  37.650  34.536   7.964
 1066POPC   C4A16518  37.669  34.625   7.664
 1066POPC   C1B16519  37.530  34.759   8.564
 1066POPC   C2B16520  37.577  34.770   8.264
 1066POPC   C3B16521  37.508  34.734   7.964
 1066POPC   C4B16522  37.524  34.753   7.664
 1067POPC   NC316523   1.965  43.130   9.464
 1067POPC   PO416524   2.019  43.076   9.164
 1067POPC   GL116525   1.949  43.141   8.864
 1067POPC   GL216526   1.890  43.170   8.864
 1067POPC   C1A16527   2.030  43.105   8.564
 1067POPC   D2A16528   1.955  43.105   8.264
 1067POPC   C3A16529   1.954  43.138   7.964
 1067POPC   C4A16530   1.992  43.084   7.664
 1067POPC   C1B16531   1.788  43.197   8.564
 1067POPC   C2B16532   1.764  43.158   8.264
 1067POPC   C3B16533   1.764  43.129   7.964
 1067POPC   C4B16534   1.783  43.176   7.664
 1068POPC   NC316535  18.316  27.600   9.464
 1068POPC   PO416536  18.251  27.617   9.164
 1068POPC   GL116537  18.282  27.614   8.864
 1068POPC   GL216538  18.165  27.663   8.864
 1068POPC   C1A16539  18.299  27.623   8.564
 1068POPC   D2A16540  18.309  27.617   8.264
 1068POPC   C3A16541  18.238  27.565   7.964
 1068POPC   C4A16542  18.316  27.579   7.664
 1068POPC   C1B16543  18.090  27.700   8.564
 1068POPC   C2B16544  18.086  27.687   8.264
 1068POPC   C3B16545  18.069  27.739   7.964
 1068POPC   C4B16546  18.055  27.695   7.664
 1069POPC   NC316547  12.037  24.527   9.464
 1069POPC   PO416548  12.044  24.485   9.164
 1069POPC   GL116549  12.039  24.517   8.864
 1069POPC   GL216550  12.217  24.523   8.864
 1069POPC   C1A16551  12.099  24.537   8.564
 1069POPC   D2A16552  12.076  24.495   8.264
 1069POPC   C3A16553  12.108  24.450   7.964
 1069POPC   C4A16554  12.068  24.520   7.664
 1069POPC   C1B16555  12.316  24.629   8.564
 1069POPC   C2B16556  12.282  24.598   8.264
 1069POPC   C3B16557  12.336  24.650   7.964
 1069POPC   C4B16558  12.306  24.625   7.664
 1070POPC   NC316559  40.746  40.778   9.464
 1070POPC   PO416560  40.758  40.779   9.164
 1070POPC   GL116561  40.810  40.805   8.864
 1070POPC   GL216562  40.740  40.913   8.864
 1070POPC   C1A16563  40.788  40.795   8.564
 1070POPC   D2A16564  40.771  40.736   8.264
 1070POPC   C3A16565  40.794  40.804   7.964
 1070POPC   C4A16566  40.819  40.782   7.664
 1070POPC   C1B16567  40.724  41.066   8.564
 1070POPC   C2B16568  40.714  41.045   8.264
 1070POPC   C3B16569  40.773  40.989   7.964
 1070POPC   C4B16570  40.733  41.073   7.664
 1071POPC   NC316571  44.659  40.767   9.464
 1071POPC   PO416572  44.647  40.761   9.164
 1071POPC   GL116573  44.681  40.809   8.864
 1071POPC   GL216574  44.537  40.795   8.864
 1071POPC   C1A16575  44.625  40.826   8.564
 1071POPC   D2A16576  44.689  40.805   8.264
 1071POPC   C3A16577  44.699  40.777   7.964
 1071POPC   C4A16578  44.652  40.803   7.664
 1071POPC   C1B16579  44.459  40.837   8.564
 1071POPC   C2B16580  44.454  40.798   8.264
 1071POPC   C3B16581  44.447  40.822   7.964
 1071POPC   C4B16582  44.420  40.826   7.664
 1072POPC   NC316583   1.186  25.260   9.464
 1072POPC   PO416584   1.235  25.280   9.164
 1072POPC   GL116585   1.222  25.272   8.864
 1072POPC   GL216586   1.287  25.343   8.864
 1072POPC   C1A16587   1.194  25.265   8.564
 1072POPC   D2A16588   1.211  25.255   8.264
 1072POPC   C3A16589   1.189  25.283   7.964
 1072POPC   C4A16590   1.214  25.226   7.664
 1072POPC   C1B16591   1.314  25.505   8.564
 1072POPC   C2B16592   1.221  25.532   8.264
 1072POPC   C3B16593   1.293  25.512   7.964
 1072POPC   C4B16594   1.268  25.506   7.664
 1073POPC   NC316595  33.836  23.753   9.464
 1073POPC   PO416596  33.778  23.680   9.164
 1073POPC   GL116597  33.827  23.700   8.864
 1073POPC   GL216598  33.789  23.846   8.864
 1073POPC   C1A16599  33.794  23.763   8.564
 1073POPC   D2A16600  33.775  23.713   8.264
 1073POPC   C3A16601  33.819  23.736   7.964
 1073POPC   C4A16602  33.752  23.670   7.664
 1073POPC   C1B16603  33.714  23.918   8.564
 1073POPC   C2B16604  33.712  23.983   8.264
 1073POPC   C3B16605  33.677  23.920   7.964
 1073POPC   C4B16606  33.735  23.935   7.664
 1074POPC   NC316607   0.482  21.417   9.464
 1074POPC   PO416608   0.426  21.421   9.164
 1074POPC   GL116609   0.438  21.394   8.864
 1074POPC   GL216610   0.569  21.416   8.864
 1074POPC   C1A16611   0.470  21.415   8.564
 1074POPC   D2A16612   0.413  21.391   8.264
 1074POPC   C3A16613   0.414  21.380   7.964
 1074POPC   C4A16614   0.437  21.392   7.664
 1074POPC   C1B16615   0.624  21.504   8.564
 1074POPC   C2B16616   0.637  21.530   8.264
 1074POPC   C3B16617   0.608  21.490   7.964
 1074POPC   C4B16618   0.665  21.512   7.664
 1075POPC   NC316619   5.895  30.696   9.464
 1075POPC   PO416620   5.819  30.648   9.164
 1075POPC   GL116621   5.907  30.703   8.864
 1075POPC   GL216622   5.978  30.621   8.864
 1075POPC   C1A16623   5.909  30.724   8.564
 1075POPC   D2A16624   5.918  30.720   8.264
 1075POPC   C3A16625   5.863  30.743   7.964
 1075POPC   C4A16626   5.904  30.705   7.664
 1075POPC   C1B16627   6.093  30.599   8.564
 1075POPC   C2B16628   6.098  30.607   8.264
 1075POPC   C3B16629   6.082  30.555   7.964
 1075POPC   C4B16630   6.048  30.551   7.664
 1076POPC   NC316631  32.267   5.877   9.464
 1076POPC   PO416632  32.289   5.881   9.164
 1076POPC   GL116633  32.237   5.855   8.864
 1076POPC   GL216634  32.348   5.753   8.864
 1076POPC   C1A16635  32.257   5.859   8.564
 1076POPC   D2A16636  32.270   5.871   8.264
 1076POPC   C3A16637  32.229   5.840   7.964
 1076POPC   C4A16638  32.236   5.891   7.664
 1076POPC   C1B16639  32.307   5.595   8.564
 1076POPC   C2B16640  32.314   5.689   8.264
 1076POPC   C3B16641  32.370   5.683   7.964
 1076POPC   C4B16642  32.303   5.679   7.664
 1077POPC   NC316643   0.488  24.531   9.464
 1077POPC   PO416644   0.412  24.467   9.164
 1077POPC   GL116645   0.413  24.534   8.864
 1077POPC   GL216646   0.360  24.540   8.864
 1077POPC   C1A16647   0.453  24.491   8.564
 1077POPC   D2A16648   0.408  24.449   8.264
 1077POPC   C3A16649   0.406  24.468   7.964
 1077POPC   C4A16650   0.470  24.449   7.664
 1077POPC   C1B16651   0.190  24.591   8.564
 1077POPC   C2B16652   0.199  24.637   8.264
 1077POPC   C3B16653   0.205  24.667   7.964
 1077POPC   C4B16654   0.235  24.627   7.664
 1078POPC   NC316655  20.655  43.086   9.464
 1078POPC   PO416656  20.590  43.125   9.164
 1078POPC   GL116657  20.635  43.126   8.864
 1078POPC   GL216658  20.492  43.084   8.864
 1078POPC   C1A16659  20.636  43.093   8.564
 1078POPC   D2A16660  20.641  43.104   8.264
 1078POPC   C3A16661  20.569  43.134   7.964
 1078POPC   C4A16662  20.582  43.094   7.664
 1078POPC   C1B16663  20.356  43.044   8.564
 1078POPC   C2B16664  20.381  43.047   8.264
 1078POPC   C3B16665  20.371  42.987   7.964
 1078POPC   C4B16666  20.401  43.005   7.664
 1079POPC   NC316667   8.210  12.085   9.464
 1079POPC   PO416668   8.205  12.027   9.164
 1079POPC   GL116669   8.181  12.114   8.864
 1079POPC   GL216670   8.264  11.981   8.864
 1079POPC   C1A16671   8.191  12.032   8.564
 1079POPC   D2A16672   8.203  12.075   8.264
 1079POPC   C3A16673   8.233  12.031   7.964
 1079POPC   C4A16674   8.231  12.046   7.664
 1079POPC   C1B16675   8.330  11.865   8.564
 1079POPC   C2B16676   8.305  11.841   8.264
 1079POPC   C3B16677   8.320  11.883   7.964
 1079POPC   C4B16678   8.374  11.843   7.664
 1080POPC   NC316679   9.774  29.957   9.464
 1080POPC   PO416680   9.737  29.961   9.164
 1080POPC   GL116681   9.708  29.897   8.864
 1080POPC   GL216682   9.744  30.070   8.864
 1080POPC   C1A16683   9.738  29.945   8.564
 1080POPC   D2A16684   9.717  29.936   8.264
 1080POPC   C3A16685   9.789  29.911   7.964
 1080POPC   C4A16686   9.763  29.970   7.664
 1080POPC   C1B16687   9.652  30.163   8.564
 1080POPC   C2B16688   9.726  30.111   8.264
 1080POPC   C3B16689   9.716  30.162   7.964
 1080POPC   C4B16690   9.675  30.148   7.664
 1081POPC   NC316691  11.330   2.815   9.464
 1081POPC   PO416692  11.311   2.802   9.164
 1081POPC   GL116693  11.254   2.783   8.864
 1081POPC   GL216694  11.361   2.677   8.864
 1081POPC   C1A16695  11.288   2.740   8.564
 1081POPC   D2A16696  11.261   2.723   8.264
 1081POPC   C3A16697  11.264   2.791   7.964
 1081POPC   C4A16698  11.295   2.790   7.664
 1081POPC   C1B16699  11.348   2.547   8.564
 1081POPC   C2B16700  11.413   2.517   8.264
 1081POPC   C3B16701  11.346   2.487   7.964
 1081POPC   C4B16702  11.400   2.509   7.664
 1082POPC   NC316703  15.208  43.124   9.464
 1082POPC   PO416704  15.152  43.087   9.164
 1082POPC   GL116705  15.211  43.125   8.864
 1082POPC   GL216706  15.145  43.023   8.864
 1082POPC   C1A16707  15.196  43.154   8.564
 1082POPC   D2A16708  15.181  43.065   8.264
 1082POPC   C3A16709  15.211  43.135   7.964
 1082POPC   C4A16710  15.168  43.137   7.664
 1082POPC   C1B16711  15.161  42.832   8.564
 1082POPC   C2B16712  15.208  42.888   8.264
 1082POPC   C3B16713  15.203  42.841   7.964
 1082POPC   C4B16714  15.170  42.870   7.664
 1083POPC   NC316715  11.275  28.334   9.464
 1083POPC   PO416716  11.298  28.401   9.164
 1083POPC   GL116717  11.309  28.406   8.864
 1083POPC   GL216718  11.210  28.281   8.864
 1083POPC   C1A16719  11.260  28.331   8.564
 1083POPC   D2A16720  11.339  28.378   8.264
 1083POPC   C3A16721  11.264  28.369   7.964
 1083POPC   C4A16722  11.311  28.320   7.664
 1083POPC   C1B16723  11.181  28.118   8.564
 1083POPC   C2B16724  11.184  28.146   8.264
 1083POPC   C3B16725  11.203  28.144   7.964
 1083POPC   C4B16726  11.231  28.130   7.664
 1084POPC   NC316727  30.703  14.365   9.464
 1084POPC   PO416728  30.741  14.382   9.164
 1084POPC   GL116729  30.670  14.451   8.864
 1084POPC   GL216730  30.817  14.388   8.864
 1084POPC   C1A16731  30.712  14.451   8.564
 1084POPC   D2A16732  30.727  14.394   8.264
 1084POPC   C3A16733  30.689  14.385   7.964
 1084POPC   C4A16734  30.718  14.385   7.664
 1084POPC   C1B16735  30.934  14.397   8.564
 1084POPC   C2B16736  30.950  14.434   8.264
 1084POPC   C3B16737  30.940  14.454   7.964
 1084POPC   C4B16738  30.899  14.405   7.664
 1085POPC   NC316739   3.510  24.444   9.464
 1085POPC   PO416740   3.552  24.520   9.164
 1085POPC   GL116741   3.528  24.479   8.864
 1085POPC   GL216742   3.405  24.564   8.864
 1085POPC   C1A16743   3.514  24.528   8.564
 1085POPC   D2A16744   3.524  24.499   8.264
 1085POPC   C3A16745   3.501  24.475   7.964
 1085POPC   C4A16746   3.582  24.462   7.664
 1085POPC   C1B16747   3.353  24.631   8.564
 1085POPC   C2B16748   3.371  24.653   8.264
 1085POPC   C3B16749   3.301  24.604   7.964
 1085POPC   C4B16750   3.295  24.577   7.664
 1086POPC   NC316751  35.351   0.462   9.464
 1086POPC   PO416752  35.310   0.448   9.164
 1086POPC   GL116753  35.377   0.398   8.864
 1086POPC   GL216754  35.340   0.587   8.864
 1086POPC   C1A16755  35.342   0.445   8.564
 1086POPC   D2A16756  35.381   0.399   8.264
 1086POPC   C3A16757  35.355   0.478   7.964
 1086POPC   C4A16758  35.315   0.442   7.664
 1086POPC   C1B16759  35.219   0.649   8.564
 1086POPC   C2B16760  35.228   0.650   8.264
 1086POPC   C3B16761  35.266   0.624   7.964
 1086POPC   C4B16762  35.296   0.700   7.664
 1087POPC   NC316763  37.678  40.053   9.464
 1087POPC   PO416764  37.694  39.964   9.164
 1087POPC   GL116765  37.657  39.998   8.864
 1087POPC   GL216766  37.519  40.001   8.864
 1087POPC   C1A16767  37.702  39.998   8.564
 1087POPC   D2A16768  37.671  40.031   8.264
 1087POPC   C3A16769  37.642  40.043   7.964
 1087POPC   C4A16770  37.634  39.984   7.664
 1087POPC   C1B16771  37.410  39.920   8.564
 1087POPC   C2B16772  37.412  39.991   8.264
 1087POPC   C3B16773  37.389  39.946   7.964
 1087POPC   C4B16774  37.390  39.953   7.664
 1088POPC   NC316775  11.262  20.605   9.464
 1088POPC   PO416776  11.325  20.618   9.164
 1088POPC   GL116777  11.350  20.563   8.864
 1088POPC   GL216778  11.375  20.751   8.864
 1088POPC   C1A16779  11.334  20.571   8.564
 1088POPC   D2A16780  11.330  20.569   8.264
 1088POPC   C3A16781  11.342  20.562   7.964
 1088POPC   C4A16782  11.262  20.652   7.664
 1088POPC   C1B16783  11.487  20.837   8.564
 1088POPC   C2B16784  11.411  20.831   8.264
 1088POPC   C3B16785  11.437  20.779   7.964
 1088POPC   C4B16786  11.409  20.856   7.664
 1089POPC   NC316787   2.800  15.980   9.464
 1089POPC   PO416788   2.802  15.915   9.164
 1089POPC   GL116789   2.744  15.998   8.864
 1089POPC   GL216790   2.800  15.820   8.864
 1089POPC   C1A16791   2.763  15.936   8.564
 1089POPC   D2A16792   2.729  15.936   8.264
 1089POPC   C3A16793   2.729  15.987   7.964
 1089POPC   C4A16794   2.794  15.921   7.664
 1089POPC   C1B16795   2.715  15.746   8.564
 1089POPC   C2B16796   2.691  15.713   8.264
 1089POPC   C3B16797   2.784  15.680   7.964
 1089POPC   C4B16798   2.727  15.668   7.664
 1090POPC   NC316799  36.877  35.378   9.464
 1090POPC   PO416800  36.908  35.306   9.164
 1090POPC   GL116801  36.930  35.365   8.864
 1090POPC   GL216802  37.012  35.252   8.864
 1090POPC   C1A16803  36.888  35.343   8.564
 1090POPC   D2A16804  36.892  35.376   8.264
 1090POPC   C3A16805  36.927  35.394   7.964
 1090POPC   C4A16806  36.860  35.370   7.664
 1090POPC   C1B16807  37.108  35.244   8.564
 1090POPC   C2B16808  37.171  35.188   8.264
 1090POPC   C3B16809  37.096  35.232   7.964
 1090POPC   C4B16810  37.088  35.223   7.664
 1091POPC   NC316811  38.461   1.209   9.464
 1091POPC   PO416812  38.408   1.206   9.164
 1091POPC   GL116813  38.490   1.181   8.864
 1091POPC   GL216814  38.535   1.168   8.864
 1091POPC   C1A16815  38.496   1.193   8.564
 1091POPC   D2A16816  38.486   1.174   8.264
 1091POPC   C3A16817  38.451   1.232   7.964
 1091POPC   C4A16818  38.425   1.169   7.664
 1091POPC   C1B16819  38.640   1.113   8.564
 1091POPC   C2B16820  38.649   1.119   8.264
 1091POPC   C3B16821  38.677   1.077   7.964
 1091POPC   C4B16822  38.656   1.150   7.664
 1092POPC   NC316823   6.632  25.217   9.464
 1092POPC   PO416824   6.652  25.217   9.164
 1092POPC   GL116825   6.641  25.256   8.864
 1092POPC   GL216826   6.780  25.135   8.864
 1092POPC   C1A16827   6.625  25.230   8.564
 1092POPC   D2A16828   6.661  25.282   8.264
 1092POPC   C3A16829   6.633  25.290   7.964
 1092POPC   C4A16830   6.693  25.293   7.664
 1092POPC   C1B16831   6.852  25.042   8.564
 1092POPC   C2B16832   6.816  25.111   8.264
 1092POPC   C3B16833   6.818  25.055   7.964
 1092POPC   C4B16834   6.849  25.128   7.664
 1093POPC   NC316835  19.022  17.458   9.464
 1093POPC   PO416836  19.051  17.460   9.164
 1093POPC   GL116837  19.077  17.486   8.864
 1093POPC   GL216838  18.953  17.504   8.864
 1093POPC   C1A16839  19.093  17.465   8.564
 1093POPC   D2A16840  19.025  17.517   8.264
 1093POPC   C3A16841  19.079  17.493   7.964
 1093POPC   C4A16842  19.033  17.459   7.664
 1093POPC   C1B16843  18.817  17.513   8.564
 1093POPC   C2B16844  18.802  17.487   8.264
 1093POPC   C3B16845  18.829  17.471   7.964
 1093POPC   C4B16846  18.839  17.506   7.664
 1094POPC   NC316847   6.601   8.994   9.464
 1094POPC   PO416848   6.681   8.975   9.164
 1094POPC   GL116849   6.656   8.936   8.864
 1094POPC   GL216850   6.725   9.079   8.864
 1094POPC   C1A16851   6.682   8.980   8.564
 1094POPC   D2A16852   6.638   8.963   8.264
 1094POPC   C3A16853   6.667   9.020   7.964
 1094POPC   C4A16854   6.682   8.982   7.664
 1094POPC   C1B16855   6.777   9.191   8.564
 1094POPC   C2B16856   6.849   9.170   8.264
 1094POPC   C3B16857   6.855   9.113   7.964
 1094POPC   C4B16858   6.804   9.187   7.664
 1095POPC   NC316859  25.287  41.558   9.464
 1095POPC   PO416860  25.248  41.573   9.164
 1095POPC   GL116861  25.258  41.588   8.864
 1095POPC   GL216862  25.358  41.592   8.864
 1095POPC   C1A16863  25.286  41.518   8.564
 1095POPC   D2A16864  25.279  41.526   8.264
 1095POPC   C3A16865  25.265  41.518   7.964
 1095POPC   C4A16866  25.241  41.607   7.664
 1095POPC   C1B16867  25.477  41.742   8.564
 1095POPC   C2B16868  25.433  41.699   8.264
 1095POPC   C3B16869  25.428  41.698   7.964
 1095POPC   C4B16870  25.456  41.653   7.664
 1096POPC   NC316871  25.313   2.739   9.464
 1096POPC   PO416872  25.288   2.790   9.164
 1096POPC   GL116873  25.218   2.795   8.864
 1096POPC   GL216874  25.140   2.764   8.864
 1096POPC   C1A16875  25.302   2.764   8.564
 1096POPC   D2A16876  25.259   2.782   8.264
 1096POPC   C3A16877  25.289   2.724   7.964
 1096POPC   C4A16878  25.227   2.784   7.664
 1096POPC   C1B16879  24.975   2.770   8.564
 1096POPC   C2B16880  25.039   2.760   8.264
 1096POPC   C3B16881  25.028   2.688   7.964
 1096POPC   C4B16882  24.989   2.730   7.664
 1097POPC   NC316883  15.213   0.460   9.464
 1097POPC   PO416884  15.191   0.405   9.164
 1097POPC   GL116885  15.205   0.466   8.864
 1097POPC   GL216886  15.184   0.343   8.864
 1097POPC   C1A16887  15.151   0.414   8.564
 1097POPC   D2A16888  15.133   0.391   8.264
 1097POPC   C3A16889  15.180   0.421   7.964
 1097POPC   C4A16890  15.132   0.454   7.664
 1097POPC   C1B16891  15.092   0.200   8.564
 1097POPC   C2B16892  15.149   0.162   8.264
 1097POPC   C3B16893  15.105   0.228   7.964
 1097POPC   C4B16894  15.107   0.170   7.664
 1098POPC   NC316895  12.847  43.061   9.464
 1098POPC   PO416896  12.830  43.139   9.164
 1098POPC   GL116897  12.843  43.156   8.864
 1098POPC   GL216898  12.914  43.212   8.864
 1098POPC   C1A16899  12.877  43.160   8.564
 1098POPC   D2A16900  12.836  43.081   8.264
 1098POPC   C3A16901  12.859  43.061   7.964
 1098POPC   C4A16902  12.898  43.108   7.664
 1098POPC   C1B16903  12.993  43.352   8.564
 1098POPC   C2B16904  13.013  43.334   8.264
 1098POPC   C3B16905  12.989  43.319   7.964
 1098POPC   C4B16906  13.031  43.336   7.664
 1099POPC   NC316907  24.453   9.790   9.464
 1099POPC   PO416908  24.509   9.779   9.164
 1099POPC   GL116909  24.462   9.699   8.864
 1099POPC   GL216910  24.429   9.843   8.864
 1099POPC   C1A16911  24.521   9.706   8.564
 1099POPC   D2A16912  24.461   9.777   8.264
 1099POPC   C3A16913  24.509   9.775   7.964
 1099POPC   C4A16914  24.497   9.705   7.664
 1099POPC   C1B16915  24.493   9.984   8.564
 1099POPC   C2B16916  24.424   9.982   8.264
 1099POPC   C3B16917  24.415   9.970   7.964
 1099POPC   C4B16918  24.497   9.969   7.664
 1100POPC   NC316919   1.966  39.995   9.464
 1100POPC   PO416920   1.959  39.960   9.164
 1100POPC   GL116921   1.952  40.001   8.864
 1100POPC   GL216922   2.009  40.124   8.864
 1100POPC   C1A16923   1.964  40.057   8.564
 1100POPC   D2A16924   1.979  40.002   8.264
 1100POPC   C3A16925   1.982  39.989   7.964
 1100POPC   C4A16926   2.027  40.000   7.664
 1100POPC   C1B16927   2.077  40.237   8.564
 1100POPC   C2B16928   2.053  40.265   8.264
 1100POPC   C3B16929   2.017  40.247   7.964
 1100POPC   C4B16930   2.008  40.212   7.664
 1101POPC   NC316931  30.651  43.857   9.464
 1101POPC   PO416932  30.679  43.870   9.164
 1101POPC   GL116933  30.682  43.865   8.864
 1101POPC   GL216934  30.807  43.930   8.864
 1101POPC   C1A16935  30.730  43.936   8.564
 1101POPC   D2A16936  30.661  43.906   8.264
 1101POPC   C3A16937  30.719  43.866   7.964
 1101POPC   C4A16938  30.658  43.840   7.664
 1101POPC   C1B16939  30.897  43.984   8.564
 1101POPC   C2B16940  30.912  43.952   8.264
 1101POPC   C3B16941  30.954  43.894   7.964
 1101POPC   C4B16942  30.980  43.950   7.664
 1102POPC   NC316943  41.587   1.952   9.464
 1102POPC   PO416944  41.554   1.973   9.164
 1102POPC   GL116945  41.567   1.989   8.864
 1102POPC   GL216946  41.705   1.973   8.864
 1102POPC   C1A16947  41.522   2.038   8.564
 1102POPC   D2A16948  41.522   1.962   8.264
 1102POPC   C3A16949  41.601   2.015   7.964
 1102POPC   C4A16950  41.519   1.999   7.664
 1102POPC   C1B16951  41.798   1.979   8.564
 1102POPC   C2B16952  41.794   1.957   8.264
 1102POPC   C3B16953  41.840   1.993   7.964
 1102POPC   C4B16954  41.799   1.960   7.664
 1103POPC   NC316955  30.664  27.618   9.464
 1103POPC   PO416956  30.651  27.596   9.164
 1103POPC   GL116957  30.703  27.615   8.864
 1103POPC   GL216958  30.822  27.465   8.864
 1103POPC   C1A16959  30.731  27.609   8.564
 1103POPC   D2A16960  30.716  27.592   8.264
 1103POPC   C3A16961  30.699  27.640   7.964
 1103POPC   C4A16962  30.676  27.592   7.664
 1103POPC   C1B16963  30.927  27.401   8.564
 1103POPC   C2B16964  30.912  27.452   8.264
 1103POPC   C3B16965  30.840  27.402   7.964
 1103POPC   C4B16966  30.841  27.464   7.664
 1104POPC   NC316967   1.972  30.681   9.464
 1104POPC   PO416968   1.998  30.727   9.164
 1104POPC   GL116969   1.980  30.740   8.864
 1104POPC   GL216970   1.856  30.582   8.864
 1104POPC   C1A16971   1.965  30.714   8.564
 1104POPC   D2A16972   2.021  30.688   8.264
 1104POPC   C3A16973   1.999  30.709   7.964
 1104POPC   C4A16974   2.003  30.682   7.664
 1104POPC   C1B16975   1.824  30.584   8.564
 1104POPC   C2B16976   1.790  30.537   8.264
 1104POPC   C3B16977   1.829  30.521   7.964
 1104POPC   C4B16978   1.754  30.610   7.664
 1105POPC   NC316979  40.042  15.993   9.464
 1105POPC   PO416980  39.998  15.993   9.164
 1105POPC   GL116981  39.976  16.001   8.864
 1105POPC   GL216982  39.905  16.026   8.864
 1105POPC   C1A16983  40.048  15.945   8.564
 1105POPC   D2A16984  40.033  15.947   8.264
 1105POPC   C3A16985  40.020  15.917   7.964
 1105POPC   C4A16986  40.024  15.971   7.664
 1105POPC   C1B16987  39.745  16.005   8.564
 1105POPC   C2B16988  39.799  15.958   8.264
 1105POPC   C3B16989  39.790  16.025   7.964
 1105POPC   C4B16990  39.728  16.006   7.664
 1106POPC   NC316991  43.133   8.950   9.464
 1106POPC   PO416992  43.113   8.997   9.164
 1106POPC   GL116993  43.072   8.960   8.864
 1106POPC   GL216994  43.103   9.096   8.864
 1106POPC   C1A16995  43.068   9.001   8.564
 1106POPC   D2A16996  43.092   9.004   8.264
 1106POPC   C3A16997  43.094   8.981   7.964
 1106POPC   C4A16998  43.133   8.928   7.664
 1106POPC   C1B16999  43.127   9.192   8.564
 1106POPC   C2B17000  43.167   9.207   8.264
 1106POPC   C3B17001  43.136   9.197   7.964
 1106POPC   C4B17002  43.145   9.233   7.664
 1107POPC   NC317003  41.545  13.594   9.464
 1107POPC   PO417004  41.604  13.642   9.164
 1107POPC   GL117005  41.595  13.667   8.864
 1107POPC   GL217006  41.433  13.696   8.864
 1107POPC   C1A17007  41.518  13.641   8.564
 1107POPC   D2A17008  41.555  13.591   8.264
 1107POPC   C3A17009  41.578  13.638   7.964
 1107POPC   C4A17010  41.551  13.581   7.664
 1107POPC   C1B17011  41.386  13.800   8.564
 1107POPC   C2B17012  41.311  13.801   8.264
 1107POPC   C3B17013  41.319  13.794   7.964
 1107POPC   C4B17014  41.376  13.733   7.664
 1108POPC   NC317015   5.889  33.822   9.464
 1108POPC   PO417016   5.842  33.779   9.164
 1108POPC   GL117017   5.843  33.768   8.864
 1108POPC   GL217018   5.907  33.675   8.864
 1108POPC   C1A17019   5.845  33.810   8.564
 1108POPC   D2A17020   5.917  33.801   8.264
 1108POPC   C3A17021   5.917  33.838   7.964
 1108POPC   C4A17022   5.854  33.814   7.664
 1108POPC   C1B17023   5.916  33.588   8.564
 1108POPC   C2B17024   5.916  33.586   8.264
 1108POPC   C3B17025   5.870  33.560   7.964
 1108POPC   C4B17026   5.897  33.574   7.664
 1109POPC   NC317027  21.377   6.648   9.464
 1109POPC   PO417028  21.421   6.613   9.164
 1109POPC   GL117029  21.349   6.622   8.864
 1109POPC   GL217030  21.488   6.701   8.864
 1109POPC   C1A17031  21.401   6.643   8.564
 1109POPC   D2A17032  21.381   6.660   8.264
 1109POPC   C3A17033  21.358   6.610   7.964
 1109POPC   C4A17034  21.402   6.640   7.664
 1109POPC   C1B17035  21.520   6.832   8.564
 1109POPC   C2B17036  21.563   6.813   8.264
 1109POPC   C3B17037  21.527   6.872   7.964
 1109POPC   C4B17038  21.518   6.814   7.664
 1110POPC   NC317039  16.692  19.854   9.464
 1110POPC   PO417040  16.692  19.856   9.164
 1110POPC   GL117041  16.712  19.878   8.864
 1110POPC   GL217042  16.582  19.760   8.864
 1110POPC   C1A17043  16.692  19.836   8.564
 1110POPC   D2A17044  16.750  19.822   8.264
 1110POPC   C3A17045  16.702  19.882   7.964
 1110POPC   C4A17046  16.686  19.832   7.664
 1110POPC   C1B17047  16.551  19.666   8.564
 1110POPC   C2B17048  16.552  19.700   8.264
 1110POPC   C3B17049  16.484  19.664   7.964
 1110POPC   C4B17050  16.525  19.667   7.664
 1111POPC   NC317051   4.318  13.677   9.464
 1111POPC   PO417052   4.279  13.662   9.164
 1111POPC   GL117053   4.337  13.585   8.864
 1111POPC   GL217054   4.418  13.636   8.864
 1111POPC   C1A17055   4.354  13.647   8.564
 1111POPC   D2A17056   4.344  13.664   8.264
 1111POPC   C3A17057   4.367  13.669   7.964
 1111POPC   C4A17058   4.343  13.604   7.664
 1111POPC   C1B17059   4.575  13.587   8.564
 1111POPC   C2B17060   4.576  13.561   8.264
 1111POPC   C3B17061   4.546  13.559   7.964
 1111POPC   C4B17062   4.551  13.607   7.664
 1112POPC   NC317063  39.186  36.861   9.464
 1112POPC   PO417064  39.215  36.876   9.164
 1112POPC   GL117065  39.273  36.898   8.864
 1112POPC   GL217066  39.148  36.900   8.864
 1112POPC   C1A17067  39.197  36.895   8.564
 1112POPC   D2A17068  39.207  36.929   8.264
 1112POPC   C3A17069  39.280  36.881   7.964
 1112POPC   C4A17070  39.221  36.951   7.664
 1112POPC   C1B17071  39.036  36.804   8.564
 1112POPC   C2B17072  38.977  36.784   8.264
 1112POPC   C3B17073  39.004  36.834   7.964
 1112POPC   C4B17074  39.037  36.791   7.664
 1113POPC   NC317075  22.955   6.687   9.464
 1113POPC   PO417076  22.953   6.658   9.164
 1113POPC   GL117077  22.974   6.635   8.864
 1113POPC   GL217078  22.877   6.518   8.864
 1113POPC   C1A17079  22.902   6.653   8.564
 1113POPC   D2A17080  22.980   6.669   8.264
 1113POPC   C3A17081  22.937   6.613   7.964
 1113POPC   C4A17082  22.983   6.634   7.664
 1113POPC   C1B17083  22.822   6.428   8.564
 1113POPC   C2B17084  22.831   6.394   8.264
 1113POPC   C3B17085  22.836   6.388   7.964
 1113POPC   C4B17086  22.837   6.375   7.664
 1114POPC   NC317087  36.867   6.642   9.464
 1114POPC   PO417088  36.940   6.684   9.164
 1114POPC   GL117089  36.914   6.652   8.864
 1114POPC   GL217090  36.764   6.637   8.864
 1114POPC   C1A17091  36.897   6.671   8.564
 1114POPC   D2A17092  36.872   6.596   8.264
 1114POPC   C3A17093  36.858   6.599   7.964
 1114POPC   C4A17094  36.904   6.691   7.664
 1114POPC   C1B17095  36.685   6.735   8.564
 1114POPC   C2B17096  36.640   6.726   8.264
 1114POPC   C3B17097  36.708   6.693   7.964
 1114POPC   C4B17098  36.704   6.725   7.664
 1115POPC   NC317099  12.871  34.564   9.464
 1115POPC   PO417100  12.854  34.606   9.164
 1115POPC   GL117101  12.814  34.533   8.864
 1115POPC   GL217102  12.767  34.673   8.864
 1115POPC   C1A17103  12.877  34.543   8.564
 1115POPC   D2A17104  12.833  34.623   8.264
 1115POPC   C3A17105  12.888  34.613   7.964
 1115POPC   C4A17106  12.816  34.583   7.664
 1115POPC   C1B17107  12.727  34.776   8.564
 1115POPC   C2B17108  12.700  34.803   8.264
 1115POPC   C3B17109  12.700  34.815   7.964
 1115POPC   C4B17110  12.683  34.748   7.664
 1116POPC   NC317111  31.459  43.925   9.464
 1116POPC   PO417112  31.477  43.905   9.164
 1116POPC   GL117113  31.429  43.858   8.864
 1116POPC   GL217114  31.502  43.759   8.864
 1116POPC   C1A17115  31.439  43.917   8.564
 1116POPC   D2A17116  31.446  43.851   8.264
 1116POPC   C3A17117  31.454  43.859   7.964
 1116POPC   C4A17118  31.520  43.930   7.664
 1116POPC   C1B17119  31.472  43.636   8.564
 1116POPC   C2B17120  31.438  43.653   8.264
 1116POPC   C3B17121  31.410  43.663   7.964
 1116POPC   C4B17122  31.417  43.653   7.664
 1117POPC   NC317123  22.168   7.404   9.464
 1117POPC   PO417124  22.190   7.442   9.164
 1117POPC   GL117125  22.126   7.387   8.864
 1117POPC   GL217126  21.998   7.438   8.864
 1117POPC   C1A17127  22.157   7.447   8.564
 1117POPC   D2A17128  22.209   7.457   8.264
 1117POPC   C3A17129  22.195   7.441   7.964
 1117POPC   C4A17130  22.148   7.428   7.664
 1117POPC   C1B17131  21.931   7.461   8.564
 1117POPC   C2B17132  21.903   7.447   8.264
 1117POPC   C3B17133  21.946   7.424   7.964
 1117POPC   C4B17134  21.865   7.473   7.664
 1118POPC   NC317135  19.014  19.107   9.464
 1118POPC   PO417136  19.086  19.073   9.164
 1118POPC   GL117137  19.031  19.084   8.864
 1118POPC   GL217138  19.114  19.199   8.864
 1118POPC   C1A17139  19.038  19.087   8.564
 1118POPC   D2A17140  19.053  19.025   8.264
 1118POPC   C3A17141  19.029  19.013   7.964
 1118POPC   C4A17142  19.074  19.034   7.664
 1118POPC   C1B17143  19.198  19.305   8.564
 1118POPC   C2B17144  19.167  19.315   8.264
 1118POPC   C3B17145  19.149  19.260   7.964
 1118POPC   C4B17146  19.105  19.291   7.664
 1119POPC   NC317147   0.481  26.009   9.464
 1119POPC   PO417148   0.485  26.003   9.164
 1119POPC   GL117149   0.477  26.049   8.864
 1119POPC   GL217150   0.384  26.165   8.864
 1119POPC   C1A17151   0.463  26.071   8.564
 1119POPC   D2A17152   0.417  26.075   8.264
 1119POPC   C3A17153   0.439  26.021   7.964
 1119POPC   C4A17154   0.432  26.050   7.664
 1119POPC   C1B17155   0.234  26.191   8.564
 1119POPC   C2B17156   0.285  26.217   8.264
 1119POPC   C3B17157   0.264  26.253   7.964
 1119POPC   C4B17158   0.265  26.197   7.664
 1120POPC   NC317159   8.160   1.963   9.464
 1120POPC   PO417160   8.157   1.951   9.164
 1120POPC   GL117161   8.202   1.994   8.864
 1120POPC   GL217162   8.070   2.008   8.864
 1120POPC   C1A17163   8.228   1.985   8.564
 1120POPC   D2A17164   8.234   1.979   8.264
 1120POPC   C3A17165   8.201   2.022   7.964
 1120POPC   C4A17166   8.159   1.957   7.664
 1120POPC   C1B17167   7.950   1.987   8.564
 1120POPC   C2B17168   7.910   2.003   8.264
 1120POPC   C3B17169   7.983   2.027   7.964
 1120POPC   C4B17170   7.948   1.981   7.664
 1121POPC   NC317171  43.855  23.722   9.464
 1121POPC   PO417172  43.922  23.743   9.164
 1121POPC   GL117173  43.891  23.678   8.864
 1121POPC   GL217174  43.973  23.684   8.864
 1121POPC   C1A17175  43.851  23.714   8.564
 1121POPC   D2A17176  43.847  23.668   8.264
 1121POPC   C3A17177  43.867  23.698   7.964
 1121POPC   C4A17178  43.847  23.744   7.664
 1121POPC   C1B17179  44.094  23.654   8.564
 1121POPC   C2B17180  44.125  23.641   8.264
 1121POPC   C3B17181  44.140  23.570   7.964
 1121POPC   C4B17182  44.109  23.557   7.664
 1122POPC   NC317183  33.759  19.823   9.464
 1122POPC   PO417184  33.815  19.836   9.164
 1122POPC   GL117185  33.828  19.876   8.864
 1122POPC   GL217186  33.687  19.717   8.864
 1122POPC   C1A17187  33.803  19.828   8.564
 1122POPC   D2A17188  33.777  19.823   8.264
 1122POPC   C3A17189  33.786  19.817   7.964
 1122POPC   C4A17190  33.805  19.827   7.664
 1122POPC   C1B17191  33.603  19.672   8.564
 1122POPC   C2B17192  33.588  19.679   8.264
 1122POPC   C3B17193  33.595  19.646   7.964
 1122POPC   C4B17194  33.658  19.701   7.664
 1123POPC   NC317195  12.813  11.333   9.464
 1123POPC   PO417196  12.882  11.288   9.164
 1123POPC   GL117197  12.897  11.319   8.864
 1123POPC   GL217198  12.793  11.137   8.864
 1123POPC   C1A17199  12.863  11.308   8.564
 1123POPC   D2A17200  12.854  11.344   8.264
 1123POPC   C3A17201  12.832  11.305   7.964
 1123POPC   C4A17202  12.827  11.313   7.664
 1123POPC   C1B17203  12.766  11.086   8.564
 1123POPC   C2B17204  12.753  11.052   8.264
 1123POPC   C3B17205  12.824  11.102   7.964
 1123POPC   C4B17206  12.747  11.105   7.664
 1124POPC   NC317207  23.681   1.944   9.464
 1124POPC   PO417208  23.684   1.958   9.164
 1124POPC   GL117209  23.694   1.943   8.864
 1124POPC   GL217210  23.732   1.849   8.864
 1124POPC   C1A17211  23.705   2.007   8.564
 1124POPC   D2A17212  23.754   1.991   8.264
 1124POPC   C3A17213  23.671   1.951   7.964
 1124POPC   C4A17214  23.741   2.022   7.664
 1124POPC   C1B17215  23.886   1.777   8.564
 1124POPC   C2B17216  23.800   1.732   8.264
 1124POPC   C3B17217  23.851   1.740   7.964
 1124POPC   C4B17218  23.853   1.822   7.664
 1125POPC   NC317219  19.836   5.919   9.464
 1125POPC   PO417220  19.839   5.887   9.164
 1125POPC   GL117221  19.834   5.886   8.864
 1125POPC   GL217222  19.903   5.913   8.864
 1125POPC   C1A17223  19.787   5.873   8.564
 1125POPC   D2A17224  19.840   5.874   8.264
 1125POPC   C3A17225  19.844   5.880   7.964
 1125POPC   C4A17226  19.811   5.831   7.664
 1125POPC   C1B17227  20.020   6.011   8.564
 1125POPC   C2B17228  20.014   5.922   8.264
 1125POPC   C3B17229  20.091   6.013   7.964
 1125POPC   C4B17230  20.041   5.949   7.664
 1126POPC   NC317231  43.899  14.422   9.464
 1126POPC   PO417232  43.897  14.439   9.164
 1126POPC   GL117233  43.869  14.365   8.864
 1126POPC   GL217234  43.902  14.232   8.864
 1126POPC   C1A17235  43.874  14.428   8.564
 1126POPC   D2A17236  43.900  14.415   8.264
 1126POPC   C3A17237  43.847  14.395   7.964
 1126POPC   C4A17238  43.853  14.381   7.664
 1126POPC   C1B17239  43.910  14.177   8.564
 1126POPC   C2B17240  43.852  14.135   8.264
 1126POPC   C3B17241  43.852  14.151   7.964
 1126POPC   C4B17242  43.836  14.144   7.664
 1127POPC   NC317243  15.982  32.979   9.464
 1127POPC   PO417244  15.961  32.989   9.164
 1127POPC   GL117245  15.939  33.053   8.864
 1127POPC   GL217246  15.807  33.045   8.864
 1127POPC   C1A17247  15.922  33.011   8.564
 1127POPC   D2A17248  15.967  33.069   8.264
 1127POPC   C3A17249  15.923  33.032   7.964
 1127POPC   C4A17250  15.911  33.015   7.664
 1127POPC   C1B17251  15.691  33.141   8.564
 1127POPC   C2B17252  15.766  33.069   8.264
 1127POPC   C3B17253  15.702  33.096   7.964
 1127POPC   C4B17254  15.763  33.129   7.664
 1128POPC   NC317255   2.008  24.489   9.464
 1128POPC   PO417256   1.948  24.523   9.164
 1128POPC   GL117257   1.963  24.447   8.864
 1128POPC   GL217258   2.105  24.395   8.864
 1128POPC   C1A17259   1.957  24.442   8.564
 1128POPC   D2A17260   1.967  24.494   8.264
 1128POPC   C3A17261   1.941  24.530   7.964
 1128POPC   C4A17262   1.953  24.507   7.664
 1128POPC   C1B17263   2.178  24.254   8.564
 1128POPC   C2B17264   2.176  24.284   8.264
 1128POPC   C3B17265   2.166  24.262   7.964
 1128POPC   C4B17266   2.155  24.290   7.664
 1129POPC   NC317267  36.087  30.744   9.464
 1129POPC   PO417268  36.140  30.695   9.164
 1129POPC   GL117269  36.161  30.696   8.864
 1129POPC   GL217270  36.193  30.660   8.864
 1129POPC   C1A17271  36.174  30.658   8.564
 1129POPC   D2A17272  36.130  30.730   8.264
 1129POPC   C3A17273  36.143  30.712   7.964
 1129POPC   C4A17274  36.087  30.744   7.664
 1129POPC   C1B17275  36.293  30.569   8.564
 1129POPC   C2B17276  36.285  30.575   8.264
 1129POPC   C3B17277  36.279  30.569   7.964
 1129POPC   C4B17278  36.320  30.554   7.664
 1130POPC   NC317279   4.304  29.164   9.464
 1130POPC   PO417280   4.302  29.181   9.164
 1130POPC   GL117281   4.342  29.095   8.864
 1130POPC   GL217282   4.161  29.123   8.864
 1130POPC   C1A17283   4.297  29.167   8.564
 1130POPC   D2A17284   4.344  29.146   8.264
 1130POPC   C3A17285   4.305  29.137   7.964
 1130POPC   C4A17286   4.285  29.148   7.664
 1130POPC   C1B17287   4.048  28.988   8.564
 1130POPC   C2B17288   4.138  29.018   8.264
 1130POPC   C3B17289   4.135  28.984   7.964
 1130POPC   C4B17290   4.091  29.029   7.664
 1131POPC   NC317291  29.901   6.627   9.464
 1131POPC   PO417292  29.910   6.680   9.164
 1131POPC   GL117293  29.966   6.663   8.864
 1131POPC   GL217294  29.887   6.747   8.864
 1131POPC   C1A17295  29.925   6.678   8.564
 1131POPC   D2A17296  29.966   6.672   8.264
 1131POPC   C3A17297  29.958   6.639   7.964
 1131POPC   C4A17298  29.937   6.595   7.664
 1131POPC   C1B17299  29.938   6.908   8.564
 1131POPC   C2B17300  29.980   6.905   8.264
 1131POPC   C3B17301  29.901   6.853   7.964
 1131POPC   C4B17302  29.980   6.880   7.664
 1132POPC   NC317303  42.330   5.850   9.464
 1132POPC   PO417304  42.364   5.829   9.164
 1132POPC   GL117305  42.360   5.857   8.864
 1132POPC   GL217306  42.411   5.791   8.864
 1132POPC   C1A17307  42.327   5.855   8.564
 1132POPC   D2A17308  42.373   5.830   8.264
 1132POPC   C3A17309  42.300   5.830   7.964
 1132POPC   C4A17310  42.306   5.821   7.664
 1132POPC   C1B17311  42.581   5.795   8.564
 1132POPC   C2B17312  42.595   5.769   8.264
 1132POPC   C3B17313  42.555   5.726   7.964
 1132POPC   C4B17314  42.516   5.796   7.664
 1133POPC   NC317315  20.643   2.795   9.464
 1133POPC   PO417316  20.641   2.760   9.164
 1133POPC   GL117317  20.572   2.735   8.864
 1133POPC   GL217318  20.543   2.889   8.864
 1133POPC   C1A17319  20.567   2.730   8.564
 1133POPC   D2A17320  20.564   2.769   8.264
 1133POPC   C3A17321  20.575   2.722   7.964
 1133POPC   C4A17322  20.647   2.736   7.664
 1133POPC   C1B17323  20.561   3.004   8.564
 1133POPC   C2B17324  20.552   3.016   8.264
 1133POPC   C3B17325  20.539   3.037   7.964
 1133POPC   C4B17326  20.530   3.025   7.664
 1134POPC   NC317327  12.838  28.398   9.464
 1134POPC   PO417328  12.845  28.364   9.164
 1134POPC   GL117329  12.824  28.387   8.864
 1134POPC   GL217330  13.003  28.334   8.864
 1134POPC   C1A17331  12.868  28.413   8.564
 1134POPC   D2A17332  12.836  28.401   8.264
 1134POPC   C3A17333  12.803  28.380   7.964
 1134POPC   C4A17334  12.897  28.408   7.664
 1134POPC   C1B17335  13.043  28.247   8.564
 1134POPC   C2B17336  13.031  28.291   8.264
 1134POPC   C3B17337  13.106  28.247   7.964
 1134POPC   C4B17338  13.052  28.278   7.664
 1135POPC   NC317339  43.104  25.313   9.464
 1135POPC   PO417340  43.134  25.289   9.164
 1135POPC   GL117341  43.096  25.273   8.864
 1135POPC   GL217342  42.990  25.252   8.864
 1135POPC   C1A17343  43.142  25.262   8.564
 1135POPC   D2A17344  43.142  25.265   8.264
 1135POPC   C3A17345  43.096  25.265   7.964
 1135POPC   C4A17346  43.123  25.236   7.664
 1135POPC   C1B17347  42.835  25.302   8.564
 1135POPC   C2B17348  42.852  25.269   8.264
 1135POPC   C3B17349  42.855  25.271   7.964
 1135POPC   C4B17350  42.840  25.315   7.664
 1136POPC   NC317351   1.966  36.932   9.464
 1136POPC   PO417352   1.997  36.909   9.164
 1136POPC   GL117353   2.035  36.933   8.864
 1136POPC   GL217354   1.969  36.813   8.864
 1136POPC   C1A17355   1.958  36.944   8.564
 1136POPC   D2A17356   2.006  36.942   8.264
 1136POPC   C3A17357   2.033  36.917   7.964
 1136POPC   C4A17358   2.023  36.880   7.664
 1136POPC   C1B17359   1.843  36.709   8.564
 1136POPC   C2B17360   1.929  36.630   8.264
 1136POPC   C3B17361   1.841  36.705   7.964
 1136POPC   C4B17362   1.887  36.645   7.664
 1137POPC   NC317363  18.248  22.161   9.464
 1137POPC   PO417364  18.288  22.146   9.164
 1137POPC   GL117365  18.249  22.156   8.864
 1137POPC   GL217366  18.423  22.175   8.864
 1137POPC   C1A17367  18.260  22.148   8.564
 1137POPC   D2A17368  18.257  22.170   8.264
 1137POPC   C3A17369  18.274  22.146   7.964
 1137POPC   C4A17370  18.328  22.156   7.664
 1137POPC   C1B17371  18.580  22.126   8.564
 1137POPC   C2B17372  18.510  22.178   8.264
 1137POPC   C3B17373  18.580  22.151   7.964
 1137POPC   C4B17374  18.508  22.216   7.664
 1138POPC   NC317375  43.077  17.467   9.464
 1138POPC   PO417376  43.146  17.480   9.164
 1138POPC   GL117377  43.072  17.463   8.864
 1138POPC   GL217378  43.283  17.489   8.864
 1138POPC   C1A17379  43.143  17.549   8.564
 1138POPC   D2A17380  43.140  17.523   8.264
 1138POPC   C3A17381  43.158  17.481   7.964
 1138POPC   C4A17382  43.119  17.514   7.664
 1138POPC   C1B17383  43.365  17.518   8.564
 1138POPC   C2B17384  43.313  17.536   8.264
 1138POPC   C3B17385  43.333  17.546   7.964
 1138POPC   C4B17386  43.376  17.545   7.664
 1139POPC   NC317387  30.743  28.346   9.464
 1139POPC   PO417388  30.692  28.396   9.164
 1139POPC   GL117389  30.664  28.398   8.864
 1139POPC   GL217390  30.786  28.503   8.864
 1139POPC   C1A17391  30.745  28.319   8.564
 1139POPC   D2A17392  30.651  28.410   8.264
 1139POPC   C3A17393  30.719  28.394   7.964
 1139POPC   C4A17394  30.675  28.332   7.664
 1139POPC   C1B17395  30.866  28.562   8.564
 1139POPC   C2B17396  30.801  28.555   8.264
 1139POPC   C3B17397  30.809  28.576   7.964
 1139POPC   C4B17398  30.863  28.614   7.664
 1140POPC   NC317399  17.491  15.931   9.464
 1140POPC   PO417400  17.503  15.925   9.164
 1140POPC   GL117401  17.470  15.925   8.864
 1140POPC   GL217402  17.504  16.024   8.864
 1140POPC   C1A17403  17.525  15.908   8.564
 1140POPC   D2A17404  17.479  15.930   8.264
 1140POPC   C3A17405  17.496  15.936   7.964
 1140POPC   C4A17406  17.536  15.906   7.664
 1140POPC   C1B17407  17.569  16.192   8.564
 1140POPC   C2B17408  17.609  16.190   8.264
 1140POPC   C3B17409  17.592  16.230   7.964
 1140POPC   C4B17410  17.628  16.171   7.664
 1141POPC   NC317411  37.682  39.209   9.464
 1141POPC   PO417412  37.715  39.193   9.164
 1141POPC   GL117413  37.650  39.281   8.864
 1141POPC   GL217414  37.752  39.117   8.864
 1141POPC   C1A17415  37.704  39.278   8.564
 1141POPC   D2A17416  37.698  39.264   8.264
 1141POPC   C3A17417  37.663  39.189   7.964
 1141POPC   C4A17418  37.643  39.252   7.664
 1141POPC   C1B17419  37.921  39.082   8.564
 1141POPC   C2B17420  37.919  39.142   8.264
 1141POPC   C3B17421  37.909  39.093   7.964
 1141POPC   C4B17422  37.892  39.145   7.664
 1142POPC   NC317423   5.055  44.669   9.464
 1142POPC   PO417424   5.062  44.663   9.164
 1142POPC   GL117425   5.062  44.696   8.864
 1142POPC   GL217426   5.075  44.557   8.864
 1142POPC   C1A17427   5.106  44.619   8.564
 1142POPC   D2A17428   5.115  44.690   8.264
 1142POPC   C3A17429   5.055  44.678   7.964
 1142POPC   C4A17430   5.109  44.685   7.664
 1142POPC   C1B17431   4.955  44.461   8.564
 1142POPC   C2B17432   4.961  44.405   8.264
 1142POPC   C3B17433   4.919  44.436   7.964
 1142POPC   C4B17434   4.950  44.465   7.664
 1143POPC   NC317435  35.384  17.492   9.464
 1143POPC   PO417436  35.340  17.528   9.164
 1143POPC   GL117437  35.331  17.474   8.864
 1143POPC   GL217438  35.417  17.426   8.864
 1143POPC   C1A17439  35.361  17.497   8.564
 1143POPC   D2A17440  35.362  17.513   8.264
 1143POPC   C3A17441  35.386  17.498   7.964
 1143POPC   C4A17442  35.384  17.536   7.664
 1143POPC   C1B17443  35.441  17.245   8.564
 1143POPC   C2B17444  35.479  17.292   8.264
 1143POPC   C3B17445  35.482  17.256   7.964
 1143POPC   C4B17446  35.440  17.251   7.664
 1144POPC   NC317447   4.309  28.366   9.464
 1144POPC   PO417448   4.301  28.322   9.164
 1144POPC   GL117449   4.281  28.413   8.864
 1144POPC   GL217450   4.307  28.438   8.864
 1144POPC   C1A17451   4.305  28.373   8.564
 1144POPC   D2A17452   4.288  28.319   8.264
 1144POPC   C3A17453   4.344  28.372   7.964
 1144POPC   C4A17454   4.338  28.375   7.664
 1144POPC   C1B17455   4.254  28.563   8.564
 1144POPC   C2B17456   4.199  28.600   8.264
 1144POPC   C3B17457   4.183  28.556   7.964
 1144POPC   C4B17458   4.237  28.575   7.664
 1145POPC   NC317459  18.308  34.561   9.464
 1145POPC   PO417460  18.321  34.581   9.164
 1145POPC   GL117461  18.308  34.585   8.864
 1145POPC   GL217462  18.405  34.492   8.864
 1145POPC   C1A17463  18.235  34.611   8.564
 1145POPC   D2A17464  18.321  34.567   8.264
 1145POPC   C3A17465  18.330  34.564   7.964
 1145POPC   C4A17466  18.258  34.572   7.664
 1145POPC   C1B17467  18.410  34.374   8.564
 1145POPC   C2B17468  18.476  34.383   8.264
 1145POPC   C3B17469  18.412  34.404   7.964
 1145POPC   C4B17470  18.416  34.376   7.664
 1146POPC   NC317471   9.761  31.478   9.464
 1146POPC   PO417472   9.775  31.439   9.164
 1146POPC   GL117473   9.779  31.495   8.864
 1146POPC   GL217474   9.647  31.513   8.864
 1146POPC   C1A17475   9.703  31.459   8.564
 1146POPC   D2A17476   9.724  31.458   8.264
 1146POPC   C3A17477   9.740  31.512   7.964
 1146POPC   C4A17478   9.768  31.426   7.664
 1146POPC   C1B17479   9.485  31.480   8.564
 1146POPC   C2B17480   9.460  31.476   8.264
 1146POPC   C3B17481   9.513  31.441   7.964
 1146POPC   C4B17482   9.490  31.443   7.664
 1147POPC   NC317483   1.200  17.518   9.464
 1147POPC   PO417484   1.231  17.511   9.164
 1147POPC   GL117485   1.196  17.529   8.864
 1147POPC   GL217486   1.370  17.491   8.864
 1147POPC   C1A17487   1.260  17.502   8.564
 1147POPC   D2A17488   1.259  17.460   8.264
 1147POPC   C3A17489   1.216  17.546   7.964
 1147POPC   C4A17490   1.177  17.509   7.664
 1147POPC   C1B17491   1.448  17.450   8.564
 1147POPC   C2B17492   1.414  17.449   8.264
 1147POPC   C3B17493   1.420  17.522   7.964
 1147POPC   C4B17494   1.416  17.492   7.664
 1148POPC   NC317495  29.936  10.495   9.464
 1148POPC   PO417496  29.910  10.526   9.164
 1148POPC   GL117497  29.927  10.545   8.864
 1148POPC   GL217498  29.827  10.681   8.864
 1148POPC   C1A17499  29.908  10.481   8.564
 1148POPC   D2A17500  29.963  10.514   8.264
 1148POPC   C3A17501  29.931  10.512   7.964
 1148POPC   C4A17502  29.873  10.555   7.664
 1148POPC   C1B17503  29.846  10.704   8.564
 1148POPC   C2B17504  29.834  10.772   8.264
 1148POPC   C3B17505  29.776  10.758   7.964
 1148POPC   C4B17506  29.825  10.793   7.664
 1149POPC   NC317507  11.306   4.321   9.464
 1149POPC   PO417508  11.252   4.293   9.164
 1149POPC   GL117509  11.317   4.346   8.864
 1149POPC   GL217510  11.371   4.252   8.864
 1149POPC   C1A17511  11.265   4.310   8.564
 1149POPC   D2A17512  11.347   4.278   8.264
 1149POPC   C3A17513  11.301   4.344   7.964
 1149POPC   C4A17514  11.334   4.280   7.664
 1149POPC   C1B17515  11.560   4.181   8.564
 1149POPC   C2B17516  11.470   4.203   8.264
 1149POPC   C3B17517  11.479   4.197   7.964
 1149POPC   C4B17518  11.549   4.211   7.664
 1150POPC   NC317519  16.683   5.063   9.464
 1150POPC   PO417520  16.748   5.116   9.164
 1150POPC   GL117521  16.702   5.044   8.864
 1150POPC   GL217522  16.774   4.955   8.864
 1150POPC   C1A17523  16.693   5.140   8.564
 1150POPC   D2A17524  16.765   5.072   8.264
 1150POPC   C3A17525  16.710   5.075   7.964
 1150POPC   C4A17526  16.693   5.116   7.664
 1150POPC   C1B17527  16.770   4.862   8.564
 1150POPC   C2B17528  16.812   4.826   8.264
 1150POPC   C3B17529  16.830   4.876   7.964
 1150POPC   C4B17530  16.804   4.847   7.664
 1151POPC   NC317531  40.802  32.286   9.464
 1151POPC   PO417532  40.788  32.246   9.164
 1151POPC   GL117533  40.801  32.216   8.864
 1151POPC   GL217534  40.815  32.145   8.864
 1151POPC   C1A17535  40.821  32.200   8.564
 1151POPC   D2A17536  40.780  32.296   8.264
 1151POPC   C3A17537  40.745  32.223   7.964
 1151POPC   C4A17538  40.735  32.221   7.664
 1151POPC   C1B17539  40.882  32.015   8.564
 1151POPC   C2B17540  40.947  32.065   8.264
 1151POPC   C3B17541  40.915  31.995   7.964
 1151POPC   C4B17542  40.948  32.032   7.664
 1152POPC   NC317543  26.841  15.194   9.464
 1152POPC   PO417544  26.834  15.150   9.164
 1152POPC   GL117545  26.833  15.137   8.864
 1152POPC   GL217546  26.682  15.207   8.864
 1152POPC   C1A17547  26.796  15.225   8.564
 1152POPC   D2A17548  26.857  15.133   8.264
 1152POPC   C3A17549  26.827  15.182   7.964
 1152POPC   C4A17550  26.857  15.192   7.664
 1152POPC   C1B17551  26.538  15.219   8.564
 1152POPC   C2B17552  26.564  15.221   8.264
 1152POPC   C3B17553  26.599  15.282   7.964
 1152POPC   C4B17554  26.577  15.235   7.664
 1153POPC   NC317555  12.871   6.611   9.464
 1153POPC   PO417556  12.863   6.621   9.164
 1153POPC   GL117557  12.806   6.607   8.864
 1153POPC   GL217558  12.960   6.651   8.864
 1153POPC   C1A17559  12.869   6.617   8.564
 1153POPC   D2A17560  12.872   6.675   8.264
 1153POPC   C3A17561  12.809   6.597   7.964
 1153POPC   C4A17562  12.898   6.617   7.664
 1153POPC   C1B17563  13.137   6.637   8.564
 1153POPC   C2B17564  13.078   6.673   8.264
 1153POPC   C3B17565  13.088   6.649   7.964
 1153POPC   C4B17566  13.055   6.696   7.664
 1154POPC   NC317567   7.393  22.160   9.464
 1154POPC   PO417568   7.418  22.201   9.164
 1154POPC   GL117569   7.448  22.194   8.864
 1154POPC   GL217570   7.535  22.239   8.864
 1154POPC   C1A17571   7.437  22.209   8.564
 1154POPC   D2A17572   7.424  22.168   8.264
 1154POPC   C3A17573   7.383  22.165   7.964
 1154POPC   C4A17574   7.415  22.131   7.664
 1154POPC   C1B17575   7.594  22.313   8.564
 1154POPC   C2B17576   7.635  22.307   8.264
 1154POPC   C3B17577   7.583  22.318   7.964
 1154POPC   C4B17578   7.554  22.321   7.664
 1155POPC   NC317579  16.741  32.274   9.464
 1155POPC   PO417580  16.732  32.221   9.164
 1155POPC   GL117581  16.743  32.256   8.864
 1155POPC   GL217582  16.710  32.158   8.864
 1155POPC   C1A17583  16.746  32.200   8.564
 1155POPC   D2A17584  16.700  32.238   8.264
 1155POPC   C3A17585  16.690  32.296   7.964
 1155POPC   C4A17586  16.723  32.266   7.664
 1155POPC   C1B17587  16.721  32.000   8.564
 1155POPC   C2B17588  16.753  31.950   8.264
 1155POPC   C3B17589  16.657  31.956   7.964
 1155POPC   C4B17590  16.744  31.994   7.664
 1156POPC   NC317591  32.982   6.616   9.464
 1156POPC   PO417592  33.045   6.609   9.164
 1156POPC   GL117593  33.051   6.659   8.864
 1156POPC   GL217594  33.169   6.571   8.864
 1156POPC   C1A17595  33.016   6.619   8.564
 1156POPC   D2A17596  33.019   6.626   8.264
 1156POPC   C3A17597  33.004   6.688   7.964
 1156POPC   C4A17598  33.004   6.613   7.664
 1156POPC   C1B17599  33.258   6.549   8.564
 1156POPC   C2B17600  33.245   6.617   8.264
 1156POPC   C3B17601  33.229   6.632   7.964
 1156POPC   C4B17602  33.288   6.617   7.664
 1157POPC   NC317603  41.511  22.936   9.464
 1157POPC   PO417604  41.567  22.892   9.164
 1157POPC   GL117605  41.539  22.894   8.864
 1157POPC   GL217606  41.636  22.921   8.864
 1157POPC   C1A17607  41.564  22.923   8.564
 1157POPC   D2A17608  41.554  22.958   8.264
 1157POPC   C3A17609  41.523  22.940   7.964
 1157POPC   C4A17610  41.512  22.907   7.664
 1157POPC   C1B17611  41.815  22.974   8.564
 1157POPC   C2B17612  41.765  22.903   8.264
 1157POPC   C3B17613  41.837  22.897   7.964
 1157POPC   C4B17614  41.843  22.941   7.664
 1158POPC   NC317615   5.916  37.661   9.464
 1158POPC   PO417616   5.909  37.704   9.164
 1158POPC   GL117617   5.859  37.643   8.864
 1158POPC   GL217618   5.982  37.734   8.864
 1158POPC   C1A17619   5.846  37.675   8.564
 1158POPC   D2A17620   5.849  37.634   8.264
 1158POPC   C3A17621   5.862  37.723   7.964
 1158POPC   C4A17622   5.866  37.652   7.664
 1158POPC   C1B17623   6.099  37.772   8.564
 1158POPC   C2B17624   6.100  37.749   8.264
 1158POPC   C3B17625   6.063  37.775   7.964
 1158POPC   C4B17626   6.132  37.783   7.664
 1159POPC   NC317627  36.150  37.658   9.464
 1159POPC   PO417628  36.086  37.661   9.164
 1159POPC   GL117629  36.101  37.702   8.864
 1159POPC   GL217630  36.152  37.834   8.864
 1159POPC   C1A17631  36.109  37.636   8.564
 1159POPC   D2A17632  36.125  37.631   8.264
 1159POPC   C3A17633  36.102  37.680   7.964
 1159POPC   C4A17634  36.163  37.661   7.664
 1159POPC   C1B17635  36.235  37.875   8.564
 1159POPC   C2B17636  36.219  37.883   8.264
 1159POPC   C3B17637  36.293  37.936   7.964
 1159POPC   C4B17638  36.289  37.879   7.664
 1160POPC   NC317639  29.942  30.740   9.464
 1160POPC   PO417640  29.922  30.701   9.164
 1160POPC   GL117641  29.951  30.667   8.864
 1160POPC   GL217642  30.041  30.652   8.864
 1160POPC   C1A17643  29.969  30.709   8.564
 1160POPC   D2A17644  29.887  30.737   8.264
 1160POPC   C3A17645  29.964  30.699   7.964
 1160POPC   C4A17646  29.937  30.744   7.664
 1160POPC   C1B17647  30.079  30.521   8.564
 1160POPC   C2B17648  30.146  30.482   8.264
 1160POPC   C3B17649  30.141  30.553   7.964
 1160POPC   C4B17650  30.140  30.498   7.664
 1161POPC   NC317651  33.767  30.651   9.464
 1161POPC   PO417652  33.769  30.719   9.164
 1161POPC   GL117653  33.765  30.732   8.864
 1161POPC   GL217654  33.880  30.651   8.864
 1161POPC   C1A17655  33.767  30.648   8.564
 1161POPC   D2A17656  33.762  30.717   8.264
 1161POPC   C3A17657  33.818  30.648   7.964
 1161POPC   C4A17658  33.839  30.691   7.664
 1161POPC   C1B17659  34.026  30.573   8.564
 1161POPC   C2B17660  33.950  30.525   8.264
 1161POPC   C3B17661  33.999  30.513   7.964
 1161POPC   C4B17662  33.987  30.520   7.664
 1162POPC   NC317663  33.767  22.984   9.464
 1162POPC   PO417664  33.824  22.924   9.164
 1162POPC   GL117665  33.848  22.925   8.864
 1162POPC   GL217666  33.742  22.861   8.864
 1162POPC   C1A17667  33.846  22.938   8.564
 1162POPC   D2A17668  33.751  22.933   8.264
 1162POPC   C3A17669  33.790  22.888   7.964
 1162POPC   C4A17670  33.835  22.899   7.664
 1162POPC   C1B17671  33.650  22.721   8.564
 1162POPC   C2B17672  33.623  22.709   8.264
 1162POPC   C3B17673  33.609  22.777   7.964
 1162POPC   C4B17674  33.611  22.711   7.664
 1163POPC   NC317675  36.089   5.835   9.464
 1163POPC   PO417676  36.123   5.913   9.164
 1163POPC   GL117677  36.172   5.871   8.864
 1163POPC   GL217678  35.991   5.829   8.864
 1163POPC   C1A17679  36.117   5.851   8.564
 1163POPC   D2A17680  36.094   5.870   8.264
 1163POPC   C3A17681  36.090   5.890   7.964
 1163POPC   C4A17682  36.086   5.852   7.664
 1163POPC   C1B17683  35.907   5.720   8.564
 1163POPC   C2B17684  35.882   5.785   8.264
 1163POPC   C3B17685  35.863   5.760   7.964
 1163POPC   C4B17686  35.888   5.746   7.664
 1164POPC   NC317687  28.404  41.595   9.464
 1164POPC   PO417688  28.400  41.531   9.164
 1164POPC   GL117689  28.378  41.526   8.864
 1164POPC   GL217690  28.359  41.430   8.864
 1164POPC   C1A17691  28.417  41.530   8.564
 1164POPC   D2A17692  28.360  41.563   8.264
 1164POPC   C3A17693  28.376  41.576   7.964
 1164POPC   C4A17694  28.334  41.604   7.664
 1164POPC   C1B17695  28.298  41.299   8.564
 1164POPC   C2B17696  28.284  41.349   8.264
 1164POPC   C3B17697  28.308  41.314   7.964
 1164POPC   C4B17698  28.329  41.320   7.664
 1165POPC   NC317699  31.490  31.430   9.464
 1165POPC   PO417700  31.481  31.503   9.164
 1165POPC   GL117701  31.494  31.443   8.864
 1165POPC   GL217702  31.444  31.355   8.864
 1165POPC   C1A17703  31.459  31.497   8.564
 1165POPC   D2A17704  31.439  31.476   8.264
 1165POPC   C3A17705  31.434  31.450   7.964
 1165POPC   C4A17706  31.483  31.429   7.664
 1165POPC   C1B17707  31.465  31.209   8.564
 1165POPC   C2B17708  31.547  31.208   8.264
 1165POPC   C3B17709  31.505  31.256   7.964
 1165POPC   C4B17710  31.532  31.248   7.664
 1166POPC   NC317711   3.504  25.218   9.464
 1166POPC   PO417712   3.584  25.314   9.164
 1166POPC   GL117713   3.585  25.275   8.864
 1166POPC   GL217714   3.483  25.420   8.864
 1166POPC   C1A17715   3.537  25.229   8.564
 1166POPC   D2A17716   3.557  25.244   8.264
 1166POPC   C3A17717   3.501  25.257   7.964
 1166POPC   C4A17718   3.526  25.248   7.664
 1166POPC   C1B17719   3.543  25.466   8.564
 1166POPC   C2B17720   3.481  25.529   8.264
 1166POPC   C3B17721   3.529  25.532   7.964
 1166POPC   C4B17722   3.500  25.498   7.664
 1167POPC   NC317723  30.745  33.844   9.464
 1167POPC   PO417724  30.745  33.755   9.164
 1167POPC   GL117725  30.688  33.753   8.864
 1167POPC   GL217726  30.568  33.760   8.864
 1167POPC   C1A17727  30.722  33.844   8.564
 1167POPC   D2A17728  30.724  33.784   8.264
 1167POPC   C3A17729  30.660  33.803   7.964
 1167POPC   C4A17730  30.727  33.814   7.664
 1167POPC   C1B17731  30.473  33.757   8.564
 1167POPC   C2B17732  30.463  33.780   8.264
 1167POPC   C3B17733  30.431  33.721   7.964
 1167POPC   C4B17734  30.497  33.730   7.664
 1168POPC   NC317735   8.204  26.007   9.464
 1168POPC   PO417736   8.231  26.046   9.164
 1168POPC   GL117737   8.188  26.068   8.864
 1168POPC   GL217738   8.137  25.993   8.864
 1168POPC   C1A17739   8.228  26.031   8.564
 1168POPC   D2A17740   8.220  25.998   8.264
 1168POPC   C3A17741   8.229  26.006   7.964
 1168POPC   C4A17742   8.164  26.036   7.664
 1168POPC   C1B17743   7.987  25.822   8.564
 1168POPC   C2B17744   7.978  25.821   8.264
 1168POPC   C3B17745   7.988  25.901   7.964
 1168POPC   C4B17746   8.015  25.889   7.664
 1169POPC   NC317747  29.109  38.496   9.464
 1169POPC   PO417748  29.154  38.408   9.164
 1169POPC   GL117749  29.191  38.452   8.864
 1169POPC   GL217750  29.081  38.321   8.864
 1169POPC   C1A17751  29.184  38.500   8.564
 1169POPC   D2A17752  29.119  38.439   8.264
 1169POPC   C3A17753  29.147  38.486   7.964
 1169POPC   C4A17754  29.124  38.408   7.664
 1169POPC   C1B17755  28.966  38.309   8.564
 1169POPC   C2B17756  28.994  38.257   8.264
 1169POPC   C3B17757  29.005  38.225   7.964
 1169POPC   C4B17758  28.958  38.252   7.664
 1170POPC   NC317759   0.402  23.673   9.464
 1170POPC   PO417760   0.455  23.711   9.164
 1170POPC   GL117761   0.392  23.701   8.864
 1170POPC   GL217762   0.469  23.798   8.864
 1170POPC   C1A17763   0.429  23.729   8.564
 1170POPC   D2A17764   0.477  23.687   8.264
 1170POPC   C3A17765   0.426  23.685   7.964
 1170POPC   C4A17766   0.479  23.695   7.664
 1170POPC   C1B17767   0.468  23.929   8.564
 1170POPC   C2B17768   0.497  23.970   8.264
 1170POPC   C3B17769   0.494  23.961   7.964
 1170POPC   C4B17770   0.469  23.941   7.664
 1171POPC   NC317771   4.299  10.539   9.464
 1171POPC   PO417772   4.312  10.505   9.164
 1171POPC   GL117773   4.315  10.562   8.864
 1171POPC   GL217774   4.232  10.594   8.864
 1171POPC   C1A17775   4.346  10.480   8.564
 1171POPC   D2A17776   4.361  10.488   8.264
 1171POPC   C3A17777   4.324  10.535   7.964
 1171POPC   C4A17778   4.360  10.492   7.664
 1171POPC   C1B17779   4.220  10.755   8.564
 1171POPC   C2B17780   4.268  10.783   8.264
 1171POPC   C3B17781   4.279  10.726   7.964
 1171POPC   C4B17782   4.273  10.750   7.664
 1172POPC   NC317783  13.636  26.777   9.464
 1172POPC   PO417784  13.622  26.818   9.164
 1172POPC   GL117785  13.618  26.769   8.864
 1172POPC   GL217786  13.524  26.785   8.864
 1172POPC   C1A17787  13.598  26.775   8.564
 1172POPC   D2A17788  13.660  26.809   8.264
 1172POPC   C3A17789  13.596  26.813   7.964
 1172POPC   C4A17790  13.649  26.778   7.664
 1172POPC   C1B17791  13.398  26.722   8.564
 1172POPC   C2B17792  13.443  26.729   8.264
 1172POPC   C3B17793  13.445  26.768   7.964
 1172POPC   C4B17794  13.353  26.729   7.664
 1173POPC   NC317795  31.493   0.473   9.464
 1173POPC   PO417796  31.459   0.389   9.164
 1173POPC   GL117797  31.431   0.443   8.864
 1173POPC   GL217798  31.493   0.314   8.864
 1173POPC   C1A17799  31.426   0.488   8.564
 1173POPC   D2A17800  31.456   0.397   8.264
 1173POPC   C3A17801  31.476   0.432   7.964
 1173POPC   C4A17802  31.503   0.455   7.664
 1173POPC   C1B17803  31.436   0.198   8.564
 1173POPC   C2B17804  31.453   0.209   8.264
 1173POPC   C3B17805  31.461   0.172   7.964
 1173POPC   C4B17806  31.375   0.220   7.664
 1174POPC   NC317807  29.140  24.454   9.464
 1174POPC   PO417808  29.162  24.488   9.164
 1174POPC   GL117809  29.120  24.446   8.864
 1174POPC   GL217810  29.222  24.555   8.864
 1174POPC   C1A17811  29.186  24.455   8.564
 1174POPC   D2A17812  29.168  24.516   8.264
 1174POPC   C3A17813  29.193  24.528   7.964
 1174POPC   C4A17814  29.173  24.474   7.664
 1174POPC   C1B17815  29.370  24.702   8.564
 1174POPC   C2B17816  29.338  24.691   8.264
 1174POPC   C3B17817  29.376  24.616   7.964
 1174POPC   C4B17818  29.313  24.671   7.664
 1175POPC   NC317819  15.225  41.576   9.464
 1175POPC   PO417820  15.207  41.550   9.164
 1175POPC   GL117821  15.161  41.544   8.864
 1175POPC   GL217822  15.136  41.497   8.864
 1175POPC   C1A17823  15.194  41.527   8.564
 1175POPC   D2A17824  15.143  41.549   8.264
 1175POPC   C3A17825  15.188  41.598   7.964
 1175POPC   C4A17826  15.156  41.554   7.664
 1175POPC   C1B17827  14.972  41.414   8.564
 1175POPC   C2B17828  15.020  41.405   8.264
 1175POPC   C3B17829  14.979  41.387   7.964
 1175POPC   C4B17830  15.003  41.404   7.664
 1176POPC   NC317831   2.777  19.061   9.464
 1176POPC   PO417832   2.792  19.018   9.164
 1176POPC   GL117833   2.786  19.067   8.864
 1176POPC   GL217834   2.792  18.920   8.864
 1176POPC   C1A17835   2.761  19.104   8.564
 1176POPC   D2A17836   2.813  19.107   8.264
 1176POPC   C3A17837   2.724  19.040   7.964
 1176POPC   C4A17838   2.783  19.090   7.664
 1176POPC   C1B17839   2.833  18.859   8.564
 1176POPC   C2B17840   2.807  18.789   8.264
 1176POPC   C3B17841   2.851  18.824   7.964
 1176POPC   C4B17842   2.858  18.861   7.664
 1177POPC   NC317843  38.463   5.139   9.464
 1177POPC   PO417844  38.492   5.109   9.164
 1177POPC   GL117845  38.415   5.090   8.864
 1177POPC   GL217846  38.320   5.105   8.864
 1177POPC   C1A17847  38.464   5.088   8.564
 1177POPC   D2A17848  38.489   5.071   8.264
 1177POPC   C3A17849  38.419   5.092   7.964
 1177POPC   C4A17850  38.430   5.063   7.664
 1177POPC   C1B17851  38.173   5.041   8.564
 1177POPC   C2B17852  38.227   5.086   8.264
 1177POPC   C3B17853  38.209   5.052   7.964
 1177POPC   C4B17854  38.243   5.046   7.664
 1178POPC   NC317855  28.370  34.594   9.464
 1178POPC   PO417856  28.414  34.603   9.164
 1178POPC   GL117857  28.392  34.594   8.864
 1178POPC   GL217858  28.310  34.647   8.864
 1178POPC   C1A17859  28.412  34.610   8.564
 1178POPC   D2A17860  28.355  34.579   8.264
 1178POPC   C3A17861  28.321  34.615   7.964
 1178POPC   C4A17862  28.324  34.615   7.664
 1178POPC   C1B17863  28.237  34.811   8.564
 1178POPC   C2B17864  28.243  34.833   8.264
 1178POPC   C3B17865  28.292  34.775   7.964
 1178POPC   C4B17866  28.242  34.807   7.664
 1179POPC   NC317867   8.166   4.273   9.464
 1179POPC   PO417868   8.165   4.274   9.164
 1179POPC   GL117869   8.232   4.280   8.864
 1179POPC   GL217870   8.231   4.209   8.864
 1179POPC   C1A17871   8.243   4.277   8.564
 1179POPC   D2A17872   8.230   4.351   8.264
 1179POPC   C3A17873   8.151   4.357   7.964
 1179POPC   C4A17874   8.246   4.319   7.664
 1179POPC   C1B17875   8.334   4.115   8.564
 1179POPC   C2B17876   8.366   4.155   8.264
 1179POPC   C3B17877   8.349   4.145   7.964
 1179POPC   C4B17878   8.370   4.158   7.664
 1180POPC   NC317879  42.336   6.603   9.464
 1180POPC   PO417880  42.305   6.632   9.164
 1180POPC   GL117881  42.349   6.630   8.864
 1180POPC   GL217882  42.368   6.474   8.864
 1180POPC   C1A17883  42.286   6.634   8.564
 1180POPC   D2A17884  42.362   6.667   8.264
 1180POPC   C3A17885  42.287   6.621   7.964
 1180POPC   C4A17886  42.368   6.602   7.664
 1180POPC   C1B17887  42.275   6.371   8.564
 1180POPC   C2B17888  42.325   6.399   8.264
 1180POPC   C3B17889  42.323   6.413   7.964
 1180POPC   C4B17890  42.274   6.373   7.664
 1181POPC   NC317891   2.000   5.906   9.464
 1181POPC   PO417892   2.003   5.917   9.164
 1181POPC   GL117893   1.999   5.841   8.864
 1181POPC   GL217894   1.908   5.801   8.864
 1181POPC   C1A17895   1.972   5.844   8.564
 1181POPC   D2A17896   2.005   5.911   8.264
 1181POPC   C3A17897   2.038   5.881   7.964
 1181POPC   C4A17898   2.019   5.885   7.664
 1181POPC   C1B17899   1.775   5.725   8.564
 1181POPC   C2B17900   1.731   5.757   8.264
 1181POPC   C3B17901   1.719   5.777   7.964
 1181POPC   C4B17902   1.771   5.814   7.664
 1182POPC   NC317903   9.008  20.657   9.464
 1182POPC   PO417904   9.006  20.599   9.164
 1182POPC   GL117905   8.960  20.650   8.864
 1182POPC   GL217906   9.089  20.677   8.864
 1182POPC   C1A17907   8.956  20.599   8.564
 1182POPC   D2A17908   8.968  20.619   8.264
 1182POPC   C3A17909   8.925  20.621   7.964
 1182POPC   C4A17910   9.018  20.653   7.664
 1182POPC   C1B17911   9.133  20.775   8.564
 1182POPC   C2B17912   9.166  20.782   8.264
 1182POPC   C3B17913   9.175  20.739   7.964
 1182POPC   C4B17914   9.160  20.727   7.664
 1183POPC   NC317915   4.329  20.568   9.464
 1183POPC   PO417916   4.344  20.642   9.164
 1183POPC   GL117917   4.359  20.643   8.864
 1183POPC   GL217918   4.148  20.555   8.864
 1183POPC   C1A17919   4.278  20.601   8.564
 1183POPC   D2A17920   4.330  20.570   8.264
 1183POPC   C3A17921   4.291  20.592   7.964
 1183POPC   C4A17922   4.355  20.597   7.664
 1183POPC   C1B17923   4.084  20.558   8.564
 1183POPC   C2B17924   4.054  20.566   8.264
 1183POPC   C3B17925   4.036  20.606   7.964
 1183POPC   C4B17926   4.019  20.564   7.664
 1184POPC   NC317927   9.770  28.388   9.464
 1184POPC   PO417928   9.737  28.401   9.164
 1184POPC   GL117929   9.790  28.382   8.864
 1184POPC   GL217930   9.893  28.297   8.864
 1184POPC   C1A17931   9.755  28.332   8.564
 1184POPC   D2A17932   9.707  28.389   8.264
 1184POPC   C3A17933   9.759  28.405   7.964
 1184POPC   C4A17934   9.760  28.377   7.664
 1184POPC   C1B17935   9.974  28.271   8.564
 1184POPC   C2B17936  10.019  28.282   8.264
 1184POPC   C3B17937  10.027  28.353   7.964
 1184POPC   C4B17938  10.026  28.350   7.664
 1185POPC   NC317939   5.840   5.890   9.464
 1185POPC   PO417940   5.847   5.886   9.164
 1185POPC   GL117941   5.850   5.896   8.864
 1185POPC   GL217942   5.706   5.934   8.864
 1185POPC   C1A17943   5.873   5.835   8.564
 1185POPC   D2A17944   5.823   5.886   8.264
 1185POPC   C3A17945   5.827   5.831   7.964
 1185POPC   C4A17946   5.864   5.843   7.664
 1185POPC   C1B17947   5.582   5.983   8.564
 1185POPC   C2B17948   5.665   5.952   8.264
 1185POPC   C3B17949   5.664   5.930   7.964
 1185POPC   C4B17950   5.597   5.973   7.664
 1186POPC   NC317951  21.377  23.717   9.464
 1186POPC   PO417952  21.407  23.734   9.164
 1186POPC   GL117953  21.411  23.730   8.864
 1186POPC   GL217954  21.359  23.572   8.864
 1186POPC   C1A17955  21.402  23.733   8.564
 1186POPC   D2A17956  21.394  23.754   8.264
 1186POPC   C3A17957  21.350  23.684   7.964
 1186POPC   C4A17958  21.433  23.708   7.664
 1186POPC   C1B17959  21.260  23.490   8.564
 1186POPC   C2B17960  21.293  23.483   8.264
 1186POPC   C3B17961  21.271  23.445   7.964
 1186POPC   C4B17962  21.294  23.479   7.664
 1187POPC   NC317963   1.944  16.720   9.464
 1187POPC   PO417964   1.999  16.691   9.164
 1187POPC   GL117965   1.959  16.726   8.864
 1187POPC   GL217966   2.108  16.816   8.864
 1187POPC   C1A17967   1.980  16.765   8.564
 1187POPC   D2A17968   2.027  16.687   8.264
 1187POPC   C3A17969   1.954  16.774   7.964
 1187POPC   C4A17970   1.994  16.770   7.664
 1187POPC   C1B17971   2.208  16.825   8.564
 1187POPC   C2B17972   2.227  16.813   8.264
 1187POPC   C3B17973   2.255  16.838   7.964
 1187POPC   C4B17974   2.183  16.809   7.664
 1188POPC   NC317975   6.672   0.455   9.464
 1188POPC   PO417976   6.643   0.416   9.164
 1188POPC   GL117977   6.621   0.475   8.864
 1188POPC   GL217978   6.762   0.406   8.864
 1188POPC   C1A17979   6.606   0.395   8.564
 1188POPC   D2A17980   6.625   0.392   8.264
 1188POPC   C3A17981   6.656   0.399   7.964
 1188POPC   C4A17982   6.653   0.391   7.664
 1188POPC   C1B17983   6.842   0.388   8.564
 1188POPC   C2B17984   6.859   0.341   8.264
 1188POPC   C3B17985   6.907   0.372   7.964
 1188POPC   C4B17986   6.924   0.343   7.664
 1189POPC   NC317987  39.183  15.148   9.464
 1189POPC   PO417988  39.261  15.202   9.164
 1189POPC   GL117989  39.218  15.131   8.864
 1189POPC   GL217990  39.235  15.051   8.864
 1189POPC   C1A17991  39.235  15.227   8.564
 1189POPC   D2A17992  39.227  15.138   8.264
 1189POPC   C3A17993  39.274  15.157   7.964
 1189POPC   C4A17994  39.271  15.196   7.664
 1189POPC   C1B17995  39.284  14.915   8.564
 1189POPC   C2B17996  39.344  14.939   8.264
 1189POPC   C3B17997  39.355  14.900   7.964
 1189POPC   C4B17998  39.266  14.944   7.664
 1190POPC   NC317999  20.598  28.326   9.464
 1190POPC   PO418000  20.573  28.387   9.164
 1190POPC   GL118001  20.631  28.351   8.864
 1190POPC   GL218002  20.700  28.379   8.864
 1190POPC   C1A18003  20.657  28.342   8.564
 1190POPC   D2A18004  20.571  28.327   8.264
 1190POPC   C3A18005  20.603  28.360   7.964
 1190POPC   C4A18006  20.610  28.326   7.664
 1190POPC   C1B18007  20.831  28.287   8.564
 1190POPC   C2B18008  20.894  28.297   8.264
 1190POPC   C3B18009  20.879  28.306   7.964
 1190POPC   C4B18010  20.834  28.298   7.664
 1191POPC   NC318011  16.723   5.879   9.464
 1191POPC   PO418012  16.774   5.875   9.164
 1191POPC   GL118013  16.735   5.870   8.864
 1191POPC   GL218014  16.696   5.724   8.864
 1191POPC   C1A18015  16.700   5.891   8.564
 1191POPC   D2A18016  16.766   5.858   8.264
 1191POPC   C3A18017  16.736   5.896   7.964
 1191POPC   C4A18018  16.740   5.885   7.664
 1191POPC   C1B18019  16.632   5.642   8.564
 1191POPC   C2B18020  16.699   5.621   8.264
 1191POPC   C3B18021  16.631   5.667   7.964
 1191POPC   C4B18022  16.653   5.632   7.664
 1192POPC   NC318023  31.432  33.000   9.464
 1192POPC   PO418024  31.521  33.008   9.164
 1192POPC   GL118025  31.503  33.056   8.864
 1192POPC   GL218026  31.597  33.031   8.864
 1192POPC   C1A18027  31.471  33.041   8.564
 1192POPC   D2A18028  31.434  33.052   8.264
 1192POPC   C3A18029  31.457  33.030   7.964
 1192POPC   C4A18030  31.452  33.030   7.664
 1192POPC   C1B18031  31.688  33.093   8.564
 1192POPC   C2B18032  31.681  33.131   8.264
 1192POPC   C3B18033  31.725  33.119   7.964
 1192POPC   C4B18034  31.753  33.087   7.664
 1193POPC   NC318035  30.713  26.861   9.464
 1193POPC   PO418036  30.742  26.787   9.164
 1193POPC   GL118037  30.723  26.857   8.864
 1193POPC   GL218038  30.627  26.738   8.864
 1193POPC   C1A18039  30.721  26.828   8.564
 1193POPC   D2A18040  30.710  26.841   8.264
 1193POPC   C3A18041  30.696  26.772   7.964
 1193POPC   C4A18042  30.710  26.858   7.664
 1193POPC   C1B18043  30.481  26.647   8.564
 1193POPC   C2B18044  30.502  26.676   8.264
 1193POPC   C3B18045  30.490  26.690   7.964
 1193POPC   C4B18046  30.489  26.631   7.664
 1194POPC   NC318047  17.503  12.031   9.464
 1194POPC   PO418048  17.547  12.115   9.164
 1194POPC   GL118049  17.459  12.074   8.864
 1194POPC   GL218050  17.605  12.128   8.864
 1194POPC   C1A18051  17.475  12.041   8.564
 1194POPC   D2A18052  17.464  12.067   8.264
 1194POPC   C3A18053  17.468  12.065   7.964
 1194POPC   C4A18054  17.487  12.097   7.664
 1194POPC   C1B18055  17.784  12.124   8.564
 1194POPC   C2B18056  17.730  12.101   8.264
 1194POPC   C3B18057  17.731  12.159   7.964
 1194POPC   C4B18058  17.729  12.126   7.664
 1195POPC   NC318059   2.775  27.633   9.464
 1195POPC   PO418060   2.806  27.564   9.164
 1195POPC   GL118061   2.805  27.621   8.864
 1195POPC   GL218062   2.669  27.483   8.864
 1195POPC   C1A18063   2.716  27.580   8.564
 1195POPC   D2A18064   2.792  27.625   8.264
 1195POPC   C3A18065   2.737  27.575   7.964
 1195POPC   C4A18066   2.735  27.629   7.664
 1195POPC   C1B18067   2.557  27.355   8.564
 1195POPC   C2B18068   2.554  27.361   8.264
 1195POPC   C3B18069   2.593  27.411   7.964
 1195POPC   C4B18070   2.590  27.403   7.664
 1196POPC   NC318071   2.789   0.465   9.464
 1196POPC   PO418072   2.768   0.419   9.164
 1196POPC   GL118073   2.813   0.411   8.864
 1196POPC   GL218074   2.906   0.515   8.864
 1196POPC   C1A18075   2.733   0.424   8.564
 1196POPC   D2A18076   2.720   0.426   8.264
 1196POPC   C3A18077   2.750   0.464   7.964
 1196POPC   C4A18078   2.795   0.443   7.664
 1196POPC   C1B18079   3.009   0.467   8.564
 1196POPC   C2B18080   2.964   0.472   8.264
 1196POPC   C3B18081   3.031   0.459   7.964
 1196POPC   C4B18082   3.049   0.479   7.664
 1197POPC   NC318083   9.716  21.348   9.464
 1197POPC   PO418084   9.704  21.395   9.164
 1197POPC   GL118085   9.735  21.388   8.864
 1197POPC   GL218086   9.640  21.496   8.864
 1197POPC   C1A18087   9.724  21.372   8.564
 1197POPC   D2A18088   9.742  21.344   8.264
 1197POPC   C3A18089   9.756  21.382   7.964
 1197POPC   C4A18090   9.781  21.390   7.664
 1197POPC   C1B18091   9.559  21.488   8.564
 1197POPC   C2B18092   9.498  21.468   8.264
 1197POPC   C3B18093   9.519  21.463   7.964
 1197POPC   C4B18094   9.480  21.528   7.664
 1198POPC   NC318095  33.059   5.085   9.464
 1198POPC   PO418096  33.002   5.083   9.164
 1198POPC   GL118097  32.977   5.079   8.864
 1198POPC   GL218098  33.054   5.014   8.864
 1198POPC   C1A18099  33.001   5.098   8.564
 1198POPC   D2A18100  33.019   5.069   8.264
 1198POPC   C3A18101  32.993   5.137   7.964
 1198POPC   C4A18102  33.037   5.050   7.664
 1198POPC   C1B18103  32.980   4.855   8.564
 1198POPC   C2B18104  32.984   4.845   8.264
 1198POPC   C3B18105  33.007   4.891   7.964
 1198POPC   C4B18106  33.015   4.869   7.664
 1199POPC   NC318107   6.660  35.350   9.464
 1199POPC   PO418108   6.605  35.392   9.164
 1199POPC   GL118109   6.645  35.387   8.864
 1199POPC   GL218110   6.681  35.496   8.864
 1199POPC   C1A18111   6.648  35.305   8.564
 1199POPC   D2A18112   6.600  35.321   8.264
 1199POPC   C3A18113   6.598  35.385   7.964
 1199POPC   C4A18114   6.671  35.308   7.664
 1199POPC   C1B18115   6.668  35.572   8.564
 1199POPC   C2B18116   6.631  35.598   8.264
 1199POPC   C3B18117   6.678  35.630   7.964
 1199POPC   C4B18118   6.708  35.648   7.664
 1200POPC   NC318119  42.311  29.910   9.464
 1200POPC   PO418120  42.322  29.921   9.164
 1200POPC   GL118121  42.323  29.889   8.864
 1200POPC   GL218122  42.294  29.842   8.864
 1200POPC   C1A18123  42.375  29.958   8.564
 1200POPC   D2A18124  42.287  29.957   8.264
 1200POPC   C3A18125  42.307  29.899   7.964
 1200POPC   C4A18126  42.288  29.916   7.664
 1200POPC   C1B18127  42.278  29.637   8.564
 1200POPC   C2B18128  42.279  29.628   8.264
 1200POPC   C3B18129  42.286  29.696   7.964
 1200POPC   C4B18130  42.359  29.690   7.664
 1201POPC   NC318131  22.911  15.948   9.464
 1201POPC   PO418132  22.936  15.917   9.164
 1201POPC   GL118133  22.908  15.936   8.864
 1201POPC   GL218134  22.872  15.818   8.864
 1201POPC   C1A18135  22.914  15.938   8.564
 1201POPC   D2A18136  22.973  15.945   8.264
 1201POPC   C3A18137  22.960  15.944   7.964
 1201POPC   C4A18138  22.962  15.947   7.664
 1201POPC   C1B18139  22.795  15.751   8.564
 1201POPC   C2B18140  22.762  15.798   8.264
 1201POPC   C3B18141  22.813  15.730   7.964
 1201POPC   C4B18142  22.743  15.775   7.664
 1202POPC   NC318143  12.115  43.103   9.464
 1202POPC   PO418144  12.085  43.073   9.164
 1202POPC   GL118145  12.042  43.125   8.864
 1202POPC   GL218146  12.240  43.105   8.864
 1202POPC   C1A18147  12.114  43.157   8.564
 1202POPC   D2A18148  12.033  43.141   8.264
 1202POPC   C3A18149  12.118  43.129   7.964
 1202POPC   C4A18150  12.059  43.084   7.664
 1202POPC   C1B18151  12.303  43.179   8.564
 1202POPC   C2B18152  12.292  43.185   8.264
 1202POPC   C3B18153  12.355  43.247   7.964
 1202POPC   C4B18154  12.303  43.177   7.664
 1203POPC   NC318155  17.483  33.065   9.464
 1203POPC   PO418156  17.531  33.074   9.164
 1203POPC   GL118157  17.474  33.040   8.864
 1203POPC   GL218158  17.468  32.882   8.864
 1203POPC   C1A18159  17.515  33.033   8.564
 1203POPC   D2A18160  17.505  33.007   8.264
 1203POPC   C3A18161  17.528  33.054   7.964
 1203POPC   C4A18162  17.502  33.037   7.664
 1203POPC   C1B18163  17.446  32.832   8.564
 1203POPC   C2B18164  17.472  32.802   8.264
 1203POPC   C3B18165  17.400  32.762   7.964
 1203POPC   C4B18166  17.472  32.827   7.664
 1204POPC   NC318167   7.436  12.876   9.464
 1204POPC   PO418168   7.408  12.809   9.164
 1204POPC   GL118169   7.401  12.860   8.864
 1204POPC   GL218170   7.496  12.894   8.864
 1204POPC   C1A18171   7.467  12.839   8.564
 1204POPC   D2A18172   7.440  12.825   8.264
 1204POPC   C3A18173   7.427  12.878   7.964
 1204POPC   C4A18174   7.439  12.901   7.664
 1204POPC   C1B18175   7.702  12.843   8.564
 1204POPC   C2B18176   7.720  12.891   8.264
 1204POPC   C3B18177   7.697  12.831   7.964
 1204POPC   C4B18178   7.689  12.861   7.664
 1205POPC   NC318179  24.442  33.762   9.464
 1205POPC   PO418180  24.512  33.792   9.164
 1205POPC   GL118181  24.537  33.838   8.864
 1205POPC   GL218182  24.562  33.679   8.864
 1205POPC   C1A18183  24.477  33.828   8.564
 1205POPC   D2A18184  24.509  33.844   8.264
 1205POPC   C3A18185  24.463  33.825   7.964
 1205POPC   C4A18186  24.450  33.850   7.664
 1205POPC   C1B18187  24.624  33.568   8.564
 1205POPC   C2B18188  24.607  33.619   8.264
 1205POPC   C3B18189  24.602  33.655   7.964
 1205POPC   C4B18190  24.656  33.592   7.664
 1206POPC   NC318191  10.543  12.110   9.464
 1206POPC   PO418192  10.487  12.113   9.164
 1206POPC   GL118193  10.526  12.058   8.864
 1206POPC   GL218194  10.364  11.995   8.864
 1206POPC   C1A18195  10.477  12.121   8.564
 1206POPC   D2A18196  10.484  12.107   8.264
 1206POPC   C3A18197  10.564  12.084   7.964
 1206POPC   C4A18198  10.489  12.084   7.664
 1206POPC   C1B18199  10.239  12.011   8.564
 1206POPC   C2B18200  10.251  12.015   8.264
 1206POPC   C3B18201  10.282  11.997   7.964
 1206POPC   C4B18202  10.257  12.020   7.664
 1207POPC   NC318203  36.123   8.225   9.464
 1207POPC   PO418204  36.156   8.174   9.164
 1207POPC   GL118205  36.156   8.147   8.864
 1207POPC   GL218206  36.241   8.294   8.864
 1207POPC   C1A18207  36.097   8.219   8.564
 1207POPC   D2A18208  36.143   8.153   8.264
 1207POPC   C3A18209  36.100   8.213   7.964
 1207POPC   C4A18210  36.149   8.159   7.664
 1207POPC   C1B18211  36.339   8.317   8.564
 1207POPC   C2B18212  36.333   8.385   8.264
 1207POPC   C3B18213  36.283   8.351   7.964
 1207POPC   C4B18214  36.375   8.346   7.664
 1208POPC   NC318215   1.229  13.642   9.464
 1208POPC   PO418216   1.229  13.668   9.164
 1208POPC   GL118217   1.222  13.677   8.864
 1208POPC   GL218218   1.311  13.680   8.864
 1208POPC   C1A18219   1.248  13.673   8.564
 1208POPC   D2A18220   1.229  13.613   8.264
 1208POPC   C3A18221   1.235  13.627   7.964
 1208POPC   C4A18222   1.244  13.629   7.664
 1208POPC   C1B18223   1.344  13.834   8.564
 1208POPC   C2B18224   1.351  13.855   8.264
 1208POPC   C3B18225   1.398  13.829   7.964
 1208POPC   C4B18226   1.345  13.793   7.664
 1209POPC   NC318227   0.419  16.745   9.464
 1209POPC   PO418228   0.461  16.763   9.164
 1209POPC   GL118229   0.394  16.766   8.864
 1209POPC   GL218230   0.353  16.648   8.864
 1209POPC   C1A18231   0.445  16.757   8.564
 1209POPC   D2A18232   0.426  16.767   8.264
 1209POPC   C3A18233   0.441  16.702   7.964
 1209POPC   C4A18234   0.390  16.744   7.664
 1209POPC   C1B18235   0.231  16.611   8.564
 1209POPC   C2B18236   0.216  16.587   8.264
 1209POPC   C3B18237   0.279  16.528   7.964
 1209POPC   C4B18238   0.212  16.566   7.664
 1210POPC   NC318239   1.185  30.728   9.464
 1210POPC   PO418240   1.241  30.710   9.164
 1210POPC   GL118241   1.204  30.722   8.864
 1210POPC   GL218242   1.071  30.655   8.864
 1210POPC   C1A18243   1.251  30.701   8.564
 1210POPC   D2A18244   1.217  30.736   8.264
 1210POPC   C3A18245   1.191  30.731   7.964
 1210POPC   C4A18246   1.253  30.680   7.664
 1210POPC   C1B18247   0.935  30.634   8.564
 1210POPC   C2B18248   0.935  30.600   8.264
 1210POPC   C3B18249   0.963  30.601   7.964
 1210POPC   C4B18250   0.947  30.610   7.664
 1211POPC   NC318251  19.107  36.144   9.464
 1211POPC   PO418252  19.088  36.083   9.164
 1211POPC   GL118253  19.032  36.156   8.864
 1211POPC   GL218254  18.997  35.994   8.864
 1211POPC   C1A18255  19.071  36.105   8.564
 1211POPC   D2A18256  19.044  36.147   8.264
 1211POPC   C3A18257  19.035  36.138   7.964
 1211POPC   C4A18258  19.043  36.088   7.664
 1211POPC   C1B18259  18.948  35.905   8.564
 1211POPC   C2B18260  18.878  35.940   8.264
 1211POPC   C3B18261  18.902  35.956   7.964
 1211POPC   C4B18262  18.943  35.920   7.664
 1212POPC   NC318263  32.275  44.673   9.464
 1212POPC   PO418264  32.291  44.623   9.164
 1212POPC   GL118265  32.204  44.641   8.864
 1212POPC   GL218266  32.311  44.571   8.864
 1212POPC   C1A18267  32.232  44.624   8.564
 1212POPC   D2A18268  32.250  44.669   8.264
 1212POPC   C3A18269  32.234  44.684   7.964
 1212POPC   C4A18270  32.285  44.660   7.664
 1212POPC   C1B18271  32.389  44.408   8.564
 1212POPC   C2B18272  32.403  44.492   8.264
 1212POPC   C3B18273  32.390  44.501   7.964
 1212POPC   C4B18274  32.381  44.452   7.664
 1213POPC   NC318275  42.381   2.761   9.464
 1213POPC   PO418276  42.316   2.746   9.164
 1213POPC   GL118277  42.384   2.752   8.864
 1213POPC   GL218278  42.241   2.846   8.864
 1213POPC   C1A18279  42.338   2.789   8.564
 1213POPC   D2A18280  42.354   2.797   8.264
 1213POPC   C3A18281  42.380   2.790   7.964
 1213POPC   C4A18282  42.346   2.716   7.664
 1213POPC   C1B18283  42.234   3.013   8.564
 1213POPC   C2B18284  42.232   3.013   8.264
 1213POPC   C3B18285  42.225   3.003   7.964
 1213POPC   C4B18286  42.188   2.973   7.664
 1214POPC   NC318287  36.952  37.654   9.464
 1214POPC   PO418288  36.864  37.704   9.164
 1214POPC   GL118289  36.917  37.700   8.864
 1214POPC   GL218290  36.925  37.559   8.864
 1214POPC   C1A18291  36.914  37.688   8.564
 1214POPC   D2A18292  36.855  37.672   8.264
 1214POPC   C3A18293  36.863  37.659   7.964
 1214POPC   C4A18294  36.935  37.650   7.664
 1214POPC   C1B18295  36.996  37.448   8.564
 1214POPC   C2B18296  36.958  37.392   8.264
 1214POPC   C3B18297  36.990  37.453   7.964
 1214POPC   C4B18298  36.966  37.390   7.664
 1215POPC   NC318299  19.856  36.945   9.464
 1215POPC   PO418300  19.850  36.905   9.164
 1215POPC   GL118301  19.818  36.922   8.864
 1215POPC   GL218302  19.804  37.018   8.864
 1215POPC   C1A18303  19.880  36.872   8.564
 1215POPC   D2A18304  19.870  36.857   8.264
 1215POPC   C3A18305  19.883  36.876   7.964
 1215POPC   C4A18306  19.864  36.913   7.664
 1215POPC   C1B18307  19.890  37.125   8.564
 1215POPC   C2B18308  19.871  37.160   8.264
 1215POPC   C3B18309  19.890  37.155   7.964
 1215POPC   C4B18310  19.861  37.144   7.664
 1216POPC   NC318311  18.235  36.155   9.464
 1216POPC   PO418312  18.297  36.158   9.164
 1216POPC   GL118313  18.254  36.124   8.864
 1216POPC   GL218314  18.299  35.959   8.864
 1216POPC   C1A18315  18.245  36.090   8.564
 1216POPC   D2A18316  18.301  36.103   8.264
 1216POPC   C3A18317  18.291  36.162   7.964
 1216POPC   C4A18318  18.296  36.165   7.664
 1216POPC   C1B18319  18.336  35.842   8.564
 1216POPC   C2B18320  18.303  35.889   8.264
 1216POPC   C3B18321  18.316  35.832   7.964
 1216POPC   C4B18322  18.313  35.930   7.664
 1217POPC   NC318323  16.744  26.031   9.464
 1217POPC   PO418324  16.697  25.994   9.164
 1217POPC   GL118325  16.730  25.999   8.864
 1217POPC   GL218326  16.763  26.174   8.864
 1217POPC   C1A18327  16.682  26.009   8.564
 1217POPC   D2A18328  16.695  26.009   8.264
 1217POPC   C3A18329  16.729  26.057   7.964
 1217POPC   C4A18330  16.687  26.034   7.664
 1217POPC   C1B18331  16.804  26.235   8.564
 1217POPC   C2B18332  16.838  26.257   8.264
 1217POPC   C3B18333  16.828  26.313   7.964
 1217POPC   C4B18334  16.804  26.294   7.664
 1218POPC   NC318335   9.752  40.033   9.464
 1218POPC   PO418336   9.704  39.977   9.164
 1218POPC   GL118337   9.782  39.962   8.864
 1218POPC   GL218338   9.601  39.974   8.864
 1218POPC   C1A18339   9.716  40.034   8.564
 1218POPC   D2A18340   9.782  40.026   8.264
 1218POPC   C3A18341   9.699  40.057   7.964
 1218POPC   C4A18342   9.734  39.964   7.664
 1218POPC   C1B18343   9.513  39.844   8.564
 1218POPC   C2B18344   9.577  39.883   8.264
 1218POPC   C3B18345   9.532  39.844   7.964
 1218POPC   C4B18346   9.494  39.919   7.664
 1219POPC   NC318347  21.431  28.413   9.464
 1219POPC   PO418348  21.408  28.332   9.164
 1219POPC   GL118349  21.373  28.323   8.864
 1219POPC   GL218350  21.521  28.406   8.864
 1219POPC   C1A18351  21.408  28.352   8.564
 1219POPC   D2A18352  21.406  28.357   8.264
 1219POPC   C3A18353  21.434  28.375   7.964
 1219POPC   C4A18354  21.406  28.394   7.664
 1219POPC   C1B18355  21.682  28.419   8.564
 1219POPC   C2B18356  21.624  28.384   8.264
 1219POPC   C3B18357  21.616  28.428   7.964
 1219POPC   C4B18358  21.615  28.391   7.664
 1220POPC   NC318359   6.633  29.906   9.464
 1220POPC   PO418360   6.638  29.895   9.164
 1220POPC   GL118361   6.689  29.876   8.864
 1220POPC   GL218362   6.777  29.894   8.864
 1220POPC   C1A18363   6.597  29.951   8.564
 1220POPC   D2A18364   6.659  29.930   8.264
 1220POPC   C3A18365   6.666  29.955   7.964
 1220POPC   C4A18366   6.599  29.900   7.664
 1220POPC   C1B18367   6.881  29.858   8.564
 1220POPC   C2B18368   6.849  29.900   8.264
 1220POPC   C3B18369   6.909  29.806   7.964
 1220POPC   C4B18370   6.919  29.899   7.664
 1221POPC   NC318371  16.766  35.374   9.464
 1221POPC   PO418372  16.694  35.391   9.164
 1221POPC   GL118373  16.764  35.347   8.864
 1221POPC   GL218374  16.811  35.317   8.864
 1221POPC   C1A18375  16.702  35.376   8.564
 1221POPC   D2A18376  16.691  35.358   8.264
 1221POPC   C3A18377  16.726  35.346   7.964
 1221POPC   C4A18378  16.753  35.304   7.664
 1221POPC   C1B18379  16.971  35.333   8.564
 1221POPC   C2B18380  17.014  35.288   8.264
 1221POPC   C3B18381  16.950  35.267   7.964
 1221POPC   C4B18382  16.974  35.273   7.664
 1222POPC   NC318383  26.826  38.427   9.464
 1222POPC   PO418384  26.837  38.419   9.164
 1222POPC   GL118385  26.777  38.414   8.864
 1222POPC   GL218386  26.849  38.345   8.864
 1222POPC   C1A18387  26.842  38.423   8.564
 1222POPC   D2A18388  26.810  38.482   8.264
 1222POPC   C3A18389  26.835  38.461   7.964
 1222POPC   C4A18390  26.795  38.471   7.664
 1222POPC   C1B18391  26.974  38.197   8.564
 1222POPC   C2B18392  26.939  38.223   8.264
 1222POPC   C3B18393  26.936  38.266   7.964
 1222POPC   C4B18394  26.944  38.253   7.664
 1223POPC   NC318395  35.317  31.485   9.464
 1223POPC   PO418396  35.368  31.445   9.164
 1223POPC   GL118397  35.363  31.429   8.864
 1223POPC   GL218398  35.326  31.334   8.864
 1223POPC   C1A18399  35.325  31.457   8.564
 1223POPC   D2A18400  35.348  31.454   8.264
 1223POPC   C3A18401  35.313  31.484   7.964
 1223POPC   C4A18402  35.380  31.440   7.664
 1223POPC   C1B18403  35.227  31.201   8.564
 1223POPC   C2B18404  35.285  31.213   8.264
 1223POPC   C3B18405  35.316  31.192   7.964
 1223POPC   C4B18406  35.241  31.233   7.664
 1224POPC   NC318407  24.443  42.348   9.464
 1224POPC   PO418408  24.493  42.328   9.164
 1224POPC   GL118409  24.504  42.294   8.864
 1224POPC   GL218410  24.384  42.208   8.864
 1224POPC   C1A18411  24.464  42.328   8.564
 1224POPC   D2A18412  24.462  42.292   8.264
 1224POPC   C3A18413  24.537  42.347   7.964
 1224POPC   C4A18414  24.520  42.310   7.664
 1224POPC   C1B18415  24.324  42.154   8.564
 1224POPC   C2B18416  24.300  42.177   8.264
 1224POPC   C3B18417  24.329  42.147   7.964
 1224POPC   C4B18418  24.281  42.129   7.664
 1225POPC   NC318419  44.660  13.620   9.464
 1225POPC   PO418420  44.684  13.658   9.164
 1225POPC   GL118421  44.705  13.619   8.864
 1225POPC   GL218422  44.551  13.725   8.864
 1225POPC   C1A18423  44.653  13.661   8.564
 1225POPC   D2A18424  44.702  13.674   8.264
 1225POPC   C3A18425  44.685  13.579   7.964
 1225POPC   C4A18426  44.627  13.627   7.664
 1225POPC   C1B18427  44.543  13.795   8.564
 1225POPC   C2B18428  44.559  13.794   8.264
 1225POPC   C3B18429  44.562  13.872   7.964
 1225POPC   C4B18430  44.555  13.863   7.664
 1226POPC   NC318431   4.276   0.405   9.464
 1226POPC   PO418432   4.311   0.481   9.164
 1226POPC   GL118433   4.354   0.424   8.864
 1226POPC   GL218434   4.350   0.552   8.864
 1226POPC   C1A18435   4.364   0.412   8.564
 1226POPC   D2A18436   4.292   0.396   8.264
 1226POPC   C3A18437   4.311   0.456   7.964
 1226POPC   C4A18438   4.324   0.454   7.664
 1226POPC   C1B18439   4.398   0.717   8.564
 1226POPC   C2B18440   4.355   0.726   8.264
 1226POPC   C3B18441   4.398   0.637   7.964
 1226POPC   C4B18442   4.357   0.650   7.664
 1227POPC   NC318443  25.257  17.526   9.464
 1227POPC   PO418444  25.264  17.526   9.164
 1227POPC   GL118445  25.249  17.493   8.864
 1227POPC   GL218446  25.275  17.613   8.864
 1227POPC   C1A18447  25.233  17.529   8.564
 1227POPC   D2A18448  25.253  17.494   8.264
 1227POPC   C3A18449  25.242  17.462   7.964
 1227POPC   C4A18450  25.311  17.557   7.664
 1227POPC   C1B18451  25.282  17.743   8.564
 1227POPC   C2B18452  25.263  17.727   8.264
 1227POPC   C3B18453  25.252  17.730   7.964
 1227POPC   C4B18454  25.297  17.739   7.664
 1228POPC   NC318455  23.735   2.723   9.464
 1228POPC   PO418456  23.679   2.717   9.164
 1228POPC   GL118457  23.675   2.783   8.864
 1228POPC   GL218458  23.561   2.682   8.864
 1228POPC   C1A18459  23.716   2.797   8.564
 1228POPC   D2A18460  23.749   2.771   8.264
 1228POPC   C3A18461  23.736   2.740   7.964
 1228POPC   C4A18462  23.747   2.734   7.664
 1228POPC   C1B18463  23.488   2.640   8.564
 1228POPC   C2B18464  23.523   2.696   8.264
 1228POPC   C3B18465  23.521   2.666   7.964
 1228POPC   C4B18466  23.438   2.621   7.664
 1229POPC   NC318467  21.417  41.553   9.464
 1229POPC   PO418468  21.370  41.589   9.164
 1229POPC   GL118469  21.387  41.585   8.864
 1229POPC   GL218470  21.308  41.477   8.864
 1229POPC   C1A18471  21.396  41.573   8.564
 1229POPC   D2A18472  21.398  41.587   8.264
 1229POPC   C3A18473  21.391  41.563   7.964
 1229POPC   C4A18474  21.432  41.519   7.664
 1229POPC   C1B18475  21.195  41.308   8.564
 1229POPC   C2B18476  21.260  41.351   8.264
 1229POPC   C3B18477  21.202  41.344   7.964
 1229POPC   C4B18478  21.228  41.335   7.664
 1230POPC   NC318479  19.027  43.149   9.464
 1230POPC   PO418480  19.046  43.145   9.164
 1230POPC   GL118481  19.104  43.072   8.864
 1230POPC   GL218482  19.153  43.167   8.864
 1230POPC   C1A18483  19.027  43.105   8.564
 1230POPC   D2A18484  19.046  43.135   8.264
 1230POPC   C3A18485  19.027  43.081   7.964
 1230POPC   C4A18486  19.087  43.090   7.664
 1230POPC   C1B18487  19.196  43.247   8.564
 1230POPC   C2B18488  19.290  43.251   8.264
 1230POPC   C3B18489  19.199  43.243   7.964
 1230POPC   C4B18490  19.246  43.304   7.664
 1231POPC   NC318491  27.574  15.207   9.464
 1231POPC   PO418492  27.555  15.196   9.164
 1231POPC   GL118493  27.629  15.213   8.864
 1231POPC   GL218494  27.760  15.174   8.864
 1231POPC   C1A18495  27.601  15.199   8.564
 1231POPC   D2A18496  27.575  15.206   8.264
 1231POPC   C3A18497  27.641  15.140   7.964
 1231POPC   C4A18498  27.618  15.173   7.664
 1231POPC   C1B18499  27.873  15.260   8.564
 1231POPC   C2B18500  27.820  15.218   8.264
 1231POPC   C3B18501  27.813  15.203   7.964
 1231POPC   C4B18502  27.814  15.234   7.664
 1232POPC   NC318503  43.927  22.888   9.464
 1232POPC   PO418504  43.882  22.967   9.164
 1232POPC   GL118505  43.866  22.895   8.864
 1232POPC   GL218506  43.778  22.846   8.864
 1232POPC   C1A18507  43.857  22.912   8.564
 1232POPC   D2A18508  43.840  22.888   8.264
 1232POPC   C3A18509  43.875  22.896   7.964
 1232POPC   C4A18510  43.895  22.893   7.664
 1232POPC   C1B18511  43.650  22.732   8.564
 1232POPC   C2B18512  43.686  22.782   8.264
 1232POPC   C3B18513  43.642  22.736   7.964
 1232POPC   C4B18514  43.692  22.830   7.664
 1233POPC   NC318515   6.671   5.901   9.464
 1233POPC   PO418516   6.666   5.820   9.164
 1233POPC   GL118517   6.679   5.838   8.864
 1233POPC   GL218518   6.576   5.833   8.864
 1233POPC   C1A18519   6.655   5.873   8.564
 1233POPC   D2A18520   6.658   5.891   8.264
 1233POPC   C3A18521   6.663   5.831   7.964
 1233POPC   C4A18522   6.645   5.902   7.664
 1233POPC   C1B18523   6.499   5.709   8.564
 1233POPC   C2B18524   6.436   5.750   8.264
 1233POPC   C3B18525   6.401   5.745   7.964
 1233POPC   C4B18526   6.416   5.695   7.664
 1234POPC   NC318527  32.233  15.147   9.464
 1234POPC   PO418528  32.240  15.171   9.164
 1234POPC   GL118529  32.253  15.175   8.864
 1234POPC   GL218530  32.113  15.264   8.864
 1234POPC   C1A18531  32.211  15.219   8.564
 1234POPC   D2A18532  32.267  15.193   8.264
 1234POPC   C3A18533  32.234  15.229   7.964
 1234POPC   C4A18534  32.224  15.155   7.664
 1234POPC   C1B18535  32.058  15.305   8.564
 1234POPC   C2B18536  32.098  15.397   8.264
 1234POPC   C3B18537  32.113  15.375   7.964
 1234POPC   C4B18538  32.033  15.369   7.664
 1235POPC   NC318539  36.947  26.780   9.464
 1235POPC   PO418540  36.912  26.823   9.164
 1235POPC   GL118541  36.887  26.800   8.864
 1235POPC   GL218542  36.950  26.940   8.864
 1235POPC   C1A18543  36.879  26.818   8.564
 1235POPC   D2A18544  36.861  26.829   8.264
 1235POPC   C3A18545  36.902  26.807   7.964
 1235POPC   C4A18546  36.917  26.859   7.664
 1235POPC   C1B18547  37.104  27.030   8.564
 1235POPC   C2B18548  37.125  26.938   8.264
 1235POPC   C3B18549  37.108  27.024   7.964
 1235POPC   C4B18550  37.107  26.983   7.664
 1236POPC   NC318551  39.225   3.496   9.464
 1236POPC   PO418552  39.233   3.534   9.164
 1236POPC   GL118553  39.248   3.542   8.864
 1236POPC   GL218554  39.151   3.662   8.864
 1236POPC   C1A18555  39.278   3.517   8.564
 1236POPC   D2A18556  39.211   3.569   8.264
 1236POPC   C3A18557  39.246   3.582   7.964
 1236POPC   C4A18558  39.197   3.534   7.664
 1236POPC   C1B18559  39.091   3.725   8.564
 1236POPC   C2B18560  39.148   3.762   8.264
 1236POPC   C3B18561  39.156   3.782   7.964
 1236POPC   C4B18562  39.120   3.762   7.664
 1237POPC   NC318563  26.034  37.664   9.464
 1237POPC   PO418564  26.071  37.661   9.164
 1237POPC   GL118565  26.063  37.655   8.864
 1237POPC   GL218566  25.983  37.756   8.864
 1237POPC   C1A18567  26.070  37.667   8.564
 1237POPC   D2A18568  26.001  37.662   8.264
 1237POPC   C3A18569  26.013  37.710   7.964
 1237POPC   C4A18570  26.035  37.718   7.664
 1237POPC   C1B18571  26.028  37.879   8.564
 1237POPC   C2B18572  25.968  37.972   8.264
 1237POPC   C3B18573  25.991  37.929   7.964
 1237POPC   C4B18574  25.984  37.896   7.664
 1238POPC   NC318575  35.341  43.101   9.464
 1238POPC   PO418576  35.318  43.110   9.164
 1238POPC   GL118577  35.366  43.109   8.864
 1238POPC   GL218578  35.218  43.095   8.864
 1238POPC   C1A18579  35.379  43.072   8.564
 1238POPC   D2A18580  35.316  43.092   8.264
 1238POPC   C3A18581  35.400  43.067   7.964
 1238POPC   C4A18582  35.372  43.131   7.664
 1238POPC   C1B18583  35.094  43.169   8.564
 1238POPC   C2B18584  35.115  43.162   8.264
 1238POPC   C3B18585  35.124  43.195   7.964
 1238POPC   C4B18586  35.083  43.108   7.664
 1239POPC   NC318587  15.226  37.649   9.464
 1239POPC   PO418588  15.148  37.665   9.164
 1239POPC   GL118589  15.136  37.664   8.864
 1239POPC   GL218590  15.166  37.540   8.864
 1239POPC   C1A18591  15.207  37.670   8.564
 1239POPC   D2A18592  15.186  37.655   8.264
 1239POPC   C3A18593  15.131  37.681   7.964
 1239POPC   C4A18594  15.142  37.666   7.664
 1239POPC   C1B18595  15.256  37.431   8.564
 1239POPC   C2B18596  15.238  37.389   8.264
 1239POPC   C3B18597  15.231  37.386   7.964
 1239POPC   C4B18598  15.195  37.390   7.664
 1240POPC   NC318599  12.866  40.799   9.464
 1240POPC   PO418600  12.813  40.803   9.164
 1240POPC   GL118601  12.850  40.738   8.864
 1240POPC   GL218602  12.791  40.874   8.864
 1240POPC   C1A18603  12.901  40.763   8.564
 1240POPC   D2A18604  12.877  40.805   8.264
 1240POPC   C3A18605  12.896  40.770   7.964
 1240POPC   C4A18606  12.840  40.830   7.664
 1240POPC   C1B18607  12.783  40.983   8.564
 1240POPC   C2B18608  12.793  40.983   8.264
 1240POPC   C3B18609  12.852  41.013   7.964
 1240POPC   C4B18610  12.793  41.049   7.664
 1241POPC   NC318611  21.338   0.419   9.464
 1241POPC   PO418612  21.370   0.440   9.164
 1241POPC   GL118613  21.410   0.439   8.864
 1241POPC   GL218614  21.471   0.462   8.864
 1241POPC   C1A18615  21.357   0.466   8.564
 1241POPC   D2A18616  21.354   0.409   8.264
 1241POPC   C3A18617  21.386   0.442   7.964
 1241POPC   C4A18618  21.403   0.463   7.664
 1241POPC   C1B18619  21.588   0.474   8.564
 1241POPC   C2B18620  21.683   0.427   8.264
 1241POPC   C3B18621  21.653   0.453   7.964
 1241POPC   C4B18622  21.660   0.483   7.664
 1242POPC   NC318623   5.132  15.963   9.464
 1242POPC   PO418624   5.065  15.944   9.164
 1242POPC   GL118625   5.141  15.955   8.864
 1242POPC   GL218626   5.030  16.037   8.864
 1242POPC   C1A18627   5.083  16.005   8.564
 1242POPC   D2A18628   5.103  15.927   8.264
 1242POPC   C3A18629   5.134  15.960   7.964
 1242POPC   C4A18630   5.095  15.928   7.664
 1242POPC   C1B18631   4.921  16.111   8.564
 1242POPC   C2B18632   4.871  16.183   8.264
 1242POPC   C3B18633   4.958  16.130   7.964
 1242POPC   C4B18634   4.871  16.152   7.664
 1243POPC   NC318635  19.061  32.984   9.464
 1243POPC   PO418636  19.011  33.071   9.164
 1243POPC   GL118637  19.049  33.024   8.864
 1243POPC   GL218638  19.135  33.046   8.864
 1243POPC   C1A18639  19.049  32.982   8.564
 1243POPC   D2A18640  19.050  33.021   8.264
 1243POPC   C3A18641  19.084  33.010   7.964
 1243POPC   C4A18642  19.096  33.013   7.664
 1243POPC   C1B18643  19.303  33.069   8.564
 1243POPC   C2B18644  19.338  32.986   8.264
 1243POPC   C3B18645  19.312  33.064   7.964
 1243POPC   C4B18646  19.290  33.021   7.664
 1244POPC   NC318647  36.108  27.636   9.464
 1244POPC   PO418648  36.158  27.551   9.164
 1244POPC   GL118649  36.125  27.611   8.864
 1244POPC   GL218650  36.263  27.513   8.864
 1244POPC   C1A18651  36.084  27.586   8.564
 1244POPC   D2A18652  36.136  27.569   8.264
 1244POPC   C3A18653  36.112  27.634   7.964
 1244POPC   C4A18654  36.129  27.619   7.664
 1244POPC   C1B18655  36.279  27.478   8.564
 1244POPC   C2B18656  36.331  27.448   8.264
 1244POPC   C3B18657  36.312  27.490   7.964
 1244POPC   C4B18658  36.371  27.410   7.664
 1245POPC   NC318659  33.024   1.974   9.464
 1245POPC   PO418660  33.038   2.024   9.164
 1245POPC   GL118661  32.994   2.011   8.864
 1245POPC   GL218662  32.964   1.834   8.864
 1245POPC   C1A18663  33.001   1.963   8.564
 1245POPC   D2A18664  32.990   2.000   8.264
 1245POPC   C3A18665  33.023   2.034   7.964
 1245POPC   C4A18666  33.016   1.966   7.664
 1245POPC   C1B18667  32.885   1.792   8.564
 1245POPC   C2B18668  32.891   1.712   8.264
 1245POPC   C3B18669  32.941   1.713   7.964
 1245POPC   C4B18670  32.974   1.789   7.664
 1246POPC   NC318671   8.167  18.249   9.464
 1246POPC   PO418672   8.176  18.243   9.164
 1246POPC   GL118673   8.186  18.306   8.864
 1246POPC   GL218674   8.067  18.315   8.864
 1246POPC   C1A18675   8.217  18.283   8.564
 1246POPC   D2A18676   8.201  18.255   8.264
 1246POPC   C3A18677   8.201  18.264   7.964
 1246POPC   C4A18678   8.227  18.290   7.664
 1246POPC   C1B18679   8.004  18.344   8.564
 1246POPC   C2B18680   7.915  18.363   8.264
 1246POPC   C3B18681   8.004  18.332   7.964
 1246POPC   C4B18682   7.975  18.342   7.664
 1247POPC   NC318683   8.244  23.723   9.464
 1247POPC   PO418684   8.207  23.670   9.164
 1247POPC   GL118685   8.194  23.690   8.864
 1247POPC   GL218686   8.073  23.794   8.864
 1247POPC   C1A18687   8.157  23.690   8.564
 1247POPC   D2A18688   8.213  23.675   8.264
 1247POPC   C3A18689   8.193  23.732   7.964
 1247POPC   C4A18690   8.222  23.702   7.664
 1247POPC   C1B18691   8.011  23.829   8.564
 1247POPC   C2B18692   8.005  23.865   8.264
 1247POPC   C3B18693   8.010  23.865   7.964
 1247POPC   C4B18694   7.946  23.802   7.664
 1248POPC   NC318695   5.900   5.092   9.464
 1248POPC   PO418696   5.841   5.089   9.164
 1248POPC   GL118697   5.861   5.071   8.864
 1248POPC   GL218698   5.990   5.137   8.864
 1248POPC   C1A18699   5.884   5.101   8.564
 1248POPC   D2A18700   5.885   5.057   8.264
 1248POPC   C3A18701   5.870   5.112   7.964
 1248POPC   C4A18702   5.819   5.122   7.664
 1248POPC   C1B18703   6.035   5.222   8.564
 1248POPC   C2B18704   6.057   5.289   8.264
 1248POPC   C3B18705   6.114   5.292   7.964
 1248POPC   C4B18706   6.055   5.203   7.664
 1249POPC   NC318707  44.638   1.185   9.464
 1249POPC   PO418708  44.657   1.227   9.164
 1249POPC   GL118709  44.624   1.230   8.864
 1249POPC   GL218710  44.574   1.281   8.864
 1249POPC   C1A18711  44.679   1.173   8.564
 1249POPC   D2A18712  44.662   1.213   8.264
 1249POPC   C3A18713  44.614   1.200   7.964
 1249POPC   C4A18714  44.642   1.201   7.664
 1249POPC   C1B18715  44.388   1.225   8.564
 1249POPC   C2B18716  44.443   1.259   8.264
 1249POPC   C3B18717  44.412   1.311   7.964
 1249POPC   C4B18718  44.382   1.254   7.664
 1250POPC   NC318719   8.196  31.431   9.464
 1250POPC   PO418720   8.173  31.457   9.164
 1250POPC   GL118721   8.174  31.481   8.864
 1250POPC   GL218722   8.098  31.533   8.864
 1250POPC   C1A18723   8.217  31.492   8.564
 1250POPC   D2A18724   8.228  31.480   8.264
 1250POPC   C3A18725   8.235  31.521   7.964
 1250POPC   C4A18726   8.188  31.437   7.664
 1250POPC   C1B18727   7.944  31.497   8.564
 1250POPC   C2B18728   7.998  31.563   8.264
 1250POPC   C3B18729   7.914  31.543   7.964
 1250POPC   C4B18730   7.938  31.508   7.664
 1251POPC   NC318731  22.194   5.868   9.464
 1251POPC   PO418732  22.114   5.883   9.164
 1251POPC   GL118733  22.136   5.828   8.864
 1251POPC   GL218734  22.078   5.833   8.864
 1251POPC   C1A18735  22.116   5.895   8.564
 1251POPC   D2A18736  22.170   5.842   8.264
 1251POPC   C3A18737  22.164   5.898   7.964
 1251POPC   C4A18738  22.197   5.912   7.664
 1251POPC   C1B18739  21.926   5.736   8.564
 1251POPC   C2B18740  21.944   5.746   8.264
 1251POPC   C3B18741  21.948   5.713   7.964
 1251POPC   C4B18742  21.984   5.766   7.664
 1252POPC   NC318743  19.883   2.736   9.464
 1252POPC   PO418744  19.804   2.801   9.164
 1252POPC   GL118745  19.875   2.738   8.864
 1252POPC   GL218746  19.903   2.858   8.864
 1252POPC   C1A18747  19.862   2.759   8.564
 1252POPC   D2A18748  19.815   2.736   8.264
 1252POPC   C3A18749  19.810   2.801   7.964
 1252POPC   C4A18750  19.786   2.783   7.664
 1252POPC   C1B18751  20.001   2.976   8.564
 1252POPC   C2B18752  19.975   2.951   8.264
 1252POPC   C3B18753  20.030   2.907   7.964
 1252POPC   C4B18754  20.038   2.985   7.664
 1253POPC   NC318755  21.362  31.497   9.464
 1253POPC   PO418756  21.373  31.495   9.164
 1253POPC   GL118757  21.339  31.467   8.864
 1253POPC   GL218758  21.404  31.388   8.864
 1253POPC   C1A18759  21.380  31.447   8.564
 1253POPC   D2A18760  21.386  31.427   8.264
 1253POPC   C3A18761  21.361  31.435   7.964
 1253POPC   C4A18762  21.426  31.433   7.664
 1253POPC   C1B18763  21.483  31.224   8.564
 1253POPC   C2B18764  21.435  31.229   8.264
 1253POPC   C3B18765  21.427  31.257   7.964
 1253POPC   C4B18766  21.412  31.225   7.664
 1254POPC   NC318767  27.581  25.240   9.464
 1254POPC   PO418768  27.588  25.245   9.164
 1254POPC   GL118769  27.565  25.313   8.864
 1254POPC   GL218770  27.606  25.385   8.864
 1254POPC   C1A18771  27.592  25.226   8.564
 1254POPC   D2A18772  27.588  25.276   8.264
 1254POPC   C3A18773  27.614  25.261   7.964
 1254POPC   C4A18774  27.620  25.301   7.664
 1254POPC   C1B18775  27.624  25.496   8.564
 1254POPC   C2B18776  27.627  25.495   8.264
 1254POPC   C3B18777  27.594  25.533   7.964
 1254POPC   C4B18778  27.609  25.515   7.664
 1255POPC   NC318779  29.955  22.965   9.464
 1255POPC   PO418780  29.963  22.903   9.164
 1255POPC   GL118781  29.930  22.900   8.864
 1255POPC   GL218782  29.964  23.038   8.864
 1255POPC   C1A18783  29.881  22.900   8.564
 1255POPC   D2A18784  29.932  22.910   8.264
 1255POPC   C3A18785  29.889  22.899   7.964
 1255POPC   C4A18786  29.881  22.927   7.664
 1255POPC   C1B18787  29.973  23.218   8.564
 1255POPC   C2B18788  29.958  23.229   8.264
 1255POPC   C3B18789  29.973  23.160   7.964
 1255POPC   C4B18790  29.912  23.179   7.664
 1256POPC   NC318791  11.287  43.850   9.464
 1256POPC   PO418792  11.313  43.925   9.164
 1256POPC   GL118793  11.262  43.931   8.864
 1256POPC   GL218794  11.186  43.978   8.864
 1256POPC   C1A18795  11.294  43.898   8.564
 1256POPC   D2A18796  11.266  43.867   8.264
 1256POPC   C3A18797  11.348  43.881   7.964
 1256POPC   C4A18798  11.287  43.883   7.664
 1256POPC   C1B18799  11.079  44.084   8.564
 1256POPC   C2B18800  11.084  44.001   8.264
 1256POPC   C3B18801  11.140  44.062   7.964
 1256POPC   C4B18802  11.074  44.073   7.664
 1257POPC   NC318803   6.642  22.944   9.464
 1257POPC   PO418804   6.656  22.920   9.164
 1257POPC   GL118805   6.629  22.971   8.864
 1257POPC   GL218806   6.632  23.029   8.864
 1257POPC   C1A18807   6.639  22.938   8.564
 1257POPC   D2A18808   6.615  22.943   8.264
 1257POPC   C3A18809   6.634  22.908   7.964
 1257POPC   C4A18810   6.642  22.957   7.664
 1257POPC   C1B18811   6.529  23.175   8.564
 1257POPC   C2B18812   6.524  23.140   8.264
 1257POPC   C3B18813   6.527  23.198   7.964
 1257POPC   C4B18814   6.522  23.142   7.664
 1258POPC   NC318815  39.190  32.286   9.464
 1258POPC   PO418816  39.263  32.250   9.164
 1258POPC   GL118817  39.192  32.236   8.864
 1258POPC   GL218818  39.347  32.186   8.864
 1258POPC   C1A18819  39.204  32.203   8.564
 1258POPC   D2A18820  39.210  32.256   8.264
 1258POPC   C3A18821  39.265  32.267   7.964
 1258POPC   C4A18822  39.201  32.224   7.664
 1258POPC   C1B18823  39.447  32.228   8.564
 1258POPC   C2B18824  39.482  32.166   8.264
 1258POPC   C3B18825  39.525  32.181   7.964
 1258POPC   C4B18826  39.439  32.182   7.664
 1259POPC   NC318827  27.632  36.083   9.464
 1259POPC   PO418828  27.579  36.142   9.164
 1259POPC   GL118829  27.581  36.101   8.864
 1259POPC   GL218830  27.572  36.000   8.864
 1259POPC   C1A18831  27.579  36.133   8.564
 1259POPC   D2A18832  27.574  36.134   8.264
 1259POPC   C3A18833  27.554  36.087   7.964
 1259POPC   C4A18834  27.615  36.158   7.664
 1259POPC   C1B18835  27.509  35.881   8.564
 1259POPC   C2B18836  27.527  35.921   8.264
 1259POPC   C3B18837  27.558  35.914   7.964
 1259POPC   C4B18838  27.500  35.888   7.664
 1260POPC   NC318839   5.138  32.236   9.464
 1260POPC   PO418840   5.055  32.292   9.164
 1260POPC   GL118841   5.047  32.203   8.864
 1260POPC   GL218842   5.121  32.116   8.864
 1260POPC   C1A18843   5.123  32.230   8.564
 1260POPC   D2A18844   5.092  32.271   8.264
 1260POPC   C3A18845   5.102  32.269   7.964
 1260POPC   C4A18846   5.143  32.213   7.664
 1260POPC   C1B18847   5.188  32.009   8.564
 1260POPC   C2B18848   5.158  32.017   8.264
 1260POPC   C3B18849   5.157  32.000   7.964
 1260POPC   C4B18850   5.184  32.064   7.664
 1261POPC   NC318851  22.949  12.818   9.464
 1261POPC   PO418852  22.945  12.895   9.164
 1261POPC   GL118853  22.968  12.898   8.864
 1261POPC   GL218854  22.813  12.830   8.864
 1261POPC   C1A18855  22.896  12.890   8.564
 1261POPC   D2A18856  22.909  12.878   8.264
 1261POPC   C3A18857  22.978  12.897   7.964
 1261POPC   C4A18858  22.903  12.845   7.664
 1261POPC   C1B18859  22.708  12.790   8.564
 1261POPC   C2B18860  22.640  12.785   8.264
 1261POPC   C3B18861  22.723  12.852   7.964
 1261POPC   C4B18862  22.739  12.787   7.664
 1262POPC   NC318863  31.470  44.694   9.464
 1262POPC   PO418864  31.507  44.665   9.164
 1262POPC   GL118865  31.423  44.652   8.864
 1262POPC   GL218866  31.348  44.774   8.864
 1262POPC   C1A18867  31.487  44.699   8.564
 1262POPC   D2A18868  31.513  44.666   8.264
 1262POPC   C3A18869  31.444  44.645   7.964
 1262POPC   C4A18870  31.463  44.618   7.664
 1262POPC   C1B18871  31.252  44.788   8.564
 1262POPC   C2B18872  31.296  44.850   8.264
 1262POPC   C3B18873  31.225  44.823   7.964
 1262POPC   C4B18874  31.245  44.789   7.664
 1263POPC   NC318875   7.460  11.318   9.464
 1263POPC   PO418876   7.427  11.320   9.164
 1263POPC   GL118877   7.401  11.307   8.864
 1263POPC   GL218878   7.560  11.264   8.864
 1263POPC   C1A18879   7.383  11.296   8.564
 1263POPC   D2A18880   7.460  11.297   8.264
 1263POPC   C3A18881   7.466  11.253   7.964
 1263POPC   C4A18882   7.434  11.273   7.664
 1263POPC   C1B18883   7.628  11.182   8.564
 1263POPC   C2B18884   7.629  11.169   8.264
 1263POPC   C3B18885   7.622  11.154   7.964
 1263POPC   C4B18886   7.634  11.179   7.664
 1264POPC   NC318887  28.358  21.399   9.464
 1264POPC   PO418888  28.363  21.351   9.164
 1264POPC   GL118889  28.344  21.398   8.864
 1264POPC   GL218890  28.476  21.415   8.864
 1264POPC   C1A18891  28.365  21.351   8.564
 1264POPC   D2A18892  28.330  21.418   8.264
 1264POPC   C3A18893  28.366  21.349   7.964
 1264POPC   C4A18894  28.418  21.345   7.664
 1264POPC   C1B18895  28.612  21.488   8.564
 1264POPC   C2B18896  28.649  21.437   8.264
 1264POPC   C3B18897  28.589  21.505   7.964
 1264POPC   C4B18898  28.609  21.433   7.664
 1265POPC   NC318899  29.097  17.515   9.464
 1265POPC   PO418900  29.149  17.483   9.164
 1265POPC   GL118901  29.097  17.502   8.864
 1265POPC   GL218902  28.999  17.429   8.864
 1265POPC   C1A18903  29.162  17.543   8.564
 1265POPC   D2A18904  29.112  17.519   8.264
 1265POPC   C3A18905  29.100  17.460   7.964
 1265POPC   C4A18906  29.145  17.522   7.664
 1265POPC   C1B18907  28.927  17.362   8.564
 1265POPC   C2B18908  28.937  17.376   8.264
 1265POPC   C3B18909  28.978  17.384   7.964
 1265POPC   C4B18910  28.968  17.317   7.664
 1266POPC   NC318911  44.677  14.368   9.464
 1266POPC   PO418912  44.649  14.394   9.164
 1266POPC   GL118913  44.645  14.409   8.864
 1266POPC   GL218914  44.734  14.358   8.864
 1266POPC   C1A18915  44.621  14.416   8.564
 1266POPC   D2A18916  44.682  14.433   8.264
 1266POPC   C3A18917  44.619  14.390   7.964
 1266POPC   C4A18918  44.654  14.442   7.664
 1266POPC   C1B18919  44.841  14.242   8.564
 1266POPC   C2B18920  44.848  14.183   8.264
 1266POPC   C3B18921  44.830  14.208   7.964
 1266POPC   C4B18922  44.819  14.257   7.664
 1267POPC   NC318923  25.265  13.623   9.464
 1267POPC   PO418924  25.253  13.603   9.164
 1267POPC   GL118925  25.295  13.662   8.864
 1267POPC   GL218926  25.347  13.731   8.864
 1267POPC   C1A18927  25.291  13.616   8.564
 1267POPC   D2A18928  25.306  13.646   8.264
 1267POPC   C3A18929  25.236  13.597   7.964
 1267POPC   C4A18930  25.303  13.631   7.664
 1267POPC   C1B18931  25.498  13.747   8.564
 1267POPC   C2B18932  25.476  13.747   8.264
 1267POPC   C3B18933  25.430  13.820   7.964
 1267POPC   C4B18934  25.430  13.779   7.664
 1268POPC   NC318935  12.043  29.917   9.464
 1268POPC   PO418936  12.028  29.949   9.164
 1268POPC   GL118937  12.054  29.895   8.864
 1268POPC   GL218938  12.113  29.838   8.864
 1268POPC   C1A18939  12.084  29.909   8.564
 1268POPC   D2A18940  12.063  29.914   8.264
 1268POPC   C3A18941  12.045  29.955   7.964
 1268POPC   C4A18942  12.071  29.967   7.664
 1268POPC   C1B18943  12.256  29.727   8.564
 1268POPC   C2B18944  12.234  29.751   8.264
 1268POPC   C3B18945  12.263  29.693   7.964
 1268POPC   C4B18946  12.185  29.705   7.664
 1269POPC   NC318947  32.992  41.579   9.464
 1269POPC   PO418948  33.014  41.593   9.164
 1269POPC   GL118949  32.994  41.518   8.864
 1269POPC   GL218950  33.057  41.625   8.864
 1269POPC   C1A18951  33.023  41.532   8.564
 1269POPC   D2A18952  33.009  41.603   8.264
 1269POPC   C3A18953  32.986  41.515   7.964
 1269POPC   C4A18954  33.014  41.592   7.664
 1269POPC   C1B18955  33.160  41.738   8.564
 1269POPC   C2B18956  33.163  41.775   8.264
 1269POPC   C3B18957  33.170  41.707   7.964
 1269POPC   C4B18958  33.211  41.740   7.664
 1270POPC   NC318959  24.445  34.599   9.464
 1270POPC   PO418960  24.506  34.535   9.164
 1270POPC   GL118961  24.525  34.542   8.864
 1270POPC   GL218962  24.511  34.726   8.864
 1270POPC   C1A18963  24.516  34.563   8.564
 1270POPC   D2A18964  24.482  34.565   8.264
 1270POPC   C3A18965  24.475  34.582   7.964
 1270POPC   C4A18966  24.494  34.623   7.664
 1270POPC   C1B18967  24.642  34.750   8.564
 1270POPC   C2B18968  24.660  34.773   8.264
 1270POPC   C3B18969  24.666  34.807   7.964
 1270POPC   C4B18970  24.628  34.757   7.664
 1271POPC   NC318971   1.974  22.120   9.464
 1271POPC   PO418972   1.972  22.167   9.164
 1271POPC   GL118973   1.979  22.200   8.864
 1271POPC   GL218974   1.862  22.210   8.864
 1271POPC   C1A18975   2.001  22.168   8.564
 1271POPC   D2A18976   2.025  22.181   8.264
 1271POPC   C3A18977   1.993  22.182   7.964
 1271POPC   C4A18978   1.953  22.195   7.664
 1271POPC   C1B18979   1.768  22.322   8.564
 1271POPC   C2B18980   1.773  22.266   8.264
 1271POPC   C3B18981   1.743  22.351   7.964
 1271POPC   C4B18982   1.764  22.350   7.664
 1272POPC   NC318983  40.761  12.121   9.464
 1272POPC   PO418984  40.740  12.107   9.164
 1272POPC   GL118985  40.778  12.079   8.864
 1272POPC   GL218986  40.819  12.148   8.864
 1272POPC   C1A18987  40.804  12.064   8.564
 1272POPC   D2A18988  40.733  12.086   8.264
 1272POPC   C3A18989  40.759  12.123   7.964
 1272POPC   C4A18990  40.761  12.042   7.664
 1272POPC   C1B18991  40.911  12.302   8.564
 1272POPC   C2B18992  40.931  12.223   8.264
 1272POPC   C3B18993  40.950  12.242   7.964
 1272POPC   C4B18994  40.974  12.243   7.664
 1273POPC   NC318995  12.832  35.354   9.464
 1273POPC   PO418996  12.871  35.308   9.164
 1273POPC   GL118997  12.871  35.372   8.864
 1273POPC   GL218998  12.770  35.393   8.864
 1273POPC   C1A18999  12.820  35.353   8.564
 1273POPC   D2A19000  12.891  35.315   8.264
 1273POPC   C3A19001  12.818  35.391   7.964
 1273POPC   C4A19002  12.868  35.343   7.664
 1273POPC   C1B19003  12.591  35.462   8.564
 1273POPC   C2B19004  12.605  35.506   8.264
 1273POPC   C3B19005  12.626  35.498   7.964
 1273POPC   C4B19006  12.620  35.443   7.664
 1274POPC   NC319007  10.516   8.246   9.464
 1274POPC   PO419008  10.484   8.193   9.164
 1274POPC   GL119009  10.516   8.233   8.864
 1274POPC   GL219010  10.549   8.121   8.864
 1274POPC   C1A19011  10.506   8.160   8.564
 1274POPC   D2A19012  10.510   8.228   8.264
 1274POPC   C3A19013  10.478   8.228   7.964
 1274POPC   C4A19014  10.569   8.154   7.664
 1274POPC   C1B19015  10.471   7.923   8.564
 1274POPC   C2B19016  10.499   7.967   8.264
 1274POPC   C3B19017  10.443   7.976   7.964
 1274POPC   C4B19018  10.478   7.953   7.664
 1275POPC   NC319019  13.677  35.379   9.464
 1275POPC   PO419020  13.631  35.401   9.164
 1275POPC   GL119021  13.580  35.338   8.864
 1275POPC   GL219022  13.565  35.230   8.864
 1275POPC   C1A19023  13.580  35.343   8.564
 1275POPC   D2A19024  13.579  35.308   8.264
 1275POPC   C3A19025  13.638  35.365   7.964
 1275POPC   C4A19026  13.622  35.313   7.664
 1275POPC   C1B19027  13.572  35.095   8.564
 1275POPC   C2B19028  13.488  35.120   8.264
 1275POPC   C3B19029  13.552  35.108   7.964
 1275POPC   C4B19030  13.579  35.124   7.664
 1276POPC   NC319031  36.895  19.052   9.464
 1276POPC   PO419032  36.932  19.097   9.164
 1276POPC   GL119033  36.927  19.027   8.864
 1276POPC   GL219034  36.812  19.106   8.864
 1276POPC   C1A19035  36.937  19.032   8.564
 1276POPC   D2A19036  36.898  19.025   8.264
 1276POPC   C3A19037  36.922  19.097   7.964
 1276POPC   C4A19038  36.913  19.098   7.664
 1276POPC   C1B19039  36.708  19.156   8.564
 1276POPC   C2B19040  36.722  19.154   8.264
 1276POPC   C3B19041  36.730  19.172   7.964
 1276POPC   C4B19042  36.686  19.170   7.664
 1277POPC   NC319043  40.797  41.575   9.464
 1277POPC   PO419044  40.778  41.590   9.164
 1277POPC   GL119045  40.769  41.580   8.864
 1277POPC   GL219046  40.690  41.519   8.864
 1277POPC   C1A19047  40.742  41.599   8.564
 1277POPC   D2A19048  40.818  41.553   8.264
 1277POPC   C3A19049  40.811  41.510   7.964
 1277POPC   C4A19050  40.816  41.545   7.664
 1277POPC   C1B19051  40.536  41.490   8.564
 1277POPC   C2B19052  40.570  41.457   8.264
 1277POPC   C3B19053  40.501  41.513   7.964
 1277POPC   C4B19054  40.506  41.454   7.664
 1278POPC   NC319055   8.999  35.370   9.464
 1278POPC   PO419056   8.936  35.304   9.164
 1278POPC   GL119057   8.964  35.370   8.864
 1278POPC   GL219058   8.851  35.222   8.864
 1278POPC   C1A19059   8.948  35.320   8.564
 1278POPC   D2A19060   9.011  35.348   8.264
 1278POPC   C3A19061   8.942  35.336   7.964
 1278POPC   C4A19062   8.976  35.340   7.664
 1278POPC   C1B19063   8.863  35.187   8.564
 1278POPC   C2B19064   8.829  35.138   8.264
 1278POPC   C3B19065   8.834  35.185   7.964
 1278POPC   C4B19066   8.786  35.157   7.664
 1279POPC   NC319067  24.509   5.121   9.464
 1279POPC   PO419068  24.503   5.075   9.164
 1279POPC   GL119069  24.451   5.052   8.864
 1279POPC   GL219070  24.567   4.979   8.864
 1279POPC   C1A19071  24.537   5.122   8.564
 1279POPC   D2A19072  24.528   5.072   8.264
 1279POPC   C3A19073  24.526   5.101   7.964
 1279POPC   C4A19074  24.472   5.086   7.664
 1279POPC   C1B19075  24.677   4.922   8.564
 1279POPC   C2B19076  24.646   4.928   8.264
 1279POPC   C3B19077  24.636   4.881   7.964
 1279POPC   C4B19078  24.704   4.884   7.664
 1280POPC   NC319079  22.935   4.351   9.464
 1280POPC   PO419080  22.904   4.320   9.164
 1280POPC   GL119081  22.986   4.308   8.864
 1280POPC   GL219082  23.042   4.450   8.864
 1280POPC   C1A19083  22.971   4.331   8.564
 1280POPC   D2A19084  22.925   4.342   8.264
 1280POPC   C3A19085  22.932   4.359   7.964
 1280POPC   C4A19086  22.965   4.348   7.664
 1280POPC   C1B19087  23.089   4.514   8.564
 1280POPC   C2B19088  23.095   4.566   8.264
 1280POPC   C3B19089  23.052   4.480   7.964
 1280POPC   C4B19090  23.069   4.474   7.664
 1281POPC   NC319091  41.529  15.993   9.464
 1281POPC   PO419092  41.608  16.001   9.164
 1281POPC   GL119093  41.516  15.948   8.864
 1281POPC   GL219094  41.421  16.082   8.864
 1281POPC   C1A19095  41.529  15.923   8.564
 1281POPC   D2A19096  41.553  15.907   8.264
 1281POPC   C3A19097  41.608  15.988   7.964
 1281POPC   C4A19098  41.596  15.954   7.664
 1281POPC   C1B19099  41.406  16.111   8.564
 1281POPC   C2B19100  41.410  16.145   8.264
 1281POPC   C3B19101  41.355  16.128   7.964
 1281POPC   C4B19102  41.347  16.180   7.664
 1282POPC   NC319103   2.744   7.463   9.464
 1282POPC   PO419104   2.738   7.423   9.164
 1282POPC   GL119105   2.738   7.423   8.864
 1282POPC   GL219106   2.838   7.547   8.864
 1282POPC   C1A19107   2.815   7.415   8.564
 1282POPC   D2A19108   2.791   7.460   8.264
 1282POPC   C3A19109   2.719   7.432   7.964
 1282POPC   C4A19110   2.776   7.462   7.664
 1282POPC   C1B19111   2.879   7.640   8.564
 1282POPC   C2B19112   2.960   7.610   8.264
 1282POPC   C3B19113   2.933   7.583   7.964
 1282POPC   C4B19114   2.910   7.615   7.664
 1283POPC   NC319115  10.522  39.975   9.464
 1283POPC   PO419116  10.542  40.034   9.164
 1283POPC   GL119117  10.490  40.012   8.864
 1283POPC   GL219118  10.509  40.107   8.864
 1283POPC   C1A19119  10.514  39.986   8.564
 1283POPC   D2A19120  10.508  40.016   8.264
 1283POPC   C3A19121  10.534  39.964   7.964
 1283POPC   C4A19122  10.503  39.979   7.664
 1283POPC   C1B19123  10.385  40.217   8.564
 1283POPC   C2B19124  10.432  40.263   8.264
 1283POPC   C3B19125  10.434  40.272   7.964
 1283POPC   C4B19126  10.395  40.231   7.664
 1284POPC   NC319127   8.246  16.771   9.464
 1284POPC   PO419128   8.243  16.730   9.164
 1284POPC   GL119129   8.188  16.758   8.864
 1284POPC   GL219130   8.132  16.894   8.864
 1284POPC   C1A19131   8.175  16.705   8.564
 1284POPC   D2A19132   8.181  16.721   8.264
 1284POPC   C3A19133   8.171  16.758   7.964
 1284POPC   C4A19134   8.223  16.683   7.664
 1284POPC   C1B19135   8.189  16.959   8.564
 1284POPC   C2B19136   8.191  16.958   8.264
 1284POPC   C3B19137   8.185  17.003   7.964
 1284POPC   C4B19138   8.206  16.995   7.664
 1285POPC   NC319139  43.932  40.055   9.464
 1285POPC   PO419140  43.876  39.986   9.164
 1285POPC   GL119141  43.870  40.008   8.864
 1285POPC   GL219142  44.007  39.938   8.864
 1285POPC   C1A19143  43.926  40.040   8.564
 1285POPC   D2A19144  43.881  40.039   8.264
 1285POPC   C3A19145  43.932  39.969   7.964
 1285POPC   C4A19146  43.843  39.977   7.664
 1285POPC   C1B19147  44.050  39.796   8.564
 1285POPC   C2B19148  44.058  39.886   8.264
 1285POPC   C3B19149  44.096  39.803   7.964
 1285POPC   C4B19150  44.091  39.836   7.664
 1286POPC   NC319151  23.730   9.728   9.464
 1286POPC   PO419152  23.731   9.718   9.164
 1286POPC   GL119153  23.706   9.699   8.864
 1286POPC   GL219154  23.695   9.883   8.864
 1286POPC   C1A19155  23.710   9.713   8.564
 1286POPC   D2A19156  23.723   9.735   8.264
 1286POPC   C3A19157  23.702   9.768   7.964
 1286POPC   C4A19158  23.756   9.797   7.664
 1286POPC   C1B19159  23.662  10.006   8.564
 1286POPC   C2B19160  23.637   9.976   8.264
 1286POPC   C3B19161  23.672   9.965   7.964
 1286POPC   C4B19162  23.683   9.954   7.664
 1287POPC   NC319163  41.592  24.520   9.464
 1287POPC   PO419164  41.524  24.465   9.164
 1287POPC   GL119165  41.551  24.536   8.864
 1287POPC   GL219166  41.467  24.409   8.864
 1287POPC   C1A19167  41.566  24.534   8.564
 1287POPC   D2A19168  41.509  24.447   8.264
 1287POPC   C3A19169  41.522  24.535   7.964
 1287POPC   C4A19170  41.518  24.452   7.664
 1287POPC   C1B19171  41.433  24.231   8.564
 1287POPC   C2B19172  41.429  24.233   8.264
 1287POPC   C3B19173  41.467  24.234   7.964
 1287POPC   C4B19174  41.449  24.296   7.664
 1288POPC   NC319175  43.877   9.020   9.464
 1288POPC   PO419176  43.841   8.998   9.164
 1288POPC   GL119177  43.881   9.002   8.864
 1288POPC   GL219178  44.018   9.003   8.864
 1288POPC   C1A19179  43.884   8.955   8.564
 1288POPC   D2A19180  43.862   9.012   8.264
 1288POPC   C3A19181  43.875   8.931   7.964
 1288POPC   C4A19182  43.919   8.984   7.664
 1288POPC   C1B19183  44.169   9.000   8.564
 1288POPC   C2B19184  44.181   8.950   8.264
 1288POPC   C3B19185  44.184   9.004   7.964
 1288POPC   C4B19186  44.125   8.982   7.664
 1289POPC   NC319187  11.322  39.268   9.464
 1289POPC   PO419188  11.260  39.274   9.164
 1289POPC   GL119189  11.302  39.241   8.864
 1289POPC   GL219190  11.402  39.087   8.864
 1289POPC   C1A19191  11.345  39.243   8.564
 1289POPC   D2A19192  11.317  39.189   8.264
 1289POPC   C3A19193  11.320  39.280   7.964
 1289POPC   C4A19194  11.270  39.195   7.664
 1289POPC   C1B19195  11.400  39.041   8.564
 1289POPC   C2B19196  11.472  39.058   8.264
 1289POPC   C3B19197  11.382  39.054   7.964
 1289POPC   C4B19198  11.393  39.032   7.664
 1290POPC   NC319199  38.464  33.044   9.464
 1290POPC   PO419200  38.481  33.067   9.164
 1290POPC   GL119201  38.488  33.005   8.864
 1290POPC   GL219202  38.610  33.002   8.864
 1290POPC   C1A19203  38.482  33.016   8.564
 1290POPC   D2A19204  38.485  33.068   8.264
 1290POPC   C3A19205  38.419  33.051   7.964
 1290POPC   C4A19206  38.453  33.035   7.664
 1290POPC   C1B19207  38.709  33.032   8.564
 1290POPC   C2B19208  38.736  32.943   8.264
 1290POPC   C3B19209  38.707  33.015   7.964
 1290POPC   C4B19210  38.655  32.998   7.664
 1291POPC   NC319211  25.297  39.268   9.464
 1291POPC   PO419212  25.307  39.185   9.164
 1291POPC   GL119213  25.252  39.221   8.864
 1291POPC   GL219214  25.310  39.364   8.864
 1291POPC   C1A19215  25.287  39.218   8.564
 1291POPC   D2A19216  25.225  39.185   8.264
 1291POPC   C3A19217  25.224  39.242   7.964
 1291POPC   C4A19218  25.301  39.269   7.664
 1291POPC   C1B19219  25.237  39.480   8.564
 1291POPC   C2B19220  25.222  39.531   8.264
 1291POPC   C3B19221  25.235  39.436   7.964
 1291POPC   C4B19222  25.302  39.448   7.664
 1292POPC   NC319223  14.442  41.583   9.464
 1292POPC   PO419224  14.370  41.582   9.164
 1292POPC   GL119225  14.388  41.552   8.864
 1292POPC   GL219226  14.267  41.614   8.864
 1292POPC   C1A19227  14.363  41.603   8.564
 1292POPC   D2A19228  14.430  41.545   8.264
 1292POPC   C3A19229  14.436  41.535   7.964
 1292POPC   C4A19230  14.415  41.549   7.664
 1292POPC   C1B19231  14.146  41.547   8.564
 1292POPC   C2B19232  14.142  41.615   8.264
 1292POPC   C3B19233  14.135  41.604   7.964
 1292POPC   C4B19234  14.135  41.630   7.664
 1293POPC   NC319235   5.103  22.894   9.464
 1293POPC   PO419236   5.079  22.950   9.164
 1293POPC   GL119237   5.099  22.905   8.864
 1293POPC   GL219238   5.045  23.046   8.864
 1293POPC   C1A19239   5.113  22.933   8.564
 1293POPC   D2A19240   5.058  22.972   8.264
 1293POPC   C3A19241   5.052  22.954   7.964
 1293POPC   C4A19242   5.059  22.910   7.664
 1293POPC   C1B19243   4.885  23.066   8.564
 1293POPC   C2B19244   4.924  23.098   8.264
 1293POPC   C3B19245   4.890  23.155   7.964
 1293POPC   C4B19246   4.914  23.089   7.664
 1294POPC   NC319247  19.844  15.990   9.464
 1294POPC   PO419248  19.800  15.947   9.164
 1294POPC   GL119249  19.856  15.942   8.864
 1294POPC   GL219250  19.727  15.867   8.864
 1294POPC   C1A19251  19.806  15.969   8.564
 1294POPC   D2A19252  19.816  15.937   8.264
 1294POPC   C3A19253  19.799  15.991   7.964
 1294POPC   C4A19254  19.832  15.911   7.664
 1294POPC   C1B19255  19.572  15.854   8.564
 1294POPC   C2B19256  19.604  15.808   8.264
 1294POPC   C3B19257  19.663  15.864   7.964
 1294POPC   C4B19258  19.625  15.838   7.664
 1295POPC   NC319259  20.640  35.328   9.464
 1295POPC   PO419260  20.620  35.312   9.164
 1295POPC   GL119261  20.595  35.401   8.864
 1295POPC   GL219262  20.574  35.509   8.864
 1295POPC   C1A19263  20.608  35.385   8.564
 1295POPC   D2A19264  20.609  35.338   8.264
 1295POPC   C3A19265  20.598  35.380   7.964
 1295POPC   C4A19266  20.617  35.317   7.664
 1295POPC   C1B19267  20.598  35.641   8.564
 1295POPC   C2B19268  20.551  35.554   8.264
 1295POPC   C3B19269  20.607  35.611   7.964
 1295POPC   C4B19270  20.577  35.589   7.664
 1296POPC   NC319271   8.161  28.369   9.464
 1296POPC   PO419272   8.176  28.328   9.164
 1296POPC   GL119273   8.213  28.332   8.864
 1296POPC   GL219274   8.263  28.431   8.864
 1296POPC   C1A19275   8.195  28.351   8.564
 1296POPC   D2A19276   8.176  28.326   8.264
 1296POPC   C3A19277   8.189  28.379   7.964
 1296POPC   C4A19278   8.232  28.322   7.664
 1296POPC   C1B19279   8.377  28.616   8.564
 1296POPC   C2B19280   8.366  28.535   8.264
 1296POPC   C3B19281   8.307  28.550   7.964
 1296POPC   C4B19282   8.307  28.609   7.664
 1297POPC   NC319283  29.151  39.246   9.464
 1297POPC   PO419284  29.136  39.185   9.164
 1297POPC   GL119285  29.163  39.225   8.864
 1297POPC   GL219286  29.274  39.127   8.864
 1297POPC   C1A19287  29.111  39.217   8.564
 1297POPC   D2A19288  29.126  39.216   8.264
 1297POPC   C3A19289  29.194  39.244   7.964
 1297POPC   C4A19290  29.148  39.217   7.664
 1297POPC   C1B19291  29.369  39.086   8.564
 1297POPC   C2B19292  29.351  39.121   8.264
 1297POPC   C3B19293  29.325  39.072   7.964
 1297POPC   C4B19294  29.322  39.118   7.664
 1298POPC   NC319295  27.558  37.680   9.464
 1298POPC   PO419296  27.599  37.695   9.164
 1298POPC   GL119297  27.549  37.649   8.864
 1298POPC   GL219298  27.497  37.804   8.864
 1298POPC   C1A19299  27.630  37.684   8.564
 1298POPC   D2A19300  27.642  37.698   8.264
 1298POPC   C3A19301  27.575  37.723   7.964
 1298POPC   C4A19302  27.643  37.666   7.664
 1298POPC   C1B19303  27.389  37.842   8.564
 1298POPC   C2B19304  27.440  37.837   8.264
 1298POPC   C3B19305  27.461  37.865   7.964
 1298POPC   C4B19306  27.401  37.836   7.664
 1299POPC   NC319307  33.005  25.251   9.464
 1299POPC   PO419308  32.995  25.303   9.164
 1299POPC   GL119309  33.038  25.278   8.864
 1299POPC   GL219310  33.040  25.147   8.864
 1299POPC   C1A19311  33.006  25.262   8.564
 1299POPC   D2A19312  33.054  25.227   8.264
 1299POPC   C3A19313  32.974  25.272   7.964
 1299POPC   C4A19314  33.068  25.235   7.664
 1299POPC   C1B19315  33.001  25.030   8.564
 1299POPC   C2B19316  33.071  25.018   8.264
 1299POPC   C3B19317  33.071  25.038   7.964
 1299POPC   C4B19318  33.005  25.066   7.664
 1300POPC   NC319319  16.725   3.508   9.464
 1300POPC   PO419320  16.731   3.567   9.164
 1300POPC   GL119321  16.714   3.552   8.864
 1300POPC   GL219322  16.622   3.681   8.864
 1300POPC   C1A19323  16.740   3.516   8.564
 1300POPC   D2A19324  16.776   3.541   8.264
 1300POPC   C3A19325  16.735   3.517   7.964
 1300POPC   C4A19326  16.767   3.553   7.664
 1300POPC   C1B19327  16.605   3.788   8.564
 1300POPC   C2B19328  16.566   3.719   8.264
 1300POPC   C3B19329  16.620   3.725   7.964
 1300POPC   C4B19330  16.545   3.741   7.664
 1301POPC   NC319331  38.479   4.272   9.464
 1301POPC   PO419332  38.423   4.366   9.164
 1301POPC   GL119333  38.458   4.288   8.864
 1301POPC   GL219334  38.377   4.379   8.864
 1301POPC   C1A19335  38.489   4.295   8.564
 1301POPC   D2A19336  38.406   4.306   8.264
 1301POPC   C3A19337  38.441   4.272   7.964
 1301POPC   C4A19338  38.440   4.352   7.664
 1301POPC   C1B19339  38.275   4.545   8.564
 1301POPC   C2B19340  38.309   4.481   8.264
 1301POPC   C3B19341  38.323   4.558   7.964
 1301POPC   C4B19342  38.270   4.524   7.664
 1302POPC   NC319343  10.480  12.879   9.464
 1302POPC   PO419344  10.482  12.875   9.164
 1302POPC   GL119345  10.505  12.871   8.864
 1302POPC   GL219346  10.641  12.950   8.864
 1302POPC   C1A19347  10.568  12.858   8.564
 1302POPC   D2A19348  10.493  12.862   8.264
 1302POPC   C3A19349  10.558  12.864   7.964
 1302POPC   C4A19350  10.528  12.880   7.664
 1302POPC   C1B19351  10.761  13.052   8.564
 1302POPC   C2B19352  10.754  12.972   8.264
 1302POPC   C3B19353  10.762  13.008   7.964
 1302POPC   C4B19354  10.731  12.975   7.664
 1303POPC   NC319355  29.891  40.786   9.464
 1303POPC   PO419356  29.927  40.768   9.164
 1303POPC   GL119357  29.885  40.821   8.864
 1303POPC   GL219358  30.020  40.881   8.864
 1303POPC   C1A19359  29.878  40.751   8.564
 1303POPC   D2A19360  29.965  40.833   8.264
 1303POPC   C3A19361  29.875  40.815   7.964
 1303POPC   C4A19362  29.890  40.773   7.664
 1303POPC   C1B19363  30.026  40.996   8.564
 1303POPC   C2B19364  30.064  40.979   8.264
 1303POPC   C3B19365  30.094  40.964   7.964
 1303POPC   C4B19366  30.078  40.959   7.664
 1304POPC   NC319367  31.451  33.810   9.464
 1304POPC   PO419368  31.426  33.815   9.164
 1304POPC   GL119369  31.514  33.784   8.864
 1304POPC   GL219370  31.585  33.759   8.864
 1304POPC   C1A19371  31.508  33.832   8.564
 1304POPC   D2A19372  31.515  33.831   8.264
 1304POPC   C3A19373  31.422  33.779   7.964
 1304POPC   C4A19374  31.474  33.795   7.664
 1304POPC   C1B19375  31.707  33.687   8.564
 1304POPC   C2B19376  31.680  33.664   8.264
 1304POPC   C3B19377  31.691  33.703   7.964
 1304POPC   C4B19378  31.687  33.679   7.664
 1305POPC   NC319379   6.645  17.465   9.464
 1305POPC   PO419380   6.650  17.542   9.164
 1305POPC   GL119381   6.653  17.485   8.864
 1305POPC   GL219382   6.548  17.498   8.864
 1305POPC   C1A19383   6.667  17.483   8.564
 1305POPC   D2A19384   6.662  17.475   8.264
 1305POPC   C3A19385   6.683  17.522   7.964
 1305POPC   C4A19386   6.651  17.490   7.664
 1305POPC   C1B19387   6.363  17.460   8.564
 1305POPC   C2B19388   6.400  17.501   8.264
 1305POPC   C3B19389   6.369  17.512   7.964
 1305POPC   C4B19390   6.395  17.473   7.664
 1306POPC   NC319391  26.020  12.895   9.464
 1306POPC   PO419392  26.029  12.878   9.164
 1306POPC   GL119393  26.033  12.812   8.864
 1306POPC   GL219394  25.892  12.919   8.864
 1306POPC   C1A19395  26.054  12.851   8.564
 1306POPC   D2A19396  26.066  12.872   8.264
 1306POPC   C3A19397  26.070  12.872   7.964
 1306POPC   C4A19398  26.076  12.825   7.664
 1306POPC   C1B19399  25.799  12.931   8.564
 1306POPC   C2B19400  25.866  12.985   8.264
 1306POPC   C3B19401  25.824  12.954   7.964
 1306POPC   C4B19402  25.810  12.939   7.664
 1307POPC   NC319403  24.504  39.213   9.464
 1307POPC   PO419404  24.539  39.232   9.164
 1307POPC   GL119405  24.469  39.228   8.864
 1307POPC   GL219406  24.357  39.329   8.864
 1307POPC   C1A19407  24.517  39.255   8.564
 1307POPC   D2A19408  24.466  39.190   8.264
 1307POPC   C3A19409  24.450  39.249   7.964
 1307POPC   C4A19410  24.449  39.207   7.664
 1307POPC   C1B19411  24.231  39.359   8.564
 1307POPC   C2B19412  24.298  39.353   8.264
 1307POPC   C3B19413  24.283  39.331   7.964
 1307POPC   C4B19414  24.306  39.368   7.664
 1308POPC   NC319415  31.479  15.991   9.464
 1308POPC   PO419416  31.450  15.968   9.164
 1308POPC   GL119417  31.506  15.917   8.864
 1308POPC   GL219418  31.480  15.806   8.864
 1308POPC   C1A19419  31.505  15.982   8.564
 1308POPC   D2A19420  31.496  15.920   8.264
 1308POPC   C3A19421  31.518  15.910   7.964
 1308POPC   C4A19422  31.492  15.944   7.664
 1308POPC   C1B19423  31.573  15.672   8.564
 1308POPC   C2B19424  31.547  15.715   8.264
 1308POPC   C3B19425  31.569  15.665   7.964
 1308POPC   C4B19426  31.522  15.719   7.664
 1309POPC   NC319427  29.908  32.283   9.464
 1309POPC   PO419428  29.888  32.275   9.164
 1309POPC   GL119429  29.964  32.237   8.864
 1309POPC   GL219430  30.036  32.149   8.864
 1309POPC   C1A19431  29.915  32.287   8.564
 1309POPC   D2A19432  29.910  32.231   8.264
 1309POPC   C3A19433  29.913  32.256   7.964
 1309POPC   C4A19434  29.940  32.287   7.664
 1309POPC   C1B19435  30.065  32.004   8.564
 1309POPC   C2B19436  30.122  32.057   8.264
 1309POPC   C3B19437  30.101  32.009   7.964
 1309POPC   C4B19438  30.061  32.050   7.664
 1310POPC   NC319439  33.028   2.746   9.464
 1310POPC   PO419440  33.071   2.808   9.164
 1310POPC   GL119441  32.980   2.753   8.864
 1310POPC   GL219442  33.103   2.869   8.864
 1310POPC   C1A19443  32.983   2.794   8.564
 1310POPC   D2A19444  33.054   2.791   8.264
 1310POPC   C3A19445  33.039   2.749   7.964
 1310POPC   C4A19446  33.010   2.718   7.664
 1310POPC   C1B19447  33.208   2.889   8.564
 1310POPC   C2B19448  33.219   2.858   8.264
 1310POPC   C3B19449  33.285   2.890   7.964
 1310POPC   C4B19450  33.274   2.856   7.664
 1311POPC   NC319451  40.813  17.469   9.464
 1311POPC   PO419452  40.818  17.465   9.164
 1311POPC   GL119453  40.748  17.500   8.864
 1311POPC   GL219454  40.827  17.643   8.864
 1311POPC   C1A19455  40.779  17.485   8.564
 1311POPC   D2A19456  40.804  17.500   8.264
 1311POPC   C3A19457  40.754  17.464   7.964
 1311POPC   C4A19458  40.775  17.471   7.664
 1311POPC   C1B19459  40.891  17.753   8.564
 1311POPC   C2B19460  40.883  17.721   8.264
 1311POPC   C3B19461  40.939  17.746   7.964
 1311POPC   C4B19462  40.935  17.774   7.664
 1312POPC   NC319463   1.199  31.429   9.464
 1312POPC   PO419464   1.185  31.434   9.164
 1312POPC   GL119465   1.214  31.484   8.864
 1312POPC   GL219466   1.271  31.439   8.864
 1312POPC   C1A19467   1.228  31.484   8.564
 1312POPC   D2A19468   1.194  31.423   8.264
 1312POPC   C3A19469   1.190  31.471   7.964
 1312POPC   C4A19470   1.186  31.502   7.664
 1312POPC   C1B19471   1.424  31.295   8.564
 1312POPC   C2B19472   1.457  31.320   8.264
 1312POPC   C3B19473   1.369  31.292   7.964
 1312POPC   C4B19474   1.407  31.266   7.664
 1313POPC   NC319475  44.656   6.637   9.464
 1313POPC   PO419476  44.673   6.604   9.164
 1313POPC   GL119477  44.701   6.682   8.864
 1313POPC   GL219478  44.569   6.555   8.864
 1313POPC   C1A19479  44.693   6.624   8.564
 1313POPC   D2A19480  44.690   6.640   8.264
 1313POPC   C3A19481  44.696   6.659   7.964
 1313POPC   C4A19482  44.704   6.631   7.664
 1313POPC   C1B19483  44.403   6.599   8.564
 1313POPC   C2B19484  44.385   6.519   8.264
 1313POPC   C3B19485  44.395   6.515   7.964
 1313POPC   C4B19486  44.435   6.584   7.664
 1314POPC   NC319487   0.464  29.949   9.464
 1314POPC   PO419488   0.391  29.924   9.164
 1314POPC   GL119489   0.454  29.888   8.864
 1314POPC   GL219490   0.410  30.057   8.864
 1314POPC   C1A19491   0.461  29.948   8.564
 1314POPC   D2A19492   0.420  29.904   8.264
 1314POPC   C3A19493   0.418  29.928   7.964
 1314POPC   C4A19494   0.487  29.889   7.664
 1314POPC   C1B19495   0.421  30.156   8.564
 1314POPC   C2B19496   0.489  30.170   8.264
 1314POPC   C3B19497   0.428  30.158   7.964
 1314POPC   C4B19498   0.490  30.169   7.664
 1315POPC   NC319499  41.518  43.149   9.464
 1315POPC   PO419500  41.525  43.142   9.164
 1315POPC   GL119501  41.545  43.124   8.864
 1315POPC   GL219502  41.490  43.039   8.864
 1315POPC   C1A19503  41.533  43.098   8.564
 1315POPC   D2A19504  41.548  43.114   8.264
 1315POPC   C3A19505  41.589  43.120   7.964
 1315POPC   C4A19506  41.562  43.083   7.664
 1315POPC   C1B19507  41.337  42.930   8.564
 1315POPC   C2B19508  41.386  42.922   8.264
 1315POPC   C3B19509  41.394  42.990   7.964
 1315POPC   C4B19510  41.371  42.935   7.664
 1316POPC   NC319511  21.350  29.127   9.464
 1316POPC   PO419512  21.357  29.124   9.164
 1316POPC   GL119513  21.338  29.134   8.864
 1316POPC   GL219514  21.355  29.017   8.864
 1316POPC   C1A19515  21.385  29.120   8.564
 1316POPC   D2A19516  21.368  29.176   8.264
 1316POPC   C3A19517  21.367  29.189   7.964
 1316POPC   C4A19518  21.427  29.130   7.664
 1316POPC   C1B19519  21.412  28.893   8.564
 1316POPC   C2B19520  21.365  28.886   8.264
 1316POPC   C3B19521  21.350  28.904   7.964
 1316POPC   C4B19522  21.404  28.869   7.664
 1317POPC   NC319523  31.480   5.911   9.464
 1317POPC   PO419524  31.437   5.859   9.164
 1317POPC   GL119525  31.431   5.911   8.864
 1317POPC   GL219526  31.374   5.854   8.864
 1317POPC   C1A19527  31.434   5.867   8.564
 1317POPC   D2A19528  31.510   5.871   8.264
 1317POPC   C3A19529  31.493   5.899   7.964
 1317POPC   C4A19530  31.443   5.860   7.664
 1317POPC   C1B19531  31.256   5.847   8.564
 1317POPC   C2B19532  31.238   5.874   8.264
 1317POPC   C3B19533  31.183   5.914   7.964
 1317POPC   C4B19534  31.238   5.868   7.664
 1318POPC   NC319535  17.489  13.597   9.464
 1318POPC   PO419536  17.536  13.639   9.164
 1318POPC   GL119537  17.475  13.660   8.864
 1318POPC   GL219538  17.655  13.601   8.864
 1318POPC   C1A19539  17.498  13.627   8.564
 1318POPC   D2A19540  17.483  13.618   8.264
 1318POPC   C3A19541  17.460  13.636   7.964
 1318POPC   C4A19542  17.537  13.607   7.664
 1318POPC   C1B19543  17.730  13.642   8.564
 1318POPC   C2B19544  17.764  13.620   8.264
 1318POPC   C3B19545  17.771  13.666   7.964
 1318POPC   C4B19546  17.761  13.619   7.664
 1319POPC   NC319547  15.214  35.321   9.464
 1319POPC   PO419548  15.177  35.307   9.164
 1319POPC   GL119549  15.153  35.309   8.864
 1319POPC   GL219550  15.027  35.299   8.864
 1319POPC   C1A19551  15.170  35.341   8.564
 1319POPC   D2A19552  15.167  35.371   8.264
 1319POPC   C3A19553  15.153  35.401   7.964
 1319POPC   C4A19554  15.213  35.343   7.664
 1319POPC   C1B19555  14.932  35.202   8.564
 1319POPC   C2B19556  14.997  35.252   8.264
 1319POPC   C3B19557  14.956  35.214   7.964
 1319POPC   C4B19558  14.996  35.186   7.664
 1320POPC   NC319559  12.851  39.201   9.464
 1320POPC   PO419560  12.846  39.193   9.164
 1320POPC   GL119561  12.808  39.247   8.864
 1320POPC   GL219562  12.923  39.071   8.864
 1320POPC   C1A19563  12.855  39.234   8.564
 1320POPC   D2A19564  12.808  39.274   8.264
 1320POPC   C3A19565  12.878  39.186   7.964
 1320POPC   C4A19566  12.834  39.215   7.664
 1320POPC   C1B19567  12.991  39.001   8.564
 1320POPC   C2B19568  12.959  38.996   8.264
 1320POPC   C3B19569  12.990  38.980   7.964
 1320POPC   C4B19570  12.946  38.984   7.664
 1321POPC   NC319571  39.992   1.233   9.464
 1321POPC   PO419572  40.024   1.247   9.164
 1321POPC   GL119573  40.042   1.212   8.864
 1321POPC   GL219574  39.981   1.138   8.864
 1321POPC   C1A19575  40.001   1.170   8.564
 1321POPC   D2A19576  40.025   1.177   8.264
 1321POPC   C3A19577  40.026   1.250   7.964
 1321POPC   C4A19578  40.041   1.227   7.664
 1321POPC   C1B19579  39.884   0.973   8.564
 1321POPC   C2B19580  39.864   0.943   8.264
 1321POPC   C3B19581  39.892   1.007   7.964
 1321POPC   C4B19582  39.950   0.973   7.664
 1322POPC   NC319583  27.570   9.706   9.464
 1322POPC   PO419584  27.572   9.776   9.164
 1322POPC   GL119585  27.588   9.780   8.864
 1322POPC   GL219586  27.653   9.887   8.864
 1322POPC   C1A19587  27.600   9.701   8.564
 1322POPC   D2A19588  27.554   9.750   8.264
 1322POPC   C3A19589  27.545   9.754   7.964
 1322POPC   C4A19590  27.587   9.726   7.664
 1322POPC   C1B19591  27.677   9.940   8.564
 1322POPC   C2B19592  27.640  10.021   8.264
 1322POPC   C3B19593  27.674   9.986   7.964
 1322POPC   C4B19594  27.651  10.032   7.664
 1323POPC   NC319595  19.082  21.396   9.464
 1323POPC   PO419596  19.082  21.392   9.164
 1323POPC   GL119597  19.096  21.394   8.864
 1323POPC   GL219598  19.106  21.311   8.864
 1323POPC   C1A19599  19.031  21.406   8.564
 1323POPC   D2A19600  19.067  21.352   8.264
 1323POPC   C3A19601  19.074  21.372   7.964
 1323POPC   C4A19602  19.102  21.372   7.664
 1323POPC   C1B19603  19.205  21.228   8.564
 1323POPC   C2B19604  19.283  21.212   8.264
 1323POPC   C3B19605  19.240  21.253   7.964
 1323POPC   C4B19606  19.206  21.235   7.664
 1324POPC   NC319607   5.885  35.396   9.464
 1324POPC   PO419608   5.849  35.360   9.164
 1324POPC   GL119609   5.875  35.315   8.864
 1324POPC   GL219610   5.940  35.459   8.864
 1324POPC   C1A19611   5.867  35.316   8.564
 1324POPC   D2A19612   5.864  35.355   8.264
 1324POPC   C3A19613   5.868  35.352   7.964
 1324POPC   C4A19614   5.855  35.400   7.664
 1324POPC   C1B19615   5.947  35.609   8.564
 1324POPC   C2B19616   5.962  35.535   8.264
 1324POPC   C3B19617   5.950  35.535   7.964
 1324POPC   C4B19618   6.001  35.524   7.664
 1325POPC   NC319619   2.745   8.999   9.464
 1325POPC   PO419620   2.718   8.971   9.164
 1325POPC   GL119621   2.803   9.015   8.864
 1325POPC   GL219622   2.695   8.871   8.864
 1325POPC   C1A19623   2.755   8.985   8.564
 1325POPC   D2A19624   2.723   8.977   8.264
 1325POPC   C3A19625   2.781   8.993   7.964
 1325POPC   C4A19626   2.805   8.935   7.664
 1325POPC   C1B19627   2.650   8.762   8.564
 1325POPC   C2B19628   2.602   8.813   8.264
 1325POPC   C3B19629   2.580   8.731   7.964
 1325POPC   C4B19630   2.578   8.729   7.664
 1326POPC   NC319631  29.893   0.395   9.464
 1326POPC   PO419632  29.898   0.455   9.164
 1326POPC   GL119633  29.879   0.426   8.864
 1326POPC   GL219634  30.069   0.441   8.864
 1326POPC   C1A19635  29.905   0.434   8.564
 1326POPC   D2A19636  29.900   0.425   8.264
 1326POPC   C3A19637  29.904   0.389   7.964
 1326POPC   C4A19638  29.897   0.456   7.664
 1326POPC   C1B19639  30.132   0.311   8.564
 1326POPC   C2B19640  30.139   0.361   8.264
 1326POPC   C3B19641  30.163   0.314   7.964
 1326POPC   C4B19642  30.178   0.308   7.664
 1327POPC   NC319643  29.142  41.527   9.464
 1327POPC   PO419644  29.117  41.547   9.164
 1327POPC   GL119645  29.104  41.572   8.864
 1327POPC   GL219646  29.307  41.491   8.864
 1327POPC   C1A19647  29.140  41.596   8.564
 1327POPC   D2A19648  29.158  41.553   8.264
 1327POPC   C3A19649  29.126  41.570   7.964
 1327POPC   C4A19650  29.120  41.551   7.664
 1327POPC   C1B19651  29.345  41.511   8.564
 1327POPC   C2B19652  29.381  41.493   8.264
 1327POPC   C3B19653  29.399  41.429   7.964
 1327POPC   C4B19654  29.326  41.492   7.664
 1328POPC   NC319655  41.547  36.892   9.464
 1328POPC   PO419656  41.538  36.931   9.164
 1328POPC   GL119657  41.600  36.951   8.864
 1328POPC   GL219658  41.585  37.051   8.864
 1328POPC   C1A19659  41.516  36.945   8.564
 1328POPC   D2A19660  41.561  36.865   8.264
 1328POPC   C3A19661  41.522  36.913   7.964
 1328POPC   C4A19662  41.537  36.884   7.664
 1328POPC   C1B19663  41.556  37.178   8.564
 1328POPC   C2B19664  41.550  37.164   8.264
 1328POPC   C3B19665  41.554  37.175   7.964
 1328POPC   C4B19666  41.574  37.108   7.664
 1329POPC   NC319667  25.291  25.312   9.464
 1329POPC   PO419668  25.301  25.304   9.164
 1329POPC   GL119669  25.253  25.291   8.864
 1329POPC   GL219670  25.274  25.157   8.864
 1329POPC   C1A19671  25.244  25.293   8.564
 1329POPC   D2A19672  25.291  25.251   8.264
 1329POPC   C3A19673  25.234  25.307   7.964
 1329POPC   C4A19674  25.311  25.304   7.664
 1329POPC   C1B19675  25.306  25.061   8.564
 1329POPC   C2B19676  25.383  25.067   8.264
 1329POPC   C3B19677  25.361  25.077   7.964
 1329POPC   C4B19678  25.329  25.079   7.664
 1330POPC   NC319679  22.146  15.211   9.464
 1330POPC   PO419680  22.183  15.139   9.164
 1330POPC   GL119681  22.206  15.192   8.864
 1330POPC   GL219682  22.268  15.077   8.864
 1330POPC   C1A19683  22.141  15.132   8.564
 1330POPC   D2A19684  22.193  15.219   8.264
 1330POPC   C3A19685  22.150  15.170   7.964
 1330POPC   C4A19686  22.193  15.201   7.664
 1330POPC   C1B19687  22.323  14.962   8.564
 1330POPC   C2B19688  22.353  14.990   8.264
 1330POPC   C3B19689  22.335  14.996   7.964
 1330POPC   C4B19690  22.266  14.928   7.664
 1331POPC   NC319691   8.200  15.984   9.464
 1331POPC   PO419692   8.247  15.964   9.164
 1331POPC   GL119693   8.223  15.923   8.864
 1331POPC   GL219694   8.275  15.973   8.864
 1331POPC   C1A19695   8.235  15.943   8.564
 1331POPC   D2A19696   8.177  15.938   8.264
 1331POPC   C3A19697   8.201  15.917   7.964
 1331POPC   C4A19698   8.148  15.939   7.664
 1331POPC   C1B19699   8.406  15.873   8.564
 1331POPC   C2B19700   8.408  15.942   8.264
 1331POPC   C3B19701   8.399  15.884   7.964
 1331POPC   C4B19702   8.458  15.923   7.664
 1332POPC   NC319703   8.223  43.882   9.464
 1332POPC   PO419704   8.148  43.867   9.164
 1332POPC   GL119705   8.202  43.875   8.864
 1332POPC   GL219706   8.157  44.031   8.864
 1332POPC   C1A19707   8.224  43.865   8.564
 1332POPC   D2A19708   8.181  43.911   8.264
 1332POPC   C3A19709   8.204  43.927   7.964
 1332POPC   C4A19710   8.193  43.919   7.664
 1332POPC   C1B19711   8.183  44.124   8.564
 1332POPC   C2B19712   8.105  44.125   8.264
 1332POPC   C3B19713   8.108  44.086   7.964
 1332POPC   C4B19714   8.104  44.107   7.664
 1333POPC   NC319715  26.060  16.751   9.464
 1333POPC   PO419716  26.013  16.737   9.164
 1333POPC   GL119717  26.043  16.750   8.864
 1333POPC   GL219718  26.135  16.806   8.864
 1333POPC   C1A19719  26.050  16.700   8.564
 1333POPC   D2A19720  26.057  16.780   8.264
 1333POPC   C3A19721  26.017  16.753   7.964
 1333POPC   C4A19722  26.081  16.702   7.664
 1333POPC   C1B19723  26.217  16.863   8.564
 1333POPC   C2B19724  26.239  16.869   8.264
 1333POPC   C3B19725  26.208  16.847   7.964
 1333POPC   C4B19726  26.285  16.864   7.664
 1334POPC   NC319727  39.976   5.074   9.464
 1334POPC   PO419728  40.025   5.140   9.164
 1334POPC   GL119729  40.049   5.119   8.864
 1334POPC   GL219730  39.990   5.011   8.864
 1334POPC   C1A19731  39.966   5.113   8.564
 1334POPC   D2A19732  40.003   5.102   8.264
 1334POPC   C3A19733  40.028   5.105   7.964
 1334POPC   C4A19734  40.035   5.135   7.664
 1334POPC   C1B19735  39.910   4.869   8.564
 1334POPC   C2B19736  39.904   4.836   8.264
 1334POPC   C3B19737  39.930   4.883   7.964
 1334POPC   C4B19738  39.920   4.875   7.664
 1335POPC   NC319739  21.398   1.226   9.464
 1335POPC   PO419740  21.382   1.179   9.164
 1335POPC   GL119741  21.388   1.174   8.864
 1335POPC   GL219742  21.357   1.067   8.864
 1335POPC   C1A19743  21.353   1.187   8.564
 1335POPC   D2A19744  21.431   1.243   8.264
 1335POPC   C3A19745  21.398   1.230   7.964
 1335POPC   C4A19746  21.371   1.199   7.664
 1335POPC   C1B19747  21.239   0.944   8.564
 1335POPC   C2B19748  21.325   0.959   8.264
 1335POPC   C3B19749  21.326   0.961   7.964
 1335POPC   C4B19750  21.263   1.015   7.664
 1336POPC   NC319751   3.578  26.083   9.464
 1336POPC   PO419752   3.499  26.089   9.164
 1336POPC   GL119753   3.500  25.995   8.864
 1336POPC   GL219754   3.486  25.899   8.864
 1336POPC   C1A19755   3.565  26.091   8.564
 1336POPC   D2A19756   3.539  26.084   8.264
 1336POPC   C3A19757   3.516  26.005   7.964
 1336POPC   C4A19758   3.549  26.080   7.664
 1336POPC   C1B19759   3.553  25.835   8.564
 1336POPC   C2B19760   3.540  25.773   8.264
 1336POPC   C3B19761   3.541  25.834   7.964
 1336POPC   C4B19762   3.534  25.840   7.664
 1337POPC   NC319763  19.845  43.888   9.464
 1337POPC   PO419764  19.878  43.921   9.164
 1337POPC   GL119765  19.868  43.841   8.864
 1337POPC   GL219766  19.984  43.986   8.864
 1337POPC   C1A19767  19.823  43.888   8.564
 1337POPC   D2A19768  19.847  43.890   8.264
 1337POPC   C3A19769  19.789  43.897   7.964
 1337POPC   C4A19770  19.814  43.901   7.664
 1337POPC   C1B19771  20.001  44.012   8.564
 1337POPC   C2B19772  20.092  43.988   8.264
 1337POPC   C3B19773  20.057  44.032   7.964
 1337POPC   C4B19774  20.018  43.988   7.664
 1338POPC   NC319775  26.083  44.678   9.464
 1338POPC   PO419776  26.063  44.689   9.164
 1338POPC   GL119777  26.049  44.705   8.864
 1338POPC   GL219778  26.079  44.526   8.864
 1338POPC   C1A19779  26.008  44.632   8.564
 1338POPC   D2A19780  26.001  44.701   8.264
 1338POPC   C3A19781  26.030  44.689   7.964
 1338POPC   C4A19782  26.088  44.701   7.664
 1338POPC   C1B19783  26.061  44.383   8.564
 1338POPC   C2B19784  26.052  44.430   8.264
 1338POPC   C3B19785  26.090  44.455   7.964
 1338POPC   C4B19786  26.091  44.419   7.664
 1339POPC   NC319787  39.273  38.480   9.464
 1339POPC   PO419788  39.275  38.410   9.164
 1339POPC   GL119789  39.183  38.446   8.864
 1339POPC   GL219790  39.248  38.577   8.864
 1339POPC   C1A19791  39.271  38.465   8.564
 1339POPC   D2A19792  39.204  38.427   8.264
 1339POPC   C3A19793  39.237  38.433   7.964
 1339POPC   C4A19794  39.232  38.434   7.664
 1339POPC   C1B19795  39.332  38.711   8.564
 1339POPC   C2B19796  39.309  38.686   8.264
 1339POPC   C3B19797  39.356  38.718   7.964
 1339POPC   C4B19798  39.303  38.692   7.664
 1340POPC   NC319799   6.668   7.463   9.464
 1340POPC   PO419800   6.626   7.424   9.164
 1340POPC   GL119801   6.693   7.371   8.864
 1340POPC   GL219802   6.740   7.329   8.864
 1340POPC   C1A19803   6.639   7.388   8.564
 1340POPC   D2A19804   6.615   7.411   8.264
 1340POPC   C3A19805   6.653   7.385   7.964
 1340POPC   C4A19806   6.693   7.390   7.664
 1340POPC   C1B19807   6.776   7.233   8.564
 1340POPC   C2B19808   6.772   7.208   8.264
 1340POPC   C3B19809   6.834   7.258   7.964
 1340POPC   C4B19810   6.853   7.199   7.664
 1341POPC   NC319811  37.631  32.298   9.464
 1341POPC   PO419812  37.713  32.227   9.164
 1341POPC   GL119813  37.651  32.237   8.864
 1341POPC   GL219814  37.754  32.163   8.864
 1341POPC   C1A19815  37.717  32.254   8.564
 1341POPC   D2A19816  37.667  32.244   8.264
 1341POPC   C3A19817  37.642  32.204   7.964
 1341POPC   C4A19818  37.649  32.210   7.664
 1341POPC   C1B19819  37.887  32.031   8.564
 1341POPC   C2B19820  37.883  32.048   8.264
 1341POPC   C3B19821  37.860  32.106   7.964
 1341POPC   C4B19822  37.855  32.030   7.664
 1342POPC   NC319823  43.155  15.153   9.464
 1342POPC   PO419824  43.074  15.209   9.164
 1342POPC   GL119825  43.065  15.212   8.864
 1342POPC   GL219826  43.007  15.106   8.864
 1342POPC   C1A19827  43.107  15.196   8.564
 1342POPC   D2A19828  43.090  15.221   8.264
 1342POPC   C3A19829  43.112  15.195   7.964
 1342POPC   C4A19830  43.098  15.138   7.664
 1342POPC   C1B19831  42.892  15.001   8.564
 1342POPC   C2B19832  42.852  15.031   8.264
 1342POPC   C3B19833  42.933  15.005   7.964
 1342POPC   C4B19834  42.919  15.071   7.664
 1343POPC   NC319835   1.251  20.583   9.464
 1343POPC   PO419836   1.252  20.591   9.164
 1343POPC   GL119837   1.237  20.643   8.864
 1343POPC   GL219838   1.313  20.697   8.864
 1343POPC   C1A19839   1.206  20.607   8.564
 1343POPC   D2A19840   1.172  20.643   8.264
 1343POPC   C3A19841   1.240  20.625   7.964
 1343POPC   C4A19842   1.253  20.656   7.664
 1343POPC   C1B19843   1.476  20.717   8.564
 1343POPC   C2B19844   1.407  20.714   8.264
 1343POPC   C3B19845   1.402  20.682   7.964
 1343POPC   C4B19846   1.394  20.760   7.664
 1344POPC   NC319847  26.852   1.200   9.464
 1344POPC   PO419848  26.798   1.236   9.164
 1344POPC   GL119849  26.828   1.255   8.864
 1344POPC   GL219850  26.871   1.293   8.864
 1344POPC   C1A19851  26.815   1.260   8.564
 1344POPC   D2A19852  26.803   1.191   8.264
 1344POPC   C3A19853  26.774   1.182   7.964
 1344POPC   C4A19854  26.859   1.170   7.664
 1344POPC   C1B19855  26.995   1.343   8.564
 1344POPC   C2B19856  27.047   1.362   8.264
 1344POPC   C3B19857  26.983   1.370   7.964
 1344POPC   C4B19858  27.049   1.401   7.664
 1345POPC   NC319859  25.267   9.700   9.464
 1345POPC   PO419860  25.303   9.769   9.164
 1345POPC   GL119861  25.278   9.775   8.864
 1345POPC   GL219862  25.173   9.838   8.864
 1345POPC   C1A19863  25.251   9.702   8.564
 1345POPC   D2A19864  25.287   9.705   8.264
 1345POPC   C3A19865  25.302   9.795   7.964
 1345POPC   C4A19866  25.281   9.743   7.664
 1345POPC   C1B19867  25.065   9.903   8.564
 1345POPC   C2B19868  25.044   9.912   8.264
 1345POPC   C3B19869  25.064   9.869   7.964
 1345POPC   C4B19870  25.080   9.911   7.664
 1346POPC   NC319871  32.217  18.254   9.464
 1346POPC   PO419872  32.264  18.257   9.164
 1346POPC   GL119873  32.269  18.299   8.864
 1346POPC   GL219874  32.303  18.351   8.864
 1346POPC   C1A19875  32.267  18.316   8.564
 1346POPC   D2A19876  32.237  18.267   8.264
 1346POPC   C3A19877  32.268  18.281   7.964
 1346POPC   C4A19878  32.274  18.257   7.664
 1346POPC   C1B19879  32.382  18.438   8.564
 1346POPC   C2B19880  32.384  18.500   8.264
 1346POPC   C3B19881  32.439  18.468   7.964
 1346POPC   C4B19882  32.442  18.448   7.664
 1347POPC   NC319883   6.672  38.503   9.464
 1347POPC   PO419884   6.639  38.448   9.164
 1347POPC   GL119885   6.681  38.482   8.864
 1347POPC   GL219886   6.656  38.538   8.864
 1347POPC   C1A19887   6.678  38.409   8.564
 1347POPC   D2A19888   6.600  38.490   8.264
 1347POPC   C3A19889   6.693  38.465   7.964
 1347POPC   C4A19890   6.643  38.467   7.664
 1347POPC   C1B19891   6.642  38.675   8.564
 1347POPC   C2B19892   6.623  38.710   8.264
 1347POPC   C3B19893   6.647  38.736   7.964
 1347POPC   C4B19894   6.579  38.750   7.664
 1348POPC   NC319895  15.938  26.846   9.464
 1348POPC   PO419896  15.977  26.855   9.164
 1348POPC   GL119897  15.935  26.826   8.864
 1348POPC   GL219898  15.956  26.965   8.864
 1348POPC   C1A19899  15.996  26.849   8.564
 1348POPC   D2A19900  15.932  26.789   8.264
 1348POPC   C3A19901  15.935  26.804   7.964
 1348POPC   C4A19902  15.950  26.825   7.664
 1348POPC   C1B19903  15.853  27.106   8.564
 1348POPC   C2B19904  15.877  27.035   8.264
 1348POPC   C3B19905  15.860  27.094   7.964
 1348POPC   C4B19906  15.880  27.032   7.664
 1349POPC   NC319907  32.232  10.516   9.464
 1349POPC   PO419908  32.283  10.509   9.164
 1349POPC   GL119909  32.230  10.526   8.864
 1349POPC   GL219910  32.312  10.558   8.864
 1349POPC   C1A19911  32.291  10.530   8.564
 1349POPC   D2A19912  32.203  10.541   8.264
 1349POPC   C3A19913  32.293  10.538   7.964
 1349POPC   C4A19914  32.226  10.507   7.664
 1349POPC   C1B19915  32.489  10.618   8.564
 1349POPC   C2B19916  32.446  10.642   8.264
 1349POPC   C3B19917  32.486  10.630   7.964
 1349POPC   C4B19918  32.480  10.659   7.664
 1350POPC   NC319919  29.140  12.038   9.464
 1350POPC   PO419920  29.108  12.124   9.164
 1350POPC   GL119921  29.147  12.077   8.864
 1350POPC   GL219922  29.064  12.032   8.864
 1350POPC   C1A19923  29.103  12.030   8.564
 1350POPC   D2A19924  29.144  12.091   8.264
 1350POPC   C3A19925  29.113  12.047   7.964
 1350POPC   C4A19926  29.135  12.120   7.664
 1350POPC   C1B19927  28.894  11.987   8.564
 1350POPC   C2B19928  28.886  12.035   8.264
 1350POPC   C3B19929  28.918  12.069   7.964
 1350POPC   C4B19930  28.888  12.012   7.664
 1351POPC   NC319931  14.434  25.239   9.464
 1351POPC   PO419932  14.359  25.282   9.164
 1351POPC   GL119933  14.435  25.273   8.864
 1351POPC   GL219934  14.296  25.262   8.864
 1351POPC   C1A19935  14.451  25.236   8.564
 1351POPC   D2A19936  14.453  25.243   8.264
 1351POPC   C3A19937  14.438  25.298   7.964
 1351POPC   C4A19938  14.414  25.276   7.664
 1351POPC   C1B19939  14.197  25.190   8.564
 1351POPC   C2B19940  14.149  25.211   8.264
 1351POPC   C3B19941  14.162  25.185   7.964
 1351POPC   C4B19942  14.141  25.244   7.664
 1352POPC   NC319943  19.842  42.316   9.464
 1352POPC   PO419944  19.836  42.383   9.164
 1352POPC   GL119945  19.865  42.343   8.864
 1352POPC   GL219946  19.804  42.480   8.864
 1352POPC   C1A19947  19.813  42.379   8.564
 1352POPC   D2A19948  19.798  42.374   8.264
 1352POPC   C3A19949  19.817  42.315   7.964
 1352POPC   C4A19950  19.859  42.318   7.664
 1352POPC   C1B19951  19.885  42.628   8.564
 1352POPC   C2B19952  19.891  42.631   8.264
 1352POPC   C3B19953  19.896  42.566   7.964
 1352POPC   C4B19954  19.869  42.609   7.664
 1353POPC   NC319955  20.620  22.926   9.464
 1353POPC   PO419956  20.575  22.939   9.164
 1353POPC   GL119957  20.575  22.890   8.864
 1353POPC   GL219958  20.482  22.988   8.864
 1353POPC   C1A19959  20.636  22.987   8.564
 1353POPC   D2A19960  20.599  22.927   8.264
 1353POPC   C3A19961  20.603  22.894   7.964
 1353POPC   C4A19962  20.601  22.921   7.664
 1353POPC   C1B19963  20.421  23.077   8.564
 1353POPC   C2B19964  20.366  23.029   8.264
 1353POPC   C3B19965  20.352  23.093   7.964
 1353POPC   C4B19966  20.434  23.040   7.664
 1354POPC   NC319967  15.170  15.156   9.464
 1354POPC   PO419968  15.198  15.149   9.164
 1354POPC   GL119969  15.157  15.149   8.864
 1354POPC   GL219970  15.271  15.121   8.864
 1354POPC   C1A19971  15.130  15.149   8.564
 1354POPC   D2A19972  15.155  15.176   8.264
 1354POPC   C3A19973  15.208  15.217   7.964
 1354POPC   C4A19974  15.172  15.147   7.664
 1354POPC   C1B19975  15.399  14.997   8.564
 1354POPC   C2B19976  15.376  15.022   8.264
 1354POPC   C3B19977  15.413  14.993   7.964
 1354POPC   C4B19978  15.404  15.032   7.664
 1355POPC   NC319979  17.544   2.809   9.464
 1355POPC   PO419980  17.472   2.763   9.164
 1355POPC   GL119981  17.527   2.728   8.864
 1355POPC   GL219982  17.674   2.728   8.864
 1355POPC   C1A19983  17.528   2.802   8.564
 1355POPC   D2A19984  17.551   2.770   8.264
 1355POPC   C3A19985  17.554   2.792   7.964
 1355POPC   C4A19986  17.520   2.743   7.664
 1355POPC   C1B19987  17.752   2.761   8.564
 1355POPC   C2B19988  17.797   2.837   8.264
 1355POPC   C3B19989  17.745   2.773   7.964
 1355POPC   C4B19990  17.717   2.829   7.664
 1356POPC   NC319991  20.589  13.645   9.464
 1356POPC   PO419992  20.564  13.671   9.164
 1356POPC   GL119993  20.565  13.622   8.864
 1356POPC   GL219994  20.488  13.550   8.864
 1356POPC   C1A19995  20.579  13.643   8.564
 1356POPC   D2A19996  20.591  13.606   8.264
 1356POPC   C3A19997  20.629  13.668   7.964
 1356POPC   C4A19998  20.586  13.579   7.664
 1356POPC   C1B19999  20.429  13.466   8.564
 1356POPC   C2B20000  20.388  13.421   8.264
 1356POPC   C3B20001  20.448  13.491   7.964
 1356POPC   C4B20002  20.408  13.450   7.664
 1357POPC   NC320003  22.971  40.733   9.464
 1357POPC   PO420004  22.915  40.742   9.164
 1357POPC   GL120005  22.973  40.803   8.864
 1357POPC   GL220006  22.932  40.666   8.864
 1357POPC   C1A20007  22.917  40.808   8.564
 1357POPC   D2A20008  22.983  40.795   8.264
 1357POPC   C3A20009  22.939  40.802   7.964
 1357POPC   C4A20010  22.926  40.806   7.664
 1357POPC   C1B20011  22.919  40.519   8.564
 1357POPC   C2B20012  22.885  40.519   8.264
 1357POPC   C3B20013  22.972  40.581   7.964
 1357POPC   C4B20014  22.943  40.556   7.664
 1358POPC   NC320015  42.291   1.982   9.464
 1358POPC   PO420016  42.367   2.033   9.164
 1358POPC   GL120017  42.324   1.969   8.864
 1358POPC   GL220018  42.359   1.918   8.864
 1358POPC   C1A20019  42.380   1.961   8.564
 1358POPC   D2A20020  42.302   1.984   8.264
 1358POPC   C3A20021  42.311   1.945   7.964
 1358POPC   C4A20022  42.300   1.953   7.664
 1358POPC   C1B20023  42.424   1.787   8.564
 1358POPC   C2B20024  42.477   1.743   8.264
 1358POPC   C3B20025  42.416   1.778   7.964
 1358POPC   C4B20026  42.495   1.729   7.664
 1359POPC   NC320027  27.609  26.821   9.464
 1359POPC   PO420028  27.592  26.831   9.164
 1359POPC   GL120029  27.615  26.837   8.864
 1359POPC   GL220030  27.469  26.772   8.864
 1359POPC   C1A20031  27.566  26.831   8.564
 1359POPC   D2A20032  27.575  26.780   8.264
 1359POPC   C3A20033  27.548  26.817   7.964
 1359POPC   C4A20034  27.619  26.820   7.664
 1359POPC   C1B20035  27.377  26.808   8.564
 1359POPC   C2B20036  27.308  26.824   8.264
 1359POPC   C3B20037  27.318  26.777   7.964
 1359POPC   C4B20038  27.334  26.804   7.664
 1360POPC   NC320039  28.338  35.369   9.464
 1360POPC   PO420040  28.357  35.385   9.164
 1360POPC   GL120041  28.332  35.378   8.864
 1360POPC   GL220042  28.315  35.475   8.864
 1360POPC   C1A20043  28.392  35.401   8.564
 1360POPC   D2A20044  28.352  35.370   8.264
 1360POPC   C3A20045  28.398  35.324   7.964
 1360POPC   C4A20046  28.384  35.348   7.664
 1360POPC   C1B20047  28.337  35.568   8.564
 1360POPC   C2B20048  28.269  35.589   8.264
 1360POPC   C3B20049  28.280  35.583   7.964
 1360POPC   C4B20050  28.362  35.624   7.664
 1361POPC   NC320051  43.089   7.405   9.464
 1361POPC   PO420052  43.100   7.460   9.164
 1361POPC   GL120053  43.089   7.456   8.864
 1361POPC   GL220054  43.185   7.356   8.864
 1361POPC   C1A20055  43.106   7.411   8.564
 1361POPC   D2A20056  43.110   7.465   8.264
 1361POPC   C3A20057  43.090   7.384   7.964
 1361POPC   C4A20058  43.067   7.430   7.664
 1361POPC   C1B20059  43.348   7.306   8.564
 1361POPC   C2B20060  43.307   7.262   8.264
 1361POPC   C3B20061  43.308   7.333   7.964
 1361POPC   C4B20062  43.378   7.329   7.664
 1362POPC   NC320063  19.056  23.726   9.464
 1362POPC   PO420064  19.046  23.682   9.164
 1362POPC   GL120065  19.073  23.727   8.864
 1362POPC   GL220066  19.138  23.623   8.864
 1362POPC   C1A20067  19.073  23.675   8.564
 1362POPC   D2A20068  19.030  23.706   8.264
 1362POPC   C3A20069  19.064  23.764   7.964
 1362POPC   C4A20070  19.027  23.664   7.664
 1362POPC   C1B20071  19.242  23.538   8.564
 1362POPC   C2B20072  19.273  23.594   8.264
 1362POPC   C3B20073  19.237  23.616   7.964
 1362POPC   C4B20074  19.267  23.551   7.664
 1363POPC   NC320075  22.211  43.087   9.464
 1363POPC   PO420076  22.201  43.138   9.164
 1363POPC   GL120077  22.144  43.063   8.864
 1363POPC   GL220078  22.131  43.190   8.864
 1363POPC   C1A20079  22.140  43.099   8.564
 1363POPC   D2A20080  22.176  43.064   8.264
 1363POPC   C3A20081  22.190  43.143   7.964
 1363POPC   C4A20082  22.211  43.090   7.664
 1363POPC   C1B20083  22.111  43.321   8.564
 1363POPC   C2B20084  22.126  43.382   8.264
 1363POPC   C3B20085  22.125  43.366   7.964
 1363POPC   C4B20086  22.185  43.403   7.664
 1364POPC   NC320087   9.721  24.500   9.464
 1364POPC   PO420088   9.702  24.478   9.164
 1364POPC   GL120089   9.779  24.525   8.864
 1364POPC   GL220090   9.789  24.389   8.864
 1364POPC   C1A20091   9.781  24.450   8.564
 1364POPC   D2A20092   9.735  24.474   8.264
 1364POPC   C3A20093   9.776  24.539   7.964
 1364POPC   C4A20094   9.723  24.492   7.664
 1364POPC   C1B20095   9.950  24.287   8.564
 1364POPC   C2B20096   9.888  24.303   8.264
 1364POPC   C3B20097   9.868  24.336   7.964
 1364POPC   C4B20098   9.894  24.276   7.664
 1365POPC   NC320099  29.178  35.377   9.464
 1365POPC   PO420100  29.154  35.387   9.164
 1365POPC   GL120101  29.194  35.397   8.864
 1365POPC   GL220102  29.001  35.435   8.864
 1365POPC   C1A20103  29.122  35.352   8.564
 1365POPC   D2A20104  29.119  35.364   8.264
 1365POPC   C3A20105  29.177  35.308   7.964
 1365POPC   C4A20106  29.154  35.364   7.664
 1365POPC   C1B20107  28.920  35.480   8.564
 1365POPC   C2B20108  28.960  35.523   8.264
 1365POPC   C3B20109  28.911  35.463   7.964
 1365POPC   C4B20110  28.956  35.499   7.664
 1366POPC   NC320111  32.283  43.866   9.464
 1366POPC   PO420112  32.244  43.850   9.164
 1366POPC   GL120113  32.234  43.876   8.864
 1366POPC   GL220114  32.309  43.808   8.864
 1366POPC   C1A20115  32.268  43.877   8.564
 1366POPC   D2A20116  32.288  43.853   8.264
 1366POPC   C3A20117  32.224  43.933   7.964
 1366POPC   C4A20118  32.253  43.905   7.664
 1366POPC   C1B20119  32.283  43.607   8.564
 1366POPC   C2B20120  32.312  43.662   8.264
 1366POPC   C3B20121  32.292  43.644   7.964
 1366POPC   C4B20122  32.270  43.619   7.664
 1367POPC   NC320123   3.504  15.949   9.464
 1367POPC   PO420124   3.540  15.951   9.164
 1367POPC   GL120125   3.515  15.995   8.864
 1367POPC   GL220126   3.618  15.932   8.864
 1367POPC   C1A20127   3.514  15.926   8.564
 1367POPC   D2A20128   3.551  15.996   8.264
 1367POPC   C3A20129   3.506  15.970   7.964
 1367POPC   C4A20130   3.510  15.942   7.664
 1367POPC   C1B20131   3.766  15.980   8.564
 1367POPC   C2B20132   3.764  16.021   8.264
 1367POPC   C3B20133   3.757  16.031   7.964
 1367POPC   C4B20134   3.742  16.037   7.664
 1368POPC   NC320135  38.450  18.327   9.464
 1368POPC   PO420136  38.440  18.303   9.164
 1368POPC   GL120137  38.478  18.306   8.864
 1368POPC   GL220138  38.521  18.211   8.864
 1368POPC   C1A20139  38.440  18.297   8.564
 1368POPC   D2A20140  38.481  18.278   8.264
 1368POPC   C3A20141  38.415  18.264   7.964
 1368POPC   C4A20142  38.423  18.268   7.664
 1368POPC   C1B20143  38.668  18.163   8.564
 1368POPC   C2B20144  38.668  18.082   8.264
 1368POPC   C3B20145  38.604  18.077   7.964
 1368POPC   C4B20146  38.604  18.126   7.664
 1369POPC   NC320147   5.889  26.818   9.464
 1369POPC   PO420148   5.838  26.852   9.164
 1369POPC   GL120149   5.842  26.818   8.864
 1369POPC   GL220150   5.792  26.702   8.864
 1369POPC   C1A20151   5.821  26.830   8.564
 1369POPC   D2A20152   5.874  26.768   8.264
 1369POPC   C3A20153   5.901  26.776   7.964
 1369POPC   C4A20154   5.904  26.818   7.664
 1369POPC   C1B20155   5.767  26.606   8.564
 1369POPC   C2B20156   5.812  26.548   8.264
 1369POPC   C3B20157   5.784  26.612   7.964
 1369POPC   C4B20158   5.749  26.586   7.664
 1370POPC   NC320159  40.799  21.350   9.464
 1370POPC   PO420160  40.753  21.343   9.164
 1370POPC   GL120161  40.784  21.337   8.864
 1370POPC   GL220162  40.853  21.505   8.864
 1370POPC   C1A20163  40.780  21.350   8.564
 1370POPC   D2A20164  40.735  21.366   8.264
 1370POPC   C3A20165  40.817  21.398   7.964
 1370POPC   C4A20166  40.779  21.397   7.664
 1370POPC   C1B20167  40.927  21.611   8.564
 1370POPC   C2B20168  40.954  21.612   8.264
 1370POPC   C3B20169  40.889  21.593   7.964
 1370POPC   C4B20170  40.916  21.542   7.664
 1371POPC   NC320171   6.690  10.526   9.464
 1371POPC   PO420172   6.685  10.479   9.164
 1371POPC   GL120173   6.665  10.549   8.864
 1371POPC   GL220174   6.500  10.556   8.864
 1371POPC   C1A20175   6.621  10.532   8.564
 1371POPC   D2A20176   6.649  10.478   8.264
 1371POPC   C3A20177   6.642  10.478   7.964
 1371POPC   C4A20178   6.612  10.569   7.664
 1371POPC   C1B20179   6.412  10.504   8.564
 1371POPC   C2B20180   6.425  10.507   8.264
 1371POPC   C3B20181   6.355  10.580   7.964
 1371POPC   C4B20182   6.383  10.527   7.664
 1372POPC   NC320183  36.859  36.120   9.464
 1372POPC   PO420184  36.882  36.148   9.164
 1372POPC   GL120185  36.927  36.113   8.864
 1372POPC   GL220186  36.765  36.133   8.864
 1372POPC   C1A20187  36.915  36.105   8.564
 1372POPC   D2A20188  36.936  36.094   8.264
 1372POPC   C3A20189  36.855  36.174   7.964
 1372POPC   C4A20190  36.879  36.118   7.664
 1372POPC   C1B20191  36.638  36.096   8.564
 1372POPC   C2B20192  36.697  36.110   8.264
 1372POPC   C3B20193  36.620  36.052   7.964
 1372POPC   C4B20194  36.662  36.034   7.664
 1373POPC   NC320195   8.245  38.462   9.464
 1373POPC   PO420196   8.199  38.461   9.164
 1373POPC   GL120197   8.180  38.497   8.864
 1373POPC   GL220198   8.113  38.352   8.864
 1373POPC   C1A20199   8.235  38.503   8.564
 1373POPC   D2A20200   8.215  38.435   8.264
 1373POPC   C3A20201   8.179  38.418   7.964
 1373POPC   C4A20202   8.214  38.463   7.664
 1373POPC   C1B20203   7.971  38.357   8.564
 1373POPC   C2B20204   7.968  38.357   8.264
 1373POPC   C3B20205   8.001  38.347   7.964
 1373POPC   C4B20206   7.981  38.299   7.664
 1374POPC   NC320207  27.581  15.916   9.464
 1374POPC   PO420208  27.642  15.973   9.164
 1374POPC   GL120209  27.565  15.912   8.864
 1374POPC   GL220210  27.644  15.910   8.864
 1374POPC   C1A20211  27.634  15.951   8.564
 1374POPC   D2A20212  27.565  16.002   8.264
 1374POPC   C3A20213  27.556  15.961   7.964
 1374POPC   C4A20214  27.602  15.997   7.664
 1374POPC   C1B20215  27.753  15.802   8.564
 1374POPC   C2B20216  27.750  15.753   8.264
 1374POPC   C3B20217  27.801  15.816   7.964
 1374POPC   C4B20218  27.802  15.817   7.664
 1375POPC   NC320219   2.798  25.266   9.464
 1375POPC   PO420220   2.790  25.240   9.164
 1375POPC   GL120221   2.778  25.288   8.864
 1375POPC   GL220222   2.800  25.158   8.864
 1375POPC   C1A20223   2.781  25.309   8.564
 1375POPC   D2A20224   2.752  25.218   8.264
 1375POPC   C3A20225   2.733  25.303   7.964
 1375POPC   C4A20226   2.739  25.279   7.664
 1375POPC   C1B20227   2.897  25.097   8.564
 1375POPC   C2B20228   2.941  25.037   8.264
 1375POPC   C3B20229   2.864  25.016   7.964
 1375POPC   C4B20230   2.927  25.074   7.664
 1376POPC   NC320231  24.452   8.983   9.464
 1376POPC   PO420232  24.473   8.933   9.164
 1376POPC   GL120233  24.521   8.976   8.864
 1376POPC   GL220234  24.352   9.038   8.864
 1376POPC   C1A20235  24.472   9.020   8.564
 1376POPC   D2A20236  24.493   8.957   8.264
 1376POPC   C3A20237  24.523   8.998   7.964
 1376POPC   C4A20238  24.504   8.945   7.664
 1376POPC   C1B20239  24.308   9.065   8.564
 1376POPC   C2B20240  24.244   9.059   8.264
 1376POPC   C3B20241  24.244   9.124   7.964
 1376POPC   C4B20242  24.226   9.045   7.664
 1377POPC   NC320243   8.973  30.712   9.464
 1377POPC   PO420244   8.996  30.691   9.164
 1377POPC   GL120245   8.995  30.650   8.864
 1377POPC   GL220246   9.116  30.793   8.864
 1377POPC   C1A20247   8.986  30.697   8.564
 1377POPC   D2A20248   8.975  30.743   8.264
 1377POPC   C3A20249   9.019  30.688   7.964
 1377POPC   C4A20250   8.997  30.675   7.664
 1377POPC   C1B20251   9.158  30.791   8.564
 1377POPC   C2B20252   9.247  30.769   8.264
 1377POPC   C3B20253   9.230  30.839   7.964
 1377POPC   C4B20254   9.148  30.806   7.664
 1378POPC   NC320255  18.279  13.671   9.464
 1378POPC   PO420256  18.307  13.595   9.164
 1378POPC   GL120257  18.301  13.583   8.864
 1378POPC   GL220258  18.228  13.699   8.864
 1378POPC   C1A20259  18.263  13.631   8.564
 1378POPC   D2A20260  18.314  13.632   8.264
 1378POPC   C3A20261  18.261  13.630   7.964
 1378POPC   C4A20262  18.236  13.668   7.664
 1378POPC   C1B20263  18.127  13.781   8.564
 1378POPC   C2B20264  18.131  13.827   8.264
 1378POPC   C3B20265  18.124  13.799   7.964
 1378POPC   C4B20266  18.157  13.830   7.664
 1379POPC   NC320267   1.174   8.199   9.464
 1379POPC   PO420268   1.172   8.168   9.164
 1379POPC   GL120269   1.188   8.148   8.864
 1379POPC   GL220270   1.354   8.183   8.864
 1379POPC   C1A20271   1.234   8.211   8.564
 1379POPC   D2A20272   1.235   8.159   8.264
 1379POPC   C3A20273   1.174   8.228   7.964
 1379POPC   C4A20274   1.167   8.245   7.664
 1379POPC   C1B20275   1.451   8.059   8.564
 1379POPC   C2B20276   1.381   8.021   8.264
 1379POPC   C3B20277   1.477   8.120   7.964
 1379POPC   C4B20278   1.440   8.099   7.664
 1380POPC   NC320279  44.654  29.193   9.464
 1380POPC   PO420280  44.616  29.103   9.164
 1380POPC   GL120281  44.662  29.154   8.864
 1380POPC   GL220282  44.594  29.301   8.864
 1380POPC   C1A20283  44.675  29.113   8.564
 1380POPC   D2A20284  44.667  29.143   8.264
 1380POPC   C3A20285  44.660  29.162   7.964
 1380POPC   C4A20286  44.649  29.157   7.664
 1380POPC   C1B20287  44.571  29.406   8.564
 1380POPC   C2B20288  44.574  29.346   8.264
 1380POPC   C3B20289  44.573  29.386   7.964
 1380POPC   C4B20290  44.598  29.379   7.664
 1381POPC   NC320291  13.649  21.409   9.464
 1381POPC   PO420292  13.670  21.395   9.164
 1381POPC   GL120293  13.598  21.351   8.864
 1381POPC   GL220294  13.531  21.409   8.864
 1381POPC   C1A20295  13.667  21.427   8.564
 1381POPC   D2A20296  13.656  21.377   8.264
 1381POPC   C3A20297  13.611  21.360   7.964
 1381POPC   C4A20298  13.660  21.393   7.664
 1381POPC   C1B20299  13.392  21.486   8.564
 1381POPC   C2B20300  13.447  21.477   8.264
 1381POPC   C3B20301  13.412  21.529   7.964
 1381POPC   C4B20302  13.410  21.473   7.664
 1382POPC   NC320303  33.007  24.502   9.464
 1382POPC   PO420304  33.051  24.450   9.164
 1382POPC   GL120305  33.022  24.493   8.864
 1382POPC   GL220306  33.168  24.429   8.864
 1382POPC   C1A20307  33.009  24.525   8.564
 1382POPC   D2A20308  33.045  24.495   8.264
 1382POPC   C3A20309  33.043  24.452   7.964
 1382POPC   C4A20310  32.980  24.515   7.664
 1382POPC   C1B20311  33.212  24.306   8.564
 1382POPC   C2B20312  33.184  24.333   8.264
 1382POPC   C3B20313  33.187  24.339   7.964
 1382POPC   C4B20314  33.182  24.387   7.664
 1383POPC   NC320315   9.002  26.866   9.464
 1383POPC   PO420316   8.984  26.770   9.164
 1383POPC   GL120317   8.965  26.867   8.864
 1383POPC   GL220318   8.834  26.744   8.864
 1383POPC   C1A20319   8.956  26.862   8.564
 1383POPC   D2A20320   8.995  26.781   8.264
 1383POPC   C3A20321   9.020  26.847   7.964
 1383POPC   C4A20322   8.926  26.860   7.664
 1383POPC   C1B20323   8.779  26.652   8.564
 1383POPC   C2B20324   8.710  26.660   8.264
 1383POPC   C3B20325   8.729  26.724   7.964
 1383POPC   C4B20326   8.723  26.680   7.664
 1384POPC   NC320327  29.153  26.784   9.464
 1384POPC   PO420328  29.172  26.808   9.164
 1384POPC   GL120329  29.132  26.835   8.864
 1384POPC   GL220330  29.034  26.810   8.864
 1384POPC   C1A20331  29.119  26.786   8.564
 1384POPC   D2A20332  29.126  26.835   8.264
 1384POPC   C3A20333  29.119  26.786   7.964
 1384POPC   C4A20334  29.171  26.825   7.664
 1384POPC   C1B20335  28.870  26.828   8.564
 1384POPC   C2B20336  28.885  26.868   8.264
 1384POPC   C3B20337  28.943  26.845   7.964
 1384POPC   C4B20338  28.875  26.885   7.664
 1385POPC   NC320339   3.583   7.424   9.464
 1385POPC   PO420340   3.581   7.394   9.164
 1385POPC   GL120341   3.513   7.383   8.864
 1385POPC   GL220342   3.498   7.500   8.864
 1385POPC   C1A20343   3.543   7.409   8.564
 1385POPC   D2A20344   3.544   7.458   8.264
 1385POPC   C3A20345   3.528   7.386   7.964
 1385POPC   C4A20346   3.527   7.373   7.664
 1385POPC   C1B20347   3.498   7.655   8.564
 1385POPC   C2B20348   3.523   7.663   8.264
 1385POPC   C3B20349   3.490   7.704   7.964
 1385POPC   C4B20350   3.481   7.671   7.664
 1386POPC   NC320351  22.910  41.595   9.464
 1386POPC   PO420352  22.962  41.544   9.164
 1386POPC   GL120353  22.930  41.558   8.864
 1386POPC   GL220354  22.932  41.691   8.864
 1386POPC   C1A20355  22.946  41.558   8.564
 1386POPC   D2A20356  22.917  41.582   8.264
 1386POPC   C3A20357  22.917  41.547   7.964
 1386POPC   C4A20358  22.960  41.597   7.664
 1386POPC   C1B20359  22.966  41.783   8.564
 1386POPC   C2B20360  23.017  41.844   8.264
 1386POPC   C3B20361  22.995  41.767   7.964
 1386POPC   C4B20362  22.992  41.849   7.664
 1387POPC   NC320363  25.232  43.930   9.464
 1387POPC   PO420364  25.259  43.932   9.164
 1387POPC   GL120365  25.271  43.839   8.864
 1387POPC   GL220366  25.258  43.723   8.864
 1387POPC   C1A20367  25.292  43.873   8.564
 1387POPC   D2A20368  25.250  43.882   8.264
 1387POPC   C3A20369  25.263  43.869   7.964
 1387POPC   C4A20370  25.285  43.918   7.664
 1387POPC   C1B20371  25.271  43.631   8.564
 1387POPC   C2B20372  25.290  43.623   8.264
 1387POPC   C3B20373  25.280  43.677   7.964
 1387POPC   C4B20374  25.252  43.617   7.664
 1388POPC   NC320375  29.158  27.621   9.464
 1388POPC   PO420376  29.108  27.567   9.164
 1388POPC   GL120377  29.117  27.558   8.864
 1388POPC   GL220378  29.222  27.655   8.864
 1388POPC   C1A20379  29.151  27.544   8.564
 1388POPC   D2A20380  29.180  27.562   8.264
 1388POPC   C3A20381  29.118  27.567   7.964
 1388POPC   C4A20382  29.118  27.635   7.664
 1388POPC   C1B20383  29.391  27.767   8.564
 1388POPC   C2B20384  29.381  27.739   8.264
 1388POPC   C3B20385  29.330  27.708   7.964
 1388POPC   C4B20386  29.312  27.750   7.664
 1389POPC   NC320387   6.627  43.836   9.464
 1389POPC   PO420388   6.605  43.889   9.164
 1389POPC   GL120389   6.650  43.897   8.864
 1389POPC   GL220390   6.522  43.830   8.864
 1389POPC   C1A20391   6.667  43.891   8.564
 1389POPC   D2A20392   6.614  43.846   8.264
 1389POPC   C3A20393   6.631  43.855   7.964
 1389POPC   C4A20394   6.642  43.927   7.664
 1389POPC   C1B20395   6.434  43.871   8.564
 1389POPC   C2B20396   6.410  43.889   8.264
 1389POPC   C3B20397   6.361  43.836   7.964
 1389POPC   C4B20398   6.387  43.833   7.664
 1390POPC   NC320399   4.328   5.848   9.464
 1390POPC   PO420400   4.346   5.827   9.164
 1390POPC   GL120401   4.336   5.832   8.864
 1390POPC   GL220402   4.275   5.781   8.864
 1390POPC   C1A20403   4.326   5.894   8.564
 1390POPC   D2A20404   4.291   5.871   8.264
 1390POPC   C3A20405   4.315   5.842   7.964
 1390POPC   C4A20406   4.312   5.917   7.664
 1390POPC   C1B20407   4.108   5.714   8.564
 1390POPC   C2B20408   4.177   5.694   8.264
 1390POPC   C3B20409   4.155   5.715   7.964
 1390POPC   C4B20410   4.155   5.730   7.664
 1391POPC   NC320411  22.163   5.062   9.464
 1391POPC   PO420412  22.186   5.053   9.164
 1391POPC   GL120413  22.132   5.121   8.864
 1391POPC   GL220414  22.151   5.015   8.864
 1391POPC   C1A20415  22.186   5.057   8.564
 1391POPC   D2A20416  22.137   5.132   8.264
 1391POPC   C3A20417  22.137   5.090   7.964
 1391POPC   C4A20418  22.162   5.066   7.664
 1391POPC   C1B20419  22.109   4.895   8.564
 1391POPC   C2B20420  22.123   4.843   8.264
 1391POPC   C3B20421  22.040   4.827   7.964
 1391POPC   C4B20422  22.112   4.809   7.664
 1392POPC   NC320423  37.703   8.158   9.464
 1392POPC   PO420424  37.685   8.175   9.164
 1392POPC   GL120425  37.638   8.240   8.864
 1392POPC   GL220426  37.768   8.083   8.864
 1392POPC   C1A20427  37.685   8.167   8.564
 1392POPC   D2A20428  37.663   8.183   8.264
 1392POPC   C3A20429  37.671   8.212   7.964
 1392POPC   C4A20430  37.640   8.237   7.664
 1392POPC   C1B20431  37.866   7.956   8.564
 1392POPC   C2B20432  37.850   7.981   8.264
 1392POPC   C3B20433  37.796   7.958   7.964
 1392POPC   C4B20434  37.787   7.955   7.664
 1393POPC   NC320435  44.650  25.282   9.464
 1393POPC   PO420436  44.698  25.303   9.164
 1393POPC   GL120437  44.698  25.302   8.864
 1393POPC   GL220438  44.772  25.309   8.864
 1393POPC   C1A20439  44.626  25.271   8.564
 1393POPC   D2A20440  44.650  25.302   8.264
 1393POPC   C3A20441  44.643  25.225   7.964
 1393POPC   C4A20442  44.658  25.260   7.664
 1393POPC   C1B20443  44.897  25.334   8.564
 1393POPC   C2B20444  44.925  25.291   8.264
 1393POPC   C3B20445  44.895  25.327   7.964
 1393POPC   C4B20446  44.917  25.247   7.664
 1394POPC   NC320447  43.838  35.322   9.464
 1394POPC   PO420448  43.873  35.337   9.164
 1394POPC   GL120449  43.907  35.358   8.864
 1394POPC   GL220450  43.804  35.446   8.864
 1394POPC   C1A20451  43.927  35.355   8.564
 1394POPC   D2A20452  43.878  35.324   8.264
 1394POPC   C3A20453  43.851  35.373   7.964
 1394POPC   C4A20454  43.935  35.347   7.664
 1394POPC   C1B20455  43.653  35.513   8.564
 1394POPC   C2B20456  43.723  35.563   8.264
 1394POPC   C3B20457  43.734  35.556   7.964
 1394POPC   C4B20458  43.748  35.540   7.664
 1395POPC   NC320459  41.604  25.302   9.464
 1395POPC   PO420460  41.580  25.238   9.164
 1395POPC   GL120461  41.532  25.237   8.864
 1395POPC   GL220462  41.649  25.340   8.864
 1395POPC   C1A20463  41.577  25.307   8.564
 1395POPC   D2A20464  41.566  25.300   8.264
 1395POPC   C3A20465  41.566  25.291   7.964
 1395POPC   C4A20466  41.592  25.277   7.664
 1395POPC   C1B20467  41.782  25.422   8.564
 1395POPC   C2B20468  41.752  25.461   8.264
 1395POPC   C3B20469  41.769  25.460   7.964
 1395POPC   C4B20470  41.739  25.466   7.664
 1396POPC   NC320471  14.372  18.325   9.464
 1396POPC   PO420472  14.408  18.256   9.164
 1396POPC   GL120473  14.409  18.250   8.864
 1396POPC   GL220474  14.249  18.283   8.864
 1396POPC   C1A20475  14.390  18.303   8.564
 1396POPC   D2A20476  14.452  18.268   8.264
 1396POPC   C3A20477  14.439  18.332   7.964
 1396POPC   C4A20478  14.408  18.311   7.664
 1396POPC   C1B20479  14.126  18.247   8.564
 1396POPC   C2B20480  14.206  18.248   8.264
 1396POPC   C3B20481  14.139  18.203   7.964
 1396POPC   C4B20482  14.125  18.262   7.664
 1397POPC   NC320483  40.029  28.389   9.464
 1397POPC   PO420484  40.046  28.330   9.164
 1397POPC   GL120485  40.044  28.384   8.864
 1397POPC   GL220486  40.072  28.506   8.864
 1397POPC   C1A20487  39.981  28.408   8.564
 1397POPC   D2A20488  40.048  28.329   8.264
 1397POPC   C3A20489  40.018  28.386   7.964
 1397POPC   C4A20490  39.976  28.415   7.664
 1397POPC   C1B20491  40.152  28.536   8.564
 1397POPC   C2B20492  40.127  28.545   8.264
 1397POPC   C3B20493  40.156  28.542   7.964
 1397POPC   C4B20494  40.197  28.549   7.664
 1398POPC   NC320495  27.553  27.587   9.464
 1398POPC   PO420496  27.631  27.637   9.164
 1398POPC   GL120497  27.612  27.583   8.864
 1398POPC   GL220498  27.688  27.481   8.864
 1398POPC   C1A20499  27.626  27.576   8.564
 1398POPC   D2A20500  27.609  27.587   8.264
 1398POPC   C3A20501  27.545  27.617   7.964
 1398POPC   C4A20502  27.631  27.609   7.664
 1398POPC   C1B20503  27.756  27.415   8.564
 1398POPC   C2B20504  27.692  27.398   8.264
 1398POPC   C3B20505  27.755  27.358   7.964
 1398POPC   C4B20506  27.727  27.431   7.664
 1399POPC   NC320507  41.558  37.701   9.464
 1399POPC   PO420508  41.572  37.708   9.164
 1399POPC   GL120509  41.520  37.704   8.864
 1399POPC   GL220510  41.725  37.742   8.864
 1399POPC   C1A20511  41.510  37.668   8.564
 1399POPC   D2A20512  41.552  37.695   8.264
 1399POPC   C3A20513  41.538  37.726   7.964
 1399POPC   C4A20514  41.517  37.674   7.664
 1399POPC   C1B20515  41.779  37.695   8.564
 1399POPC   C2B20516  41.828  37.723   8.264
 1399POPC   C3B20517  41.754  37.760   7.964
 1399POPC   C4B20518  41.766  37.728   7.664
 1400POPC   NC320519   5.080   0.461   9.464
 1400POPC   PO420520   5.046   0.466   9.164
 1400POPC   GL120521   5.078   0.392   8.864
 1400POPC   GL220522   5.170   0.339   8.864
 1400POPC   C1A20523   5.112   0.412   8.564
 1400POPC   D2A20524   5.064   0.412   8.264
 1400POPC   C3A20525   5.059   0.396   7.964
 1400POPC   C4A20526   5.139   0.464   7.664
 1400POPC   C1B20527   5.161   0.221   8.564
 1400POPC   C2B20528   5.173   0.243   8.264
 1400POPC   C3B20529   5.169   0.221   7.964
 1400POPC   C4B20530   5.178   0.169   7.664
 1401POPC   NC320531  41.544  12.032   9.464
 1401POPC   PO420532  41.560  12.101   9.164
 1401POPC   GL120533  41.526  12.062   8.864
 1401POPC   GL220534  41.522  11.986   8.864
 1401POPC   C1A20535  41.533  12.116   8.564
 1401POPC   D2A20536  41.578  12.103   8.264
 1401POPC   C3A20537  41.547  12.041   7.964
 1401POPC   C4A20538  41.570  12.039   7.664
 1401POPC   C1B20539  41.481  11.884   8.564
 1401POPC   C2B20540  41.392  11.810   8.264
 1401POPC   C3B20541  41.477  11.828   7.964
 1401POPC   C4B20542  41.463  11.861   7.664
 1402POPC   NC320543  14.371   6.693   9.464
 1402POPC   PO420544  14.396   6.623   9.164
 1402POPC   GL120545  14.395   6.657   8.864
 1402POPC   GL220546  14.333   6.797   8.864
 1402POPC   C1A20547  14.390   6.678   8.564
 1402POPC   D2A20548  14.397   6.639   8.264
 1402POPC   C3A20549  14.358   6.646   7.964
 1402POPC   C4A20550  14.431   6.604   7.664
 1402POPC   C1B20551  14.371   6.839   8.564
 1402POPC   C2B20552  14.332   6.921   8.264
 1402POPC   C3B20553  14.272   6.861   7.964
 1402POPC   C4B20554  14.297   6.849   7.664
 1403POPC   NC320555  38.431  43.096   9.464
 1403POPC   PO420556  38.455  43.140   9.164
 1403POPC   GL120557  38.409  43.093   8.864
 1403POPC   GL220558  38.317  43.113   8.864
 1403POPC   C1A20559  38.405  43.086   8.564
 1403POPC   D2A20560  38.447  43.145   8.264
 1403POPC   C3A20561  38.445  43.096   7.964
 1403POPC   C4A20562  38.470  43.093   7.664
 1403POPC   C1B20563  38.200  43.206   8.564
 1403POPC   C2B20564  38.214  43.154   8.264
 1403POPC   C3B20565  38.245  43.241   7.964
 1403POPC   C4B20566  38.230  43.176   7.664
 1404POPC   NC320567   9.783  30.692   9.464
 1404POPC   PO420568   9.726  30.647   9.164
 1404POPC   GL120569   9.717  30.673   8.864
 1404POPC   GL220570   9.642  30.669   8.864
 1404POPC   C1A20571   9.715  30.742   8.564
 1404POPC   D2A20572   9.708  30.692   8.264
 1404POPC   C3A20573   9.776  30.649   7.964
 1404POPC   C4A20574   9.744  30.650   7.664
 1404POPC   C1B20575   9.487  30.575   8.564
 1404POPC   C2B20576   9.554  30.627   8.264
 1404POPC   C3B20577   9.558  30.641   7.964
 1404POPC   C4B20578   9.541  30.595   7.664
 1405POPC   NC320579  30.685  29.912   9.464
 1405POPC   PO420580  30.670  29.969   9.164
 1405POPC   GL120581  30.727  29.879   8.864
 1405POPC   GL220582  30.814  29.914   8.864
 1405POPC   C1A20583  30.651  29.877   8.564
 1405POPC   D2A20584  30.693  29.940   8.264
 1405POPC   C3A20585  30.699  29.953   7.964
 1405POPC   C4A20586  30.681  29.955   7.664
 1405POPC   C1B20587  30.935  29.854   8.564
 1405POPC   C2B20588  30.971  29.903   8.264
 1405POPC   C3B20589  30.902  29.930   7.964
 1405POPC   C4B20590  30.947  29.941   7.664
 1406POPC   NC320591  15.133  42.329   9.464
 1406POPC   PO420592  15.169  42.314   9.164
 1406POPC   GL120593  15.180  42.321   8.864
 1406POPC   GL220594  15.210  42.215   8.864
 1406POPC   C1A20595  15.226  42.347   8.564
 1406POPC   D2A20596  15.141  42.328   8.264
 1406POPC   C3A20597  15.168  42.352   7.964
 1406POPC   C4A20598  15.152  42.303   7.664
 1406POPC   C1B20599  15.181  42.101   8.564
 1406POPC   C2B20600  15.251  42.049   8.264
 1406POPC   C3B20601  15.207  42.055   7.964
 1406POPC   C4B20602  15.207  42.094   7.664
 1407POPC   NC320603  37.722  11.297   9.464
 1407POPC   PO420604  37.663  11.252   9.164
 1407POPC   GL120605  37.694  11.268   8.864
 1407POPC   GL220606  37.794  11.212   8.864
 1407POPC   C1A20607  37.708  11.290   8.564
 1407POPC   D2A20608  37.688  11.342   8.264
 1407POPC   C3A20609  37.637  11.250   7.964
 1407POPC   C4A20610  37.681  11.288   7.664
 1407POPC   C1B20611  37.804  11.064   8.564
 1407POPC   C2B20612  37.829  11.042   8.264
 1407POPC   C3B20613  37.828  11.062   7.964
 1407POPC   C4B20614  37.861  11.065   7.664
 1408POPC   NC320615   5.902  16.690   9.464
 1408POPC   PO420616   5.889  16.699   9.164
 1408POPC   GL120617   5.897  16.719   8.864
 1408POPC   GL220618   5.858  16.636   8.864
 1408POPC   C1A20619   5.901  16.756   8.564
 1408POPC   D2A20620   5.856  16.758   8.264
 1408POPC   C3A20621   5.870  16.693   7.964
 1408POPC   C4A20622   5.869  16.744   7.664
 1408POPC   C1B20623   5.912  16.520   8.564
 1408POPC   C2B20624   5.884  16.505   8.264
 1408POPC   C3B20625   5.905  16.444   7.964
 1408POPC   C4B20626   5.937  16.472   7.664
 1409POPC   NC320627  44.644  20.612   9.464
 1409POPC   PO420628  44.689  20.635   9.164
 1409POPC   GL120629  44.700  20.636   8.864
 1409POPC   GL220630  44.723  20.699   8.864
 1409POPC   C1A20631  44.639  20.643   8.564
 1409POPC   D2A20632  44.637  20.642   8.264
 1409POPC   C3A20633  44.627  20.647   7.964
 1409POPC   C4A20634  44.651  20.565   7.664
 1409POPC   C1B20635  44.878  20.780   8.564
 1409POPC   C2B20636  44.876  20.758   8.264
 1409POPC   C3B20637  44.854  20.795   7.964
 1409POPC   C4B20638  44.863  20.732   7.664
 1410POPC   NC320639  39.240  43.906   9.464
 1410POPC   PO420640  39.258  43.855   9.164
 1410POPC   GL120641  39.260  43.856   8.864
 1410POPC   GL220642  39.375  43.864   8.864
 1410POPC   C1A20643  39.274  43.917   8.564
 1410POPC   D2A20644  39.234  43.931   8.264
 1410POPC   C3A20645  39.241  43.910   7.964
 1410POPC   C4A20646  39.221  43.920   7.664
 1410POPC   C1B20647  39.449  43.862   8.564
 1410POPC   C2B20648  39.454  43.905   8.264
 1410POPC   C3B20649  39.530  43.911   7.964
 1410POPC   C4B20650  39.515  43.882   7.664
 1411POPC   NC320651  42.358  19.835   9.464
 1411POPC   PO420652  42.305  19.841   9.164
 1411POPC   GL120653  42.330  19.819   8.864
 1411POPC   GL220654  42.177  19.844   8.864
 1411POPC   C1A20655  42.378  19.878   8.564
 1411POPC   D2A20656  42.347  19.876   8.264
 1411POPC   C3A20657  42.365  19.853   7.964
 1411POPC   C4A20658  42.332  19.811   7.664
 1411POPC   C1B20659  42.080  19.773   8.564
 1411POPC   C2B20660  42.080  19.814   8.264
 1411POPC   C3B20661  42.110  19.787   7.964
 1411POPC   C4B20662  42.120  19.794   7.664
 1412POPC   NC320663   4.349  21.357   9.464
 1412POPC   PO420664   4.350  21.360   9.164
 1412POPC   GL120665   4.271  21.420   8.864
 1412POPC   GL220666   4.304  21.305   8.864
 1412POPC   C1A20667   4.347  21.362   8.564
 1412POPC   D2A20668   4.343  21.396   8.264
 1412POPC   C3A20669   4.269  21.422   7.964
 1412POPC   C4A20670   4.300  21.418   7.664
 1412POPC   C1B20671   4.184  21.172   8.564
 1412POPC   C2B20672   4.223  21.142   8.264
 1412POPC   C3B20673   4.242  21.162   7.964
 1412POPC   C4B20674   4.189  21.154   7.664
 1413POPC   NC320675  14.366  42.356   9.464
 1413POPC   PO420676  14.426  42.346   9.164
 1413POPC   GL120677  14.374  42.323   8.864
 1413POPC   GL220678  14.459  42.420   8.864
 1413POPC   C1A20679  14.424  42.383   8.564
 1413POPC   D2A20680  14.380  42.307   8.264
 1413POPC   C3A20681  14.370  42.301   7.964
 1413POPC   C4A20682  14.373  42.314   7.664
 1413POPC   C1B20683  14.579  42.555   8.564
 1413POPC   C2B20684  14.563  42.522   8.264
 1413POPC   C3B20685  14.513  42.511   7.964
 1413POPC   C4B20686  14.572  42.518   7.664
 1414POPC   NC320687  17.493   4.317   9.464
 1414POPC   PO420688  17.478   4.354   9.164
 1414POPC   GL120689  17.499   4.360   8.864
 1414POPC   GL220690  17.415   4.226   8.864
 1414POPC   C1A20691  17.494   4.268   8.564
 1414POPC   D2A20692  17.462   4.333   8.264
 1414POPC   C3A20693  17.484   4.305   7.964
 1414POPC   C4A20694  17.490   4.327   7.664
 1414POPC   C1B20695  17.389   4.097   8.564
 1414POPC   C2B20696  17.398   4.131   8.264
 1414POPC   C3B20697  17.412   4.081   7.964
 1414POPC   C4B20698  17.461   4.043   7.664
 1415POPC   NC320699  19.797  13.671   9.464
 1415POPC   PO420700  19.844  13.670   9.164
 1415POPC   GL120701  19.806  13.619   8.864
 1415POPC   GL220702  19.733  13.472   8.864
 1415POPC   C1A20703  19.874  13.665   8.564
 1415POPC   D2A20704  19.824  13.597   8.264
 1415POPC   C3A20705  19.874  13.659   7.964
 1415POPC   C4A20706  19.868  13.652   7.664
 1415POPC   C1B20707  19.768  13.431   8.564
 1415POPC   C2B20708  19.763  13.368   8.264
 1415POPC   C3B20709  19.679  13.390   7.964
 1415POPC   C4B20710  19.692  13.365   7.664
 1416POPC   NC320711  29.928  16.703   9.464
 1416POPC   PO420712  29.910  16.756   9.164
 1416POPC   GL120713  29.917  16.773   8.864
 1416POPC   GL220714  30.071  16.701   8.864
 1416POPC   C1A20715  29.875  16.709   8.564
 1416POPC   D2A20716  29.944  16.781   8.264
 1416POPC   C3A20717  29.960  16.696   7.964
 1416POPC   C4A20718  29.871  16.775   7.664
 1416POPC   C1B20719  30.099  16.599   8.564
 1416POPC   C2B20720  30.114  16.604   8.264
 1416POPC   C3B20721  30.145  16.647   7.964
 1416POPC   C4B20722  30.189  16.582   7.664
 1417POPC   NC320723  24.526   8.166   9.464
 1417POPC   PO420724  24.487   8.188   9.164
 1417POPC   GL120725  24.478   8.199   8.864
 1417POPC   GL220726  24.569   8.230   8.864
 1417POPC   C1A20727  24.462   8.175   8.564
 1417POPC   D2A20728  24.521   8.208   8.264
 1417POPC   C3A20729  24.503   8.210   7.964
 1417POPC   C4A20730  24.457   8.245   7.664
 1417POPC   C1B20731  24.761   8.162   8.564
 1417POPC   C2B20732  24.761   8.184   8.264
 1417POPC   C3B20733  24.772   8.158   7.964
 1417POPC   C4B20734  24.777   8.240   7.664
 1418POPC   NC320735  42.311  24.518   9.464
 1418POPC   PO420736  42.368  24.450   9.164
 1418POPC   GL120737  42.313  24.471   8.864
 1418POPC   GL220738  42.352  24.378   8.864
 1418POPC   C1A20739  42.318  24.476   8.564
 1418POPC   D2A20740  42.358  24.512   8.264
 1418POPC   C3A20741  42.298  24.464   7.964
 1418POPC   C4A20742  42.382  24.488   7.664
 1418POPC   C1B20743  42.459  24.236   8.564
 1418POPC   C2B20744  42.437  24.214   8.264
 1418POPC   C3B20745  42.419  24.308   7.964
 1418POPC   C4B20746  42.478  24.268   7.664
 1419POPC   NC320747  43.845  44.642   9.464
 1419POPC   PO420748  43.898  44.684   9.164
 1419POPC   GL120749  43.841  44.704   8.864
 1419POPC   GL220750  44.037  44.632   8.864
 1419POPC   C1A20751  43.842  44.674   8.564
 1419POPC   D2A20752  43.899  44.660   8.264
 1419POPC   C3A20753  43.911  44.658   7.964
 1419POPC   C4A20754  43.872  44.641   7.664
 1419POPC   C1B20755  44.160  44.544   8.564
 1419POPC   C2B20756  44.067  44.536   8.264
 1419POPC   C3B20757  44.114  44.607   7.964
 1419POPC   C4B20758  44.112  44.542   7.664
 1420POPC   NC320759  21.351   5.896   9.464
 1420POPC   PO420760  21.396   5.910   9.164
 1420POPC   GL120761  21.358   5.882   8.864
 1420POPC   GL220762  21.377   5.787   8.864
 1420POPC   C1A20763  21.416   5.893   8.564
 1420POPC   D2A20764  21.379   5.879   8.264
 1420POPC   C3A20765  21.369   5.871   7.964
 1420POPC   C4A20766  21.366   5.885   7.664
 1420POPC   C1B20767  21.378   5.601   8.564
 1420POPC   C2B20768  21.391   5.592   8.264
 1420POPC   C3B20769  21.435   5.651   7.964
 1420POPC   C4B20770  21.402   5.639   7.664
 1421POPC   NC320771  19.843  39.206   9.464
 1421POPC   PO420772  19.814  39.264   9.164
 1421POPC   GL120773  19.788  39.189   8.864
 1421POPC   GL220774  19.674  39.336   8.864
 1421POPC   C1A20775  19.824  39.267   8.564
 1421POPC   D2A20776  19.861  39.251   8.264
 1421POPC   C3A20777  19.825  39.208   7.964
 1421POPC   C4A20778  19.878  39.227   7.664
 1421POPC   C1B20779  19.644  39.342   8.564
 1421POPC   C2B20780  19.597  39.326   8.264
 1421POPC   C3B20781  19.562  39.367   7.964
 1421POPC   C4B20782  19.568  39.343   7.664
 1422POPC   NC320783  22.202  36.890   9.464
 1422POPC   PO420784  22.154  36.870   9.164
 1422POPC   GL120785  22.192  36.873   8.864
 1422POPC   GL220786  22.176  36.799   8.864
 1422POPC   C1A20787  22.123  36.898   8.564
 1422POPC   D2A20788  22.151  36.918   8.264
 1422POPC   C3A20789  22.156  36.896   7.964
 1422POPC   C4A20790  22.168  36.952   7.664
 1422POPC   C1B20791  22.308  36.683   8.564
 1422POPC   C2B20792  22.305  36.704   8.264
 1422POPC   C3B20793  22.286  36.701   7.964
 1422POPC   C4B20794  22.324  36.661   7.664
 1423POPC   NC320795  16.771  18.284   9.464
 1423POPC   PO420796  16.776  18.289   9.164
 1423POPC   GL120797  16.744  18.326   8.864
 1423POPC   GL220798  16.676  18.223   8.864
 1423POPC   C1A20799  16.752  18.296   8.564
 1423POPC   D2A20800  16.780  18.309   8.264
 1423POPC   C3A20801  16.774  18.329   7.964
 1423POPC   C4A20802  16.753  18.320   7.664
 1423POPC   C1B20803  16.505  18.101   8.564
 1423POPC   C2B20804  16.531  18.097   8.264
 1423POPC   C3B20805  16.536  18.108   7.964
 1423POPC   C4B20806  16.548  18.119   7.664
 1424POPC   NC320807  36.909  42.380   9.464
 1424POPC   PO420808  36.940  42.345   9.164
 1424POPC   GL120809  36.855  42.306   8.864
 1424POPC   GL220810  36.827  42.237   8.864
 1424POPC   C1A20811  36.876  42.287   8.564
 1424POPC   D2A20812  36.951  42.337   8.264
 1424POPC   C3A20813  36.854  42.362   7.964
 1424POPC   C4A20814  36.876  42.317   7.664
 1424POPC   C1B20815  36.710  42.139   8.564
 1424POPC   C2B20816  36.698  42.113   8.264
 1424POPC   C3B20817  36.791  42.163   7.964
 1424POPC   C4B20818  36.781  42.174   7.664
 1425POPC   NC320819  18.251  35.338   9.464
 1425POPC   PO420820  18.268  35.349   9.164
 1425POPC   GL120821  18.237  35.397   8.864
 1425POPC   GL220822  18.147  35.334   8.864
 1425POPC   C1A20823  18.306  35.367   8.564
 1425POPC   D2A20824  18.277  35.361   8.264
 1425POPC   C3A20825  18.300  35.316   7.964
 1425POPC   C4A20826  18.303  35.393   7.664
 1425POPC   C1B20827  18.055  35.254   8.564
 1425POPC   C2B20828  18.118  35.188   8.264
 1425POPC   C3B20829  18.087  35.222   7.964
 1425POPC   C4B20830  18.030  35.214   7.664
 1426POPC   NC320831  37.724  12.901   9.464
 1426POPC   PO420832  37.659  12.886   9.164
 1426POPC   GL120833  37.669  12.886   8.864
 1426POPC   GL220834  37.816  12.859   8.864
 1426POPC   C1A20835  37.654  12.833   8.564
 1426POPC   D2A20836  37.710  12.836   8.264
 1426POPC   C3A20837  37.634  12.814   7.964
 1426POPC   C4A20838  37.716  12.825   7.664
 1426POPC   C1B20839  37.930  12.829   8.564
 1426POPC   C2B20840  37.956  12.912   8.264
 1426POPC   C3B20841  37.952  12.874   7.964
 1426POPC   C4B20842  37.882  12.892   7.664
 1427POPC   NC320843   1.991  22.950   9.464
 1427POPC   PO420844   2.020  22.980   9.164
 1427POPC   GL120845   1.974  22.896   8.864
 1427POPC   GL220846   2.077  22.898   8.864
 1427POPC   C1A20847   1.948  22.975   8.564
 1427POPC   D2A20848   2.006  22.965   8.264
 1427POPC   C3A20849   2.034  22.932   7.964
 1427POPC   C4A20850   2.031  22.960   7.664
 1427POPC   C1B20851   2.258  22.922   8.564
 1427POPC   C2B20852   2.208  22.909   8.264
 1427POPC   C3B20853   2.259  22.914   7.964
 1427POPC   C4B20854   2.257  22.903   7.664
 1428POPC   NC320855  41.510  40.010   9.464
 1428POPC   PO420856  41.568  39.972   9.164
 1428POPC   GL120857  41.511  39.970   8.864
 1428POPC   GL220858  41.541  40.106   8.864
 1428POPC   C1A20859  41.545  39.982   8.564
 1428POPC   D2A20860  41.608  40.027   8.264
 1428POPC   C3A20861  41.528  40.012   7.964
 1428POPC   C4A20862  41.561  39.975   7.664
 1428POPC   C1B20863  41.592  40.268   8.564
 1428POPC   C2B20864  41.574  40.292   8.264
 1428POPC   C3B20865  41.598  40.254   7.964
 1428POPC   C4B20866  41.598  40.293   7.664
 1429POPC   NC320867   8.936  34.588   9.464
 1429POPC   PO420868   8.994  34.598   9.164
 1429POPC   GL120869   8.987  34.560   8.864
 1429POPC   GL220870   9.048  34.557   8.864
 1429POPC   C1A20871   8.947  34.575   8.564
 1429POPC   D2A20872   8.973  34.549   8.264
 1429POPC   C3A20873   8.946  34.601   7.964
 1429POPC   C4A20874   8.949  34.554   7.664
 1429POPC   C1B20875   9.168  34.651   8.564
 1429POPC   C2B20876   9.219  34.630   8.264
 1429POPC   C3B20877   9.262  34.656   7.964
 1429POPC   C4B20878   9.191  34.586   7.664
 1430POPC   NC320879  30.731  15.949   9.464
 1430POPC   PO420880  30.738  15.928   9.164
 1430POPC   GL120881  30.685  15.915   8.864
 1430POPC   GL220882  30.788  15.942   8.864
 1430POPC   C1A20883  30.729  15.943   8.564
 1430POPC   D2A20884  30.694  15.997   8.264
 1430POPC   C3A20885  30.700  15.912   7.964
 1430POPC   C4A20886  30.667  15.995   7.664
 1430POPC   C1B20887  30.990  15.944   8.564
 1430POPC   C2B20888  30.912  15.918   8.264
 1430POPC   C3B20889  30.970  15.897   7.964
 1430POPC   C4B20890  30.944  15.917   7.664
 1431POPC   NC320891   6.613  44.660   9.464
 1431POPC   PO420892   6.660  44.651   9.164
 1431POPC   GL120893   6.672  44.655   8.864
 1431POPC   GL220894   6.680  44.580   8.864
 1431POPC   C1A20895   6.675  44.635   8.564
 1431POPC   D2A20896   6.691  44.710   8.264
 1431POPC   C3A20897   6.614  44.657   7.964
 1431POPC   C4A20898   6.629  44.668   7.664
 1431POPC   C1B20899   6.595  44.460   8.564
 1431POPC   C2B20900   6.665  44.374   8.264
 1431POPC   C3B20901   6.646  44.401   7.964
 1431POPC   C4B20902   6.663  44.440   7.664
 1432POPC   NC320903  35.377   2.792   9.464
 1432POPC   PO420904  35.308   2.746   9.164
 1432POPC   GL120905  35.325   2.750   8.864
 1432POPC   GL220906  35.365   2.681   8.864
 1432POPC   C1A20907  35.331   2.812   8.564
 1432POPC   D2A20908  35.389   2.793   8.264
 1432POPC   C3A20909  35.305   2.731   7.964
 1432POPC   C4A20910  35.388   2.725   7.664
 1432POPC   C1B20911  35.427   2.559   8.564
 1432POPC   C2B20912  35.440   2.490   8.264
 1432POPC   C3B20913  35.401   2.571   7.964
 1432POPC   C4B20914  35.462   2.477   7.664
 1433POPC   NC320915  26.829  21.369   9.464
 1433POPC   PO420916  26.812  21.417   9.164
 1433POPC   GL120917  26.844  21.399   8.864
 1433POPC   GL220918  26.810  21.464   8.864
 1433POPC   C1A20919  26.789  21.386   8.564
 1433POPC   D2A20920  26.826  21.359   8.264
 1433POPC   C3A20921  26.817  21.339   7.964
 1433POPC   C4A20922  26.774  21.411   7.664
 1433POPC   C1B20923  26.891  21.620   8.564
 1433POPC   C2B20924  26.811  21.632   8.264
 1433POPC   C3B20925  26.902  21.668   7.964
 1433POPC   C4B20926  26.820  21.638   7.664
 1434POPC   NC320927  19.874  16.734   9.464
 1434POPC   PO420928  19.817  16.724   9.164
 1434POPC   GL120929  19.813  16.763   8.864
 1434POPC   GL220930  19.799  16.836   8.864
 1434POPC   C1A20931  19.822  16.768   8.564
 1434POPC   D2A20932  19.850  16.762   8.264
 1434POPC   C3A20933  19.828  16.758   7.964
 1434POPC   C4A20934  19.858  16.714   7.664
 1434POPC   C1B20935  19.836  16.989   8.564
 1434POPC   C2B20936  19.799  16.954   8.264
 1434POPC   C3B20937  19.835  16.951   7.964
 1434POPC   C4B20938  19.832  17.003   7.664
 1435POPC   NC320939   2.747  42.365   9.464
 1435POPC   PO420940   2.730  42.313   9.164
 1435POPC   GL120941   2.813  42.322   8.864
 1435POPC   GL220942   2.893  42.422   8.864
 1435POPC   C1A20943   2.731  42.302   8.564
 1435POPC   D2A20944   2.751  42.367   8.264
 1435POPC   C3A20945   2.786  42.316   7.964
 1435POPC   C4A20946   2.798  42.380   7.664
 1435POPC   C1B20947   3.006  42.482   8.564
 1435POPC   C2B20948   3.039  42.478   8.264
 1435POPC   C3B20949   3.041  42.488   7.964
 1435POPC   C4B20950   2.979  42.416   7.664
 1436POPC   NC320951  39.990  41.549   9.464
 1436POPC   PO420952  40.015  41.604   9.164
 1436POPC   GL120953  39.961  41.513   8.864
 1436POPC   GL220954  40.142  41.615   8.864
 1436POPC   C1A20955  40.004  41.540   8.564
 1436POPC   D2A20956  39.988  41.597   8.264
 1436POPC   C3A20957  40.035  41.544   7.964
 1436POPC   C4A20958  40.054  41.597   7.664
 1436POPC   C1B20959  40.207  41.707   8.564
 1436POPC   C2B20960  40.225  41.707   8.264
 1436POPC   C3B20961  40.226  41.736   7.964
 1436POPC   C4B20962  40.230  41.672   7.664
 1437POPC   NC320963   5.117  11.304   9.464
 1437POPC   PO420964   5.129  11.271   9.164
 1437POPC   GL120965   5.066  11.338   8.864
 1437POPC   GL220966   4.993  11.241   8.864
 1437POPC   C1A20967   5.135  11.277   8.564
 1437POPC   D2A20968   5.082  11.278   8.264
 1437POPC   C3A20969   5.138  11.318   7.964
 1437POPC   C4A20970   5.098  11.320   7.664
 1437POPC   C1B20971   4.868  11.107   8.564
 1437POPC   C2B20972   4.936  11.155   8.264
 1437POPC   C3B20973   4.900  11.124   7.964
 1437POPC   C4B20974   4.880  11.124   7.664
 1438POPC   NC320975   3.572  11.263   9.464
 1438POPC   PO420976   3.579  11.321   9.164
 1438POPC   GL120977   3.565  11.333   8.864
 1438POPC   GL220978   3.644  11.284   8.864
 1438POPC   C1A20979   3.549  11.276   8.564
 1438POPC   D2A20980   3.542  11.330   8.264
 1438POPC   C3A20981   3.565  11.300   7.964
 1438POPC   C4A20982   3.582  11.315   7.664
 1438POPC   C1B20983   3.765  11.285   8.564
 1438POPC   C2B20984   3.783  11.239   8.264
 1438POPC   C3B20985   3.790  11.272   7.964
 1438POPC   C4B20986   3.761  11.276   7.664
 1439POPC   NC320987  40.832   7.462   9.464
 1439POPC   PO420988  40.790   7.418   9.164
 1439POPC   GL120989  40.745   7.441   8.864
 1439POPC   GL220990  40.717   7.484   8.864
 1439POPC   C1A20991  40.797   7.445   8.564
 1439POPC   D2A20992  40.815   7.384   8.264
 1439POPC   C3A20993  40.821   7.467   7.964
 1439POPC   C4A20994  40.774   7.401   7.664
 1439POPC   C1B20995  40.653   7.586   8.564
 1439POPC   C2B20996  40.594   7.622   8.264
 1439POPC   C3B20997  40.614   7.618   7.964
 1439POPC   C4B20998  40.654   7.656   7.664
 1440POPC   NC320999  11.346  26.788   9.464
 1440POPC   PO421000  11.255  26.787   9.164
 1440POPC   GL121001  11.321  26.852   8.864
 1440POPC   GL221002  11.226  26.733   8.864
 1440POPC   C1A21003  11.310  26.831   8.564
 1440POPC   D2A21004  11.280  26.776   8.264
 1440POPC   C3A21005  11.282  26.787   7.964
 1440POPC   C4A21006  11.307  26.823   7.664
 1440POPC   C1B21007  11.139  26.676   8.564
 1440POPC   C2B21008  11.090  26.619   8.264
 1440POPC   C3B21009  11.077  26.653   7.964
 1440POPC   C4B21010  11.067  26.649   7.664
 1441POPC   NC321011  43.142  34.540   9.464
 1441POPC   PO421012  43.086  34.586   9.164
 1441POPC   GL121013  43.065  34.569   8.864
 1441POPC   GL221014  42.986  34.669   8.864
 1441POPC   C1A21015  43.083  34.589   8.564
 1441POPC   D2A21016  43.080  34.581   8.264
 1441POPC   C3A21017  43.136  34.619   7.964
 1441POPC   C4A21018  43.126  34.605   7.664
 1441POPC   C1B21019  42.865  34.682   8.564
 1441POPC   C2B21020  42.884  34.697   8.264
 1441POPC   C3B21021  42.884  34.634   7.964
 1441POPC   C4B21022  42.899  34.719   7.664
 1442POPC   NC321023  19.797   2.001   9.464
 1442POPC   PO421024  19.848   1.943   9.164
 1442POPC   GL121025  19.791   1.940   8.864
 1442POPC   GL221026  19.756   2.001   8.864
 1442POPC   C1A21027  19.830   1.983   8.564
 1442POPC   D2A21028  19.794   1.946   8.264
 1442POPC   C3A21029  19.870   2.012   7.964
 1442POPC   C4A21030  19.797   1.995   7.664
 1442POPC   C1B21031  19.543   2.004   8.564
 1442POPC   C2B21032  19.622   1.997   8.264
 1442POPC   C3B21033  19.578   2.018   7.964
 1442POPC   C4B21034  19.557   1.976   7.664
 1443POPC   NC321035   1.977   2.813   9.464
 1443POPC   PO421036   2.008   2.794   9.164
 1443POPC   GL121037   2.010   2.775   8.864
 1443POPC   GL221038   2.111   2.891   8.864
 1443POPC   C1A21039   1.996   2.803   8.564
 1443POPC   D2A21040   1.990   2.776   8.264
 1443POPC   C3A21041   2.022   2.738   7.964
 1443POPC   C4A21042   2.035   2.786   7.664
 1443POPC   C1B21043   2.180   2.947   8.564
 1443POPC   C2B21044   2.108   2.949   8.264
 1443POPC   C3B21045   2.197   2.933   7.964
 1443POPC   C4B21046   2.148   2.952   7.664
 1444POPC   NC321047  23.757  13.617   9.464
 1444POPC   PO421048  23.679  13.645   9.164
 1444POPC   GL121049  23.694  13.586   8.864
 1444POPC   GL221050  23.836  13.552   8.864
 1444POPC   C1A21051  23.680  13.659   8.564
 1444POPC   D2A21052  23.693  13.616   8.264
 1444POPC   C3A21053  23.746  13.656   7.964
 1444POPC   C4A21054  23.734  13.670   7.664
 1444POPC   C1B21055  23.936  13.528   8.564
 1444POPC   C2B21056  23.958  13.491   8.264
 1444POPC   C3B21057  23.904  13.497   7.964
 1444POPC   C4B21058  23.915  13.488   7.664
 1445POPC   NC321059  12.109  36.099   9.464
 1445POPC   PO421060  12.106  36.100   9.164
 1445POPC   GL121061  12.092  36.087   8.864
 1445POPC   GL221062  12.051  35.999   8.864
 1445POPC   C1A21063  12.067  36.122   8.564
 1445POPC   D2A21064  12.119  36.111   8.264
 1445POPC   C3A21065  12.076  36.082   7.964
 1445POPC   C4A21066  12.029  36.095   7.664
 1445POPC   C1B21067  12.038  35.844   8.564
 1445POPC   C2B21068  12.029  35.835   8.264
 1445POPC   C3B21069  12.017  35.865   7.964
 1445POPC   C4B21070  11.980  35.855   7.664
 1446POPC   NC321071  33.751  22.193   9.464
 1446POPC   PO421072  33.837  22.189   9.164
 1446POPC   GL121073  33.760  22.150   8.864
 1446POPC   GL221074  33.878  22.252   8.864
 1446POPC   C1A21075  33.801  22.197   8.564
 1446POPC   D2A21076  33.845  22.136   8.264
 1446POPC   C3A21077  33.769  22.168   7.964
 1446POPC   C4A21078  33.824  22.124   7.664
 1446POPC   C1B21079  34.053  22.260   8.564
 1446POPC   C2B21080  34.069  22.298   8.264
 1446POPC   C3B21081  34.056  22.243   7.964
 1446POPC   C4B21082  34.054  22.292   7.664
 1447POPC   NC321083  39.990  34.603   9.464
 1447POPC   PO421084  40.004  34.532   9.164
 1447POPC   GL121085  40.004  34.581   8.864
 1447POPC   GL221086  39.986  34.446   8.864
 1447POPC   C1A21087  40.045  34.622   8.564
 1447POPC   D2A21088  40.019  34.539   8.264
 1447POPC   C3A21089  40.027  34.623   7.964
 1447POPC   C4A21090  40.049  34.593   7.664
 1447POPC   C1B21091  39.951  34.383   8.564
 1447POPC   C2B21092  39.902  34.364   8.264
 1447POPC   C3B21093  39.991  34.299   7.964
 1447POPC   C4B21094  39.994  34.360   7.664
 1448POPC   NC321095  11.328  27.577   9.464
 1448POPC   PO421096  11.265  27.569   9.164
 1448POPC   GL121097  11.321  27.619   8.864
 1448POPC   GL221098  11.266  27.700   8.864
 1448POPC   C1A21099  11.252  27.628   8.564
 1448POPC   D2A21100  11.290  27.548   8.264
 1448POPC   C3A21101  11.328  27.639   7.964
 1448POPC   C4A21102  11.282  27.607   7.664
 1448POPC   C1B21103  11.136  27.808   8.564
 1448POPC   C2B21104  11.185  27.788   8.264
 1448POPC   C3B21105  11.113  27.811   7.964
 1448POPC   C4B21106  11.187  27.782   7.664
 1449POPC   NC321107  23.720  32.996   9.464
 1449POPC   PO421108  23.680  33.025   9.164
 1449POPC   GL121109  23.759  33.044   8.864
 1449POPC   GL221110  23.670  32.932   8.864
 1449POPC   C1A21111  23.762  33.025   8.564
 1449POPC   D2A21112  23.667  32.975   8.264
 1449POPC   C3A21113  23.728  32.981   7.964
 1449POPC   C4A21114  23.739  32.989   7.664
 1449POPC   C1B21115  23.587  32.768   8.564
 1449POPC   C2B21116  23.648  32.839   8.264
 1449POPC   C3B21117  23.574  32.819   7.964
 1449POPC   C4B21118  23.654  32.778   7.664
 1450POPC   NC321119   6.595  34.606   9.464
 1450POPC   PO421120   6.664  34.578   9.164
 1450POPC   GL121121   6.663  34.599   8.864
 1450POPC   GL221122   6.480  34.602   8.864
 1450POPC   C1A21123   6.604  34.561   8.564
 1450POPC   D2A21124   6.624  34.581   8.264
 1450POPC   C3A21125   6.620  34.547   7.964
 1450POPC   C4A21126   6.619  34.623   7.664
 1450POPC   C1B21127   6.378  34.570   8.564
 1450POPC   C2B21128   6.378  34.582   8.264
 1450POPC   C3B21129   6.421  34.615   7.964
 1450POPC   C4B21130   6.400  34.591   7.664
 1451POPC   NC321131  40.763  22.896   9.464
 1451POPC   PO421132  40.828  22.964   9.164
 1451POPC   GL121133  40.796  22.948   8.864
 1451POPC   GL221134  40.773  22.838   8.864
 1451POPC   C1A21135  40.778  22.974   8.564
 1451POPC   D2A21136  40.767  22.933   8.264
 1451POPC   C3A21137  40.825  22.970   7.964
 1451POPC   C4A21138  40.822  22.934   7.664
 1451POPC   C1B21139  40.699  22.682   8.564
 1451POPC   C2B21140  40.745  22.705   8.264
 1451POPC   C3B21141  40.741  22.692   7.964
 1451POPC   C4B21142  40.671  22.714   7.664
 1452POPC   NC321143  33.791  27.562   9.464
 1452POPC   PO421144  33.768  27.605   9.164
 1452POPC   GL121145  33.762  27.582   8.864
 1452POPC   GL221146  33.892  27.668   8.864
 1452POPC   C1A21147  33.805  27.557   8.564
 1452POPC   D2A21148  33.754  27.563   8.264
 1452POPC   C3A21149  33.807  27.623   7.964
 1452POPC   C4A21150  33.820  27.546   7.664
 1452POPC   C1B21151  33.971  27.754   8.564
 1452POPC   C2B21152  33.996  27.735   8.264
 1452POPC   C3B21153  34.019  27.753   7.964
 1452POPC   C4B21154  34.014  27.685   7.664
 1453POPC   NC321155  15.991  41.573   9.464
 1453POPC   PO421156  15.935  41.575   9.164
 1453POPC   GL121157  15.989  41.591   8.864
 1453POPC   GL221158  16.033  41.620   8.864
 1453POPC   C1A21159  15.936  41.590   8.564
 1453POPC   D2A21160  15.963  41.555   8.264
 1453POPC   C3A21161  15.965  41.600   7.964
 1453POPC   C4A21162  15.946  41.563   7.664
 1453POPC   C1B21163  16.234  41.670   8.564
 1453POPC   C2B21164  16.186  41.617   8.264
 1453POPC   C3B21165  16.162  41.626   7.964
 1453POPC   C4B21166  16.179  41.640   7.664
 1454POPC   NC321167  32.290  38.468   9.464
 1454POPC   PO421168  32.260  38.447   9.164
 1454POPC   GL121169  32.255  38.420   8.864
 1454POPC   GL221170  32.276  38.393   8.864
 1454POPC   C1A21171  32.273  38.419   8.564
 1454POPC   D2A21172  32.278  38.418   8.264
 1454POPC   C3A21173  32.294  38.452   7.964
 1454POPC   C4A21174  32.246  38.490   7.664
 1454POPC   C1B21175  32.394  38.200   8.564
 1454POPC   C2B21176  32.394  38.269   8.264
 1454POPC   C3B21177  32.394  38.239   7.964
 1454POPC   C4B21178  32.355  38.187   7.664
 1455POPC   NC321179   0.447  14.422   9.464
 1455POPC   PO421180   0.434  14.378   9.164
 1455POPC   GL121181   0.440  14.400   8.864
 1455POPC   GL221182   0.514  14.555   8.864
 1455POPC   C1A21183   0.424  14.358   8.564
 1455POPC   D2A21184   0.441  14.397   8.264
 1455POPC   C3A21185   0.411  14.407   7.964
 1455POPC   C4A21186   0.397  14.422   7.664
 1455POPC   C1B21187   0.550  14.578   8.564
 1455POPC   C2B21188   0.570  14.646   8.264
 1455POPC   C3B21189   0.593  14.666   7.964
 1455POPC   C4B21190   0.554  14.653   7.664
 1456POPC   NC321191  43.879  19.856   9.464
 1456POPC   PO421192  43.887  19.791   9.164
 1456POPC   GL121193  43.900  19.880   8.864
 1456POPC   GL221194  44.011  19.753   8.864
 1456POPC   C1A21195  43.839  19.851   8.564
 1456POPC   D2A21196  43.841  19.855   8.264
 1456POPC   C3A21197  43.910  19.796   7.964
 1456POPC   C4A21198  43.925  19.803   7.664
 1456POPC   C1B21199  44.138  19.759   8.564
 1456POPC   C2B21200  44.161  19.716   8.264
 1456POPC   C3B21201  44.110  19.733   7.964
 1456POPC   C4B21202  44.082  19.733   7.664
 1457POPC   NC321203  39.960  15.219   9.464
 1457POPC   PO421204  40.046  15.196   9.164
 1457POPC   GL121205  40.015  15.138   8.864
 1457POPC   GL221206  40.084  15.180   8.864
 1457POPC   C1A21207  40.029  15.150   8.564
 1457POPC   D2A21208  39.973  15.166   8.264
 1457POPC   C3A21209  40.004  15.172   7.964
 1457POPC   C4A21210  39.972  15.135   7.664
 1457POPC   C1B21211  40.213  15.201   8.564
 1457POPC   C2B21212  40.264  15.262   8.264
 1457POPC   C3B21213  40.257  15.208   7.964
 1457POPC   C4B21214  40.219  15.188   7.664
 1458POPC   NC321215  33.788   9.740   9.464
 1458POPC   PO421216  33.753   9.721   9.164
 1458POPC   GL121217  33.805   9.731   8.864
 1458POPC   GL221218  33.745   9.650   8.864
 1458POPC   C1A21219  33.776   9.792   8.564
 1458POPC   D2A21220  33.757   9.715   8.264
 1458POPC   C3A21221  33.769   9.796   7.964
 1458POPC   C4A21222  33.785   9.702   7.664
 1458POPC   C1B21223  33.721   9.546   8.564
 1458POPC   C2B21224  33.690   9.492   8.264
 1458POPC   C3B21225  33.696   9.548   7.964
 1458POPC   C4B21226  33.718   9.540   7.664
 1459POPC   NC321227  21.361  22.139   9.464
 1459POPC   PO421228  21.386  22.136   9.164
 1459POPC   GL121229  21.386  22.202   8.864
 1459POPC   GL221230  21.341  22.221   8.864
 1459POPC   C1A21231  21.357  22.182   8.564
 1459POPC   D2A21232  21.346  22.171   8.264
 1459POPC   C3A21233  21.428  22.180   7.964
 1459POPC   C4A21234  21.385  22.142   7.664
 1459POPC   C1B21235  21.247  22.354   8.564
 1459POPC   C2B21236  21.210  22.326   8.264
 1459POPC   C3B21237  21.198  22.364   7.964
 1459POPC   C4B21238  21.184  22.390   7.664
 1460POPC   NC321239  33.025  38.418   9.464
 1460POPC   PO421240  32.974  38.408   9.164
 1460POPC   GL121241  32.975  38.503   8.864
 1460POPC   GL221242  32.928  38.420   8.864
 1460POPC   C1A21243  33.000  38.475   8.564
 1460POPC   D2A21244  33.039  38.435   8.264
 1460POPC   C3A21245  33.037  38.499   7.964
 1460POPC   C4A21246  33.046  38.482   7.664
 1460POPC   C1B21247  32.813  38.374   8.564
 1460POPC   C2B21248  32.808  38.409   8.264
 1460POPC   C3B21249  32.768  38.360   7.964
 1460POPC   C4B21250  32.798  38.348   7.664
 1461POPC   NC321251  36.897  40.795   9.464
 1461POPC   PO421252  36.933  40.751   9.164
 1461POPC   GL121253  36.947  40.791   8.864
 1461POPC   GL221254  36.819  40.681   8.864
 1461POPC   C1A21255  36.887  40.781   8.564
 1461POPC   D2A21256  36.861  40.771   8.264
 1461POPC   C3A21257  36.909  40.775   7.964
 1461POPC   C4A21258  36.893  40.819   7.664
 1461POPC   C1B21259  36.667  40.663   8.564
 1461POPC   C2B21260  36.694  40.648   8.264
 1461POPC   C3B21261  36.696  40.601   7.964
 1461POPC   C4B21262  36.723  40.594   7.664
 1462POPC   NC321263  15.920  10.491   9.464
 1462POPC   PO421264  15.914  10.513   9.164
 1462POPC   GL121265  15.934  10.543   8.864
 1462POPC   GL221266  15.919  10.412   8.864
 1462POPC   C1A21267  15.922  10.498   8.564
 1462POPC   D2A21268  15.954  10.537   8.264
 1462POPC   C3A21269  15.983  10.519   7.964
 1462POPC   C4A21270  15.957  10.532   7.664
 1462POPC   C1B21271  15.991  10.269   8.564
 1462POPC   C2B21272  15.910  10.301   8.264
 1462POPC   C3B21273  15.950  10.231   7.964
 1462POPC   C4B21274  15.936  10.251   7.664
 1463POPC   NC321275  37.688  35.391   9.464
 1463POPC   PO421276  37.684  35.303   9.164
 1463POPC   GL121277  37.688  35.329   8.864
 1463POPC   GL221278  37.745  35.401   8.864
 1463POPC   C1A21279  37.691  35.401   8.564
 1463POPC   D2A21280  37.703  35.371   8.264
 1463POPC   C3A21281  37.728  35.360   7.964
 1463POPC   C4A21282  37.714  35.383   7.664
 1463POPC   C1B21283  37.915  35.547   8.564
 1463POPC   C2B21284  37.905  35.498   8.264
 1463POPC   C3B21285  37.870  35.486   7.964
 1463POPC   C4B21286  37.873  35.472   7.664
 1464POPC   NC321287  36.884  15.154   9.464
 1464POPC   PO421288  36.922  15.181   9.164
 1464POPC   GL121289  36.869  15.160   8.864
 1464POPC   GL221290  36.997  15.168   8.864
 1464POPC   C1A21291  36.859  15.167   8.564
 1464POPC   D2A21292  36.876  15.228   8.264
 1464POPC   C3A21293  36.906  15.172   7.964
 1464POPC   C4A21294  36.891  15.218   7.664
 1464POPC   C1B21295  37.129  15.190   8.564
 1464POPC   C2B21296  37.144  15.190   8.264
 1464POPC   C3B21297  37.136  15.243   7.964
 1464POPC   C4B21298  37.156  15.241   7.664
 1465POPC   NC321299  40.030  39.237   9.464
 1465POPC   PO421300  39.986  39.182   9.164
 1465POPC   GL121301  40.041  39.206   8.864
 1465POPC   GL221302  40.052  39.312   8.864
 1465POPC   C1A21303  40.046  39.224   8.564
 1465POPC   D2A21304  39.980  39.208   8.264
 1465POPC   C3A21305  39.966  39.212   7.964
 1465POPC   C4A21306  39.995  39.248   7.664
 1465POPC   C1B21307  40.131  39.404   8.564
 1465POPC   C2B21308  40.141  39.394   8.264
 1465POPC   C3B21309  40.115  39.467   7.964
 1465POPC   C4B21310  40.132  39.405   7.664
 1466POPC   NC321311  11.295   7.439   9.464
 1466POPC   PO421312  11.252   7.373   9.164
 1466POPC   GL121313  11.333   7.406   8.864
 1466POPC   GL221314  11.204   7.275   8.864
 1466POPC   C1A21315  11.278   7.422   8.564
 1466POPC   D2A21316  11.337   7.464   8.264
 1466POPC   C3A21317  11.270   7.413   7.964
 1466POPC   C4A21318  11.289   7.407   7.664
 1466POPC   C1B21319  11.189   7.248   8.564
 1466POPC   C2B21320  11.165   7.233   8.264
 1466POPC   C3B21321  11.182   7.231   7.964
 1466POPC   C4B21322  11.140   7.158   7.664
 1467POPC   NC321323  35.336   5.113   9.464
 1467POPC   PO421324  35.317   5.103   9.164
 1467POPC   GL121325  35.324   5.072   8.864
 1467POPC   GL221326  35.210   5.117   8.864
 1467POPC   C1A21327  35.359   5.129   8.564
 1467POPC   D2A21328  35.393   5.101   8.264
 1467POPC   C3A21329  35.311   5.102   7.964
 1467POPC   C4A21330  35.384   5.054   7.664
 1467POPC   C1B21331  35.175   5.213   8.564
 1467POPC   C2B21332  35.132   5.207   8.264
 1467POPC   C3B21333  35.159   5.207   7.964
 1467POPC   C4B21334  35.138   5.176   7.664
 1468POPC   NC321335  42.295  36.110   9.464
 1468POPC   PO421336  42.329  36.085   9.164
 1468POPC   GL121337  42.358  36.144   8.864
 1468POPC   GL221338  42.433  36.210   8.864
 1468POPC   C1A21339  42.338  36.092   8.564
 1468POPC   D2A21340  42.315  36.177   8.264
 1468POPC   C3A21341  42.303  36.088   7.964
 1468POPC   C4A21342  42.379  36.128   7.664
 1468POPC   C1B21343  42.547  36.225   8.564
 1468POPC   C2B21344  42.600  36.183   8.264
 1468POPC   C3B21345  42.594  36.211   7.964
 1468POPC   C4B21346  42.598  36.166   7.664
 1469POPC   NC321347  37.706  22.137   9.464
 1469POPC   PO421348  37.722  22.177   9.164
 1469POPC   GL121349  37.679  22.193   8.864
 1469POPC   GL221350  37.804  22.097   8.864
 1469POPC   C1A21351  37.719  22.168   8.564
 1469POPC   D2A21352  37.692  22.158   8.264
 1469POPC   C3A21353  37.711  22.189   7.964
 1469POPC   C4A21354  37.653  22.121   7.664
 1469POPC   C1B21355  37.916  21.979   8.564
 1469POPC   C2B21356  37.883  22.064   8.264
 1469POPC   C3B21357  37.854  21.972   7.964
 1469POPC   C4B21358  37.884  21.988   7.664
 1470POPC   NC321359  15.215  32.222   9.464
 1470POPC   PO421360  15.224  32.239   9.164
 1470POPC   GL121361  15.170  32.234   8.864
 1470POPC   GL221362  15.339  32.243   8.864
 1470POPC   C1A21363  15.162  32.210   8.564
 1470POPC   D2A21364  15.207  32.246   8.264
 1470POPC   C3A21365  15.137  32.240   7.964
 1470POPC   C4A21366  15.195  32.250   7.664
 1470POPC   C1B21367  15.419  32.126   8.564
 1470POPC   C2B21368  15.443  32.163   8.264
 1470POPC   C3B21369  15.407  32.150   7.964
 1470POPC   C4B21370  15.431  32.213   7.664
 1471POPC   NC321371  33.034   3.519   9.464
 1471POPC   PO421372  33.015   3.563   9.164
 1471POPC   GL121373  33.048   3.556   8.864
 1471POPC   GL221374  33.174   3.521   8.864
 1471POPC   C1A21375  33.036   3.500   8.564
 1471POPC   D2A21376  32.981   3.590   8.264
 1471POPC   C3A21377  33.002   3.549   7.964
 1471POPC   C4A21378  33.071   3.526   7.664
 1471POPC   C1B21379  33.265   3.542   8.564
 1471POPC   C2B21380  33.231   3.530   8.264
 1471POPC   C3B21381  33.295   3.518   7.964
 1471POPC   C4B21382  33.229   3.571   7.664
 1472POPC   NC321383  40.757   1.202   9.464
 1472POPC   PO421384  40.743   1.193   9.164
 1472POPC   GL121385  40.750   1.179   8.864
 1472POPC   GL221386  40.803   1.098   8.864
 1472POPC   C1A21387  40.806   1.174   8.564
 1472POPC   D2A21388  40.781   1.263   8.264
 1472POPC   C3A21389  40.772   1.262   7.964
 1472POPC   C4A21390  40.806   1.173   7.664
 1472POPC   C1B21391  40.766   0.937   8.564
 1472POPC   C2B21392  40.769   0.931   8.264
 1472POPC   C3B21393  40.715   1.004   7.964
 1472POPC   C4B21394  40.720   0.931   7.664
 1473POPC   NC321395   1.231  37.714   9.464
 1473POPC   PO421396   1.221  37.677   9.164
 1473POPC   GL121397   1.248  37.691   8.864
 1473POPC   GL221398   1.156  37.603   8.864
 1473POPC   C1A21399   1.242  37.701   8.564
 1473POPC   D2A21400   1.166  37.674   8.264
 1473POPC   C3A21401   1.171  37.653   7.964
 1473POPC   C4A21402   1.258  37.701   7.664
 1473POPC   C1B21403   1.080  37.513   8.564
 1473POPC   C2B21404   1.098  37.509   8.264
 1473POPC   C3B21405   1.091  37.516   7.964
 1473POPC   C4B21406   1.073  37.450   7.664
 1474POPC   NC321407  39.190  30.711   9.464
 1474POPC   PO421408  39.186  30.651   9.164
 1474POPC   GL121409  39.186  30.649   8.864
 1474POPC   GL221410  39.329  30.741   8.864
 1474POPC   C1A21411  39.263  30.676   8.564
 1474POPC   D2A21412  39.219  30.714   8.264
 1474POPC   C3A21413  39.233  30.660   7.964
 1474POPC   C4A21414  39.276  30.711   7.664
 1474POPC   C1B21415  39.498  30.766   8.564
 1474POPC   C2B21416  39.444  30.776   8.264
 1474POPC   C3B21417  39.489  30.817   7.964
 1474POPC   C4B21418  39.491  30.769   7.664
 1475POPC   NC321419  15.181  26.021   9.464
 1475POPC   PO421420  15.204  25.995   9.164
 1475POPC   GL121421  15.135  25.994   8.864
 1475POPC   GL221422  15.201  25.963   8.864
 1475POPC   C1A21423  15.185  26.082   8.564
 1475POPC   D2A21424  15.140  25.993   8.264
 1475POPC   C3A21425  15.220  26.074   7.964
 1475POPC   C4A21426  15.201  26.038   7.664
 1475POPC   C1B21427  15.109  25.794   8.564
 1475POPC   C2B21428  15.156  25.836   8.264
 1475POPC   C3B21429  15.134  25.749   7.964
 1475POPC   C4B21430  15.107  25.837   7.664
 1476POPC   NC321431   3.528  28.406   9.464
 1476POPC   PO421432   3.523  28.389   9.164
 1476POPC   GL121433   3.509  28.326   8.864
 1476POPC   GL221434   3.516  28.497   8.864
 1476POPC   C1A21435   3.492  28.387   8.564
 1476POPC   D2A21436   3.553  28.324   8.264
 1476POPC   C3A21437   3.531  28.407   7.964
 1476POPC   C4A21438   3.560  28.413   7.664
 1476POPC   C1B21439   3.482  28.617   8.564
 1476POPC   C2B21440   3.477  28.598   8.264
 1476POPC   C3B21441   3.518  28.651   7.964
 1476POPC   C4B21442   3.484  28.640   7.664
 1477POPC   NC321443  40.014  35.367   9.464
 1477POPC   PO421444  40.004  35.387   9.164
 1477POPC   GL121445  39.989  35.398   8.864
 1477POPC   GL221446  40.085  35.501   8.864
 1477POPC   C1A21447  39.965  35.310   8.564
 1477POPC   D2A21448  39.987  35.382   8.264
 1477POPC   C3A21449  39.994  35.332   7.964
 1477POPC   C4A21450  40.039  35.397   7.664
 1477POPC   C1B21451  40.032  35.615   8.564
 1477POPC   C2B21452  40.035  35.607   8.264
 1477POPC   C3B21453  40.094  35.562   7.964
 1477POPC   C4B21454  40.109  35.560   7.664
 1478POPC   NC321455  22.176  29.930   9.464
 1478POPC   PO421456  22.177  29.939   9.164
 1478POPC   GL121457  22.116  29.967   8.864
 1478POPC   GL221458  22.242  29.873   8.864
 1478POPC   C1A21459  22.151  29.882   8.564
 1478POPC   D2A21460  22.174  29.958   8.264
 1478POPC   C3A21461  22.208  29.967   7.964
 1478POPC   C4A21462  22.210  29.960   7.664
 1478POPC   C1B21463  22.384  29.909   8.564
 1478POPC   C2B21464  22.433  29.907   8.264
 1478POPC   C3B21465  22.374  29.907   7.964
 1478POPC   C4B21466  22.401  29.912   7.664
 1479POPC   NC321467  39.200   7.395   9.464
 1479POPC   PO421468  39.235   7.466   9.164
 1479POPC   GL121469  39.208   7.461   8.864
 1479POPC   GL221470  39.372   7.492   8.864
 1479POPC   C1A21471  39.250   7.451   8.564
 1479POPC   D2A21472  39.229   7.407   8.264
 1479POPC   C3A21473  39.235   7.440   7.964
 1479POPC   C4A21474  39.199   7.392   7.664
 1479POPC   C1B21475  39.482   7.564   8.564
 1479POPC   C2B21476  39.417   7.488   8.264
 1479POPC   C3B21477  39.407   7.542   7.964
 1479POPC   C4B21478  39.484   7.564   7.664
 1480POPC   NC321479   6.646  21.363   9.464
 1480POPC   PO421480   6.663  21.382   9.164
 1480POPC   GL121481   6.687  21.423   8.864
 1480POPC   GL221482   6.695  21.339   8.864
 1480POPC   C1A21483   6.641  21.430   8.564
 1480POPC   D2A21484   6.635  21.416   8.264
 1480POPC   C3A21485   6.648  21.396   7.964
 1480POPC   C4A21486   6.657  21.337   7.664
 1480POPC   C1B21487   6.804  21.210   8.564
 1480POPC   C2B21488   6.828  21.250   8.264
 1480POPC   C3B21489   6.781  21.202   7.964
 1480POPC   C4B21490   6.802  21.221   7.664
 1481POPC   NC321491  41.552  10.564   9.464
 1481POPC   PO421492  41.569  10.497   9.164
 1481POPC   GL121493  41.601  10.477   8.864
 1481POPC   GL221494  41.624  10.380   8.864
 1481POPC   C1A21495  41.511  10.486   8.564
 1481POPC   D2A21496  41.577  10.545   8.264
 1481POPC   C3A21497  41.560  10.546   7.964
 1481POPC   C4A21498  41.604  10.557   7.664
 1481POPC   C1B21499  41.630  10.324   8.564
 1481POPC   C2B21500  41.640  10.282   8.264
 1481POPC   C3B21501  41.641  10.314   7.964
 1481POPC   C4B21502  41.604  10.259   7.664
 1482POPC   NC321503  19.881  37.658   9.464
 1482POPC   PO421504  19.807  37.677   9.164
 1482POPC   GL121505  19.816  37.673   8.864
 1482POPC   GL221506  19.935  37.763   8.864
 1482POPC   C1A21507  19.843  37.648   8.564
 1482POPC   D2A21508  19.837  37.647   8.264
 1482POPC   C3A21509  19.797  37.698   7.964
 1482POPC   C4A21510  19.806  37.703   7.664
 1482POPC   C1B21511  20.062  37.854   8.564
 1482POPC   C2B21512  20.068  37.810   8.264
 1482POPC   C3B21513  20.063  37.805   7.964
 1482POPC   C4B21514  20.063  37.874   7.664
 1483POPC   NC321515   7.443  27.556   9.464
 1483POPC   PO421516   7.462  27.631   9.164
 1483POPC   GL121517   7.413  27.575   8.864
 1483POPC   GL221518   7.347  27.476   8.864
 1483POPC   C1A21519   7.431  27.581   8.564
 1483POPC   D2A21520   7.427  27.565   8.264
 1483POPC   C3A21521   7.446  27.566   7.964
 1483POPC   C4A21522   7.456  27.627   7.664
 1483POPC   C1B21523   7.308  27.411   8.564
 1483POPC   C2B21524   7.308  27.390   8.264
 1483POPC   C3B21525   7.277  27.414   7.964
 1483POPC   C4B21526   7.326  27.393   7.664
 1484POPC   NC321527  32.270  15.947   9.464
 1484POPC   PO421528  32.239  15.971   9.164
 1484POPC   GL121529  32.272  15.957   8.864
 1484POPC   GL221530  32.152  16.023   8.864
 1484POPC   C1A21531  32.250  15.925   8.564
 1484POPC   D2A21532  32.269  15.934   8.264
 1484POPC   C3A21533  32.206  15.948   7.964
 1484POPC   C4A21534  32.259  15.992   7.664
 1484POPC   C1B21535  32.033  16.097   8.564
 1484POPC   C2B21536  32.028  16.143   8.264
 1484POPC   C3B21537  32.083  16.137   7.964
 1484POPC   C4B21538  32.109  16.092   7.664
 1485POPC   NC321539  43.119  32.271   9.464
 1485POPC   PO421540  43.133  32.238   9.164
 1485POPC   GL121541  43.102  32.262   8.864
 1485POPC   GL221542  42.963  32.225   8.864
 1485POPC   C1A21543  43.069  32.225   8.564
 1485POPC   D2A21544  43.078  32.214   8.264
 1485POPC   C3A21545  43.152  32.268   7.964
 1485POPC   C4A21546  43.121  32.269   7.664
 1485POPC   C1B21547  42.839  32.310   8.564
 1485POPC   C2B21548  42.819  32.215   8.264
 1485POPC   C3B21549  42.862  32.234   7.964
 1485POPC   C4B21550  42.850  32.300   7.664
 1486POPC   NC321551  41.511  26.797   9.464
 1486POPC   PO421552  41.601  26.788   9.164
 1486POPC   GL121553  41.557  26.844   8.864
 1486POPC   GL221554  41.660  26.752   8.864
 1486POPC   C1A21555  41.524  26.827   8.564
 1486POPC   D2A21556  41.571  26.845   8.264
 1486POPC   C3A21557  41.525  26.804   7.964
 1486POPC   C4A21558  41.606  26.781   7.664
 1486POPC   C1B21559  41.853  26.745   8.564
 1486POPC   C2B21560  41.850  26.790   8.264
 1486POPC   C3B21561  41.848  26.804   7.964
 1486POPC   C4B21562  41.759  26.769   7.664
 1487POPC   NC321563  29.112  28.382   9.464
 1487POPC   PO421564  29.186  28.418   9.164
 1487POPC   GL121565  29.161  28.407   8.864
 1487POPC   GL221566  29.029  28.274   8.864
 1487POPC   C1A21567  29.154  28.404   8.564
 1487POPC   D2A21568  29.148  28.375   8.264
 1487POPC   C3A21569  29.153  28.379   7.964
 1487POPC   C4A21570  29.135  28.339   7.664
 1487POPC   C1B21571  28.972  28.149   8.564
 1487POPC   C2B21572  28.983  28.189   8.264
 1487POPC   C3B21573  28.963  28.178   7.964
 1487POPC   C4B21574  29.038  28.119   7.664
 1488POPC   NC321575  26.085  26.067   9.464
 1488POPC   PO421576  26.009  25.992   9.164
 1488POPC   GL121577  26.061  26.067   8.864
 1488POPC   GL221578  26.172  26.080   8.864
 1488POPC   C1A21579  25.998  26.033   8.564
 1488POPC   D2A21580  26.035  26.046   8.264
 1488POPC   C3A21581  26.026  26.029   7.964
 1488POPC   C4A21582  26.075  26.074   7.664
 1488POPC   C1B21583  26.206  26.146   8.564
 1488POPC   C2B21584  26.267  26.226   8.264
 1488POPC   C3B21585  26.227  26.205   7.964
 1488POPC   C4B21586  26.205  26.177   7.664
 1489POPC   NC321587  24.494  31.466   9.464
 1489POPC   PO421588  24.502  31.434   9.164
 1489POPC   GL121589  24.526  31.424   8.864
 1489POPC   GL221590  24.509  31.630   8.864
 1489POPC   C1A21591  24.506  31.498   8.564
 1489POPC   D2A21592  24.471  31.479   8.264
 1489POPC   C3A21593  24.536  31.516   7.964
 1489POPC   C4A21594  24.475  31.494   7.664
 1489POPC   C1B21595  24.586  31.706   8.564
 1489POPC   C2B21596  24.522  31.688   8.264
 1489POPC   C3B21597  24.508  31.763   7.964
 1489POPC   C4B21598  24.571  31.753   7.664
 1490POPC   NC321599  36.938   2.763   9.464
 1490POPC   PO421600  36.913   2.810   9.164
 1490POPC   GL121601  36.893   2.763   8.864
 1490POPC   GL221602  36.834   2.637   8.864
 1490POPC   C1A21603  36.901   2.748   8.564
 1490POPC   D2A21604  36.865   2.771   8.264
 1490POPC   C3A21605  36.881   2.762   7.964
 1490POPC   C4A21606  36.868   2.763   7.664
 1490POPC   C1B21607  36.835   2.528   8.564
 1490POPC   C2B21608  36.847   2.548   8.264
 1490POPC   C3B21609  36.863   2.516   7.964
 1490POPC   C4B21610  36.860   2.493   7.664
 1491POPC   NC321611  40.782   6.671   9.464
 1491POPC   PO421612  40.810   6.609   9.164
 1491POPC   GL121613  40.786   6.682   8.864
 1491POPC   GL221614  40.779   6.498   8.864
 1491POPC   C1A21615  40.757   6.623   8.564
 1491POPC   D2A21616  40.746   6.600   8.264
 1491POPC   C3A21617  40.789   6.678   7.964
 1491POPC   C4A21618  40.734   6.598   7.664
 1491POPC   C1B21619  40.881   6.423   8.564
 1491POPC   C2B21620  40.825   6.437   8.264
 1491POPC   C3B21621  40.821   6.368   7.964
 1491POPC   C4B21622  40.862   6.433   7.664
 1492POPC   NC321623  39.260  33.021   9.464
 1492POPC   PO421624  39.258  32.982   9.164
 1492POPC   GL121625  39.193  32.988   8.864
 1492POPC   GL221626  39.316  33.002   8.864
 1492POPC   C1A21627  39.212  33.040   8.564
 1492POPC   D2A21628  39.263  32.975   8.264
 1492POPC   C3A21629  39.251  33.021   7.964
 1492POPC   C4A21630  39.197  32.992   7.664
 1492POPC   C1B21631  39.463  32.929   8.564
 1492POPC   C2B21632  39.410  32.874   8.264
 1492POPC   C3B21633  39.469  32.894   7.964
 1492POPC   C4B21634  39.395  32.917   7.664
 1493POPC   NC321635  40.044  26.817   9.464
 1493POPC   PO421636  39.965  26.812   9.164
 1493POPC   GL121637  40.030  26.844   8.864
 1493POPC   GL221638  40.099  26.735   8.864
 1493POPC   C1A21639  39.979  26.770   8.564
 1493POPC   D2A21640  39.998  26.830   8.264
 1493POPC   C3A21641  39.977  26.849   7.964
 1493POPC   C4A21642  40.043  26.833   7.664
 1493POPC   C1B21643  40.154  26.622   8.564
 1493POPC   C2B21644  40.175  26.678   8.264
 1493POPC   C3B21645  40.226  26.677   7.964
 1493POPC   C4B21646  40.199  26.650   7.664
 1494POPC   NC321647  42.331  14.370   9.464
 1494POPC   PO421648  42.316  14.407   9.164
 1494POPC   GL121649  42.380  14.447   8.864
 1494POPC   GL221650  42.165  14.443   8.864
 1494POPC   C1A21651  42.361  14.405   8.564
 1494POPC   D2A21652  42.292  14.379   8.264
 1494POPC   C3A21653  42.377  14.433   7.964
 1494POPC   C4A21654  42.358  14.399   7.664
 1494POPC   C1B21655  42.038  14.445   8.564
 1494POPC   C2B21656  42.133  14.358   8.264
 1494POPC   C3B21657  42.078  14.391   7.964
 1494POPC   C4B21658  42.099  14.449   7.664
 1495POPC   NC321659   4.285   2.734   9.464
 1495POPC   PO421660   4.280   2.775   9.164
 1495POPC   GL121661   4.307   2.791   8.864
 1495POPC   GL221662   4.287   2.689   8.864
 1495POPC   C1A21663   4.304   2.784   8.564
 1495POPC   D2A21664   4.319   2.744   8.264
 1495POPC   C3A21665   4.320   2.748   7.964
 1495POPC   C4A21666   4.294   2.768   7.664
 1495POPC   C1B21667   4.261   2.507   8.564
 1495POPC   C2B21668   4.270   2.558   8.264
 1495POPC   C3B21669   4.178   2.491   7.964
 1495POPC   C4B21670   4.222   2.563   7.664
 1496POPC   NC321671  44.675  22.954   9.464
 1496POPC   PO421672  44.676  22.980   9.164
 1496POPC   GL121673  44.676  22.907   8.864
 1496POPC   GL221674  44.738  23.009   8.864
 1496POPC   C1A21675  44.708  22.968   8.564
 1496POPC   D2A21676  44.669  22.969   8.264
 1496POPC   C3A21677  44.711  22.940   7.964
 1496POPC   C4A21678  44.651  22.901   7.664
 1496POPC   C1B21679  44.876  23.136   8.564
 1496POPC   C2B21680  44.840  23.117   8.264
 1496POPC   C3B21681  44.808  23.087   7.964
 1496POPC   C4B21682  44.872  23.122   7.664
 1497POPC   NC321683  43.091  36.090   9.464
 1497POPC   PO421684  43.139  36.094   9.164
 1497POPC   GL121685  43.080  36.089   8.864
 1497POPC   GL221686  43.171  36.202   8.864
 1497POPC   C1A21687  43.099  36.096   8.564
 1497POPC   D2A21688  43.119  36.160   8.264
 1497POPC   C3A21689  43.080  36.165   7.964
 1497POPC   C4A21690  43.142  36.150   7.664
 1497POPC   C1B21691  43.272  36.266   8.564
 1497POPC   C2B21692  43.279  36.252   8.264
 1497POPC   C3B21693  43.288  36.266   7.964
 1497POPC   C4B21694  43.271  36.285   7.664
 1498POPC   NC321695  43.856  26.784   9.464
 1498POPC   PO421696  43.843  26.789   9.164
 1498POPC   GL121697  43.925  26.850   8.864
 1498POPC   GL221698  43.820  26.738   8.864
 1498POPC   C1A21699  43.842  26.769   8.564
 1498POPC   D2A21700  43.900  26.811   8.264
 1498POPC   C3A21701  43.936  26.770   7.964
 1498POPC   C4A21702  43.919  26.856   7.664
 1498POPC   C1B21703  43.754  26.663   8.564
 1498POPC   C2B21704  43.688  26.587   8.264
 1498POPC   C3B21705  43.721  26.634   7.964
 1498POPC   C4B21706  43.768  26.650   7.664
 1499POPC   NC321707   9.771  22.181   9.464
 1499POPC   PO421708   9.723  22.163   9.164
 1499POPC   GL121709   9.742  22.195   8.864
 1499POPC   GL221710   9.799  22.057   8.864
 1499POPC   C1A21711   9.758  22.194   8.564
 1499POPC   D2A21712   9.722  22.154   8.264
 1499POPC   C3A21713   9.771  22.189   7.964
 1499POPC   C4A21714   9.773  22.126   7.664
 1499POPC   C1B21715   9.844  21.878   8.564
 1499POPC   C2B21716   9.818  21.894   8.264
 1499POPC   C3B21717   9.868  21.953   7.964
 1499POPC   C4B21718   9.800  21.891   7.664
 1500POPC   NC321719  36.082  41.525   9.464
 1500POPC   PO421720  36.091  41.593   9.164
 1500POPC   GL121721  36.079  41.512   8.864
 1500POPC   GL221722  36.233  41.505   8.864
 1500POPC   C1A21723  36.095  41.606   8.564
 1500POPC   D2A21724  36.103  41.584   8.264
 1500POPC   C3A21725  36.121  41.549   7.964
 1500POPC   C4A21726  36.087  41.595   7.664
 1500POPC   C1B21727  36.327  41.503   8.564
 1500POPC   C2B21728  36.356  41.475   8.264
 1500POPC   C3B21729  36.341  41.451   7.964
 1500POPC   C4B21730  36.369  41.432   7.664
 1501POPC   NC321731   7.465  40.777   9.464
 1501POPC   PO421732   7.434  40.790   9.164
 1501POPC   GL121733   7.469  40.737   8.864
 1501POPC   GL221734   7.574  40.795   8.864
 1501POPC   C1A21735   7.389  40.811   8.564
 1501POPC   D2A21736   7.387  40.812   8.264
 1501POPC   C3A21737   7.429  40.765   7.964
 1501POPC   C4A21738   7.396  40.793   7.664
 1501POPC   C1B21739   7.685  40.753   8.564
 1501POPC   C2B21740   7.684  40.683   8.264
 1501POPC   C3B21741   7.662  40.722   7.964
 1501POPC   C4B21742   7.640  40.726   7.664
 1502POPC   NC321743   7.391  15.938   9.464
 1502POPC   PO421744   7.464  15.913   9.164
 1502POPC   GL121745   7.414  15.994   8.864
 1502POPC   GL221746   7.347  16.050   8.864
 1502POPC   C1A21747   7.378  15.987   8.564
 1502POPC   D2A21748   7.392  15.984   8.264
 1502POPC   C3A21749   7.384  15.967   7.964
 1502POPC   C4A21750   7.400  15.978   7.664
 1502POPC   C1B21751   7.190  16.100   8.564
 1502POPC   C2B21752   7.229  16.048   8.264
 1502POPC   C3B21753   7.223  16.046   7.964
 1502POPC   C4B21754   7.211  16.105   7.664
 1503POPC   NC321755  33.785  15.132   9.464
 1503POPC   PO421756  33.795  15.219   9.164
 1503POPC   GL121757  33.792  15.160   8.864
 1503POPC   GL221758  33.905  15.164   8.864
 1503POPC   C1A21759  33.805  15.132   8.564
 1503POPC   D2A21760  33.799  15.132   8.264
 1503POPC   C3A21761  33.833  15.192   7.964
 1503POPC   C4A21762  33.831  15.142   7.664
 1503POPC   C1B21763  34.089  15.165   8.564
 1503POPC   C2B21764  34.052  15.187   8.264
 1503POPC   C3B21765  34.057  15.209   7.964
 1503POPC   C4B21766  34.014  15.192   7.664
 1504POPC   NC321767  28.346  37.670   9.464
 1504POPC   PO421768  28.411  37.646   9.164
 1504POPC   GL121769  28.337  37.674   8.864
 1504POPC   GL221770  28.474  37.752   8.864
 1504POPC   C1A21771  28.338  37.692   8.564
 1504POPC   D2A21772  28.330  37.720   8.264
 1504POPC   C3A21773  28.362  37.634   7.964
 1504POPC   C4A21774  28.361  37.722   7.664
 1504POPC   C1B21775  28.619  37.807   8.564
 1504POPC   C2B21776  28.578  37.787   8.264
 1504POPC   C3B21777  28.636  37.810   7.964
 1504POPC   C4B21778  28.625  37.773   7.664
 1505POPC   NC321779  14.362  14.403   9.464
 1505POPC   PO421780  14.359  14.361   9.164
 1505POPC   GL121781  14.395  14.448   8.864
 1505POPC   GL221782  14.368  14.252   8.864
 1505POPC   C1A21783  14.428  14.387   8.564
 1505POPC   D2A21784  14.365  14.416   8.264
 1505POPC   C3A21785  14.375  14.436   7.964
 1505POPC   C4A21786  14.410  14.417   7.664
 1505POPC   C1B21787  14.361  14.131   8.564
 1505POPC   C2B21788  14.402  14.158   8.264
 1505POPC   C3B21789  14.346  14.199   7.964
 1505POPC   C4B21790  14.338  14.195   7.664
 1506POPC   NC321791  42.302  12.900   9.464
 1506POPC   PO421792  42.314  12.820   9.164
 1506POPC   GL121793  42.342  12.846   8.864
 1506POPC   GL221794  42.322  12.751   8.864
 1506POPC   C1A21795  42.337  12.812   8.564
 1506POPC   D2A21796  42.311  12.855   8.264
 1506POPC   C3A21797  42.286  12.825   7.964
 1506POPC   C4A21798  42.304  12.829   7.664
 1506POPC   C1B21799  42.415  12.661   8.564
 1506POPC   C2B21800  42.374  12.634   8.264
 1506POPC   C3B21801  42.388  12.608   7.964
 1506POPC   C4B21802  42.387  12.566   7.664
 1507POPC   NC321803   5.057  35.340   9.464
 1507POPC   PO421804   5.075  35.322   9.164
 1507POPC   GL121805   5.068  35.321   8.864
 1507POPC   GL221806   5.055  35.506   8.864
 1507POPC   C1A21807   5.087  35.362   8.564
 1507POPC   D2A21808   5.128  35.387   8.264
 1507POPC   C3A21809   5.062  35.399   7.964
 1507POPC   C4A21810   5.125  35.395   7.664
 1507POPC   C1B21811   5.000  35.609   8.564
 1507POPC   C2B21812   4.989  35.561   8.264
 1507POPC   C3B21813   4.924  35.524   7.964
 1507POPC   C4B21814   4.925  35.562   7.664
 1508POPC   NC321815  37.677  22.933   9.464
 1508POPC   PO421816  37.643  22.896   9.164
 1508POPC   GL121817  37.690  22.981   8.864
 1508POPC   GL221818  37.639  23.001   8.864
 1508POPC   C1A21819  37.707  22.963   8.564
 1508POPC   D2A21820  37.666  22.890   8.264
 1508POPC   C3A21821  37.661  22.962   7.964
 1508POPC   C4A21822  37.653  22.902   7.664
 1508POPC   C1B21823  37.483  23.132   8.564
 1508POPC   C2B21824  37.567  23.111   8.264
 1508POPC   C3B21825  37.541  23.168   7.964
 1508POPC   C4B21826  37.488  23.117   7.664
 1509POPC   NC321827  37.653  27.552   9.464
 1509POPC   PO421828  37.670  27.563   9.164
 1509POPC   GL121829  37.691  27.639   8.864
 1509POPC   GL221830  37.725  27.692   8.864
 1509POPC   C1A21831  37.691  27.564   8.564
 1509POPC   D2A21832  37.695  27.592   8.264
 1509POPC   C3A21833  37.690  27.628   7.964
 1509POPC   C4A21834  37.652  27.555   7.664
 1509POPC   C1B21835  37.844  27.775   8.564
 1509POPC   C2B21836  37.747  27.850   8.264
 1509POPC   C3B21837  37.752  27.787   7.964
 1509POPC   C4B21838  37.796  27.808   7.664
 1510POPC   NC321839  26.086   0.427   9.464
 1510POPC   PO421840  26.055   0.471   9.164
 1510POPC   GL121841  25.995   0.470   8.864
 1510POPC   GL221842  26.090   0.281   8.864
 1510POPC   C1A21843  26.002   0.459   8.564
 1510POPC   D2A21844  26.024   0.441   8.264
 1510POPC   C3A21845  26.032   0.406   7.964
 1510POPC   C4A21846  26.026   0.440   7.664
 1510POPC   C1B21847  26.133   0.187   8.564
 1510POPC   C2B21848  26.094   0.212   8.264
 1510POPC   C3B21849  26.127   0.204   7.964
 1510POPC   C4B21850  26.049   0.236   7.664
 1511POPC   NC321851  36.884  15.928   9.464
 1511POPC   PO421852  36.946  15.950   9.164
 1511POPC   GL121853  36.931  15.960   8.864
 1511POPC   GL221854  36.770  15.942   8.864
 1511POPC   C1A21855  36.865  15.942   8.564
 1511POPC   D2A21856  36.951  15.926   8.264
 1511POPC   C3A21857  36.917  15.922   7.964
 1511POPC   C4A21858  36.938  15.962   7.664
 1511POPC   C1B21859  36.698  15.961   8.564
 1511POPC   C2B21860  36.606  16.005   8.264
 1511POPC   C3B21861  36.657  15.960   7.964
 1511POPC   C4B21862  36.640  16.005   7.664
 1512POPC   NC321863  12.895  23.735   9.464
 1512POPC   PO421864  12.860  23.670   9.164
 1512POPC   GL121865  12.829  23.664   8.864
 1512POPC   GL221866  12.896  23.570   8.864
 1512POPC   C1A21867  12.810  23.674   8.564
 1512POPC   D2A21868  12.889  23.670   8.264
 1512POPC   C3A21869  12.894  23.756   7.964
 1512POPC   C4A21870  12.843  23.696   7.664
 1512POPC   C1B21871  12.948  23.520   8.564
 1512POPC   C2B21872  12.966  23.488   8.264
 1512POPC   C3B21873  12.893  23.465   7.964
 1512POPC   C4B21874  12.986  23.452   7.664
 1513POPC   NC321875  32.255   0.478   9.464
 1513POPC   PO421876  32.225   0.452   9.164
 1513POPC   GL121877  32.247   0.412   8.864
 1513POPC   GL221878  32.339   0.454   8.864
 1513POPC   C1A21879  32.214   0.390   8.564
 1513POPC   D2A21880  32.209   0.403   8.264
 1513POPC   C3A21881  32.248   0.431   7.964
 1513POPC   C4A21882  32.238   0.430   7.664
 1513POPC   C1B21883  32.497   0.513   8.564
 1513POPC   C2B21884  32.451   0.536   8.264
 1513POPC   C3B21885  32.437   0.501   7.964
 1513POPC   C4B21886  32.481   0.512   7.664
 1514POPC   NC321887  21.337  40.003   9.464
 1514POPC   PO421888  21.368  39.998   9.164
 1514POPC   GL121889  21.369  40.010   8.864
 1514POPC   GL221890  21.269  39.996   8.864
 1514POPC   C1A21891  21.373  39.970   8.564
 1514POPC   D2A21892  21.398  40.031   8.264
 1514POPC   C3A21893  21.350  40.022   7.964
 1514POPC   C4A21894  21.405  40.029   7.664
 1514POPC   C1B21895  21.096  39.947   8.564
 1514POPC   C2B21896  21.124  40.013   8.264
 1514POPC   C3B21897  21.108  39.997   7.964
 1514POPC   C4B21898  21.113  40.027   7.664
 1515POPC   NC321899   5.901   7.466   9.464
 1515POPC   PO421900   5.851   7.403   9.164
 1515POPC   GL121901   5.847   7.431   8.864
 1515POPC   GL221902   5.809   7.546   8.864
 1515POPC   C1A21903   5.889   7.467   8.564
 1515POPC   D2A21904   5.911   7.449   8.264
 1515POPC   C3A21905   5.902   7.437   7.964
 1515POPC   C4A21906   5.832   7.417   7.664
 1515POPC   C1B21907   5.791   7.616   8.564
 1515POPC   C2B21908   5.785   7.620   8.264
 1515POPC   C3B21909   5.762   7.646   7.964
 1515POPC   C4B21910   5.773   7.609   7.664
 1516POPC   NC321911  34.536  37.698   9.464
 1516POPC   PO421912  34.576  37.672   9.164
 1516POPC   GL121913  34.614  37.634   8.864
 1516POPC   GL221914  34.563  37.545   8.864
 1516POPC   C1A21915  34.549  37.630   8.564
 1516POPC   D2A21916  34.591  37.723   8.264
 1516POPC   C3A21917  34.530  37.656   7.964
 1516POPC   C4A21918  34.603  37.638   7.664
 1516POPC   C1B21919  34.410  37.502   8.564
 1516POPC   C2B21920  34.436  37.439   8.264
 1516POPC   C3B21921  34.499  37.443   7.964
 1516POPC   C4B21922  34.422  37.496   7.664
 1517POPC   NC321923   8.213  11.316   9.464
 1517POPC   PO421924   8.147  11.337   9.164
 1517POPC   GL121925   8.165  11.332   8.864
 1517POPC   GL221926   8.146  11.379   8.864
 1517POPC   C1A21927   8.149  11.324   8.564
 1517POPC   D2A21928   8.235  11.278   8.264
 1517POPC   C3A21929   8.212  11.322   7.964
 1517POPC   C4A21930   8.182  11.300   7.664
 1517POPC   C1B21931   8.143  11.497   8.564
 1517POPC   C2B21932   8.142  11.546   8.264
 1517POPC   C3B21933   8.093  11.491   7.964
 1517POPC   C4B21934   8.073  11.503   7.664
 1518POPC   NC321935  16.714  22.914   9.464
 1518POPC   PO421936  16.725  22.929   9.164
 1518POPC   GL121937  16.752  22.913   8.864
 1518POPC   GL221938  16.707  23.074   8.864
 1518POPC   C1A21939  16.696  22.920   8.564
 1518POPC   D2A21940  16.751  22.981   8.264
 1518POPC   C3A21941  16.732  22.962   7.964
 1518POPC   C4A21942  16.734  22.941   7.664
 1518POPC   C1B21943  16.650  23.154   8.564
 1518POPC   C2B21944  16.642  23.122   8.264
 1518POPC   C3B21945  16.571  23.151   7.964
 1518POPC   C4B21946  16.634  23.156   7.664
 1519POPC   NC321947  28.375   1.186   9.464
 1519POPC   PO421948  28.364   1.187   9.164
 1519POPC   GL121949  28.414   1.252   8.864
 1519POPC   GL221950  28.324   1.362   8.864
 1519POPC   C1A21951  28.356   1.241   8.564
 1519POPC   D2A21952  28.331   1.205   8.264
 1519POPC   C3A21953  28.358   1.227   7.964
 1519POPC   C4A21954  28.387   1.203   7.664
 1519POPC   C1B21955  28.308   1.406   8.564
 1519POPC   C2B21956  28.237   1.431   8.264
 1519POPC   C3B21957  28.241   1.476   7.964
 1519POPC   C4B21958  28.318   1.489   7.664
 1520POPC   NC321959  29.179  29.962   9.464
 1520POPC   PO421960  29.161  29.892   9.164
 1520POPC   GL121961  29.155  29.916   8.864
 1520POPC   GL221962  29.161  30.080   8.864
 1520POPC   C1A21963  29.107  29.953   8.564
 1520POPC   D2A21964  29.152  29.931   8.264
 1520POPC   C3A21965  29.178  29.969   7.964
 1520POPC   C4A21966  29.146  29.968   7.664
 1520POPC   C1B21967  29.218  30.151   8.564
 1520POPC   C2B21968  29.232  30.179   8.264
 1520POPC   C3B21969  29.226  30.125   7.964
 1520POPC   C4B21970  29.177  30.150   7.664
 1521POPC   NC321971  12.119  13.607   9.464
 1521POPC   PO421972  12.115  13.671   9.164
 1521POPC   GL121973  12.056  13.654   8.864
 1521POPC   GL221974  11.984  13.741   8.864
 1521POPC   C1A21975  12.047  13.677   8.564
 1521POPC   D2A21976  12.104  13.588   8.264
 1521POPC   C3A21977  12.124  13.615   7.964
 1521POPC   C4A21978  12.050  13.648   7.664
 1521POPC   C1B21979  11.835  13.781   8.564
 1521POPC   C2B21980  11.869  13.798   8.264
 1521POPC   C3B21981  11.848  13.772   7.964
 1521POPC   C4B21982  11.893  13.793   7.664
 1522POPC   NC321983   9.006   4.302   9.464
 1522POPC   PO421984   8.947   4.334   9.164
 1522POPC   GL121985   8.926   4.320   8.864
 1522POPC   GL221986   8.914   4.397   8.864
 1522POPC   C1A21987   8.940   4.283   8.564
 1522POPC   D2A21988   8.981   4.282   8.264
 1522POPC   C3A21989   9.002   4.315   7.964
 1522POPC   C4A21990   8.949   4.300   7.664
 1522POPC   C1B21991   8.798   4.545   8.564
 1522POPC   C2B21992   8.840   4.561   8.264
 1522POPC   C3B21993   8.775   4.508   7.964
 1522POPC   C4B21994   8.825   4.495   7.664
 1523POPC   NC321995  12.078  36.858   9.464
 1523POPC   PO421996  12.033  36.872   9.164
 1523POPC   GL121997  12.041  36.949   8.864
 1523POPC   GL221998  12.141  36.880   8.864
 1523POPC   C1A21999  12.060  36.886   8.564
 1523POPC   D2A22000  12.080  36.919   8.264
 1523POPC   C3A22001  12.071  36.877   7.964
 1523POPC   C4A22002  12.042  36.906   7.664
 1523POPC   C1B22003  12.271  36.722   8.564
 1523POPC   C2B22004  12.325  36.724   8.264
 1523POPC   C3B22005  12.321  36.775   7.964
 1523POPC   C4B22006  12.263  36.758   7.664
 1524POPC   NC322007  10.536  23.763   9.464
 1524POPC   PO422008  10.545  23.697   9.164
 1524POPC   GL122009  10.511  23.672   8.864
 1524POPC   GL222010  10.421  23.631   8.864
 1524POPC   C1A22011  10.484  23.676   8.564
 1524POPC   D2A22012  10.564  23.720   8.264
 1524POPC   C3A22013  10.484  23.750   7.964
 1524POPC   C4A22014  10.534  23.747   7.664
 1524POPC   C1B22015  10.414  23.474   8.564
 1524POPC   C2B22016  10.417  23.487   8.264
 1524POPC   C3B22017  10.366  23.446   7.964
 1524POPC   C4B22018  10.458  23.523   7.664
 1525POPC   NC322019  30.697  17.473   9.464
 1525POPC   PO422020  30.730  17.509   9.164
 1525POPC   GL122021  30.679  17.486   8.864
 1525POPC   GL222022  30.823  17.533   8.864
 1525POPC   C1A22023  30.709  17.473   8.564
 1525POPC   D2A22024  30.683  17.497   8.264
 1525POPC   C3A22025  30.683  17.495   7.964
 1525POPC   C4A22026  30.649  17.509   7.664
 1525POPC   C1B22027  30.938  17.428   8.564
 1525POPC   C2B22028  30.971  17.520   8.264
 1525POPC   C3B22029  30.987  17.498   7.964
 1525POPC   C4B22030  30.920  17.500   7.664
 1526POPC   NC322031  14.379  40.009   9.464
 1526POPC   PO422032  14.434  40.034   9.164
 1526POPC   GL122033  14.439  40.011   8.864
 1526POPC   GL222034  14.550  39.954   8.864
 1526POPC   C1A22035  14.364  40.021   8.564
 1526POPC   D2A22036  14.379  40.008   8.264
 1526POPC   C3A22037  14.383  40.050   7.964
 1526POPC   C4A22038  14.407  39.958   7.664
 1526POPC   C1B22039  14.686  39.937   8.564
 1526POPC   C2B22040  14.657  39.951   8.264
 1526POPC   C3B22041  14.664  39.963   7.964
 1526POPC   C4B22042  14.608  39.919   7.664
 1527POPC   NC322043  39.222  13.625   9.464
 1527POPC   PO422044  39.225  13.607   9.164
 1527POPC   GL122045  39.276  13.628   8.864
 1527POPC   GL222046  39.346  13.725   8.864
 1527POPC   C1A22047  39.246  13.645   8.564
 1527POPC   D2A22048  39.219  13.580   8.264
 1527POPC   C3A22049  39.213  13.624   7.964
 1527POPC   C4A22050  39.216  13.590   7.664
 1527POPC   C1B22051  39.398  13.779   8.564
 1527POPC   C2B22052  39.457  13.763   8.264
 1527POPC   C3B22053  39.453  13.814   7.964
 1527POPC   C4B22054  39.444  13.801   7.664
 1528POPC   NC322055  21.410  12.098   9.464
 1528POPC   PO422056  21.413  12.094   9.164
 1528POPC   GL122057  21.340  12.089   8.864
 1528POPC   GL222058  21.427  11.924   8.864
 1528POPC   C1A22059  21.422  12.052   8.564
 1528POPC   D2A22060  21.388  12.052   8.264
 1528POPC   C3A22061  21.414  12.105   7.964
 1528POPC   C4A22062  21.426  12.090   7.664
 1528POPC   C1B22063  21.399  11.874   8.564
 1528POPC   C2B22064  21.434  11.831   8.264
 1528POPC   C3B22065  21.403  11.862   7.964
 1528POPC   C4B22066  21.384  11.872   7.664
 1529POPC   NC322067  42.373  21.400   9.464
 1529POPC   PO422068  42.359  21.398   9.164
 1529POPC   GL122069  42.297  21.388   8.864
 1529POPC   GL222070  42.434  21.468   8.864
 1529POPC   C1A22071  42.344  21.352   8.564
 1529POPC   D2A22072  42.343  21.409   8.264
 1529POPC   C3A22073  42.369  21.412   7.964
 1529POPC   C4A22074  42.373  21.412   7.664
 1529POPC   C1B22075  42.529  21.499   8.564
 1529POPC   C2B22076  42.518  21.584   8.264
 1529POPC   C3B22077  42.517  21.492   7.964
 1529POPC   C4B22078  42.518  21.560   7.664
 1530POPC   NC322079   8.940  29.938   9.464
 1530POPC   PO422080   9.003  29.941   9.164
 1530POPC   GL122081   8.945  29.932   8.864
 1530POPC   GL222082   9.074  29.857   8.864
 1530POPC   C1A22083   8.971  29.926   8.564
 1530POPC   D2A22084   8.993  29.875   8.264
 1530POPC   C3A22085   8.966  29.892   7.964
 1530POPC   C4A22086   9.002  29.940   7.664
 1530POPC   C1B22087   9.227  29.864   8.564
 1530POPC   C2B22088   9.261  29.827   8.264
 1530POPC   C3B22089   9.176  29.852   7.964
 1530POPC   C4B22090   9.262  29.862   7.664
 1531POPC   NC322091   7.389  29.893   9.464
 1531POPC   PO422092   7.394  29.883   9.164
 1531POPC   GL122093   7.374  29.908   8.864
 1531POPC   GL222094   7.282  29.942   8.864
 1531POPC   C1A22095   7.379  29.911   8.564
 1531POPC   D2A22096   7.436  29.938   8.264
 1531POPC   C3A22097   7.433  29.883   7.964
 1531POPC   C4A22098   7.405  29.907   7.664
 1531POPC   C1B22099   7.162  30.055   8.564
 1531POPC   C2B22100   7.173  29.988   8.264
 1531POPC   C3B22101   7.146  30.045   7.964
 1531POPC   C4B22102   7.152  29.979   7.664
 1532POPC   NC322103  22.192  43.924   9.464
 1532POPC   PO422104  22.186  43.840   9.164
 1532POPC   GL122105  22.181  43.922   8.864
 1532POPC   GL222106  22.188  43.738   8.864
 1532POPC   C1A22107  22.175  43.931   8.564
 1532POPC   D2A22108  22.129  43.875   8.264
 1532POPC   C3A22109  22.198  43.863   7.964
 1532POPC   C4A22110  22.161  43.849   7.664
 1532POPC   C1B22111  22.357  43.673   8.564
 1532POPC   C2B22112  22.343  43.663   8.264
 1532POPC   C3B22113  22.277  43.682   7.964
 1532POPC   C4B22114  22.306  43.697   7.664
 1533POPC   NC322115  27.623  13.637   9.464
 1533POPC   PO422116  27.598  13.669   9.164
 1533POPC   GL122117  27.592  13.627   8.864
 1533POPC   GL222118  27.610  13.726   8.864
 1533POPC   C1A22119  27.564  13.643   8.564
 1533POPC   D2A22120  27.629  13.659   8.264
 1533POPC   C3A22121  27.565  13.634   7.964
 1533POPC   C4A22122  27.621  13.611   7.664
 1533POPC   C1B22123  27.624  13.854   8.564
 1533POPC   C2B22124  27.647  13.884   8.264
 1533POPC   C3B22125  27.623  13.896   7.964
 1533POPC   C4B22126  27.619  13.893   7.664
 1534POPC   NC322127  24.513   2.725   9.464
 1534POPC   PO422128  24.492   2.723   9.164
 1534POPC   GL122129  24.478   2.738   8.864
 1534POPC   GL222130  24.559   2.734   8.864
 1534POPC   C1A22131  24.518   2.725   8.564
 1534POPC   D2A22132  24.514   2.769   8.264
 1534POPC   C3A22133  24.466   2.735   7.964
 1534POPC   C4A22134  24.463   2.752   7.664
 1534POPC   C1B22135  24.659   2.653   8.564
 1534POPC   C2B22136  24.734   2.651   8.264
 1534POPC   C3B22137  24.669   2.586   7.964
 1534POPC   C4B22138  24.710   2.628   7.664
 1535POPC   NC322139   3.508  33.846   9.464
 1535POPC   PO422140   3.569  33.781   9.164
 1535POPC   GL122141   3.557  33.794   8.864
 1535POPC   GL222142   3.509  33.684   8.864
 1535POPC   C1A22143   3.499  33.765   8.564
 1535POPC   D2A22144   3.544  33.843   8.264
 1535POPC   C3A22145   3.571  33.794   7.964
 1535POPC   C4A22146   3.568  33.799   7.664
 1535POPC   C1B22147   3.432  33.547   8.564
 1535POPC   C2B22148   3.485  33.546   8.264
 1535POPC   C3B22149   3.452  33.576   7.964
 1535POPC   C4B22150   3.422  33.561   7.664
 1536POPC   NC322151   9.758   4.345   9.464
 1536POPC   PO422152   9.753   4.346   9.164
 1536POPC   GL122153   9.734   4.307   8.864
 1536POPC   GL222154   9.882   4.321   8.864
 1536POPC   C1A22155   9.788   4.325   8.564
 1536POPC   D2A22156   9.795   4.306   8.264
 1536POPC   C3A22157   9.764   4.303   7.964
 1536POPC   C4A22158   9.777   4.324   7.664
 1536POPC   C1B22159  10.044   4.312   8.564
 1536POPC   C2B22160  10.032   4.347   8.264
 1536POPC   C3B22161  10.022   4.389   7.964
 1536POPC   C4B22162   9.983   4.340   7.664
 1537POPC   NC322163   7.379   2.774   9.464
 1537POPC   PO422164   7.378   2.719   9.164
 1537POPC   GL122165   7.455   2.743   8.864
 1537POPC   GL222166   7.436   2.645   8.864
 1537POPC   C1A22167   7.375   2.724   8.564
 1537POPC   D2A22168   7.467   2.792   8.264
 1537POPC   C3A22169   7.376   2.766   7.964
 1537POPC   C4A22170   7.401   2.761   7.664
 1537POPC   C1B22171   7.377   2.525   8.564
 1537POPC   C2B22172   7.466   2.468   8.264
 1537POPC   C3B22173   7.434   2.489   7.964
 1537POPC   C4B22174   7.454   2.518   7.664
 1538POPC   NC322175  20.608  40.784   9.464
 1538POPC   PO422176  20.642  40.758   9.164
 1538POPC   GL122177  20.575  40.734   8.864
 1538POPC   GL222178  20.685  40.674   8.864
 1538POPC   C1A22179  20.655  40.808   8.564
 1538POPC   D2A22180  20.660  40.793   8.264
 1538POPC   C3A22181  20.563  40.789   7.964
 1538POPC   C4A22182  20.628  40.805   7.664
 1538POPC   C1B22183  20.681  40.599   8.564
 1538POPC   C2B22184  20.738  40.568   8.264
 1538POPC   C3B22185  20.719  40.521   7.964
 1538POPC   C4B22186  20.740  40.546   7.664
 1539POPC   NC322187   9.003  23.683   9.464
 1539POPC   PO422188   8.942  23.745   9.164
 1539POPC   GL122189   8.960  23.704   8.864
 1539POPC   GL222190   8.835  23.617   8.864
 1539POPC   C1A22191   8.937  23.728   8.564
 1539POPC   D2A22192   8.923  23.718   8.264
 1539POPC   C3A22193   8.949  23.684   7.964
 1539POPC   C4A22194   8.976  23.740   7.664
 1539POPC   C1B22195   8.783  23.590   8.564
 1539POPC   C2B22196   8.709  23.610   8.264
 1539POPC   C3B22197   8.796  23.569   7.964
 1539POPC   C4B22198   8.705  23.584   7.664
 1540POPC   NC322199  12.113  42.370   9.464
 1540POPC   PO422200  12.092  42.318   9.164
 1540POPC   GL122201  12.069  42.309   8.864
 1540POPC   GL222202  11.961  42.257   8.864
 1540POPC   C1A22203  12.067  42.290   8.564
 1540POPC   D2A22204  12.087  42.297   8.264
 1540POPC   C3A22205  12.089  42.299   7.964
 1540POPC   C4A22206  12.125  42.382   7.664
 1540POPC   C1B22207  11.871  42.132   8.564
 1540POPC   C2B22208  11.960  42.145   8.264
 1540POPC   C3B22209  11.877  42.123   7.964
 1540POPC   C4B22210  11.903  42.160   7.664
 1541POPC   NC322211  39.975  36.867   9.464
 1541POPC   PO422212  39.962  36.882   9.164
 1541POPC   GL122213  40.042  36.894   8.864
 1541POPC   GL222214  40.016  36.982   8.864
 1541POPC   C1A22215  40.006  36.951   8.564
 1541POPC   D2A22216  40.021  36.934   8.264
 1541POPC   C3A22217  40.024  36.912   7.964
 1541POPC   C4A22218  40.000  36.946   7.664
 1541POPC   C1B22219  40.006  37.171   8.564
 1541POPC   C2B22220  39.990  37.123   8.264
 1541POPC   C3B22221  40.011  37.180   7.964
 1541POPC   C4B22222  40.072  37.167   7.664
 1542POPC   NC322223  12.862  29.123   9.464
 1542POPC   PO422224  12.859  29.182   9.164
 1542POPC   GL122225  12.882  29.101   8.864
 1542POPC   GL222226  12.962  29.127   8.864
 1542POPC   C1A22227  12.824  29.158   8.564
 1542POPC   D2A22228  12.806  29.101   8.264
 1542POPC   C3A22229  12.877  29.102   7.964
 1542POPC   C4A22230  12.825  29.139   7.664
 1542POPC   C1B22231  13.120  29.095   8.564
 1542POPC   C2B22232  13.140  29.089   8.264
 1542POPC   C3B22233  13.056  29.106   7.964
 1542POPC   C4B22234  13.142  29.138   7.664
 1543POPC   NC322235  26.838  20.586   9.464
 1543POPC   PO422236  26.849  20.624   9.164
 1543POPC   GL122237  26.786  20.600   8.864
 1543POPC   GL222238  26.875  20.515   8.864
 1543POPC   C1A22239  26.804  20.584   8.564
 1543POPC   D2A22240  26.837  20.602   8.264
 1543POPC   C3A22241  26.823  20.632   7.964
 1543POPC   C4A22242  26.818  20.597   7.664
 1543POPC   C1B22243  26.962  20.429   8.564
 1543POPC   C2B22244  26.874  20.387   8.264
 1543POPC   C3B22245  26.886  20.393   7.964
 1543POPC   C4B22246  26.918  20.423   7.664
 1544POPC   NC322247  27.576  40.796   9.464
 1544POPC   PO422248  27.585  40.758   9.164
 1544POPC   GL122249  27.588  40.739   8.864
 1544POPC   GL222250  27.481  40.647   8.864
 1544POPC   C1A22251  27.571  40.815   8.564
 1544POPC   D2A22252  27.628  40.803   8.264
 1544POPC   C3A22253  27.616  40.777   7.964
 1544POPC   C4A22254  27.545  40.738   7.664
 1544POPC   C1B22255  27.424  40.646   8.564
 1544POPC   C2B22256  27.390  40.613   8.264
 1544POPC   C3B22257  27.455  40.645   7.964
 1544POPC   C4B22258  27.472  40.557   7.664
 1545POPC   NC322259   8.942  36.133   9.464
 1545POPC   PO422260   9.008  36.080   9.164
 1545POPC   GL122261   8.927  36.136   8.864
 1545POPC   GL222262   9.074  36.134   8.864
 1545POPC   C1A22263   8.976  36.099   8.564
 1545POPC   D2A22264   8.994  36.083   8.264
 1545POPC   C3A22265   9.020  36.134   7.964
 1545POPC   C4A22266   8.996  36.106   7.664
 1545POPC   C1B22267   9.165  36.190   8.564
 1545POPC   C2B22268   9.224  36.205   8.264
 1545POPC   C3B22269   9.226  36.192   7.964
 1545POPC   C4B22270   9.234  36.171   7.664
 1546POPC   NC322271  15.141  16.780   9.464
 1546POPC   PO422272  15.173  16.702   9.164
 1546POPC   GL122273  15.212  16.694   8.864
 1546POPC   GL222274  15.142  16.630   8.864
 1546POPC   C1A22275  15.214  16.690   8.564
 1546POPC   D2A22276  15.153  16.688   8.264
 1546POPC   C3A22277  15.170  16.742   7.964
 1546POPC   C4A22278  15.224  16.731   7.664
 1546POPC   C1B22279  15.000  16.600   8.564
 1546POPC   C2B22280  15.046  16.595   8.264
 1546POPC   C3B22281  15.022  16.591   7.964
 1546POPC   C4B22282  14.964  16.593   7.664
 1547POPC   NC322283  15.916   2.721   9.464
 1547POPC   PO422284  16.002   2.726   9.164
 1547POPC   GL122285  15.958   2.805   8.864
 1547POPC   GL222286  16.088   2.815   8.864
 1547POPC   C1A22287  15.979   2.731   8.564
 1547POPC   D2A22288  15.938   2.756   8.264
 1547POPC   C3A22289  15.962   2.780   7.964
 1547POPC   C4A22290  15.996   2.793   7.664
 1547POPC   C1B22291  16.197   2.805   8.564
 1547POPC   C2B22292  16.236   2.756   8.264
 1547POPC   C3B22293  16.188   2.809   7.964
 1547POPC   C4B22294  16.184   2.737   7.664
 1548POPC   NC322295   2.016  23.752   9.464
 1548POPC   PO422296   2.002  23.690   9.164
 1548POPC   GL122297   1.940  23.738   8.864
 1548POPC   GL222298   1.873  23.694   8.864
 1548POPC   C1A22299   1.952  23.746   8.564
 1548POPC   D2A22300   2.007  23.725   8.264
 1548POPC   C3A22301   1.961  23.755   7.964
 1548POPC   C4A22302   2.038  23.738   7.664
 1548POPC   C1B22303   1.744  23.706   8.564
 1548POPC   C2B22304   1.763  23.727   8.264
 1548POPC   C3B22305   1.701  23.738   7.964
 1548POPC   C4B22306   1.787  23.726   7.664
 1549POPC   NC322307  16.730  19.023   9.464
 1549POPC   PO422308  16.757  19.093   9.164
 1549POPC   GL122309  16.774  19.027   8.864
 1549POPC   GL222310  16.571  19.072   8.864
 1549POPC   C1A22311  16.772  19.043   8.564
 1549POPC   D2A22312  16.739  19.098   8.264
 1549POPC   C3A22313  16.713  19.072   7.964
 1549POPC   C4A22314  16.744  19.052   7.664
 1549POPC   C1B22315  16.530  19.102   8.564
 1549POPC   C2B22316  16.476  19.132   8.264
 1549POPC   C3B22317  16.507  19.138   7.964
 1549POPC   C4B22318  16.480  19.189   7.664
 1550POPC   NC322319  40.733  29.876   9.464
 1550POPC   PO422320  40.789  29.910   9.164
 1550POPC   GL122321  40.783  29.919   8.864
 1550POPC   GL222322  40.902  29.848   8.864
 1550POPC   C1A22323  40.766  29.917   8.564
 1550POPC   D2A22324  40.747  29.898   8.264
 1550POPC   C3A22325  40.782  29.944   7.964
 1550POPC   C4A22326  40.745  29.921   7.664
 1550POPC   C1B22327  41.003  29.757   8.564
 1550POPC   C2B22328  40.990  29.716   8.264
 1550POPC   C3B22329  41.014  29.806   7.964
 1550POPC   C4B22330  40.965  29.726   7.664
 1551POPC   NC322331   9.013  32.203   9.464
 1551POPC   PO422332   9.013  32.276   9.164
 1551POPC   GL122333   8.963  32.234   8.864
 1551POPC   GL222334   8.891  32.170   8.864
 1551POPC   C1A22335   8.961  32.292   8.564
 1551POPC   D2A22336   9.002  32.264   8.264
 1551POPC   C3A22337   9.002  32.252   7.964
 1551POPC   C4A22338   8.970  32.298   7.664
 1551POPC   C1B22339   8.797  32.089   8.564
 1551POPC   C2B22340   8.796  32.054   8.264
 1551POPC   C3B22341   8.789  32.106   7.964
 1551POPC   C4B22342   8.802  32.092   7.664
 1552POPC   NC322343  14.410  31.451   9.464
 1552POPC   PO422344  14.419  31.442   9.164
 1552POPC   GL122345  14.391  31.498   8.864
 1552POPC   GL222346  14.504  31.494   8.864
 1552POPC   C1A22347  14.434  31.423   8.564
 1552POPC   D2A22348  14.444  31.522   8.264
 1552POPC   C3A22349  14.365  31.492   7.964
 1552POPC   C4A22350  14.421  31.462   7.664
 1552POPC   C1B22351  14.660  31.447   8.564
 1552POPC   C2B22352  14.686  31.485   8.264
 1552POPC   C3B22353  14.622  31.456   7.964
 1552POPC   C4B22354  14.688  31.445   7.664
 1553POPC   NC322355   5.135   8.937   9.464
 1553POPC   PO422356   5.069   8.964   9.164
 1553POPC   GL122357   5.089   8.967   8.864
 1553POPC   GL222358   5.029   9.117   8.864
 1553POPC   C1A22359   5.088   8.992   8.564
 1553POPC   D2A22360   5.053   8.923   8.264
 1553POPC   C3A22361   5.081   8.991   7.964
 1553POPC   C4A22362   5.044   8.926   7.664
 1553POPC   C1B22363   4.965   9.198   8.564
 1553POPC   C2B22364   4.940   9.167   8.264
 1553POPC   C3B22365   5.020   9.172   7.964
 1553POPC   C4B22366   4.948   9.146   7.664
 1554POPC   NC322367  12.089   2.740   9.464
 1554POPC   PO422368  12.043   2.749   9.164
 1554POPC   GL122369  12.110   2.735   8.864
 1554POPC   GL222370  12.072   2.615   8.864
 1554POPC   C1A22371  12.105   2.784   8.564
 1554POPC   D2A22372  12.081   2.758   8.264
 1554POPC   C3A22373  12.073   2.805   7.964
 1554POPC   C4A22374  12.111   2.729   7.664
 1554POPC   C1B22375  12.098   2.492   8.564
 1554POPC   C2B22376  12.126   2.534   8.264
 1554POPC   C3B22377  12.129   2.530   7.964
 1554POPC   C4B22378  12.153   2.484   7.664
 1555POPC   NC322379  39.221  43.131   9.464
 1555POPC   PO422380  39.220  43.068   9.164
 1555POPC   GL122381  39.208  43.087   8.864
 1555POPC   GL222382  39.265  43.278   8.864
 1555POPC   C1A22383  39.278  43.089   8.564
 1555POPC   D2A22384  39.250  43.142   8.264
 1555POPC   C3A22385  39.197  43.147   7.964
 1555POPC   C4A22386  39.234  43.061   7.664
 1555POPC   C1B22387  39.262  43.349   8.564
 1555POPC   C2B22388  39.252  43.331   8.264
 1555POPC   C3B22389  39.269  43.364   7.964
 1555POPC   C4B22390  39.248  43.398   7.664
 1556POPC   NC322391  12.113  33.835   9.464
 1556POPC   PO422392  12.097  33.804   9.164
 1556POPC   GL122393  12.029  33.802   8.864
 1556POPC   GL222394  11.943  33.740   8.864
 1556POPC   C1A22395  12.083  33.773   8.564
 1556POPC   D2A22396  12.087  33.802   8.264
 1556POPC   C3A22397  12.114  33.771   7.964
 1556POPC   C4A22398  12.073  33.806   7.664
 1556POPC   C1B22399  11.885  33.681   8.564
 1556POPC   C2B22400  11.861  33.668   8.264
 1556POPC   C3B22401  11.824  33.629   7.964
 1556POPC   C4B22402  11.859  33.702   7.664
 1557POPC   NC322403  20.646  19.877   9.464
 1557POPC   PO422404  20.574  19.806   9.164
 1557POPC   GL122405  20.572  19.884   8.864
 1557POPC   GL222406  20.517  19.884   8.864
 1557POPC   C1A22407  20.633  19.802   8.564
 1557POPC   D2A22408  20.569  19.802   8.264
 1557POPC   C3A22409  20.600  19.841   7.964
 1557POPC   C4A22410  20.587  19.828   7.664
 1557POPC   C1B22411  20.375  19.793   8.564
 1557POPC   C2B22412  20.397  19.812   8.264
 1557POPC   C3B22413  20.388  19.857   7.964
 1557POPC   C4B22414  20.409  19.824   7.664
 1558POPC   NC322415  28.329   7.398   9.464
 1558POPC   PO422416  28.369   7.459   9.164
 1558POPC   GL122417  28.418   7.399   8.864
 1558POPC   GL222418  28.360   7.252   8.864
 1558POPC   C1A22419  28.347   7.390   8.564
 1558POPC   D2A22420  28.369   7.449   8.264
 1558POPC   C3A22421  28.354   7.426   7.964
 1558POPC   C4A22422  28.396   7.438   7.664
 1558POPC   C1B22423  28.383   7.167   8.564
 1558POPC   C2B22424  28.380   7.184   8.264
 1558POPC   C3B22425  28.364   7.171   7.964
 1558POPC   C4B22426  28.435   7.132   7.664
 1559POPC   NC322427  19.828  32.292   9.464
 1559POPC   PO422428  19.847  32.216   9.164
 1559POPC   GL122429  19.865  32.262   8.864
 1559POPC   GL222430  19.744  32.135   8.864
 1559POPC   C1A22431  19.842  32.222   8.564
 1559POPC   D2A22432  19.801  32.291   8.264
 1559POPC   C3A22433  19.830  32.206   7.964
 1559POPC   C4A22434  19.802  32.202   7.664
 1559POPC   C1B22435  19.620  32.082   8.564
 1559POPC   C2B22436  19.667  32.062   8.264
 1559POPC   C3B22437  19.694  32.110   7.964
 1559POPC   C4B22438  19.610  32.103   7.664
 1560POPC   NC322439  21.383   5.077   9.464
 1560POPC   PO422440  21.372   5.125   9.164
 1560POPC   GL122441  21.349   5.112   8.864
 1560POPC   GL222442  21.495   5.108   8.864
 1560POPC   C1A22443  21.365   5.076   8.564
 1560POPC   D2A22444  21.399   5.099   8.264
 1560POPC   C3A22445  21.347   5.062   7.964
 1560POPC   C4A22446  21.415   5.060   7.664
 1560POPC   C1B22447  21.612   5.132   8.564
 1560POPC   C2B22448  21.585   5.125   8.264
 1560POPC   C3B22449  21.625   5.113   7.964
 1560POPC   C4B22450  21.619   5.197   7.664
 1561POPC   NC322451  12.851   0.413   9.464
 1561POPC   PO422452  12.873   0.416   9.164
 1561POPC   GL122453  12.878   0.407   8.864
 1561POPC   GL222454  12.816   0.552   8.864
 1561POPC   C1A22455  12.857   0.404   8.564
 1561POPC   D2A22456  12.818   0.487   8.264
 1561POPC   C3A22457  12.807   0.394   7.964
 1561POPC   C4A22458  12.851   0.416   7.664
 1561POPC   C1B22459  12.756   0.704   8.564
 1561POPC   C2B22460  12.743   0.642   8.264
 1561POPC   C3B22461  12.805   0.675   7.964
 1561POPC   C4B22462  12.772   0.635   7.664
 1562POPC   NC322463  44.701  29.893   9.464
 1562POPC   PO422464  44.662  29.965   9.164
 1562POPC   GL122465  44.631  29.920   8.864
 1562POPC   GL222466  44.555  29.807   8.864
 1562POPC   C1A22467  44.679  29.945   8.564
 1562POPC   D2A22468  44.667  29.951   8.264
 1562POPC   C3A22469  44.704  29.961   7.964
 1562POPC   C4A22470  44.634  29.938   7.664
 1562POPC   C1B22471  44.478  29.712   8.564
 1562POPC   C2B22472  44.525  29.780   8.264
 1562POPC   C3B22473  44.471  29.790   7.964
 1562POPC   C4B22474  44.502  29.710   7.664
 1563POPC   NC322475   0.431  19.799   9.464
 1563POPC   PO422476   0.447  19.839   9.164
 1563POPC   GL122477   0.432  19.809   8.864
 1563POPC   GL222478   0.332  19.812   8.864
 1563POPC   C1A22479   0.428  19.847   8.564
 1563POPC   D2A22480   0.449  19.816   8.264
 1563POPC   C3A22481   0.458  19.834   7.964
 1563POPC   C4A22482   0.397  19.821   7.664
 1563POPC   C1B22483   0.230  19.783   8.564
 1563POPC   C2B22484   0.181  19.806   8.264
 1563POPC   C3B22485   0.198  19.818   7.964
 1563POPC   C4B22486   0.163  19.843   7.664
 1564POPC   NC322487  30.665  32.251   9.464
 1564POPC   PO422488  30.713  32.219   9.164
 1564POPC   GL122489  30.706  32.233   8.864
 1564POPC   GL222490  30.596  32.090   8.864
 1564POPC   C1A22491  30.661  32.204   8.564
 1564POPC   D2A22492  30.683  32.218   8.264
 1564POPC   C3A22493  30.657  32.203   7.964
 1564POPC   C4A22494  30.746  32.232   7.664
 1564POPC   C1B22495  30.555  32.059   8.564
 1564POPC   C2B22496  30.540  32.009   8.264
 1564POPC   C3B22497  30.595  32.045   7.964
 1564POPC   C4B22498  30.627  32.065   7.664
 1565POPC   NC322499   9.022   0.408   9.464
 1565POPC   PO422500   9.009   0.394   9.164
 1565POPC   GL122501   8.930   0.418   8.864
 1565POPC   GL222502   8.987   0.288   8.864
 1565POPC   C1A22503   8.983   0.394   8.564
 1565POPC   D2A22504   9.013   0.392   8.264
 1565POPC   C3A22505   8.995   0.469   7.964
 1565POPC   C4A22506   9.010   0.429   7.664
 1565POPC   C1B22507   8.880   0.151   8.564
 1565POPC   C2B22508   8.880   0.149   8.264
 1565POPC   C3B22509   8.872   0.195   7.964
 1565POPC   C4B22510   8.943   0.237   7.664
 1566POPC   NC322511  16.732  16.693   9.464
 1566POPC   PO422512  16.696  16.714   9.164
 1566POPC   GL122513  16.771  16.709   8.864
 1566POPC   GL222514  16.614  16.646   8.864
 1566POPC   C1A22515  16.701  16.722   8.564
 1566POPC   D2A22516  16.776  16.705   8.264
 1566POPC   C3A22517  16.724  16.745   7.964
 1566POPC   C4A22518  16.702  16.732   7.664
 1566POPC   C1B22519  16.534  16.524   8.564
 1566POPC   C2B22520  16.596  16.530   8.264
 1566POPC   C3B22521  16.593  16.566   7.964
 1566POPC   C4B22522  16.571  16.577   7.664
 1567POPC   NC322523  35.313  21.357   9.464
 1567POPC   PO422524  35.308  21.355   9.164
 1567POPC   GL122525  35.336  21.358   8.864
 1567POPC   GL222526  35.485  21.285   8.864
 1567POPC   C1A22527  35.391  21.353   8.564
 1567POPC   D2A22528  35.339  21.339   8.264
 1567POPC   C3A22529  35.398  21.417   7.964
 1567POPC   C4A22530  35.330  21.408   7.664
 1567POPC   C1B22531  35.599  21.292   8.564
 1567POPC   C2B22532  35.541  21.281   8.264
 1567POPC   C3B22533  35.606  21.300   7.964
 1567POPC   C4B22534  35.546  21.287   7.664
 1568POPC   NC322535   7.422  13.608   9.464
 1568POPC   PO422536   7.429  13.627   9.164
 1568POPC   GL122537   7.371  13.673   8.864
 1568POPC   GL222538   7.337  13.513   8.864
 1568POPC   C1A22539   7.377  13.584   8.564
 1568POPC   D2A22540   7.420  13.621   8.264
 1568POPC   C3A22541   7.445  13.655   7.964
 1568POPC   C4A22542   7.410  13.654   7.664
 1568POPC   C1B22543   7.268  13.458   8.564
 1568POPC   C2B22544   7.243  13.407   8.264
 1568POPC   C3B22545   7.242  13.401   7.964
 1568POPC   C4B22546   7.245  13.441   7.664
 1569POPC   NC322547  19.036   5.100   9.464
 1569POPC   PO422548  19.065   5.119   9.164
 1569POPC   GL122549  19.046   5.086   8.864
 1569POPC   GL222550  19.073   5.196   8.864
 1569POPC   C1A22551  19.104   5.100   8.564
 1569POPC   D2A22552  19.069   5.064   8.264
 1569POPC   C3A22553  19.048   5.075   7.964
 1569POPC   C4A22554  19.063   5.141   7.664
 1569POPC   C1B22555  19.004   5.328   8.564
 1569POPC   C2B22556  19.032   5.313   8.264
 1569POPC   C3B22557  19.053   5.327   7.964
 1569POPC   C4B22558  18.976   5.296   7.664
 1570POPC   NC322559  27.564  39.980   9.464
 1570POPC   PO422560  27.639  39.995   9.164
 1570POPC   GL122561  27.584  40.048   8.864
 1570POPC   GL222562  27.578  40.139   8.864
 1570POPC   C1A22563  27.562  39.989   8.564
 1570POPC   D2A22564  27.557  40.028   8.264
 1570POPC   C3A22565  27.629  39.974   7.964
 1570POPC   C4A22566  27.618  39.962   7.664
 1570POPC   C1B22567  27.545  40.296   8.564
 1570POPC   C2B22568  27.594  40.297   8.264
 1570POPC   C3B22569  27.603  40.246   7.964
 1570POPC   C4B22570  27.550  40.212   7.664
 1571POPC   NC322571  22.200  35.328   9.464
 1571POPC   PO422572  22.172  35.379   9.164
 1571POPC   GL122573  22.181  35.360   8.864
 1571POPC   GL222574  22.130  35.252   8.864
 1571POPC   C1A22575  22.123  35.316   8.564
 1571POPC   D2A22576  22.117  35.320   8.264
 1571POPC   C3A22577  22.176  35.327   7.964
 1571POPC   C4A22578  22.157  35.353   7.664
 1571POPC   C1B22579  22.117  35.101   8.564
 1571POPC   C2B22580  22.081  35.111   8.264
 1571POPC   C3B22581  22.045  35.098   7.964
 1571POPC   C4B22582  22.035  35.164   7.664
 1572POPC   NC322583   6.694  40.005   9.464
 1572POPC   PO422584   6.683  40.053   9.164
 1572POPC   GL122585   6.653  40.000   8.864
 1572POPC   GL222586   6.736  40.095   8.864
 1572POPC   C1A22587   6.678  40.012   8.564
 1572POPC   D2A22588   6.620  40.031   8.264
 1572POPC   C3A22589   6.644  39.981   7.964
 1572POPC   C4A22590   6.660  40.009   7.664
 1572POPC   C1B22591   6.875  40.202   8.564
 1572POPC   C2B22592   6.813  40.194   8.264
 1572POPC   C3B22593   6.856  40.123   7.964
 1572POPC   C4B22594   6.820  40.182   7.664
 1573POPC   NC322595   5.827   2.728   9.464
 1573POPC   PO422596   5.913   2.755   9.164
 1573POPC   GL122597   5.850   2.766   8.864
 1573POPC   GL222598   5.792   2.820   8.864
 1573POPC   C1A22599   5.850   2.793   8.564
 1573POPC   D2A22600   5.853   2.771   8.264
 1573POPC   C3A22601   5.831   2.751   7.964
 1573POPC   C4A22602   5.889   2.777   7.664
 1573POPC   C1B22603   5.662   2.901   8.564
 1573POPC   C2B22604   5.634   2.925   8.264
 1573POPC   C3B22605   5.637   2.888   7.964
 1573POPC   C4B22606   5.621   2.937   7.664
 1574POPC   NC322607  41.574  33.055   9.464
 1574POPC   PO422608  41.548  32.980   9.164
 1574POPC   GL122609  41.513  32.994   8.864
 1574POPC   GL222610  41.531  32.863   8.864
 1574POPC   C1A22611  41.570  33.052   8.564
 1574POPC   D2A22612  41.521  32.997   8.264
 1574POPC   C3A22613  41.608  33.008   7.964
 1574POPC   C4A22614  41.598  33.009   7.664
 1574POPC   C1B22615  41.533  32.812   8.564
 1574POPC   C2B22616  41.483  32.751   8.264
 1574POPC   C3B22617  41.524  32.788   7.964
 1574POPC   C4B22618  41.530  32.732   7.664
 1575POPC   NC322619   5.899  12.076   9.464
 1575POPC   PO422620   5.874  12.126   9.164
 1575POPC   GL122621   5.847  12.036   8.864
 1575POPC   GL222622   5.992  11.989   8.864
 1575POPC   C1A22623   5.867  12.072   8.564
 1575POPC   D2A22624   5.910  12.080   8.264
 1575POPC   C3A22625   5.851  12.059   7.964
 1575POPC   C4A22626   5.889  12.116   7.664
 1575POPC   C1B22627   6.109  11.999   8.564
 1575POPC   C2B22628   6.125  12.020   8.264
 1575POPC   C3B22629   6.082  11.941   7.964
 1575POPC   C4B22630   6.082  11.965   7.664
 1576POPC   NC322631  32.294  23.744   9.464
 1576POPC   PO422632  32.215  23.678   9.164
 1576POPC   GL122633  32.262  23.715   8.864
 1576POPC   GL222634  32.246  23.619   8.864
 1576POPC   C1A22635  32.293  23.734   8.564
 1576POPC   D2A22636  32.277  23.740   8.264
 1576POPC   C3A22637  32.243  23.693   7.964
 1576POPC   C4A22638  32.264  23.718   7.664
 1576POPC   C1B22639  32.314  23.493   8.564
 1576POPC   C2B22640  32.277  23.441   8.264
 1576POPC   C3B22641  32.355  23.475   7.964
 1576POPC   C4B22642  32.313  23.455   7.664
 1577POPC   NC322643  43.860   3.581   9.464
 1577POPC   PO422644  43.860   3.552   9.164
 1577POPC   GL122645  43.934   3.496   8.864
 1577POPC   GL222646  43.951   3.646   8.864
 1577POPC   C1A22647  43.890   3.543   8.564
 1577POPC   D2A22648  43.839   3.543   8.264
 1577POPC   C3A22649  43.886   3.516   7.964
 1577POPC   C4A22650  43.867   3.494   7.664
 1577POPC   C1B22651  44.111   3.645   8.564
 1577POPC   C2B22652  44.053   3.703   8.264
 1577POPC   C3B22653  44.112   3.678   7.964
 1577POPC   C4B22654  44.092   3.650   7.664
 1578POPC   NC322655   8.930  39.230   9.464
 1578POPC   PO422656   8.931  39.210   9.164
 1578POPC   GL122657   9.019  39.252   8.864
 1578POPC   GL222658   8.865  39.142   8.864
 1578POPC   C1A22659   8.998  39.205   8.564
 1578POPC   D2A22660   8.996  39.244   8.264
 1578POPC   C3A22661   8.945  39.249   7.964
 1578POPC   C4A22662   8.989  39.211   7.664
 1578POPC   C1B22663   8.755  39.098   8.564
 1578POPC   C2B22664   8.776  39.127   8.264
 1578POPC   C3B22665   8.727  39.125   7.964
 1578POPC   C4B22666   8.729  39.174   7.664
 1579POPC   NC322667  11.253  29.904   9.464
 1579POPC   PO422668  11.267  29.923   9.164
 1579POPC   GL122669  11.306  29.945   8.864
 1579POPC   GL222670  11.411  30.050   8.864
 1579POPC   C1A22671  11.284  29.887   8.564
 1579POPC   D2A22672  11.303  29.887   8.264
 1579POPC   C3A22673  11.350  29.874   7.964
 1579POPC   C4A22674  11.308  29.901   7.664
 1579POPC   C1B22675  11.479  30.085   8.564
 1579POPC   C2B22676  11.416  30.084   8.264
 1579POPC   C3B22677  11.455  30.107   7.964
 1579POPC   C4B22678  11.430  30.064   7.664
 1580POPC   NC322679  26.037  22.922   9.464
 1580POPC   PO422680  26.045  22.973   9.164
 1580POPC   GL122681  26.080  22.926   8.864
 1580POPC   GL222682  26.002  22.803   8.864
 1580POPC   C1A22683  26.045  22.937   8.564
 1580POPC   D2A22684  26.004  22.971   8.264
 1580POPC   C3A22685  26.090  22.982   7.964
 1580POPC   C4A22686  26.036  22.894   7.664
 1580POPC   C1B22687  25.925  22.730   8.564
 1580POPC   C2B22688  25.862  22.769   8.264
 1580POPC   C3B22689  25.854  22.688   7.964
 1580POPC   C4B22690  25.863  22.777   7.664
 1581POPC   NC322691  22.906   8.159   9.464
 1581POPC   PO422692  22.899   8.162   9.164
 1581POPC   GL122693  22.902   8.233   8.864
 1581POPC   GL222694  22.840   8.316   8.864
 1581POPC   C1A22695  22.961   8.235   8.564
 1581POPC   D2A22696  22.963   8.185   8.264
 1581POPC   C3A22697  22.912   8.221   7.964
 1581POPC   C4A22698  22.900   8.215   7.664
 1581POPC   C1B22699  22.752   8.387   8.564
 1581POPC   C2B22700  22.766   8.412   8.264
 1581POPC   C3B22701  22.798   8.400   7.964
 1581POPC   C4B22702  22.760   8.415   7.664
 1582POPC   NC322703   6.640  27.559   9.464
 1582POPC   PO422704   6.693  27.574   9.164
 1582POPC   GL122705   6.690  27.602   8.864
 1582POPC   GL222706   6.569  27.452   8.864
 1582POPC   C1A22707   6.615  27.613   8.564
 1582POPC   D2A22708   6.685  27.627   8.264
 1582POPC   C3A22709   6.604  27.596   7.964
 1582POPC   C4A22710   6.642  27.567   7.664
 1582POPC   C1B22711   6.563  27.382   8.564
 1582POPC   C2B22712   6.580  27.338   8.264
 1582POPC   C3B22713   6.591  27.321   7.964
 1582POPC   C4B22714   6.548  27.379   7.664
 1583POPC   NC322715   8.928  11.281   9.464
 1583POPC   PO422716   8.953  11.340   9.164
 1583POPC   GL122717   8.977  11.301   8.864
 1583POPC   GL222718   9.076  11.272   8.864
 1583POPC   C1A22719   8.972  11.266   8.564
 1583POPC   D2A22720   8.955  11.264   8.264
 1583POPC   C3A22721   8.976  11.299   7.964
 1583POPC   C4A22722   8.971  11.279   7.664
 1583POPC   C1B22723   9.198  11.258   8.564
 1583POPC   C2B22724   9.176  11.279   8.264
 1583POPC   C3B22725   9.249  11.292   7.964
 1583POPC   C4B22726   9.206  11.277   7.664
 1584POPC   NC322727  25.312  20.650   9.464
 1584POPC   PO422728  25.221  20.568   9.164
 1584POPC   GL122729  25.270  20.617   8.864
 1584POPC   GL222730  25.129  20.599   8.864
 1584POPC   C1A22731  25.232  20.637   8.564
 1584POPC   D2A22732  25.289  20.571   8.264
 1584POPC   C3A22733  25.265  20.574   7.964
 1584POPC   C4A22734  25.300  20.592   7.664
 1584POPC   C1B22735  24.995  20.594   8.564
 1584POPC   C2B22736  25.033  20.649   8.264
 1584POPC   C3B22737  24.974  20.601   7.964
 1584POPC   C4B22738  25.057  20.642   7.664
 1585POPC   NC322739   6.595   9.758   9.464
 1585POPC   PO422740   6.669   9.740   9.164
 1585POPC   GL122741   6.666   9.744   8.864
 1585POPC   GL222742   6.694   9.628   8.864
 1585POPC   C1A22743   6.615   9.750   8.564
 1585POPC   D2A22744   6.604   9.765   8.264
 1585POPC   C3A22745   6.669   9.798   7.964
 1585POPC   C4A22746   6.646   9.786   7.664
 1585POPC   C1B22747   6.773   9.581   8.564
 1585POPC   C2B22748   6.845   9.550   8.264
 1585POPC   C3B22749   6.829   9.612   7.964
 1585POPC   C4B22750   6.823   9.565   7.664
 1586POPC   NC322751  12.863  25.293   9.464
 1586POPC   PO422752  12.808  25.283   9.164
 1586POPC   GL122753  12.860  25.255   8.864
 1586POPC   GL222754  12.988  25.329   8.864
 1586POPC   C1A22755  12.897  25.280   8.564
 1586POPC   D2A22756  12.840  25.249   8.264
 1586POPC   C3A22757  12.853  25.314   7.964
 1586POPC   C4A22758  12.809  25.296   7.664
 1586POPC   C1B22759  13.068  25.404   8.564
 1586POPC   C2B22760  13.044  25.413   8.264
 1586POPC   C3B22761  13.094  25.380   7.964
 1586POPC   C4B22762  13.103  25.371   7.664
 1587POPC   NC322763  39.267  22.155   9.464
 1587POPC   PO422764  39.212  22.160   9.164
 1587POPC   GL122765  39.196  22.128   8.864
 1587POPC   GL222766  39.136  22.091   8.864
 1587POPC   C1A22767  39.229  22.152   8.564
 1587POPC   D2A22768  39.188  22.142   8.264
 1587POPC   C3A22769  39.273  22.149   7.964
 1587POPC   C4A22770  39.195  22.209   7.664
 1587POPC   C1B22771  39.036  22.052   8.564
 1587POPC   C2B22772  39.048  22.032   8.264
 1587POPC   C3B22773  39.046  22.098   7.964
 1587POPC   C4B22774  39.025  22.100   7.664
 1588POPC   NC322775  19.025  29.185   9.464
 1588POPC   PO422776  19.025  29.150   9.164
 1588POPC   GL122777  19.060  29.144   8.864
 1588POPC   GL222778  19.033  29.226   8.864
 1588POPC   C1A22779  19.077  29.116   8.564
 1588POPC   D2A22780  19.087  29.173   8.264
 1588POPC   C3A22781  19.027  29.102   7.964
 1588POPC   C4A22782  19.015  29.184   7.664
 1588POPC   C1B22783  18.991  29.378   8.564
 1588POPC   C2B22784  19.071  29.406   8.264
 1588POPC   C3B22785  19.076  29.399   7.964
 1588POPC   C4B22786  19.009  29.444   7.664
 1589POPC   NC322787  35.386  12.856   9.464
 1589POPC   PO422788  35.360  12.892   9.164
 1589POPC   GL122789  35.370  12.863   8.864
 1589POPC   GL222790  35.500  12.829   8.864
 1589POPC   C1A22791  35.378  12.879   8.564
 1589POPC   D2A22792  35.309  12.835   8.264
 1589POPC   C3A22793  35.372  12.817   7.964
 1589POPC   C4A22794  35.348  12.877   7.664
 1589POPC   C1B22795  35.605  12.742   8.564
 1589POPC   C2B22796  35.524  12.769   8.264
 1589POPC   C3B22797  35.594  12.777   7.964
 1589POPC   C4B22798  35.525  12.769   7.664
 1590POPC   NC322799  16.760   4.305   9.464
 1590POPC   PO422800  16.756   4.367   9.164
 1590POPC   GL122801  16.751   4.294   8.864
 1590POPC   GL222802  16.847   4.418   8.864
 1590POPC   C1A22803  16.726   4.297   8.564
 1590POPC   D2A22804  16.694   4.338   8.264
 1590POPC   C3A22805  16.710   4.284   7.964
 1590POPC   C4A22806  16.775   4.306   7.664
 1590POPC   C1B22807  16.874   4.436   8.564
 1590POPC   C2B22808  16.917   4.436   8.264
 1590POPC   C3B22809  16.924   4.525   7.964
 1590POPC   C4B22810  16.910   4.475   7.664
 1591POPC   NC322811   7.424  22.891   9.464
 1591POPC   PO422812   7.418  22.926   9.164
 1591POPC   GL122813   7.389  22.985   8.864
 1591POPC   GL222814   7.569  22.832   8.864
 1591POPC   C1A22815   7.406  22.971   8.564
 1591POPC   D2A22816   7.375  22.973   8.264
 1591POPC   C3A22817   7.437  22.916   7.964
 1591POPC   C4A22818   7.396  22.927   7.664
 1591POPC   C1B22819   7.670  22.837   8.564
 1591POPC   C2B22820   7.672  22.791   8.264
 1591POPC   C3B22821   7.630  22.821   7.964
 1591POPC   C4B22822   7.577  22.785   7.664
 1592POPC   NC322823   5.068   8.171   9.464
 1592POPC   PO422824   5.063   8.198   9.164
 1592POPC   GL122825   5.085   8.154   8.864
 1592POPC   GL222826   5.061   8.324   8.864
 1592POPC   C1A22827   5.068   8.239   8.564
 1592POPC   D2A22828   5.088   8.214   8.264
 1592POPC   C3A22829   5.096   8.184   7.964
 1592POPC   C4A22830   5.110   8.210   7.664
 1592POPC   C1B22831   5.047   8.484   8.564
 1592POPC   C2B22832   5.069   8.448   8.264
 1592POPC   C3B22833   5.071   8.423   7.964
 1592POPC   C4B22834   5.081   8.484   7.664
 1593POPC   NC322835   8.940  14.450   9.464
 1593POPC   PO422836   9.018  14.370   9.164
 1593POPC   GL122837   8.941  14.446   8.864
 1593POPC   GL222838   8.929  14.247   8.864
 1593POPC   C1A22839   8.980  14.445   8.564
 1593POPC   D2A22840   9.000  14.385   8.264
 1593POPC   C3A22841   8.988  14.369   7.964
 1593POPC   C4A22842   8.944  14.400   7.664
 1593POPC   C1B22843   8.860  14.171   8.564
 1593POPC   C2B22844   8.912  14.189   8.264
 1593POPC   C3B22845   8.909  14.150   7.964
 1593POPC   C4B22846   8.896  14.200   7.664
 1594POPC   NC322847   1.186  44.706   9.464
 1594POPC   PO422848   1.263  44.638   9.164
 1594POPC   GL122849   1.167  44.620   8.864
 1594POPC   GL222850   1.195  44.755   8.864
 1594POPC   C1A22851   1.179  44.704   8.564
 1594POPC   D2A22852   1.191  44.621   8.264
 1594POPC   C3A22853   1.237  44.694   7.964
 1594POPC   C4A22854   1.208  44.646   7.664
 1594POPC   C1B22855   1.192  44.952   8.564
 1594POPC   C2B22856   1.267  44.919   8.264
 1594POPC   C3B22857   1.201  44.870   7.964
 1594POPC   C4B22858   1.269  44.878   7.664
 1595POPC   NC322859  38.452  38.460   9.464
 1595POPC   PO422860  38.500  38.471   9.164
 1595POPC   GL122861  38.413  38.483   8.864
 1595POPC   GL222862  38.540  38.499   8.864
 1595POPC   C1A22863  38.489  38.424   8.564
 1595POPC   D2A22864  38.438  38.464   8.264
 1595POPC   C3A22865  38.456  38.431   7.964
 1595POPC   C4A22866  38.428  38.498   7.664
 1595POPC   C1B22867  38.736  38.497   8.564
 1595POPC   C2B22868  38.668  38.450   8.264
 1595POPC   C3B22869  38.734  38.456   7.964
 1595POPC   C4B22870  38.712  38.501   7.664
 1596POPC   NC322871  30.728   3.570   9.464
 1596POPC   PO422872  30.739   3.529   9.164
 1596POPC   GL122873  30.684   3.563   8.864
 1596POPC   GL222874  30.642   3.451   8.864
 1596POPC   C1A22875  30.697   3.584   8.564
 1596POPC   D2A22876  30.722   3.543   8.264
 1596POPC   C3A22877  30.650   3.562   7.964
 1596POPC   C4A22878  30.702   3.542   7.664
 1596POPC   C1B22879  30.637   3.298   8.564
 1596POPC   C2B22880  30.652   3.285   8.264
 1596POPC   C3B22881  30.657   3.346   7.964
 1596POPC   C4B22882  30.651   3.324   7.664
 1597POPC   NC322883  11.284  39.979   9.464
 1597POPC   PO422884  11.326  39.971   9.164
 1597POPC   GL122885  11.312  39.976   8.864
 1597POPC   GL222886  11.336  40.096   8.864
 1597POPC   C1A22887  11.300  39.964   8.564
 1597POPC   D2A22888  11.312  40.009   8.264
 1597POPC   C3A22889  11.265  40.005   7.964
 1597POPC   C4A22890  11.329  39.990   7.664
 1597POPC   C1B22891  11.310  40.208   8.564
 1597POPC   C2B22892  11.251  40.219   8.264
 1597POPC   C3B22893  11.245  40.222   7.964
 1597POPC   C4B22894  11.281  40.266   7.664
 1598POPC   NC322895  10.537   3.504   9.464
 1598POPC   PO422896  10.573   3.543   9.164
 1598POPC   GL122897  10.484   3.515   8.864
 1598POPC   GL222898  10.502   3.452   8.864
 1598POPC   C1A22899  10.549   3.518   8.564
 1598POPC   D2A22900  10.493   3.526   8.264
 1598POPC   C3A22901  10.574   3.556   7.964
 1598POPC   C4A22902  10.571   3.583   7.664
 1598POPC   C1B22903  10.478   3.350   8.564
 1598POPC   C2B22904  10.478   3.316   8.264
 1598POPC   C3B22905  10.473   3.287   7.964
 1598POPC   C4B22906  10.446   3.334   7.664
 1599POPC   NC322907  40.044  38.443   9.464
 1599POPC   PO422908  40.004  38.488   9.164
 1599POPC   GL122909  39.978  38.451   8.864
 1599POPC   GL222910  39.938  38.561   8.864
 1599POPC   C1A22911  39.961  38.422   8.564
 1599POPC   D2A22912  39.970  38.458   8.264
 1599POPC   C3A22913  39.960  38.417   7.964
 1599POPC   C4A22914  40.025  38.464   7.664
 1599POPC   C1B22915  39.873  38.595   8.564
 1599POPC   C2B22916  39.876  38.665   8.264
 1599POPC   C3B22917  39.782  38.607   7.964
 1599POPC   C4B22918  39.836  38.612   7.664
 1600POPC   NC322919  22.979   7.462   9.464
 1600POPC   PO422920  22.895   7.388   9.164
 1600POPC   GL122921  22.896   7.389   8.864
 1600POPC   GL222922  23.015   7.421   8.864
 1600POPC   C1A22923  22.898   7.394   8.564
 1600POPC   D2A22924  22.929   7.470   8.264
 1600POPC   C3A22925  22.907   7.408   7.964
 1600POPC   C4A22926  22.972   7.379   7.664
 1600POPC   C1B22927  23.170   7.560   8.564
 1600POPC   C2B22928  23.189   7.501   8.264
 1600POPC   C3B22929  23.125   7.476   7.964
 1600POPC   C4B22930  23.209   7.546   7.664
 1601POPC   NC322931  34.578   8.957   9.464
 1601POPC   PO422932  34.549   8.946   9.164
 1601POPC   GL122933  34.581   8.975   8.864
 1601POPC   GL222934  34.739   8.993   8.864
 1601POPC   C1A22935  34.573   8.937   8.564
 1601POPC   D2A22936  34.556   8.971   8.264
 1601POPC   C3A22937  34.528   8.990   7.964
 1601POPC   C4A22938  34.540   8.947   7.664
 1601POPC   C1B22939  34.804   9.035   8.564
 1601POPC   C2B22940  34.811   9.037   8.264
 1601POPC   C3B22941  34.802   9.049   7.964
 1601POPC   C4B22942  34.809   8.982   7.664
 1602POPC   NC322943   0.477  44.645   9.464
 1602POPC   PO422944   0.398  44.663   9.164
 1602POPC   GL122945   0.435  44.630   8.864
 1602POPC   GL222946   0.331  44.722   8.864
 1602POPC   C1A22947   0.430  44.639   8.564
 1602POPC   D2A22948   0.389  44.633   8.264
 1602POPC   C3A22949   0.449  44.689   7.964
 1602POPC   C4A22950   0.401  44.686   7.664
 1602POPC   C1B22951   0.311  44.831   8.564
 1602POPC   C2B22952   0.268  44.911   8.264
 1602POPC   C3B22953   0.319  44.883   7.964
 1602POPC   C4B22954   0.358  44.880   7.664
 1603POPC   NC322955  18.275  32.217   9.464
 1603POPC   PO422956  18.270  32.281   9.164
 1603POPC   GL122957  18.261  32.277   8.864
 1603POPC   GL222958  18.419  32.338   8.864
 1603POPC   C1A22959  18.304  32.216   8.564
 1603POPC   D2A22960  18.331  32.272   8.264
 1603POPC   C3A22961  18.244  32.260   7.964
 1603POPC   C4A22962  18.296  32.237   7.664
 1603POPC   C1B22963  18.486  32.446   8.564
 1603POPC   C2B22964  18.438  32.385   8.264
 1603POPC   C3B22965  18.474  32.411   7.964
 1603POPC   C4B22966  18.455  32.442   7.664
 1604POPC   NC322967  34.588   2.811   9.464
 1604POPC   PO422968  34.546   2.783   9.164
 1604POPC   GL122969  34.619   2.773   8.864
 1604POPC   GL222970  34.611   2.904   8.864
 1604POPC   C1A22971  34.544   2.776   8.564
 1604POPC   D2A22972  34.549   2.795   8.264
 1604POPC   C3A22973  34.599   2.806   7.964
 1604POPC   C4A22974  34.550   2.746   7.664
 1604POPC   C1B22975  34.676   2.979   8.564
 1604POPC   C2B22976  34.748   2.943   8.264
 1604POPC   C3B22977  34.746   2.978   7.964
 1604POPC   C4B22978  34.753   3.003   7.664
 1605POPC   NC322979   5.047  10.509   9.464
 1605POPC   PO422980   5.059  10.535   9.164
 1605POPC   GL122981   5.115  10.572   8.864
 1605POPC   GL222982   4.998  10.426   8.864
 1605POPC   C1A22983   5.085  10.477   8.564
 1605POPC   D2A22984   5.115  10.563   8.264
 1605POPC   C3A22985   5.116  10.525   7.964
 1605POPC   C4A22986   5.065  10.487   7.664
 1605POPC   C1B22987   4.995  10.248   8.564
 1605POPC   C2B22988   5.031  10.318   8.264
 1605POPC   C3B22989   5.026  10.284   7.964
 1605POPC   C4B22990   4.996  10.292   7.664
 1606POPC   NC322991  21.343  13.669   9.464
 1606POPC   PO422992  21.424  13.657   9.164
 1606POPC   GL122993  21.402  13.656   8.864
 1606POPC   GL222994  21.251  13.503   8.864
 1606POPC   C1A22995  21.340  13.615   8.564
 1606POPC   D2A22996  21.344  13.674   8.264
 1606POPC   C3A22997  21.395  13.584   7.964
 1606POPC   C4A22998  21.401  13.580   7.664
 1606POPC   C1B22999  21.149  13.453   8.564
 1606POPC   C2B23000  21.204  13.453   8.264
 1606POPC   C3B23001  21.245  13.483   7.964
 1606POPC   C4B23002  21.190  13.485   7.664
 1607POPC   NC323003  22.908   1.996   9.464
 1607POPC   PO423004  22.914   1.964   9.164
 1607POPC   GL123005  22.970   1.991   8.864
 1607POPC   GL223006  22.768   1.981   8.864
 1607POPC   C1A23007  22.898   1.973   8.564
 1607POPC   D2A23008  22.923   2.013   8.264
 1607POPC   C3A23009  22.922   2.033   7.964
 1607POPC   C4A23010  22.899   1.966   7.664
 1607POPC   C1B23011  22.716   1.932   8.564
 1607POPC   C2B23012  22.687   1.916   8.264
 1607POPC   C3B23013  22.742   1.966   7.964
 1607POPC   C4B23014  22.657   1.933   7.664
 1608POPC   NC323015  15.916  33.778   9.464
 1608POPC   PO423016  15.926  33.831   9.164
 1608POPC   GL123017  15.946  33.786   8.864
 1608POPC   GL223018  15.935  33.734   8.864
 1608POPC   C1A23019  15.948  33.847   8.564
 1608POPC   D2A23020  15.972  33.787   8.264
 1608POPC   C3A23021  15.977  33.787   7.964
 1608POPC   C4A23022  15.994  33.771   7.664
 1608POPC   C1B23023  15.824  33.580   8.564
 1608POPC   C2B23024  15.833  33.632   8.264
 1608POPC   C3B23025  15.844  33.571   7.964
 1608POPC   C4B23026  15.816  33.601   7.664
 1609POPC   NC323027  43.852  36.899   9.464
 1609POPC   PO423028  43.929  36.939   9.164
 1609POPC   GL123029  43.836  36.881   8.864
 1609POPC   GL223030  44.048  37.008   8.864
 1609POPC   C1A23031  43.928  36.890   8.564
 1609POPC   D2A23032  43.893  36.865   8.264
 1609POPC   C3A23033  43.926  36.882   7.964
 1609POPC   C4A23034  43.875  36.854   7.664
 1609POPC   C1B23035  44.141  37.023   8.564
 1609POPC   C2B23036  44.110  36.983   8.264
 1609POPC   C3B23037  44.135  37.049   7.964
 1609POPC   C4B23038  44.128  36.967   7.664
 1610POPC   NC323039  13.663  24.504   9.464
 1610POPC   PO423040  13.630  24.521   9.164
 1610POPC   GL123041  13.670  24.536   8.864
 1610POPC   GL223042  13.582  24.347   8.864
 1610POPC   C1A23043  13.589  24.479   8.564
 1610POPC   D2A23044  13.596  24.450   8.264
 1610POPC   C3A23045  13.677  24.524   7.964
 1610POPC   C4A23046  13.623  24.498   7.664
 1610POPC   C1B23047  13.642  24.209   8.564
 1610POPC   C2B23048  13.661  24.277   8.264
 1610POPC   C3B23049  13.626  24.288   7.964
 1610POPC   C4B23050  13.643  24.213   7.664
 1611POPC   NC323051  33.056   5.860   9.464
 1611POPC   PO423052  33.005   5.867   9.164
 1611POPC   GL123053  32.995   5.867   8.864
 1611POPC   GL223054  32.931   6.022   8.864
 1611POPC   C1A23055  33.026   5.913   8.564
 1611POPC   D2A23056  33.021   5.915   8.264
 1611POPC   C3A23057  33.012   5.822   7.964
 1611POPC   C4A23058  33.019   5.898   7.664
 1611POPC   C1B23059  32.956   6.083   8.564
 1611POPC   C2B23060  32.875   6.135   8.264
 1611POPC   C3B23061  32.951   6.092   7.964
 1611POPC   C4B23062  32.967   6.138   7.664
 1612POPC   NC323063   6.645  39.252   9.464
 1612POPC   PO423064   6.603  39.203   9.164
 1612POPC   GL123065   6.633  39.241   8.864
 1612POPC   GL223066   6.579  39.318   8.864
 1612POPC   C1A23067   6.684  39.227   8.564
 1612POPC   D2A23068   6.682  39.194   8.264
 1612POPC   C3A23069   6.664  39.235   7.964
 1612POPC   C4A23070   6.666  39.278   7.664
 1612POPC   C1B23071   6.424  39.411   8.564
 1612POPC   C2B23072   6.480  39.419   8.264
 1612POPC   C3B23073   6.423  39.337   7.964
 1612POPC   C4B23074   6.417  39.342   7.664
 1613POPC   NC323075  15.225   6.623   9.464
 1613POPC   PO423076  15.167   6.671   9.164
 1613POPC   GL123077  15.165   6.661   8.864
 1613POPC   GL223078  15.196   6.747   8.864
 1613POPC   C1A23079  15.159   6.656   8.564
 1613POPC   D2A23080  15.188   6.653   8.264
 1613POPC   C3A23081  15.162   6.600   7.964
 1613POPC   C4A23082  15.159   6.624   7.664
 1613POPC   C1B23083  15.256   6.847   8.564
 1613POPC   C2B23084  15.222   6.902   8.264
 1613POPC   C3B23085  15.293   6.862   7.964
 1613POPC   C4B23086  15.239   6.890   7.664
 1614POPC   NC323087  41.551  36.078   9.464
 1614POPC   PO423088  41.519  36.138   9.164
 1614POPC   GL123089  41.511  36.152   8.864
 1614POPC   GL223090  41.706  36.196   8.864
 1614POPC   C1A23091  41.570  36.117   8.564
 1614POPC   D2A23092  41.533  36.127   8.264
 1614POPC   C3A23093  41.548  36.105   7.964
 1614POPC   C4A23094  41.561  36.127   7.664
 1614POPC   C1B23095  41.764  36.217   8.564
 1614POPC   C2B23096  41.777  36.293   8.264
 1614POPC   C3B23097  41.736  36.235   7.964
 1614POPC   C4B23098  41.739  36.232   7.664
 1615POPC   NC323099   9.775   8.951   9.464
 1615POPC   PO423100   9.711   8.971   9.164
 1615POPC   GL123101   9.780   8.933   8.864
 1615POPC   GL223102   9.750   8.863   8.864
 1615POPC   C1A23103   9.771   8.993   8.564
 1615POPC   D2A23104   9.716   8.945   8.264
 1615POPC   C3A23105   9.739   8.990   7.964
 1615POPC   C4A23106   9.732   8.984   7.664
 1615POPC   C1B23107   9.651   8.733   8.564
 1615POPC   C2B23108   9.709   8.757   8.264
 1615POPC   C3B23109   9.674   8.716   7.964
 1615POPC   C4B23110   9.663   8.759   7.664
 1616POPC   NC323111   5.898  10.480   9.464
 1616POPC   PO423112   5.905  10.536   9.164
 1616POPC   GL123113   5.875  10.497   8.864
 1616POPC   GL223114   5.873  10.667   8.864
 1616POPC   C1A23115   5.842  10.521   8.564
 1616POPC   D2A23116   5.858  10.563   8.264
 1616POPC   C3A23117   5.885  10.493   7.964
 1616POPC   C4A23118   5.853  10.492   7.664
 1616POPC   C1B23119   5.884  10.766   8.564
 1616POPC   C2B23120   5.928  10.792   8.264
 1616POPC   C3B23121   5.932  10.726   7.964
 1616POPC   C4B23122   5.889  10.727   7.664
 1617POPC   NC323123  18.284  31.446   9.464
 1617POPC   PO423124  18.259  31.433   9.164
 1617POPC   GL123125  18.238  31.428   8.864
 1617POPC   GL223126  18.200  31.542   8.864
 1617POPC   C1A23127  18.300  31.461   8.564
 1617POPC   D2A23128  18.321  31.433   8.264
 1617POPC   C3A23129  18.236  31.481   7.964
 1617POPC   C4A23130  18.301  31.467   7.664
 1617POPC   C1B23131  18.039  31.578   8.564
 1617POPC   C2B23132  18.044  31.611   8.264
 1617POPC   C3B23133  18.100  31.633   7.964
 1617POPC   C4B23134  18.101  31.666   7.664
 1618POPC   NC323135  43.894   6.632   9.464
 1618POPC   PO423136  43.900   6.679   9.164
 1618POPC   GL123137  43.869   6.596   8.864
 1618POPC   GL223138  43.798   6.628   8.864
 1618POPC   C1A23139  43.888   6.620   8.564
 1618POPC   D2A23140  43.858   6.630   8.264
 1618POPC   C3A23141  43.851   6.657   7.964
 1618POPC   C4A23142  43.891   6.618   7.664
 1618POPC   C1B23143  43.660   6.589   8.564
 1618POPC   C2B23144  43.630   6.529   8.264
 1618POPC   C3B23145  43.602   6.576   7.964
 1618POPC   C4B23146  43.641   6.566   7.664
 1619POPC   NC323147   8.957  19.803   9.464
 1619POPC   PO423148   9.015  19.874   9.164
 1619POPC   GL123149   8.992  19.839   8.864
 1619POPC   GL223150   9.049  19.772   8.864
 1619POPC   C1A23151   8.938  19.882   8.564
 1619POPC   D2A23152   8.928  19.865   8.264
 1619POPC   C3A23153   8.987  19.824   7.964
 1619POPC   C4A23154   9.011  19.878   7.664
 1619POPC   C1B23155   9.204  19.678   8.564
 1619POPC   C2B23156   9.144  19.684   8.264
 1619POPC   C3B23157   9.128  19.649   7.964
 1619POPC   C4B23158   9.146  19.656   7.664
 1620POPC   NC323159  12.108   4.330   9.464
 1620POPC   PO423160  12.044   4.284   9.164
 1620POPC   GL123161  12.095   4.329   8.864
 1620POPC   GL223162  12.069   4.460   8.864
 1620POPC   C1A23163  12.084   4.285   8.564
 1620POPC   D2A23164  12.064   4.347   8.264
 1620POPC   C3A23165  12.072   4.335   7.964
 1620POPC   C4A23166  12.071   4.294   7.664
 1620POPC   C1B23167  12.111   4.548   8.564
 1620POPC   C2B23168  12.073   4.584   8.264
 1620POPC   C3B23169  12.096   4.525   7.964
 1620POPC   C4B23170  12.079   4.584   7.664
 1621POPC   NC323171  18.307  15.982   9.464
 1621POPC   PO423172  18.255  15.990   9.164
 1621POPC   GL123173  18.290  15.992   8.864
 1621POPC   GL223174  18.344  16.023   8.864
 1621POPC   C1A23175  18.322  15.940   8.564
 1621POPC   D2A23176  18.305  15.953   8.264
 1621POPC   C3A23177  18.275  15.967   7.964
 1621POPC   C4A23178  18.252  15.937   7.664
 1621POPC   C1B23179  18.494  16.130   8.564
 1621POPC   C2B23180  18.451  16.099   8.264
 1621POPC   C3B23181  18.483  16.096   7.964
 1621POPC   C4B23182  18.446  16.153   7.664
 1622POPC   NC323183  36.901   3.579   9.464
 1622POPC   PO423184  36.897   3.511   9.164
 1622POPC   GL123185  36.939   3.567   8.864
 1622POPC   GL223186  36.939   3.686   8.864
 1622POPC   C1A23187  36.894   3.514   8.564
 1622POPC   D2A23188  36.919   3.517   8.264
 1622POPC   C3A23189  36.952   3.520   7.964
 1622POPC   C4A23190  36.922   3.587   7.664
 1622POPC   C1B23191  36.986   3.776   8.564
 1622POPC   C2B23192  36.960   3.784   8.264
 1622POPC   C3B23193  36.925   3.827   7.964
 1622POPC   C4B23194  36.978   3.817   7.664
 1623POPC   NC323195  33.072  26.771   9.464
 1623POPC   PO423196  32.986  26.806   9.164
 1623POPC   GL123197  33.060  26.792   8.864
 1623POPC   GL223198  33.006  26.713   8.864
 1623POPC   C1A23199  33.038  26.824   8.564
 1623POPC   D2A23200  33.044  26.789   8.264
 1623POPC   C3A23201  33.049  26.776   7.964
 1623POPC   C4A23202  33.054  26.830   7.664
 1623POPC   C1B23203  33.051  26.617   8.564
 1623POPC   C2B23204  33.021  26.522   8.264
 1623POPC   C3B23205  33.012  26.545   7.964
 1623POPC   C4B23206  33.044  26.604   7.664
 1624POPC   NC323207   5.830   9.772   9.464
 1624POPC   PO423208   5.891   9.738   9.164
 1624POPC   GL123209   5.857   9.738   8.864
 1624POPC   GL223210   5.761   9.808   8.864
 1624POPC   C1A23211   5.904   9.779   8.564
 1624POPC   D2A23212   5.826   9.767   8.264
 1624POPC   C3A23213   5.919   9.774   7.964
 1624POPC   C4A23214   5.893   9.785   7.664
 1624POPC   C1B23215   5.639   9.888   8.564
 1624POPC   C2B23216   5.650   9.872   8.264
 1624POPC   C3B23217   5.591   9.818   7.964
 1624POPC   C4B23218   5.606   9.877   7.664
 1625POPC   NC323219  15.192  33.848   9.464
 1625POPC   PO423220  15.192  33.813   9.164
 1625POPC   GL123221  15.153  33.784   8.864
 1625POPC   GL223222  15.070  33.886   8.864
 1625POPC   C1A23223  15.183  33.779   8.564
 1625POPC   D2A23224  15.140  33.806   8.264
 1625POPC   C3A23225  15.159  33.839   7.964
 1625POPC   C4A23226  15.196  33.845   7.664
 1625POPC   C1B23227  14.940  33.894   8.564
 1625POPC   C2B23228  14.913  33.914   8.264
 1625POPC   C3B23229  14.953  33.851   7.964
 1625POPC   C4B23230  14.946  33.889   7.664
 1626POPC   NC323231   2.763  29.900   9.464
 1626POPC   PO423232   2.750  29.940   9.164
 1626POPC   GL123233   2.783  29.881   8.864
 1626POPC   GL223234   2.820  30.030   8.864
 1626POPC   C1A23235   2.800  29.911   8.564
 1626POPC   D2A23236   2.775  29.895   8.264
 1626POPC   C3A23237   2.802  29.968   7.964
 1626POPC   C4A23238   2.762  29.969   7.664
 1626POPC   C1B23239   3.009  30.105   8.564
 1626POPC   C2B23240   2.984  30.107   8.264
 1626POPC   C3B23241   2.986  30.103   7.964
 1626POPC   C4B23242   2.961  30.114   7.664
 1627POPC   NC323243  43.072  37.712   9.464
 1627POPC   PO423244  43.086  37.712   9.164
 1627POPC   GL123245  43.094  37.660   8.864
 1627POPC   GL223246  43.156  37.779   8.864
 1627POPC   C1A23247  43.101  37.680   8.564
 1627POPC   D2A23248  43.102  37.656   8.264
 1627POPC   C3A23249  43.143  37.653   7.964
 1627POPC   C4A23250  43.134  37.685   7.664
 1627POPC   C1B23251  43.302  37.810   8.564
 1627POPC   C2B23252  43.265  37.810   8.264
 1627POPC   C3B23253  43.328  37.898   7.964
 1627POPC   C4B23254  43.340  37.902   7.664
 1628POPC   NC323255  25.234  42.338   9.464
 1628POPC   PO423256  25.290  42.344   9.164
 1628POPC   GL123257  25.258  42.343   8.864
 1628POPC   GL223258  25.143  42.418   8.864
 1628POPC   C1A23259  25.245  42.340   8.564
 1628POPC   D2A23260  25.302  42.354   8.264
 1628POPC   C3A23261  25.296  42.350   7.964
 1628POPC   C4A23262  25.292  42.322   7.664
 1628POPC   C1B23263  24.993  42.441   8.564
 1628POPC   C2B23264  24.996  42.391   8.264
 1628POPC   C3B23265  25.054  42.407   7.964
 1628POPC   C4B23266  24.979  42.361   7.664
 1629POPC   NC323267  11.285   9.010   9.464
 1629POPC   PO423268  11.317   9.005   9.164
 1629POPC   GL123269  11.265   9.017   8.864
 1629POPC   GL223270  11.445   8.925   8.864
 1629POPC   C1A23271  11.284   8.933   8.564
 1629POPC   D2A23272  11.260   9.000   8.264
 1629POPC   C3A23273  11.275   9.018   7.964
 1629POPC   C4A23274  11.335   8.971   7.664
 1629POPC   C1B23275  11.535   8.807   8.564
 1629POPC   C2B23276  11.518   8.901   8.264
 1629POPC   C3B23277  11.544   8.826   7.964
 1629POPC   C4B23278  11.540   8.807   7.664
 1630POPC   NC323279   4.348  31.458   9.464
 1630POPC   PO423280   4.280  31.504   9.164
 1630POPC   GL123281   4.336  31.452   8.864
 1630POPC   GL223282   4.243  31.585   8.864
 1630POPC   C1A23283   4.366  31.443   8.564
 1630POPC   D2A23284   4.275  31.476   8.264
 1630POPC   C3A23285   4.303  31.504   7.964
 1630POPC   C4A23286   4.271  31.469   7.664
 1630POPC   C1B23287   4.184  31.688   8.564
 1630POPC   C2B23288   4.166  31.732   8.264
 1630POPC   C3B23289   4.197  31.678   7.964
 1630POPC   C4B23290   4.160  31.732   7.664
 1631POPC   NC323291  16.691  33.763   9.464
 1631POPC   PO423292  16.740  33.807   9.164
 1631POPC   GL123293  16.724  33.817   8.864
 1631POPC   GL223294  16.766  33.873   8.864
 1631POPC   C1A23295  16.763  33.797   8.564
 1631POPC   D2A23296  16.753  33.767   8.264
 1631POPC   C3A23297  16.699  33.766   7.964
 1631POPC   C4A23298  16.691  33.807   7.664
 1631POPC   C1B23299  16.842  34.026   8.564
 1631POPC   C2B23300  16.887  33.981   8.264
 1631POPC   C3B23301  16.846  34.057   7.964
 1631POPC   C4B23302  16.875  33.992   7.664
 1632POPC   NC323303  43.885  38.407   9.464
 1632POPC   PO423304  43.849  38.417   9.164
 1632POPC   GL123305  43.885  38.500   8.864
 1632POPC   GL223306  43.952  38.564   8.864
 1632POPC   C1A23307  43.848  38.442   8.564
 1632POPC   D2A23308  43.873  38.410   8.264
 1632POPC   C3A23309  43.916  38.478   7.964
 1632POPC   C4A23310  43.873  38.412   7.664
 1632POPC   C1B23311  43.940  38.667   8.564
 1632POPC   C2B23312  43.941  38.681   8.264
 1632POPC   C3B23313  43.922  38.691   7.964
 1632POPC   C4B23314  43.935  38.707   7.664
 1633POPC   NC323315  41.572  27.588   9.464
 1633POPC   PO423316  41.555  27.591   9.164
 1633POPC   GL123317  41.593  27.545   8.864
 1633POPC   GL223318  41.411  27.601   8.864
 1633POPC   C1A23319  41.580  27.561   8.564
 1633POPC   D2A23320  41.550  27.558   8.264
 1633POPC   C3A23321  41.599  27.603   7.964
 1633POPC   C4A23322  41.591  27.600   7.664
 1633POPC   C1B23323  41.362  27.621   8.564
 1633POPC   C2B23324  41.276  27.694   8.264
 1633POPC   C3B23325  41.267  27.619   7.964
 1633POPC   C4B23326  41.271  27.688   7.664
 1634POPC   NC323327   5.824   0.427   9.464
 1634POPC   PO423328   5.880   0.473   9.164
 1634POPC   GL123329   5.907   0.393   8.864
 1634POPC   GL223330   5.917   0.316   8.864
 1634POPC   C1A23331   5.865   0.450   8.564
 1634POPC   D2A23332   5.826   0.404   8.264
 1634POPC   C3A23333   5.879   0.482   7.964
 1634POPC   C4A23334   5.882   0.472   7.664
 1634POPC   C1B23335   6.044   0.220   8.564
 1634POPC   C2B23336   6.023   0.201   8.264
 1634POPC   C3B23337   6.055   0.233   7.964
 1634POPC   C4B23338   5.990   0.209   7.664
 1635POPC   NC323339  10.508   6.695   9.464
 1635POPC   PO423340  10.491   6.632   9.164
 1635POPC   GL123341  10.566   6.641   8.864
 1635POPC   GL223342  10.380   6.616   8.864
 1635POPC   C1A23343  10.523   6.676   8.564
 1635POPC   D2A23344  10.477   6.639   8.264
 1635POPC   C3A23345  10.510   6.639   7.964
 1635POPC   C4A23346  10.505   6.690   7.664
 1635POPC   C1B23347  10.262   6.659   8.564
 1635POPC   C2B23348  10.296   6.693   8.264
 1635POPC   C3B23349  10.273   6.678   7.964
 1635POPC   C4B23350  10.245   6.628   7.664
 1636POPC   NC323351  21.375   2.023   9.464
 1636POPC   PO423352  21.411   2.009   9.164
 1636POPC   GL123353  21.409   1.981   8.864
 1636POPC   GL223354  21.356   1.836   8.864
 1636POPC   C1A23355  21.427   1.993   8.564
 1636POPC   D2A23356  21.401   2.036   8.264
 1636POPC   C3A23357  21.350   1.995   7.964
 1636POPC   C4A23358  21.422   1.998   7.664
 1636POPC   C1B23359  21.273   1.792   8.564
 1636POPC   C2B23360  21.283   1.749   8.264
 1636POPC   C3B23361  21.331   1.729   7.964
 1636POPC   C4B23362  21.242   1.780   7.664
 1637POPC   NC323363  32.208  13.657   9.464
 1637POPC   PO423364  32.268  13.636   9.164
 1637POPC   GL123365  32.239  13.610   8.864
 1637POPC   GL223366  32.273  13.536   8.864
 1637POPC   C1A23367  32.264  13.612   8.564
 1637POPC   D2A23368  32.261  13.590   8.264
 1637POPC   C3A23369  32.291  13.674   7.964
 1637POPC   C4A23370  32.229  13.660   7.664
 1637POPC   C1B23371  32.283  13.423   8.564
 1637POPC   C2B23372  32.310  13.400   8.264
 1637POPC   C3B23373  32.320  13.375   7.964
 1637POPC   C4B23374  32.248  13.408   7.664
 1638POPC   NC323375  24.460  36.081   9.464
 1638POPC   PO423376  24.510  36.101   9.164
 1638POPC   GL123377  24.506  36.162   8.864
 1638POPC   GL223378  24.364  36.058   8.864
 1638POPC   C1A23379  24.540  36.156   8.564
 1638POPC   D2A23380  24.452  36.113   8.264
 1638POPC   C3A23381  24.479  36.090   7.964
 1638POPC   C4A23382  24.471  36.080   7.664
 1638POPC   C1B23383  24.198  36.089   8.564
 1638POPC   C2B23384  24.212  36.075   8.264
 1638POPC   C3B23385  24.261  36.100   7.964
 1638POPC   C4B23386  24.201  36.092   7.664
 1639POPC   NC323387   9.716  22.900   9.464
 1639POPC   PO423388   9.787  22.922   9.164
 1639POPC   GL123389   9.716  22.920   8.864
 1639POPC   GL223390   9.581  22.975   8.864
 1639POPC   C1A23391   9.767  22.923   8.564
 1639POPC   D2A23392   9.733  22.937   8.264
 1639POPC   C3A23393   9.791  22.900   7.964
 1639POPC   C4A23394   9.706  22.956   7.664
 1639POPC   C1B23395   9.517  22.957   8.564
 1639POPC   C2B23396   9.461  23.019   8.264
 1639POPC   C3B23397   9.523  22.959   7.964
 1639POPC   C4B23398   9.547  23.007   7.664
 1640POPC   NC323399  15.221  22.942   9.464
 1640POPC   PO423400  15.146  22.927   9.164
 1640POPC   GL123401  15.184  22.894   8.864
 1640POPC   GL223402  15.048  22.948   8.864
 1640POPC   C1A23403  15.169  22.925   8.564
 1640POPC   D2A23404  15.215  22.979   8.264
 1640POPC   C3A23405  15.171  22.928   7.964
 1640POPC   C4A23406  15.222  22.888   7.664
 1640POPC   C1B23407  14.978  22.828   8.564
 1640POPC   C2B23408  14.974  22.907   8.264
 1640POPC   C3B23409  14.895  22.848   7.964
 1640POPC   C4B23410  14.918  22.869   7.664
 1641POPC   NC323411   8.176  29.122   9.464
 1641POPC   PO423412   8.190  29.129   9.164
 1641POPC   GL123413   8.217  29.118   8.864
 1641POPC   GL223414   8.282  29.002   8.864
 1641POPC   C1A23415   8.173  29.177   8.564
 1641POPC   D2A23416   8.233  29.168   8.264
 1641POPC   C3A23417   8.215  29.155   7.964
 1641POPC   C4A23418   8.229  29.178   7.664
 1641POPC   C1B23419   8.311  28.989   8.564
 1641POPC   C2B23420   8.297  28.957   8.264
 1641POPC   C3B23421   8.329  28.955   7.964
 1641POPC   C4B23422   8.390  28.966   7.664
 1642POPC   NC323423  10.522  33.755   9.464
 1642POPC   PO423424  10.482  33.800   9.164
 1642POPC   GL123425  10.498  33.770   8.864
 1642POPC   GL223426  10.556  33.635   8.864
 1642POPC   C1A23427  10.532  33.794   8.564
 1642POPC   D2A23428  10.478  33.833   8.264
 1642POPC   C3A23429  10.558  33.772   7.964
 1642POPC   C4A23430  10.564  33.751   7.664
 1642POPC   C1B23431  10.593  33.593   8.564
 1642POPC   C2B23432  10.556  33.563   8.264
 1642POPC   C3B23433  10.544  33.535   7.964
 1642POPC   C4B23434  10.533  33.537   7.664
 1643POPC   NC323435   6.677  13.593   9.464
 1643POPC   PO423436   6.695  13.677   9.164
 1643POPC   GL123437   6.623  13.661   8.864
 1643POPC   GL223438   6.662  13.551   8.864
 1643POPC   C1A23439   6.625  13.661   8.564
 1643POPC   D2A23440   6.657  13.643   8.264
 1643POPC   C3A23441   6.662  13.614   7.964
 1643POPC   C4A23442   6.605  13.601   7.664
 1643POPC   C1B23443   6.586  13.328   8.564
 1643POPC   C2B23444   6.614  13.399   8.264
 1643POPC   C3B23445   6.654  13.329   7.964
 1643POPC   C4B23446   6.625  13.362   7.664
 1644POPC   NC323447  36.945   8.223   9.464
 1644POPC   PO423448  36.932   8.194   9.164
 1644POPC   GL123449  36.887   8.221   8.864
 1644POPC   GL223450  36.859   8.314   8.864
 1644POPC   C1A23451  36.929   8.209   8.564
 1644POPC   D2A23452  36.886   8.174   8.264
 1644POPC   C3A23453  36.945   8.233   7.964
 1644POPC   C4A23454  36.865   8.203   7.664
 1644POPC   C1B23455  36.784   8.457   8.564
 1644POPC   C2B23456  36.803   8.448   8.264
 1644POPC   C3B23457  36.773   8.435   7.964
 1644POPC   C4B23458  36.828   8.395   7.664
 1645POPC   NC323459  10.527  43.130   9.464
 1645POPC   PO423460  10.546  43.118   9.164
 1645POPC   GL123461  10.556  43.131   8.864
 1645POPC   GL223462  10.388  43.005   8.864
 1645POPC   C1A23463  10.554  43.098   8.564
 1645POPC   D2A23464  10.521  43.069   8.264
 1645POPC   C3A23465  10.480  43.129   7.964
 1645POPC   C4A23466  10.544  43.142   7.664
 1645POPC   C1B23467  10.335  42.928   8.564
 1645POPC   C2B23468  10.334  42.946   8.264
 1645POPC   C3B23469  10.331  42.972   7.964
 1645POPC   C4B23470  10.271  43.012   7.664
 1646POPC   NC323471  29.924  20.655   9.464
 1646POPC   PO423472  29.943  20.601   9.164
 1646POPC   GL123473  29.907  20.602   8.864
 1646POPC   GL223474  29.894  20.469   8.864
 1646POPC   C1A23475  29.888  20.625   8.564
 1646POPC   D2A23476  29.917  20.579   8.264
 1646POPC   C3A23477  29.879  20.653   7.964
 1646POPC   C4A23478  29.903  20.564   7.664
 1646POPC   C1B23479  29.857  20.364   8.564
 1646POPC   C2B23480  29.849  20.422   8.264
 1646POPC   C3B23481  29.782  20.400   7.964
 1646POPC   C4B23482  29.797  20.382   7.664
 1647POPC   NC323483  12.862  27.604   9.464
 1647POPC   PO423484  12.880  27.552   9.164
 1647POPC   GL123485  12.861  27.545   8.864
 1647POPC   GL223486  12.764  27.654   8.864
 1647POPC   C1A23487  12.886  27.583   8.564
 1647POPC   D2A23488  12.896  27.625   8.264
 1647POPC   C3A23489  12.845  27.636   7.964
 1647POPC   C4A23490  12.868  27.599   7.664
 1647POPC   C1B23491  12.615  27.641   8.564
 1647POPC   C2B23492  12.555  27.624   8.264
 1647POPC   C3B23493  12.647  27.611   7.964
 1647POPC   C4B23494  12.585  27.650   7.664
 1648POPC   NC323495  16.004   3.503   9.464
 1648POPC   PO423496  15.956   3.562   9.164
 1648POPC   GL123497  15.913   3.497   8.864
 1648POPC   GL223498  16.079   3.540   8.864
 1648POPC   C1A23499  15.982   3.574   8.564
 1648POPC   D2A23500  15.922   3.494   8.264
 1648POPC   C3A23501  15.972   3.514   7.964
 1648POPC   C4A23502  15.966   3.588   7.664
 1648POPC   C1B23503  16.182   3.619   8.564
 1648POPC   C2B23504  16.206   3.619   8.264
 1648POPC   C3B23505  16.238   3.553   7.964
 1648POPC   C4B23506  16.193   3.633   7.664
 1649POPC   NC323507  33.850  11.310   9.464
 1649POPC   PO423508  33.826  11.289   9.164
 1649POPC   GL123509  33.766  11.303   8.864
 1649POPC   GL223510  33.648  11.217   8.864
 1649POPC   C1A23511  33.782  11.337   8.564
 1649POPC   D2A23512  33.799  11.305   8.264
 1649POPC   C3A23513  33.832  11.310   7.964
 1649POPC   C4A23514  33.816  11.349   7.664
 1649POPC   C1B23515  33.547  11.167   8.564
 1649POPC   C2B23516  33.586  11.239   8.264
 1649POPC   C3B23517  33.530  11.209   7.964
 1649POPC   C4B23518  33.522  11.229   7.664
 1650POPC   NC323519  21.345  39.198   9.464
 1650POPC   PO423520  21.393  39.247   9.164
 1650POPC   GL123521  21.405  39.190   8.864
 1650POPC   GL223522  21.369  39.144   8.864
 1650POPC   C1A23523  21.341  39.183   8.564
 1650POPC   D2A23524  21.391  39.190   8.264
 1650POPC   C3A23525  21.406  39.269   7.964
 1650POPC   C4A23526  21.422  39.275   7.664
 1650POPC   C1B23527  21.371  38.950   8.564
 1650POPC   C2B23528  21.346  38.976   8.264
 1650POPC   C3B23529  21.373  39.006   7.964
 1650POPC   C4B23530  21.401  38.963   7.664
 1651POPC   NC323531   8.993   7.373   9.464
 1651POPC   PO423532   8.986   7.447   9.164
 1651POPC   GL123533   8.930   7.399   8.864
 1651POPC   GL223534   8.845   7.403   8.864
 1651POPC   C1A23535   9.000   7.459   8.564
 1651POPC   D2A23536   8.978   7.409   8.264
 1651POPC   C3A23537   8.960   7.445   7.964
 1651POPC   C4A23538   8.979   7.402   7.664
 1651POPC   C1B23539   8.699   7.364   8.564
 1651POPC   C2B23540   8.721   7.377   8.264
 1651POPC   C3B23541   8.702   7.316   7.964
 1651POPC   C4B23542   8.718   7.354   7.664
 1652POPC   NC323543  29.949   3.524   9.464
 1652POPC   PO423544  29.907   3.498   9.164
 1652POPC   GL123545  29.887   3.550   8.864
 1652POPC   GL223546  29.960   3.624   8.864
 1652POPC   C1A23547  29.938   3.567   8.564
 1652POPC   D2A23548  29.880   3.539   8.264
 1652POPC   C3A23549  29.876   3.570   7.964
 1652POPC   C4A23550  29.882   3.513   7.664
 1652POPC   C1B23551  29.943   3.831   8.564
 1652POPC   C2B23552  29.952   3.839   8.264
 1652POPC   C3B23553  29.896   3.779   7.964
 1652POPC   C4B23554  29.874   3.810   7.664
 1653POPC   NC323555  15.172  23.734   9.464
 1653POPC   PO423556  15.200  23.695   9.164
 1653POPC   GL123557  15.144  23.671   8.864
 1653POPC   GL223558  15.205  23.815   8.864
 1653POPC   C1A23559  15.207  23.720   8.564
 1653POPC   D2A23560  15.147  23.705   8.264
 1653POPC   C3A23561  15.141  23.678   7.964
 1653POPC   C4A23562  15.158  23.694   7.664
 1653POPC   C1B23563  15.280  23.923   8.564
 1653POPC   C2B23564  15.291  23.985   8.264
 1653POPC   C3B23565  15.225  23.993   7.964
 1653POPC   C4B23566  15.259  23.947   7.664
 1654POPC   NC323567   2.774  29.104   9.464
 1654POPC   PO423568   2.765  29.101   9.164
 1654POPC   GL123569   2.726  29.105   8.864
 1654POPC   GL223570   2.654  29.080   8.864
 1654POPC   C1A23571   2.798  29.167   8.564
 1654POPC   D2A23572   2.755  29.149   8.264
 1654POPC   C3A23573   2.731  29.122   7.964
 1654POPC   C4A23574   2.807  29.173   7.664
 1654POPC   C1B23575   2.637  28.966   8.564
 1654POPC   C2B23576   2.621  28.910   8.264
 1654POPC   C3B23577   2.592  28.983   7.964
 1654POPC   C4B23578   2.564  28.994   7.664
 1655POPC   NC323579  25.275  35.399   9.464
 1655POPC   PO423580  25.293  35.373   9.164
 1655POPC   GL123581  25.263  35.399   8.864
 1655POPC   GL223582  25.366  35.405   8.864
 1655POPC   C1A23583  25.238  35.355   8.564
 1655POPC   D2A23584  25.289  35.359   8.264
 1655POPC   C3A23585  25.306  35.391   7.964
 1655POPC   C4A23586  25.223  35.388   7.664
 1655POPC   C1B23587  25.456  35.393   8.564
 1655POPC   C2B23588  25.487  35.470   8.264
 1655POPC   C3B23589  25.467  35.404   7.964
 1655POPC   C4B23590  25.535  35.449   7.664
 1656POPC   NC323591   3.498  23.754   9.464
 1656POPC   PO423592   3.556  23.666   9.164
 1656POPC   GL123593   3.522  23.693   8.864
 1656POPC   GL223594   3.647  23.707   8.864
 1656POPC   C1A23595   3.499  23.756   8.564
 1656POPC   D2A23596   3.574  23.720   8.264
 1656POPC   C3A23597   3.580  23.696   7.964
 1656POPC   C4A23598   3.575  23.717   7.664
 1656POPC   C1B23599   3.799  23.619   8.564
 1656POPC   C2B23600   3.748  23.625   8.264
 1656POPC   C3B23601   3.763  23.564   7.964
 1656POPC   C4B23602   3.763  23.569   7.664
 1657POPC   NC323603  25.256   8.177   9.464
 1657POPC   PO423604  25.271   8.149   9.164
 1657POPC   GL123605  25.306   8.205   8.864
 1657POPC   GL223606  25.374   8.272   8.864
 1657POPC   C1A23607  25.221   8.214   8.564
 1657POPC   D2A23608  25.241   8.197   8.264
 1657POPC   C3A23609  25.271   8.177   7.964
 1657POPC   C4A23610  25.294   8.179   7.664
 1657POPC   C1B23611  25.505   8.312   8.564
 1657POPC   C2B23612  25.549   8.291   8.264
 1657POPC   C3B23613  25.488   8.245   7.964
 1657POPC   C4B23614  25.530   8.279   7.664
 1658POPC   NC323615  10.498  20.599   9.464
 1658POPC   PO423616  10.565  20.648   9.164
 1658POPC   GL123617  10.483  20.583   8.864
 1658POPC   GL223618  10.645  20.625   8.864
 1658POPC   C1A23619  10.529  20.571   8.564
 1658POPC   D2A23620  10.489  20.656   8.264
 1658POPC   C3A23621  10.480  20.596   7.964
 1658POPC   C4A23622  10.536  20.656   7.664
 1658POPC   C1B23623  10.712  20.750   8.564
 1658POPC   C2B23624  10.798  20.672   8.264
 1658POPC   C3B23625  10.724  20.748   7.964
 1658POPC   C4B23626  10.707  20.712   7.664
 1659POPC   NC323627   5.061   5.105   9.464
 1659POPC   PO423628   5.097   5.106   9.164
 1659POPC   GL123629   5.066   5.072   8.864
 1659POPC   GL223630   5.165   5.067   8.864
 1659POPC   C1A23631   5.081   5.056   8.564
 1659POPC   D2A23632   5.120   5.064   8.264
 1659POPC   C3A23633   5.059   5.101   7.964
 1659POPC   C4A23634   5.133   5.072   7.664
 1659POPC   C1B23635   5.310   4.992   8.564
 1659POPC   C2B23636   5.318   5.016   8.264
 1659POPC   C3B23637   5.290   4.980   7.964
 1659POPC   C4B23638   5.363   4.993   7.664
 1660POPC   NC323639  36.172  18.296   9.464
 1660POPC   PO423640  36.137  18.279   9.164
 1660POPC   GL123641  36.094  18.332   8.864
 1660POPC   GL223642  36.233  18.347   8.864
 1660POPC   C1A23643  36.087  18.285   8.564
 1660POPC   D2A23644  36.171  18.288   8.264
 1660POPC   C3A23645  36.158  18.243   7.964
 1660POPC   C4A23646  36.165  18.251   7.664
 1660POPC   C1B23647  36.287  18.460   8.564
 1660POPC   C2B23648  36.314  18.446   8.264
 1660POPC   C3B23649  36.316  18.390   7.964
 1660POPC   C4B23650  36.288  18.446   7.664
 1661POPC   NC323651  34.622   4.363   9.464
 1661POPC   PO423652  34.608   4.303   9.164
 1661POPC   GL123653  34.577   4.349   8.864
 1661POPC   GL223654  34.411   4.325   8.864
 1661POPC   C1A23655  34.565   4.330   8.564
 1661POPC   D2A23656  34.624   4.326   8.264
 1661POPC   C3A23657  34.611   4.336   7.964
 1661POPC   C4A23658  34.581   4.338   7.664
 1661POPC   C1B23659  34.305   4.258   8.564
 1661POPC   C2B23660  34.385   4.233   8.264
 1661POPC   C3B23661  34.354   4.217   7.964
 1661POPC   C4B23662  34.367   4.284   7.664
 1662POPC   NC323663   5.098   4.319   9.464
 1662POPC   PO423664   5.051   4.288   9.164
 1662POPC   GL123665   5.108   4.353   8.864
 1662POPC   GL223666   5.014   4.323   8.864
 1662POPC   C1A23667   5.119   4.272   8.564
 1662POPC   D2A23668   5.136   4.287   8.264
 1662POPC   C3A23669   5.056   4.322   7.964
 1662POPC   C4A23670   5.088   4.303   7.664
 1662POPC   C1B23671   4.885   4.465   8.564
 1662POPC   C2B23672   4.903   4.445   8.264
 1662POPC   C3B23673   4.872   4.395   7.964
 1662POPC   C4B23674   4.823   4.408   7.664
 1663POPC   NC323675  29.936  33.048   9.464
 1663POPC   PO423676  29.936  33.074   9.164
 1663POPC   GL123677  29.919  33.038   8.864
 1663POPC   GL223678  29.852  32.944   8.864
 1663POPC   C1A23679  29.920  32.980   8.564
 1663POPC   D2A23680  29.966  33.063   8.264
 1663POPC   C3A23681  29.943  33.006   7.964
 1663POPC   C4A23682  29.876  33.007   7.664
 1663POPC   C1B23683  29.866  32.756   8.564
 1663POPC   C2B23684  29.801  32.763   8.264
 1663POPC   C3B23685  29.822  32.771   7.964
 1663POPC   C4B23686  29.786  32.834   7.664
 1664POPC   NC323687  10.501  13.588   9.464
 1664POPC   PO423688  10.496  13.579   9.164
 1664POPC   GL123689  10.503  13.648   8.864
 1664POPC   GL223690  10.483  13.707   8.864
 1664POPC   C1A23691  10.536  13.621   8.564
 1664POPC   D2A23692  10.500  13.673   8.264
 1664POPC   C3A23693  10.549  13.632   7.964
 1664POPC   C4A23694  10.493  13.598   7.664
 1664POPC   C1B23695  10.505  13.869   8.564
 1664POPC   C2B23696  10.499  13.894   8.264
 1664POPC   C3B23697  10.530  13.896   7.964
 1664POPC   C4B23698  10.469  13.844   7.664
 1665POPC   NC323699  15.137  31.478   9.464
 1665POPC   PO423700  15.175  31.429   9.164
 1665POPC   GL123701  15.146  31.470   8.864
 1665POPC   GL223702  15.283  31.333   8.864
 1665POPC   C1A23703  15.169  31.512   8.564
 1665POPC   D2A23704  15.156  31.508   8.264
 1665POPC   C3A23705  15.191  31.444   7.964
 1665POPC   C4A23706  15.132  31.440   7.664
 1665POPC   C1B23707  15.278  31.283   8.564
 1665POPC   C2B23708  15.243  31.222   8.264
 1665POPC   C3B23709  15.309  31.219   7.964
 1665POPC   C4B23710  15.253  31.202   7.664
 1666POPC   NC323711   1.217  32.211   9.464
 1666POPC   PO423712   1.207  32.264   9.164
 1666POPC   GL123713   1.230  32.222   8.864
 1666POPC   GL223714   1.053  32.294   8.864
 1666POPC   C1A23715   1.206  32.227   8.564
 1666POPC   D2A23716   1.172  32.244   8.264
 1666POPC   C3A23717   1.204  32.234   7.964
 1666POPC   C4A23718   1.226  32.215   7.664
 1666POPC   C1B23719   0.974  32.290   8.564
 1666POPC   C2B23720   0.996  32.247   8.264
 1666POPC   C3B23721   0.952  32.296   7.964
 1666POPC   C4B23722   0.923  32.255   7.664
 1667POPC   NC323723   1.970  17.499   9.464
 1667POPC   PO423724   1.998  17.458   9.164
 1667POPC   GL123725   1.944  17.526   8.864
 1667POPC   GL223726   2.039  17.393   8.864
 1667POPC   C1A23727   2.014  17.521   8.564
 1667POPC   D2A23728   1.990  17.550   8.264
 1667POPC   C3A23729   1.987  17.503   7.964
 1667POPC   C4A23730   2.016  17.535   7.664
 1667POPC   C1B23731   2.090  17.319   8.564
 1667POPC   C2B23732   2.155  17.236   8.264
 1667POPC   C3B23733   2.125  17.251   7.964
 1667POPC   C4B23734   2.098  17.333   7.664
 1668POPC   NC323735  15.910  16.748   9.464
 1668POPC   PO423736  15.909  16.714   9.164
 1668POPC   GL123737  15.913  16.735   8.864
 1668POPC   GL223738  15.991  16.642   8.864
 1668POPC   C1A23739  15.911  16.691   8.564
 1668POPC   D2A23740  15.927  16.724   8.264
 1668POPC   C3A23741  15.912  16.695   7.964
 1668POPC   C4A23742  15.989  16.700   7.664
 1668POPC   C1B23743  15.993  16.448   8.564
 1668POPC   C2B23744  16.015  16.530   8.264
 1668POPC   C3B23745  15.965  16.491   7.964
 1668POPC   C4B23746  15.988  16.506   7.664
 1669POPC   NC323747  31.484  43.147   9.464
 1669POPC   PO423748  31.516  43.131   9.164
 1669POPC   GL123749  31.432  43.091   8.864
 1669POPC   GL223750  31.432  43.004   8.864
 1669POPC   C1A23751  31.475  43.066   8.564
 1669POPC   D2A23752  31.490  43.066   8.264
 1669POPC   C3A23753  31.449  43.097   7.964
 1669POPC   C4A23754  31.468  43.145   7.664
 1669POPC   C1B23755  31.449  42.893   8.564
 1669POPC   C2B23756  31.448  42.884   8.264
 1669POPC   C3B23757  31.410  42.847   7.964
 1669POPC   C4B23758  31.381  42.853   7.664
 1670POPC   NC323759   2.009  21.391   9.464
 1670POPC   PO423760   1.944  21.433   9.164
 1670POPC   GL123761   1.992  21.394   8.864
 1670POPC   GL223762   1.862  21.527   8.864
 1670POPC   C1A23763   2.039  21.404   8.564
 1670POPC   D2A23764   1.969  21.338   8.264
 1670POPC   C3A23765   2.013  21.373   7.964
 1670POPC   C4A23766   2.010  21.345   7.664
 1670POPC   C1B23767   1.830  21.582   8.564
 1670POPC   C2B23768   1.802  21.580   8.264
 1670POPC   C3B23769   1.826  21.589   7.964
 1670POPC   C4B23770   1.811  21.625   7.664
 1671POPC   NC323771  12.066  26.002   9.464
 1671POPC   PO423772  12.030  26.069   9.164
 1671POPC   GL123773  12.108  26.047   8.864
 1671POPC   GL223774  12.207  26.127   8.864
 1671POPC   C1A23775  12.094  25.998   8.564
 1671POPC   D2A23776  12.043  26.025   8.264
 1671POPC   C3A23777  12.085  26.053   7.964
 1671POPC   C4A23778  12.107  26.011   7.664
 1671POPC   C1B23779  12.285  26.207   8.564
 1671POPC   C2B23780  12.211  26.222   8.264
 1671POPC   C3B23781  12.286  26.207   7.964
 1671POPC   C4B23782  12.211  26.233   7.664
 1672POPC   NC323783   5.897   6.655   9.464
 1672POPC   PO423784   5.899   6.613   9.164
 1672POPC   GL123785   5.882   6.621   8.864
 1672POPC   GL223786   6.037   6.712   8.864
 1672POPC   C1A23787   5.844   6.600   8.564
 1672POPC   D2A23788   5.864   6.669   8.264
 1672POPC   C3A23789   5.844   6.655   7.964
 1672POPC   C4A23790   5.905   6.677   7.664
 1672POPC   C1B23791   6.152   6.663   8.564
 1672POPC   C2B23792   6.123   6.650   8.264
 1672POPC   C3B23793   6.120   6.665   7.964
 1672POPC   C4B23794   6.083   6.729   7.664
 1673POPC   NC323795  14.403  43.931   9.464
 1673POPC   PO423796  14.416  43.891   9.164
 1673POPC   GL123797  14.448  43.926   8.864
 1673POPC   GL223798  14.529  43.950   8.864
 1673POPC   C1A23799  14.419  43.918   8.564
 1673POPC   D2A23800  14.402  43.837   8.264
 1673POPC   C3A23801  14.445  43.840   7.964
 1673POPC   C4A23802  14.398  43.923   7.664
 1673POPC   C1B23803  14.629  44.074   8.564
 1673POPC   C2B23804  14.583  43.997   8.264
 1673POPC   C3B23805  14.557  44.084   7.964
 1673POPC   C4B23806  14.646  44.078   7.664
 1674POPC   NC323807  12.822  19.883   9.464
 1674POPC   PO423808  12.850  19.860   9.164
 1674POPC   GL123809  12.859  19.793   8.864
 1674POPC   GL223810  12.783  19.748   8.864
 1674POPC   C1A23811  12.860  19.823   8.564
 1674POPC   D2A23812  12.821  19.872   8.264
 1674POPC   C3A23813  12.845  19.884   7.964
 1674POPC   C4A23814  12.807  19.826   7.664
 1674POPC   C1B23815  12.670  19.781   8.564
 1674POPC   C2B23816  12.598  19.719   8.264
 1674POPC   C3B23817  12.581  19.710   7.964
 1674POPC   C4B23818  12.618  19.745   7.664
 1675POPC   NC323819   4.347  41.559   9.464
 1675POPC   PO423820   4.336  41.583   9.164
 1675POPC   GL123821   4.268  41.537   8.864
 1675POPC   GL223822   4.403  41.519   8.864
 1675POPC   C1A23823   4.302  41.569   8.564
 1675POPC   D2A23824   4.279  41.518   8.264
 1675POPC   C3A23825   4.334  41.555   7.964
 1675POPC   C4A23826   4.330  41.598   7.664
 1675POPC   C1B23827   4.587  41.576   8.564
 1675POPC   C2B23828   4.572  41.602   8.264
 1675POPC   C3B23829   4.566  41.590   7.964
 1675POPC   C4B23830   4.529  41.540   7.664
 1676POPC   NC323831  32.231   1.987   9.464
 1676POPC   PO423832  32.256   2.009   9.164
 1676POPC   GL123833  32.290   1.950   8.864
 1676POPC   GL223834  32.212   2.108   8.864
 1676POPC   C1A23835  32.270   1.989   8.564
 1676POPC   D2A23836  32.230   1.983   8.264
 1676POPC   C3A23837  32.291   1.962   7.964
 1676POPC   C4A23838  32.208   1.951   7.664
 1676POPC   C1B23839  32.092   2.160   8.564
 1676POPC   C2B23840  32.111   2.208   8.264
 1676POPC   C3B23841  32.078   2.213   7.964
 1676POPC   C4B23842  32.119   2.152   7.664
 1677POPC   NC323843  30.724   9.002   9.464
 1677POPC   PO423844  30.734   8.924   9.164
 1677POPC   GL123845  30.710   8.986   8.864
 1677POPC   GL223846  30.738   8.882   8.864
 1677POPC   C1A23847  30.714   8.941   8.564
 1677POPC   D2A23848  30.682   8.965   8.264
 1677POPC   C3A23849  30.647   8.974   7.964
 1677POPC   C4A23850  30.746   8.948   7.664
 1677POPC   C1B23851  30.710   8.692   8.564
 1677POPC   C2B23852  30.740   8.725   8.264
 1677POPC   C3B23853  30.715   8.722   7.964
 1677POPC   C4B23854  30.768   8.678   7.664
 1678POPC   NC323855   7.455   1.972   9.464
 1678POPC   PO423856   7.401   1.958   9.164
 1678POPC   GL123857   7.457   1.951   8.864
 1678POPC   GL223858   7.499   1.987   8.864
 1678POPC   C1A23859   7.403   1.950   8.564
 1678POPC   D2A23860   7.467   2.039   8.264
 1678POPC   C3A23861   7.454   1.955   7.964
 1678POPC   C4A23862   7.461   1.978   7.664
 1678POPC   C1B23863   7.670   1.978   8.564
 1678POPC   C2B23864   7.696   1.913   8.264
 1678POPC   C3B23865   7.632   1.968   7.964
 1678POPC   C4B23866   7.645   1.948   7.664
 1679POPC   NC323867  13.635   3.514   9.464
 1679POPC   PO423868  13.616   3.500   9.164
 1679POPC   GL123869  13.650   3.518   8.864
 1679POPC   GL223870  13.684   3.379   8.864
 1679POPC   C1A23871  13.633   3.523   8.564
 1679POPC   D2A23872  13.654   3.588   8.264
 1679POPC   C3A23873  13.595   3.539   7.964
 1679POPC   C4A23874  13.637   3.584   7.664
 1679POPC   C1B23875  13.699   3.282   8.564
 1679POPC   C2B23876  13.726   3.278   8.264
 1679POPC   C3B23877  13.740   3.264   7.964
 1679POPC   C4B23878  13.749   3.295   7.664
 1680POPC   NC323879   6.694  15.906   9.464
 1680POPC   PO423880   6.657  15.941   9.164
 1680POPC   GL123881   6.667  15.955   8.864
 1680POPC   GL223882   6.503  16.013   8.864
 1680POPC   C1A23883   6.692  15.991   8.564
 1680POPC   D2A23884   6.609  15.974   8.264
 1680POPC   C3A23885   6.627  15.915   7.964
 1680POPC   C4A23886   6.647  15.911   7.664
 1680POPC   C1B23887   6.467  16.164   8.564
 1680POPC   C2B23888   6.477  16.120   8.264
 1680POPC   C3B23889   6.422  16.096   7.964
 1680POPC   C4B23890   6.423  16.143   7.664
 1681POPC   NC323891  15.133   1.195   9.464
 1681POPC   PO423892  15.138   1.198   9.164
 1681POPC   GL123893  15.227   1.261   8.864
 1681POPC   GL223894  15.014   1.241   8.864
 1681POPC   C1A23895  15.154   1.225   8.564
 1681POPC   D2A23896  15.160   1.182   8.264
 1681POPC   C3A23897  15.130   1.168   7.964
 1681POPC   C4A23898  15.198   1.244   7.664
 1681POPC   C1B23899  14.980   1.260   8.564
 1681POPC   C2B23900  14.955   1.260   8.264
 1681POPC   C3B23901  14.957   1.287   7.964
 1681POPC   C4B23902  14.940   1.269   7.664
 1682POPC   NC323903  39.971  30.650   9.464
 1682POPC   PO423904  39.962  30.742   9.164
 1682POPC   GL123905  40.015  30.682   8.864
 1682POPC   GL223906  40.011  30.532   8.864
 1682POPC   C1A23907  40.046  30.651   8.564
 1682POPC   D2A23908  40.001  30.657   8.264
 1682POPC   C3A23909  40.012  30.745   7.964
 1682POPC   C4A23910  40.000  30.714   7.664
 1682POPC   C1B23911  39.906  30.484   8.564
 1682POPC   C2B23912  39.904  30.465   8.264
 1682POPC   C3B23913  39.945  30.450   7.964
 1682POPC   C4B23914  39.871  30.507   7.664
 1683POPC   NC323915  40.755  12.889   9.464
 1683POPC   PO423916  40.821  12.840   9.164
 1683POPC   GL123917  40.734  12.845   8.864
 1683POPC   GL223918  40.817  12.778   8.864
 1683POPC   C1A23919  40.751  12.822   8.564
 1683POPC   D2A23920  40.806  12.804   8.264
 1683POPC   C3A23921  40.755  12.829   7.964
 1683POPC   C4A23922  40.824  12.864   7.664
 1683POPC   C1B23923  40.959  12.612   8.564
 1683POPC   C2B23924  40.939  12.693   8.264
 1683POPC   C3B23925  40.972  12.629   7.964
 1683POPC   C4B23926  40.924  12.680   7.664
 1684POPC   NC323927  40.014  40.801   9.464
 1684POPC   PO423928  39.973  40.766   9.164
 1684POPC   GL123929  40.056  40.750   8.864
 1684POPC   GL223930  39.961  40.924   8.864
 1684POPC   C1A23931  40.056  40.826   8.564
 1684POPC   D2A23932  39.987  40.820   8.264
 1684POPC   C3A23933  39.994  40.736   7.964
 1684POPC   C4A23934  40.009  40.797   7.664
 1684POPC   C1B23935  39.855  41.010   8.564
 1684POPC   C2B23936  39.912  40.977   8.264
 1684POPC   C3B23937  39.873  40.990   7.964
 1684POPC   C4B23938  39.863  40.988   7.664
 1685POPC   NC323939  36.137  20.562   9.464
 1685POPC   PO423940  36.149  20.616   9.164
 1685POPC   GL123941  36.104  20.562   8.864
 1685POPC   GL223942  36.115  20.466   8.864
 1685POPC   C1A23943  36.082  20.594   8.564
 1685POPC   D2A23944  36.097  20.654   8.264
 1685POPC   C3A23945  36.137  20.583   7.964
 1685POPC   C4A23946  36.127  20.584   7.664
 1685POPC   C1B23947  36.170  20.356   8.564
 1685POPC   C2B23948  36.091  20.379   8.264
 1685POPC   C3B23949  36.170  20.332   7.964
 1685POPC   C4B23950  36.153  20.407   7.664
 1686POPC   NC323951  22.188  32.271   9.464
 1686POPC   PO423952  22.130  32.238   9.164
 1686POPC   GL123953  22.155  32.206   8.864
 1686POPC   GL223954  22.048  32.180   8.864
 1686POPC   C1A23955  22.158  32.255   8.564
 1686POPC   D2A23956  22.124  32.241   8.264
 1686POPC   C3A23957  22.206  32.207   7.964
 1686POPC   C4A23958  22.176  32.239   7.664
 1686POPC   C1B23959  22.020  32.069   8.564
 1686POPC   C2B23960  22.036  32.030   8.264
 1686POPC   C3B23961  21.965  32.074   7.964
 1686POPC   C4B23962  21.984  32.045   7.664
 1687POPC   NC323963   5.860  36.118   9.464
 1687POPC   PO423964   5.860  36.100   9.164
 1687POPC   GL123965   5.853  36.118   8.864
 1687POPC   GL223966   5.973  36.051   8.864
 1687POPC   C1A23967   5.888  36.141   8.564
 1687POPC   D2A23968   5.867  36.152   8.264
 1687POPC   C3A23969   5.849  36.078   7.964
 1687POPC   C4A23970   5.871  36.117   7.664
 1687POPC   C1B23971   6.101  36.014   8.564
 1687POPC   C2B23972   6.053  36.077   8.264
 1687POPC   C3B23973   6.108  36.025   7.964
 1687POPC   C4B23974   6.059  35.989   7.664
 1688POPC   NC323975   1.240  42.308   9.464
 1688POPC   PO423976   1.262  42.297   9.164
 1688POPC   GL123977   1.214  42.288   8.864
 1688POPC   GL223978   1.099  42.355   8.864
 1688POPC   C1A23979   1.254  42.370   8.564
 1688POPC   D2A23980   1.187  42.357   8.264
 1688POPC   C3A23981   1.236  42.321   7.964
 1688POPC   C4A23982   1.230  42.345   7.664
 1688POPC   C1B23983   0.966  42.385   8.564
 1688POPC   C2B23984   0.956  42.471   8.264
 1688POPC   C3B23985   0.952  42.404   7.964
 1688POPC   C4B23986   0.999  42.483   7.664
 1689POPC   NC323987  27.609  19.102   9.464
 1689POPC   PO423988  27.618  19.059   9.164
 1689POPC   GL123989  27.595  19.022   8.864
 1689POPC   GL223990  27.487  19.192   8.864
 1689POPC   C1A23991  27.611  19.077   8.564
 1689POPC   D2A23992  27.598  19.102   8.264
 1689POPC   C3A23993  27.557  19.026   7.964
 1689POPC   C4A23994  27.615  19.068   7.664
 1689POPC   C1B23995  27.451  19.249   8.564
 1689POPC   C2B23996  27.474  19.265   8.264
 1689POPC   C3B23997  27.394  19.245   7.964
 1689POPC   C4B23998  27.421  19.296   7.664
 1690POPC   NC323999  22.145  11.250   9.464
 1690POPC   PO424000  22.182  11.260   9.164
 1690POPC   GL124001  22.193  11.253   8.864
 1690POPC   GL224002  22.123  11.170   8.864
 1690POPC   C1A24003  22.152  11.299   8.564
 1690POPC   D2A24004  22.146  11.340   8.264
 1690POPC   C3A24005  22.194  11.300   7.964
 1690POPC   C4A24006  22.177  11.343   7.664
 1690POPC   C1B24007  21.967  11.149   8.564
 1690POPC   C2B24008  22.018  11.077   8.264
 1690POPC   C3B24009  22.037  11.126   7.964
 1690POPC   C4B24010  21.986  11.143   7.664
 1691POPC   NC324011  32.287   1.257   9.464
 1691POPC   PO424012  32.296   1.181   9.164
 1691POPC   GL124013  32.202   1.202   8.864
 1691POPC   GL224014  32.366   1.316   8.864
 1691POPC   C1A24015  32.230   1.176   8.564
 1691POPC   D2A24016  32.203   1.239   8.264
 1691POPC   C3A24017  32.228   1.178   7.964
 1691POPC   C4A24018  32.247   1.173   7.664
 1691POPC   C1B24019  32.417   1.429   8.564
 1691POPC   C2B24020  32.431   1.374   8.264
 1691POPC   C3B24021  32.465   1.387   7.964
 1691POPC   C4B24022  32.385   1.391   7.664
 1692POPC   NC324023  24.472  12.099   9.464
 1692POPC   PO424024  24.489  12.081   9.164
 1692POPC   GL124025  24.499  12.123   8.864
 1692POPC   GL224026  24.566  12.038   8.864
 1692POPC   C1A24027  24.448  12.115   8.564
 1692POPC   D2A24028  24.514  12.091   8.264
 1692POPC   C3A24029  24.458  12.101   7.964
 1692POPC   C4A24030  24.538  12.098   7.664
 1692POPC   C1B24031  24.765  12.018   8.564
 1692POPC   C2B24032  24.698  12.027   8.264
 1692POPC   C3B24033  24.757  12.053   7.964
 1692POPC   C4B24034  24.717  12.025   7.664
 1693POPC   NC324035  10.488   2.770   9.464
 1693POPC   PO424036  10.514   2.799   9.164
 1693POPC   GL124037  10.549   2.793   8.864
 1693POPC   GL224038  10.496   2.867   8.864
 1693POPC   C1A24039  10.520   2.745   8.564
 1693POPC   D2A24040  10.536   2.798   8.264
 1693POPC   C3A24041  10.495   2.772   7.964
 1693POPC   C4A24042  10.539   2.811   7.664
 1693POPC   C1B24043  10.538   3.043   8.564
 1693POPC   C2B24044  10.527   2.975   8.264
 1693POPC   C3B24045  10.566   3.056   7.964
 1693POPC   C4B24046  10.598   3.064   7.664
 1694POPC   NC324047   1.232  21.423   9.464
 1694POPC   PO424048   1.167  21.354   9.164
 1694POPC   GL124049   1.224  21.349   8.864
 1694POPC   GL224050   1.054  21.380   8.864
 1694POPC   C1A24051   1.183  21.356   8.564
 1694POPC   D2A24052   1.215  21.409   8.264
 1694POPC   C3A24053   1.195  21.433   7.964
 1694POPC   C4A24054   1.228  21.385   7.664
 1694POPC   C1B24055   0.981  21.438   8.564
 1694POPC   C2B24056   0.959  21.453   8.264
 1694POPC   C3B24057   0.989  21.482   7.964
 1694POPC   C4B24058   1.023  21.491   7.664
 1695POPC   NC324059  36.087  23.742   9.464
 1695POPC   PO424060  36.134  23.677   9.164
 1695POPC   GL124061  36.095  23.730   8.864
 1695POPC   GL224062  36.030  23.677   8.864
 1695POPC   C1A24063  36.132  23.729   8.564
 1695POPC   D2A24064  36.146  23.702   8.264
 1695POPC   C3A24065  36.104  23.668   7.964
 1695POPC   C4A24066  36.082  23.685   7.664
 1695POPC   C1B24067  35.830  23.632   8.564
 1695POPC   C2B24068  35.876  23.710   8.264
 1695POPC   C3B24069  35.916  23.697   7.964
 1695POPC   C4B24070  35.890  23.697   7.664
 1696POPC   NC324071  27.598   8.193   9.464
 1696POPC   PO424072  27.600   8.159   9.164
 1696POPC   GL124073  27.559   8.192   8.864
 1696POPC   GL224074  27.703   8.101   8.864
 1696POPC   C1A24075  27.574   8.215   8.564
 1696POPC   D2A24076  27.552   8.191   8.264
 1696POPC   C3A24077  27.626   8.236   7.964
 1696POPC   C4A24078  27.543   8.165   7.664
 1696POPC   C1B24079  27.751   8.047   8.564
 1696POPC   C2B24080  27.826   8.034   8.264
 1696POPC   C3B24081  27.808   8.062   7.964
 1696POPC   C4B24082  27.819   8.018   7.664
 1697POPC   NC324083  14.401  13.640   9.464
 1697POPC   PO424084  14.429  13.621   9.164
 1697POPC   GL124085  14.396  13.635   8.864
 1697POPC   GL224086  14.363  13.551   8.864
 1697POPC   C1A24087  14.419  13.632   8.564
 1697POPC   D2A24088  14.380  13.629   8.264
 1697POPC   C3A24089  14.422  13.633   7.964
 1697POPC   C4A24090  14.388  13.630   7.664
 1697POPC   C1B24091  14.277  13.442   8.564
 1697POPC   C2B24092  14.227  13.410   8.264
 1697POPC   C3B24093  14.250  13.400   7.964
 1697POPC   C4B24094  14.214  13.465   7.664
 1698POPC   NC324095  19.042  37.651   9.464
 1698POPC   PO424096  19.097  37.704   9.164
 1698POPC   GL124097  19.015  37.714   8.864
 1698POPC   GL224098  18.997  37.577   8.864
 1698POPC   C1A24099  19.018  37.717   8.564
 1698POPC   D2A24100  19.091  37.687   8.264
 1698POPC   C3A24101  19.063  37.646   7.964
 1698POPC   C4A24102  19.080  37.643   7.664
 1698POPC   C1B24103  19.046  37.484   8.564
 1698POPC   C2B24104  18.964  37.389   8.264
 1698POPC   C3B24105  18.976  37.438   7.964
 1698POPC   C4B24106  18.984  37.469   7.664
 1699POPC   NC324107  21.371   2.794   9.464
 1699POPC   PO424108  21.344   2.776   9.164
 1699POPC   GL124109  21.356   2.718   8.864
 1699POPC   GL224110  21.299   2.771   8.864
 1699POPC   C1A24111  21.352   2.773   8.564
 1699POPC   D2A24112  21.363   2.752   8.264
 1699POPC   C3A24113  21.364   2.766   7.964
 1699POPC   C4A24114  21.407   2.742   7.664
 1699POPC   C1B24115  21.123   2.807   8.564
 1699POPC   C2B24116  21.160   2.850   8.264
 1699POPC   C3B24117  21.159   2.862   7.964
 1699POPC   C4B24118  21.103   2.805   7.664
 1700POPC   NC324119  31.496  12.822   9.464
 1700POPC   PO424120  31.458  12.819   9.164
 1700POPC   GL124121  31.486  12.858   8.864
 1700POPC   GL224122  31.521  13.024   8.864
 1700POPC   C1A24123  31.424  12.902   8.564
 1700POPC   D2A24124  31.486  12.901   8.264
 1700POPC   C3A24125  31.457  12.805   7.964
 1700POPC   C4A24126  31.451  12.893   7.664
 1700POPC   C1B24127  31.497  13.105   8.564
 1700POPC   C2B24128  31.516  13.124   8.264
 1700POPC   C3B24129  31.437  13.062   7.964
 1700POPC   C4B24130  31.514  13.069   7.664
 1701POPC   NC324131  40.734  40.008   9.464
 1701POPC   PO424132  40.818  40.051   9.164
 1701POPC   GL124133  40.754  39.972   8.864
 1701POPC   GL224134  40.770  40.086   8.864
 1701POPC   C1A24135  40.766  39.965   8.564
 1701POPC   D2A24136  40.769  39.960   8.264
 1701POPC   C3A24137  40.761  40.030   7.964
 1701POPC   C4A24138  40.762  40.006   7.664
 1701POPC   C1B24139  40.722  40.213   8.564
 1701POPC   C2B24140  40.758  40.235   8.264
 1701POPC   C3B24141  40.733  40.245   7.964
 1701POPC   C4B24142  40.735  40.230   7.664
 1702POPC   NC324143  31.443  20.612   9.464
 1702POPC   PO424144  31.439  20.624   9.164
 1702POPC   GL124145  31.469  20.645   8.864
 1702POPC   GL224146  31.563  20.652   8.864
 1702POPC   C1A24147  31.475  20.656   8.564
 1702POPC   D2A24148  31.510  20.658   8.264
 1702POPC   C3A24149  31.467  20.631   7.964
 1702POPC   C4A24150  31.506  20.608   7.664
 1702POPC   C1B24151  31.746  20.594   8.564
 1702POPC   C2B24152  31.746  20.646   8.264
 1702POPC   C3B24153  31.715  20.651   7.964
 1702POPC   C4B24154  31.691  20.668   7.664
 1703POPC   NC324155  10.507  43.911   9.464
 1703POPC   PO424156  10.490  43.869   9.164
 1703POPC   GL124157  10.476  43.838   8.864
 1703POPC   GL224158  10.642  43.865   8.864
 1703POPC   C1A24159  10.567  43.900   8.564
 1703POPC   D2A24160  10.536  43.841   8.264
 1703POPC   C3A24161  10.476  43.876   7.964
 1703POPC   C4A24162  10.488  43.931   7.664
 1703POPC   C1B24163  10.775  43.777   8.564
 1703POPC   C2B24164  10.709  43.770   8.264
 1703POPC   C3B24165  10.708  43.737   7.964
 1703POPC   C4B24166  10.737  43.764   7.664
 1704POPC   NC324167  14.408  34.614   9.464
 1704POPC   PO424168  14.389  34.529   9.164
 1704POPC   GL124169  14.420  34.593   8.864
 1704POPC   GL224170  14.468  34.505   8.864
 1704POPC   C1A24171  14.441  34.552   8.564
 1704POPC   D2A24172  14.354  34.592   8.264
 1704POPC   C3A24173  14.436  34.561   7.964
 1704POPC   C4A24174  14.372  34.550   7.664
 1704POPC   C1B24175  14.594  34.482   8.564
 1704POPC   C2B24176  14.661  34.445   8.264
 1704POPC   C3B24177  14.641  34.496   7.964
 1704POPC   C4B24178  14.656  34.486   7.664
 1705POPC   NC324179   9.756  37.722   9.464
 1705POPC   PO424180   9.731  37.705   9.164
 1705POPC   GL124181   9.707  37.671   8.864
 1705POPC   GL224182   9.824  37.639   8.864
 1705POPC   C1A24183   9.712  37.683   8.564
 1705POPC   D2A24184   9.788  37.643   8.264
 1705POPC   C3A24185   9.782  37.721   7.964
 1705POPC   C4A24186   9.702  37.702   7.664
 1705POPC   C1B24187   9.959  37.657   8.564
 1705POPC   C2B24188   9.973  37.662   8.264
 1705POPC   C3B24189   9.982  37.666   7.964
 1705POPC   C4B24190   9.998  37.717   7.664
 1706POPC   NC324191  36.129  33.800   9.464
 1706POPC   PO424192  36.113  33.808   9.164
 1706POPC   GL124193  36.155  33.811   8.864
 1706POPC   GL224194  36.048  33.850   8.864
 1706POPC   C1A24195  36.097  33.799   8.564
 1706POPC   D2A24196  36.083  33.828   8.264
 1706POPC   C3A24197  36.132  33.798   7.964
 1706POPC   C4A24198  36.167  33.808   7.664
 1706POPC   C1B24199  35.886  33.987   8.564
 1706POPC   C2B24200  35.899  33.900   8.264
 1706POPC   C3B24201  35.881  33.956   7.964
 1706POPC   C4B24202  35.920  33.930   7.664
 1707POPC   NC324203  34.541  26.858   9.464
 1707POPC   PO424204  34.567  26.831   9.164
 1707POPC   GL124205  34.608  26.803   8.864
 1707POPC   GL224206  34.601  26.672   8.864
 1707POPC   C1A24207  34.543  26.825   8.564
 1707POPC   D2A24208  34.541  26.818   8.264
 1707POPC   C3A24209  34.574  26.830   7.964
 1707POPC   C4A24210  34.565  26.830   7.664
 1707POPC   C1B24211  34.585  26.553   8.564
 1707POPC   C2B24212  34.583  26.614   8.264
 1707POPC   C3B24213  34.585  26.519   7.964
 1707POPC   C4B24214  34.562  26.555   7.664
 1708POPC   NC324215   0.444  43.928   9.464
 1708POPC   PO424216   0.424  43.847   9.164
 1708POPC   GL124217   0.473  43.908   8.864
 1708POPC   GL224218   0.403  43.725   8.864
 1708POPC   C1A24219   0.487  43.899   8.564
 1708POPC   D2A24220   0.426  43.838   8.264
 1708POPC   C3A24221   0.470  43.872   7.964
 1708POPC   C4A24222   0.396  43.903   7.664
 1708POPC   C1B24223   0.395  43.669   8.564
 1708POPC   C2B24224   0.366  43.669   8.264
 1708POPC   C3B24225   0.416  43.615   7.964
 1708POPC   C4B24226   0.392  43.658   7.664
 1709POPC   NC324227  35.385   7.413   9.464
 1709POPC   PO424228  35.327   7.426   9.164
 1709POPC   GL124229  35.357   7.470   8.864
 1709POPC   GL224230  35.338   7.519   8.864
 1709POPC   C1A24231  35.350   7.413   8.564
 1709POPC   D2A24232  35.374   7.418   8.264
 1709POPC   C3A24233  35.346   7.410   7.964
 1709POPC   C4A24234  35.389   7.447   7.664
 1709POPC   C1B24235  35.430   7.624   8.564
 1709POPC   C2B24236  35.453   7.660   8.264
 1709POPC   C3B24237  35.404   7.644   7.964
 1709POPC   C4B24238  35.440   7.631   7.664
 1710POPC   NC324239  15.946  26.036   9.464
 1710POPC   PO424240  15.966  26.037   9.164
 1710POPC   GL124241  16.001  26.076   8.864
 1710POPC   GL224242  16.021  26.160   8.864
 1710POPC   C1A24243  15.947  26.012   8.564
 1710POPC   D2A24244  15.973  26.040   8.264
 1710POPC   C3A24245  15.988  26.045   7.964
 1710POPC   C4A24246  15.964  26.010   7.664
 1710POPC   C1B24247  16.180  26.193   8.564
 1710POPC   C2B24248  16.149  26.190   8.264
 1710POPC   C3B24249  16.123  26.207   7.964
 1710POPC   C4B24250  16.186  26.216   7.664
 1711POPC   NC324251  12.878  39.961   9.464
 1711POPC   PO424252  12.867  39.971   9.164
 1711POPC   GL124253  12.848  40.053   8.864
 1711POPC   GL224254  12.842  40.131   8.864
 1711POPC   C1A24255  12.898  40.016   8.564
 1711POPC   D2A24256  12.814  40.018   8.264
 1711POPC   C3A24257  12.842  40.046   7.964
 1711POPC   C4A24258  12.817  40.014   7.664
 1711POPC   C1B24259  12.808  40.266   8.564
 1711POPC   C2B24260  12.736  40.281   8.264
 1711POPC   C3B24261  12.803  40.261   7.964
 1711POPC   C4B24262  12.730  40.205   7.664
 1712POPC   NC324263  39.216  39.998   9.464
 1712POPC   PO424264  39.187  39.971   9.164
 1712POPC   GL124265  39.254  40.041   8.864
 1712POPC   GL224266  39.189  40.178   8.864
 1712POPC   C1A24267  39.220  40.037   8.564
 1712POPC   D2A24268  39.257  39.970   8.264
 1712POPC   C3A24269  39.250  39.994   7.964
 1712POPC   C4A24270  39.188  40.036   7.664
 1712POPC   C1B24271  39.186  40.297   8.564
 1712POPC   C2B24272  39.219  40.237   8.264
 1712POPC   C3B24273  39.132  40.215   7.964
 1712POPC   C4B24274  39.143  40.285   7.664
 1713POPC   NC324275  29.883   8.238   9.464
 1713POPC   PO424276  29.955   8.199   9.164
 1713POPC   GL124277  29.967   8.166   8.864
 1713POPC   GL224278  30.087   8.191   8.864
 1713POPC   C1A24279  29.915   8.203   8.564
 1713POPC   D2A24280  29.932   8.207   8.264
 1713POPC   C3A24281  29.954   8.179   7.964
 1713POPC   C4A24282  29.892   8.154   7.664
 1713POPC   C1B24283  30.206   8.216   8.564
 1713POPC   C2B24284  30.173   8.228   8.264
 1713POPC   C3B24285  30.214   8.198   7.964
 1713POPC   C4B24286  30.218   8.236   7.664
 1714POPC   NC324287  13.621  15.140   9.464
 1714POPC   PO424288  13.622  15.148   9.164
 1714POPC   GL124289  13.609  15.220   8.864
 1714POPC   GL224290  13.757  15.227   8.864
 1714POPC   C1A24291  13.580  15.217   8.564
 1714POPC   D2A24292  13.647  15.182   8.264
 1714POPC   C3A24293  13.647  15.153   7.964
 1714POPC   C4A24294  13.658  15.188   7.664
 1714POPC   C1B24295  13.826  15.190   8.564
 1714POPC   C2B24296  13.913  15.230   8.264
 1714POPC   C3B24297  13.879  15.237   7.964
 1714POPC   C4B24298  13.906  15.185   7.664
 1715POPC   NC324299  26.782  16.706   9.464
 1715POPC   PO424300  26.796  16.697   9.164
 1715POPC   GL124301  26.807  16.716   8.864
 1715POPC   GL224302  26.875  16.801   8.864
 1715POPC   C1A24303  26.786  16.754   8.564
 1715POPC   D2A24304  26.779  16.681   8.264
 1715POPC   C3A24305  26.840  16.702   7.964
 1715POPC   C4A24306  26.807  16.689   7.664
 1715POPC   C1B24307  27.009  16.825   8.564
 1715POPC   C2B24308  27.013  16.860   8.264
 1715POPC   C3B24309  27.058  16.912   7.964
 1715POPC   C4B24310  27.005  16.892   7.664
 1716POPC   NC324311  22.209  42.286   9.464
 1716POPC   PO424312  22.188  42.346   9.164
 1716POPC   GL124313  22.119  42.325   8.864
 1716POPC   GL224314  22.071  42.271   8.864
 1716POPC   C1A24315  22.126  42.377   8.564
 1716POPC   D2A24316  22.172  42.384   8.264
 1716POPC   C3A24317  22.116  42.286   7.964
 1716POPC   C4A24318  22.116  42.332   7.664
 1716POPC   C1B24319  21.932  42.175   8.564
 1716POPC   C2B24320  21.948  42.204   8.264
 1716POPC   C3B24321  21.988  42.204   7.964
 1716POPC   C4B24322  21.965  42.259   7.664
 1717POPC   NC324323   5.900   8.938   9.464
 1717POPC   PO424324   5.905   8.941   9.164
 1717POPC   GL124325   5.852   8.969   8.864
 1717POPC   GL224326   5.898   8.867   8.864
 1717POPC   C1A24327   5.835   8.978   8.564
 1717POPC   D2A24328   5.904   8.989   8.264
 1717POPC   C3A24329   5.871   8.944   7.964
 1717POPC   C4A24330   5.873   8.983   7.664
 1717POPC   C1B24331   5.928   8.723   8.564
 1717POPC   C2B24332   5.925   8.703   8.264
 1717POPC   C3B24333   5.943   8.726   7.964
 1717POPC   C4B24334   5.958   8.760   7.664
 1718POPC   NC324335  18.300   1.231   9.464
 1718POPC   PO424336  18.321   1.255   9.164
 1718POPC   GL124337  18.236   1.186   8.864
 1718POPC   GL224338  18.150   1.180   8.864
 1718POPC   C1A24339  18.310   1.203   8.564
 1718POPC   D2A24340  18.305   1.248   8.264
 1718POPC   C3A24341  18.237   1.239   7.964
 1718POPC   C4A24342  18.255   1.206   7.664
 1718POPC   C1B24343  18.085   1.202   8.564
 1718POPC   C2B24344  18.023   1.112   8.264
 1718POPC   C3B24345  18.049   1.184   7.964
 1718POPC   C4B24346  18.058   1.195   7.664
 1719POPC   NC324347  12.809   8.217   9.464
 1719POPC   PO424348  12.823   8.233   9.164
 1719POPC   GL124349  12.818   8.173   8.864
 1719POPC   GL224350  12.742   8.065   8.864
 1719POPC   C1A24351  12.826   8.190   8.564
 1719POPC   D2A24352  12.838   8.162   8.264
 1719POPC   C3A24353  12.848   8.242   7.964
 1719POPC   C4A24354  12.845   8.233   7.664
 1719POPC   C1B24355  12.730   7.975   8.564
 1719POPC   C2B24356  12.752   8.014   8.264
 1719POPC   C3B24357  12.715   7.976   7.964
 1719POPC   C4B24358  12.682   7.989   7.664
 1720POPC   NC324359  38.495  16.730   9.464
 1720POPC   PO424360  38.463  16.779   9.164
 1720POPC   GL124361  38.431  16.739   8.864
 1720POPC   GL224362  38.389  16.633   8.864
 1720POPC   C1A24363  38.504  16.693   8.564
 1720POPC   D2A24364  38.461  16.723   8.264
 1720POPC   C3A24365  38.430  16.756   7.964
 1720POPC   C4A24366  38.453  16.775   7.664
 1720POPC   C1B24367  38.360  16.541   8.564
 1720POPC   C2B24368  38.380  16.491   8.264
 1720POPC   C3B24369  38.372  16.480   7.964
 1720POPC   C4B24370  38.384  16.523   7.664
 1721POPC   NC324371   4.336   6.638   9.464
 1721POPC   PO424372   4.351   6.661   9.164
 1721POPC   GL124373   4.341   6.652   8.864
 1721POPC   GL224374   4.407   6.587   8.864
 1721POPC   C1A24375   4.269   6.638   8.564
 1721POPC   D2A24376   4.289   6.664   8.264
 1721POPC   C3A24377   4.310   6.634   7.964
 1721POPC   C4A24378   4.344   6.603   7.664
 1721POPC   C1B24379   4.513   6.527   8.564
 1721POPC   C2B24380   4.552   6.498   8.264
 1721POPC   C3B24381   4.544   6.529   7.964
 1721POPC   C4B24382   4.534   6.475   7.664
 1722POPC   NC324383   5.902  25.235   9.464
 1722POPC   PO424384   5.877  25.292   9.164
 1722POPC   GL124385   5.902  25.225   8.864
 1722POPC   GL224386   5.931  25.127   8.864
 1722POPC   C1A24387   5.841  25.246   8.564
 1722POPC   D2A24388   5.878  25.251   8.264
 1722POPC   C3A24389   5.906  25.250   7.964
 1722POPC   C4A24390   5.889  25.292   7.664
 1722POPC   C1B24391   5.991  25.027   8.564
 1722POPC   C2B24392   5.964  25.000   8.264
 1722POPC   C3B24393   5.927  25.052   7.964
 1722POPC   C4B24394   5.946  25.042   7.664
 1723POPC   NC324395  30.669   2.035   9.464
 1723POPC   PO424396  30.718   1.973   9.164
 1723POPC   GL124397  30.694   1.984   8.864
 1723POPC   GL224398  30.862   1.980   8.864
 1723POPC   C1A24399  30.700   2.020   8.564
 1723POPC   D2A24400  30.661   2.003   8.264
 1723POPC   C3A24401  30.724   2.004   7.964
 1723POPC   C4A24402  30.687   1.973   7.664
 1723POPC   C1B24403  30.905   2.067   8.564
 1723POPC   C2B24404  30.902   2.073   8.264
 1723POPC   C3B24405  30.950   2.025   7.964
 1723POPC   C4B24406  30.922   1.997   7.664
 1724POPC   NC324407   1.235  29.149   9.464
 1724POPC   PO424408   1.209  29.108   9.164
 1724POPC   GL124409   1.261  29.179   8.864
 1724POPC   GL224410   1.316  29.230   8.864
 1724POPC   C1A24411   1.253  29.102   8.564
 1724POPC   D2A24412   1.183  29.125   8.264
 1724POPC   C3A24413   1.189  29.121   7.964
 1724POPC   C4A24414   1.228  29.117   7.664
 1724POPC   C1B24415   1.375  29.326   8.564
 1724POPC   C2B24416   1.388  29.259   8.264
 1724POPC   C3B24417   1.429  29.306   7.964
 1724POPC   C4B24418   1.446  29.341   7.664
 1725POPC   NC324419   5.064  15.147   9.464
 1725POPC   PO424420   5.096  15.228   9.164
 1725POPC   GL124421   5.091  15.225   8.864
 1725POPC   GL224422   5.190  15.099   8.864
 1725POPC   C1A24423   5.055  15.225   8.564
 1725POPC   D2A24424   5.129  15.177   8.264
 1725POPC   C3A24425   5.086  15.174   7.964
 1725POPC   C4A24426   5.129  15.134   7.664
 1725POPC   C1B24427   5.260  15.026   8.564
 1725POPC   C2B24428   5.276  14.989   8.264
 1725POPC   C3B24429   5.207  14.983   7.964
 1725POPC   C4B24430   5.260  15.000   7.664
 1726POPC   NC324431  20.656  21.388   9.464
 1726POPC   PO424432  20.659  21.347   9.164
 1726POPC   GL124433  20.571  21.373   8.864
 1726POPC   GL224434  20.520  21.370   8.864
 1726POPC   C1A24435  20.567  21.402   8.564
 1726POPC   D2A24436  20.659  21.407   8.264
 1726POPC   C3A24437  20.628  21.413   7.964
 1726POPC   C4A24438  20.651  21.367   7.664
 1726POPC   C1B24439  20.360  21.480   8.564
 1726POPC   C2B24440  20.396  21.419   8.264
 1726POPC   C3B24441  20.356  21.460   7.964
 1726POPC   C4B24442  20.340  21.439   7.664
 1727POPC   NC324443  25.231  28.353   9.464
 1727POPC   PO424444  25.296  28.371   9.164
 1727POPC   GL124445  25.261  28.326   8.864
 1727POPC   GL224446  25.144  28.365   8.864
 1727POPC   C1A24447  25.303  28.397   8.564
 1727POPC   D2A24448  25.298  28.401   8.264
 1727POPC   C3A24449  25.240  28.326   7.964
 1727POPC   C4A24450  25.216  28.367   7.664
 1727POPC   C1B24451  25.069  28.429   8.564
 1727POPC   C2B24452  24.997  28.493   8.264
 1727POPC   C3B24453  25.035  28.490   7.964
 1727POPC   C4B24454  25.000  28.464   7.664
 1728POPC   NC324455  33.789   5.127   9.464
 1728POPC   PO424456  33.846   5.058   9.164
 1728POPC   GL124457  33.836   5.093   8.864
 1728POPC   GL224458  33.745   5.008   8.864
 1728POPC   C1A24459  33.802   5.140   8.564
 1728POPC   D2A24460  33.782   5.106   8.264
 1728POPC   C3A24461  33.777   5.066   7.964
 1728POPC   C4A24462  33.839   5.129   7.664
 1728POPC   C1B24463  33.654   4.874   8.564
 1728POPC   C2B24464  33.681   4.838   8.264
 1728POPC   C3B24465  33.646   4.834   7.964
 1728POPC   C4B24466  33.708   4.822   7.664
 1729POPC   NC324467  20.568  40.027   9.464
 1729POPC   PO424468  20.659  40.020   9.164
 1729POPC   GL124469  20.652  40.010   8.864
 1729POPC   GL224470  20.477  39.934   8.864
 1729POPC   C1A24471  20.569  39.962   8.564
 1729POPC   D2A24472  20.613  39.986   8.264
 1729POPC   C3A24473  20.659  40.047   7.964
 1729POPC   C4A24474  20.630  39.975   7.664
 1729POPC   C1B24475  20.446  39.805   8.564
 1729POPC   C2B24476  20.401  39.804   8.264
 1729POPC   C3B24477  20.368  39.884   7.964
 1729POPC   C4B24478  20.425  39.840   7.664
 1730POPC   NC324479  36.156  40.825   9.464
 1730POPC   PO424480  36.177  40.765   9.164
 1730POPC   GL124481  36.173  40.791   8.864
 1730POPC   GL224482  36.156  40.852   8.864
 1730POPC   C1A24483  36.108  40.785   8.564
 1730POPC   D2A24484  36.107  40.822   8.264
 1730POPC   C3A24485  36.106  40.807   7.964
 1730POPC   C4A24486  36.170  40.795   7.664
 1730POPC   C1B24487  36.323  41.010   8.564
 1730POPC   C2B24488  36.287  40.963   8.264
 1730POPC   C3B24489  36.316  41.013   7.964
 1730POPC   C4B24490  36.303  41.002   7.664
 1731POPC   NC324491  25.269  39.963   9.464
 1731POPC   PO424492  25.310  39.999   9.164
 1731POPC   GL124493  25.216  40.015   8.864
 1731POPC   GL224494  25.264  40.144   8.864
 1731POPC   C1A24495  25.296  39.989   8.564
 1731POPC   D2A24496  25.306  39.988   8.264
 1731POPC   C3A24497  25.247  40.030   7.964
 1731POPC   C4A24498  25.286  39.966   7.664
 1731POPC   C1B24499  25.289  40.224   8.564
 1731POPC   C2B24500  25.355  40.209   8.264
 1731POPC   C3B24501  25.307  40.220   7.964
 1731POPC   C4B24502  25.306  40.290   7.664
 1732POPC   NC324503   9.771  38.475   9.464
 1732POPC   PO424504   9.786  38.407   9.164
 1732POPC   GL124505   9.775  38.426   8.864
 1732POPC   GL224506   9.673  38.365   8.864
 1732POPC   C1A24507   9.732  38.460   8.564
 1732POPC   D2A24508   9.783  38.419   8.264
 1732POPC   C3A24509   9.768  38.412   7.964
 1732POPC   C4A24510   9.731  38.464   7.664
 1732POPC   C1B24511   9.492  38.297   8.564
 1732POPC   C2B24512   9.560  38.369   8.264
 1732POPC   C3B24513   9.568  38.323   7.964
 1732POPC   C4B24514   9.550  38.303   7.664
 1733POPC   NC324515  38.431  31.516   9.464
 1733POPC   PO424516  38.450  31.468   9.164
 1733POPC   GL124517  38.457  31.492   8.864
 1733POPC   GL224518  38.366  31.387   8.864
 1733POPC   C1A24519  38.434  31.449   8.564
 1733POPC   D2A24520  38.460  31.452   8.264
 1733POPC   C3A24521  38.437  31.503   7.964
 1733POPC   C4A24522  38.453  31.466   7.664
 1733POPC   C1B24523  38.402  31.195   8.564
 1733POPC   C2B24524  38.329  31.189   8.264
 1733POPC   C3B24525  38.404  31.195   7.964
 1733POPC   C4B24526  38.367  31.218   7.664
 1734POPC   NC324527  22.979  16.755   9.464
 1734POPC   PO424528  22.930  16.767   9.164
 1734POPC   GL124529  22.905  16.753   8.864
 1734POPC   GL224530  22.986  16.624   8.864
 1734POPC   C1A24531  22.892  16.749   8.564
 1734POPC   D2A24532  22.949  16.726   8.264
 1734POPC   C3A24533  22.909  16.741   7.964
 1734POPC   C4A24534  22.928  16.724   7.664
 1734POPC   C1B24535  23.074  16.510   8.564
 1734POPC   C2B24536  23.046  16.462   8.264
 1734POPC   C3B24537  23.106  16.557   7.964
 1734POPC   C4B24538  23.037  16.517   7.664
 1735POPC   NC324539  27.616  28.393   9.464
 1735POPC   PO424540  27.610  28.360   9.164
 1735POPC   GL124541  27.617  28.329   8.864
 1735POPC   GL224542  27.723  28.358   8.864
 1735POPC   C1A24543  27.557  28.326   8.564
 1735POPC   D2A24544  27.548  28.376   8.264
 1735POPC   C3A24545  27.629  28.375   7.964
 1735POPC   C4A24546  27.581  28.414   7.664
 1735POPC   C1B24547  27.829  28.441   8.564
 1735POPC   C2B24548  27.841  28.425   8.264
 1735POPC   C3B24549  27.877  28.434   7.964
 1735POPC   C4B24550  27.867  28.411   7.664
 1736POPC   NC324551   3.528  39.239   9.464
 1736POPC   PO424552   3.503  39.254   9.164
 1736POPC   GL124553   3.575  39.227   8.864
 1736POPC   GL224554   3.594  39.306   8.864
 1736POPC   C1A24555   3.540  39.244   8.564
 1736POPC   D2A24556   3.509  39.187   8.264
 1736POPC   C3A24557   3.542  39.208   7.964
 1736POPC   C4A24558   3.526  39.196   7.664
 1736POPC   C1B24559   3.615  39.462   8.564
 1736POPC   C2B24560   3.561  39.498   8.264
 1736POPC   C3B24561   3.569  39.454   7.964
 1736POPC   C4B24562   3.618  39.505   7.664
 1737POPC   NC324563  26.028  43.926   9.464
 1737POPC   PO424564  26.065  43.898   9.164
 1737POPC   GL124565  26.061  43.915   8.864
 1737POPC   GL224566  26.091  44.037   8.864
 1737POPC   C1A24567  25.997  43.885   8.564
 1737POPC   D2A24568  26.038  43.927   8.264
 1737POPC   C3A24569  26.023  43.898   7.964
 1737POPC   C4A24570  25.993  43.924   7.664
 1737POPC   C1B24571  26.114  44.138   8.564
 1737POPC   C2B24572  26.140  44.155   8.264
 1737POPC   C3B24573  26.162  44.131   7.964
 1737POPC   C4B24574  26.137  44.162   7.664
 1738POPC   NC324575  30.744  24.502   9.464
 1738POPC   PO424576  30.710  24.515   9.164
 1738POPC   GL124577  30.720  24.517   8.864
 1738POPC   GL224578  30.596  24.571   8.864
 1738POPC   C1A24579  30.746  24.533   8.564
 1738POPC   D2A24580  30.663  24.537   8.264
 1738POPC   C3A24581  30.653  24.505   7.964
 1738POPC   C4A24582  30.696  24.531   7.664
 1738POPC   C1B24583  30.580  24.720   8.564
 1738POPC   C2B24584  30.562  24.682   8.264
 1738POPC   C3B24585  30.500  24.670   7.964
 1738POPC   C4B24586  30.567  24.684   7.664
 1739POPC   NC324587  32.278  43.101   9.464
 1739POPC   PO424588  32.242  43.081   9.164
 1739POPC   GL124589  32.225  43.110   8.864
 1739POPC   GL224590  32.273  43.201   8.864
 1739POPC   C1A24591  32.221  43.082   8.564
 1739POPC   D2A24592  32.292  43.146   8.264
 1739POPC   C3A24593  32.200  43.136   7.964
 1739POPC   C4A24594  32.263  43.129   7.664
 1739POPC   C1B24595  32.300  43.359   8.564
 1739POPC   C2B24596  32.355  43.345   8.264
 1739POPC   C3B24597  32.342  43.331   7.964
 1739POPC   C4B24598  32.349  43.369   7.664
 1740POPC   NC324599   2.724  18.273   9.464
 1740POPC   PO424600   2.811  18.283   9.164
 1740POPC   GL124601   2.717  18.284   8.864
 1740POPC   GL224602   2.866  18.294   8.864
 1740POPC   C1A24603   2.809  18.280   8.564
 1740POPC   D2A24604   2.732  18.323   8.264
 1740POPC   C3A24605   2.778  18.237   7.964
 1740POPC   C4A24606   2.799  18.284   7.664
 1740POPC   C1B24607   3.030  18.436   8.564
 1740POPC   C2B24608   2.965  18.393   8.264
 1740POPC   C3B24609   3.034  18.408   7.964
 1740POPC   C4B24610   3.008  18.342   7.664
 1741POPC   NC324611  27.602  20.631   9.464
 1741POPC   PO424612  27.560  20.603   9.164
 1741POPC   GL124613  27.617  20.630   8.864
 1741POPC   GL224614  27.695  20.620   8.864
 1741POPC   C1A24615  27.613  20.619   8.564
 1741POPC   D2A24616  27.616  20.650   8.264
 1741POPC   C3A24617  27.547  20.616   7.964
 1741POPC   C4A24618  27.569  20.622   7.664
 1741POPC   C1B24619  27.821  20.655   8.564
 1741POPC   C2B24620  27.839  20.597   8.264
 1741POPC   C3B24621  27.814  20.581   7.964
 1741POPC   C4B24622  27.815  20.609   7.664
 1742POPC   NC324623  20.599   5.137   9.464
 1742POPC   PO424624  20.571   5.048   9.164
 1742POPC   GL124625  20.577   5.054   8.864
 1742POPC   GL224626  20.724   5.085   8.864
 1742POPC   C1A24627  20.627   5.105   8.564
 1742POPC   D2A24628  20.575   5.135   8.264
 1742POPC   C3A24629  20.619   5.076   7.964
 1742POPC   C4A24630  20.619   5.140   7.664
 1742POPC   C1B24631  20.856   5.188   8.564
 1742POPC   C2B24632  20.815   5.191   8.264
 1742POPC   C3B24633  20.838   5.128   7.964
 1742POPC   C4B24634  20.871   5.146   7.664
 1743POPC   NC324635  17.556   7.382   9.464
 1743POPC   PO424636  17.557   7.459   9.164
 1743POPC   GL124637  17.489   7.375   8.864
 1743POPC   GL224638  17.584   7.471   8.864
 1743POPC   C1A24639  17.495   7.378   8.564
 1743POPC   D2A24640  17.529   7.468   8.264
 1743POPC   C3A24641  17.477   7.395   7.964
 1743POPC   C4A24642  17.478   7.412   7.664
 1743POPC   C1B24643  17.693   7.543   8.564
 1743POPC   C2B24644  17.684   7.519   8.264
 1743POPC   C3B24645  17.761   7.549   7.964
 1743POPC   C4B24646  17.743   7.544   7.664
 1744POPC   NC324647  21.367  42.368   9.464
 1744POPC   PO424648  21.344  42.311   9.164
 1744POPC   GL124649  21.365  42.324   8.864
 1744POPC   GL224650  21.234  42.436   8.864
 1744POPC   C1A24651  21.338  42.290   8.564
 1744POPC   D2A24652  21.375  42.286   8.264
 1744POPC   C3A24653  21.342  42.317   7.964
 1744POPC   C4A24654  21.401  42.363   7.664
 1744POPC   C1B24655  21.140  42.432   8.564
 1744POPC   C2B24656  21.202  42.400   8.264
 1744POPC   C3B24657  21.201  42.490   7.964
 1744POPC   C4B24658  21.209  42.448   7.664
 1745POPC   NC324659  26.772  28.404   9.464
 1745POPC   PO424660  26.854  28.342   9.164
 1745POPC   GL124661  26.799  28.374   8.864
 1745POPC   GL224662  26.980  28.346   8.864
 1745POPC   C1A24663  26.811  28.369   8.564
 1745POPC   D2A24664  26.771  28.357   8.264
 1745POPC   C3A24665  26.806  28.378   7.964
 1745POPC   C4A24666  26.864  28.382   7.664
 1745POPC   C1B24667  27.065  28.355   8.564
 1745POPC   C2B24668  27.018  28.303   8.264
 1745POPC   C3B24669  27.093  28.370   7.964
 1745POPC   C4B24670  27.058  28.314   7.664
 1746POPC   NC324671  20.605  11.315   9.464
 1746POPC   PO424672  20.577  11.325   9.164
 1746POPC   GL124673  20.618  11.305   8.864
 1746POPC   GL224674  20.503  11.190   8.864
 1746POPC   C1A24675  20.569  11.320   8.564
 1746POPC   D2A24676  20.598  11.277   8.264
 1746POPC   C3A24677  20.656  11.321   7.964
 1746POPC   C4A24678  20.656  11.339   7.664
 1746POPC   C1B24679  20.464  11.166   8.564
 1746POPC   C2B24680  20.435  11.140   8.264
 1746POPC   C3B24681  20.376  11.151   7.964
 1746POPC   C4B24682  20.445  11.188   7.664
 1747POPC   NC324683  39.211  29.161   9.464
 1747POPC   PO424684  39.253  29.108   9.164
 1747POPC   GL124685  39.190  29.162   8.864
 1747POPC   GL224686  39.133  29.214   8.864
 1747POPC   C1A24687  39.238  29.153   8.564
 1747POPC   D2A24688  39.181  29.192   8.264
 1747POPC   C3A24689  39.262  29.134   7.964
 1747POPC   C4A24690  39.228  29.152   7.664
 1747POPC   C1B24691  39.049  29.308   8.564
 1747POPC   C2B24692  39.027  29.279   8.264
 1747POPC   C3B24693  39.042  29.344   7.964
 1747POPC   C4B24694  39.093  29.301   7.664
 1748POPC   NC324695   5.087  36.121   9.464
 1748POPC   PO424696   5.070  36.100   9.164
 1748POPC   GL124697   5.053  36.163   8.864
 1748POPC   GL224698   5.012  36.043   8.864
 1748POPC   C1A24699   5.093  36.115   8.564
 1748POPC   D2A24700   5.081  36.158   8.264
 1748POPC   C3A24701   5.050  36.163   7.964
 1748POPC   C4A24702   5.138  36.127   7.664
 1748POPC   C1B24703   4.986  35.913   8.564
 1748POPC   C2B24704   5.022  35.945   8.264
 1748POPC   C3B24705   4.987  35.932   7.964
 1748POPC   C4B24706   4.946  35.923   7.664
 1749POPC   NC324707  37.637   7.395   9.464
 1749POPC   PO424708  37.672   7.464   9.164
 1749POPC   GL124709  37.683   7.436   8.864
 1749POPC   GL224710  37.743   7.501   8.864
 1749POPC   C1A24711  37.712   7.382   8.564
 1749POPC   D2A24712  37.726   7.408   8.264
 1749POPC   C3A24713  37.692   7.402   7.964
 1749POPC   C4A24714  37.667   7.403   7.664
 1749POPC   C1B24715  37.739   7.637   8.564
 1749POPC   C2B24716  37.698   7.688   8.264
 1749POPC   C3B24717  37.734   7.673   7.964
 1749POPC   C4B24718  37.781   7.656   7.664
 1750POPC   NC324719  18.265  22.965   9.464
 1750POPC   PO424720  18.245  22.928   9.164
 1750POPC   GL124721  18.329  22.931   8.864
 1750POPC   GL224722  18.213  23.015   8.864
 1750POPC   C1A24723  18.297  22.900   8.564
 1750POPC   D2A24724  18.324  22.915   8.264
 1750POPC   C3A24725  18.319  22.960   7.964
 1750POPC   C4A24726  18.251  22.974   7.664
 1750POPC   C1B24727  18.120  23.171   8.564
 1750POPC   C2B24728  18.158  23.121   8.264
 1750POPC   C3B24729  18.130  23.164   7.964
 1750POPC   C4B24730  18.199  23.196   7.664
 1751POPC   NC324731  16.750  26.850   9.464
 1751POPC   PO424732  16.686  26.809   9.164
 1751POPC   GL124733  16.742  26.829   8.864
 1751POPC   GL224734  16.851  26.846   8.864
 1751POPC   C1A24735  16.743  26.823   8.564
 1751POPC   D2A24736  16.753  26.770   8.264
 1751POPC   C3A24737  16.692  26.856   7.964
 1751POPC   C4A24738  16.719  26.865   7.664
 1751POPC   C1B24739  16.934  26.902   8.564
 1751POPC   C2B24740  16.918  26.928   8.264
 1751POPC   C3B24741  17.002  26.871   7.964
 1751POPC   C4B24742  16.959  26.890   7.664
 1752POPC   NC324743   9.773  36.862   9.464
 1752POPC   PO424744   9.708  36.892   9.164
 1752POPC   GL124745   9.750  36.868   8.864
 1752POPC   GL224746   9.688  36.992   8.864
 1752POPC   C1A24747   9.771  36.894   8.564
 1752POPC   D2A24748   9.750  36.893   8.264
 1752POPC   C3A24749   9.758  36.921   7.964
 1752POPC   C4A24750   9.764  36.901   7.664
 1752POPC   C1B24751   9.611  37.082   8.564
 1752POPC   C2B24752   9.580  37.141   8.264
 1752POPC   C3B24753   9.576  37.081   7.964
 1752POPC   C4B24754   9.646  37.162   7.664
 1753POPC   NC324755  19.037  14.405   9.464
 1753POPC   PO424756  19.099  14.362   9.164
 1753POPC   GL124757  19.014  14.387   8.864
 1753POPC   GL224758  19.109  14.303   8.864
 1753POPC   C1A24759  19.022  14.357   8.564
 1753POPC   D2A24760  19.018  14.360   8.264
 1753POPC   C3A24761  19.014  14.426   7.964
 1753POPC   C4A24762  19.071  14.358   7.664
 1753POPC   C1B24763  19.250  14.212   8.564
 1753POPC   C2B24764  19.189  14.201   8.264
 1753POPC   C3B24765  19.213  14.235   7.964
 1753POPC   C4B24766  19.262  14.242   7.664
 1754POPC   NC324767  29.133   7.413   9.464
 1754POPC   PO424768  29.177   7.416   9.164
 1754POPC   GL124769  29.180   7.415   8.864
 1754POPC   GL224770  29.056   7.363   8.864
 1754POPC   C1A24771  29.124   7.465   8.564
 1754POPC   D2A24772  29.100   7.411   8.264
 1754POPC   C3A24773  29.132   7.391   7.964
 1754POPC   C4A24774  29.158   7.418   7.664
 1754POPC   C1B24775  28.849   7.374   8.564
 1754POPC   C2B24776  28.850   7.380   8.264
 1754POPC   C3B24777  28.913   7.344   7.964
 1754POPC   C4B24778  28.897   7.358   7.664
 1755POPC   NC324779  15.204  12.806   9.464
 1755POPC   PO424780  15.226  12.898   9.164
 1755POPC   GL124781  15.190  12.860   8.864
 1755POPC   GL224782  15.090  12.916   8.864
 1755POPC   C1A24783  15.183  12.813   8.564
 1755POPC   D2A24784  15.158  12.887   8.264
 1755POPC   C3A24785  15.211  12.900   7.964
 1755POPC   C4A24786  15.183  12.808   7.664
 1755POPC   C1B24787  14.965  12.914   8.564
 1755POPC   C2B24788  14.967  12.979   8.264
 1755POPC   C3B24789  14.906  12.994   7.964
 1755POPC   C4B24790  14.967  12.915   7.664
 1756POPC   NC324791   4.335  12.033   9.464
 1756POPC   PO424792   4.294  12.029   9.164
 1756POPC   GL124793   4.291  12.049   8.864
 1756POPC   GL224794   4.179  12.182   8.864
 1756POPC   C1A24795   4.345  12.099   8.564
 1756POPC   D2A24796   4.277  12.047   8.264
 1756POPC   C3A24797   4.327  12.032   7.964
 1756POPC   C4A24798   4.351  12.107   7.664
 1756POPC   C1B24799   4.128  12.247   8.564
 1756POPC   C2B24800   4.134  12.248   8.264
 1756POPC   C3B24801   4.138  12.242   7.964
 1756POPC   C4B24802   4.086  12.237   7.664
 1757POPC   NC324803  25.293   6.682   9.464
 1757POPC   PO424804  25.229   6.622   9.164
 1757POPC   GL124805  25.311   6.690   8.864
 1757POPC   GL224806  25.359   6.780   8.864
 1757POPC   C1A24807  25.313   6.652   8.564
 1757POPC   D2A24808  25.229   6.620   8.264
 1757POPC   C3A24809  25.305   6.627   7.964
 1757POPC   C4A24810  25.224   6.670   7.664
 1757POPC   C1B24811  25.420   6.800   8.564
 1757POPC   C2B24812  25.430   6.857   8.264
 1757POPC   C3B24813  25.383   6.880   7.964
 1757POPC   C4B24814  25.377   6.819   7.664
 1758POPC   NC324815  29.938  38.420   9.464
 1758POPC   PO424816  29.924  38.465   9.164
 1758POPC   GL124817  29.935  38.504   8.864
 1758POPC   GL224818  29.898  38.613   8.864
 1758POPC   C1A24819  29.896  38.426   8.564
 1758POPC   D2A24820  29.885  38.453   8.264
 1758POPC   C3A24821  29.883  38.449   7.964
 1758POPC   C4A24822  29.940  38.473   7.664
 1758POPC   C1B24823  29.946  38.699   8.564
 1758POPC   C2B24824  30.018  38.709   8.264
 1758POPC   C3B24825  30.012  38.650   7.964
 1758POPC   C4B24826  30.012  38.669   7.664
 1759POPC   NC324827  28.338  36.931   9.464
 1759POPC   PO424828  28.380  36.895   9.164
 1759POPC   GL124829  28.366  36.929   8.864
 1759POPC   GL224830  28.312  36.805   8.864
 1759POPC   C1A24831  28.373  36.938   8.564
 1759POPC   D2A24832  28.409  36.912   8.264
 1759POPC   C3A24833  28.329  36.883   7.964
 1759POPC   C4A24834  28.390  36.869   7.664
 1759POPC   C1B24835  28.257  36.686   8.564
 1759POPC   C2B24836  28.252  36.673   8.264
 1759POPC   C3B24837  28.291  36.721   7.964
 1759POPC   C4B24838  28.249  36.729   7.664
 1760POPC   NC324839   4.281  42.288   9.464
 1760POPC   PO424840   4.341  42.320   9.164
 1760POPC   GL124841   4.296  42.370   8.864
 1760POPC   GL224842   4.458  42.385   8.864
 1760POPC   C1A24843   4.282  42.305   8.564
 1760POPC   D2A24844   4.343  42.333   8.264
 1760POPC   C3A24845   4.319  42.339   7.964
 1760POPC   C4A24846   4.271  42.313   7.664
 1760POPC   C1B24847   4.522  42.442   8.564
 1760POPC   C2B24848   4.528  42.476   8.264
 1760POPC   C3B24849   4.513  42.455   7.964
 1760POPC   C4B24850   4.583  42.439   7.664
 1761POPC   NC324851  13.587   5.062   9.464
 1761POPC   PO424852  13.642   5.077   9.164
 1761POPC   GL124853  13.616   5.096   8.864
 1761POPC   GL224854  13.740   5.185   8.864
 1761POPC   C1A24855  13.622   5.053   8.564
 1761POPC   D2A24856  13.607   5.128   8.264
 1761POPC   C3A24857  13.588   5.136   7.964
 1761POPC   C4A24858  13.587   5.097   7.664
 1761POPC   C1B24859  13.841   5.254   8.564
 1761POPC   C2B24860  13.865   5.258   8.264
 1761POPC   C3B24861  13.860   5.267   7.964
 1761POPC   C4B24862  13.873   5.253   7.664
 1762POPC   NC324863  31.488  12.039   9.464
 1762POPC   PO424864  31.441  12.060   9.164
 1762POPC   GL124865  31.519  12.032   8.864
 1762POPC   GL224866  31.528  12.185   8.864
 1762POPC   C1A24867  31.434  12.039   8.564
 1762POPC   D2A24868  31.477  12.117   8.264
 1762POPC   C3A24869  31.445  12.100   7.964
 1762POPC   C4A24870  31.469  12.126   7.664
 1762POPC   C1B24871  31.585  12.300   8.564
 1762POPC   C2B24872  31.510  12.293   8.264
 1762POPC   C3B24873  31.527  12.317   7.964
 1762POPC   C4B24874  31.561  12.299   7.664
 1763POPC   NC324875   5.070  22.146   9.464
 1763POPC   PO424876   5.045  22.159   9.164
 1763POPC   GL124877   5.064  22.143   8.864
 1763POPC   GL224878   4.956  22.085   8.864
 1763POPC   C1A24879   5.076  22.183   8.564
 1763POPC   D2A24880   5.086  22.156   8.264
 1763POPC   C3A24881   5.051  22.195   7.964
 1763POPC   C4A24882   5.087  22.157   7.664
 1763POPC   C1B24883   4.807  22.107   8.564
 1763POPC   C2B24884   4.804  22.117   8.264
 1763POPC   C3B24885   4.850  22.109   7.964
 1763POPC   C4B24886   4.884  22.149   7.664
 1764POPC   NC324887   5.912  39.202   9.464
 1764POPC   PO424888   5.827  39.202   9.164
 1764POPC   GL124889   5.834  39.247   8.864
 1764POPC   GL224890   5.951  39.219   8.864
 1764POPC   C1A24891   5.880  39.241   8.564
 1764POPC   D2A24892   5.848  39.239   8.264
 1764POPC   C3A24893   5.896  39.231   7.964
 1764POPC   C4A24894   5.847  39.201   7.664
 1764POPC   C1B24895   6.127  39.270   8.564
 1764POPC   C2B24896   6.137  39.228   8.264
 1764POPC   C3B24897   6.166  39.299   7.964
 1764POPC   C4B24898   6.151  39.257   7.664
 1765POPC   NC324899  37.706  14.395   9.464
 1765POPC   PO424900  37.722  14.408   9.164
 1765POPC   GL124901  37.705  14.367   8.864
 1765POPC   GL224902  37.556  14.498   8.864
 1765POPC   C1A24903  37.725  14.439   8.564
 1765POPC   D2A24904  37.651  14.436   8.264
 1765POPC   C3A24905  37.693  14.434   7.964
 1765POPC   C4A24906  37.666  14.357   7.664
 1765POPC   C1B24907  37.538  14.584   8.564
 1765POPC   C2B24908  37.537  14.554   8.264
 1765POPC   C3B24909  37.463  14.591   7.964
 1765POPC   C4B24910  37.536  14.569   7.664
 1766POPC   NC324911  10.550   5.048   9.464
 1766POPC   PO424912  10.510   5.083   9.164
 1766POPC   GL124913  10.530   5.104   8.864
 1766POPC   GL224914  10.579   4.985   8.864
 1766POPC   C1A24915  10.536   5.131   8.564
 1766POPC   D2A24916  10.566   5.084   8.264
 1766POPC   C3A24917  10.498   5.077   7.964
 1766POPC   C4A24918  10.479   5.049   7.664
 1766POPC   C1B24919  10.629   4.877   8.564
 1766POPC   C2B24920  10.578   4.873   8.264
 1766POPC   C3B24921  10.603   4.834   7.964
 1766POPC   C4B24922  10.642   4.838   7.664
 1767POPC   NC324923  37.692  43.898   9.464
 1767POPC   PO424924  37.704  43.889   9.164
 1767POPC   GL124925  37.713  43.850   8.864
 1767POPC   GL224926  37.733  43.827   8.864
 1767POPC   C1A24927  37.714  43.906   8.564
 1767POPC   D2A24928  37.723  43.891   8.264
 1767POPC   C3A24929  37.672  43.893   7.964
 1767POPC   C4A24930  37.683  43.935   7.664
 1767POPC   C1B24931  37.876  43.671   8.564
 1767POPC   C2B24932  37.830  43.705   8.264
 1767POPC   C3B24933  37.813  43.646   7.964
 1767POPC   C4B24934  37.818  43.725   7.664
 1768POPC   NC324935   2.790   1.214   9.464
 1768POPC   PO424936   2.814   1.224   9.164
 1768POPC   GL124937   2.754   1.261   8.864
 1768POPC   GL224938   2.661   1.210   8.864
 1768POPC   C1A24939   2.728   1.258   8.564
 1768POPC   D2A24940   2.718   1.176   8.264
 1768POPC   C3A24941   2.719   1.228   7.964
 1768POPC   C4A24942   2.792   1.227   7.664
 1768POPC   C1B24943   2.550   1.234   8.564
 1768POPC   C2B24944   2.529   1.225   8.264
 1768POPC   C3B24945   2.478   1.242   7.964
 1768POPC   C4B24946   2.558   1.294   7.664
 1769POPC   NC324947  15.173   5.047   9.464
 1769POPC   PO424948  15.133   5.140   9.164
 1769POPC   GL124949  15.131   5.126   8.864
 1769POPC   GL224950  15.081   5.235   8.864
 1769POPC   C1A24951  15.190   5.064   8.564
 1769POPC   D2A24952  15.172   5.050   8.264
 1769POPC   C3A24953  15.174   5.061   7.964
 1769POPC   C4A24954  15.151   5.055   7.664
 1769POPC   C1B24955  15.047   5.285   8.564
 1769POPC   C2B24956  15.051   5.344   8.264
 1769POPC   C3B24957  15.021   5.313   7.964
 1769POPC   C4B24958  15.010   5.320   7.664
 1770POPC   NC324959  30.726  34.607   9.464
 1770POPC   PO424960  30.734  34.598   9.164
 1770POPC   GL124961  30.657  34.614   8.864
 1770POPC   GL224962  30.736  34.634   8.864
 1770POPC   C1A24963  30.737  34.572   8.564
 1770POPC   D2A24964  30.650  34.529   8.264
 1770POPC   C3A24965  30.703  34.548   7.964
 1770POPC   C4A24966  30.652  34.561   7.664
 1770POPC   C1B24967  30.839  34.799   8.564
 1770POPC   C2B24968  30.881  34.759   8.264
 1770POPC   C3B24969  30.834  34.817   7.964
 1770POPC   C4B24970  30.835  34.799   7.664
 1771POPC   NC324971  10.476  38.505   9.464
 1771POPC   PO424972  10.479  38.423   9.164
 1771POPC   GL124973  10.567  38.472   8.864
 1771POPC   GL224974  10.518  38.376   8.864
 1771POPC   C1A24975  10.486  38.431   8.564
 1771POPC   D2A24976  10.506  38.415   8.264
 1771POPC   C3A24977  10.493  38.480   7.964
 1771POPC   C4A24978  10.542  38.443   7.664
 1771POPC   C1B24979  10.648  38.234   8.564
 1771POPC   C2B24980  10.575  38.247   8.264
 1771POPC   C3B24981  10.577  38.252   7.964
 1771POPC   C4B24982  10.632  38.265   7.664
 1772POPC   NC324983   6.678  33.047   9.464
 1772POPC   PO424984   6.658  33.060   9.164
 1772POPC   GL124985   6.657  33.002   8.864
 1772POPC   GL224986   6.527  33.025   8.864
 1772POPC   C1A24987   6.639  33.063   8.564
 1772POPC   D2A24988   6.613  32.992   8.264
 1772POPC   C3A24989   6.690  33.068   7.964
 1772POPC   C4A24990   6.608  33.007   7.664
 1772POPC   C1B24991   6.441  33.005   8.564
 1772POPC   C2B24992   6.427  33.019   8.264
 1772POPC   C3B24993   6.412  32.998   7.964
 1772POPC   C4B24994   6.415  33.028   7.664
 1773POPC   NC324995   8.949   5.894   9.464
 1773POPC   PO424996   8.926   5.900   9.164
 1773POPC   GL124997   9.019   5.882   8.864
 1773POPC   GL224998   8.847   5.759   8.864
 1773POPC   C1A24999   8.974   5.874   8.564
 1773POPC   D2A25000   8.950   5.856   8.264
 1773POPC   C3A25001   8.979   5.862   7.964
 1773POPC   C4A25002   9.003   5.829   7.664
 1773POPC   C1B25003   8.828   5.704   8.564
 1773POPC   C2B25004   8.774   5.687   8.264
 1773POPC   C3B25005   8.771   5.683   7.964
 1773POPC   C4B25006   8.770   5.696   7.664
 1774POPC   NC325007  30.688  44.621   9.464
 1774POPC   PO425008  30.728  44.682   9.164
 1774POPC   GL125009  30.699  44.675   8.864
 1774POPC   GL225010  30.616  44.609   8.864
 1774POPC   C1A25011  30.703  44.685   8.564
 1774POPC   D2A25012  30.649  44.633   8.264
 1774POPC   C3A25013  30.694  44.688   7.964
 1774POPC   C4A25014  30.650  44.619   7.664
 1774POPC   C1B25015  30.481  44.645   8.564
 1774POPC   C2B25016  30.494  44.590   8.264
 1774POPC   C3B25017  30.488  44.653   7.964
 1774POPC   C4B25018  30.423  44.582   7.664
 1775POPC   NC325019  44.667  15.159   9.464
 1775POPC   PO425020  44.686  15.208   9.164
 1775POPC   GL125021  44.656  15.166   8.864
 1775POPC   GL225022  44.715  15.056   8.864
 1775POPC   C1A25023  44.682  15.164   8.564
 1775POPC   D2A25024  44.710  15.197   8.264
 1775POPC   C3A25025  44.627  15.138   7.964
 1775POPC   C4A25026  44.637  15.149   7.664
 1775POPC   C1B25027  44.848  15.066   8.564
 1775POPC   C2B25028  44.845  15.061   8.264
 1775POPC   C3B25029  44.835  14.978   7.964
 1775POPC   C4B25030  44.827  14.999   7.664
 1776POPC   NC325031  41.577  38.462   9.464
 1776POPC   PO425032  41.529  38.482   9.164
 1776POPC   GL125033  41.562  38.494   8.864
 1776POPC   GL225034  41.604  38.362   8.864
 1776POPC   C1A25035  41.562  38.443   8.564
 1776POPC   D2A25036  41.516  38.446   8.264
 1776POPC   C3A25037  41.541  38.495   7.964
 1776POPC   C4A25038  41.536  38.458   7.664
 1776POPC   C1B25039  41.764  38.268   8.564
 1776POPC   C2B25040  41.733  38.246   8.264
 1776POPC   C3B25041  41.752  38.282   7.964
 1776POPC   C4B25042  41.759  38.266   7.664
 1777POPC   NC325043  15.147  17.497   9.464
 1777POPC   PO425044  15.186  17.507   9.164
 1777POPC   GL125045  15.202  17.528   8.864
 1777POPC   GL225046  15.275  17.437   8.864
 1777POPC   C1A25047  15.218  17.540   8.564
 1777POPC   D2A25048  15.203  17.460   8.264
 1777POPC   C3A25049  15.204  17.467   7.964
 1777POPC   C4A25050  15.197  17.523   7.664
 1777POPC   C1B25051  15.371  17.324   8.564
 1777POPC   C2B25052  15.404  17.354   8.264
 1777POPC   C3B25053  15.326  17.324   7.964
 1777POPC   C4B25054  15.361  17.309   7.664
 1778POPC   NC325055  43.086  26.825   9.464
 1778POPC   PO425056  43.139  26.863   9.164
 1778POPC   GL125057  43.127  26.786   8.864
 1778POPC   GL225058  43.120  26.659   8.864
 1778POPC   C1A25059  43.153  26.796   8.564
 1778POPC   D2A25060  43.159  26.794   8.264
 1778POPC   C3A25061  43.061  26.807   7.964
 1778POPC   C4A25062  43.068  26.802   7.664
 1778POPC   C1B25063  43.182  26.611   8.564
 1778POPC   C2B25064  43.171  26.599   8.264
 1778POPC   C3B25065  43.125  26.596   7.964
 1778POPC   C4B25066  43.164  26.554   7.664
 1779POPC   NC325067  31.479  14.399   9.464
 1779POPC   PO425068  31.487  14.449   9.164
 1779POPC   GL125069  31.446  14.383   8.864
 1779POPC   GL225070  31.592  14.464   8.864
 1779POPC   C1A25071  31.504  14.446   8.564
 1779POPC   D2A25072  31.443  14.362   8.264
 1779POPC   C3A25073  31.485  14.438   7.964
 1779POPC   C4A25074  31.512  14.452   7.664
 1779POPC   C1B25075  31.675  14.452   8.564
 1779POPC   C2B25076  31.693  14.482   8.264
 1779POPC   C3B25077  31.665  14.463   7.964
 1779POPC   C4B25078  31.751  14.482   7.664
 1780POPC   NC325079  14.387  29.148   9.464
 1780POPC   PO425080  14.398  29.124   9.164
 1780POPC   GL125081  14.402  29.164   8.864
 1780POPC   GL225082  14.325  29.278   8.864
 1780POPC   C1A25083  14.442  29.104   8.564
 1780POPC   D2A25084  14.369  29.161   8.264
 1780POPC   C3A25085  14.412  29.136   7.964
 1780POPC   C4A25086  14.404  29.146   7.664
 1780POPC   C1B25087  14.204  29.323   8.564
 1780POPC   C2B25088  14.226  29.283   8.264
 1780POPC   C3B25089  14.224  29.352   7.964
 1780POPC   C4B25090  14.217  29.270   7.664
 1781POPC   NC325091  32.267  41.575   9.464
 1781POPC   PO425092  32.267  41.591   9.164
 1781POPC   GL125093  32.250  41.568   8.864
 1781POPC   GL225094  32.400  41.635   8.864
 1781POPC   C1A25095  32.201  41.594   8.564
 1781POPC   D2A25096  32.284  41.532   8.264
 1781POPC   C3A25097  32.271  41.512   7.964
 1781POPC   C4A25098  32.281  41.563   7.664
 1781POPC   C1B25099  32.498  41.641   8.564
 1781POPC   C2B25100  32.424  41.705   8.264
 1781POPC   C3B25101  32.485  41.704   7.964
 1781POPC   C4B25102  32.511  41.722   7.664
 1782POPC   NC325103   2.757  31.455   9.464
 1782POPC   PO425104   2.739  31.452   9.164
 1782POPC   GL125105   2.747  31.506   8.864
 1782POPC   GL225106   2.611  31.460   8.864
 1782POPC   C1A25107   2.743  31.514   8.564
 1782POPC   D2A25108   2.795  31.495   8.264
 1782POPC   C3A25109   2.724  31.436   7.964
 1782POPC   C4A25110   2.721  31.439   7.664
 1782POPC   C1B25111   2.509  31.431   8.564
 1782POPC   C2B25112   2.549  31.351   8.264
 1782POPC   C3B25113   2.487  31.398   7.964
 1782POPC   C4B25114   2.556  31.354   7.664
 1783POPC   NC325115  39.206  21.367   9.464
 1783POPC   PO425116  39.192  21.358   9.164
 1783POPC   GL125117  39.249  21.366   8.864
 1783POPC   GL225118  39.173  21.289   8.864
 1783POPC   C1A25119  39.192  21.427   8.564
 1783POPC   D2A25120  39.227  21.407   8.264
 1783POPC   C3A25121  39.200  21.416   7.964
 1783POPC   C4A25122  39.265  21.419   7.664
 1783POPC   C1B25123  39.097  21.240   8.564
 1783POPC   C2B25124  39.032  21.255   8.264
 1783POPC   C3B25125  39.062  21.224   7.964
 1783POPC   C4B25126  39.047  21.233   7.664
 1784POPC   NC325127  36.137   8.949   9.464
 1784POPC   PO425128  36.109   8.995   9.164
 1784POPC   GL125129  36.139   9.020   8.864
 1784POPC   GL225130  36.038   8.856   8.864
 1784POPC   C1A25131  36.151   9.005   8.564
 1784POPC   D2A25132  36.101   8.930   8.264
 1784POPC   C3A25133  36.133   9.002   7.964
 1784POPC   C4A25134  36.139   8.976   7.664
 1784POPC   C1B25135  35.961   8.792   8.564
 1784POPC   C2B25136  35.972   8.839   8.264
 1784POPC   C3B25137  35.952   8.794   7.964
 1784POPC   C4B25138  36.002   8.775   7.664
 1785POPC   NC325139   1.948  15.192   9.464
 1785POPC   PO425140   1.992  15.216   9.164
 1785POPC   GL125141   1.970  15.133   8.864
 1785POPC   GL225142   2.030  15.302   8.864
 1785POPC   C1A25143   1.961  15.202   8.564
 1785POPC   D2A25144   1.998  15.164   8.264
 1785POPC   C3A25145   1.958  15.156   7.964
 1785POPC   C4A25146   1.975  15.179   7.664
 1785POPC   C1B25147   1.941  15.470   8.564
 1785POPC   C2B25148   1.986  15.394   8.264
 1785POPC   C3B25149   2.009  15.383   7.964
 1785POPC   C4B25150   1.952  15.447   7.664
 1786POPC   NC325151  29.109  15.225   9.464
 1786POPC   PO425152  29.103  15.177   9.164
 1786POPC   GL125153  29.180  15.216   8.864
 1786POPC   GL225154  29.101  15.267   8.864
 1786POPC   C1A25155  29.095  15.157   8.564
 1786POPC   D2A25156  29.124  15.216   8.264
 1786POPC   C3A25157  29.104  15.189   7.964
 1786POPC   C4A25158  29.103  15.166   7.664
 1786POPC   C1B25159  29.096  15.421   8.564
 1786POPC   C2B25160  29.165  15.415   8.264
 1786POPC   C3B25161  29.171  15.385   7.964
 1786POPC   C4B25162  29.103  15.464   7.664
 1787POPC   NC325163  26.783  11.332   9.464
 1787POPC   PO425164  26.862  11.260   9.164
 1787POPC   GL125165  26.814  11.309   8.864
 1787POPC   GL225166  26.859  11.144   8.864
 1787POPC   C1A25167  26.855  11.321   8.564
 1787POPC   D2A25168  26.773  11.285   8.264
 1787POPC   C3A25169  26.853  11.293   7.964
 1787POPC   C4A25170  26.768  11.310   7.664
 1787POPC   C1B25171  26.837  11.082   8.564
 1787POPC   C2B25172  26.808  11.064   8.264
 1787POPC   C3B25173  26.841  11.007   7.964
 1787POPC   C4B25174  26.819  11.068   7.664
 1788POPC   NC325175  43.897  17.488   9.464
 1788POPC   PO425176  43.894  17.524   9.164
 1788POPC   GL125177  43.853  17.488   8.864
 1788POPC   GL225178  43.840  17.549   8.864
 1788POPC   C1A25179  43.923  17.522   8.564
 1788POPC   D2A25180  43.908  17.486   8.264
 1788POPC   C3A25181  43.890  17.505   7.964
 1788POPC   C4A25182  43.877  17.532   7.664
 1788POPC   C1B25183  43.754  17.730   8.564
 1788POPC   C2B25184  43.727  17.692   8.264
 1788POPC   C3B25185  43.727  17.692   7.964
 1788POPC   C4B25186  43.747  17.724   7.664
 1789POPC   NC325187  40.049  10.484   9.464
 1789POPC   PO425188  40.034  10.562   9.164
 1789POPC   GL125189  39.985  10.498   8.864
 1789POPC   GL225190  39.931  10.487   8.864
 1789POPC   C1A25191  40.049  10.544   8.564
 1789POPC   D2A25192  40.019  10.544   8.264
 1789POPC   C3A25193  40.044  10.493   7.964
 1789POPC   C4A25194  40.029  10.520   7.664
 1789POPC   C1B25195  39.784  10.570   8.564
 1789POPC   C2B25196  39.781  10.570   8.264
 1789POPC   C3B25197  39.804  10.580   7.964
 1789POPC   C4B25198  39.750  10.525   7.664
 1790POPC   NC325199  15.921  25.295   9.464
 1790POPC   PO425200  15.985  25.282   9.164
 1790POPC   GL125201  15.954  25.312   8.864
 1790POPC   GL225202  15.949  25.357   8.864
 1790POPC   C1A25203  15.979  25.248   8.564
 1790POPC   D2A25204  15.923  25.232   8.264
 1790POPC   C3A25205  15.921  25.303   7.964
 1790POPC   C4A25206  15.982  25.254   7.664
 1790POPC   C1B25207  15.958  25.560   8.564
 1790POPC   C2B25208  15.872  25.539   8.264
 1790POPC   C3B25209  15.889  25.471   7.964
 1790POPC   C4B25210  15.878  25.515   7.664
 1791POPC   NC325211  35.401  22.928   9.464
 1791POPC   PO425212  35.326  22.895   9.164
 1791POPC   GL125213  35.321  22.970   8.864
 1791POPC   GL225214  35.428  23.024   8.864
 1791POPC   C1A25215  35.337  22.954   8.564
 1791POPC   D2A25216  35.365  22.889   8.264
 1791POPC   C3A25217  35.338  22.929   7.964
 1791POPC   C4A25218  35.314  22.952   7.664
 1791POPC   C1B25219  35.544  23.162   8.564
 1791POPC   C2B25220  35.523  23.097   8.264
 1791POPC   C3B25221  35.486  23.153   7.964
 1791POPC   C4B25222  35.555  23.137   7.664
 1792POPC   NC325223  31.478   2.015   9.464
 1792POPC   PO425224  31.517   1.981   9.164
 1792POPC   GL125225  31.506   2.014   8.864
 1792POPC   GL225226  31.426   1.816   8.864
 1792POPC   C1A25227  31.486   2.020   8.564
 1792POPC   D2A25228  31.450   1.981   8.264
 1792POPC   C3A25229  31.513   2.026   7.964
 1792POPC   C4A25230  31.493   1.967   7.664
 1792POPC   C1B25231  31.451   1.755   8.564
 1792POPC   C2B25232  31.426   1.763   8.264
 1792POPC   C3B25233  31.449   1.747   7.964
 1792POPC   C4B25234  31.519   1.711   7.664
 1793POPC   NC325235   5.073  17.505   9.464
 1793POPC   PO425236   5.060  17.537   9.164
 1793POPC   GL125237   5.128  17.519   8.864
 1793POPC   GL225238   5.109  17.596   8.864
 1793POPC   C1A25239   5.106  17.523   8.564
 1793POPC   D2A25240   5.091  17.477   8.264
 1793POPC   C3A25241   5.111  17.527   7.964
 1793POPC   C4A25242   5.130  17.498   7.664
 1793POPC   C1B25243   5.161  17.750   8.564
 1793POPC   C2B25244   5.172  17.749   8.264
 1793POPC   C3B25245   5.212  17.698   7.964
 1793POPC   C4B25246   5.149  17.735   7.664
 1794POPC   NC325247   5.060  25.296   9.464
 1794POPC   PO425248   5.087  25.266   9.164
 1794POPC   GL125249   5.097  25.237   8.864
 1794POPC   GL225250   5.193  25.216   8.864
 1794POPC   C1A25251   5.084  25.297   8.564
 1794POPC   D2A25252   5.121  25.238   8.264
 1794POPC   C3A25253   5.072  25.221   7.964
 1794POPC   C4A25254   5.141  25.312   7.664
 1794POPC   C1B25255   5.318  25.145   8.564
 1794POPC   C2B25256   5.289  25.125   8.264
 1794POPC   C3B25257   5.252  25.100   7.964
 1794POPC   C4B25258   5.246  25.107   7.664
 1795POPC   NC325259  40.016  19.010   9.464
 1795POPC   PO425260  40.033  19.082   9.164
 1795POPC   GL125261  39.961  19.046   8.864
 1795POPC   GL225262  40.155  19.030   8.864
 1795POPC   C1A25263  40.015  19.071   8.564
 1795POPC   D2A25264  39.964  19.094   8.264
 1795POPC   C3A25265  39.980  19.097   7.964
 1795POPC   C4A25266  39.958  19.058   7.664
 1795POPC   C1B25267  40.296  19.018   8.564
 1795POPC   C2B25268  40.273  19.046   8.264
 1795POPC   C3B25269  40.275  19.082   7.964
 1795POPC   C4B25270  40.294  19.016   7.664
 1796POPC   NC325271  28.411  20.561   9.464
 1796POPC   PO425272  28.409  20.620   9.164
 1796POPC   GL125273  28.328  20.613   8.864
 1796POPC   GL225274  28.470  20.536   8.864
 1796POPC   C1A25275  28.405  20.575   8.564
 1796POPC   D2A25276  28.404  20.657   8.264
 1796POPC   C3A25277  28.373  20.583   7.964
 1796POPC   C4A25278  28.356  20.564   7.664
 1796POPC   C1B25279  28.574  20.521   8.564
 1796POPC   C2B25280  28.622  20.527   8.264
 1796POPC   C3B25281  28.589  20.522   7.964
 1796POPC   C4B25282  28.626  20.513   7.664
 1797POPC   NC325283   8.212  34.609   9.464
 1797POPC   PO425284   8.215  34.586   9.164
 1797POPC   GL125285   8.244  34.566   8.864
 1797POPC   GL225286   8.215  34.699   8.864
 1797POPC   C1A25287   8.243  34.617   8.564
 1797POPC   D2A25288   8.178  34.540   8.264
 1797POPC   C3A25289   8.161  34.611   7.964
 1797POPC   C4A25290   8.206  34.544   7.664
 1797POPC   C1B25291   8.353  34.806   8.564
 1797POPC   C2B25292   8.334  34.781   8.264
 1797POPC   C3B25293   8.370  34.816   7.964
 1797POPC   C4B25294   8.367  34.821   7.664
 1798POPC   NC325295  28.414  19.841   9.464
 1798POPC   PO425296  28.320  19.851   9.164
 1798POPC   GL125297  28.407  19.816   8.864
 1798POPC   GL225298  28.442  19.772   8.864
 1798POPC   C1A25299  28.320  19.797   8.564
 1798POPC   D2A25300  28.390  19.791   8.264
 1798POPC   C3A25301  28.377  19.872   7.964
 1798POPC   C4A25302  28.369  19.865   7.664
 1798POPC   C1B25303  28.582  19.761   8.564
 1798POPC   C2B25304  28.628  19.814   8.264
 1798POPC   C3B25305  28.656  19.784   7.964
 1798POPC   C4B25306  28.622  19.773   7.664
 1799POPC   NC325307  15.222  13.630   9.464
 1799POPC   PO425308  15.144  13.619   9.164
 1799POPC   GL125309  15.189  13.634   8.864
 1799POPC   GL225310  15.204  13.736   8.864
 1799POPC   C1A25311  15.217  13.622   8.564
 1799POPC   D2A25312  15.223  13.651   8.264
 1799POPC   C3A25313  15.218  13.607   7.964
 1799POPC   C4A25314  15.195  13.621   7.664
 1799POPC   C1B25315  15.284  13.817   8.564
 1799POPC   C2B25316  15.310  13.857   8.264
 1799POPC   C3B25317  15.253  13.859   7.964
 1799POPC   C4B25318  15.277  13.856   7.664
 1800POPC   NC325319  19.828  33.761   9.464
 1800POPC   PO425320  19.856  33.842   9.164
 1800POPC   GL125321  19.832  33.806   8.864
 1800POPC   GL225322  19.989  33.724   8.864
 1800POPC   C1A25323  19.846  33.782   8.564
 1800POPC   D2A25324  19.833  33.766   8.264
 1800POPC   C3A25325  19.803  33.781   7.964
 1800POPC   C4A25326  19.867  33.764   7.664
 1800POPC   C1B25327  20.078  33.698   8.564
 1800POPC   C2B25328  20.048  33.772   8.264
 1800POPC   C3B25329  20.061  33.756   7.964
 1800POPC   C4B25330  20.088  33.711   7.664
 1801POPC   NC325331   2.769   3.511   9.464
 1801POPC   PO425332   2.794   3.558   9.164
 1801POPC   GL125333   2.800   3.580   8.864
 1801POPC   GL225334   2.901   3.509   8.864
 1801POPC   C1A25335   2.719   3.585   8.564
 1801POPC   D2A25336   2.744   3.577   8.264
 1801POPC   C3A25337   2.753   3.544   7.964
 1801POPC   C4A25338   2.802   3.508   7.664
 1801POPC   C1B25339   2.976   3.483   8.564
 1801POPC   C2B25340   3.054   3.489   8.264
 1801POPC   C3B25341   3.011   3.448   7.964
 1801POPC   C4B25342   3.042   3.493   7.664
 1802POPC   NC325343  34.622   1.953   9.464
 1802POPC   PO425344  34.625   1.954   9.164
 1802POPC   GL125345  34.533   1.964   8.864
 1802POPC   GL225346  34.506   1.897   8.864
 1802POPC   C1A25347  34.605   1.961   8.564
 1802POPC   D2A25348  34.582   1.953   8.264
 1802POPC   C3A25349  34.588   1.955   7.964
 1802POPC   C4A25350  34.548   2.017   7.664
 1802POPC   C1B25351  34.486   1.712   8.564
 1802POPC   C2B25352  34.512   1.773   8.264
 1802POPC   C3B25353  34.476   1.790   7.964
 1802POPC   C4B25354  34.541   1.729   7.664
 1803POPC   NC325355  32.293  40.736   9.464
 1803POPC   PO425356  32.261  40.756   9.164
 1803POPC   GL125357  32.291  40.739   8.864
 1803POPC   GL225358  32.383  40.816   8.864
 1803POPC   C1A25359  32.289  40.734   8.564
 1803POPC   D2A25360  32.232  40.822   8.264
 1803POPC   C3A25361  32.267  40.828   7.964
 1803POPC   C4A25362  32.298  40.804   7.664
 1803POPC   C1B25363  32.500  40.886   8.564
 1803POPC   C2B25364  32.511  40.899   8.264
 1803POPC   C3B25365  32.505  40.896   7.964
 1803POPC   C4B25366  32.448  40.860   7.664
 1804POPC   NC325367   4.276   2.016   9.464
 1804POPC   PO425368   4.341   1.983   9.164
 1804POPC   GL125369   4.335   2.033   8.864
 1804POPC   GL225370   4.288   1.890   8.864
 1804POPC   C1A25371   4.349   2.005   8.564
 1804POPC   D2A25372   4.302   1.989   8.264
 1804POPC   C3A25373   4.364   1.971   7.964
 1804POPC   C4A25374   4.337   1.953   7.664
 1804POPC   C1B25375   4.170   1.754   8.564
 1804POPC   C2B25376   4.203   1.764   8.264
 1804POPC   C3B25377   4.244   1.747   7.964
 1804POPC   C4B25378   4.197   1.803   7.664
 1805POPC   NC325379  31.433  10.510   9.464
 1805POPC   PO425380  31.477  10.535   9.164
 1805POPC   GL125381  31.477  10.499   8.864
 1805POPC   GL225382  31.436  10.643   8.864
 1805POPC   C1A25383  31.429  10.567   8.564
 1805POPC   D2A25384  31.506  10.548   8.264
 1805POPC   C3A25385  31.443  10.484   7.964
 1805POPC   C4A25386  31.466  10.536   7.664
 1805POPC   C1B25387  31.440  10.811   8.564
 1805POPC   C2B25388  31.384  10.737   8.264
 1805POPC   C3B25389  31.436  10.740   7.964
 1805POPC   C4B25390  31.454  10.765   7.664
 1806POPC   NC325391  19.823  26.801   9.464
 1806POPC   PO425392  19.829  26.768   9.164
 1806POPC   GL125393  19.868  26.860   8.864
 1806POPC   GL225394  19.791  26.864   8.864
 1806POPC   C1A25395  19.843  26.861   8.564
 1806POPC   D2A25396  19.858  26.795   8.264
 1806POPC   C3A25397  19.874  26.779   7.964
 1806POPC   C4A25398  19.809  26.774   7.664
 1806POPC   C1B25399  19.708  27.032   8.564
 1806POPC   C2B25400  19.711  27.030   8.264
 1806POPC   C3B25401  19.626  26.967   7.964
 1806POPC   C4B25402  19.698  27.002   7.664
 1807POPC   NC325403  23.724   0.411   9.464
 1807POPC   PO425404  23.684   0.452   9.164
 1807POPC   GL125405  23.707   0.425   8.864
 1807POPC   GL225406  23.632   0.499   8.864
 1807POPC   C1A25407  23.720   0.430   8.564
 1807POPC   D2A25408  23.734   0.390   8.264
 1807POPC   C3A25409  23.708   0.450   7.964
 1807POPC   C4A25410  23.744   0.404   7.664
 1807POPC   C1B25411  23.447   0.477   8.564
 1807POPC   C2B25412  23.502   0.530   8.264
 1807POPC   C3B25413  23.478   0.489   7.964
 1807POPC   C4B25414  23.483   0.548   7.664
 1808POPC   NC325415  31.447   6.604   9.464
 1808POPC   PO425416  31.462   6.646   9.164
 1808POPC   GL125417  31.474   6.659   8.864
 1808POPC   GL225418  31.472   6.742   8.864
 1808POPC   C1A25419  31.452   6.629   8.564
 1808POPC   D2A25420  31.508   6.648   8.264
 1808POPC   C3A25421  31.425   6.633   7.964
 1808POPC   C4A25422  31.513   6.684   7.664
 1808POPC   C1B25423  31.526   6.827   8.564
 1808POPC   C2B25424  31.518   6.919   8.264
 1808POPC   C3B25425  31.531   6.891   7.964
 1808POPC   C4B25426  31.530   6.863   7.664
 1809POPC   NC325427   9.716  44.695   9.464
 1809POPC   PO425428   9.733  44.705   9.164
 1809POPC   GL125429   9.793  44.702   8.864
 1809POPC   GL225430   9.616  44.609   8.864
 1809POPC   C1A25431   9.752  44.634   8.564
 1809POPC   D2A25432   9.782  44.642   8.264
 1809POPC   C3A25433   9.707  44.661   7.964
 1809POPC   C4A25434   9.789  44.684   7.664
 1809POPC   C1B25435   9.452  44.667   8.564
 1809POPC   C2B25436   9.507  44.661   8.264
 1809POPC   C3B25437   9.542  44.641   7.964
 1809POPC   C4B25438   9.483  44.667   7.664
 1810POPC   NC325439  33.059  39.269   9.464
 1810POPC   PO425440  33.064  39.247   9.164
 1810POPC   GL125441  33.001  39.227   8.864
 1810POPC   GL225442  32.993  39.145   8.864
 1810POPC   C1A25443  33.068  39.213   8.564
 1810POPC   D2A25444  32.976  39.234   8.264
 1810POPC   C3A25445  33.025  39.197   7.964
 1810POPC   C4A25446  32.986  39.237   7.664
 1810POPC   C1B25447  33.061  38.986   8.564
 1810POPC   C2B25448  33.067  38.939   8.264
 1810POPC   C3B25449  32.998  38.995   7.964
 1810POPC   C4B25450  33.030  38.994   7.664
 1811POPC   NC325451  43.152  27.641   9.464
 1811POPC   PO425452  43.137  27.621   9.164
 1811POPC   GL125453  43.099  27.554   8.864
 1811POPC   GL225454  43.012  27.433   8.864
 1811POPC   C1A25455  43.095  27.627   8.564
 1811POPC   D2A25456  43.098  27.624   8.264
 1811POPC   C3A25457  43.126  27.608   7.964
 1811POPC   C4A25458  43.091  27.622   7.664
 1811POPC   C1B25459  42.956  27.363   8.564
 1811POPC   C2B25460  43.015  27.333   8.264
 1811POPC   C3B25461  43.029  27.416   7.964
 1811POPC   C4B25462  42.951  27.403   7.664
 1812POPC   NC325463   3.528  21.432   9.464
 1812POPC   PO425464   3.505  21.342   9.164
 1812POPC   GL125465   3.582  21.394   8.864
 1812POPC   GL225466   3.567  21.235   8.864
 1812POPC   C1A25467   3.509  21.408   8.564
 1812POPC   D2A25468   3.519  21.343   8.264
 1812POPC   C3A25469   3.553  21.381   7.964
 1812POPC   C4A25470   3.563  21.368   7.664
 1812POPC   C1B25471   3.522  21.170   8.564
 1812POPC   C2B25472   3.518  21.138   8.264
 1812POPC   C3B25473   3.514  21.106   7.964
 1812POPC   C4B25474   3.531  21.096   7.664
 1813POPC   NC325475  38.441  40.806   9.464
 1813POPC   PO425476  38.467  40.737   9.164
 1813POPC   GL125477  38.451  40.773   8.864
 1813POPC   GL225478  38.488  40.672   8.864
 1813POPC   C1A25479  38.452  40.736   8.564
 1813POPC   D2A25480  38.430  40.772   8.264
 1813POPC   C3A25481  38.465  40.768   7.964
 1813POPC   C4A25482  38.448  40.822   7.664
 1813POPC   C1B25483  38.513  40.584   8.564
 1813POPC   C2B25484  38.524  40.559   8.264
 1813POPC   C3B25485  38.539  40.519   7.964
 1813POPC   C4B25486  38.514  40.562   7.664
 1814POPC   NC325487  26.057  23.759   9.464
 1814POPC   PO425488  26.047  23.676   9.164
 1814POPC   GL125489  26.090  23.745   8.864
 1814POPC   GL225490  26.046  23.793   8.864
 1814POPC   C1A25491  25.996  23.668   8.564
 1814POPC   D2A25492  26.076  23.680   8.264
 1814POPC   C3A25493  26.074  23.666   7.964
 1814POPC   C4A25494  25.992  23.740   7.664
 1814POPC   C1B25495  25.998  23.978   8.564
 1814POPC   C2B25496  25.949  23.933   8.264
 1814POPC   C3B25497  25.938  23.931   7.964
 1814POPC   C4B25498  25.962  23.946   7.664
 1815POPC   NC325499   8.942  15.944   9.464
 1815POPC   PO425500   8.962  15.914   9.164
 1815POPC   GL125501   9.002  15.910   8.864
 1815POPC   GL225502   8.921  16.011   8.864
 1815POPC   C1A25503   8.991  15.963   8.564
 1815POPC   D2A25504   9.010  15.935   8.264
 1815POPC   C3A25505   8.976  15.977   7.964
 1815POPC   C4A25506   8.982  15.913   7.664
 1815POPC   C1B25507   8.750  16.102   8.564
 1815POPC   C2B25508   8.785  16.098   8.264
 1815POPC   C3B25509   8.806  16.170   7.964
 1815POPC   C4B25510   8.811  16.158   7.664
 1816POPC   NC325511  36.096  39.205   9.464
 1816POPC   PO425512  36.170  39.275   9.164
 1816POPC   GL125513  36.112  39.243   8.864
 1816POPC   GL225514  36.259  39.253   8.864
 1816POPC   C1A25515  36.087  39.256   8.564
 1816POPC   D2A25516  36.079  39.206   8.264
 1816POPC   C3A25517  36.112  39.260   7.964
 1816POPC   C4A25518  36.097  39.200   7.664
 1816POPC   C1B25519  36.390  39.283   8.564
 1816POPC   C2B25520  36.384  39.298   8.264
 1816POPC   C3B25521  36.372  39.317   7.964
 1816POPC   C4B25522  36.386  39.309   7.664
 1817POPC   NC325523  24.484  35.305   9.464
 1817POPC   PO425524  24.518  35.336   9.164
 1817POPC   GL125525  24.514  35.365   8.864
 1817POPC   GL225526  24.366  35.301   8.864
 1817POPC   C1A25527  24.534  35.348   8.564
 1817POPC   D2A25528  24.490  35.367   8.264
 1817POPC   C3A25529  24.461  35.305   7.964
 1817POPC   C4A25530  24.491  35.379   7.664
 1817POPC   C1B25531  24.318  35.223   8.564
 1817POPC   C2B25532  24.319  35.220   8.264
 1817POPC   C3B25533  24.275  35.253   7.964
 1817POPC   C4B25534  24.251  35.268   7.664
 1818POPC   NC325535  22.158  22.929   9.464
 1818POPC   PO425536  22.181  22.898   9.164
 1818POPC   GL125537  22.165  22.943   8.864
 1818POPC   GL225538  22.021  22.913   8.864
 1818POPC   C1A25539  22.179  22.973   8.564
 1818POPC   D2A25540  22.188  22.928   8.264
 1818POPC   C3A25541  22.168  22.938   7.964
 1818POPC   C4A25542  22.138  22.914   7.664
 1818POPC   C1B25543  21.893  22.799   8.564
 1818POPC   C2B25544  21.969  22.820   8.264
 1818POPC   C3B25545  21.934  22.843   7.964
 1818POPC   C4B25546  21.967  22.878   7.664
 1819POPC   NC325547  34.528  16.702   9.464
 1819POPC   PO425548  34.564  16.709   9.164
 1819POPC   GL125549  34.611  16.686   8.864
 1819POPC   GL225550  34.726  16.726   8.864
 1819POPC   C1A25551  34.575  16.747   8.564
 1819POPC   D2A25552  34.572  16.766   8.264
 1819POPC   C3A25553  34.604  16.692   7.964
 1819POPC   C4A25554  34.599  16.708   7.664
 1819POPC   C1B25555  34.836  16.730   8.564
 1819POPC   C2B25556  34.790  16.798   8.264
 1819POPC   C3B25557  34.775  16.755   7.964
 1819POPC   C4B25558  34.813  16.761   7.664
 1820POPC   NC325559  40.735  16.692   9.464
 1820POPC   PO425560  40.740  16.759   9.164
 1820POPC   GL125561  40.737  16.766   8.864
 1820POPC   GL225562  40.829  16.639   8.864
 1820POPC   C1A25563  40.778  16.700   8.564
 1820POPC   D2A25564  40.783  16.767   8.264
 1820POPC   C3A25565  40.774  16.739   7.964
 1820POPC   C4A25566  40.829  16.707   7.664
 1820POPC   C1B25567  40.859  16.537   8.564
 1820POPC   C2B25568  40.862  16.445   8.264
 1820POPC   C3B25569  40.864  16.506   7.964
 1820POPC   C4B25570  40.822  16.455   7.664
 1821POPC   NC325571  42.337  34.624   9.464
 1821POPC   PO425572  42.305  34.587   9.164
 1821POPC   GL125573  42.378  34.607   8.864
 1821POPC   GL225574  42.282  34.481   8.864
 1821POPC   C1A25575  42.331  34.585   8.564
 1821POPC   D2A25576  42.313  34.563   8.264
 1821POPC   C3A25577  42.370  34.526   7.964
 1821POPC   C4A25578  42.340  34.533   7.664
 1821POPC   C1B25579  42.138  34.374   8.564
 1821POPC   C2B25580  42.147  34.437   8.264
 1821POPC   C3B25581  42.153  34.420   7.964
 1821POPC   C4B25582  42.102  34.393   7.664
 1822POPC   NC325583  30.726  38.450   9.464
 1822POPC   PO425584  30.689  38.480   9.164
 1822POPC   GL125585  30.732  38.417   8.864
 1822POPC   GL225586  30.682  38.306   8.864
 1822POPC   C1A25587  30.692  38.465   8.564
 1822POPC   D2A25588  30.743  38.425   8.264
 1822POPC   C3A25589  30.665  38.482   7.964
 1822POPC   C4A25590  30.745  38.487   7.664
 1822POPC   C1B25591  30.684  38.191   8.564
 1822POPC   C2B25592  30.620  38.164   8.264
 1822POPC   C3B25593  30.619  38.243   7.964
 1822POPC   C4B25594  30.667  38.186   7.664
 1823POPC   NC325595   0.452  38.473   9.464
 1823POPC   PO425596   0.395  38.410   9.164
 1823POPC   GL125597   0.458  38.473   8.864
 1823POPC   GL225598   0.579  38.527   8.864
 1823POPC   C1A25599   0.459  38.436   8.564
 1823POPC   D2A25600   0.392  38.455   8.264
 1823POPC   C3A25601   0.480  38.499   7.964
 1823POPC   C4A25602   0.463  38.476   7.664
 1823POPC   C1B25603   0.692  38.503   8.564
 1823POPC   C2B25604   0.698  38.501   8.264
 1823POPC   C3B25605   0.640  38.557   7.964
 1823POPC   C4B25606   0.685  38.585   7.664
 1824POPC   NC325607  30.734   9.741   9.464
 1824POPC   PO425608  30.667   9.729   9.164
 1824POPC   GL125609  30.691   9.767   8.864
 1824POPC   GL225610  30.857   9.739   8.864
 1824POPC   C1A25611  30.653   9.723   8.564
 1824POPC   D2A25612  30.688   9.735   8.264
 1824POPC   C3A25613  30.711   9.756   7.964
 1824POPC   C4A25614  30.724   9.736   7.664
 1824POPC   C1B25615  30.930   9.680   8.564
 1824POPC   C2B25616  30.953   9.702   8.264
 1824POPC   C3B25617  30.929   9.685   7.964
 1824POPC   C4B25618  30.927   9.670   7.664
 1825POPC   NC325619  26.030  39.262   9.464
 1825POPC   PO425620  26.068  39.192   9.164
 1825POPC   GL125621  25.998  39.238   8.864
 1825POPC   GL225622  25.916  39.287   8.864
 1825POPC   C1A25623  26.078  39.271   8.564
 1825POPC   D2A25624  26.069  39.187   8.264
 1825POPC   C3A25625  26.084  39.250   7.964
 1825POPC   C4A25626  26.083  39.198   7.664
 1825POPC   C1B25627  25.783  39.303   8.564
 1825POPC   C2B25628  25.780  39.272   8.264
 1825POPC   C3B25629  25.755  39.351   7.964
 1825POPC   C4B25630  25.816  39.253   7.664
 1826POPC   NC325631  22.927  25.270   9.464
 1826POPC   PO425632  22.892  25.279   9.164
 1826POPC   GL125633  22.919  25.258   8.864
 1826POPC   GL225634  22.886  25.124   8.864
 1826POPC   C1A25635  22.974  25.294   8.564
 1826POPC   D2A25636  22.987  25.267   8.264
 1826POPC   C3A25637  22.965  25.261   7.964
 1826POPC   C4A25638  22.925  25.263   7.664
 1826POPC   C1B25639  22.855  25.008   8.564
 1826POPC   C2B25640  22.888  25.072   8.264
 1826POPC   C3B25641  22.791  25.049   7.964
 1826POPC   C4B25642  22.872  25.070   7.664
 1827POPC   NC325643  35.333  32.997   9.464
 1827POPC   PO425644  35.370  33.000   9.164
 1827POPC   GL125645  35.399  33.011   8.864
 1827POPC   GL225646  35.397  33.106   8.864
 1827POPC   C1A25647  35.344  33.062   8.564
 1827POPC   D2A25648  35.324  33.074   8.264
 1827POPC   C3A25649  35.360  33.054   7.964
 1827POPC   C4A25650  35.362  33.042   7.664
 1827POPC   C1B25651  35.312  33.309   8.564
 1827POPC   C2B25652  35.330  33.279   8.264
 1827POPC   C3B25653  35.393  33.271   7.964
 1827POPC   C4B25654  35.365  33.251   7.664
 1828POPC   NC325655  38.505  36.895   9.464
 1828POPC   PO425656  38.422  36.928   9.164
 1828POPC   GL125657  38.424  36.950   8.864
 1828POPC   GL225658  38.535  36.901   8.864
 1828POPC   C1A25659  38.412  36.930   8.564
 1828POPC   D2A25660  38.420  36.876   8.264
 1828POPC   C3A25661  38.479  36.942   7.964
 1828POPC   C4A25662  38.427  36.890   7.664
 1828POPC   C1B25663  38.703  36.915   8.564
 1828POPC   C2B25664  38.685  36.959   8.264
 1828POPC   C3B25665  38.661  36.917   7.964
 1828POPC   C4B25666  38.708  36.948   7.664
 1829POPC   NC325667  25.292  36.860   9.464
 1829POPC   PO425668  25.289  36.892   9.164
 1829POPC   GL125669  25.218  36.857   8.864
 1829POPC   GL225670  25.236  37.043   8.864
 1829POPC   C1A25671  25.218  36.899   8.564
 1829POPC   D2A25672  25.300  36.926   8.264
 1829POPC   C3A25673  25.283  36.903   7.964
 1829POPC   C4A25674  25.228  36.889   7.664
 1829POPC   C1B25675  25.123  37.135   8.564
 1829POPC   C2B25676  25.144  37.140   8.264
 1829POPC   C3B25677  25.098  37.069   7.964
 1829POPC   C4B25678  25.139  37.155   7.664
 1830POPC   NC325679  30.648   5.905   9.464
 1830POPC   PO425680  30.653   5.820   9.164
 1830POPC   GL125681  30.653   5.845   8.864
 1830POPC   GL225682  30.524   5.896   8.864
 1830POPC   C1A25683  30.696   5.902   8.564
 1830POPC   D2A25684  30.654   5.911   8.264
 1830POPC   C3A25685  30.676   5.910   7.964
 1830POPC   C4A25686  30.669   5.824   7.664
 1830POPC   C1B25687  30.437   5.952   8.564
 1830POPC   C2B25688  30.417   5.958   8.264
 1830POPC   C3B25689  30.400   5.899   7.964
 1830POPC   C4B25690  30.417   5.917   7.664
 1831POPC   NC325691  20.660  31.487   9.464
 1831POPC   PO425692  20.575  31.470   9.164
 1831POPC   GL125693  20.636  31.518   8.864
 1831POPC   GL225694  20.739  31.589   8.864
 1831POPC   C1A25695  20.635  31.488   8.564
 1831POPC   D2A25696  20.646  31.447   8.264
 1831POPC   C3A25697  20.628  31.521   7.964
 1831POPC   C4A25698  20.584  31.503   7.664
 1831POPC   C1B25699  20.793  31.600   8.564
 1831POPC   C2B25700  20.818  31.648   8.264
 1831POPC   C3B25701  20.799  31.629   7.964
 1831POPC   C4B25702  20.794  31.616   7.664
 1832POPC   NC325703  15.921   6.680   9.464
 1832POPC   PO425704  15.966   6.606   9.164
 1832POPC   GL125705  15.923   6.641   8.864
 1832POPC   GL225706  16.089   6.743   8.864
 1832POPC   C1A25707  15.921   6.640   8.564
 1832POPC   D2A25708  15.944   6.618   8.264
 1832POPC   C3A25709  15.962   6.623   7.964
 1832POPC   C4A25710  15.965   6.610   7.664
 1832POPC   C1B25711  16.128   6.814   8.564
 1832POPC   C2B25712  16.201   6.756   8.264
 1832POPC   C3B25713  16.187   6.761   7.964
 1832POPC   C4B25714  16.148   6.833   7.664
 1833POPC   NC325715  21.407  11.298   9.464
 1833POPC   PO425716  21.422  11.339   9.164
 1833POPC   GL125717  21.380  11.280   8.864
 1833POPC   GL225718  21.497  11.257   8.864
 1833POPC   C1A25719  21.436  11.284   8.564
 1833POPC   D2A25720  21.362  11.283   8.264
 1833POPC   C3A25721  21.343  11.296   7.964
 1833POPC   C4A25722  21.409  11.262   7.664
 1833POPC   C1B25723  21.652  11.247   8.564
 1833POPC   C2B25724  21.635  11.178   8.264
 1833POPC   C3B25725  21.627  11.186   7.964
 1833POPC   C4B25726  21.658  11.183   7.664
 1834POPC   NC325727  36.085  29.149   9.464
 1834POPC   PO425728  36.087  29.160   9.164
 1834POPC   GL125729  36.129  29.095   8.864
 1834POPC   GL225730  36.071  29.231   8.864
 1834POPC   C1A25731  36.118  29.106   8.564
 1834POPC   D2A25732  36.080  29.189   8.264
 1834POPC   C3A25733  36.129  29.155   7.964
 1834POPC   C4A25734  36.118  29.193   7.664
 1834POPC   C1B25735  36.033  29.367   8.564
 1834POPC   C2B25736  35.990  29.401   8.264
 1834POPC   C3B25737  36.000  29.354   7.964
 1834POPC   C4B25738  35.981  29.384   7.664
 1835POPC   NC325739   2.774   9.704   9.464
 1835POPC   PO425740   2.719   9.755   9.164
 1835POPC   GL125741   2.761   9.725   8.864
 1835POPC   GL225742   2.652   9.785   8.864
 1835POPC   C1A25743   2.729   9.779   8.564
 1835POPC   D2A25744   2.747   9.747   8.264
 1835POPC   C3A25745   2.789   9.725   7.964
 1835POPC   C4A25746   2.749   9.781   7.664
 1835POPC   C1B25747   2.530   9.841   8.564
 1835POPC   C2B25748   2.518   9.800   8.264
 1835POPC   C3B25749   2.502   9.869   7.964
 1835POPC   C4B25750   2.501   9.780   7.664
 1836POPC   NC325751  14.394  26.771   9.464
 1836POPC   PO425752  14.358  26.815   9.164
 1836POPC   GL125753  14.401  26.840   8.864
 1836POPC   GL225754  14.312  26.846   8.864
 1836POPC   C1A25755  14.404  26.867   8.564
 1836POPC   D2A25756  14.400  26.834   8.264
 1836POPC   C3A25757  14.411  26.812   7.964
 1836POPC   C4A25758  14.410  26.795   7.664
 1836POPC   C1B25759  14.240  26.996   8.564
 1836POPC   C2B25760  14.223  27.010   8.264
 1836POPC   C3B25761  14.236  26.928   7.964
 1836POPC   C4B25762  14.177  26.947   7.664
 1837POPC   NC325763  43.850  39.245   9.464
 1837POPC   PO425764  43.909  39.247   9.164
 1837POPC   GL125765  43.878  39.262   8.864
 1837POPC   GL225766  43.775  39.164   8.864
 1837POPC   C1A25767  43.843  39.247   8.564
 1837POPC   D2A25768  43.929  39.193   8.264
 1837POPC   C3A25769  43.861  39.234   7.964
 1837POPC   C4A25770  43.878  39.184   7.664
 1837POPC   C1B25771  43.669  39.046   8.564
 1837POPC   C2B25772  43.649  39.094   8.264
 1837POPC   C3B25773  43.659  39.117   7.964
 1837POPC   C4B25774  43.681  39.040   7.664
 1838POPC   NC325775  13.618  27.550   9.464
 1838POPC   PO425776  13.645  27.572   9.164
 1838POPC   GL125777  13.626  27.582   8.864
 1838POPC   GL225778  13.617  27.430   8.864
 1838POPC   C1A25779  13.596  27.615   8.564
 1838POPC   D2A25780  13.608  27.585   8.264
 1838POPC   C3A25781  13.628  27.596   7.964
 1838POPC   C4A25782  13.660  27.614   7.664
 1838POPC   C1B25783  13.546  27.389   8.564
 1838POPC   C2B25784  13.625  27.326   8.264
 1838POPC   C3B25785  13.601  27.358   7.964
 1838POPC   C4B25786  13.562  27.350   7.664
 1839POPC   NC325787  43.085  43.081   9.464
 1839POPC   PO425788  43.071  43.093   9.164
 1839POPC   GL125789  43.104  43.140   8.864
 1839POPC   GL225790  43.221  43.173   8.864
 1839POPC   C1A25791  43.065  43.086   8.564
 1839POPC   D2A25792  43.132  43.083   8.264
 1839POPC   C3A25793  43.136  43.153   7.964
 1839POPC   C4A25794  43.130  43.158   7.664
 1839POPC   C1B25795  43.314  43.166   8.564
 1839POPC   C2B25796  43.377  43.224   8.264
 1839POPC   C3B25797  43.353  43.213   7.964
 1839POPC   C4B25798  43.300  43.222   7.664
 1840POPC   NC325799  34.601  34.607   9.464
 1840POPC   PO425800  34.586  34.611   9.164
 1840POPC   GL125801  34.616  34.614   8.864
 1840POPC   GL225802  34.647  34.429   8.864
 1840POPC   C1A25803  34.544  34.580   8.564
 1840POPC   D2A25804  34.576  34.613   8.264
 1840POPC   C3A25805  34.526  34.539   7.964
 1840POPC   C4A25806  34.616  34.617   7.664
 1840POPC   C1B25807  34.680  34.333   8.564
 1840POPC   C2B25808  34.692  34.380   8.264
 1840POPC   C3B25809  34.693  34.366   7.964
 1840POPC   C4B25810  34.670  34.380   7.664
 1841POPC   NC325811   9.748   6.662   9.464
 1841POPC   PO425812   9.773   6.678   9.164
 1841POPC   GL125813   9.707   6.600   8.864
 1841POPC   GL225814   9.862   6.684   8.864
 1841POPC   C1A25815   9.742   6.598   8.564
 1841POPC   D2A25816   9.752   6.677   8.264
 1841POPC   C3A25817   9.745   6.685   7.964
 1841POPC   C4A25818   9.699   6.630   7.664
 1841POPC   C1B25819   9.960   6.678   8.564
 1841POPC   C2B25820   9.996   6.669   8.264
 1841POPC   C3B25821  10.030   6.591   7.964
 1841POPC   C4B25822   9.948   6.676   7.664
 1842POPC   NC325823  28.418   8.211   9.464
 1842POPC   PO425824  28.359   8.192   9.164
 1842POPC   GL125825  28.344   8.199   8.864
 1842POPC   GL225826  28.381   8.042   8.864
 1842POPC   C1A25827  28.389   8.210   8.564
 1842POPC   D2A25828  28.368   8.168   8.264
 1842POPC   C3A25829  28.410   8.187   7.964
 1842POPC   C4A25830  28.364   8.157   7.664
 1842POPC   C1B25831  28.504   7.920   8.564
 1842POPC   C2B25832  28.495   7.950   8.264
 1842POPC   C3B25833  28.419   7.933   7.964
 1842POPC   C4B25834  28.467   8.013   7.664
 1843POPC   NC325835  36.147  19.043   9.464
 1843POPC   PO425836  36.098  19.019   9.164
 1843POPC   GL125837  36.125  19.102   8.864
 1843POPC   GL225838  36.216  19.218   8.864
 1843POPC   C1A25839  36.151  19.077   8.564
 1843POPC   D2A25840  36.137  19.068   8.264
 1843POPC   C3A25841  36.159  19.092   7.964
 1843POPC   C4A25842  36.136  19.083   7.664
 1843POPC   C1B25843  36.183  19.319   8.564
 1843POPC   C2B25844  36.199  19.337   8.264
 1843POPC   C3B25845  36.248  19.298   7.964
 1843POPC   C4B25846  36.261  19.332   7.664
 1844POPC   NC325847   1.206  19.803   9.464
 1844POPC   PO425848   1.227  19.829   9.164
 1844POPC   GL125849   1.216  19.883   8.864
 1844POPC   GL225850   1.211  19.717   8.864
 1844POPC   C1A25851   1.244  19.869   8.564
 1844POPC   D2A25852   1.168  19.790   8.264
 1844POPC   C3A25853   1.262  19.862   7.964
 1844POPC   C4A25854   1.227  19.847   7.664
 1844POPC   C1B25855   1.210  19.565   8.564
 1844POPC   C2B25856   1.217  19.617   8.264
 1844POPC   C3B25857   1.239  19.570   7.964
 1844POPC   C4B25858   1.225  19.544   7.664
 1845POPC   NC325859  42.305  30.733   9.464
 1845POPC   PO425860  42.330  30.723   9.164
 1845POPC   GL125861  42.375  30.740   8.864
 1845POPC   GL225862  42.407  30.759   8.864
 1845POPC   C1A25863  42.287  30.737   8.564
 1845POPC   D2A25864  42.374  30.723   8.264
 1845POPC   C3A25865  42.337  30.687   7.964
 1845POPC   C4A25866  42.306  30.698   7.664
 1845POPC   C1B25867  42.587  30.873   8.564
 1845POPC   C2B25868  42.596  30.855   8.264
 1845POPC   C3B25869  42.500  30.780   7.964
 1845POPC   C4B25870  42.569  30.845   7.664
 1846POPC   NC325871  11.279  43.082   9.464
 1846POPC   PO425872  11.280  43.147   9.164
 1846POPC   GL125873  11.320  43.154   8.864
 1846POPC   GL225874  11.415  43.184   8.864
 1846POPC   C1A25875  11.349  43.115   8.564
 1846POPC   D2A25876  11.333  43.155   8.264
 1846POPC   C3A25877  11.338  43.093   7.964
 1846POPC   C4A25878  11.264  43.133   7.664
 1846POPC   C1B25879  11.401  43.353   8.564
 1846POPC   C2B25880  11.414  43.282   8.264
 1846POPC   C3B25881  11.397  43.318   7.964
 1846POPC   C4B25882  11.435  43.358   7.664
 1847POPC   NC325883  42.310   8.184   9.464
 1847POPC   PO425884  42.326   8.206   9.164
 1847POPC   GL125885  42.383   8.225   8.864
 1847POPC   GL225886  42.434   8.313   8.864
 1847POPC   C1A25887  42.375   8.169   8.564
 1847POPC   D2A25888  42.371   8.187   8.264
 1847POPC   C3A25889  42.299   8.181   7.964
 1847POPC   C4A25890  42.341   8.173   7.664
 1847POPC   C1B25891  42.459   8.415   8.564
 1847POPC   C2B25892  42.531   8.419   8.264
 1847POPC   C3B25893  42.488   8.371   7.964
 1847POPC   C4B25894  42.545   8.360   7.664
 1848POPC   NC325895  16.759  37.647   9.464
 1848POPC   PO425896  16.710  37.655   9.164
 1848POPC   GL125897  16.698  37.631   8.864
 1848POPC   GL225898  16.765  37.768   8.864
 1848POPC   C1A25899  16.722  37.703   8.564
 1848POPC   D2A25900  16.717  37.714   8.264
 1848POPC   C3A25901  16.738  37.668   7.964
 1848POPC   C4A25902  16.775  37.700   7.664
 1848POPC   C1B25903  16.771  37.913   8.564
 1848POPC   C2B25904  16.741  37.880   8.264
 1848POPC   C3B25905  16.806  37.934   7.964
 1848POPC   C4B25906  16.831  37.960   7.664
 1849POPC   NC325907  23.729  26.827   9.464
 1849POPC   PO425908  23.709  26.846   9.164
 1849POPC   GL125909  23.745  26.788   8.864
 1849POPC   GL225910  23.847  26.786   8.864
 1849POPC   C1A25911  23.737  26.802   8.564
 1849POPC   D2A25912  23.699  26.792   8.264
 1849POPC   C3A25913  23.743  26.784   7.964
 1849POPC   C4A25914  23.726  26.818   7.664
 1849POPC   C1B25915  23.939  26.735   8.564
 1849POPC   C2B25916  23.936  26.787   8.264
 1849POPC   C3B25917  23.963  26.786   7.964
 1849POPC   C4B25918  23.961  26.748   7.664
 1850POPC   NC325919   9.722  27.547   9.464
 1850POPC   PO425920   9.745  27.640   9.164
 1850POPC   GL125921   9.738  27.618   8.864
 1850POPC   GL225922   9.659  27.608   8.864
 1850POPC   C1A25923   9.731  27.585   8.564
 1850POPC   D2A25924   9.776  27.573   8.264
 1850POPC   C3A25925   9.723  27.641   7.964
 1850POPC   C4A25926   9.776  27.579   7.664
 1850POPC   C1B25927   9.463  27.626   8.564
 1850POPC   C2B25928   9.547  27.592   8.264
 1850POPC   C3B25929   9.481  27.620   7.964
 1850POPC   C4B25930   9.499  27.611   7.664
 1851POPC   NC325931  22.114   2.810   9.464
 1851POPC   PO425932  22.172   2.761   9.164
 1851POPC   GL125933  22.141   2.777   8.864
 1851POPC   GL225934  22.149   2.844   8.864
 1851POPC   C1A25935  22.190   2.782   8.564
 1851POPC   D2A25936  22.150   2.754   8.264
 1851POPC   C3A25937  22.125   2.814   7.964
 1851POPC   C4A25938  22.170   2.743   7.664
 1851POPC   C1B25939  22.143   2.963   8.564
 1851POPC   C2B25940  22.105   3.038   8.264
 1851POPC   C3B25941  22.061   3.046   7.964
 1851POPC   C4B25942  22.111   2.996   7.664
 1852POPC   NC325943  33.044  32.255   9.464
 1852POPC   PO425944  33.004  32.283   9.164
 1852POPC   GL125945  33.023  32.269   8.864
 1852POPC   GL225946  33.013  32.383   8.864
 1852POPC   C1A25947  33.016  32.238   8.564
 1852POPC   D2A25948  33.012  32.211   8.264
 1852POPC   C3A25949  33.001  32.259   7.964
 1852POPC   C4A25950  32.978  32.226   7.664
 1852POPC   C1B25951  33.126  32.469   8.564
 1852POPC   C2B25952  33.138  32.504   8.264
 1852POPC   C3B25953  33.045  32.511   7.964
 1852POPC   C4B25954  33.102  32.531   7.664
 1853POPC   NC325955  33.755  25.267   9.464
 1853POPC   PO425956  33.752  25.287   9.164
 1853POPC   GL125957  33.830  25.306   8.864
 1853POPC   GL225958  33.697  25.329   8.864
 1853POPC   C1A25959  33.762  25.299   8.564
 1853POPC   D2A25960  33.843  25.236   8.264
 1853POPC   C3A25961  33.804  25.281   7.964
 1853POPC   C4A25962  33.807  25.226   7.664
 1853POPC   C1B25963  33.540  25.385   8.564
 1853POPC   C2B25964  33.543  25.412   8.264
 1853POPC   C3B25965  33.565  25.335   7.964
 1853POPC   C4B25966  33.587  25.378   7.664
 1854POPC   NC325967  41.528   7.423   9.464
 1854POPC   PO425968  41.512   7.423   9.164
 1854POPC   GL125969  41.510   7.468   8.864
 1854POPC   GL225970  41.474   7.288   8.864
 1854POPC   C1A25971  41.594   7.395   8.564
 1854POPC   D2A25972  41.536   7.457   8.264
 1854POPC   C3A25973  41.548   7.396   7.964
 1854POPC   C4A25974  41.557   7.414   7.664
 1854POPC   C1B25975  41.481   7.176   8.564
 1854POPC   C2B25976  41.452   7.221   8.264
 1854POPC   C3B25977  41.497   7.214   7.964
 1854POPC   C4B25978  41.511   7.194   7.664
 1855POPC   NC325979  33.065  18.320   9.464
 1855POPC   PO425980  33.013  18.262   9.164
 1855POPC   GL125981  33.028  18.266   8.864
 1855POPC   GL225982  33.057  18.218   8.864
 1855POPC   C1A25983  32.991  18.267   8.564
 1855POPC   D2A25984  33.032  18.312   8.264
 1855POPC   C3A25985  32.995  18.249   7.964
 1855POPC   C4A25986  33.064  18.233   7.664
 1855POPC   C1B25987  33.166  18.039   8.564
 1855POPC   C2B25988  33.155  18.040   8.264
 1855POPC   C3B25989  33.163  18.056   7.964
 1855POPC   C4B25990  33.151  18.093   7.664
 1856POPC   NC325991   8.220  27.643   9.464
 1856POPC   PO425992   8.190  27.637   9.164
 1856POPC   GL125993   8.149  27.579   8.864
 1856POPC   GL225994   8.120  27.710   8.864
 1856POPC   C1A25995   8.197  27.612   8.564
 1856POPC   D2A25996   8.160  27.608   8.264
 1856POPC   C3A25997   8.236  27.592   7.964
 1856POPC   C4A25998   8.190  27.552   7.664
 1856POPC   C1B25999   8.012  27.807   8.564
 1856POPC   C2B26000   7.983  27.805   8.264
 1856POPC   C3B26001   7.976  27.794   7.964
 1856POPC   C4B26002   7.961  27.756   7.664
 1857POPC   NC326003  33.007  29.142   9.464
 1857POPC   PO426004  32.984  29.183   9.164
 1857POPC   GL126005  32.995  29.176   8.864
 1857POPC   GL226006  32.955  29.064   8.864
 1857POPC   C1A26007  33.027  29.116   8.564
 1857POPC   D2A26008  33.034  29.130   8.264
 1857POPC   C3A26009  33.059  29.126   7.964
 1857POPC   C4A26010  33.002  29.120   7.664
 1857POPC   C1B26011  32.814  28.985   8.564
 1857POPC   C2B26012  32.891  28.976   8.264
 1857POPC   C3B26013  32.845  28.971   7.964
 1857POPC   C4B26014  32.798  28.939   7.664
 1858POPC   NC326015  15.169   2.790   9.464
 1858POPC   PO426016  15.206   2.799   9.164
 1858POPC   GL126017  15.156   2.725   8.864
 1858POPC   GL226018  15.178   2.681   8.864
 1858POPC   C1A26019  15.203   2.805   8.564
 1858POPC   D2A26020  15.188   2.770   8.264
 1858POPC   C3A26021  15.223   2.724   7.964
 1858POPC   C4A26022  15.226   2.734   7.664
 1858POPC   C1B26023  15.280   2.565   8.564
 1858POPC   C2B26024  15.310   2.567   8.264
 1858POPC   C3B26025  15.308   2.521   7.964
 1858POPC   C4B26026  15.249   2.511   7.664
 1859POPC   NC326027  19.058  30.709   9.464
 1859POPC   PO426028  19.090  30.650   9.164
 1859POPC   GL126029  19.031  30.709   8.864
 1859POPC   GL226030  19.169  30.799   8.864
 1859POPC   C1A26031  19.100  30.700   8.564
 1859POPC   D2A26032  19.072  30.681   8.264
 1859POPC   C3A26033  19.093  30.653   7.964
 1859POPC   C4A26034  19.070  30.709   7.664
 1859POPC   C1B26035  19.268  30.830   8.564
 1859POPC   C2B26036  19.258  30.779   8.264
 1859POPC   C3B26037  19.239  30.826   7.964
 1859POPC   C4B26038  19.249  30.799   7.664
 1860POPC   NC326039   7.378  35.329   9.464
 1860POPC   PO426040   7.421  35.317   9.164
 1860POPC   GL126041   7.444  35.340   8.864
 1860POPC   GL226042   7.414  35.451   8.864
 1860POPC   C1A26043   7.470  35.360   8.564
 1860POPC   D2A26044   7.469  35.324   8.264
 1860POPC   C3A26045   7.443  35.312   7.964
 1860POPC   C4A26046   7.463  35.357   7.664
 1860POPC   C1B26047   7.458  35.577   8.564
 1860POPC   C2B26048   7.474  35.645   8.264
 1860POPC   C3B26049   7.457  35.638   7.964
 1860POPC   C4B26050   7.438  35.644   7.664
 1861POPC   NC326051  19.044   0.456   9.464
 1861POPC   PO426052  19.069   0.471   9.164
 1861POPC   GL126053  19.071   0.480   8.864
 1861POPC   GL226054  18.964   0.552   8.864
 1861POPC   C1A26055  19.042   0.408   8.564
 1861POPC   D2A26056  19.078   0.468   8.264
 1861POPC   C3A26057  19.101   0.446   7.964
 1861POPC   C4A26058  19.093   0.402   7.664
 1861POPC   C1B26059  18.879   0.650   8.564
 1861POPC   C2B26060  18.956   0.606   8.264
 1861POPC   C3B26061  18.955   0.660   7.964
 1861POPC   C4B26062  18.923   0.624   7.664
 1862POPC   NC326063  25.216  12.840   9.464
 1862POPC   PO426064  25.274  12.875   9.164
 1862POPC   GL126065  25.279  12.844   8.864
 1862POPC   GL226066  25.255  12.702   8.864
 1862POPC   C1A26067  25.314  12.818   8.564
 1862POPC   D2A26068  25.271  12.834   8.264
 1862POPC   C3A26069  25.253  12.860   7.964
 1862POPC   C4A26070  25.260  12.892   7.664
 1862POPC   C1B26071  25.290  12.601   8.564
 1862POPC   C2B26072  25.288  12.633   8.264
 1862POPC   C3B26073  25.288  12.635   7.964
 1862POPC   C4B26074  25.260  12.602   7.664
 1863POPC   NC326075  26.774  14.376   9.464
 1863POPC   PO426076  26.813  14.438   9.164
 1863POPC   GL126077  26.807  14.403   8.864
 1863POPC   GL226078  26.855  14.536   8.864
 1863POPC   C1A26079  26.836  14.416   8.564
 1863POPC   D2A26080  26.777  14.401   8.264
 1863POPC   C3A26081  26.843  14.428   7.964
 1863POPC   C4A26082  26.789  14.442   7.664
 1863POPC   C1B26083  27.012  14.563   8.564
 1863POPC   C2B26084  26.992  14.620   8.264
 1863POPC   C3B26085  26.943  14.622   7.964
 1863POPC   C4B26086  27.015  14.572   7.664
 1864POPC   NC326087  26.088  25.275   9.464
 1864POPC   PO426088  26.021  25.222   9.164
 1864POPC   GL126089  26.038  25.229   8.864
 1864POPC   GL226090  25.979  25.175   8.864
 1864POPC   C1A26091  26.007  25.220   8.564
 1864POPC   D2A26092  26.002  25.241   8.264
 1864POPC   C3A26093  26.035  25.256   7.964
 1864POPC   C4A26094  26.064  25.254   7.664
 1864POPC   C1B26095  25.905  25.065   8.564
 1864POPC   C2B26096  25.912  25.075   8.264
 1864POPC   C3B26097  25.863  25.118   7.964
 1864POPC   C4B26098  25.915  25.074   7.664
 1865POPC   NC326099  33.837  15.941   9.464
 1865POPC   PO426100  33.799  15.936   9.164
 1865POPC   GL126101  33.835  15.915   8.864
 1865POPC   GL226102  33.657  15.882   8.864
 1865POPC   C1A26103  33.773  15.927   8.564
 1865POPC   D2A26104  33.810  15.953   8.264
 1865POPC   C3A26105  33.787  15.927   7.964
 1865POPC   C4A26106  33.825  15.920   7.664
 1865POPC   C1B26107  33.539  15.877   8.564
 1865POPC   C2B26108  33.526  15.886   8.264
 1865POPC   C3B26109  33.564  15.919   7.964
 1865POPC   C4B26110  33.518  15.850   7.664
 1866POPC   NC326111  17.485  22.987   9.464
 1866POPC   PO426112  17.543  22.962   9.164
 1866POPC   GL126113  17.524  22.904   8.864
 1866POPC   GL226114  17.580  22.896   8.864
 1866POPC   C1A26115  17.477  22.929   8.564
 1866POPC   D2A26116  17.557  22.927   8.264
 1866POPC   C3A26117  17.514  22.969   7.964
 1866POPC   C4A26118  17.555  22.974   7.664
 1866POPC   C1B26119  17.772  22.920   8.564
 1866POPC   C2B26120  17.710  22.909   8.264
 1866POPC   C3B26121  17.796  22.860   7.964
 1866POPC   C4B26122  17.710  22.878   7.664
 1867POPC   NC326123  22.981  23.745   9.464
 1867POPC   PO426124  22.925  23.722   9.164
 1867POPC   GL126125  22.918  23.704   8.864
 1867POPC   GL226126  22.805  23.696   8.864
 1867POPC   C1A26127  22.894  23.717   8.564
 1867POPC   D2A26128  22.967  23.712   8.264
 1867POPC   C3A26129  22.961  23.684   7.964
 1867POPC   C4A26130  22.908  23.699   7.664
 1867POPC   C1B26131  22.718  23.738   8.564
 1867POPC   C2B26132  22.643  23.704   8.264
 1867POPC   C3B26133  22.706  23.749   7.964
 1867POPC   C4B26134  22.667  23.707   7.664
 1868POPC   NC326135  36.924  19.881   9.464
 1868POPC   PO426136  36.861  19.856   9.164
 1868POPC   GL126137  36.915  19.861   8.864
 1868POPC   GL226138  36.811  19.993   8.864
 1868POPC   C1A26139  36.877  19.837   8.564
 1868POPC   D2A26140  36.931  19.851   8.264
 1868POPC   C3A26141  36.896  19.883   7.964
 1868POPC   C4A26142  36.941  19.852   7.664
 1868POPC   C1B26143  36.813  20.035   8.564
 1868POPC   C2B26144  36.755  20.089   8.264
 1868POPC   C3B26145  36.756  20.064   7.964
 1868POPC   C4B26146  36.796  20.078   7.664
 1869POPC   NC326147  36.110   7.397   9.464
 1869POPC   PO426148  36.110   7.455   9.164
 1869POPC   GL126149  36.174   7.413   8.864
 1869POPC   GL226150  36.016   7.481   8.864
 1869POPC   C1A26151  36.169   7.393   8.564
 1869POPC   D2A26152  36.107   7.392   8.264
 1869POPC   C3A26153  36.162   7.429   7.964
 1869POPC   C4A26154  36.095   7.431   7.664
 1869POPC   C1B26155  35.924   7.418   8.564
 1869POPC   C2B26156  35.891   7.484   8.264
 1869POPC   C3B26157  35.908   7.443   7.964
 1869POPC   C4B26158  35.836   7.482   7.664
 1870POPC   NC326159   5.105  38.452   9.464
 1870POPC   PO426160   5.103  38.434   9.164
 1870POPC   GL126161   5.111  38.461   8.864
 1870POPC   GL226162   5.025  38.388   8.864
 1870POPC   C1A26163   5.106  38.485   8.564
 1870POPC   D2A26164   5.081  38.440   8.264
 1870POPC   C3A26165   5.098  38.414   7.964
 1870POPC   C4A26166   5.127  38.486   7.664
 1870POPC   C1B26167   5.012  38.277   8.564
 1870POPC   C2B26168   4.931  38.276   8.264
 1870POPC   C3B26169   4.947  38.275   7.964
 1870POPC   C4B26170   4.946  38.192   7.664
 1871POPC   NC326171   8.948   8.211   9.464
 1871POPC   PO426172   8.937   8.190   9.164
 1871POPC   GL126173   8.939   8.147   8.864
 1871POPC   GL226174   8.984   8.299   8.864
 1871POPC   C1A26175   9.002   8.212   8.564
 1871POPC   D2A26176   9.016   8.174   8.264
 1871POPC   C3A26177   9.017   8.241   7.964
 1871POPC   C4A26178   9.018   8.230   7.664
 1871POPC   C1B26179   8.974   8.427   8.564
 1871POPC   C2B26180   8.958   8.411   8.264
 1871POPC   C3B26181   8.970   8.486   7.964
 1871POPC   C4B26182   8.928   8.458   7.664
 1872POPC   NC326183  12.820  32.218   9.464
 1872POPC   PO426184  12.887  32.221   9.164
 1872POPC   GL126185  12.875  32.215   8.864
 1872POPC   GL226186  12.923  32.136   8.864
 1872POPC   C1A26187  12.841  32.202   8.564
 1872POPC   D2A26188  12.901  32.291   8.264
 1872POPC   C3A26189  12.837  32.292   7.964
 1872POPC   C4A26190  12.894  32.273   7.664
 1872POPC   C1B26191  12.956  32.003   8.564
 1872POPC   C2B26192  12.961  32.049   8.264
 1872POPC   C3B26193  13.030  31.990   7.964
 1872POPC   C4B26194  12.946  32.059   7.664
 1873POPC   NC326195  21.427  15.131   9.464
 1873POPC   PO426196  21.357  15.180   9.164
 1873POPC   GL126197  21.400  15.191   8.864
 1873POPC   GL226198  21.505  15.165   8.864
 1873POPC   C1A26199  21.388  15.214   8.564
 1873POPC   D2A26200  21.389  15.174   8.264
 1873POPC   C3A26201  21.387  15.184   7.964
 1873POPC   C4A26202  21.349  15.186   7.664
 1873POPC   C1B26203  21.669  15.202   8.564
 1873POPC   C2B26204  21.631  15.212   8.264
 1873POPC   C3B26205  21.640  15.185   7.964
 1873POPC   C4B26206  21.670  15.213   7.664
 1874POPC   NC326207  27.617  38.487   9.464
 1874POPC   PO426208  27.616  38.494   9.164
 1874POPC   GL126209  27.630  38.426   8.864
 1874POPC   GL226210  27.719  38.364   8.864
 1874POPC   C1A26211  27.623  38.436   8.564
 1874POPC   D2A26212  27.611  38.471   8.264
 1874POPC   C3A26213  27.573  38.457   7.964
 1874POPC   C4A26214  27.597  38.504   7.664
 1874POPC   C1B26215  27.736  38.316   8.564
 1874POPC   C2B26216  27.803  38.274   8.264
 1874POPC   C3B26217  27.771  38.254   7.964
 1874POPC   C4B26218  27.784  38.291   7.664
 1875POPC   NC326219  22.151  25.293   9.464
 1875POPC   PO426220  22.133  25.246   9.164
 1875POPC   GL126221  22.126  25.239   8.864
 1875POPC   GL226222  22.225  25.382   8.864
 1875POPC   C1A26223  22.175  25.233   8.564
 1875POPC   D2A26224  22.134  25.229   8.264
 1875POPC   C3A26225  22.163  25.232   7.964
 1875POPC   C4A26226  22.147  25.286   7.664
 1875POPC   C1B26227  22.177  25.460   8.564
 1875POPC   C2B26228  22.211  25.504   8.264
 1875POPC   C3B26229  22.219  25.521   7.964
 1875POPC   C4B26230  22.231  25.470   7.664
 1876POPC   NC326231  39.979  43.126   9.464
 1876POPC   PO426232  39.973  43.121   9.164
 1876POPC   GL126233  39.991  43.119   8.864
 1876POPC   GL226234  40.095  42.994   8.864
 1876POPC   C1A26235  40.008  43.106   8.564
 1876POPC   D2A26236  40.042  43.144   8.264
 1876POPC   C3A26237  40.019  43.114   7.964
 1876POPC   C4A26238  40.046  43.152   7.664
 1876POPC   C1B26239  40.187  43.012   8.564
 1876POPC   C2B26240  40.239  43.022   8.264
 1876POPC   C3B26241  40.251  43.014   7.964
 1876POPC   C4B26242  40.173  42.953   7.664
 1877POPC   NC326243  34.533  33.788   9.464
 1877POPC   PO426244  34.605  33.793   9.164
 1877POPC   GL126245  34.611  33.833   8.864
 1877POPC   GL226246  34.518  33.961   8.864
 1877POPC   C1A26247  34.583  33.793   8.564
 1877POPC   D2A26248  34.611  33.800   8.264
 1877POPC   C3A26249  34.610  33.753   7.964
 1877POPC   C4A26250  34.570  33.752   7.664
 1877POPC   C1B26251  34.523  34.001   8.564
 1877POPC   C2B26252  34.475  33.994   8.264
 1877POPC   C3B26253  34.449  34.073   7.964
 1877POPC   C4B26254  34.513  34.059   7.664
 1878POPC   NC326255   2.729  33.792   9.464
 1878POPC   PO426256   2.792  33.756   9.164
 1878POPC   GL126257   2.802  33.823   8.864
 1878POPC   GL226258   2.608  33.813   8.864
 1878POPC   C1A26259   2.735  33.779   8.564
 1878POPC   D2A26260   2.795  33.768   8.264
 1878POPC   C3A26261   2.721  33.809   7.964
 1878POPC   C4A26262   2.797  33.788   7.664
 1878POPC   C1B26263   2.478  33.758   8.564
 1878POPC   C2B26264   2.503  33.763   8.264
 1878POPC   C3B26265   2.536  33.833   7.964
 1878POPC   C4B26266   2.527  33.768   7.664
 1879POPC   NC326267  31.490   5.098   9.464
 1879POPC   PO426268  31.514   5.120   9.164
 1879POPC   GL126269  31.495   5.068   8.864
 1879POPC   GL226270  31.592   5.097   8.864
 1879POPC   C1A26271  31.473   5.136   8.564
 1879POPC   D2A26272  31.425   5.140   8.264
 1879POPC   C3A26273  31.461   5.067   7.964
 1879POPC   C4A26274  31.452   5.061   7.664
 1879POPC   C1B26275  31.762   5.032   8.564
 1879POPC   C2B26276  31.665   5.029   8.264
 1879POPC   C3B26277  31.665   5.037   7.964
 1879POPC   C4B26278  31.698   5.071   7.664
 1880POPC   NC326279  34.535  13.595   9.464
 1880POPC   PO426280  34.616  13.658   9.164
 1880POPC   GL126281  34.567  13.637   8.864
 1880POPC   GL226282  34.464  13.750   8.864
 1880POPC   C1A26283  34.541  13.593   8.564
 1880POPC   D2A26284  34.569  13.648   8.264
 1880POPC   C3A26285  34.588  13.607   7.964
 1880POPC   C4A26286  34.551  13.588   7.664
 1880POPC   C1B26287  34.389  13.856   8.564
 1880POPC   C2B26288  34.435  13.807   8.264
 1880POPC   C3B26289  34.371  13.802   7.964
 1880POPC   C4B26290  34.362  13.852   7.664
 1881POPC   NC326291   2.787  38.418   9.464
 1881POPC   PO426292   2.775  38.443   9.164
 1881POPC   GL126293   2.810  38.427   8.864
 1881POPC   GL226294   2.853  38.415   8.864
 1881POPC   C1A26295   2.793  38.451   8.564
 1881POPC   D2A26296   2.716  38.479   8.264
 1881POPC   C3A26297   2.733  38.427   7.964
 1881POPC   C4A26298   2.791  38.497   7.664
 1881POPC   C1B26299   2.924  38.264   8.564
 1881POPC   C2B26300   2.938  38.236   8.264
 1881POPC   C3B26301   2.980  38.259   7.964
 1881POPC   C4B26302   2.973  38.283   7.664
 1882POPC   NC326303  41.603  17.480   9.464
 1882POPC   PO426304  41.589  17.467   9.164
 1882POPC   GL126305  41.588  17.518   8.864
 1882POPC   GL226306  41.675  17.588   8.864
 1882POPC   C1A26307  41.543  17.475   8.564
 1882POPC   D2A26308  41.554  17.519   8.264
 1882POPC   C3A26309  41.556  17.496   7.964
 1882POPC   C4A26310  41.528  17.523   7.664
 1882POPC   C1B26311  41.776  17.593   8.564
 1882POPC   C2B26312  41.787  17.549   8.264
 1882POPC   C3B26313  41.751  17.574   7.964
 1882POPC   C4B26314  41.803  17.609   7.664
 1883POPC   NC326315  36.147  40.024   9.464
 1883POPC   PO426316  36.173  39.961   9.164
 1883POPC   GL126317  36.122  40.026   8.864
 1883POPC   GL226318  35.977  40.004   8.864
 1883POPC   C1A26319  36.174  39.967   8.564
 1883POPC   D2A26320  36.095  40.047   8.264
 1883POPC   C3A26321  36.083  40.024   7.964
 1883POPC   C4A26322  36.175  39.966   7.664
 1883POPC   C1B26323  35.870  40.073   8.564
 1883POPC   C2B26324  35.905  40.008   8.264
 1883POPC   C3B26325  35.920  40.024   7.964
 1883POPC   C4B26326  35.848  40.055   7.664
 1884POPC   NC326327   1.975  43.871   9.464
 1884POPC   PO426328   2.014  43.904   9.164
 1884POPC   GL126329   1.942  43.896   8.864
 1884POPC   GL226330   2.032  43.794   8.864
 1884POPC   C1A26331   2.010  43.907   8.564
 1884POPC   D2A26332   2.022  43.863   8.264
 1884POPC   C3A26333   1.975  43.922   7.964
 1884POPC   C4A26334   1.948  43.850   7.664
 1884POPC   C1B26335   2.169  43.706   8.564
 1884POPC   C2B26336   2.131  43.672   8.264
 1884POPC   C3B26337   2.113  43.727   7.964
 1884POPC   C4B26338   2.093  43.664   7.664
 1885POPC   NC326339  20.616  29.190   9.464
 1885POPC   PO426340  20.653  29.193   9.164
 1885POPC   GL126341  20.622  29.154   8.864
 1885POPC   GL226342  20.530  29.201   8.864
 1885POPC   C1A26343  20.579  29.124   8.564
 1885POPC   D2A26344  20.569  29.098   8.264
 1885POPC   C3A26345  20.571  29.170   7.964
 1885POPC   C4A26346  20.587  29.146   7.664
 1885POPC   C1B26347  20.363  29.241   8.564
 1885POPC   C2B26348  20.389  29.236   8.264
 1885POPC   C3B26349  20.359  29.168   7.964
 1885POPC   C4B26350  20.350  29.256   7.664
 1886POPC   NC326351  39.205  37.654   9.464
 1886POPC   PO426352  39.246  37.667   9.164
 1886POPC   GL126353  39.261  37.719   8.864
 1886POPC   GL226354  39.361  37.620   8.864
 1886POPC   C1A26355  39.234  37.709   8.564
 1886POPC   D2A26356  39.274  37.663   8.264
 1886POPC   C3A26357  39.229  37.683   7.964
 1886POPC   C4A26358  39.228  37.690   7.664
 1886POPC   C1B26359  39.468  37.470   8.564
 1886POPC   C2B26360  39.402  37.524   8.264
 1886POPC   C3B26361  39.407  37.474   7.964
 1886POPC   C4B26362  39.385  37.471   7.664
 1887POPC   NC326363  28.401  38.411   9.464
 1887POPC   PO426364  28.350  38.505   9.164
 1887POPC   GL126365  28.337  38.472   8.864
 1887POPC   GL226366  28.369  38.287   8.864
 1887POPC   C1A26367  28.372  38.454   8.564
 1887POPC   D2A26368  28.382  38.491   8.264
 1887POPC   C3A26369  28.336  38.494   7.964
 1887POPC   C4A26370  28.376  38.421   7.664
 1887POPC   C1B26371  28.301  38.194   8.564
 1887POPC   C2B26372  28.277  38.253   8.264
 1887POPC   C3B26373  28.293  38.187   7.964
 1887POPC   C4B26374  28.310  38.215   7.664
 1888POPC   NC326375  18.238  26.050   9.464
 1888POPC   PO426376  18.255  26.087   9.164
 1888POPC   GL126377  18.239  26.089   8.864
 1888POPC   GL226378  18.238  25.979   8.864
 1888POPC   C1A26379  18.282  26.040   8.564
 1888POPC   D2A26380  18.282  26.071   8.264
 1888POPC   C3A26381  18.259  26.049   7.964
 1888POPC   C4A26382  18.293  26.033   7.664
 1888POPC   C1B26383  18.204  25.808   8.564
 1888POPC   C2B26384  18.192  25.820   8.264
 1888POPC   C3B26385  18.150  25.820   7.964
 1888POPC   C4B26386  18.203  25.835   7.664
 1889POPC   NC326387  15.179  30.658   9.464
 1889POPC   PO426388  15.146  30.664   9.164
 1889POPC   GL126389  15.224  30.704   8.864
 1889POPC   GL226390  15.177  30.813   8.864
 1889POPC   C1A26391  15.211  30.660   8.564
 1889POPC   D2A26392  15.153  30.713   8.264
 1889POPC   C3A26393  15.223  30.658   7.964
 1889POPC   C4A26394  15.148  30.708   7.664
 1889POPC   C1B26395  15.234  30.943   8.564
 1889POPC   C2B26396  15.261  30.979   8.264
 1889POPC   C3B26397  15.172  30.916   7.964
 1889POPC   C4B26398  15.206  30.971   7.664
 1890POPC   NC326399  42.293   8.927   9.464
 1890POPC   PO426400  42.355   8.941   9.164
 1890POPC   GL126401  42.310   8.948   8.864
 1890POPC   GL226402  42.350   8.801   8.864
 1890POPC   C1A26403  42.287   8.989   8.564
 1890POPC   D2A26404  42.292   8.953   8.264
 1890POPC   C3A26405  42.320   8.925   7.964
 1890POPC   C4A26406  42.312   8.937   7.664
 1890POPC   C1B26407  42.389   8.762   8.564
 1890POPC   C2B26408  42.410   8.678   8.264
 1890POPC   C3B26409  42.360   8.724   7.964
 1890POPC   C4B26410  42.368   8.702   7.664
 1891POPC   NC326411  41.524   5.064   9.464
 1891POPC   PO426412  41.591   5.094   9.164
 1891POPC   GL126413  41.607   5.081   8.864
 1891POPC   GL226414  41.631   5.213   8.864
 1891POPC   C1A26415  41.553   5.054   8.564
 1891POPC   D2A26416  41.589   5.075   8.264
 1891POPC   C3A26417  41.599   5.076   7.964
 1891POPC   C4A26418  41.548   5.079   7.664
 1891POPC   C1B26419  41.642   5.348   8.564
 1891POPC   C2B26420  41.619   5.291   8.264
 1891POPC   C3B26421  41.568   5.341   7.964
 1891POPC   C4B26422  41.604   5.348   7.664
 1892POPC   NC326423   5.100  14.368   9.464
 1892POPC   PO426424   5.100  14.409   9.164
 1892POPC   GL126425   5.065  14.450   8.864
 1892POPC   GL226426   5.012  14.492   8.864
 1892POPC   C1A26427   5.119  14.359   8.564
 1892POPC   D2A26428   5.116  14.431   8.264
 1892POPC   C3A26429   5.093  14.408   7.964
 1892POPC   C4A26430   5.075  14.439   7.664
 1892POPC   C1B26431   4.877  14.523   8.564
 1892POPC   C2B26432   4.863  14.538   8.264
 1892POPC   C3B26433   4.876  14.518   7.964
 1892POPC   C4B26434   4.908  14.548   7.664
 1893POPC   NC326435  32.286  35.364   9.464
 1893POPC   PO426436  32.262  35.319   9.164
 1893POPC   GL126437  32.237  35.373   8.864
 1893POPC   GL226438  32.206  35.257   8.864
 1893POPC   C1A26439  32.216  35.351   8.564
 1893POPC   D2A26440  32.280  35.382   8.264
 1893POPC   C3A26441  32.208  35.324   7.964
 1893POPC   C4A26442  32.288  35.389   7.664
 1893POPC   C1B26443  32.122  35.119   8.564
 1893POPC   C2B26444  32.145  35.192   8.264
 1893POPC   C3B26445  32.143  35.113   7.964
 1893POPC   C4B26446  32.071  35.176   7.664
 1894POPC   NC326447  24.535  26.041   9.464
 1894POPC   PO426448  24.511  26.021   9.164
 1894POPC   GL126449  24.517  26.082   8.864
 1894POPC   GL226450  24.388  26.081   8.864
 1894POPC   C1A26451  24.471  26.016   8.564
 1894POPC   D2A26452  24.493  26.046   8.264
 1894POPC   C3A26453  24.482  25.993   7.964
 1894POPC   C4A26454  24.489  26.061   7.664
 1894POPC   C1B26455  24.276  26.192   8.564
 1894POPC   C2B26456  24.298  26.160   8.264
 1894POPC   C3B26457  24.275  26.161   7.964
 1894POPC   C4B26458  24.319  26.221   7.664
 1895POPC   NC326459   2.754  26.861   9.464
 1895POPC   PO426460   2.732  26.863   9.164
 1895POPC   GL126461   2.783  26.801   8.864
 1895POPC   GL226462   2.747  26.664   8.864
 1895POPC   C1A26463   2.794  26.807   8.564
 1895POPC   D2A26464   2.788  26.833   8.264
 1895POPC   C3A26465   2.736  26.821   7.964
 1895POPC   C4A26466   2.780  26.836   7.664
 1895POPC   C1B26467   2.831  26.557   8.564
 1895POPC   C2B26468   2.761  26.562   8.264
 1895POPC   C3B26469   2.789  26.617   7.964
 1895POPC   C4B26470   2.820  26.565   7.664
 1896POPC   NC326471  29.118  42.340   9.464
 1896POPC   PO426472  29.145  42.320   9.164
 1896POPC   GL126473  29.104  42.382   8.864
 1896POPC   GL226474  29.113  42.442   8.864
 1896POPC   C1A26475  29.137  42.334   8.564
 1896POPC   D2A26476  29.173  42.330   8.264
 1896POPC   C3A26477  29.158  42.340   7.964
 1896POPC   C4A26478  29.166  42.331   7.664
 1896POPC   C1B26479  29.060  42.533   8.564
 1896POPC   C2B26480  29.034  42.539   8.264
 1896POPC   C3B26481  29.031  42.544   7.964
 1896POPC   C4B26482  29.031  42.599   7.664
 1897POPC   NC326483  14.422   9.021   9.464
 1897POPC   PO426484  14.405   8.971   9.164
 1897POPC   GL126485  14.430   8.930   8.864
 1897POPC   GL226486  14.495   8.899   8.864
 1897POPC   C1A26487  14.380   8.977   8.564
 1897POPC   D2A26488  14.416   8.944   8.264
 1897POPC   C3A26489  14.368   8.962   7.964
 1897POPC   C4A26490  14.402   8.951   7.664
 1897POPC   C1B26491  14.536   8.709   8.564
 1897POPC   C2B26492  14.528   8.766   8.264
 1897POPC   C3B26493  14.561   8.802   7.964
 1897POPC   C4B26494  14.567   8.753   7.664
 1898POPC   NC326495  14.380  16.740   9.464
 1898POPC   PO426496  14.428  16.688   9.164
 1898POPC   GL126497  14.379  16.689   8.864
 1898POPC   GL226498  14.321  16.808   8.864
 1898POPC   C1A26499  14.442  16.773   8.564
 1898POPC   D2A26500  14.416  16.720   8.264
 1898POPC   C3A26501  14.358  16.727   7.964
 1898POPC   C4A26502  14.374  16.702   7.664
 1898POPC   C1B26503  14.175  16.920   8.564
 1898POPC   C2B26504  14.244  16.867   8.264
 1898POPC   C3B26505  14.188  16.888   7.964
 1898POPC   C4B26506  14.246  16.896   7.664
 1899POPC   NC326507  26.843  19.812   9.464
 1899POPC   PO426508  26.811  19.823   9.164
 1899POPC   GL126509  26.813  19.848   8.864
 1899POPC   GL226510  26.711  19.971   8.864
 1899POPC   C1A26511  26.851  19.874   8.564
 1899POPC   D2A26512  26.851  19.807   8.264
 1899POPC   C3A26513  26.784  19.868   7.964
 1899POPC   C4A26514  26.793  19.794   7.664
 1899POPC   C1B26515  26.637  20.023   8.564
 1899POPC   C2B26516  26.685  20.002   8.264
 1899POPC   C3B26517  26.713  20.064   7.964
 1899POPC   C4B26518  26.705  19.991   7.664
 1900POPC   NC326519  25.241  19.060   9.464
 1900POPC   PO426520  25.281  19.082   9.164
 1900POPC   GL126521  25.233  19.069   8.864
 1900POPC   GL226522  25.306  19.147   8.864
 1900POPC   C1A26523  25.265  19.011   8.564
 1900POPC   D2A26524  25.258  19.033   8.264
 1900POPC   C3A26525  25.290  19.037   7.964
 1900POPC   C4A26526  25.230  19.077   7.664
 1900POPC   C1B26527  25.390  19.248   8.564
 1900POPC   C2B26528  25.346  19.233   8.264
 1900POPC   C3B26529  25.358  19.237   7.964
 1900POPC   C4B26530  25.369  19.327   7.664
 1901POPC   NC326531   5.849   1.997   9.464
 1901POPC   PO426532   5.832   2.027   9.164
 1901POPC   GL126533   5.855   2.027   8.864
 1901POPC   GL226534   6.033   2.036   8.864
 1901POPC   C1A26535   5.869   2.030   8.564
 1901POPC   D2A26536   5.908   1.943   8.264
 1901POPC   C3A26537   5.914   1.962   7.964
 1901POPC   C4A26538   5.912   1.966   7.664
 1901POPC   C1B26539   6.088   2.041   8.564
 1901POPC   C2B26540   6.126   2.011   8.264
 1901POPC   C3B26541   6.142   2.040   7.964
 1901POPC   C4B26542   6.102   2.101   7.664
 1902POPC   NC326543  12.084  25.231   9.464
 1902POPC   PO426544  12.079  25.315   9.164
 1902POPC   GL126545  12.073  25.250   8.864
 1902POPC   GL226546  12.205  25.256   8.864
 1902POPC   C1A26547  12.122  25.266   8.564
 1902POPC   D2A26548  12.038  25.314   8.264
 1902POPC   C3A26549  12.062  25.241   7.964
 1902POPC   C4A26550  12.072  25.285   7.664
 1902POPC   C1B26551  12.362  25.331   8.564
 1902POPC   C2B26552  12.346  25.269   8.264
 1902POPC   C3B26553  12.329  25.330   7.964
 1902POPC   C4B26554  12.325  25.258   7.664
 1903POPC   NC326555  29.887  26.042   9.464
 1903POPC   PO426556  29.904  26.077   9.164
 1903POPC   GL126557  29.933  26.032   8.864
 1903POPC   GL226558  29.834  26.017   8.864
 1903POPC   C1A26559  29.942  26.040   8.564
 1903POPC   D2A26560  29.953  26.071   8.264
 1903POPC   C3A26561  29.925  26.054   7.964
 1903POPC   C4A26562  29.942  26.049   7.664
 1903POPC   C1B26563  29.684  26.016   8.564
 1903POPC   C2B26564  29.670  26.058   8.264
 1903POPC   C3B26565  29.707  26.061   7.964
 1903POPC   C4B26566  29.673  25.974   7.664
 1904POPC   NC326567  20.633  16.706   9.464
 1904POPC   PO426568  20.593  16.729   9.164
 1904POPC   GL126569  20.616  16.726   8.864
 1904POPC   GL226570  20.483  16.729   8.864
 1904POPC   C1A26571  20.635  16.710   8.564
 1904POPC   D2A26572  20.608  16.722   8.264
 1904POPC   C3A26573  20.642  16.705   7.964
 1904POPC   C4A26574  20.565  16.769   7.664
 1904POPC   C1B26575  20.395  16.764   8.564
 1904POPC   C2B26576  20.375  16.747   8.264
 1904POPC   C3B26577  20.360  16.707   7.964
 1904POPC   C4B26578  20.329  16.752   7.664
 1905POPC   NC326579  13.605  12.845   9.464
 1905POPC   PO426580  13.673  12.812   9.164
 1905POPC   GL126581  13.636  12.844   8.864
 1905POPC   GL226582  13.502  12.746   8.864
 1905POPC   C1A26583  13.602  12.869   8.564
 1905POPC   D2A26584  13.589  12.845   8.264
 1905POPC   C3A26585  13.659  12.842   7.964
 1905POPC   C4A26586  13.609  12.809   7.664
 1905POPC   C1B26587  13.458  12.670   8.564
 1905POPC   C2B26588  13.469  12.703   8.264
 1905POPC   C3B26589  13.443  12.713   7.964
 1905POPC   C4B26590  13.426  12.706   7.664
 1906POPC   NC326591  16.749  15.212   9.464
 1906POPC   PO426592  16.685  15.159   9.164
 1906POPC   GL126593  16.689  15.165   8.864
 1906POPC   GL226594  16.865  15.098   8.864
 1906POPC   C1A26595  16.736  15.139   8.564
 1906POPC   D2A26596  16.697  15.222   8.264
 1906POPC   C3A26597  16.775  15.150   7.964
 1906POPC   C4A26598  16.755  15.224   7.664
 1906POPC   C1B26599  16.923  14.993   8.564
 1906POPC   C2B26600  16.905  15.023   8.264
 1906POPC   C3B26601  16.894  14.990   7.964
 1906POPC   C4B26602  16.898  15.018   7.664
 1907POPC   NC326603   0.427  39.255   9.464
 1907POPC   PO426604   0.411  39.272   9.164
 1907POPC   GL126605   0.420  39.203   8.864
 1907POPC   GL226606   0.425  39.354   8.864
 1907POPC   C1A26607   0.392  39.254   8.564
 1907POPC   D2A26608   0.444  39.278   8.264
 1907POPC   C3A26609   0.480  39.219   7.964
 1907POPC   C4A26610   0.448  39.213   7.664
 1907POPC   C1B26611   0.364  39.494   8.564
 1907POPC   C2B26612   0.341  39.430   8.264
 1907POPC   C3B26613   0.363  39.439   7.964
 1907POPC   C4B26614   0.313  39.424   7.664
 1908POPC   NC326615   0.471   5.081   9.464
 1908POPC   PO426616   0.459   5.063   9.164
 1908POPC   GL126617   0.430   5.086   8.864
 1908POPC   GL226618   0.342   5.059   8.864
 1908POPC   C1A26619   0.457   5.136   8.564
 1908POPC   D2A26620   0.477   5.074   8.264
 1908POPC   C3A26621   0.398   5.084   7.964
 1908POPC   C4A26622   0.418   5.052   7.664
 1908POPC   C1B26623   0.146   5.061   8.564
 1908POPC   C2B26624   0.144   5.077   8.264
 1908POPC   C3B26625   0.210   5.043   7.964
 1908POPC   C4B26626   0.152   5.086   7.664
 1909POPC   NC326627  30.664  11.294   9.464
 1909POPC   PO426628  30.662  11.319   9.164
 1909POPC   GL126629  30.699  11.329   8.864
 1909POPC   GL226630  30.601  11.242   8.864
 1909POPC   C1A26631  30.683  11.252   8.564
 1909POPC   D2A26632  30.683  11.349   8.264
 1909POPC   C3A26633  30.659  11.282   7.964
 1909POPC   C4A26634  30.736  11.330   7.664
 1909POPC   C1B26635  30.476  11.207   8.564
 1909POPC   C2B26636  30.450  11.220   8.264
 1909POPC   C3B26637  30.511  11.152   7.964
 1909POPC   C4B26638  30.509  11.166   7.664
 1910POPC   NC326639  25.264  26.772   9.464
 1910POPC   PO426640  25.224  26.861   9.164
 1910POPC   GL126641  25.266  26.798   8.864
 1910POPC   GL226642  25.360  26.803   8.864
 1910POPC   C1A26643  25.306  26.809   8.564
 1910POPC   D2A26644  25.311  26.785   8.264
 1910POPC   C3A26645  25.229  26.808   7.964
 1910POPC   C4A26646  25.245  26.867   7.664
 1910POPC   C1B26647  25.495  26.864   8.564
 1910POPC   C2B26648  25.469  26.861   8.264
 1910POPC   C3B26649  25.527  26.871   7.964
 1910POPC   C4B26650  25.523  26.839   7.664
 1911POPC   NC326651  12.045  32.266   9.464
 1911POPC   PO426652  12.089  32.232   9.164
 1911POPC   GL126653  12.034  32.226   8.864
 1911POPC   GL226654  12.162  32.385   8.864
 1911POPC   C1A26655  12.075  32.217   8.564
 1911POPC   D2A26656  12.031  32.231   8.264
 1911POPC   C3A26657  12.060  32.259   7.964
 1911POPC   C4A26658  12.112  32.234   7.664
 1911POPC   C1B26659  12.249  32.436   8.564
 1911POPC   C2B26660  12.203  32.487   8.264
 1911POPC   C3B26661  12.178  32.438   7.964
 1911POPC   C4B26662  12.223  32.473   7.664
 1912POPC   NC326663   2.810  39.243   9.464
 1912POPC   PO426664   2.814  39.189   9.164
 1912POPC   GL126665   2.777  39.260   8.864
 1912POPC   GL226666   2.852  39.081   8.864
 1912POPC   C1A26667   2.792  39.225   8.564
 1912POPC   D2A26668   2.790  39.200   8.264
 1912POPC   C3A26669   2.737  39.202   7.964
 1912POPC   C4A26670   2.784  39.209   7.664
 1912POPC   C1B26671   2.900  39.006   8.564
 1912POPC   C2B26672   2.857  38.970   8.264
 1912POPC   C3B26673   2.856  39.031   7.964
 1912POPC   C4B26674   2.899  39.021   7.664
 1913POPC   NC326675  42.343   4.316   9.464
 1913POPC   PO426676  42.360   4.346   9.164
 1913POPC   GL126677  42.303   4.357   8.864
 1913POPC   GL226678  42.418   4.362   8.864
 1913POPC   C1A26679  42.354   4.292   8.564
 1913POPC   D2A26680  42.311   4.297   8.264
 1913POPC   C3A26681  42.344   4.327   7.964
 1913POPC   C4A26682  42.287   4.305   7.664
 1913POPC   C1B26683  42.487   4.511   8.564
 1913POPC   C2B26684  42.491   4.458   8.264
 1913POPC   C3B26685  42.538   4.543   7.964
 1913POPC   C4B26686  42.511   4.468   7.664
 1914POPC   NC326687  22.917  44.633   9.464
 1914POPC   PO426688  22.907  44.659   9.164
 1914POPC   GL126689  22.939  44.660   8.864
 1914POPC   GL226690  23.006  44.581   8.864
 1914POPC   C1A26691  22.910  44.653   8.564
 1914POPC   D2A26692  22.973  44.634   8.264
 1914POPC   C3A26693  22.912  44.678   7.964
 1914POPC   C4A26694  22.943  44.672   7.664
 1914POPC   C1B26695  23.168  44.541   8.564
 1914POPC   C2B26696  23.210  44.527   8.264
 1914POPC   C3B26697  23.200  44.592   7.964
 1914POPC   C4B26698  23.187  44.543   7.664
 1915POPC   NC326699  33.809  38.449   9.464
 1915POPC   PO426700  33.841  38.413   9.164
 1915POPC   GL126701  33.837  38.449   8.864
 1915POPC   GL226702  33.944  38.411   8.864
 1915POPC   C1A26703  33.785  38.430   8.564
 1915POPC   D2A26704  33.826  38.477   8.264
 1915POPC   C3A26705  33.843  38.464   7.964
 1915POPC   C4A26706  33.832  38.478   7.664
 1915POPC   C1B26707  34.026  38.430   8.564
 1915POPC   C2B26708  34.097  38.440   8.264
 1915POPC   C3B26709  34.036  38.395   7.964
 1915POPC   C4B26710  34.013  38.391   7.664
 1916POPC   NC326711  39.185  19.025   9.464
 1916POPC   PO426712  39.200  19.070   9.164
 1916POPC   GL126713  39.195  19.072   8.864
 1916POPC   GL226714  39.322  18.978   8.864
 1916POPC   C1A26715  39.273  19.090   8.564
 1916POPC   D2A26716  39.244  19.051   8.264
 1916POPC   C3A26717  39.268  19.084   7.964
 1916POPC   C4A26718  39.233  19.094   7.664
 1916POPC   C1B26719  39.418  18.868   8.564
 1916POPC   C2B26720  39.382  18.815   8.264
 1916POPC   C3B26721  39.390  18.847   7.964
 1916POPC   C4B26722  39.388  18.845   7.664
 1917POPC   NC326723   1.244  18.320   9.464
 1917POPC   PO426724   1.258  18.298   9.164
 1917POPC   GL126725   1.214  18.291   8.864
 1917POPC   GL226726   1.227  18.117   8.864
 1917POPC   C1A26727   1.209  18.306   8.564
 1917POPC   D2A26728   1.181  18.300   8.264
 1917POPC   C3A26729   1.245  18.314   7.964
 1917POPC   C4A26730   1.204  18.243   7.664
 1917POPC   C1B26731   1.193  17.996   8.564
 1917POPC   C2B26732   1.197  18.028   8.264
 1917POPC   C3B26733   1.203  17.985   7.964
 1917POPC   C4B26734   1.229  18.020   7.664
 1918POPC   NC326735  42.289  37.729   9.464
 1918POPC   PO426736  42.372  37.698   9.164
 1918POPC   GL126737  42.290  37.700   8.864
 1918POPC   GL226738  42.448  37.696   8.864
 1918POPC   C1A26739  42.344  37.651   8.564
 1918POPC   D2A26740  42.292  37.719   8.264
 1918POPC   C3A26741  42.315  37.723   7.964
 1918POPC   C4A26742  42.317  37.709   7.664
 1918POPC   C1B26743  42.593  37.812   8.564
 1918POPC   C2B26744  42.583  37.798   8.264
 1918POPC   C3B26745  42.536  37.754   7.964
 1918POPC   C4B26746  42.580  37.825   7.664
 1919POPC   NC326747  26.069   7.401   9.464
 1919POPC   PO426748  26.074   7.435   9.164
 1919POPC   GL126749  26.018   7.417   8.864
 1919POPC   GL226750  26.082   7.375   8.864
 1919POPC   C1A26751  26.019   7.464   8.564
 1919POPC   D2A26752  26.037   7.455   8.264
 1919POPC   C3A26753  26.025   7.464   7.964
 1919POPC   C4A26754  26.079   7.414   7.664
 1919POPC   C1B26755  26.255   7.211   8.564
 1919POPC   C2B26756  26.271   7.216   8.264
 1919POPC   C3B26757  26.212   7.271   7.964
 1919POPC   C4B26758  26.266   7.290   7.664
 1920POPC   NC326759   8.207  40.832   9.464
 1920POPC   PO426760   8.204  40.764   9.164
 1920POPC   GL126761   8.167  40.815   8.864
 1920POPC   GL226762   8.253  40.840   8.864
 1920POPC   C1A26763   8.197  40.736   8.564
 1920POPC   D2A26764   8.244  40.830   8.264
 1920POPC   C3A26765   8.192  40.810   7.964
 1920POPC   C4A26766   8.228  40.799   7.664
 1920POPC   C1B26767   8.407  41.013   8.564
 1920POPC   C2B26768   8.374  40.964   8.264
 1920POPC   C3B26769   8.404  41.017   7.964
 1920POPC   C4B26770   8.319  40.960   7.664
 1921POPC   NC326771  30.708  36.913   9.464
 1921POPC   PO426772  30.730  36.864   9.164
 1921POPC   GL126773  30.693  36.899   8.864
 1921POPC   GL226774  30.789  36.773   8.864
 1921POPC   C1A26775  30.727  36.885   8.564
 1921POPC   D2A26776  30.661  36.860   8.264
 1921POPC   C3A26777  30.662  36.934   7.964
 1921POPC   C4A26778  30.715  36.924   7.664
 1921POPC   C1B26779  30.862  36.676   8.564
 1921POPC   C2B26780  30.834  36.681   8.264
 1921POPC   C3B26781  30.798  36.678   7.964
 1921POPC   C4B26782  30.820  36.656   7.664
 1922POPC   NC326783  19.825  17.524   9.464
 1922POPC   PO426784  19.803  17.468   9.164
 1922POPC   GL126785  19.865  17.487   8.864
 1922POPC   GL226786  19.762  17.571   8.864
 1922POPC   C1A26787  19.828  17.492   8.564
 1922POPC   D2A26788  19.796  17.519   8.264
 1922POPC   C3A26789  19.802  17.511   7.964
 1922POPC   C4A26790  19.827  17.550   7.664
 1922POPC   C1B26791  19.687  17.626   8.564
 1922POPC   C2B26792  19.674  17.699   8.264
 1922POPC   C3B26793  19.627  17.630   7.964
 1922POPC   C4B26794  19.679  17.685   7.664
 1923POPC   NC326795  13.580   2.737   9.464
 1923POPC   PO426796  13.646   2.765   9.164
 1923POPC   GL126797  13.623   2.731   8.864
 1923POPC   GL226798  13.504   2.725   8.864
 1923POPC   C1A26799  13.621   2.815   8.564
 1923POPC   D2A26800  13.650   2.732   8.264
 1923POPC   C3A26801  13.582   2.736   7.964
 1923POPC   C4A26802  13.657   2.802   7.664
 1923POPC   C1B26803  13.384   2.814   8.564
 1923POPC   C2B26804  13.372   2.793   8.264
 1923POPC   C3B26805  13.334   2.820   7.964
 1923POPC   C4B26806  13.416   2.816   7.664
 1924POPC   NC326807  41.589  20.594   9.464
 1924POPC   PO426808  41.523  20.597   9.164
 1924POPC   GL126809  41.542  20.603   8.864
 1924POPC   GL226810  41.682  20.557   8.864
 1924POPC   C1A26811  41.556  20.582   8.564
 1924POPC   D2A26812  41.602  20.624   8.264
 1924POPC   C3A26813  41.580  20.655   7.964
 1924POPC   C4A26814  41.562  20.657   7.664
 1924POPC   C1B26815  41.771  20.482   8.564
 1924POPC   C2B26816  41.736  20.431   8.264
 1924POPC   C3B26817  41.777  20.402   7.964
 1924POPC   C4B26818  41.717  20.447   7.664
 1925POPC   NC326819  39.257  42.372   9.464
 1925POPC   PO426820  39.182  42.358   9.164
 1925POPC   GL126821  39.258  42.361   8.864
 1925POPC   GL226822  39.329  42.273   8.864
 1925POPC   C1A26823  39.248  42.361   8.564
 1925POPC   D2A26824  39.254  42.330   8.264
 1925POPC   C3A26825  39.190  42.348   7.964
 1925POPC   C4A26826  39.198  42.348   7.664
 1925POPC   C1B26827  39.388  42.094   8.564
 1925POPC   C2B26828  39.353  42.102   8.264
 1925POPC   C3B26829  39.386  42.110   7.964
 1925POPC   C4B26830  39.304  42.084   7.664
 1926POPC   NC326831  40.020  11.301   9.464
 1926POPC   PO426832  40.007  11.310   9.164
 1926POPC   GL126833  39.965  11.317   8.864
 1926POPC   GL226834  39.924  11.244   8.864
 1926POPC   C1A26835  39.962  11.281   8.564
 1926POPC   D2A26836  40.028  11.306   8.264
 1926POPC   C3A26837  40.042  11.324   7.964
 1926POPC   C4A26838  39.998  11.263   7.664
 1926POPC   C1B26839  39.837  11.106   8.564
 1926POPC   C2B26840  39.798  11.073   8.264
 1926POPC   C3B26841  39.823  11.109   7.964
 1926POPC   C4B26842  39.839  11.077   7.664
 1927POPC   NC326843  19.870  26.010   9.464
 1927POPC   PO426844  19.872  26.059   9.164
 1927POPC   GL126845  19.853  26.036   8.864
 1927POPC   GL226846  19.807  25.966   8.864
 1927POPC   C1A26847  19.862  26.050   8.564
 1927POPC   D2A26848  19.879  26.086   8.264
 1927POPC   C3A26849  19.807  26.075   7.964
 1927POPC   C4A26850  19.871  26.072   7.664
 1927POPC   C1B26851  19.667  25.865   8.564
 1927POPC   C2B26852  19.673  25.850   8.264
 1927POPC   C3B26853  19.708  25.841   7.964
 1927POPC   C4B26854  19.708  25.831   7.664
 1928POPC   NC326855  26.030  21.435   9.464
 1928POPC   PO426856  26.008  21.351   9.164
 1928POPC   GL126857  26.043  21.364   8.864
 1928POPC   GL226858  26.133  21.469   8.864
 1928POPC   C1A26859  26.045  21.402   8.564
 1928POPC   D2A26860  25.992  21.404   8.264
 1928POPC   C3A26861  26.077  21.361   7.964
 1928POPC   C4A26862  26.056  21.407   7.664
 1928POPC   C1B26863  26.231  21.617   8.564
 1928POPC   C2B26864  26.216  21.533   8.264
 1928POPC   C3B26865  26.169  21.622   7.964
 1928POPC   C4B26866  26.167  21.626   7.664
 1929POPC   NC326867  17.493   1.235   9.464
 1929POPC   PO426868  17.474   1.171   9.164
 1929POPC   GL126869  17.490   1.263   8.864
 1929POPC   GL226870  17.441   1.130   8.864
 1929POPC   C1A26871  17.533   1.169   8.564
 1929POPC   D2A26872  17.508   1.173   8.264
 1929POPC   C3A26873  17.464   1.213   7.964
 1929POPC   C4A26874  17.550   1.195   7.664
 1929POPC   C1B26875  17.374   0.978   8.564
 1929POPC   C2B26876  17.317   1.050   8.264
 1929POPC   C3B26877  17.353   1.044   7.964
 1929POPC   C4B26878  17.347   1.067   7.664
 1930POPC   NC326879   1.259  39.187   9.464
 1930POPC   PO426880   1.212  39.209   9.164
 1930POPC   GL126881   1.165  39.247   8.864
 1930POPC   GL226882   1.334  39.306   8.864
 1930POPC   C1A26883   1.190  39.225   8.564
 1930POPC   D2A26884   1.234  39.222   8.264
 1930POPC   C3A26885   1.166  39.240   7.964
 1930POPC   C4A26886   1.206  39.256   7.664
 1930POPC   C1B26887   1.415  39.287   8.564
 1930POPC   C2B26888   1.485  39.321   8.264
 1930POPC   C3B26889   1.435  39.359   7.964
 1930POPC   C4B26890   1.484  39.363   7.664
 1931POPC   NC326891  16.757  20.636   9.464
 1931POPC   PO426892  16.716  20.583   9.164
 1931POPC   GL126893  16.746  20.660   8.864
 1931POPC   GL226894  16.614  20.589   8.864
 1931POPC   C1A26895  16.766  20.605   8.564
 1931POPC   D2A26896  16.761  20.588   8.264
 1931POPC   C3A26897  16.699  20.588   7.964
 1931POPC   C4A26898  16.685  20.604   7.664
 1931POPC   C1B26899  16.503  20.508   8.564
 1931POPC   C2B26900  16.475  20.527   8.264
 1931POPC   C3B26901  16.547  20.502   7.964
 1931POPC   C4B26902  16.546  20.459   7.664
 1932POPC   NC326903  37.696  19.840   9.464
 1932POPC   PO426904  37.639  19.850   9.164
 1932POPC   GL126905  37.680  19.813   8.864
 1932POPC   GL226906  37.798  19.723   8.864
 1932POPC   C1A26907  37.724  19.852   8.564
 1932POPC   D2A26908  37.679  19.854   8.264
 1932POPC   C3A26909  37.721  19.804   7.964
 1932POPC   C4A26910  37.648  19.827   7.664
 1932POPC   C1B26911  37.853  19.700   8.564
 1932POPC   C2B26912  37.874  19.632   8.264
 1932POPC   C3B26913  37.835  19.646   7.964
 1932POPC   C4B26914  37.870  19.703   7.664
 1933POPC   NC326915   6.625  30.731   9.464
 1933POPC   PO426916   6.596  30.699   9.164
 1933POPC   GL126917   6.611  30.650   8.864
 1933POPC   GL226918   6.559  30.769   8.864
 1933POPC   C1A26919   6.644  30.692   8.564
 1933POPC   D2A26920   6.616  30.664   8.264
 1933POPC   C3A26921   6.626  30.672   7.964
 1933POPC   C4A26922   6.643  30.659   7.664
 1933POPC   C1B26923   6.415  30.727   8.564
 1933POPC   C2B26924   6.422  30.747   8.264
 1933POPC   C3B26925   6.424  30.788   7.964
 1933POPC   C4B26926   6.446  30.736   7.664
 1934POPC   NC326927  36.108   6.627   9.464
 1934POPC   PO426928  36.162   6.654   9.164
 1934POPC   GL126929  36.098   6.677   8.864
 1934POPC   GL226930  36.286   6.664   8.864
 1934POPC   C1A26931  36.151   6.634   8.564
 1934POPC   D2A26932  36.128   6.684   8.264
 1934POPC   C3A26933  36.163   6.615   7.964
 1934POPC   C4A26934  36.109   6.659   7.664
 1934POPC   C1B26935  36.403   6.778   8.564
 1934POPC   C2B26936  36.339   6.747   8.264
 1934POPC   C3B26937  36.312   6.750   7.964
 1934POPC   C4B26938  36.324   6.738   7.664
 1935POPC   NC326939  30.676  43.119   9.464
 1935POPC   PO426940  30.664  43.129   9.164
 1935POPC   GL126941  30.726  43.093   8.864
 1935POPC   GL226942  30.637  43.222   8.864
 1935POPC   C1A26943  30.696  43.106   8.564
 1935POPC   D2A26944  30.660  43.081   8.264
 1935POPC   C3A26945  30.721  43.133   7.964
 1935POPC   C4A26946  30.675  43.084   7.664
 1935POPC   C1B26947  30.494  43.217   8.564
 1935POPC   C2B26948  30.438  43.189   8.264
 1935POPC   C3B26949  30.459  43.249   7.964
 1935POPC   C4B26950  30.505  43.274   7.664
 1936POPC   NC326951  34.617  14.447   9.464
 1936POPC   PO426952  34.585  14.385   9.164
 1936POPC   GL126953  34.615  14.382   8.864
 1936POPC   GL226954  34.660  14.428   8.864
 1936POPC   C1A26955  34.528  14.372   8.564
 1936POPC   D2A26956  34.586  14.419   8.264
 1936POPC   C3A26957  34.596  14.361   7.964
 1936POPC   C4A26958  34.540  14.439   7.664
 1936POPC   C1B26959  34.808  14.415   8.564
 1936POPC   C2B26960  34.849  14.403   8.264
 1936POPC   C3B26961  34.789  14.430   7.964
 1936POPC   C4B26962  34.861  14.363   7.664
 1937POPC   NC326963  36.866  32.242   9.464
 1937POPC   PO426964  36.939  32.234   9.164
 1937POPC   GL126965  36.947  32.216   8.864
 1937POPC   GL226966  36.972  32.352   8.864
 1937POPC   C1A26967  36.949  32.270   8.564
 1937POPC   D2A26968  36.908  32.291   8.264
 1937POPC   C3A26969  36.887  32.275   7.964
 1937POPC   C4A26970  36.903  32.202   7.664
 1937POPC   C1B26971  36.941  32.477   8.564
 1937POPC   C2B26972  36.994  32.534   8.264
 1937POPC   C3B26973  37.001  32.515   7.964
 1937POPC   C4B26974  36.939  32.471   7.664
 1938POPC   NC326975  30.664   5.070   9.464
 1938POPC   PO426976  30.653   5.058   9.164
 1938POPC   GL126977  30.738   5.097   8.864
 1938POPC   GL226978  30.724   5.235   8.864
 1938POPC   C1A26979  30.735   5.047   8.564
 1938POPC   D2A26980  30.713   5.088   8.264
 1938POPC   C3A26981  30.696   5.044   7.964
 1938POPC   C4A26982  30.719   5.076   7.664
 1938POPC   C1B26983  30.719   5.331   8.564
 1938POPC   C2B26984  30.749   5.324   8.264
 1938POPC   C3B26985  30.750   5.318   7.964
 1938POPC   C4B26986  30.779   5.313   7.664
 1939POPC   NC326987  42.376  29.161   9.464
 1939POPC   PO426988  42.325  29.149   9.164
 1939POPC   GL126989  42.302  29.163   8.864
 1939POPC   GL226990  42.465  29.150   8.864
 1939POPC   C1A26991  42.354  29.184   8.564
 1939POPC   D2A26992  42.298  29.169   8.264
 1939POPC   C3A26993  42.333  29.102   7.964
 1939POPC   C4A26994  42.342  29.106   7.664
 1939POPC   C1B26995  42.629  29.135   8.564
 1939POPC   C2B26996  42.583  29.096   8.264
 1939POPC   C3B26997  42.565  29.078   7.964
 1939POPC   C4B26998  42.605  29.109   7.664
 1940POPC   NC326999  33.000  33.050   9.464
 1940POPC   PO427000  33.013  33.022   9.164
 1940POPC   GL127001  33.040  33.045   8.864
 1940POPC   GL227002  33.111  33.033   8.864
 1940POPC   C1A27003  33.008  33.057   8.564
 1940POPC   D2A27004  32.977  33.057   8.264
 1940POPC   C3A27005  32.992  33.022   7.964
 1940POPC   C4A27006  33.057  33.002   7.664
 1940POPC   C1B27007  33.269  33.068   8.564
 1940POPC   C2B27008  33.309  33.029   8.264
 1940POPC   C3B27009  33.289  33.020   7.964
 1940POPC   C4B27010  33.293  33.031   7.664
 1941POPC   NC327011  12.876   4.284   9.464
 1941POPC   PO427012  12.805   4.284   9.164
 1941POPC   GL127013  12.873   4.286   8.864
 1941POPC   GL227014  12.860   4.443   8.864
 1941POPC   C1A27015  12.832   4.268   8.564
 1941POPC   D2A27016  12.805   4.293   8.264
 1941POPC   C3A27017  12.855   4.284   7.964
 1941POPC   C4A27018  12.828   4.296   7.664
 1941POPC   C1B27019  12.968   4.577   8.564
 1941POPC   C2B27020  12.929   4.520   8.264
 1941POPC   C3B27021  12.972   4.549   7.964
 1941POPC   C4B27022  12.934   4.521   7.664
 1942POPC   NC327023  26.794   9.710   9.464
 1942POPC   PO427024  26.828   9.761   9.164
 1942POPC   GL127025  26.773   9.736   8.864
 1942POPC   GL227026  26.874   9.652   8.864
 1942POPC   C1A27027  26.778   9.797   8.564
 1942POPC   D2A27028  26.813   9.762   8.264
 1942POPC   C3A27029  26.840   9.792   7.964
 1942POPC   C4A27030  26.833   9.764   7.664
 1942POPC   C1B27031  26.785   9.482   8.564
 1942POPC   C2B27032  26.804   9.462   8.264
 1942POPC   C3B27033  26.837   9.461   7.964
 1942POPC   C4B27034  26.787   9.541   7.664
 1943POPC   NC327035  28.405  36.129   9.464
 1943POPC   PO427036  28.341  36.119   9.164
 1943POPC   GL127037  28.404  36.119   8.864
 1943POPC   GL227038  28.292  36.207   8.864
 1943POPC   C1A27039  28.400  36.130   8.564
 1943POPC   D2A27040  28.356  36.134   8.264
 1943POPC   C3A27041  28.386  36.107   7.964
 1943POPC   C4A27042  28.347  36.123   7.664
 1943POPC   C1B27043  28.110  36.202   8.564
 1943POPC   C2B27044  28.125  36.230   8.264
 1943POPC   C3B27045  28.133  36.158   7.964
 1943POPC   C4B27046  28.081  36.200   7.664
 1944POPC   NC327047  33.792  35.324   9.464
 1944POPC   PO427048  33.772  35.321   9.164
 1944POPC   GL127049  33.776  35.360   8.864
 1944POPC   GL227050  33.662  35.458   8.864
 1944POPC   C1A27051  33.806  35.338   8.564
 1944POPC   D2A27052  33.816  35.325   8.264
 1944POPC   C3A27053  33.833  35.340   7.964
 1944POPC   C4A27054  33.777  35.316   7.664
 1944POPC   C1B27055  33.650  35.479   8.564
 1944POPC   C2B27056  33.645  35.487   8.264
 1944POPC   C3B27057  33.594  35.554   7.964
 1944POPC   C4B27058  33.596  35.511   7.664
 1945POPC   NC327059  43.083  29.105   9.464
 1945POPC   PO427060  43.091  29.192   9.164
 1945POPC   GL127061  43.136  29.123   8.864
 1945POPC   GL227062  43.060  29.206   8.864
 1945POPC   C1A27063  43.069  29.149   8.564
 1945POPC   D2A27064  43.123  29.099   8.264
 1945POPC   C3A27065  43.083  29.119   7.964
 1945POPC   C4A27066  43.113  29.117   7.664
 1945POPC   C1B27067  42.943  29.321   8.564
 1945POPC   C2B27068  42.906  29.366   8.264
 1945POPC   C3B27069  42.893  29.364   7.964
 1945POPC   C4B27070  42.894  29.316   7.664
 1946POPC   NC327071  26.809  36.924   9.464
 1946POPC   PO427072  26.799  36.946   9.164
 1946POPC   GL127073  26.866  36.931   8.864
 1946POPC   GL227074  26.876  37.022   8.864
 1946POPC   C1A27075  26.787  36.875   8.564
 1946POPC   D2A27076  26.826  36.883   8.264
 1946POPC   C3A27077  26.851  36.891   7.964
 1946POPC   C4A27078  26.857  36.877   7.664
 1946POPC   C1B27079  27.044  37.051   8.564
 1946POPC   C2B27080  26.986  37.005   8.264
 1946POPC   C3B27081  26.994  37.059   7.964
 1946POPC   C4B27082  27.061  37.062   7.664
 1947POPC   NC327083  16.723  43.110   9.464
 1947POPC   PO427084  16.699  43.104   9.164
 1947POPC   GL127085  16.716  43.091   8.864
 1947POPC   GL227086  16.802  43.168   8.864
 1947POPC   C1A27087  16.707  43.087   8.564
 1947POPC   D2A27088  16.720  43.143   8.264
 1947POPC   C3A27089  16.716  43.064   7.964
 1947POPC   C4A27090  16.767  43.098   7.664
 1947POPC   C1B27091  16.845  43.342   8.564
 1947POPC   C2B27092  16.924  43.280   8.264
 1947POPC   C3B27093  16.856  43.316   7.964
 1947POPC   C4B27094  16.864  43.307   7.664
 1948POPC   NC327095  24.442  32.287   9.464
 1948POPC   PO427096  24.508  32.255   9.164
 1948POPC   GL127097  24.470  32.211   8.864
 1948POPC   GL227098  24.586  32.194   8.864
 1948POPC   C1A27099  24.517  32.272   8.564
 1948POPC   D2A27100  24.475  32.243   8.264
 1948POPC   C3A27101  24.453  32.201   7.964
 1948POPC   C4A27102  24.442  32.282   7.664
 1948POPC   C1B27103  24.668  32.072   8.564
 1948POPC   C2B27104  24.705  32.126   8.264
 1948POPC   C3B27105  24.693  32.142   7.964
 1948POPC   C4B27106  24.648  32.159   7.664
 1949POPC   NC327107   6.606  33.759   9.464
 1949POPC   PO427108   6.682  33.755   9.164
 1949POPC   GL127109   6.626  33.772   8.864
 1949POPC   GL227110   6.709  33.880   8.864
 1949POPC   C1A27111   6.659  33.845   8.564
 1949POPC   D2A27112   6.631  33.845   8.264
 1949POPC   C3A27113   6.652  33.767   7.964
 1949POPC   C4A27114   6.683  33.777   7.664
 1949POPC   C1B27115   6.697  34.003   8.564
 1949POPC   C2B27116   6.672  34.066   8.264
 1949POPC   C3B27117   6.710  34.088   7.964
 1949POPC   C4B27118   6.723  34.017   7.664
 1950POPC   NC327119  13.667  13.602   9.464
 1950POPC   PO427120  13.632  13.588   9.164
 1950POPC   GL127121  13.598  13.585   8.864
 1950POPC   GL227122  13.562  13.705   8.864
 1950POPC   C1A27123  13.607  13.625   8.564
 1950POPC   D2A27124  13.640  13.593   8.264
 1950POPC   C3A27125  13.678  13.624   7.964
 1950POPC   C4A27126  13.654  13.603   7.664
 1950POPC   C1B27127  13.447  13.789   8.564
 1950POPC   C2B27128  13.388  13.747   8.264
 1950POPC   C3B27129  13.388  13.766   7.964
 1950POPC   C4B27130  13.453  13.802   7.664
 1951POPC   NC327131  16.688   7.429   9.464
 1951POPC   PO427132  16.686   7.450   9.164
 1951POPC   GL127133  16.700   7.438   8.864
 1951POPC   GL227134  16.836   7.359   8.864
 1951POPC   C1A27135  16.690   7.453   8.564
 1951POPC   D2A27136  16.718   7.428   8.264
 1951POPC   C3A27137  16.747   7.375   7.964
 1951POPC   C4A27138  16.739   7.454   7.664
 1951POPC   C1B27139  16.927   7.218   8.564
 1951POPC   C2B27140  16.870   7.230   8.264
 1951POPC   C3B27141  16.907   7.232   7.964
 1951POPC   C4B27142  16.913   7.267   7.664
 1952POPC   NC327143  36.907  27.619   9.464
 1952POPC   PO427144  36.899  27.553   9.164
 1952POPC   GL127145  36.927  27.596   8.864
 1952POPC   GL227146  37.003  27.628   8.864
 1952POPC   C1A27147  36.901  27.621   8.564
 1952POPC   D2A27148  36.864  27.606   8.264
 1952POPC   C3A27149  36.929  27.572   7.964
 1952POPC   C4A27150  36.906  27.624   7.664
 1952POPC   C1B27151  37.144  27.776   8.564
 1952POPC   C2B27152  37.082  27.770   8.264
 1952POPC   C3B27153  37.102  27.739   7.964
 1952POPC   C4B27154  37.138  27.727   7.664
 1953POPC   NC327155  25.234  23.748   9.464
 1953POPC   PO427156  25.258  23.732   9.164
 1953POPC   GL127157  25.248  23.676   8.864
 1953POPC   GL227158  25.418  23.712   8.864
 1953POPC   C1A27159  25.259  23.726   8.564
 1953POPC   D2A27160  25.240  23.732   8.264
 1953POPC   C3A27161  25.228  23.760   7.964
 1953POPC   C4A27162  25.279  23.697   7.664
 1953POPC   C1B27163  25.491  23.662   8.564
 1953POPC   C2B27164  25.474  23.665   8.264
 1953POPC   C3B27165  25.478  23.630   7.964
 1953POPC   C4B27166  25.542  23.611   7.664
 1954POPC   NC327167  22.898  42.356   9.464
 1954POPC   PO427168  22.921  42.300   9.164
 1954POPC   GL127169  22.953  42.325   8.864
 1954POPC   GL227170  22.995  42.414   8.864
 1954POPC   C1A27171  22.939  42.308   8.564
 1954POPC   D2A27172  22.947  42.298   8.264
 1954POPC   C3A27173  22.928  42.312   7.964
 1954POPC   C4A27174  22.972  42.364   7.664
 1954POPC   C1B27175  23.128  42.460   8.564
 1954POPC   C2B27176  23.151  42.468   8.264
 1954POPC   C3B27177  23.105  42.515   7.964
 1954POPC   C4B27178  23.114  42.422   7.664
 1955POPC   NC327179   4.326  37.677   9.464
 1955POPC   PO427180   4.359  37.710   9.164
 1955POPC   GL127181   4.303  37.724   8.864
 1955POPC   GL227182   4.332  37.818   8.864
 1955POPC   C1A27183   4.315  37.719   8.564
 1955POPC   D2A27184   4.281  37.663   8.264
 1955POPC   C3A27185   4.274  37.704   7.964
 1955POPC   C4A27186   4.366  37.726   7.664
 1955POPC   C1B27187   4.324  37.891   8.564
 1955POPC   C2B27188   4.298  37.915   8.264
 1955POPC   C3B27189   4.336  37.888   7.964
 1955POPC   C4B27190   4.357  37.954   7.664
 1956POPC   NC327191   5.845  24.473   9.464
 1956POPC   PO427192   5.871  24.512   9.164
 1956POPC   GL127193   5.870  24.500   8.864
 1956POPC   GL227194   5.887  24.369   8.864
 1956POPC   C1A27195   5.907  24.472   8.564
 1956POPC   D2A27196   5.898  24.473   8.264
 1956POPC   C3A27197   5.886  24.509   7.964
 1956POPC   C4A27198   5.877  24.460   7.664
 1956POPC   C1B27199   5.923  24.234   8.564
 1956POPC   C2B27200   5.877  24.261   8.264
 1956POPC   C3B27201   5.934  24.252   7.964
 1956POPC   C4B27202   5.852  24.254   7.664
 1957POPC   NC327203  12.050  40.048   9.464
 1957POPC   PO427204  12.081  39.976   9.164
 1957POPC   GL127205  12.069  40.044   8.864
 1957POPC   GL227206  12.216  39.965   8.864
 1957POPC   C1A27207  12.053  39.969   8.564
 1957POPC   D2A27208  12.123  39.958   8.264
 1957POPC   C3A27209  12.118  40.049   7.964
 1957POPC   C4A27210  12.052  40.049   7.664
 1957POPC   C1B27211  12.300  39.872   8.564
 1957POPC   C2B27212  12.343  39.966   8.264
 1957POPC   C3B27213  12.279  39.966   7.964
 1957POPC   C4B27214  12.346  39.903   7.664
 1958POPC   NC327215  12.033   6.614   9.464
 1958POPC   PO427216  12.035   6.637   9.164
 1958POPC   GL127217  12.103   6.596   8.864
 1958POPC   GL227218  11.918   6.588   8.864
 1958POPC   C1A27219  12.116   6.660   8.564
 1958POPC   D2A27220  12.072   6.685   8.264
 1958POPC   C3A27221  12.122   6.665   7.964
 1958POPC   C4A27222  12.060   6.652   7.664
 1958POPC   C1B27223  11.838   6.589   8.564
 1958POPC   C2B27224  11.800   6.619   8.264
 1958POPC   C3B27225  11.809   6.560   7.964
 1958POPC   C4B27226  11.849   6.551   7.664
 1959POPC   NC327227  39.208  36.094   9.464
 1959POPC   PO427228  39.215  36.144   9.164
 1959POPC   GL127229  39.202  36.105   8.864
 1959POPC   GL227230  39.164  36.199   8.864
 1959POPC   C1A27231  39.231  36.126   8.564
 1959POPC   D2A27232  39.225  36.176   8.264
 1959POPC   C3A27233  39.243  36.091   7.964
 1959POPC   C4A27234  39.266  36.132   7.664
 1959POPC   C1B27235  39.090  36.302   8.564
 1959POPC   C2B27236  39.068  36.320   8.264
 1959POPC   C3B27237  39.121  36.296   7.964
 1959POPC   C4B27238  39.069  36.363   7.664
 1960POPC   NC327239  38.472  19.812   9.464
 1960POPC   PO427240  38.501  19.824   9.164
 1960POPC   GL127241  38.447  19.870   8.864
 1960POPC   GL227242  38.529  19.944   8.864
 1960POPC   C1A27243  38.422  19.836   8.564
 1960POPC   D2A27244  38.410  19.857   8.264
 1960POPC   C3A27245  38.478  19.806   7.964
 1960POPC   C4A27246  38.491  19.790   7.664
 1960POPC   C1B27247  38.588  19.993   8.564
 1960POPC   C2B27248  38.635  20.045   8.264
 1960POPC   C3B27249  38.649  20.062   7.964
 1960POPC   C4B27250  38.598  20.023   7.664
 1961POPC   NC327251  35.347  15.218   9.464
 1961POPC   PO427252  35.364  15.164   9.164
 1961POPC   GL127253  35.393  15.166   8.864
 1961POPC   GL227254  35.331  15.276   8.864
 1961POPC   C1A27255  35.332  15.167   8.564
 1961POPC   D2A27256  35.331  15.218   8.264
 1961POPC   C3A27257  35.310  15.144   7.964
 1961POPC   C4A27258  35.339  15.214   7.664
 1961POPC   C1B27259  35.373  15.409   8.564
 1961POPC   C2B27260  35.343  15.435   8.264
 1961POPC   C3B27261  35.376  15.458   7.964
 1961POPC   C4B27262  35.374  15.475   7.664
 1962POPC   NC327263   8.992  10.560   9.464
 1962POPC   PO427264   8.951  10.543   9.164
 1962POPC   GL127265   8.954  10.489   8.864
 1962POPC   GL227266   9.051  10.468   8.864
 1962POPC   C1A27267   9.011  10.521   8.564
 1962POPC   D2A27268   8.986  10.500   8.264
 1962POPC   C3A27269   8.962  10.541   7.964
 1962POPC   C4A27270   8.976  10.572   7.664
 1962POPC   C1B27271   9.114  10.329   8.564
 1962POPC   C2B27272   9.164  10.337   8.264
 1962POPC   C3B27273   9.147  10.329   7.964
 1962POPC   C4B27274   9.175  10.297   7.664
 1963POPC   NC327275  42.297   1.213   9.464
 1963POPC   PO427276  42.308   1.214   9.164
 1963POPC   GL127277  42.344   1.242   8.864
 1963POPC   GL227278  42.399   1.161   8.864
 1963POPC   C1A27279  42.303   1.233   8.564
 1963POPC   D2A27280  42.374   1.190   8.264
 1963POPC   C3A27281  42.358   1.187   7.964
 1963POPC   C4A27282  42.384   1.237   7.664
 1963POPC   C1B27283  42.511   1.043   8.564
 1963POPC   C2B27284  42.557   1.043   8.264
 1963POPC   C3B27285  42.510   1.036   7.964
 1963POPC   C4B27286  42.487   1.050   7.664
 1964POPC   NC327287  36.086  25.274   9.464
 1964POPC   PO427288  36.113  25.220   9.164
 1964POPC   GL127289  36.080  25.258   8.864
 1964POPC   GL227290  36.249  25.259   8.864
 1964POPC   C1A27291  36.082  25.252   8.564
 1964POPC   D2A27292  36.089  25.237   8.264
 1964POPC   C3A27293  36.140  25.240   7.964
 1964POPC   C4A27294  36.146  25.235   7.664
 1964POPC   C1B27295  36.357  25.232   8.564
 1964POPC   C2B27296  36.344  25.173   8.264
 1964POPC   C3B27297  36.324  25.242   7.964
 1964POPC   C4B27298  36.376  25.266   7.664
 1965POPC   NC327299  15.137  19.014   9.464
 1965POPC   PO427300  15.172  19.020   9.164
 1965POPC   GL127301  15.174  19.013   8.864
 1965POPC   GL227302  15.081  19.127   8.864
 1965POPC   C1A27303  15.189  19.020   8.564
 1965POPC   D2A27304  15.163  19.073   8.264
 1965POPC   C3A27305  15.178  19.018   7.964
 1965POPC   C4A27306  15.205  19.081   7.664
 1965POPC   C1B27307  15.050  19.259   8.564
 1965POPC   C2B27308  15.042  19.261   8.264
 1965POPC   C3B27309  15.009  19.282   7.964
 1965POPC   C4B27310  15.008  19.255   7.664
 1966POPC   NC327311  44.710   1.993   9.464
 1966POPC   PO427312  44.627   1.986   9.164
 1966POPC   GL127313  44.641   2.039   8.864
 1966POPC   GL227314  44.702   2.121   8.864
 1966POPC   C1A27315  44.653   1.988   8.564
 1966POPC   D2A27316  44.703   2.015   8.264
 1966POPC   C3A27317  44.617   2.006   7.964
 1966POPC   C4A27318  44.674   2.004   7.664
 1966POPC   C1B27319  44.772   2.212   8.564
 1966POPC   C2B27320  44.741   2.193   8.264
 1966POPC   C3B27321  44.827   2.231   7.964
 1966POPC   C4B27322  44.814   2.169   7.664
 1967POPC   NC327323  36.147  22.112   9.464
 1967POPC   PO427324  36.168  22.114   9.164
 1967POPC   GL127325  36.167  22.197   8.864
 1967POPC   GL227326  36.250  22.299   8.864
 1967POPC   C1A27327  36.154  22.166   8.564
 1967POPC   D2A27328  36.079  22.183   8.264
 1967POPC   C3A27329  36.172  22.180   7.964
 1967POPC   C4A27330  36.095  22.211   7.664
 1967POPC   C1B27331  36.324  22.324   8.564
 1967POPC   C2B27332  36.313  22.324   8.264
 1967POPC   C3B27333  36.279  22.351   7.964
 1967POPC   C4B27334  36.308  22.378   7.664
 1968POPC   NC327335  32.240  40.022   9.464
 1968POPC   PO427336  32.203  39.985   9.164
 1968POPC   GL127337  32.235  39.965   8.864
 1968POPC   GL227338  32.259  40.142   8.864
 1968POPC   C1A27339  32.268  39.999   8.564
 1968POPC   D2A27340  32.271  40.009   8.264
 1968POPC   C3A27341  32.291  40.008   7.964
 1968POPC   C4A27342  32.258  40.022   7.664
 1968POPC   C1B27343  32.307  40.301   8.564
 1968POPC   C2B27344  32.318  40.263   8.264
 1968POPC   C3B27345  32.309  40.302   7.964
 1968POPC   C4B27346  32.260  40.257   7.664
 1969POPC   NC327347  15.223  12.087   9.464
 1969POPC   PO427348  15.227  12.071   9.164
 1969POPC   GL127349  15.149  12.118   8.864
 1969POPC   GL227350  15.292  12.168   8.864
 1969POPC   C1A27351  15.205  12.117   8.564
 1969POPC   D2A27352  15.208  12.045   8.264
 1969POPC   C3A27353  15.132  12.061   7.964
 1969POPC   C4A27354  15.177  12.099   7.664
 1969POPC   C1B27355  15.368  12.297   8.564
 1969POPC   C2B27356  15.377  12.289   8.264
 1969POPC   C3B27357  15.329  12.240   7.964
 1969POPC   C4B27358  15.383  12.233   7.664
 1970POPC   NC327359  19.819  23.664   9.464
 1970POPC   PO427360  19.828  23.687   9.164
 1970POPC   GL127361  19.869  23.760   8.864
 1970POPC   GL227362  19.863  23.575   8.864
 1970POPC   C1A27363  19.785  23.754   8.564
 1970POPC   D2A27364  19.857  23.739   8.264
 1970POPC   C3A27365  19.842  23.763   7.964
 1970POPC   C4A27366  19.839  23.709   7.664
 1970POPC   C1B27367  19.987  23.479   8.564
 1970POPC   C2B27368  19.953  23.507   8.264
 1970POPC   C3B27369  19.981  23.547   7.964
 1970POPC   C4B27370  19.960  23.485   7.664
 1971POPC   NC327371  30.670  41.589   9.464
 1971POPC   PO427372  30.727  41.551   9.164
 1971POPC   GL127373  30.704  41.521   8.864
 1971POPC   GL227374  30.770  41.626   8.864
 1971POPC   C1A27375  30.745  41.550   8.564
 1971POPC   D2A27376  30.663  41.547   8.264
 1971POPC   C3A27377  30.691  41.555   7.964
 1971POPC   C4A27378  30.665  41.518   7.664
 1971POPC   C1B27379  30.878  41.787   8.564
 1971POPC   C2B27380  30.813  41.766   8.264
 1971POPC   C3B27381  30.805  41.743   7.964
 1971POPC   C4B27382  30.800  41.784   7.664
 1972POPC   NC327383  13.643  33.017   9.464
 1972POPC   PO427384  13.583  33.045   9.164
 1972POPC   GL127385  13.656  33.018   8.864
 1972POPC   GL227386  13.679  32.929   8.864
 1972POPC   C1A27387  13.626  33.038   8.564
 1972POPC   D2A27388  13.619  32.997   8.264
 1972POPC   C3A27389  13.631  33.026   7.964
 1972POPC   C4A27390  13.668  33.063   7.664
 1972POPC   C1B27391  13.727  32.815   8.564
 1972POPC   C2B27392  13.739  32.836   8.264
 1972POPC   C3B27393  13.735  32.854   7.964
 1972POPC   C4B27394  13.702  32.826   7.664
 1973POPC   NC327395  22.152  37.700   9.464
 1973POPC   PO427396  22.122  37.652   9.164
 1973POPC   GL127397  22.159  37.713   8.864
 1973POPC   GL227398  22.041  37.774   8.864
 1973POPC   C1A27399  22.158  37.729   8.564
 1973POPC   D2A27400  22.112  37.702   8.264
 1973POPC   C3A27401  22.168  37.656   7.964
 1973POPC   C4A27402  22.177  37.639   7.664
 1973POPC   C1B27403  22.037  37.915   8.564
 1973POPC   C2B27404  21.997  37.904   8.264
 1973POPC   C3B27405  21.965  37.860   7.964
 1973POPC   C4B27406  22.038  37.876   7.664
 1974POPC   NC327407   5.901  21.355   9.464
 1974POPC   PO427408   5.916  21.368   9.164
 1974POPC   GL127409   5.852  21.359   8.864
 1974POPC   GL227410   6.011  21.428   8.864
 1974POPC   C1A27411   5.882  21.396   8.564
 1974POPC   D2A27412   5.906  21.386   8.264
 1974POPC   C3A27413   5.880  21.404   7.964
 1974POPC   C4A27414   5.892  21.365   7.664
 1974POPC   C1B27415   6.136  21.499   8.564
 1974POPC   C2B27416   6.078  21.441   8.264
 1974POPC   C3B27417   6.078  21.513   7.964
 1974POPC   C4B27418   6.119  21.437   7.664
 1975POPC   NC327419  24.452  16.759   9.464
 1975POPC   PO427420  24.477  16.776   9.164
 1975POPC   GL127421  24.519  16.743   8.864
 1975POPC   GL227422  24.525  16.902   8.864
 1975POPC   C1A27423  24.500  16.748   8.564
 1975POPC   D2A27424  24.511  16.721   8.264
 1975POPC   C3A27425  24.445  16.696   7.964
 1975POPC   C4A27426  24.445  16.750   7.664
 1975POPC   C1B27427  24.509  16.996   8.564
 1975POPC   C2B27428  24.472  17.027   8.264
 1975POPC   C3B27429  24.510  16.965   7.964
 1975POPC   C4B27430  24.443  16.967   7.664
 1976POPC   NC327431  12.060   5.054   9.464
 1976POPC   PO427432  12.080   5.055   9.164
 1976POPC   GL127433  12.084   5.089   8.864
 1976POPC   GL227434  12.065   5.195   8.864
 1976POPC   C1A27435  12.078   5.080   8.564
 1976POPC   D2A27436  12.116   5.047   8.264
 1976POPC   C3A27437  12.085   5.122   7.964
 1976POPC   C4A27438  12.035   5.094   7.664
 1976POPC   C1B27439  12.035   5.363   8.564
 1976POPC   C2B27440  11.992   5.299   8.264
 1976POPC   C3B27441  12.003   5.384   7.964
 1976POPC   C4B27442  12.051   5.311   7.664
 1977POPC   NC327443  28.329  24.504   9.464
 1977POPC   PO427444  28.366  24.502   9.164
 1977POPC   GL127445  28.372  24.473   8.864
 1977POPC   GL227446  28.517  24.527   8.864
 1977POPC   C1A27447  28.415  24.475   8.564
 1977POPC   D2A27448  28.342  24.500   8.264
 1977POPC   C3A27449  28.350  24.448   7.964
 1977POPC   C4A27450  28.370  24.471   7.664
 1977POPC   C1B27451  28.630  24.491   8.564
 1977POPC   C2B27452  28.591  24.506   8.264
 1977POPC   C3B27453  28.642  24.471   7.964
 1977POPC   C4B27454  28.591  24.538   7.664
 1978POPC   NC327455  40.777  38.416   9.464
 1978POPC   PO427456  40.806  38.415   9.164
 1978POPC   GL127457  40.751  38.433   8.864
 1978POPC   GL227458  40.758  38.350   8.864
 1978POPC   C1A27459  40.792  38.483   8.564
 1978POPC   D2A27460  40.816  38.469   8.264
 1978POPC   C3A27461  40.788  38.413   7.964
 1978POPC   C4A27462  40.744  38.456   7.664
 1978POPC   C1B27463  40.761  38.206   8.564
 1978POPC   C2B27464  40.825  38.209   8.264
 1978POPC   C3B27465  40.783  38.217   7.964
 1978POPC   C4B27466  40.834  38.172   7.664
 1979POPC   NC327467  15.959  22.184   9.464
 1979POPC   PO427468  15.985  22.148   9.164
 1979POPC   GL127469  15.965  22.193   8.864
 1979POPC   GL227470  15.848  22.123   8.864
 1979POPC   C1A27471  15.976  22.129   8.564
 1979POPC   D2A27472  15.979  22.113   8.264
 1979POPC   C3A27473  15.968  22.173   7.964
 1979POPC   C4A27474  15.954  22.195   7.664
 1979POPC   C1B27475  15.793  22.044   8.564
 1979POPC   C2B27476  15.788  22.035   8.264
 1979POPC   C3B27477  15.811  22.051   7.964
 1979POPC   C4B27478  15.749  22.031   7.664
 1980POPC   NC327479  23.717  11.276   9.464
 1980POPC   PO427480  23.696  11.256   9.164
 1980POPC   GL127481  23.745  11.317   8.864
 1980POPC   GL227482  23.570  11.298   8.864
 1980POPC   C1A27483  23.733  11.319   8.564
 1980POPC   D2A27484  23.716  11.256   8.264
 1980POPC   C3A27485  23.714  11.259   7.964
 1980POPC   C4A27486  23.712  11.277   7.664
 1980POPC   C1B27487  23.477  11.246   8.564
 1980POPC   C2B27488  23.517  11.247   8.264
 1980POPC   C3B27489  23.462  11.229   7.964
 1980POPC   C4B27490  23.474  11.200   7.664
 1981POPC   NC327491  19.850  24.520   9.464
 1981POPC   PO427492  19.876  24.507   9.164
 1981POPC   GL127493  19.862  24.496   8.864
 1981POPC   GL227494  19.865  24.567   8.864
 1981POPC   C1A27495  19.821  24.498   8.564
 1981POPC   D2A27496  19.848  24.475   8.264
 1981POPC   C3A27497  19.824  24.522   7.964
 1981POPC   C4A27498  19.799  24.452   7.664
 1981POPC   C1B27499  19.884  24.693   8.564
 1981POPC   C2B27500  19.797  24.737   8.264
 1981POPC   C3B27501  19.789  24.694   7.964
 1981POPC   C4B27502  19.863  24.695   7.664
 1982POPC   NC327503   4.268  15.920   9.464
 1982POPC   PO427504   4.358  15.943   9.164
 1982POPC   GL127505   4.313  15.988   8.864
 1982POPC   GL227506   4.307  15.796   8.864
 1982POPC   C1A27507   4.306  16.000   8.564
 1982POPC   D2A27508   4.277  15.916   8.264
 1982POPC   C3A27509   4.286  15.945   7.964
 1982POPC   C4A27510   4.363  15.934   7.664
 1982POPC   C1B27511   4.346  15.708   8.564
 1982POPC   C2B27512   4.367  15.758   8.264
 1982POPC   C3B27513   4.428  15.710   7.964
 1982POPC   C4B27514   4.404  15.739   7.664
 1983POPC   NC327515   9.008  43.931   9.464
 1983POPC   PO427516   9.000  43.889   9.164
 1983POPC   GL127517   9.008  43.906   8.864
 1983POPC   GL227518   9.066  43.927   8.864
 1983POPC   C1A27519   8.955  43.920   8.564
 1983POPC   D2A27520   8.959  43.916   8.264
 1983POPC   C3A27521   8.967  43.899   7.964
 1983POPC   C4A27522   8.947  43.844   7.664
 1983POPC   C1B27523   9.176  43.923   8.564
 1983POPC   C2B27524   9.230  43.877   8.264
 1983POPC   C3B27525   9.233  43.921   7.964
 1983POPC   C4B27526   9.206  43.912   7.664
 1984POPC   NC327527   6.667  32.285   9.464
 1984POPC   PO427528   6.607  32.225   9.164
 1984POPC   GL127529   6.613  32.246   8.864
 1984POPC   GL227530   6.593  32.344   8.864
 1984POPC   C1A27531   6.626  32.230   8.564
 1984POPC   D2A27532   6.619  32.233   8.264
 1984POPC   C3A27533   6.669  32.201   7.964
 1984POPC   C4A27534   6.669  32.250   7.664
 1984POPC   C1B27535   6.477  32.455   8.564
 1984POPC   C2B27536   6.520  32.445   8.264
 1984POPC   C3B27537   6.481  32.491   7.964
 1984POPC   C4B27538   6.523  32.454   7.664
 1985POPC   NC327539  14.406   2.788   9.464
 1985POPC   PO427540  14.355   2.746   9.164
 1985POPC   GL127541  14.403   2.733   8.864
 1985POPC   GL227542  14.426   2.595   8.864
 1985POPC   C1A27543  14.429   2.744   8.564
 1985POPC   D2A27544  14.432   2.756   8.264
 1985POPC   C3A27545  14.436   2.729   7.964
 1985POPC   C4A27546  14.400   2.756   7.664
 1985POPC   C1B27547  14.364   2.555   8.564
 1985POPC   C2B27548  14.382   2.517   8.264
 1985POPC   C3B27549  14.382   2.525   7.964
 1985POPC   C4B27550  14.369   2.524   7.664
 1986POPC   NC327551  43.065  36.882   9.464
 1986POPC   PO427552  43.108  36.889   9.164
 1986POPC   GL127553  43.063  36.929   8.864
 1986POPC   GL227554  43.261  36.983   8.864
 1986POPC   C1A27555  43.110  36.864   8.564
 1986POPC   D2A27556  43.097  36.902   8.264
 1986POPC   C3A27557  43.116  36.947   7.964
 1986POPC   C4A27558  43.131  36.857   7.664
 1986POPC   C1B27559  43.312  36.972   8.564
 1986POPC   C2B27560  43.304  37.019   8.264
 1986POPC   C3B27561  43.303  37.002   7.964
 1986POPC   C4B27562  43.305  36.989   7.664
 1987POPC   NC327563   0.476  30.688   9.464
 1987POPC   PO427564   0.433  30.738   9.164
 1987POPC   GL127565   0.470  30.739   8.864
 1987POPC   GL227566   0.320  30.678   8.864
 1987POPC   C1A27567   0.405  30.704   8.564
 1987POPC   D2A27568   0.463  30.692   8.264
 1987POPC   C3A27569   0.475  30.735   7.964
 1987POPC   C4A27570   0.429  30.736   7.664
 1987POPC   C1B27571   0.233  30.603   8.564
 1987POPC   C2B27572   0.164  30.601   8.264
 1987POPC   C3B27573   0.210  30.613   7.964
 1987POPC   C4B27574   0.177  30.678   7.664
 1988POPC   NC327575   8.171  12.847   9.464
 1988POPC   PO427576   8.164  12.813   9.164
 1988POPC   GL127577   8.157  12.890   8.864
 1988POPC   GL227578   8.293  12.919   8.864
 1988POPC   C1A27579   8.200  12.875   8.564
 1988POPC   D2A27580   8.234  12.866   8.264
 1988POPC   C3A27581   8.223  12.898   7.964
 1988POPC   C4A27582   8.166  12.887   7.664
 1988POPC   C1B27583   8.348  13.060   8.564
 1988POPC   C2B27584   8.313  13.082   8.264
 1988POPC   C3B27585   8.315  13.099   7.964
 1988POPC   C4B27586   8.295  13.068   7.664
 1989POPC   NC327587  21.354  43.099   9.464
 1989POPC   PO427588  21.386  43.082   9.164
 1989POPC   GL127589  21.373  43.075   8.864
 1989POPC   GL227590  21.309  43.041   8.864
 1989POPC   C1A27591  21.337  43.126   8.564
 1989POPC   D2A27592  21.407  43.078   8.264
 1989POPC   C3A27593  21.353  43.083   7.964
 1989POPC   C4A27594  21.403  43.063   7.664
 1989POPC   C1B27595  21.279  42.892   8.564
 1989POPC   C2B27596  21.247  42.923   8.264
 1989POPC   C3B27597  21.279  42.895   7.964
 1989POPC   C4B27598  21.284  42.841   7.664
 1990POPC   NC327599  17.478  32.261   9.464
 1990POPC   PO427600  17.501  32.209   9.164
 1990POPC   GL127601  17.458  32.206   8.864
 1990POPC   GL227602  17.483  32.409   8.864
 1990POPC   C1A27603  17.553  32.205   8.564
 1990POPC   D2A27604  17.499  32.284   8.264
 1990POPC   C3A27605  17.550  32.228   7.964
 1990POPC   C4A27606  17.556  32.199   7.664
 1990POPC   C1B27607  17.389  32.517   8.564
 1990POPC   C2B27608  17.412  32.442   8.264
 1990POPC   C3B27609  17.456  32.532   7.964
 1990POPC   C4B27610  17.473  32.453   7.664
 1991POPC   NC327611  37.668   6.607   9.464
 1991POPC   PO427612  37.715   6.660   9.164
 1991POPC   GL127613  37.671   6.614   8.864
 1991POPC   GL227614  37.626   6.808   8.864
 1991POPC   C1A27615  37.699   6.595   8.564
 1991POPC   D2A27616  37.633   6.598   8.264
 1991POPC   C3A27617  37.637   6.631   7.964
 1991POPC   C4A27618  37.654   6.657   7.664
 1991POPC   C1B27619  37.610   6.850   8.564
 1991POPC   C2B27620  37.602   6.854   8.264
 1991POPC   C3B27621  37.681   6.901   7.964
 1991POPC   C4B27622  37.660   6.891   7.664
 1992POPC   NC327623   3.513  36.084   9.464
 1992POPC   PO427624   3.527  36.156   9.164
 1992POPC   GL127625   3.548  36.103   8.864
 1992POPC   GL227626   3.614  36.268   8.864
 1992POPC   C1A27627   3.578  36.078   8.564
 1992POPC   D2A27628   3.496  36.160   8.264
 1992POPC   C3A27629   3.543  36.177   7.964
 1992POPC   C4A27630   3.495  36.169   7.664
 1992POPC   C1B27631   3.591  36.395   8.564
 1992POPC   C2B27632   3.612  36.399   8.264
 1992POPC   C3B27633   3.594  36.353   7.964
 1992POPC   C4B27634   3.591  36.320   7.664
 1993POPC   NC327635  22.986  10.531   9.464
 1993POPC   PO427636  22.974  10.474   9.164
 1993POPC   GL127637  22.970  10.509   8.864
 1993POPC   GL227638  22.967  10.399   8.864
 1993POPC   C1A27639  22.900  10.502   8.564
 1993POPC   D2A27640  22.936  10.496   8.264
 1993POPC   C3A27641  22.920  10.498   7.964
 1993POPC   C4A27642  22.962  10.487   7.664
 1993POPC   C1B27643  23.059  10.339   8.564
 1993POPC   C2B27644  23.083  10.292   8.264
 1993POPC   C3B27645  23.024  10.281   7.964
 1993POPC   C4B27646  23.100  10.333   7.664
 1994POPC   NC327647  22.168   9.792   9.464
 1994POPC   PO427648  22.153   9.744   9.164
 1994POPC   GL127649  22.182   9.751   8.864
 1994POPC   GL227650  22.312   9.852   8.864
 1994POPC   C1A27651  22.138   9.728   8.564
 1994POPC   D2A27652  22.187   9.741   8.264
 1994POPC   C3A27653  22.181   9.703   7.964
 1994POPC   C4A27654  22.202   9.779   7.664
 1994POPC   C1B27655  22.342   9.911   8.564
 1994POPC   C2B27656  22.395   9.863   8.264
 1994POPC   C3B27657  22.366   9.892   7.964
 1994POPC   C4B27658  22.388   9.911   7.664
 1995POPC   NC327659   5.876  14.407   9.464
 1995POPC   PO427660   5.875  14.422   9.164
 1995POPC   GL127661   5.874  14.376   8.864
 1995POPC   GL227662   6.012  14.327   8.864
 1995POPC   C1A27663   5.910  14.432   8.564
 1995POPC   D2A27664   5.895  14.402   8.264
 1995POPC   C3A27665   5.894  14.383   7.964
 1995POPC   C4A27666   5.893  14.400   7.664
 1995POPC   C1B27667   6.117  14.349   8.564
 1995POPC   C2B27668   6.083  14.348   8.264
 1995POPC   C3B27669   6.155  14.317   7.964
 1995POPC   C4B27670   6.071  14.319   7.664
 1996POPC   NC327671  43.098  33.842   9.464
 1996POPC   PO427672  43.159  33.752   9.164
 1996POPC   GL127673  43.090  33.836   8.864
 1996POPC   GL227674  43.201  33.818   8.864
 1996POPC   C1A27675  43.070  33.799   8.564
 1996POPC   D2A27676  43.065  33.759   8.264
 1996POPC   C3A27677  43.094  33.757   7.964
 1996POPC   C4A27678  43.144  33.846   7.664
 1996POPC   C1B27679  43.316  33.935   8.564
 1996POPC   C2B27680  43.346  33.918   8.264
 1996POPC   C3B27681  43.340  33.886   7.964
 1996POPC   C4B27682  43.352  33.946   7.664
 1997POPC   NC327683  32.207   3.526   9.464
 1997POPC   PO427684  32.255   3.569   9.164
 1997POPC   GL127685  32.204   3.570   8.864
 1997POPC   GL227686  32.208   3.620   8.864
 1997POPC   C1A27687  32.220   3.577   8.564
 1997POPC   D2A27688  32.244   3.556   8.264
 1997POPC   C3A27689  32.204   3.577   7.964
 1997POPC   C4A27690  32.288   3.532   7.664
 1997POPC   C1B27691  32.166   3.830   8.564
 1997POPC   C2B27692  32.207   3.786   8.264
 1997POPC   C3B27693  32.197   3.761   7.964
 1997POPC   C4B27694  32.160   3.763   7.664
 1998POPC   NC327695  21.379  25.304   9.464
 1998POPC   PO427696  21.358  25.267   9.164
 1998POPC   GL127697  21.415  25.312   8.864
 1998POPC   GL227698  21.221  25.242   8.864
 1998POPC   C1A27699  21.340  25.281   8.564
 1998POPC   D2A27700  21.404  25.227   8.264
 1998POPC   C3A27701  21.401  25.288   7.964
 1998POPC   C4A27702  21.341  25.265   7.664
 1998POPC   C1B27703  21.153  25.303   8.564
 1998POPC   C2B27704  21.159  25.211   8.264
 1998POPC   C3B27705  21.094  25.285   7.964
 1998POPC   C4B27706  21.168  25.291   7.664
 1999POPC   NC327707  33.053  28.321   9.464
 1999POPC   PO427708  33.010  28.321   9.164
 1999POPC   GL127709  33.071  28.415   8.864
 1999POPC   GL227710  33.051  28.447   8.864
 1999POPC   C1A27711  33.028  28.354   8.564
 1999POPC   D2A27712  32.996  28.413   8.264
 1999POPC   C3A27713  33.060  28.326   7.964
 1999POPC   C4A27714  33.022  28.366   7.664
 1999POPC   C1B27715  33.115  28.617   8.564
 1999POPC   C2B27716  33.144  28.593   8.264
 1999POPC   C3B27717  33.141  28.599   7.964
 1999POPC   C4B27718  33.153  28.561   7.664
 2000POPC   NC327719   6.637  26.046   9.464
 2000POPC   PO427720   6.624  25.994   9.164
 2000POPC   GL127721   6.660  26.075   8.864
 2000POPC   GL227722   6.747  26.170   8.864
 2000POPC   C1A27723   6.668  26.045   8.564
 2000POPC   D2A27724   6.618  26.086   8.264
 2000POPC   C3A27725   6.693  26.007   7.964
 2000POPC   C4A27726   6.668  26.055   7.664
 2000POPC   C1B27727   6.711  26.267   8.564
 2000POPC   C2B27728   6.769  26.313   8.264
 2000POPC   C3B27729   6.714  26.246   7.964
 2000POPC   C4B27730   6.730  26.234   7.664
 2001POPC   NC327731  35.370  29.149   9.464
 2001POPC   PO427732  35.360  29.114   9.164
 2001POPC   GL127733  35.340  29.160   8.864
 2001POPC   GL227734  35.487  29.100   8.864
 2001POPC   C1A27735  35.343  29.151   8.564
 2001POPC   D2A27736  35.370  29.163   8.264
 2001POPC   C3A27737  35.362  29.129   7.964
 2001POPC   C4A27738  35.332  29.108   7.664
 2001POPC   C1B27739  35.582  29.041   8.564
 2001POPC   C2B27740  35.595  28.984   8.264
 2001POPC   C3B27741  35.547  28.949   7.964
 2001POPC   C4B27742  35.551  28.983   7.664
 2002POPC   NC327743  41.538  28.358   9.464
 2002POPC   PO427744  41.536  28.341   9.164
 2002POPC   GL127745  41.547  28.410   8.864
 2002POPC   GL227746  41.605  28.454   8.864
 2002POPC   C1A27747  41.556  28.324   8.564
 2002POPC   D2A27748  41.552  28.381   8.264
 2002POPC   C3A27749  41.583  28.332   7.964
 2002POPC   C4A27750  41.530  28.374   7.664
 2002POPC   C1B27751  41.667  28.582   8.564
 2002POPC   C2B27752  41.650  28.609   8.264
 2002POPC   C3B27753  41.675  28.605   7.964
 2002POPC   C4B27754  41.678  28.579   7.664
 2003POPC   NC327755  14.429  17.486   9.464
 2003POPC   PO427756  14.378  17.551   9.164
 2003POPC   GL127757  14.413  17.476   8.864
 2003POPC   GL227758  14.537  17.414   8.864
 2003POPC   C1A27759  14.413  17.544   8.564
 2003POPC   D2A27760  14.449  17.540   8.264
 2003POPC   C3A27761  14.392  17.475   7.964
 2003POPC   C4A27762  14.424  17.470   7.664
 2003POPC   C1B27763  14.594  17.408   8.564
 2003POPC   C2B27764  14.591  17.414   8.264
 2003POPC   C3B27765  14.622  17.347   7.964
 2003POPC   C4B27766  14.603  17.421   7.664
 2004POPC   NC327767  15.154  19.807   9.464
 2004POPC   PO427768  15.178  19.878   9.164
 2004POPC   GL127769  15.202  19.870   8.864
 2004POPC   GL227770  15.080  19.751   8.864
 2004POPC   C1A27771  15.198  19.841   8.564
 2004POPC   D2A27772  15.132  19.847   8.264
 2004POPC   C3A27773  15.184  19.844   7.964
 2004POPC   C4A27774  15.216  19.806   7.664
 2004POPC   C1B27775  15.057  19.642   8.564
 2004POPC   C2B27776  15.051  19.636   8.264
 2004POPC   C3B27777  15.040  19.561   7.964
 2004POPC   C4B27778  15.080  19.564   7.664
 2005POPC   NC327779  12.864  20.638   9.464
 2005POPC   PO427780  12.811  20.635   9.164
 2005POPC   GL127781  12.829  20.578   8.864
 2005POPC   GL227782  12.782  20.526   8.864
 2005POPC   C1A27783  12.883  20.610   8.564
 2005POPC   D2A27784  12.853  20.611   8.264
 2005POPC   C3A27785  12.805  20.625   7.964
 2005POPC   C4A27786  12.845  20.579   7.664
 2005POPC   C1B27787  12.655  20.452   8.564
 2005POPC   C2B27788  12.605  20.532   8.264
 2005POPC   C3B27789  12.630  20.525   7.964
 2005POPC   C4B27790  12.673  20.476   7.664
 2006POPC   NC327791  29.145  15.984   9.464
 2006POPC   PO427792  29.130  15.945   9.164
 2006POPC   GL127793  29.122  15.915   8.864
 2006POPC   GL227794  29.216  16.036   8.864
 2006POPC   C1A27795  29.096  15.937   8.564
 2006POPC   D2A27796  29.120  15.930   8.264
 2006POPC   C3A27797  29.180  15.944   7.964
 2006POPC   C4A27798  29.172  15.912   7.664
 2006POPC   C1B27799  29.303  16.205   8.564
 2006POPC   C2B27800  29.262  16.182   8.264
 2006POPC   C3B27801  29.277  16.172   7.964
 2006POPC   C4B27802  29.227  16.180   7.664
 2007POPC   NC327803  32.257  34.552   9.464
 2007POPC   PO427804  32.229  34.617   9.164
 2007POPC   GL127805  32.262  34.552   8.864
 2007POPC   GL227806  32.280  34.719   8.864
 2007POPC   C1A27807  32.279  34.591   8.564
 2007POPC   D2A27808  32.251  34.541   8.264
 2007POPC   C3A27809  32.288  34.601   7.964
 2007POPC   C4A27810  32.217  34.542   7.664
 2007POPC   C1B27811  32.400  34.773   8.564
 2007POPC   C2B27812  32.427  34.801   8.264
 2007POPC   C3B27813  32.362  34.773   7.964
 2007POPC   C4B27814  32.433  34.772   7.664
 2008POPC   NC327815  30.678  12.822   9.464
 2008POPC   PO427816  30.681  12.872   9.164
 2008POPC   GL127817  30.733  12.807   8.864
 2008POPC   GL227818  30.785  12.830   8.864
 2008POPC   C1A27819  30.700  12.813   8.564
 2008POPC   D2A27820  30.741  12.816   8.264
 2008POPC   C3A27821  30.651  12.880   7.964
 2008POPC   C4A27822  30.719  12.883   7.664
 2008POPC   C1B27823  30.893  12.761   8.564
 2008POPC   C2B27824  30.916  12.708   8.264
 2008POPC   C3B27825  30.882  12.769   7.964
 2008POPC   C4B27826  30.907  12.779   7.664
 2009POPC   NC327827   0.400   8.209   9.464
 2009POPC   PO427828   0.420   8.199   9.164
 2009POPC   GL127829   0.473   8.231   8.864
 2009POPC   GL227830   0.565   8.218   8.864
 2009POPC   C1A27831   0.414   8.181   8.564
 2009POPC   D2A27832   0.434   8.190   8.264
 2009POPC   C3A27833   0.450   8.216   7.964
 2009POPC   C4A27834   0.396   8.160   7.664
 2009POPC   C1B27835   0.702   8.207   8.564
 2009POPC   C2B27836   0.648   8.192   8.264
 2009POPC   C3B27837   0.648   8.129   7.964
 2009POPC   C4B27838   0.727   8.208   7.664
 2010POPC   NC327839  26.852  29.155   9.464
 2010POPC   PO427840  26.858  29.152   9.164
 2010POPC   GL127841  26.831  29.167   8.864
 2010POPC   GL227842  26.803  29.041   8.864
 2010POPC   C1A27843  26.854  29.194   8.564
 2010POPC   D2A27844  26.768  29.104   8.264
 2010POPC   C3A27845  26.812  29.104   7.964
 2010POPC   C4A27846  26.854  29.115   7.664
 2010POPC   C1B27847  26.783  28.931   8.564
 2010POPC   C2B27848  26.825  28.929   8.264
 2010POPC   C3B27849  26.827  28.903   7.964
 2010POPC   C4B27850  26.820  28.870   7.664
 2011POPC   NC327851   6.686  14.435   9.464
 2011POPC   PO427852   6.686  14.360   9.164
 2011POPC   GL127853   6.603  14.441   8.864
 2011POPC   GL227854   6.671  14.293   8.864
 2011POPC   C1A27855   6.670  14.377   8.564
 2011POPC   D2A27856   6.685  14.427   8.264
 2011POPC   C3A27857   6.685  14.415   7.964
 2011POPC   C4A27858   6.665  14.371   7.664
 2011POPC   C1B27859   6.653  14.129   8.564
 2011POPC   C2B27860   6.602  14.127   8.264
 2011POPC   C3B27861   6.665  14.154   7.964
 2011POPC   C4B27862   6.691  14.180   7.664
 2012POPC   NC327863  24.508  37.683   9.464
 2012POPC   PO427864  24.444  37.706   9.164
 2012POPC   GL127865  24.515  37.696   8.864
 2012POPC   GL227866  24.595  37.757   8.864
 2012POPC   C1A27867  24.449  37.699   8.564
 2012POPC   D2A27868  24.538  37.678   8.264
 2012POPC   C3A27869  24.460  37.656   7.964
 2012POPC   C4A27870  24.504  37.670   7.664
 2012POPC   C1B27871  24.721  37.843   8.564
 2012POPC   C2B27872  24.667  37.871   8.264
 2012POPC   C3B27873  24.682  37.819   7.964
 2012POPC   C4B27874  24.663  37.867   7.664
 2013POPC   NC327875  15.913  12.114   9.464
 2013POPC   PO427876  15.996  12.034   9.164
 2013POPC   GL127877  16.005  12.059   8.864
 2013POPC   GL227878  16.066  12.058   8.864
 2013POPC   C1A27879  15.989  12.090   8.564
 2013POPC   D2A27880  16.003  12.064   8.264
 2013POPC   C3A27881  15.968  12.030   7.964
 2013POPC   C4A27882  15.930  12.027   7.664
 2013POPC   C1B27883  16.238  12.023   8.564
 2013POPC   C2B27884  16.181  12.010   8.264
 2013POPC   C3B27885  16.212  12.061   7.964
 2013POPC   C4B27886  16.219  12.031   7.664
 2014POPC   NC327887  14.390  29.895   9.464
 2014POPC   PO427888  14.372  29.970   9.164
 2014POPC   GL127889  14.435  29.911   8.864
 2014POPC   GL227890  14.314  29.784   8.864
 2014POPC   C1A27891  14.419  29.952   8.564
 2014POPC   D2A27892  14.358  29.899   8.264
 2014POPC   C3A27893  14.381  29.963   7.964
 2014POPC   C4A27894  14.390  29.960   7.664
 2014POPC   C1B27895  14.256  29.755   8.564
 2014POPC   C2B27896  14.267  29.703   8.264
 2014POPC   C3B27897  14.221  29.728   7.964
 2014POPC   C4B27898  14.282  29.718   7.664
 2015POPC   NC327899  14.359  30.659   9.464
 2015POPC   PO427900  14.422  30.663   9.164
 2015POPC   GL127901  14.355  30.673   8.864
 2015POPC   GL227902  14.559  30.782   8.864
 2015POPC   C1A27903  14.420  30.705   8.564
 2015POPC   D2A27904  14.408  30.676   8.264
 2015POPC   C3A27905  14.385  30.653   7.964
 2015POPC   C4A27906  14.403  30.696   7.664
 2015POPC   C1B27907  14.594  30.763   8.564
 2015POPC   C2B27908  14.671  30.799   8.264
 2015POPC   C3B27909  14.663  30.778   7.964
 2015POPC   C4B27910  14.655  30.751   7.664
 2016POPC   NC327911  41.568  35.388   9.464
 2016POPC   PO427912  41.582  35.369   9.164
 2016POPC   GL127913  41.559  35.304   8.864
 2016POPC   GL227914  41.515  35.447   8.864
 2016POPC   C1A27915  41.607  35.317   8.564
 2016POPC   D2A27916  41.593  35.322   8.264
 2016POPC   C3A27917  41.532  35.345   7.964
 2016POPC   C4A27918  41.594  35.308   7.664
 2016POPC   C1B27919  41.572  35.565   8.564
 2016POPC   C2B27920  41.488  35.631   8.264
 2016POPC   C3B27921  41.569  35.575   7.964
 2016POPC   C4B27922  41.516  35.628   7.664
 2017POPC   NC327923  41.552  39.262   9.464
 2017POPC   PO427924  41.520  39.253   9.164
 2017POPC   GL127925  41.550  39.277   8.864
 2017POPC   GL227926  41.406  39.290   8.864
 2017POPC   C1A27927  41.552  39.216   8.564
 2017POPC   D2A27928  41.591  39.230   8.264
 2017POPC   C3A27929  41.577  39.281   7.964
 2017POPC   C4A27930  41.558  39.253   7.664
 2017POPC   C1B27931  41.323  39.295   8.564
 2017POPC   C2B27932  41.354  39.327   8.264
 2017POPC   C3B27933  41.282  39.317   7.964
 2017POPC   C4B27934  41.336  39.246   7.664
 2018POPC   NC327935   8.152  42.352   9.464
 2018POPC   PO427936   8.185  42.344   9.164
 2018POPC   GL127937   8.175  42.356   8.864
 2018POPC   GL227938   8.234  42.244   8.864
 2018POPC   C1A27939   8.178  42.288   8.564
 2018POPC   D2A27940   8.201  42.311   8.264
 2018POPC   C3A27941   8.227  42.301   7.964
 2018POPC   C4A27942   8.156  42.346   7.664
 2018POPC   C1B27943   8.238  42.081   8.564
 2018POPC   C2B27944   8.210  42.062   8.264
 2018POPC   C3B27945   8.210  42.062   7.964
 2018POPC   C4B27946   8.233  42.095   7.664
 2019POPC   NC327947  27.629  22.975   9.464
 2019POPC   PO427948  27.609  22.928   9.164
 2019POPC   GL127949  27.551  22.923   8.864
 2019POPC   GL227950  27.592  22.804   8.864
 2019POPC   C1A27951  27.619  22.942   8.564
 2019POPC   D2A27952  27.627  22.912   8.264
 2019POPC   C3A27953  27.565  22.956   7.964
 2019POPC   C4A27954  27.611  22.927   7.664
 2019POPC   C1B27955  27.562  22.676   8.564
 2019POPC   C2B27956  27.624  22.726   8.264
 2019POPC   C3B27957  27.623  22.699   7.964
 2019POPC   C4B27958  27.645  22.675   7.664
 2020POPC   NC327959  35.306   9.009   9.464
 2020POPC   PO427960  35.373   9.014   9.164
 2020POPC   GL127961  35.400   9.016   8.864
 2020POPC   GL227962  35.447   8.994   8.864
 2020POPC   C1A27963  35.312   9.006   8.564
 2020POPC   D2A27964  35.381   8.936   8.264
 2020POPC   C3A27965  35.309   8.975   7.964
 2020POPC   C4A27966  35.352   8.931   7.664
 2020POPC   C1B27967  35.553   9.009   8.564
 2020POPC   C2B27968  35.622   9.052   8.264
 2020POPC   C3B27969  35.647   9.021   7.964
 2020POPC   C4B27970  35.577   8.997   7.664
 2021POPC   NC327971   8.174  24.448   9.464
 2021POPC   PO427972   8.156  24.445   9.164
 2021POPC   GL127973   8.209  24.530   8.864
 2021POPC   GL227974   8.281  24.435   8.864
 2021POPC   C1A27975   8.234  24.457   8.564
 2021POPC   D2A27976   8.201  24.451   8.264
 2021POPC   C3A27977   8.189  24.527   7.964
 2021POPC   C4A27978   8.156  24.481   7.664
 2021POPC   C1B27979   8.332  24.271   8.564
 2021POPC   C2B27980   8.371  24.327   8.264
 2021POPC   C3B27981   8.293  24.314   7.964
 2021POPC   C4B27982   8.314  24.293   7.664
 2022POPC   NC327983  19.843  27.639   9.464
 2022POPC   PO427984  19.812  27.591   9.164
 2022POPC   GL127985  19.845  27.571   8.864
 2022POPC   GL227986  19.696  27.707   8.864
 2022POPC   C1A27987  19.814  27.620   8.564
 2022POPC   D2A27988  19.822  27.544   8.264
 2022POPC   C3A27989  19.786  27.607   7.964
 2022POPC   C4A27990  19.819  27.602   7.664
 2022POPC   C1B27991  19.612  27.791   8.564
 2022POPC   C2B27992  19.622  27.726   8.264
 2022POPC   C3B27993  19.674  27.798   7.964
 2022POPC   C4B27994  19.671  27.738   7.664
 2023POPC   NC327995  31.506   1.190   9.464
 2023POPC   PO427996  31.515   1.248   9.164
 2023POPC   GL127997  31.501   1.192   8.864
 2023POPC   GL227998  31.614   1.208   8.864
 2023POPC   C1A27999  31.484   1.245   8.564
 2023POPC   D2A28000  31.502   1.193   8.264
 2023POPC   C3A28001  31.488   1.191   7.964
 2023POPC   C4A28002  31.471   1.216   7.664
 2023POPC   C1B28003  31.698   1.267   8.564
 2023POPC   C2B28004  31.692   1.248   8.264
 2023POPC   C3B28005  31.674   1.272   7.964
 2023POPC   C4B28006  31.701   1.274   7.664
 2024POPC   NC328007   7.461  36.161   9.464
 2024POPC   PO428008   7.419  36.148   9.164
 2024POPC   GL128009   7.398  36.125   8.864
 2024POPC   GL228010   7.453  35.957   8.864
 2024POPC   C1A28011   7.374  36.118   8.564
 2024POPC   D2A28012   7.426  36.172   8.264
 2024POPC   C3A28013   7.410  36.116   7.964
 2024POPC   C4A28014   7.382  36.100   7.664
 2024POPC   C1B28015   7.497  35.882   8.564
 2024POPC   C2B28016   7.459  35.910   8.264
 2024POPC   C3B28017   7.507  35.891   7.964
 2024POPC   C4B28018   7.485  35.858   7.664
 2025POPC   NC328019  16.704  21.392   9.464
 2025POPC   PO428020  16.764  21.395   9.164
 2025POPC   GL128021  16.705  21.386   8.864
 2025POPC   GL228022  16.695  21.243   8.864
 2025POPC   C1A28023  16.748  21.373   8.564
 2025POPC   D2A28024  16.704  21.355   8.264
 2025POPC   C3A28025  16.746  21.388   7.964
 2025POPC   C4A28026  16.754  21.385   7.664
 2025POPC   C1B28027  16.520  21.161   8.564
 2025POPC   C2B28028  16.584  21.171   8.264
 2025POPC   C3B28029  16.536  21.247   7.964
 2025POPC   C4B28030  16.570  21.166   7.664
 2026POPC   NC328031  12.841   2.767   9.464
 2026POPC   PO428032  12.839   2.734   9.164
 2026POPC   GL128033  12.859   2.776   8.864
 2026POPC   GL228034  12.828   2.884   8.864
 2026POPC   C1A28035  12.856   2.763   8.564
 2026POPC   D2A28036  12.850   2.783   8.264
 2026POPC   C3A28037  12.872   2.810   7.964
 2026POPC   C4A28038  12.849   2.753   7.664
 2026POPC   C1B28039  12.781   3.016   8.564
 2026POPC   C2B28040  12.838   2.972   8.264
 2026POPC   C3B28041  12.811   3.045   7.964
 2026POPC   C4B28042  12.792   3.007   7.664
 2027POPC   NC328043  41.579  41.547   9.464
 2027POPC   PO428044  41.545  41.525   9.164
 2027POPC   GL128045  41.545  41.598   8.864
 2027POPC   GL228046  41.590  41.699   8.864
 2027POPC   C1A28047  41.581  41.558   8.564
 2027POPC   D2A28048  41.590  41.531   8.264
 2027POPC   C3A28049  41.606  41.584   7.964
 2027POPC   C4A28050  41.510  41.544   7.664
 2027POPC   C1B28051  41.701  41.779   8.564
 2027POPC   C2B28052  41.705  41.734   8.264
 2027POPC   C3B28053  41.739  41.742   7.964
 2027POPC   C4B28054  41.757  41.706   7.664
 2028POPC   NC328055  31.512  29.894   9.464
 2028POPC   PO428056  31.472  29.890   9.164
 2028POPC   GL128057  31.478  29.887   8.864
 2028POPC   GL228058  31.449  29.773   8.864
 2028POPC   C1A28059  31.505  29.936   8.564
 2028POPC   D2A28060  31.486  29.959   8.264
 2028POPC   C3A28061  31.485  29.878   7.964
 2028POPC   C4A28062  31.433  29.931   7.664
 2028POPC   C1B28063  31.422  29.713   8.564
 2028POPC   C2B28064  31.426  29.665   8.264
 2028POPC   C3B28065  31.439  29.659   7.964
 2028POPC   C4B28066  31.369  29.676   7.664
 2029POPC   NC328067  30.746  33.054   9.464
 2029POPC   PO428068  30.724  33.045   9.164
 2029POPC   GL128069  30.653  32.978   8.864
 2029POPC   GL228070  30.697  32.887   8.864
 2029POPC   C1A28071  30.721  32.975   8.564
 2029POPC   D2A28072  30.696  33.069   8.264
 2029POPC   C3A28073  30.722  33.034   7.964
 2029POPC   C4A28074  30.684  33.000   7.664
 2029POPC   C1B28075  30.644  32.740   8.564
 2029POPC   C2B28076  30.678  32.807   8.264
 2029POPC   C3B28077  30.701  32.809   7.964
 2029POPC   C4B28078  30.705  32.791   7.664
 2030POPC   NC328079  30.683  40.806   9.464
 2030POPC   PO428080  30.681  40.780   9.164
 2030POPC   GL128081  30.677  40.779   8.864
 2030POPC   GL228082  30.832  40.678   8.864
 2030POPC   C1A28083  30.688  40.812   8.564
 2030POPC   D2A28084  30.654  40.808   8.264
 2030POPC   C3A28085  30.703  40.808   7.964
 2030POPC   C4A28086  30.734  40.790   7.664
 2030POPC   C1B28087  30.895  40.623   8.564
 2030POPC   C2B28088  30.924  40.564   8.264
 2030POPC   C3B28089  30.859  40.580   7.964
 2030POPC   C4B28090  30.919  40.648   7.664
 2031POPC   NC328091  18.312  33.761   9.464
 2031POPC   PO428092  18.254  33.800   9.164
 2031POPC   GL128093  18.285  33.836   8.864
 2031POPC   GL228094  18.329  33.872   8.864
 2031POPC   C1A28095  18.241  33.752   8.564
 2031POPC   D2A28096  18.259  33.775   8.264
 2031POPC   C3A28097  18.324  33.811   7.964
 2031POPC   C4A28098  18.264  33.806   7.664
 2031POPC   C1B28099  18.459  33.955   8.564
 2031POPC   C2B28100  18.441  33.977   8.264
 2031POPC   C3B28101  18.492  34.021   7.964
 2031POPC   C4B28102  18.468  34.005   7.664
 2032POPC   NC328103  43.107  44.647   9.464
 2032POPC   PO428104  43.146  44.690   9.164
 2032POPC   GL128105  43.120  44.635   8.864
 2032POPC   GL228106  43.119  44.527   8.864
 2032POPC   C1A28107  43.153  44.642   8.564
 2032POPC   D2A28108  43.073  44.669   8.264
 2032POPC   C3A28109  43.144  44.620   7.964
 2032POPC   C4A28110  43.127  44.660   7.664
 2032POPC   C1B28111  43.173  44.414   8.564
 2032POPC   C2B28112  43.170  44.465   8.264
 2032POPC   C3B28113  43.161  44.409   7.964
 2032POPC   C4B28114  43.193  44.380   7.664
 2033POPC   NC328115  36.083  21.393   9.464
 2033POPC   PO428116  36.156  21.340   9.164
 2033POPC   GL128117  36.136  21.348   8.864
 2033POPC   GL228118  36.084  21.482   8.864
 2033POPC   C1A28119  36.142  21.342   8.564
 2033POPC   D2A28120  36.177  21.381   8.264
 2033POPC   C3A28121  36.142  21.345   7.964
 2033POPC   C4A28122  36.109  21.405   7.664
 2033POPC   C1B28123  35.956  21.553   8.564
 2033POPC   C2B28124  35.959  21.531   8.264
 2033POPC   C3B28125  35.936  21.562   7.964
 2033POPC   C4B28126  35.916  21.546   7.664
 2034POPC   NC328127   8.969  31.496   9.464
 2034POPC   PO428128   8.991  31.522   9.164
 2034POPC   GL128129   8.984  31.439   8.864
 2034POPC   GL228130   8.890  31.515   8.864
 2034POPC   C1A28131   8.938  31.493   8.564
 2034POPC   D2A28132   9.006  31.456   8.264
 2034POPC   C3A28133   8.943  31.519   7.964
 2034POPC   C4A28134   8.963  31.434   7.664
 2034POPC   C1B28135   8.769  31.620   8.564
 2034POPC   C2B28136   8.761  31.639   8.264
 2034POPC   C3B28137   8.778  31.601   7.964
 2034POPC   C4B28138   8.810  31.665   7.664
 2035POPC   NC328139  33.048  22.892   9.464
 2035POPC   PO428140  33.032  22.919   9.164
 2035POPC   GL128141  33.013  22.929   8.864
 2035POPC   GL228142  33.106  22.803   8.864
 2035POPC   C1A28143  33.059  22.962   8.564
 2035POPC   D2A28144  32.990  22.892   8.264
 2035POPC   C3A28145  32.982  22.918   7.964
 2035POPC   C4A28146  33.007  22.916   7.664
 2035POPC   C1B28147  33.211  22.725   8.564
 2035POPC   C2B28148  33.149  22.736   8.264
 2035POPC   C3B28149  33.167  22.777   7.964
 2035POPC   C4B28150  33.132  22.759   7.664
 2036POPC   NC328151  38.454  29.948   9.464
 2036POPC   PO428152  38.447  29.930   9.164
 2036POPC   GL128153  38.420  29.939   8.864
 2036POPC   GL228154  38.365  29.786   8.864
 2036POPC   C1A28155  38.482  29.914   8.564
 2036POPC   D2A28156  38.473  29.912   8.264
 2036POPC   C3A28157  38.454  29.877   7.964
 2036POPC   C4A28158  38.414  29.891   7.664
 2036POPC   C1B28159  38.320  29.733   8.564
 2036POPC   C2B28160  38.326  29.715   8.264
 2036POPC   C3B28161  38.371  29.679   7.964
 2036POPC   C4B28162  38.384  29.660   7.664
 2037POPC   NC328163   3.565  42.357   9.464
 2037POPC   PO428164   3.516  42.357   9.164
 2037POPC   GL128165   3.546  42.382   8.864
 2037POPC   GL228166   3.633  42.266   8.864
 2037POPC   C1A28167   3.502  42.303   8.564
 2037POPC   D2A28168   3.517  42.364   8.264
 2037POPC   C3A28169   3.508  42.362   7.964
 2037POPC   C4A28170   3.567  42.292   7.664
 2037POPC   C1B28171   3.584  42.077   8.564
 2037POPC   C2B28172   3.621  42.133   8.264
 2037POPC   C3B28173   3.678  42.123   7.964
 2037POPC   C4B28174   3.606  42.149   7.664
 2038POPC   NC328175   0.443  39.985   9.464
 2038POPC   PO428176   0.473  39.996   9.164
 2038POPC   GL128177   0.391  39.968   8.864
 2038POPC   GL228178   0.423  39.898   8.864
 2038POPC   C1A28179   0.449  39.963   8.564
 2038POPC   D2A28180   0.448  39.989   8.264
 2038POPC   C3A28181   0.410  39.976   7.964
 2038POPC   C4A28182   0.447  40.003   7.664
 2038POPC   C1B28183   0.463  39.766   8.564
 2038POPC   C2B28184   0.381  39.726   8.264
 2038POPC   C3B28185   0.402  39.774   7.964
 2038POPC   C4B28186   0.374  39.733   7.664
 2039POPC   NC328187  13.646  22.185   9.464
 2039POPC   PO428188  13.581  22.169   9.164
 2039POPC   GL128189  13.628  22.173   8.864
 2039POPC   GL228190  13.521  22.068   8.864
 2039POPC   C1A28191  13.593  22.139   8.564
 2039POPC   D2A28192  13.674  22.152   8.264
 2039POPC   C3A28193  13.622  22.170   7.964
 2039POPC   C4A28194  13.594  22.209   7.664
 2039POPC   C1B28195  13.473  22.046   8.564
 2039POPC   C2B28196  13.405  22.048   8.264
 2039POPC   C3B28197  13.465  22.042   7.964
 2039POPC   C4B28198  13.398  21.994   7.664
 2040POPC   NC328199  21.383  43.855   9.464
 2040POPC   PO428200  21.399  43.893   9.164
 2040POPC   GL128201  21.385  43.901   8.864
 2040POPC   GL228202  21.299  43.779   8.864
 2040POPC   C1A28203  21.371  43.882   8.564
 2040POPC   D2A28204  21.371  43.922   8.264
 2040POPC   C3A28205  21.424  43.840   7.964
 2040POPC   C4A28206  21.407  43.934   7.664
 2040POPC   C1B28207  21.186  43.735   8.564
 2040POPC   C2B28208  21.224  43.751   8.264
 2040POPC   C3B28209  21.207  43.745   7.964
 2040POPC   C4B28210  21.207  43.700   7.664
 2041POPC   NC328211  40.748  36.126   9.464
 2041POPC   PO428212  40.829  36.160   9.164
 2041POPC   GL128213  40.778  36.163   8.864
 2041POPC   GL228214  40.839  36.221   8.864
 2041POPC   C1A28215  40.816  36.159   8.564
 2041POPC   D2A28216  40.755  36.125   8.264
 2041POPC   C3A28217  40.772  36.141   7.964
 2041POPC   C4A28218  40.744  36.099   7.664
 2041POPC   C1B28219  40.871  36.332   8.564
 2041POPC   C2B28220  40.807  36.407   8.264
 2041POPC   C3B28221  40.801  36.414   7.964
 2041POPC   C4B28222  40.837  36.385   7.664
 2042POPC   NC328223   8.221  39.992   9.464
 2042POPC   PO428224   8.239  39.984   9.164
 2042POPC   GL128225   8.174  40.047   8.864
 2042POPC   GL228226   8.134  39.918   8.864
 2042POPC   C1A28227   8.155  40.020   8.564
 2042POPC   D2A28228   8.237  39.996   8.264
 2042POPC   C3A28229   8.239  40.043   7.964
 2042POPC   C4A28230   8.192  40.039   7.664
 2042POPC   C1B28231   8.029  39.831   8.564
 2042POPC   C2B28232   8.042  39.846   8.264
 2042POPC   C3B28233   8.045  39.849   7.964
 2042POPC   C4B28234   8.073  39.848   7.664
 2043POPC   NC328235  35.377  19.881   9.464
 2043POPC   PO428236  35.386  19.856   9.164
 2043POPC   GL128237  35.379  19.831   8.864
 2043POPC   GL228238  35.291  19.725   8.864
 2043POPC   C1A28239  35.379  19.828   8.564
 2043POPC   D2A28240  35.396  19.863   8.264
 2043POPC   C3A28241  35.371  19.798   7.964
 2043POPC   C4A28242  35.398  19.814   7.664
 2043POPC   C1B28243  35.213  19.645   8.564
 2043POPC   C2B28244  35.229  19.590   8.264
 2043POPC   C3B28245  35.215  19.572   7.964
 2043POPC   C4B28246  35.222  19.612   7.664
 2044POPC   NC328247  41.591  30.694   9.464
 2044POPC   PO428248  41.537  30.655   9.164
 2044POPC   GL128249  41.554  30.712   8.864
 2044POPC   GL228250  41.678  30.659   8.864
 2044POPC   C1A28251  41.554  30.673   8.564
 2044POPC   D2A28252  41.515  30.675   8.264
 2044POPC   C3A28253  41.600  30.668   7.964
 2044POPC   C4A28254  41.527  30.722   7.664
 2044POPC   C1B28255  41.765  30.577   8.564
 2044POPC   C2B28256  41.824  30.594   8.264
 2044POPC   C3B28257  41.826  30.660   7.964
 2044POPC   C4B28258  41.771  30.651   7.664
 2045POPC   NC328259  10.498  35.360   9.464
 2045POPC   PO428260  10.502  35.385   9.164
 2045POPC   GL128261  10.494  35.354   8.864
 2045POPC   GL228262  10.429  35.265   8.864
 2045POPC   C1A28263  10.494  35.334   8.564
 2045POPC   D2A28264  10.543  35.380   8.264
 2045POPC   C3A28265  10.489  35.308   7.964
 2045POPC   C4A28266  10.511  35.334   7.664
 2045POPC   C1B28267  10.318  35.288   8.564
 2045POPC   C2B28268  10.321  35.285   8.264
 2045POPC   C3B28269  10.324  35.276   7.964
 2045POPC   C4B28270  10.304  35.290   7.664
 2046POPC   NC328271  17.510   3.526   9.464
 2046POPC   PO428272  17.525   3.527   9.164
 2046POPC   GL128273  17.516   3.534   8.864
 2046POPC   GL228274  17.338   3.535   8.864
 2046POPC   C1A28275  17.498   3.550   8.564
 2046POPC   D2A28276  17.507   3.526   8.264
 2046POPC   C3A28277  17.482   3.528   7.964
 2046POPC   C4A28278  17.552   3.510   7.664
 2046POPC   C1B28279  17.272   3.587   8.564
 2046POPC   C2B28280  17.219   3.559   8.264
 2046POPC   C3B28281  17.209   3.528   7.964
 2046POPC   C4B28282  17.244   3.510   7.664
 2047POPC   NC328283  34.612  21.384   9.464
 2047POPC   PO428284  34.622  21.432   9.164
 2047POPC   GL128285  34.610  21.366   8.864
 2047POPC   GL228286  34.727  21.373   8.864
 2047POPC   C1A28287  34.576  21.404   8.564
 2047POPC   D2A28288  34.544  21.423   8.264
 2047POPC   C3A28289  34.576  21.387   7.964
 2047POPC   C4A28290  34.564  21.349   7.664
 2047POPC   C1B28291  34.867  21.371   8.564
 2047POPC   C2B28292  34.819  21.374   8.264
 2047POPC   C3B28293  34.776  21.325   7.964
 2047POPC   C4B28294  34.811  21.400   7.664
 2048POPC   NC328295  30.719  23.715   9.464
 2048POPC   PO428296  30.711  23.669   9.164
 2048POPC   GL128297  30.740  23.668   8.864
 2048POPC   GL228298  30.853  23.691   8.864
 2048POPC   C1A28299  30.694  23.671   8.564
 2048POPC   D2A28300  30.711  23.670   8.264
 2048POPC   C3A28301  30.651  23.703   7.964
 2048POPC   C4A28302  30.731  23.689   7.664
 2048POPC   C1B28303  30.913  23.714   8.564
 2048POPC   C2B28304  30.915  23.705   8.264
 2048POPC   C3B28305  30.904  23.676   7.964
 2048POPC   C4B28306  30.976  23.708   7.664
 2049POPC   NC328307  43.859  30.676   9.464
 2049POPC   PO428308  43.932  30.663   9.164
 2049POPC   GL128309  43.902  30.713   8.864
 2049POPC   GL228310  43.755  30.666   8.864
 2049POPC   C1A28311  43.851  30.678   8.564
 2049POPC   D2A28312  43.865  30.652   8.264
 2049POPC   C3A28313  43.884  30.699   7.964
 2049POPC   C4A28314  43.936  30.671   7.664
 2049POPC   C1B28315  43.683  30.656   8.564
 2049POPC   C2B28316  43.672  30.650   8.264
 2049POPC   C3B28317  43.685  30.669   7.964
 2049POPC   C4B28318  43.593  30.616   7.664
 2050POPC   NC328319  42.364  41.585   9.464
 2050POPC   PO428320  42.321  41.515   9.164
 2050POPC   GL128321  42.326  41.526   8.864
 2050POPC   GL228322  42.495  41.586   8.864
 2050POPC   C1A28323  42.317  41.593   8.564
 2050POPC   D2A28324  42.308  41.601   8.264
 2050POPC   C3A28325  42.346  41.579   7.964
 2050POPC   C4A28326  42.291  41.513   7.664
 2050POPC   C1B28327  42.545  41.588   8.564
 2050POPC   C2B28328  42.563  41.544   8.264
 2050POPC   C3B28329  42.546  41.557   7.964
 2050POPC   C4B28330  42.564  41.574   7.664
 2051POPC   NC328331   7.379  36.907   9.464
 2051POPC   PO428332   7.441  36.888   9.164
 2051POPC   GL128333   7.384  36.895   8.864
 2051POPC   GL228334   7.421  37.042   8.864
 2051POPC   C1A28335   7.418  36.862   8.564
 2051POPC   D2A28336   7.414  36.952   8.264
 2051POPC   C3A28337   7.402  36.915   7.964
 2051POPC   C4A28338   7.389  36.916   7.664
 2051POPC   C1B28339   7.498  37.143   8.564
 2051POPC   C2B28340   7.526  37.156   8.264
 2051POPC   C3B28341   7.474  37.177   7.964
 2051POPC   C4B28342   7.523  37.143   7.664
 2052POPC   NC328343  40.784   2.780   9.464
 2052POPC   PO428344  40.821   2.764   9.164
 2052POPC   GL128345  40.804   2.790   8.864
 2052POPC   GL228346  40.866   2.736   8.864
 2052POPC   C1A28347  40.743   2.768   8.564
 2052POPC   D2A28348  40.738   2.759   8.264
 2052POPC   C3A28349  40.766   2.749   7.964
 2052POPC   C4A28350  40.807   2.730   7.664
 2052POPC   C1B28351  41.007   2.657   8.564
 2052POPC   C2B28352  40.960   2.647   8.264
 2052POPC   C3B28353  41.020   2.610   7.964
 2052POPC   C4B28354  41.006   2.665   7.664
 2053POPC   NC328355  42.351   9.701   9.464
 2053POPC   PO428356  42.330   9.729   9.164
 2053POPC   GL128357  42.295   9.745   8.864
 2053POPC   GL228358  42.377   9.825   8.864
 2053POPC   C1A28359  42.299   9.760   8.564
 2053POPC   D2A28360  42.285   9.752   8.264
 2053POPC   C3A28361  42.287   9.783   7.964
 2053POPC   C4A28362  42.368   9.771   7.664
 2053POPC   C1B28363  42.418   9.982   8.564
 2053POPC   C2B28364  42.453   9.928   8.264
 2053POPC   C3B28365  42.414   9.948   7.964
 2053POPC   C4B28366  42.401   9.955   7.664
 2054POPC   NC328367   9.766   8.222   9.464
 2054POPC   PO428368   9.788   8.237   9.164
 2054POPC   GL128369   9.795   8.163   8.864
 2054POPC   GL228370   9.663   8.280   8.864
 2054POPC   C1A28371   9.755   8.223   8.564
 2054POPC   D2A28372   9.708   8.152   8.264
 2054POPC   C3A28373   9.747   8.241   7.964
 2054POPC   C4A28374   9.779   8.210   7.664
 2054POPC   C1B28375   9.529   8.360   8.564
 2054POPC   C2B28376   9.551   8.294   8.264
 2054POPC   C3B28377   9.555   8.334   7.964
 2054POPC   C4B28378   9.545   8.344   7.664
 2055POPC   NC328379   1.167   1.226   9.464
 2055POPC   PO428380   1.232   1.259   9.164
 2055POPC   GL128381   1.251   1.206   8.864
 2055POPC   GL228382   1.165   1.074   8.864
 2055POPC   C1A28383   1.245   1.250   8.564
 2055POPC   D2A28384   1.235   1.223   8.264
 2055POPC   C3A28385   1.188   1.166   7.964
 2055POPC   C4A28386   1.188   1.254   7.664
 2055POPC   C1B28387   1.090   1.055   8.564
 2055POPC   C2B28388   1.057   1.061   8.264
 2055POPC   C3B28389   1.051   1.058   7.964
 2055POPC   C4B28390   1.062   1.075   7.664
 2056POPC   NC328391  15.218   7.406   9.464
 2056POPC   PO428392  15.194   7.387   9.164
 2056POPC   GL128393  15.216   7.424   8.864
 2056POPC   GL228394  15.136   7.541   8.864
 2056POPC   C1A28395  15.160   7.466   8.564
 2056POPC   D2A28396  15.171   7.452   8.264
 2056POPC   C3A28397  15.171   7.437   7.964
 2056POPC   C4A28398  15.164   7.394   7.664
 2056POPC   C1B28399  15.021   7.578   8.564
 2056POPC   C2B28400  15.051   7.585   8.264
 2056POPC   C3B28401  15.045   7.609   7.964
 2056POPC   C4B28402  15.053   7.594   7.664
 2057POPC   NC328403   4.351  18.242   9.464
 2057POPC   PO428404   4.354  18.299   9.164
 2057POPC   GL128405   4.283  18.245   8.864
 2057POPC   GL228406   4.200  18.165   8.864
 2057POPC   C1A28407   4.367  18.306   8.564
 2057POPC   D2A28408   4.339  18.314   8.264
 2057POPC   C3A28409   4.320  18.289   7.964
 2057POPC   C4A28410   4.314  18.242   7.664
 2057POPC   C1B28411   4.068  18.172   8.564
 2057POPC   C2B28412   4.132  18.176   8.264
 2057POPC   C3B28413   4.062  18.180   7.964
 2057POPC   C4B28414   4.086  18.135   7.664
 2058POPC   NC328415  29.962  12.802   9.464
 2058POPC   PO428416  29.895  12.860   9.164
 2058POPC   GL128417  29.872  12.802   8.864
 2058POPC   GL228418  29.983  12.951   8.864
 2058POPC   C1A28419  29.946  12.823   8.564
 2058POPC   D2A28420  29.938  12.889   8.264
 2058POPC   C3A28421  29.883  12.833   7.964
 2058POPC   C4A28422  29.926  12.827   7.664
 2058POPC   C1B28423  30.094  13.013   8.564
 2058POPC   C2B28424  30.052  13.072   8.264
 2058POPC   C3B28425  30.099  13.034   7.964
 2058POPC   C4B28426  30.027  13.044   7.664
 2059POPC   NC328427  33.001  29.878   9.464
 2059POPC   PO428428  33.070  29.934   9.164
 2059POPC   GL128429  33.006  29.952   8.864
 2059POPC   GL228430  32.928  29.902   8.864
 2059POPC   C1A28431  33.015  29.969   8.564
 2059POPC   D2A28432  32.980  29.924   8.264
 2059POPC   C3A28433  32.978  29.918   7.964
 2059POPC   C4A28434  33.002  29.914   7.664
 2059POPC   C1B28435  32.799  29.833   8.564
 2059POPC   C2B28436  32.733  29.826   8.264
 2059POPC   C3B28437  32.796  29.821   7.964
 2059POPC   C4B28438  32.741  29.907   7.664
 2060POPC   NC328439  25.299  29.177   9.464
 2060POPC   PO428440  25.258  29.179   9.164
 2060POPC   GL128441  25.297  29.155   8.864
 2060POPC   GL228442  25.400  29.124   8.864
 2060POPC   C1A28443  25.254  29.185   8.564
 2060POPC   D2A28444  25.303  29.173   8.264
 2060POPC   C3A28445  25.283  29.116   7.964
 2060POPC   C4A28446  25.252  29.126   7.664
 2060POPC   C1B28447  25.544  29.049   8.564
 2060POPC   C2B28448  25.519  29.131   8.264
 2060POPC   C3B28449  25.491  29.063   7.964
 2060POPC   C4B28450  25.515  29.063   7.664
 2061POPC   NC328451   5.842  29.106   9.464
 2061POPC   PO428452   5.831  29.180   9.164
 2061POPC   GL128453   5.865  29.161   8.864
 2061POPC   GL228454   5.776  29.242   8.864
 2061POPC   C1A28455   5.862  29.159   8.564
 2061POPC   D2A28456   5.844  29.168   8.264
 2061POPC   C3A28457   5.842  29.192   7.964
 2061POPC   C4A28458   5.897  29.169   7.664
 2061POPC   C1B28459   5.701  29.322   8.564
 2061POPC   C2B28460   5.656  29.273   8.264
 2061POPC   C3B28461   5.656  29.301   7.964
 2061POPC   C4B28462   5.682  29.354   7.664
 2062POPC   NC328463  39.969  12.089   9.464
 2062POPC   PO428464  39.989  12.058   9.164
 2062POPC   GL128465  39.987  12.114   8.864
 2062POPC   GL228466  40.148  11.966   8.864
 2062POPC   C1A28467  40.021  12.092   8.564
 2062POPC   D2A28468  39.959  12.120   8.264
 2062POPC   C3A28469  40.054  12.036   7.964
 2062POPC   C4A28470  40.035  12.080   7.664
 2062POPC   C1B28471  40.222  11.924   8.564
 2062POPC   C2B28472  40.205  11.923   8.264
 2062POPC   C3B28473  40.187  11.932   7.964
 2062POPC   C4B28474  40.194  11.893   7.664
 2063POPC   NC328475   1.250  14.397   9.464
 2063POPC   PO428476   1.200  14.443   9.164
 2063POPC   GL128477   1.218  14.359   8.864
 2063POPC   GL228478   1.066  14.473   8.864
 2063POPC   C1A28479   1.251  14.401   8.564
 2063POPC   D2A28480   1.208  14.451   8.264
 2063POPC   C3A28481   1.208  14.418   7.964
 2063POPC   C4A28482   1.196  14.408   7.664
 2063POPC   C1B28483   0.970  14.483   8.564
 2063POPC   C2B28484   0.974  14.540   8.264
 2063POPC   C3B28485   1.027  14.547   7.964
 2063POPC   C4B28486   1.040  14.575   7.664
 2064POPC   NC328487  20.609  38.450   9.464
 2064POPC   PO428488  20.592  38.480   9.164
 2064POPC   GL128489  20.655  38.504   8.864
 2064POPC   GL228490  20.585  38.303   8.864
 2064POPC   C1A28491  20.602  38.439   8.564
 2064POPC   D2A28492  20.600  38.425   8.264
 2064POPC   C3A28493  20.577  38.417   7.964
 2064POPC   C4A28494  20.577  38.423   7.664
 2064POPC   C1B28495  20.567  38.213   8.564
 2064POPC   C2B28496  20.599  38.169   8.264
 2064POPC   C3B28497  20.625  38.230   7.964
 2064POPC   C4B28498  20.548  38.253   7.664
 2065POPC   NC328499  21.342  24.453   9.464
 2065POPC   PO428500  21.421  24.446   9.164
 2065POPC   GL128501  21.359  24.508   8.864
 2065POPC   GL228502  21.435  24.416   8.864
 2065POPC   C1A28503  21.341  24.441   8.564
 2065POPC   D2A28504  21.389  24.535   8.264
 2065POPC   C3A28505  21.406  24.533   7.964
 2065POPC   C4A28506  21.391  24.490   7.664
 2065POPC   C1B28507  21.500  24.241   8.564
 2065POPC   C2B28508  21.486  24.276   8.264
 2065POPC   C3B28509  21.503  24.216   7.964
 2065POPC   C4B28510  21.412  24.209   7.664
 2066POPC   NC328511  15.963  43.881   9.464
 2066POPC   PO428512  15.908  43.926   9.164
 2066POPC   GL128513  15.985  43.885   8.864
 2066POPC   GL228514  15.785  43.864   8.864
 2066POPC   C1A28515  15.968  43.933   8.564
 2066POPC   D2A28516  15.916  43.927   8.264
 2066POPC   C3A28517  15.913  43.900   7.964
 2066POPC   C4A28518  15.946  43.879   7.664
 2066POPC   C1B28519  15.718  43.927   8.564
 2066POPC   C2B28520  15.660  43.908   8.264
 2066POPC   C3B28521  15.664  43.855   7.964
 2066POPC   C4B28522  15.689  43.889   7.664
 2067POPC   NC328523  11.321  14.393   9.464
 2067POPC   PO428524  11.283  14.450   9.164
 2067POPC   GL128525  11.317  14.361   8.864
 2067POPC   GL228526  11.180  14.349   8.864
 2067POPC   C1A28527  11.317  14.391   8.564
 2067POPC   D2A28528  11.265  14.453   8.264
 2067POPC   C3A28529  11.277  14.447   7.964
 2067POPC   C4A28530  11.318  14.448   7.664
 2067POPC   C1B28531  11.052  14.346   8.564
 2067POPC   C2B28532  11.114  14.358   8.264
 2067POPC   C3B28533  11.069  14.311   7.964
 2067POPC   C4B28534  11.055  14.290   7.664
 2068POPC   NC328535  42.326  39.256   9.464
 2068POPC   PO428536  42.298  39.276   9.164
 2068POPC   GL128537  42.317  39.220   8.864
 2068POPC   GL228538  42.429  39.140   8.864
 2068POPC   C1A28539  42.376  39.261   8.564
 2068POPC   D2A28540  42.290  39.213   8.264
 2068POPC   C3A28541  42.349  39.188   7.964
 2068POPC   C4A28542  42.349  39.258   7.664
 2068POPC   C1B28543  42.521  39.073   8.564
 2068POPC   C2B28544  42.493  39.127   8.264
 2068POPC   C3B28545  42.571  39.103   7.964
 2068POPC   C4B28546  42.501  39.082   7.664
 2069POPC   NC328547  36.905  44.691   9.464
 2069POPC   PO428548  36.855  44.703   9.164
 2069POPC   GL128549  36.910  44.665   8.864
 2069POPC   GL228550  37.024  44.724   8.864
 2069POPC   C1A28551  36.868  44.688   8.564
 2069POPC   D2A28552  36.870  44.652   8.264
 2069POPC   C3A28553  36.862  44.648   7.964
 2069POPC   C4A28554  36.905  44.706   7.664
 2069POPC   C1B28555  37.115  44.781   8.564
 2069POPC   C2B28556  37.070  44.808   8.264
 2069POPC   C3B28557  37.109  44.807   7.964
 2069POPC   C4B28558  37.132  44.801   7.664
 2070POPC   NC328559  32.260  36.925   9.464
 2070POPC   PO428560  32.291  36.937   9.164
 2070POPC   GL128561  32.273  36.883   8.864
 2070POPC   GL228562  32.274  36.813   8.864
 2070POPC   C1A28563  32.286  36.896   8.564
 2070POPC   D2A28564  32.221  36.899   8.264
 2070POPC   C3A28565  32.201  36.942   7.964
 2070POPC   C4A28566  32.230  36.938   7.664
 2070POPC   C1B28567  32.352  36.623   8.564
 2070POPC   C2B28568  32.358  36.703   8.264
 2070POPC   C3B28569  32.324  36.628   7.964
 2070POPC   C4B28570  32.326  36.685   7.664
 2071POPC   NC328571  31.520  19.063   9.464
 2071POPC   PO428572  31.471  19.049   9.164
 2071POPC   GL128573  31.491  19.080   8.864
 2071POPC   GL228574  31.433  18.978   8.864
 2071POPC   C1A28575  31.515  19.067   8.564
 2071POPC   D2A28576  31.442  19.098   8.264
 2071POPC   C3A28577  31.471  19.107   7.964
 2071POPC   C4A28578  31.435  19.069   7.664
 2071POPC   C1B28579  31.511  18.773   8.564
 2071POPC   C2B28580  31.506  18.773   8.264
 2071POPC   C3B28581  31.463  18.804   7.964
 2071POPC   C4B28582  31.455  18.763   7.664
 2072POPC   NC328583   1.249  27.616   9.464
 2072POPC   PO428584   1.242  27.583   9.164
 2072POPC   GL128585   1.215  27.583   8.864
 2072POPC   GL228586   1.106  27.650   8.864
 2072POPC   C1A28587   1.180  27.603   8.564
 2072POPC   D2A28588   1.225  27.571   8.264
 2072POPC   C3A28589   1.195  27.572   7.964
 2072POPC   C4A28590   1.250  27.629   7.664
 2072POPC   C1B28591   1.109  27.778   8.564
 2072POPC   C2B28592   1.073  27.854   8.264
 2072POPC   C3B28593   1.051  27.773   7.964
 2072POPC   C4B28594   1.049  27.853   7.664
 2073POPC   NC328595  19.102  27.626   9.464
 2073POPC   PO428596  19.087  27.612   9.164
 2073POPC   GL128597  19.046  27.584   8.864
 2073POPC   GL228598  19.178  27.539   8.864
 2073POPC   C1A28599  19.048  27.604   8.564
 2073POPC   D2A28600  19.082  27.613   8.264
 2073POPC   C3A28601  19.058  27.618   7.964
 2073POPC   C4A28602  19.082  27.628   7.664
 2073POPC   C1B28603  19.305  27.532   8.564
 2073POPC   C2B28604  19.285  27.585   8.264
 2073POPC   C3B28605  19.341  27.582   7.964
 2073POPC   C4B28606  19.306  27.510   7.664
 2074POPC   NC328607   9.746  12.804   9.464
 2074POPC   PO428608   9.793  12.815   9.164
 2074POPC   GL128609   9.794  12.857   8.864
 2074POPC   GL228610   9.670  12.855   8.864
 2074POPC   C1A28611   9.780  12.887   8.564
 2074POPC   D2A28612   9.743  12.884   8.264
 2074POPC   C3A28613   9.738  12.821   7.964
 2074POPC   C4A28614   9.723  12.895   7.664
 2074POPC   C1B28615   9.546  12.720   8.564
 2074POPC   C2B28616   9.540  12.748   8.264
 2074POPC   C3B28617   9.477  12.750   7.964
 2074POPC   C4B28618   9.540  12.786   7.664
 2075POPC   NC328619   6.684  40.741   9.464
 2075POPC   PO428620   6.607  40.785   9.164
 2075POPC   GL128621   6.656  40.831   8.864
 2075POPC   GL228622   6.589  40.740   8.864
 2075POPC   C1A28623   6.622  40.765   8.564
 2075POPC   D2A28624   6.596  40.784   8.264
 2075POPC   C3A28625   6.683  40.745   7.964
 2075POPC   C4A28626   6.653  40.748   7.664
 2075POPC   C1B28627   6.466  40.568   8.564
 2075POPC   C2B28628   6.443  40.608   8.264
 2075POPC   C3B28629   6.457  40.600   7.964
 2075POPC   C4B28630   6.461  40.617   7.664
 2076POPC   NC328631  44.670  37.696   9.464
 2076POPC   PO428632  44.665  37.650   9.164
 2076POPC   GL128633  44.696  37.650   8.864
 2076POPC   GL228634  44.709  37.813   8.864
 2076POPC   C1A28635  44.640  37.667   8.564
 2076POPC   D2A28636  44.670  37.675   8.264
 2076POPC   C3A28637  44.692  37.635   7.964
 2076POPC   C4A28638  44.658  37.687   7.664
 2076POPC   C1B28639  44.767  37.884   8.564
 2076POPC   C2B28640  44.699  37.922   8.264
 2076POPC   C3B28641  44.762  37.968   7.964
 2076POPC   C4B28642  44.707  37.940   7.664
 2077POPC   NC328643   2.736  12.846   9.464
 2077POPC   PO428644   2.805  12.880   9.164
 2077POPC   GL128645   2.723  12.805   8.864
 2077POPC   GL228646   2.633  12.738   8.864
 2077POPC   C1A28647   2.741  12.836   8.564
 2077POPC   D2A28648   2.723  12.813   8.264
 2077POPC   C3A28649   2.764  12.803   7.964
 2077POPC   C4A28650   2.720  12.877   7.664
 2077POPC   C1B28651   2.560  12.701   8.564
 2077POPC   C2B28652   2.590  12.689   8.264
 2077POPC   C3B28653   2.638  12.707   7.964
 2077POPC   C4B28654   2.627  12.643   7.664
 2078POPC   NC328655  32.239  33.842   9.464
 2078POPC   PO428656  32.272  33.793   9.164
 2078POPC   GL128657  32.252  33.807   8.864
 2078POPC   GL228658  32.299  33.949   8.864
 2078POPC   C1A28659  32.243  33.773   8.564
 2078POPC   D2A28660  32.249  33.847   8.264
 2078POPC   C3A28661  32.204  33.771   7.964
 2078POPC   C4A28662  32.271  33.761   7.664
 2078POPC   C1B28663  32.334  34.022   8.564
 2078POPC   C2B28664  32.408  34.055   8.264
 2078POPC   C3B28665  32.340  33.992   7.964
 2078POPC   C4B28666  32.374  33.969   7.664
 2079POPC   NC328667  29.911  25.251   9.464
 2079POPC   PO428668  29.953  25.310   9.164
 2079POPC   GL128669  29.961  25.252   8.864
 2079POPC   GL228670  29.794  25.170   8.864
 2079POPC   C1A28671  29.871  25.302   8.564
 2079POPC   D2A28672  29.900  25.250   8.264
 2079POPC   C3A28673  29.904  25.252   7.964
 2079POPC   C4A28674  29.886  25.261   7.664
 2079POPC   C1B28675  29.677  25.114   8.564
 2079POPC   C2B28676  29.740  25.160   8.264
 2079POPC   C3B28677  29.700  25.113   7.964
 2079POPC   C4B28678  29.654  25.125   7.664
 2080POPC   NC328679   2.029   1.245   9.464
 2080POPC   PO428680   2.026   1.184   9.164
 2080POPC   GL128681   2.012   1.212   8.864
 2080POPC   GL228682   2.085   1.298   8.864
 2080POPC   C1A28683   1.975   1.233   8.564
 2080POPC   D2A28684   1.951   1.208   8.264
 2080POPC   C3A28685   2.027   1.258   7.964
 2080POPC   C4A28686   1.992   1.246   7.664
 2080POPC   C1B28687   2.182   1.363   8.564
 2080POPC   C2B28688   2.223   1.414   8.264
 2080POPC   C3B28689   2.153   1.355   7.964
 2080POPC   C4B28690   2.212   1.373   7.664
 2081POPC   NC328691  32.278  19.035   9.464
 2081POPC   PO428692  32.222  19.091   9.164
 2081POPC   GL128693  32.205  19.063   8.864
 2081POPC   GL228694  32.129  18.993   8.864
 2081POPC   C1A28695  32.249  19.084   8.564
 2081POPC   D2A28696  32.263  19.023   8.264
 2081POPC   C3A28697  32.270  19.100   7.964
 2081POPC   C4A28698  32.294  19.037   7.664
 2081POPC   C1B28699  32.093  18.930   8.564
 2081POPC   C2B28700  32.068  18.944   8.264
 2081POPC   C3B28701  32.054  18.876   7.964
 2081POPC   C4B28702  31.998  18.921   7.664
 2082POPC   NC328703  24.480  36.936   9.464
 2082POPC   PO428704  24.495  36.885   9.164
 2082POPC   GL128705  24.483  36.910   8.864
 2082POPC   GL228706  24.370  36.899   8.864
 2082POPC   C1A28707  24.473  36.933   8.564
 2082POPC   D2A28708  24.528  36.869   8.264
 2082POPC   C3A28709  24.483  36.919   7.964
 2082POPC   C4A28710  24.515  36.898   7.664
 2082POPC   C1B28711  24.209  36.875   8.564
 2082POPC   C2B28712  24.250  36.809   8.264
 2082POPC   C3B28713  24.262  36.804   7.964
 2082POPC   C4B28714  24.208  36.861   7.664
 2083POPC   NC328715  14.398   1.972   9.464
 2083POPC   PO428716  14.366   1.996   9.164
 2083POPC   GL128717  14.431   1.956   8.864
 2083POPC   GL228718  14.461   1.927   8.864
 2083POPC   C1A28719  14.372   2.027   8.564
 2083POPC   D2A28720  14.386   2.002   8.264
 2083POPC   C3A28721  14.373   2.031   7.964
 2083POPC   C4A28722  14.421   2.032   7.664
 2083POPC   C1B28723  14.598   1.837   8.564
 2083POPC   C2B28724  14.634   1.846   8.264
 2083POPC   C3B28725  14.539   1.840   7.964
 2083POPC   C4B28726  14.579   1.850   7.664
 2084POPC   NC328727  26.022  15.155   9.464
 2084POPC   PO428728  26.036  15.216   9.164
 2084POPC   GL128729  25.998  15.132   8.864
 2084POPC   GL228730  25.971  15.258   8.864
 2084POPC   C1A28731  26.035  15.196   8.564
 2084POPC   D2A28732  26.041  15.130   8.264
 2084POPC   C3A28733  25.999  15.176   7.964
 2084POPC   C4A28734  25.995  15.227   7.664
 2084POPC   C1B28735  25.979  15.433   8.564
 2084POPC   C2B28736  25.951  15.424   8.264
 2084POPC   C3B28737  25.944  15.377   7.964
 2084POPC   C4B28738  25.994  15.468   7.664
 2085POPC   NC328739   3.511  13.648   9.464
 2085POPC   PO428740   3.538  13.668   9.164
 2085POPC   GL128741   3.512  13.665   8.864
 2085POPC   GL228742   3.544  13.723   8.864
 2085POPC   C1A28743   3.550  13.661   8.564
 2085POPC   D2A28744   3.570  13.623   8.264
 2085POPC   C3A28745   3.514  13.661   7.964
 2085POPC   C4A28746   3.588  13.629   7.664
 2085POPC   C1B28747   3.537  13.855   8.564
 2085POPC   C2B28748   3.542  13.905   8.264
 2085POPC   C3B28749   3.595  13.888   7.964
 2085POPC   C4B28750   3.597  13.840   7.664
 2086POPC   NC328751   5.140  39.971   9.464
 2086POPC   PO428752   5.120  40.043   9.164
 2086POPC   GL128753   5.080  40.052   8.864
 2086POPC   GL228754   5.010  39.957   8.864
 2086POPC   C1A28755   5.097  40.019   8.564
 2086POPC   D2A28756   5.139  39.965   8.264
 2086POPC   C3A28757   5.087  40.021   7.964
 2086POPC   C4A28758   5.075  39.985   7.664
 2086POPC   C1B28759   4.930  39.803   8.564
 2086POPC   C2B28760   4.961  39.810   8.264
 2086POPC   C3B28761   4.967  39.786   7.964
 2086POPC   C4B28762   4.938  39.816   7.664
 2087POPC   NC328763  14.410  33.752   9.464
 2087POPC   PO428764  14.360  33.822   9.164
 2087POPC   GL128765  14.407  33.822   8.864
 2087POPC   GL228766  14.470  33.682   8.864
 2087POPC   C1A28767  14.420  33.804   8.564
 2087POPC   D2A28768  14.447  33.791   8.264
 2087POPC   C3A28769  14.387  33.826   7.964
 2087POPC   C4A28770  14.444  33.830   7.664
 2087POPC   C1B28771  14.607  33.639   8.564
 2087POPC   C2B28772  14.579  33.613   8.264
 2087POPC   C3B28773  14.646  33.636   7.964
 2087POPC   C4B28774  14.580  33.635   7.664
 2088POPC   NC328775  36.131  15.152   9.464
 2088POPC   PO428776  36.157  15.199   9.164
 2088POPC   GL128777  36.121  15.145   8.864
 2088POPC   GL228778  36.280  15.179   8.864
 2088POPC   C1A28779  36.110  15.178   8.564
 2088POPC   D2A28780  36.084  15.197   8.264
 2088POPC   C3A28781  36.165  15.131   7.964
 2088POPC   C4A28782  36.175  15.143   7.664
 2088POPC   C1B28783  36.360  15.171   8.564
 2088POPC   C2B28784  36.355  15.179   8.264
 2088POPC   C3B28785  36.392  15.119   7.964
 2088POPC   C4B28786  36.348  15.146   7.664
 2089POPC   NC328787  26.053   8.962   9.464
 2089POPC   PO428788  26.071   8.993   9.164
 2089POPC   GL128789  26.047   9.019   8.864
 2089POPC   GL228790  25.956   8.831   8.864
 2089POPC   C1A28791  26.028   8.992   8.564
 2089POPC   D2A28792  26.069   8.970   8.264
 2089POPC   C3A28793  26.082   8.936   7.964
 2089POPC   C4A28794  26.078   9.000   7.664
 2089POPC   C1B28795  26.008   8.777   8.564
 2089POPC   C2B28796  25.943   8.760   8.264
 2089POPC   C3B28797  25.977   8.688   7.964
 2089POPC   C4B28798  25.955   8.753   7.664
 2090POPC   NC328799  22.969  15.174   9.464
 2090POPC   PO428800  22.938  15.221   9.164
 2090POPC   GL128801  22.978  15.190   8.864
 2090POPC   GL228802  22.836  15.191   8.864
 2090POPC   C1A28803  22.906  15.178   8.564
 2090POPC   D2A28804  22.965  15.227   8.264
 2090POPC   C3A28805  22.924  15.148   7.964
 2090POPC   C4A28806  22.971  15.145   7.664
 2090POPC   C1B28807  22.696  15.180   8.564
 2090POPC   C2B28808  22.670  15.149   8.264
 2090POPC   C3B28809  22.671  15.188   7.964
 2090POPC   C4B28810  22.737  15.178   7.664
 2091POPC   NC328811  19.086  44.692   9.464
 2091POPC   PO428812  19.074  44.639   9.164
 2091POPC   GL128813  19.045  44.638   8.864
 2091POPC   GL228814  19.089  44.488   8.864
 2091POPC   C1A28815  19.046  44.625   8.564
 2091POPC   D2A28816  19.088  44.639   8.264
 2091POPC   C3A28817  19.073  44.670   7.964
 2091POPC   C4A28818  19.041  44.706   7.664
 2091POPC   C1B28819  18.998  44.393   8.564
 2091POPC   C2B28820  19.059  44.366   8.264
 2091POPC   C3B28821  19.079  44.451   7.964
 2091POPC   C4B28822  19.060  44.432   7.664
 2092POPC   NC328823  17.549   2.033   9.464
 2092POPC   PO428824  17.534   1.960   9.164
 2092POPC   GL128825  17.486   2.038   8.864
 2092POPC   GL228826  17.563   1.908   8.864
 2092POPC   C1A28827  17.458   2.024   8.564
 2092POPC   D2A28828  17.510   1.994   8.264
 2092POPC   C3A28829  17.476   1.999   7.964
 2092POPC   C4A28830  17.505   2.008   7.664
 2092POPC   C1B28831  17.686   1.840   8.564
 2092POPC   C2B28832  17.686   1.830   8.264
 2092POPC   C3B28833  17.700   1.839   7.964
 2092POPC   C4B28834  17.717   1.819   7.664
 2093POPC   NC328835  15.987  43.065   9.464
 2093POPC   PO428836  15.980  43.105   9.164
 2093POPC   GL128837  15.944  43.090   8.864
 2093POPC   GL228838  16.114  43.177   8.864
 2093POPC   C1A28839  15.937  43.122   8.564
 2093POPC   D2A28840  15.955  43.117   8.264
 2093POPC   C3A28841  15.989  43.074   7.964
 2093POPC   C4A28842  15.949  43.153   7.664
 2093POPC   C1B28843  16.172  43.140   8.564
 2093POPC   C2B28844  16.183  43.138   8.264
 2093POPC   C3B28845  16.244  43.162   7.964
 2093POPC   C4B28846  16.217  43.216   7.664
 2094POPC   NC328847  19.807  29.169   9.464
 2094POPC   PO428848  19.841  29.144   9.164
 2094POPC   GL128849  19.787  29.114   8.864
 2094POPC   GL228850  19.805  29.217   8.864
 2094POPC   C1A28851  19.837  29.156   8.564
 2094POPC   D2A28852  19.847  29.162   8.264
 2094POPC   C3A28853  19.878  29.106   7.964
 2094POPC   C4A28854  19.790  29.157   7.664
 2094POPC   C1B28855  19.669  29.401   8.564
 2094POPC   C2B28856  19.674  29.411   8.264
 2094POPC   C3B28857  19.677  29.339   7.964
 2094POPC   C4B28858  19.710  29.392   7.664
 2095POPC   NC328859  37.673  36.081   9.464
 2095POPC   PO428860  37.697  36.100   9.164
 2095POPC   GL128861  37.640  36.105   8.864
 2095POPC   GL228862  37.653  36.290   8.864
 2095POPC   C1A28863  37.671  36.164   8.564
 2095POPC   D2A28864  37.640  36.166   8.264
 2095POPC   C3A28865  37.685  36.099   7.964
 2095POPC   C4A28866  37.640  36.117   7.664
 2095POPC   C1B28867  37.659  36.391   8.564
 2095POPC   C2B28868  37.637  36.329   8.264
 2095POPC   C3B28869  37.640  36.352   7.964
 2095POPC   C4B28870  37.674  36.326   7.664
 2096POPC   NC328871  42.327  31.519   9.464
 2096POPC   PO428872  42.369  31.487   9.164
 2096POPC   GL128873  42.301  31.427   8.864
 2096POPC   GL228874  42.409  31.623   8.864
 2096POPC   C1A28875  42.314  31.446   8.564
 2096POPC   D2A28876  42.287  31.517   8.264
 2096POPC   C3A28877  42.316  31.454   7.964
 2096POPC   C4A28878  42.286  31.433   7.664
 2096POPC   C1B28879  42.436  31.735   8.564
 2096POPC   C2B28880  42.382  31.708   8.264
 2096POPC   C3B28881  42.371  31.758   7.964
 2096POPC   C4B28882  42.377  31.727   7.664
 2097POPC   NC328883  29.941  18.331   9.464
 2097POPC   PO428884  29.961  18.296   9.164
 2097POPC   GL128885  29.927  18.273   8.864
 2097POPC   GL228886  30.009  18.189   8.864
 2097POPC   C1A28887  29.946  18.309   8.564
 2097POPC   D2A28888  29.917  18.264   8.264
 2097POPC   C3A28889  29.950  18.287   7.964
 2097POPC   C4A28890  29.935  18.317   7.664
 2097POPC   C1B28891  30.043  18.082   8.564
 2097POPC   C2B28892  30.081  18.050   8.264
 2097POPC   C3B28893  30.007  18.110   7.964
 2097POPC   C4B28894  30.045  18.065   7.664
 2098POPC   NC328895  29.947  15.143   9.464
 2098POPC   PO428896  29.921  15.213   9.164
 2098POPC   GL128897  29.963  15.204   8.864
 2098POPC   GL228898  29.751  15.118   8.864
 2098POPC   C1A28899  29.942  15.229   8.564
 2098POPC   D2A28900  29.875  15.193   8.264
 2098POPC   C3A28901  29.900  15.155   7.964
 2098POPC   C4A28902  29.911  15.224   7.664
 2098POPC   C1B28903  29.721  15.093   8.564
 2098POPC   C2B28904  29.728  15.091   8.264
 2098POPC   C3B28905  29.684  15.085   7.964
 2098POPC   C4B28906  29.688  15.146   7.664
 2099POPC   NC328907  15.131  10.570   9.464
 2099POPC   PO428908  15.198  10.571   9.164
 2099POPC   GL128909  15.212  10.560   8.864
 2099POPC   GL228910  15.138  10.678   8.864
 2099POPC   C1A28911  15.156  10.497   8.564
 2099POPC   D2A28912  15.220  10.505   8.264
 2099POPC   C3A28913  15.200  10.506   7.964
 2099POPC   C4A28914  15.142  10.569   7.664
 2099POPC   C1B28915  15.117  10.733   8.564
 2099POPC   C2B28916  15.116  10.727   8.264
 2099POPC   C3B28917  15.072  10.777   7.964
 2099POPC   C4B28918  15.066  10.783   7.664
 2100POPC   NC328919   0.392  28.404   9.464
 2100POPC   PO428920   0.454  28.417   9.164
 2100POPC   GL128921   0.475  28.327   8.864
 2100POPC   GL228922   0.596  28.407   8.864
 2100POPC   C1A28923   0.392  28.345   8.564
 2100POPC   D2A28924   0.457  28.401   8.264
 2100POPC   C3A28925   0.461  28.415   7.964
 2100POPC   C4A28926   0.406  28.339   7.664
 2100POPC   C1B28927   0.655  28.493   8.564
 2100POPC   C2B28928   0.713  28.427   8.264
 2100POPC   C3B28929   0.631  28.410   7.964
 2100POPC   C4B28930   0.637  28.423   7.664
 2101POPC   NC328931  27.599  42.310   9.464
 2101POPC   PO428932  27.635  42.381   9.164
 2101POPC   GL128933  27.640  42.378   8.864
 2101POPC   GL228934  27.447  42.239   8.864
 2101POPC   C1A28935  27.559  42.286   8.564
 2101POPC   D2A28936  27.582  42.363   8.264
 2101POPC   C3A28937  27.578  42.384   7.964
 2101POPC   C4A28938  27.608  42.337   7.664
 2101POPC   C1B28939  27.314  42.200   8.564
 2101POPC   C2B28940  27.326  42.195   8.264
 2101POPC   C3B28941  27.363  42.224   7.964
 2101POPC   C4B28942  27.334  42.279   7.664
 2102POPC   NC328943  15.221  26.821   9.464
 2102POPC   PO428944  15.147  26.825   9.164
 2102POPC   GL128945  15.174  26.850   8.864
 2102POPC   GL228946  15.185  26.697   8.864
 2102POPC   C1A28947  15.223  26.808   8.564
 2102POPC   D2A28948  15.225  26.818   8.264
 2102POPC   C3A28949  15.184  26.810   7.964
 2102POPC   C4A28950  15.159  26.835   7.664
 2102POPC   C1B28951  15.109  26.592   8.564
 2102POPC   C2B28952  15.133  26.580   8.264
 2102POPC   C3B28953  15.141  26.624   7.964
 2102POPC   C4B28954  15.080  26.562   7.664
 2103POPC   NC328955  23.762   3.576   9.464
 2103POPC   PO428956  23.728   3.587   9.164
 2103POPC   GL128957  23.713   3.554   8.864
 2103POPC   GL228958  23.886   3.589   8.864
 2103POPC   C1A28959  23.760   3.583   8.564
 2103POPC   D2A28960  23.697   3.521   8.264
 2103POPC   C3A28961  23.666   3.556   7.964
 2103POPC   C4A28962  23.731   3.536   7.664
 2103POPC   C1B28963  23.958   3.529   8.564
 2103POPC   C2B28964  23.937   3.580   8.264
 2103POPC   C3B28965  23.946   3.593   7.964
 2103POPC   C4B28966  23.912   3.547   7.664
 2104POPC   NC328967  15.986  19.096   9.464
 2104POPC   PO428968  15.975  19.012   9.164
 2104POPC   GL128969  15.929  19.030   8.864
 2104POPC   GL228970  16.032  19.067   8.864
 2104POPC   C1A28971  15.955  19.019   8.564
 2104POPC   D2A28972  15.973  19.064   8.264
 2104POPC   C3A28973  15.990  19.032   7.964
 2104POPC   C4A28974  15.974  19.010   7.664
 2104POPC   C1B28975  16.242  19.057   8.564
 2104POPC   C2B28976  16.168  19.030   8.264
 2104POPC   C3B28977  16.237  18.975   7.964
 2104POPC   C4B28978  16.161  18.987   7.664
 2105POPC   NC328979  28.412  18.322   9.464
 2105POPC   PO428980  28.322  18.238   9.164
 2105POPC   GL128981  28.409  18.324   8.864
 2105POPC   GL228982  28.482  18.393   8.864
 2105POPC   C1A28983  28.354  18.263   8.564
 2105POPC   D2A28984  28.349  18.235   8.264
 2105POPC   C3A28985  28.360  18.252   7.964
 2105POPC   C4A28986  28.369  18.319   7.664
 2105POPC   C1B28987  28.545  18.480   8.564
 2105POPC   C2B28988  28.546  18.452   8.264
 2105POPC   C3B28989  28.485  18.485   7.964
 2105POPC   C4B28990  28.534  18.516   7.664
 2106POPC   NC328991  29.120  22.122   9.464
 2106POPC   PO428992  29.105  22.188   9.164
 2106POPC   GL128993  29.148  22.191   8.864
 2106POPC   GL228994  29.237  22.042   8.864
 2106POPC   C1A28995  29.127  22.176   8.564
 2106POPC   D2A28996  29.176  22.146   8.264
 2106POPC   C3A28997  29.190  22.157   7.964
 2106POPC   C4A28998  29.124  22.208   7.664
 2106POPC   C1B28999  29.276  21.965   8.564
 2106POPC   C2B29000  29.325  21.931   8.264
 2106POPC   C3B29001  29.292  21.978   7.964
 2106POPC   C4B29002  29.238  21.916   7.664
 2107POPC   NC329003  36.113  38.456   9.464
 2107POPC   PO429004  36.082  38.444   9.164
 2107POPC   GL129005  36.118  38.453   8.864
 2107POPC   GL229006  36.010  38.426   8.864
 2107POPC   C1A29007  36.138  38.499   8.564
 2107POPC   D2A29008  36.123  38.438   8.264
 2107POPC   C3A29009  36.147  38.476   7.964
 2107POPC   C4A29010  36.135  38.496   7.664
 2107POPC   C1B29011  35.852  38.414   8.564
 2107POPC   C2B29012  35.878  38.382   8.264
 2107POPC   C3B29013  35.835  38.385   7.964
 2107POPC   C4B29014  35.853  38.413   7.664
 2108POPC   NC329015  36.096  36.879   9.464
 2108POPC   PO429016  36.128  36.874   9.164
 2108POPC   GL129017  36.106  36.879   8.864
 2108POPC   GL229018  36.012  36.917   8.864
 2108POPC   C1A29019  36.165  36.881   8.564
 2108POPC   D2A29020  36.097  36.887   8.264
 2108POPC   C3A29021  36.134  36.906   7.964
 2108POPC   C4A29022  36.130  36.879   7.664
 2108POPC   C1B29023  35.908  36.880   8.564
 2108POPC   C2B29024  35.901  36.889   8.264
 2108POPC   C3B29025  35.888  36.870   7.964
 2108POPC   C4B29026  35.908  36.836   7.664
 2109POPC   NC329027  29.949  12.050   9.464
 2109POPC   PO429028  29.945  12.070   9.164
 2109POPC   GL129029  29.880  12.066   8.864
 2109POPC   GL229030  29.851  11.957   8.864
 2109POPC   C1A29031  29.885  12.095   8.564
 2109POPC   D2A29032  29.944  12.111   8.264
 2109POPC   C3A29033  29.886  12.113   7.964
 2109POPC   C4A29034  29.889  12.110   7.664
 2109POPC   C1B29035  29.876  11.809   8.564
 2109POPC   C2B29036  29.890  11.840   8.264
 2109POPC   C3B29037  29.830  11.812   7.964
 2109POPC   C4B29038  29.856  11.833   7.664
 2110POPC   NC329039  15.137  34.589   9.464
 2110POPC   PO429040  15.224  34.555   9.164
 2110POPC   GL129041  15.197  34.558   8.864
 2110POPC   GL229042  15.172  34.408   8.864
 2110POPC   C1A29043  15.164  34.558   8.564
 2110POPC   D2A29044  15.139  34.614   8.264
 2110POPC   C3A29045  15.185  34.613   7.964
 2110POPC   C4A29046  15.153  34.593   7.664
 2110POPC   C1B29047  15.178  34.315   8.564
 2110POPC   C2B29048  15.255  34.305   8.264
 2110POPC   C3B29049  15.227  34.352   7.964
 2110POPC   C4B29050  15.258  34.291   7.664
 2111POPC   NC329051   5.128   6.628   9.464
 2111POPC   PO429052   5.060   6.671   9.164
 2111POPC   GL129053   5.140   6.680   8.864
 2111POPC   GL229054   5.190   6.597   8.864
 2111POPC   C1A29055   5.046   6.613   8.564
 2111POPC   D2A29056   5.087   6.668   8.264
 2111POPC   C3A29057   5.103   6.666   7.964
 2111POPC   C4A29058   5.139   6.639   7.664
 2111POPC   C1B29059   5.383   6.630   8.564
 2111POPC   C2B29060   5.370   6.580   8.264
 2111POPC   C3B29061   5.345   6.570   7.964
 2111POPC   C4B29062   5.365   6.595   7.664
 2112POPC   NC329063  29.915  43.842   9.464
 2112POPC   PO429064  29.917  43.919   9.164
 2112POPC   GL129065  29.941  43.934   8.864
 2112POPC   GL229066  29.905  43.774   8.864
 2112POPC   C1A29067  29.941  43.930   8.564
 2112POPC   D2A29068  29.891  43.855   8.264
 2112POPC   C3A29069  29.888  43.922   7.964
 2112POPC   C4A29070  29.942  43.865   7.664
 2112POPC   C1B29071  29.965  43.596   8.564
 2112POPC   C2B29072  29.973  43.651   8.264
 2112POPC   C3B29073  29.973  43.626   7.964
 2112POPC   C4B29074  29.982  43.663   7.664
 2113POPC   NC329075  11.268  21.405   9.464
 2113POPC   PO429076  11.268  21.342   9.164
 2113POPC   GL129077  11.282  21.394   8.864
 2113POPC   GL229078  11.258  21.538   8.864
 2113POPC   C1A29079  11.347  21.415   8.564
 2113POPC   D2A29080  11.273  21.375   8.264
 2113POPC   C3A29081  11.340  21.387   7.964
 2113POPC   C4A29082  11.326  21.344   7.664
 2113POPC   C1B29083  11.250  21.603   8.564
 2113POPC   C2B29084  11.297  21.681   8.264
 2113POPC   C3B29085  11.329  21.682   7.964
 2113POPC   C4B29086  11.293  21.591   7.664
 2114POPC   NC329087   8.936  40.787   9.464
 2114POPC   PO429088   8.934  40.743   9.164
 2114POPC   GL129089   9.018  40.739   8.864
 2114POPC   GL229090   8.936  40.671   8.864
 2114POPC   C1A29091   8.982  40.829   8.564
 2114POPC   D2A29092   8.971  40.812   8.264
 2114POPC   C3A29093   8.981  40.744   7.964
 2114POPC   C4A29094   8.953  40.792   7.664
 2114POPC   C1B29095   8.874  40.527   8.564
 2114POPC   C2B29096   8.947  40.514   8.264
 2114POPC   C3B29097   8.870  40.563   7.964
 2114POPC   C4B29098   8.893  40.496   7.664
 2115POPC   NC329099  11.300   5.887   9.464
 2115POPC   PO429100  11.300   5.857   9.164
 2115POPC   GL129101  11.324   5.870   8.864
 2115POPC   GL229102  11.419   5.897   8.864
 2115POPC   C1A29103  11.294   5.918   8.564
 2115POPC   D2A29104  11.266   5.833   8.264
 2115POPC   C3A29105  11.254   5.854   7.964
 2115POPC   C4A29106  11.349   5.860   7.664
 2115POPC   C1B29107  11.543   5.988   8.564
 2115POPC   C2B29108  11.560   5.970   8.264
 2115POPC   C3B29109  11.579   5.924   7.964
 2115POPC   C4B29110  11.590   5.955   7.664
 2116POPC   NC329111  20.619   5.882   9.464
 2116POPC   PO429112  20.613   5.872   9.164
 2116POPC   GL129113  20.638   5.820   8.864
 2116POPC   GL229114  20.722   5.910   8.864
 2116POPC   C1A29115  20.584   5.907   8.564
 2116POPC   D2A29116  20.578   5.827   8.264
 2116POPC   C3A29117  20.626   5.843   7.964
 2116POPC   C4A29118  20.582   5.833   7.664
 2116POPC   C1B29119  20.820   5.920   8.564
 2116POPC   C2B29120  20.894   5.916   8.264
 2116POPC   C3B29121  20.866   5.879   7.964
 2116POPC   C4B29122  20.815   5.863   7.664
 2117POPC   NC329123  20.640   7.408   9.464
 2117POPC   PO429124  20.616   7.424   9.164
 2117POPC   GL129125  20.602   7.416   8.864
 2117POPC   GL229126  20.709   7.346   8.864
 2117POPC   C1A29127  20.625   7.438   8.564
 2117POPC   D2A29128  20.589   7.405   8.264
 2117POPC   C3A29129  20.640   7.463   7.964
 2117POPC   C4A29130  20.612   7.415   7.664
 2117POPC   C1B29131  20.809   7.261   8.564
 2117POPC   C2B29132  20.850   7.218   8.264
 2117POPC   C3B29133  20.822   7.248   7.964
 2117POPC   C4B29134  20.764   7.237   7.664
 2118POPC   NC329135  44.689   2.791   9.464
 2118POPC   PO429136  44.688   2.747   9.164
 2118POPC   GL129137  44.674   2.774   8.864
 2118POPC   GL229138  44.548   2.797   8.864
 2118POPC   C1A29139  44.680   2.727   8.564
 2118POPC   D2A29140  44.639   2.732   8.264
 2118POPC   C3A29141  44.672   2.790   7.964
 2118POPC   C4A29142  44.636   2.720   7.664
 2118POPC   C1B29143  44.414   2.710   8.564
 2118POPC   C2B29144  44.448   2.727   8.264
 2118POPC   C3B29145  44.441   2.704   7.964
 2118POPC   C4B29146  44.436   2.697   7.664
 2119POPC   NC329147   5.828  22.180   9.464
 2119POPC   PO429148   5.819  22.132   9.164
 2119POPC   GL129149   5.820  22.113   8.864
 2119POPC   GL229150   5.893  22.057   8.864
 2119POPC   C1A29151   5.885  22.177   8.564
 2119POPC   D2A29152   5.888  22.207   8.264
 2119POPC   C3A29153   5.839  22.127   7.964
 2119POPC   C4A29154   5.893  22.174   7.664
 2119POPC   C1B29155   5.892  21.917   8.564
 2119POPC   C2B29156   5.861  21.912   8.264
 2119POPC   C3B29157   5.827  21.899   7.964
 2119POPC   C4B29158   5.868  21.870   7.664
 2120POPC   NC329159  41.608   4.323   9.464
 2120POPC   PO429160  41.598   4.271   9.164
 2120POPC   GL129161  41.509   4.351   8.864
 2120POPC   GL229162  41.647   4.295   8.864
 2120POPC   C1A29163  41.514   4.357   8.564
 2120POPC   D2A29164  41.592   4.291   8.264
 2120POPC   C3A29165  41.568   4.342   7.964
 2120POPC   C4A29166  41.524   4.276   7.664
 2120POPC   C1B29167  41.798   4.344   8.564
 2120POPC   C2B29168  41.851   4.258   8.264
 2120POPC   C3B29169  41.853   4.321   7.964
 2120POPC   C4B29170  41.856   4.351   7.664
 2121POPC   NC329171   9.791  41.548   9.464
 2121POPC   PO429172   9.771  41.526   9.164
 2121POPC   GL129173   9.726  41.578   8.864
 2121POPC   GL229174   9.856  41.594   8.864
 2121POPC   C1A29175   9.731  41.541   8.564
 2121POPC   D2A29176   9.708  41.555   8.264
 2121POPC   C3A29177   9.744  41.589   7.964
 2121POPC   C4A29178   9.748  41.557   7.664
 2121POPC   C1B29179  10.009  41.630   8.564
 2121POPC   C2B29180   9.972  41.599   8.264
 2121POPC   C3B29181  10.029  41.546   7.964
 2121POPC   C4B29182  10.010  41.582   7.664
 2122POPC   NC329183  36.151  17.524   9.464
 2122POPC   PO429184  36.089  17.478   9.164
 2122POPC   GL129185  36.139  17.482   8.864
 2122POPC   GL229186  36.113  17.600   8.864
 2122POPC   C1A29187  36.115  17.502   8.564
 2122POPC   D2A29188  36.173  17.517   8.264
 2122POPC   C3A29189  36.161  17.547   7.964
 2122POPC   C4A29190  36.111  17.513   7.664
 2122POPC   C1B29191  36.016  17.776   8.564
 2122POPC   C2B29192  36.027  17.754   8.264
 2122POPC   C3B29193  36.059  17.760   7.964
 2122POPC   C4B29194  36.007  17.742   7.664
 2123POPC   NC329195  25.275  27.612   9.464
 2123POPC   PO429196  25.259  27.634   9.164
 2123POPC   GL129197  25.300  27.634   8.864
 2123POPC   GL229198  25.140  27.548   8.864
 2123POPC   C1A29199  25.271  27.595   8.564
 2123POPC   D2A29200  25.218  27.637   8.264
 2123POPC   C3A29201  25.294  27.614   7.964
 2123POPC   C4A29202  25.222  27.612   7.664
 2123POPC   C1B29203  25.074  27.525   8.564
 2123POPC   C2B29204  25.070  27.512   8.264
 2123POPC   C3B29205  25.074  27.541   7.964
 2123POPC   C4B29206  25.027  27.519   7.664
 2124POPC   NC329207   5.918  32.259   9.464
 2124POPC   PO429208   5.890  32.211   9.164
 2124POPC   GL129209   5.837  32.273   8.864
 2124POPC   GL229210   5.775  32.195   8.864
 2124POPC   C1A29211   5.871  32.201   8.564
 2124POPC   D2A29212   5.831  32.205   8.264
 2124POPC   C3A29213   5.839  32.258   7.964
 2124POPC   C4A29214   5.846  32.275   7.664
 2124POPC   C1B29215   5.706  32.037   8.564
 2124POPC   C2B29216   5.698  32.020   8.264
 2124POPC   C3B29217   5.711  32.076   7.964
 2124POPC   C4B29218   5.681  32.088   7.664
 2125POPC   NC329219   5.854  31.425   9.464
 2125POPC   PO429220   5.840  31.484   9.164
 2125POPC   GL129221   5.868  31.435   8.864
 2125POPC   GL229222   5.747  31.495   8.864
 2125POPC   C1A29223   5.902  31.495   8.564
 2125POPC   D2A29224   5.827  31.514   8.264
 2125POPC   C3A29225   5.821  31.430   7.964
 2125POPC   C4A29226   5.846  31.480   7.664
 2125POPC   C1B29227   5.669  31.532   8.564
 2125POPC   C2B29228   5.601  31.539   8.264
 2125POPC   C3B29229   5.602  31.572   7.964
 2125POPC   C4B29230   5.627  31.569   7.664
 2126POPC   NC329231  39.192   8.945   9.464
 2126POPC   PO429232  39.195   8.979   9.164
 2126POPC   GL129233  39.233   9.004   8.864
 2126POPC   GL229234  39.301   8.842   8.864
 2126POPC   C1A29235  39.243   9.020   8.564
 2126POPC   D2A29236  39.212   8.946   8.264
 2126POPC   C3A29237  39.246   8.931   7.964
 2126POPC   C4A29238  39.276   8.983   7.664
 2126POPC   C1B29239  39.342   8.721   8.564
 2126POPC   C2B29240  39.269   8.759   8.264
 2126POPC   C3B29241  39.284   8.686   7.964
 2126POPC   C4B29242  39.330   8.694   7.664
 2127POPC   NC329243  36.907  26.016   9.464
 2127POPC   PO429244  36.861  26.003   9.164
 2127POPC   GL129245  36.878  25.998   8.864
 2127POPC   GL229246  36.783  26.085   8.864
 2127POPC   C1A29247  36.899  26.086   8.564
 2127POPC   D2A29248  36.905  26.007   8.264
 2127POPC   C3A29249  36.873  26.073   7.964
 2127POPC   C4A29250  36.930  26.075   7.664
 2127POPC   C1B29251  36.618  26.022   8.564
 2127POPC   C2B29252  36.675  26.003   8.264
 2127POPC   C3B29253  36.617  26.058   7.964
 2127POPC   C4B29254  36.643  26.069   7.664
 2128POPC   NC329255   4.342   8.957   9.464
 2128POPC   PO429256   4.352   8.999   9.164
 2128POPC   GL129257   4.308   8.952   8.864
 2128POPC   GL229258   4.181   8.916   8.864
 2128POPC   C1A29259   4.307   8.999   8.564
 2128POPC   D2A29260   4.337   8.998   8.264
 2128POPC   C3A29261   4.299   8.943   7.964
 2128POPC   C4A29262   4.302   9.010   7.664
 2128POPC   C1B29263   4.019   8.980   8.564
 2128POPC   C2B29264   4.116   8.973   8.264
 2128POPC   C3B29265   4.022   8.985   7.964
 2128POPC   C4B29266   4.021   8.986   7.664
 2129POPC   NC329267  43.064  30.717   9.464
 2129POPC   PO429268  43.142  30.703   9.164
 2129POPC   GL129269  43.140  30.655   8.864
 2129POPC   GL229270  43.163  30.582   8.864
 2129POPC   C1A29271  43.092  30.696   8.564
 2129POPC   D2A29272  43.118  30.686   8.264
 2129POPC   C3A29273  43.063  30.717   7.964
 2129POPC   C4A29274  43.074  30.686   7.664
 2129POPC   C1B29275  43.193  30.495   8.564
 2129POPC   C2B29276  43.224  30.489   8.264
 2129POPC   C3B29277  43.180  30.436   7.964
 2129POPC   C4B29278  43.239  30.486   7.664
 2130POPC   NC329279  15.184  11.265   9.464
 2130POPC   PO429280  15.220  11.336   9.164
 2130POPC   GL129281  15.183  11.307   8.864
 2130POPC   GL229282  15.217  11.187   8.864
 2130POPC   C1A29283  15.172  11.258   8.564
 2130POPC   D2A29284  15.213  11.349   8.264
 2130POPC   C3A29285  15.206  11.323   7.964
 2130POPC   C4A29286  15.145  11.293   7.664
 2130POPC   C1B29287  15.315  11.120   8.564
 2130POPC   C2B29288  15.351  11.131   8.264
 2130POPC   C3B29289  15.319  11.098   7.964
 2130POPC   C4B29290  15.378  11.149   7.664
 2131POPC   NC329291  21.339  35.345   9.464
 2131POPC   PO429292  21.339  35.379   9.164
 2131POPC   GL129293  21.372  35.385   8.864
 2131POPC   GL229294  21.275  35.473   8.864
 2131POPC   C1A29295  21.381  35.377   8.564
 2131POPC   D2A29296  21.367  35.306   8.264
 2131POPC   C3A29297  21.379  35.383   7.964
 2131POPC   C4A29298  21.338  35.306   7.664
 2131POPC   C1B29299  21.267  35.518   8.564
 2131POPC   C2B29300  21.262  35.563   8.264
 2131POPC   C3B29301  21.265  35.569   7.964
 2131POPC   C4B29302  21.208  35.516   7.664
 2132POPC   NC329303  13.612   8.946   9.464
 2132POPC   PO429304  13.626   8.989   9.164
 2132POPC   GL129305  13.622   8.940   8.864
 2132POPC   GL229306  13.558   8.949   8.864
 2132POPC   C1A29307  13.656   9.000   8.564
 2132POPC   D2A29308  13.580   8.974   8.264
 2132POPC   C3A29309  13.639   9.014   7.964
 2132POPC   C4A29310  13.669   9.016   7.664
 2132POPC   C1B29311  13.430   8.799   8.564
 2132POPC   C2B29312  13.448   8.873   8.264
 2132POPC   C3B29313  13.430   8.845   7.964
 2132POPC   C4B29314  13.450   8.863   7.664
 2133POPC   NC329315   3.574  40.765   9.464
 2133POPC   PO429316   3.508  40.733   9.164
 2133POPC   GL129317   3.525  40.798   8.864
 2133POPC   GL229318   3.697  40.743   8.864
 2133POPC   C1A29319   3.546  40.798   8.564
 2133POPC   D2A29320   3.534  40.761   8.264
 2133POPC   C3A29321   3.571  40.749   7.964
 2133POPC   C4A29322   3.554  40.746   7.664
 2133POPC   C1B29323   3.760  40.785   8.564
 2133POPC   C2B29324   3.751  40.752   8.264
 2133POPC   C3B29325   3.804  40.800   7.964
 2133POPC   C4B29326   3.748  40.795   7.664
 2134POPC   NC329327  12.114  20.563   9.464
 2134POPC   PO429328  12.058  20.562   9.164
 2134POPC   GL129329  12.056  20.647   8.864
 2134POPC   GL229330  12.006  20.495   8.864
 2134POPC   C1A29331  12.103  20.616   8.564
 2134POPC   D2A29332  12.113  20.573   8.264
 2134POPC   C3A29333  12.081  20.618   7.964
 2134POPC   C4A29334  12.103  20.601   7.664
 2134POPC   C1B29335  11.897  20.386   8.564
 2134POPC   C2B29336  11.922  20.380   8.264
 2134POPC   C3B29337  11.975  20.443   7.964
 2134POPC   C4B29338  11.954  20.382   7.664
 2135POPC   NC329339  29.148  12.833   9.464
 2135POPC   PO429340  29.097  12.891   9.164
 2135POPC   GL129341  29.150  12.875   8.864
 2135POPC   GL229342  29.263  12.703   8.864
 2135POPC   C1A29343  29.159  12.833   8.564
 2135POPC   D2A29344  29.105  12.893   8.264
 2135POPC   C3A29345  29.096  12.862   7.964
 2135POPC   C4A29346  29.106  12.811   7.664
 2135POPC   C1B29347  29.299  12.639   8.564
 2135POPC   C2B29348  29.305  12.606   8.264
 2135POPC   C3B29349  29.283  12.621   7.964
 2135POPC   C4B29350  29.241  12.656   7.664
 2136POPC   NC329351  20.566  25.284   9.464
 2136POPC   PO429352  20.589  25.299   9.164
 2136POPC   GL129353  20.572  25.222   8.864
 2136POPC   GL229354  20.655  25.098   8.864
 2136POPC   C1A29355  20.609  25.229   8.564
 2136POPC   D2A29356  20.586  25.216   8.264
 2136POPC   C3A29357  20.639  25.305   7.964
 2136POPC   C4A29358  20.625  25.230   7.664
 2136POPC   C1B29359  20.619  25.010   8.564
 2136POPC   C2B29360  20.630  25.026   8.264
 2136POPC   C3B29361  20.571  25.004   7.964
 2136POPC   C4B29362  20.623  25.047   7.664
 2137POPC   NC329363  39.277   4.341   9.464
 2137POPC   PO429364  39.250   4.326   9.164
 2137POPC   GL129365  39.223   4.325   8.864
 2137POPC   GL229366  39.370   4.368   8.864
 2137POPC   C1A29367  39.246   4.318   8.564
 2137POPC   D2A29368  39.206   4.274   8.264
 2137POPC   C3A29369  39.268   4.275   7.964
 2137POPC   C4A29370  39.241   4.270   7.664
 2137POPC   C1B29371  39.447   4.491   8.564
 2137POPC   C2B29372  39.459   4.480   8.264
 2137POPC   C3B29373  39.405   4.486   7.964
 2137POPC   C4B29374  39.405   4.456   7.664
 2138POPC   NC329375  43.850  37.715   9.464
 2138POPC   PO429376  43.843  37.668   9.164
 2138POPC   GL129377  43.840  37.701   8.864
 2138POPC   GL229378  43.916  37.800   8.864
 2138POPC   C1A29379  43.932  37.703   8.564
 2138POPC   D2A29380  43.912  37.697   8.264
 2138POPC   C3A29381  43.915  37.700   7.964
 2138POPC   C4A29382  43.885  37.640   7.664
 2138POPC   C1B29383  43.949  37.935   8.564
 2138POPC   C2B29384  43.866  37.934   8.264
 2138POPC   C3B29385  43.854  37.942   7.964
 2138POPC   C4B29386  43.852  37.903   7.664
 2139POPC   NC329387   9.721  35.340   9.464
 2139POPC   PO429388   9.767  35.329   9.164
 2139POPC   GL129389   9.735  35.385   8.864
 2139POPC   GL229390   9.793  35.282   8.864
 2139POPC   C1A29391   9.787  35.349   8.564
 2139POPC   D2A29392   9.709  35.343   8.264
 2139POPC   C3A29393   9.725  35.312   7.964
 2139POPC   C4A29394   9.749  35.326   7.664
 2139POPC   C1B29395   9.875  35.208   8.564
 2139POPC   C2B29396   9.965  35.144   8.264
 2139POPC   C3B29397   9.949  35.186   7.964
 2139POPC   C4B29398   9.937  35.174   7.664
 2140POPC   NC329399  18.252  12.820   9.464
 2140POPC   PO429400  18.238  12.860   9.164
 2140POPC   GL129401  18.292  12.882   8.864
 2140POPC   GL229402  18.382  12.915   8.864
 2140POPC   C1A29403  18.297  12.806   8.564
 2140POPC   D2A29404  18.237  12.877   8.264
 2140POPC   C3A29405  18.313  12.891   7.964
 2140POPC   C4A29406  18.246  12.899   7.664
 2140POPC   C1B29407  18.510  12.893   8.564
 2140POPC   C2B29408  18.518  12.874   8.264
 2140POPC   C3B29409  18.517  12.943   7.964
 2140POPC   C4B29410  18.477  12.887   7.664
 2141POPC   NC329411  12.894  38.497   9.464
 2141POPC   PO429412  12.897  38.490   9.164
 2141POPC   GL129413  12.892  38.408   8.864
 2141POPC   GL229414  12.834  38.541   8.864
 2141POPC   C1A29415  12.843  38.479   8.564
 2141POPC   D2A29416  12.816  38.430   8.264
 2141POPC   C3A29417  12.821  38.451   7.964
 2141POPC   C4A29418  12.883  38.495   7.664
 2141POPC   C1B29419  12.818  38.700   8.564
 2141POPC   C2B29420  12.811  38.717   8.264
 2141POPC   C3B29421  12.870  38.708   7.964
 2141POPC   C4B29422  12.874  38.732   7.664
 2142POPC   NC329423   9.015  21.395   9.464
 2142POPC   PO429424   8.949  21.379   9.164
 2142POPC   GL129425   8.961  21.419   8.864
 2142POPC   GL229426   9.139  21.408   8.864
 2142POPC   C1A29427   8.977  21.431   8.564
 2142POPC   D2A29428   8.987  21.414   8.264
 2142POPC   C3A29429   8.942  21.364   7.964
 2142POPC   C4A29430   8.991  21.381   7.664
 2142POPC   C1B29431   9.183  21.430   8.564
 2142POPC   C2B29432   9.245  21.432   8.264
 2142POPC   C3B29433   9.230  21.478   7.964
 2142POPC   C4B29434   9.213  21.428   7.664
 2143POPC   NC329435  44.686  21.364   9.464
 2143POPC   PO429436  44.622  21.394   9.164
 2143POPC   GL129437  44.698  21.362   8.864
 2143POPC   GL229438  44.497  21.385   8.864
 2143POPC   C1A29439  44.704  21.352   8.564
 2143POPC   D2A29440  44.618  21.395   8.264
 2143POPC   C3A29441  44.697  21.373   7.964
 2143POPC   C4A29442  44.631  21.407   7.664
 2143POPC   C1B29443  44.464  21.310   8.564
 2143POPC   C2B29444  44.447  21.277   8.264
 2143POPC   C3B29445  44.425  21.303   7.964
 2143POPC   C4B29446  44.436  21.299   7.664
 2144POPC   NC329447  13.628  19.858   9.464
 2144POPC   PO429448  13.669  19.805   9.164
 2144POPC   GL129449  13.654  19.884   8.864
 2144POPC   GL229450  13.775  19.837   8.864
 2144POPC   C1A29451  13.618  19.831   8.564
 2144POPC   D2A29452  13.597  19.843   8.264
 2144POPC   C3A29453  13.668  19.796   7.964
 2144POPC   C4A29454  13.589  19.843   7.664
 2144POPC   C1B29455  13.912  19.940   8.564
 2144POPC   C2B29456  13.911  19.895   8.264
 2144POPC   C3B29457  13.874  19.905   7.964
 2144POPC   C4B29458  13.824  19.903   7.664
 2145POPC   NC329459   3.554  34.570   9.464
 2145POPC   PO429460   3.541  34.567   9.164
 2145POPC   GL129461   3.589  34.575   8.864
 2145POPC   GL229462   3.431  34.679   8.864
 2145POPC   C1A29463   3.495  34.530   8.564
 2145POPC   D2A29464   3.588  34.602   8.264
 2145POPC   C3A29465   3.536  34.570   7.964
 2145POPC   C4A29466   3.583  34.608   7.664
 2145POPC   C1B29467   3.289  34.687   8.564
 2145POPC   C2B29468   3.351  34.681   8.264
 2145POPC   C3B29469   3.370  34.715   7.964
 2145POPC   C4B29470   3.332  34.705   7.664
 2146POPC   NC329471  10.483  11.290   9.464
 2146POPC   PO429472  10.491  11.266   9.164
 2146POPC   GL129473  10.513  11.256   8.864
 2146POPC   GL229474  10.445  11.463   8.864
 2146POPC   C1A29475  10.526  11.253   8.564
 2146POPC   D2A29476  10.514  11.330   8.264
 2146POPC   C3A29477  10.484  11.275   7.964
 2146POPC   C4A29478  10.497  11.279   7.664
 2146POPC   C1B29479  10.425  11.553   8.564
 2146POPC   C2B29480  10.504  11.587   8.264
 2146POPC   C3B29481  10.470  11.563   7.964
 2146POPC   C4B29482  10.464  11.532   7.664
 2147POPC   NC329483  37.633  43.061   9.464
 2147POPC   PO429484  37.647  43.104   9.164
 2147POPC   GL129485  37.701  43.125   8.864
 2147POPC   GL229486  37.577  43.184   8.864
 2147POPC   C1A29487  37.678  43.075   8.564
 2147POPC   D2A29488  37.694  43.073   8.264
 2147POPC   C3A29489  37.637  43.141   7.964
 2147POPC   C4A29490  37.657  43.077   7.664
 2147POPC   C1B29491  37.513  43.313   8.564
 2147POPC   C2B29492  37.483  43.335   8.264
 2147POPC   C3B29493  37.550  43.315   7.964
 2147POPC   C4B29494  37.488  43.257   7.664
 2148POPC   NC329495  22.112  24.476   9.464
 2148POPC   PO429496  22.189  24.451   9.164
 2148POPC   GL129497  22.207  24.488   8.864
 2148POPC   GL229498  22.090  24.615   8.864
 2148POPC   C1A29499  22.183  24.442   8.564
 2148POPC   D2A29500  22.205  24.478   8.264
 2148POPC   C3A29501  22.210  24.479   7.964
 2148POPC   C4A29502  22.209  24.469   7.664
 2148POPC   C1B29503  22.034  24.758   8.564
 2148POPC   C2B29504  22.057  24.744   8.264
 2148POPC   C3B29505  22.103  24.716   7.964
 2148POPC   C4B29506  22.096  24.731   7.664
 2149POPC   NC329507   0.451   1.177   9.464
 2149POPC   PO429508   0.465   1.244   9.164
 2149POPC   GL129509   0.474   1.165   8.864
 2149POPC   GL229510   0.553   1.271   8.864
 2149POPC   C1A29511   0.473   1.192   8.564
 2149POPC   D2A29512   0.417   1.233   8.264
 2149POPC   C3A29513   0.456   1.200   7.964
 2149POPC   C4A29514   0.393   1.221   7.664
 2149POPC   C1B29515   0.642   1.394   8.564
 2149POPC   C2B29516   0.592   1.406   8.264
 2149POPC   C3B29517   0.616   1.453   7.964
 2149POPC   C4B29518   0.558   1.436   7.664
 2150POPC   NC329519  11.255   0.465   9.464
 2150POPC   PO429520  11.290   0.439   9.164
 2150POPC   GL129521  11.338   0.424   8.864
 2150POPC   GL229522  11.418   0.393   8.864
 2150POPC   C1A29523  11.277   0.429   8.564
 2150POPC   D2A29524  11.324   0.403   8.264
 2150POPC   C3A29525  11.317   0.459   7.964
 2150POPC   C4A29526  11.297   0.465   7.664
 2150POPC   C1B29527  11.485   0.319   8.564
 2150POPC   C2B29528  11.525   0.284   8.264
 2150POPC   C3B29529  11.529   0.326   7.964
 2150POPC   C4B29530  11.541   0.287   7.664
 2151POPC   NC329531  15.934  20.614   9.464
 2151POPC   PO429532  15.921  20.614   9.164
 2151POPC   GL129533  15.907  20.615   8.864
 2151POPC   GL229534  16.049  20.684   8.864
 2151POPC   C1A29535  15.954  20.604   8.564
 2151POPC   D2A29536  15.923  20.630   8.264
 2151POPC   C3A29537  15.911  20.658   7.964
 2151POPC   C4A29538  15.933  20.606   7.664
 2151POPC   C1B29539  16.172  20.802   8.564
 2151POPC   C2B29540  16.091  20.767   8.264
 2151POPC   C3B29541  16.159  20.744   7.964
 2151POPC   C4B29542  16.092  20.771   7.664
 2152POPC   NC329543   7.438   5.115   9.464
 2152POPC   PO429544   7.456   5.079   9.164
 2152POPC   GL129545   7.469   5.065   8.864
 2152POPC   GL229546   7.462   4.952   8.864
 2152POPC   C1A29547   7.380   5.092   8.564
 2152POPC   D2A29548   7.437   5.080   8.264
 2152POPC   C3A29549   7.462   5.086   7.964
 2152POPC   C4A29550   7.381   5.101   7.664
 2152POPC   C1B29551   7.424   4.841   8.564
 2152POPC   C2B29552   7.438   4.850   8.264
 2152POPC   C3B29553   7.379   4.872   7.964
 2152POPC   C4B29554   7.387   4.870   7.664
 2153POPC   NC329555  34.594  39.187   9.464
 2153POPC   PO429556  34.555  39.195   9.164
 2153POPC   GL129557  34.581  39.266   8.864
 2153POPC   GL229558  34.498  39.213   8.864
 2153POPC   C1A29559  34.547  39.244   8.564
 2153POPC   D2A29560  34.557  39.181   8.264
 2153POPC   C3A29561  34.553  39.240   7.964
 2153POPC   C4A29562  34.557  39.182   7.664
 2153POPC   C1B29563  34.381  39.134   8.564
 2153POPC   C2B29564  34.378  39.132   8.264
 2153POPC   C3B29565  34.372  39.121   7.964
 2153POPC   C4B29566  34.324  39.083   7.664
 2154POPC   NC329567  10.558  27.586   9.464
 2154POPC   PO429568  10.537  27.597   9.164
 2154POPC   GL129569  10.495  27.625   8.864
 2154POPC   GL229570  10.666  27.568   8.864
 2154POPC   C1A29571  10.509  27.607   8.564
 2154POPC   D2A29572  10.501  27.589   8.264
 2154POPC   C3A29573  10.499  27.545   7.964
 2154POPC   C4A29574  10.499  27.551   7.664
 2154POPC   C1B29575  10.810  27.564   8.564
 2154POPC   C2B29576  10.763  27.578   8.264
 2154POPC   C3B29577  10.793  27.600   7.964
 2154POPC   C4B29578  10.727  27.544   7.664
 2155POPC   NC329579   7.385  33.801   9.464
 2155POPC   PO429580   7.465  33.850   9.164
 2155POPC   GL129581   7.417  33.804   8.864
 2155POPC   GL229582   7.349  33.811   8.864
 2155POPC   C1A29583   7.402  33.825   8.564
 2155POPC   D2A29584   7.377  33.771   8.264
 2155POPC   C3A29585   7.454  33.802   7.964
 2155POPC   C4A29586   7.379  33.784   7.664
 2155POPC   C1B29587   7.193  33.846   8.564
 2155POPC   C2B29588   7.143  33.917   8.264
 2155POPC   C3B29589   7.140  33.915   7.964
 2155POPC   C4B29590   7.136  33.889   7.664
 2156POPC   NC329591   2.765  12.066   9.464
 2156POPC   PO429592   2.717  12.109   9.164
 2156POPC   GL129593   2.808  12.057   8.864
 2156POPC   GL229594   2.708  11.960   8.864
 2156POPC   C1A29595   2.747  12.075   8.564
 2156POPC   D2A29596   2.727  12.108   8.264
 2156POPC   C3A29597   2.722  12.124   7.964
 2156POPC   C4A29598   2.791  12.029   7.664
 2156POPC   C1B29599   2.630  11.849   8.564
 2156POPC   C2B29600   2.663  11.829   8.264
 2156POPC   C3B29601   2.684  11.828   7.964
 2156POPC   C4B29602   2.688  11.855   7.664
 2157POPC   NC329603  20.633  12.898   9.464
 2157POPC   PO429604  20.607  12.896   9.164
 2157POPC   GL129605  20.563  12.858   8.864
 2157POPC   GL229606  20.737  12.794   8.864
 2157POPC   C1A29607  20.586  12.888   8.564
 2157POPC   D2A29608  20.583  12.824   8.264
 2157POPC   C3A29609  20.599  12.867   7.964
 2157POPC   C4A29610  20.606  12.815   7.664
 2157POPC   C1B29611  20.846  12.843   8.564
 2157POPC   C2B29612  20.816  12.830   8.264
 2157POPC   C3B29613  20.883  12.775   7.964
 2157POPC   C4B29614  20.902  12.850   7.664
 2158POPC   NC329615  34.575  40.008   9.464
 2158POPC   PO429616  34.624  39.970   9.164
 2158POPC   GL129617  34.574  40.008   8.864
 2158POPC   GL229618  34.600  39.922   8.864
 2158POPC   C1A29619  34.594  40.017   8.564
 2158POPC   D2A29620  34.612  40.054   8.264
 2158POPC   C3A29621  34.548  39.963   7.964
 2158POPC   C4A29622  34.601  39.985   7.664
 2158POPC   C1B29623  34.512  39.743   8.564
 2158POPC   C2B29624  34.553  39.766   8.264
 2158POPC   C3B29625  34.532  39.806   7.964
 2158POPC   C4B29626  34.503  39.762   7.664
 2159POPC   NC329627  12.878  10.544   9.464
 2159POPC   PO429628  12.856  10.526   9.164
 2159POPC   GL129629  12.816  10.514   8.864
 2159POPC   GL229630  12.781  10.591   8.864
 2159POPC   C1A29631  12.854  10.508   8.564
 2159POPC   D2A29632  12.857  10.484   8.264
 2159POPC   C3A29633  12.891  10.519   7.964
 2159POPC   C4A29634  12.883  10.504   7.664
 2159POPC   C1B29635  12.651  10.638   8.564
 2159POPC   C2B29636  12.618  10.662   8.264
 2159POPC   C3B29637  12.639  10.658   7.964
 2159POPC   C4B29638  12.657  10.712   7.664
 2160POPC   NC329639   8.956   8.970   9.464
 2160POPC   PO429640   8.937   8.962   9.164
 2160POPC   GL129641   8.955   8.958   8.864
 2160POPC   GL229642   9.073   8.974   8.864
 2160POPC   C1A29643   8.932   8.991   8.564
 2160POPC   D2A29644   8.926   8.972   8.264
 2160POPC   C3A29645   9.014   9.022   7.964
 2160POPC   C4A29646   8.950   9.022   7.664
 2160POPC   C1B29647   9.249   9.018   8.564
 2160POPC   C2B29648   9.253   8.981   8.264
 2160POPC   C3B29649   9.220   9.039   7.964
 2160POPC   C4B29650   9.262   9.012   7.664
 2161POPC   NC329651  10.476  25.284   9.464
 2161POPC   PO429652  10.487  25.311   9.164
 2161POPC   GL129653  10.524  25.229   8.864
 2161POPC   GL229654  10.498  25.368   8.864
 2161POPC   C1A29655  10.562  25.272   8.564
 2161POPC   D2A29656  10.545  25.236   8.264
 2161POPC   C3A29657  10.528  25.270   7.964
 2161POPC   C4A29658  10.501  25.294   7.664
 2161POPC   C1B29659  10.481  25.460   8.564
 2161POPC   C2B29660  10.453  25.541   8.264
 2161POPC   C3B29661  10.462  25.557   7.964
 2161POPC   C4B29662  10.465  25.471   7.664
 2162POPC   NC329663   2.730  22.964   9.464
 2162POPC   PO429664   2.801  22.925   9.164
 2162POPC   GL129665   2.810  22.967   8.864
 2162POPC   GL229666   2.668  22.999   8.864
 2162POPC   C1A29667   2.727  22.945   8.564
 2162POPC   D2A29668   2.805  22.970   8.264
 2162POPC   C3A29669   2.796  22.975   7.964
 2162POPC   C4A29670   2.794  22.947   7.664
 2162POPC   C1B29671   2.591  23.106   8.564
 2162POPC   C2B29672   2.613  23.201   8.264
 2162POPC   C3B29673   2.626  23.157   7.964
 2162POPC   C4B29674   2.687  23.180   7.664
 2163POPC   NC329675  20.635  23.685   9.464
 2163POPC   PO429676  20.561  23.667   9.164
 2163POPC   GL129677  20.639  23.688   8.864
 2163POPC   GL229678  20.645  23.774   8.864
 2163POPC   C1A29679  20.599  23.674   8.564
 2163POPC   D2A29680  20.600  23.691   8.264
 2163POPC   C3A29681  20.648  23.719   7.964
 2163POPC   C4A29682  20.643  23.735   7.664
 2163POPC   C1B29683  20.759  23.916   8.564
 2163POPC   C2B29684  20.790  23.857   8.264
 2163POPC   C3B29685  20.801  23.877   7.964
 2163POPC   C4B29686  20.732  23.901   7.664
 2164POPC   NC329687   7.392  38.501   9.464
 2164POPC   PO429688   7.443  38.446   9.164
 2164POPC   GL129689   7.384  38.427   8.864
 2164POPC   GL229690   7.507  38.583   8.864
 2164POPC   C1A29691   7.470  38.487   8.564
 2164POPC   D2A29692   7.463  38.503   8.264
 2164POPC   C3A29693   7.387  38.421   7.964
 2164POPC   C4A29694   7.392  38.460   7.664
 2164POPC   C1B29695   7.634  38.626   8.564
 2164POPC   C2B29696   7.550  38.586   8.264
 2164POPC   C3B29697   7.628  38.668   7.964
 2164POPC   C4B29698   7.626  38.680   7.664
 2165POPC   NC329699  26.865  12.068   9.464
 2165POPC   PO429700  26.866  12.093   9.164
 2165POPC   GL129701  26.769  12.082   8.864
 2165POPC   GL229702  26.760  12.121   8.864
 2165POPC   C1A29703  26.808  12.085   8.564
 2165POPC   D2A29704  26.849  12.026   8.264
 2165POPC   C3A29705  26.806  12.037   7.964
 2165POPC   C4A29706  26.852  12.060   7.664
 2165POPC   C1B29707  26.668  12.249   8.564
 2165POPC   C2B29708  26.670  12.231   8.264
 2165POPC   C3B29709  26.658  12.287   7.964
 2165POPC   C4B29710  26.684  12.248   7.664
 2166POPC   NC329711   0.480  22.169   9.464
 2166POPC   PO429712   0.421  22.127   9.164
 2166POPC   GL129713   0.443  22.204   8.864
 2166POPC   GL229714   0.511  22.229   8.864
 2166POPC   C1A29715   0.410  22.139   8.564
 2166POPC   D2A29716   0.482  22.114   8.264
 2166POPC   C3A29717   0.423  22.177   7.964
 2166POPC   C4A29718   0.437  22.186   7.664
 2166POPC   C1B29719   0.577  22.324   8.564
 2166POPC   C2B29720   0.599  22.302   8.264
 2166POPC   C3B29721   0.644  22.325   7.964
 2166POPC   C4B29722   0.618  22.303   7.664
 2167POPC   NC329723  19.858  31.500   9.464
 2167POPC   PO429724  19.808  31.454   9.164
 2167POPC   GL129725  19.845  31.485   8.864
 2167POPC   GL229726  19.738  31.594   8.864
 2167POPC   C1A29727  19.815  31.456   8.564
 2167POPC   D2A29728  19.856  31.446   8.264
 2167POPC   C3A29729  19.840  31.486   7.964
 2167POPC   C4A29730  19.884  31.437   7.664
 2167POPC   C1B29731  19.766  31.706   8.564
 2167POPC   C2B29732  19.765  31.702   8.264
 2167POPC   C3B29733  19.789  31.703   7.964
 2167POPC   C4B29734  19.718  31.693   7.664
 2168POPC   NC329735  26.027  41.518   9.464
 2168POPC   PO429736  26.057  41.528   9.164
 2168POPC   GL129737  25.999  41.577   8.864
 2168POPC   GL229738  25.989  41.479   8.864
 2168POPC   C1A29739  26.021  41.563   8.564
 2168POPC   D2A29740  26.014  41.514   8.264
 2168POPC   C3A29741  26.038  41.561   7.964
 2168POPC   C4A29742  26.032  41.607   7.664
 2168POPC   C1B29743  25.847  41.376   8.564
 2168POPC   C2B29744  25.799  41.452   8.264
 2168POPC   C3B29745  25.820  41.393   7.964
 2168POPC   C4B29746  25.841  41.395   7.664
 2169POPC   NC329747  13.646  36.935   9.464
 2169POPC   PO429748  13.667  36.877   9.164
 2169POPC   GL129749  13.580  36.947   8.864
 2169POPC   GL229750  13.595  36.763   8.864
 2169POPC   C1A29751  13.589  36.951   8.564
 2169POPC   D2A29752  13.609  36.861   8.264
 2169POPC   C3A29753  13.593  36.897   7.964
 2169POPC   C4A29754  13.664  36.873   7.664
 2169POPC   C1B29755  13.604  36.669   8.564
 2169POPC   C2B29756  13.532  36.658   8.264
 2169POPC   C3B29757  13.543  36.682   7.964
 2169POPC   C4B29758  13.552  36.665   7.664
 2170POPC   NC329759  43.067  16.694   9.464
 2170POPC   PO429760  43.109  16.727   9.164
 2170POPC   GL129761  43.079  16.739   8.864
 2170POPC   GL229762  42.994  16.638   8.864
 2170POPC   C1A29763  43.145  16.704   8.564
 2170POPC   D2A29764  43.075  16.780   8.264
 2170POPC   C3A29765  43.108  16.744   7.964
 2170POPC   C4A29766  43.148  16.778   7.664
 2170POPC   C1B29767  42.992  16.565   8.564
 2170POPC   C2B29768  42.964  16.521   8.264
 2170POPC   C3B29769  42.912  16.522   7.964
 2170POPC   C4B29770  42.954  16.494   7.664
 2171POPC   NC329771  22.913  14.384   9.464
 2171POPC   PO429772  22.983  14.437   9.164
 2171POPC   GL129773  22.980  14.375   8.864
 2171POPC   GL229774  22.856  14.339   8.864
 2171POPC   C1A29775  22.895  14.436   8.564
 2171POPC   D2A29776  22.922  14.366   8.264
 2171POPC   C3A29777  22.932  14.381   7.964
 2171POPC   C4A29778  22.934  14.401   7.664
 2171POPC   C1B29779  22.685  14.238   8.564
 2171POPC   C2B29780  22.714  14.307   8.264
 2171POPC   C3B29781  22.672  14.242   7.964
 2171POPC   C4B29782  22.693  14.293   7.664
 2172POPC   NC329783  11.308  30.681   9.464
 2172POPC   PO429784  11.335  30.744   9.164
 2172POPC   GL129785  11.341  30.732   8.864
 2172POPC   GL229786  11.242  30.789   8.864
 2172POPC   C1A29787  11.251  30.700   8.564
 2172POPC   D2A29788  11.289  30.703   8.264
 2172POPC   C3A29789  11.253  30.715   7.964
 2172POPC   C4A29790  11.337  30.672   7.664
 2172POPC   C1B29791  11.194  30.941   8.564
 2172POPC   C2B29792  11.188  30.912   8.264
 2172POPC   C3B29793  11.201  30.897   7.964
 2172POPC   C4B29794  11.152  30.928   7.664
 2173POPC   NC329795  22.961   5.114   9.464
 2173POPC   PO429796  22.929   5.083   9.164
 2173POPC   GL129797  22.976   5.116   8.864
 2173POPC   GL229798  23.028   5.092   8.864
 2173POPC   C1A29799  22.892   5.065   8.564
 2173POPC   D2A29800  22.958   5.046   8.264
 2173POPC   C3A29801  22.980   5.078   7.964
 2173POPC   C4A29802  22.932   5.051   7.664
 2173POPC   C1B29803  23.143   5.154   8.564
 2173POPC   C2B29804  23.215   5.153   8.264
 2173POPC   C3B29805  23.144   5.162   7.964
 2173POPC   C4B29806  23.135   5.135   7.664
 2174POPC   NC329807  14.388  32.227   9.464
 2174POPC   PO429808  14.441  32.293   9.164
 2174POPC   GL129809  14.366  32.259   8.864
 2174POPC   GL229810  14.468  32.153   8.864
 2174POPC   C1A29811  14.377  32.239   8.564
 2174POPC   D2A29812  14.396  32.206   8.264
 2174POPC   C3A29813  14.369  32.244   7.964
 2174POPC   C4A29814  14.444  32.241   7.664
 2174POPC   C1B29815  14.619  32.118   8.564
 2174POPC   C2B29816  14.600  32.144   8.264
 2174POPC   C3B29817  14.612  32.150   7.964
 2174POPC   C4B29818  14.628  32.182   7.664
 2175POPC   NC329819  24.516  29.119   9.464
 2175POPC   PO429820  24.527  29.152   9.164
 2175POPC   GL129821  24.495  29.132   8.864
 2175POPC   GL229822  24.570  29.219   8.864
 2175POPC   C1A29823  24.469  29.113   8.564
 2175POPC   D2A29824  24.466  29.171   8.264
 2175POPC   C3A29825  24.531  29.124   7.964
 2175POPC   C4A29826  24.495  29.173   7.664
 2175POPC   C1B29827  24.719  29.198   8.564
 2175POPC   C2B29828  24.692  29.270   8.264
 2175POPC   C3B29829  24.752  29.277   7.964
 2175POPC   C4B29830  24.688  29.284   7.664
 2176POPC   NC329831   9.767  36.111   9.464
 2176POPC   PO429832   9.699  36.082   9.164
 2176POPC   GL129833   9.797  36.082   8.864
 2176POPC   GL229834   9.824  36.193   8.864
 2176POPC   C1A29835   9.794  36.108   8.564
 2176POPC   D2A29836   9.716  36.086   8.264
 2176POPC   C3A29837   9.745  36.156   7.964
 2176POPC   C4A29838   9.750  36.089   7.664
 2176POPC   C1B29839   9.976  36.276   8.564
 2176POPC   C2B29840   9.993  36.296   8.264
 2176POPC   C3B29841   9.948  36.306   7.964
 2176POPC   C4B29842   9.987  36.244   7.664
 2177POPC   NC329843  42.316  28.412   9.464
 2177POPC   PO429844  42.322  28.390   9.164
 2177POPC   GL129845  42.355  28.366   8.864
 2177POPC   GL229846  42.285  28.469   8.864
 2177POPC   C1A29847  42.303  28.320   8.564
 2177POPC   D2A29848  42.379  28.330   8.264
 2177POPC   C3A29849  42.375  28.360   7.964
 2177POPC   C4A29850  42.287  28.346   7.664
 2177POPC   C1B29851  42.146  28.525   8.564
 2177POPC   C2B29852  42.164  28.593   8.264
 2177POPC   C3B29853  42.153  28.546   7.964
 2177POPC   C4B29854  42.224  28.606   7.664
 2178POPC   NC329855  14.426   9.782   9.464
 2178POPC   PO429856  14.378   9.707   9.164
 2178POPC   GL129857  14.418   9.788   8.864
 2178POPC   GL229858  14.555   9.787   8.864
 2178POPC   C1A29859  14.452   9.776   8.564
 2178POPC   D2A29860  14.414   9.751   8.264
 2178POPC   C3A29861  14.446   9.759   7.964
 2178POPC   C4A29862  14.443   9.745   7.664
 2178POPC   C1B29863  14.634   9.844   8.564
 2178POPC   C2B29864  14.651   9.900   8.264
 2178POPC   C3B29865  14.593   9.904   7.964
 2178POPC   C4B29866  14.625   9.881   7.664
 2179POPC   NC329867  29.948   7.391   9.464
 2179POPC   PO429868  29.957   7.443   9.164
 2179POPC   GL129869  29.886   7.403   8.864
 2179POPC   GL229870  29.922   7.551   8.864
 2179POPC   C1A29871  29.944   7.401   8.564
 2179POPC   D2A29872  29.889   7.410   8.264
 2179POPC   C3A29873  29.881   7.444   7.964
 2179POPC   C4A29874  29.924   7.371   7.664
 2179POPC   C1B29875  29.988   7.703   8.564
 2179POPC   C2B29876  29.968   7.617   8.264
 2179POPC   C3B29877  30.022   7.628   7.964
 2179POPC   C4B29878  29.983   7.685   7.664
 2180POPC   NC329879  18.238  26.831   9.464
 2180POPC   PO429880  18.286  26.859   9.164
 2180POPC   GL129881  18.251  26.806   8.864
 2180POPC   GL229882  18.314  26.710   8.864
 2180POPC   C1A29883  18.298  26.861   8.564
 2180POPC   D2A29884  18.248  26.825   8.264
 2180POPC   C3A29885  18.302  26.854   7.964
 2180POPC   C4A29886  18.291  26.855   7.664
 2180POPC   C1B29887  18.395  26.580   8.564
 2180POPC   C2B29888  18.381  26.618   8.264
 2180POPC   C3B29889  18.445  26.605   7.964
 2180POPC   C4B29890  18.421  26.569   7.664
 2181POPC   NC329891   1.972  20.658   9.464
 2181POPC   PO429892   2.003  20.645   9.164
 2181POPC   GL129893   2.039  20.611   8.864
 2181POPC   GL229894   1.984  20.747   8.864
 2181POPC   C1A29895   2.022  20.569   8.564
 2181POPC   D2A29896   1.988  20.604   8.264
 2181POPC   C3A29897   1.971  20.649   7.964
 2181POPC   C4A29898   2.005  20.607   7.664
 2181POPC   C1B29899   1.981  20.851   8.564
 2181POPC   C2B29900   2.042  20.884   8.264
 2181POPC   C3B29901   2.043  20.827   7.964
 2181POPC   C4B29902   2.033  20.857   7.664
 2182POPC   NC329903  20.591  14.378   9.464
 2182POPC   PO429904  20.593  14.394   9.164
 2182POPC   GL129905  20.601  14.384   8.864
 2182POPC   GL229906  20.503  14.373   8.864
 2182POPC   C1A29907  20.597  14.410   8.564
 2182POPC   D2A29908  20.632  14.369   8.264
 2182POPC   C3A29909  20.581  14.450   7.964
 2182POPC   C4A29910  20.605  14.398   7.664
 2182POPC   C1B29911  20.322  14.361   8.564
 2182POPC   C2B29912  20.383  14.387   8.264
 2182POPC   C3B29913  20.363  14.328   7.964
 2182POPC   C4B29914  20.346  14.356   7.664
 2183POPC   NC329915  43.839  20.649   9.464
 2183POPC   PO429916  43.876  20.656   9.164
 2183POPC   GL129917  43.914  20.629   8.864
 2183POPC   GL229918  43.975  20.686   8.864
 2183POPC   C1A29919  43.857  20.611   8.564
 2183POPC   D2A29920  43.886  20.635   8.264
 2183POPC   C3A29921  43.882  20.568   7.964
 2183POPC   C4A29922  43.909  20.614   7.664
 2183POPC   C1B29923  44.050  20.755   8.564
 2183POPC   C2B29924  44.066  20.791   8.264
 2183POPC   C3B29925  44.081  20.764   7.964
 2183POPC   C4B29926  44.018  20.836   7.664
 2184POPC   NC329927  26.865  44.687   9.464
 2184POPC   PO429928  26.839  44.655   9.164
 2184POPC   GL129929  26.805  44.638   8.864
 2184POPC   GL229930  26.759  44.815   8.864
 2184POPC   C1A29931  26.836  44.705   8.564
 2184POPC   D2A29932  26.836  44.680   8.264
 2184POPC   C3A29933  26.779  44.679   7.964
 2184POPC   C4A29934  26.773  44.698   7.664
 2184POPC   C1B29935  26.788  44.903   8.564
 2184POPC   C2B29936  26.773  44.915   8.264
 2184POPC   C3B29937  26.816  44.905   7.964
 2184POPC   C4B29938  26.791  44.905   7.664
 2185POPC   NC329939  29.950   8.947   9.464
 2185POPC   PO429940  29.909   8.992   9.164
 2185POPC   GL129941  29.911   8.934   8.864
 2185POPC   GL229942  29.869   8.812   8.864
 2185POPC   C1A29943  29.915   8.957   8.564
 2185POPC   D2A29944  29.956   8.975   8.264
 2185POPC   C3A29945  29.916   8.994   7.964
 2185POPC   C4A29946  29.879   8.926   7.664
 2185POPC   C1B29947  29.792   8.736   8.564
 2185POPC   C2B29948  29.811   8.717   8.264
 2185POPC   C3B29949  29.764   8.791   7.964
 2185POPC   C4B29950  29.821   8.745   7.664
 2186POPC   NC329951   8.223   5.876   9.464
 2186POPC   PO429952   8.193   5.868   9.164
 2186POPC   GL129953   8.229   5.847   8.864
 2186POPC   GL229954   8.292   5.924   8.864
 2186POPC   C1A29955   8.211   5.882   8.564
 2186POPC   D2A29956   8.185   5.896   8.264
 2186POPC   C3A29957   8.172   5.895   7.964
 2186POPC   C4A29958   8.198   5.903   7.664
 2186POPC   C1B29959   8.384   6.025   8.564
 2186POPC   C2B29960   8.369   6.041   8.264
 2186POPC   C3B29961   8.398   5.971   7.964
 2186POPC   C4B29962   8.429   5.954   7.664
 2187POPC   NC329963  20.602  32.997   9.464
 2187POPC   PO429964  20.643  32.995   9.164
 2187POPC   GL129965  20.606  33.068   8.864
 2187POPC   GL229966  20.458  33.026   8.864
 2187POPC   C1A29967  20.624  33.060   8.564
 2187POPC   D2A29968  20.647  33.061   8.264
 2187POPC   C3A29969  20.608  33.060   7.964
 2187POPC   C4A29970  20.598  33.057   7.664
 2187POPC   C1B29971  20.349  32.946   8.564
 2187POPC   C2B29972  20.385  32.932   8.264
 2187POPC   C3B29973  20.409  32.949   7.964
 2187POPC   C4B29974  20.353  32.981   7.664
 2188POPC   NC329975  24.464  30.677   9.464
 2188POPC   PO429976  24.511  30.724   9.164
 2188POPC   GL129977  24.450  30.714   8.864
 2188POPC   GL229978  24.419  30.807   8.864
 2188POPC   C1A29979  24.539  30.724   8.564
 2188POPC   D2A29980  24.530  30.666   8.264
 2188POPC   C3A29981  24.502  30.706   7.964
 2188POPC   C4A29982  24.472  30.671   7.664
 2188POPC   C1B29983  24.376  30.964   8.564
 2188POPC   C2B29984  24.330  30.938   8.264
 2188POPC   C3B29985  24.343  30.938   7.964
 2188POPC   C4B29986  24.362  30.948   7.664
 2189POPC   NC329987  17.536  22.125   9.464
 2189POPC   PO429988  17.485  22.117   9.164
 2189POPC   GL129989  17.509  22.204   8.864
 2189POPC   GL229990  17.513  22.288   8.864
 2189POPC   C1A29991  17.542  22.133   8.564
 2189POPC   D2A29992  17.514  22.205   8.264
 2189POPC   C3A29993  17.556  22.197   7.964
 2189POPC   C4A29994  17.535  22.148   7.664
 2189POPC   C1B29995  17.608  22.445   8.564
 2189POPC   C2B29996  17.559  22.446   8.264
 2189POPC   C3B29997  17.590  22.433   7.964
 2189POPC   C4B29998  17.550  22.356   7.664
 2190POPC   NC329999   9.714  43.895   9.464
 2190POPC   PO430000   9.724  43.895   9.164
 2190POPC   GL130001   9.785  43.859   8.864
 2190POPC   GL230002   9.818  44.005   8.864
 2190POPC   C1A30003   9.797  43.856   8.564
 2190POPC   D2A30004   9.768  43.930   8.264
 2190POPC   C3A30005   9.726  43.915   7.964
 2190POPC   C4A30006   9.767  43.915   7.664
 2190POPC   C1B30007   9.928  44.062   8.564
 2190POPC   C2B30008   9.898  44.080   8.264
 2190POPC   C3B30009   9.940  44.013   7.964
 2190POPC   C4B30010   9.979  44.089   7.664
 2191POPC   NC330011  29.157  10.524   9.464
 2191POPC   PO430012  29.152  10.573   9.164
 2191POPC   GL130013  29.181  10.486   8.864
 2191POPC   GL230014  29.185  10.648   8.864
 2191POPC   C1A30015  29.187  10.485   8.564
 2191POPC   D2A30016  29.133  10.501   8.264
 2191POPC   C3A30017  29.165  10.481   7.964
 2191POPC   C4A30018  29.133  10.475   7.664
 2191POPC   C1B30019  29.233  10.787   8.564
 2191POPC   C2B30020  29.211  10.721   8.264
 2191POPC   C3B30021  29.232  10.780   7.964
 2191POPC   C4B30022  29.241  10.744   7.664
 2192POPC   NC330023  29.120  34.564   9.464
 2192POPC   PO430024  29.189  34.604   9.164
 2192POPC   GL130025  29.154  34.611   8.864
 2192POPC   GL230026  29.298  34.488   8.864
 2192POPC   C1A30027  29.155  34.625   8.564
 2192POPC   D2A30028  29.148  34.553   8.264
 2192POPC   C3A30029  29.174  34.620   7.964
 2192POPC   C4A30030  29.172  34.531   7.664
 2192POPC   C1B30031  29.415  34.522   8.564
 2192POPC   C2B30032  29.368  34.454   8.264
 2192POPC   C3B30033  29.375  34.436   7.964
 2192POPC   C4B30034  29.391  34.489   7.664
 2193POPC   NC330035  40.017   0.420   9.464
 2193POPC   PO430036  40.042   0.486   9.164
 2193POPC   GL130037  40.023   0.410   8.864
 2193POPC   GL230038  39.988   0.321   8.864
 2193POPC   C1A30039  40.048   0.388   8.564
 2193POPC   D2A30040  39.994   0.470   8.264
 2193POPC   C3A30041  40.032   0.411   7.964
 2193POPC   C4A30042  39.972   0.426   7.664
 2193POPC   C1B30043  39.927   0.177   8.564
 2193POPC   C2B30044  39.941   0.173   8.264
 2193POPC   C3B30045  39.981   0.152   7.964
 2193POPC   C4B30046  39.940   0.195   7.664
 2194POPC   NC330047  12.882  17.506   9.464
 2194POPC   PO430048  12.819  17.502   9.164
 2194POPC   GL130049  12.899  17.515   8.864
 2194POPC   GL230050  12.775  17.644   8.864
 2194POPC   C1A30051  12.891  17.527   8.564
 2194POPC   D2A30052  12.804  17.498   8.264
 2194POPC   C3A30053  12.814  17.508   7.964
 2194POPC   C4A30054  12.824  17.543   7.664
 2194POPC   C1B30055  12.697  17.677   8.564
 2194POPC   C2B30056  12.668  17.745   8.264
 2194POPC   C3B30057  12.706  17.661   7.964
 2194POPC   C4B30058  12.719  17.705   7.664
 2195POPC   NC330059  35.334  14.395   9.464
 2195POPC   PO430060  35.355  14.364   9.164
 2195POPC   GL130061  35.384  14.421   8.864
 2195POPC   GL230062  35.245  14.291   8.864
 2195POPC   C1A30063  35.371  14.397   8.564
 2195POPC   D2A30064  35.324  14.357   8.264
 2195POPC   C3A30065  35.365  14.423   7.964
 2195POPC   C4A30066  35.383  14.381   7.664
 2195POPC   C1B30067  35.162  14.244   8.564
 2195POPC   C2B30068  35.163  14.267   8.264
 2195POPC   C3B30069  35.164  14.270   7.964
 2195POPC   C4B30070  35.091  14.249   7.664
 2196POPC   NC330071   2.006  12.884   9.464
 2196POPC   PO430072   1.991  12.813   9.164
 2196POPC   GL130073   2.009  12.807   8.864
 2196POPC   GL230074   1.921  12.802   8.864
 2196POPC   C1A30075   1.981  12.877   8.564
 2196POPC   D2A30076   1.995  12.889   8.264
 2196POPC   C3A30077   1.974  12.838   7.964
 2196POPC   C4A30078   1.989  12.861   7.664
 2196POPC   C1B30079   1.777  12.706   8.564
 2196POPC   C2B30080   1.868  12.648   8.264
 2196POPC   C3B30081   1.783  12.648   7.964
 2196POPC   C4B30082   1.865  12.659   7.664
 2197POPC   NC330083  29.174  30.654   9.464
 2197POPC   PO430084  29.145  30.656   9.164
 2197POPC   GL130085  29.148  30.687   8.864
 2197POPC   GL230086  29.194  30.842   8.864
 2197POPC   C1A30087  29.114  30.670   8.564
 2197POPC   D2A30088  29.098  30.713   8.264
 2197POPC   C3A30089  29.117  30.693   7.964
 2197POPC   C4A30090  29.100  30.656   7.664
 2197POPC   C1B30091  29.200  30.881   8.564
 2197POPC   C2B30092  29.203  30.961   8.264
 2197POPC   C3B30093  29.273  30.954   7.964
 2197POPC   C4B30094  29.283  30.895   7.664
 2198POPC   NC330095  12.052   9.710   9.464
 2198POPC   PO430096  12.106   9.780   9.164
 2198POPC   GL130097  12.071   9.722   8.864
 2198POPC   GL230098  12.160   9.869   8.864
 2198POPC   C1A30099  12.040   9.792   8.564
 2198POPC   D2A30100  12.059   9.750   8.264
 2198POPC   C3A30101  12.063   9.726   7.964
 2198POPC   C4A30102  12.108   9.780   7.664
 2198POPC   C1B30103  12.255   9.931   8.564
 2198POPC   C2B30104  12.278   9.927   8.264
 2198POPC   C3B30105  12.208   9.916   7.964
 2198POPC   C4B30106  12.274   9.890   7.664
 2199POPC   NC330107  16.734  44.636   9.464
 2199POPC   PO430108  16.713  44.685   9.164
 2199POPC   GL130109  16.689  44.615   8.864
 2199POPC   GL230110  16.685  44.750   8.864
 2199POPC   C1A30111  16.705  44.709   8.564
 2199POPC   D2A30112  16.720  44.645   8.264
 2199POPC   C3A30113  16.682  44.631   7.964
 2199POPC   C4A30114  16.734  44.673   7.664
 2199POPC   C1B30115  16.653  44.891   8.564
 2199POPC   C2B30116  16.664  44.935   8.264
 2199POPC   C3B30117  16.659  44.933   7.964
 2199POPC   C4B30118  16.656  44.859   7.664
 2200POPC   NC330119  22.123  13.618   9.464
 2200POPC   PO430120  22.193  13.626   9.164
 2200POPC   GL130121  22.126  13.648   8.864
 2200POPC   GL230122  22.201  13.544   8.864
 2200POPC   C1A30123  22.123  13.653   8.564
 2200POPC   D2A30124  22.178  13.581   8.264
 2200POPC   C3A30125  22.148  13.652   7.964
 2200POPC   C4A30126  22.117  13.594   7.664
 2200POPC   C1B30127  22.100  13.363   8.564
 2200POPC   C2B30128  22.169  13.379   8.264
 2200POPC   C3B30129  22.110  13.380   7.964
 2200POPC   C4B30130  22.102  13.400   7.664
 2201POPC   NC330131  20.632   0.481   9.464
 2201POPC   PO430132  20.591   0.461   9.164
 2201POPC   GL130133  20.659   0.406   8.864
 2201POPC   GL230134  20.493   0.507   8.864
 2201POPC   C1A30135  20.633   0.442   8.564
 2201POPC   D2A30136  20.604   0.487   8.264
 2201POPC   C3A30137  20.587   0.455   7.964
 2201POPC   C4A30138  20.646   0.431   7.664
 2201POPC   C1B30139  20.336   0.526   8.564
 2201POPC   C2B30140  20.337   0.499   8.264
 2201POPC   C3B30141  20.398   0.548   7.964
 2201POPC   C4B30142  20.333   0.520   7.664
 2202POPC   NC330143  29.893   4.331   9.464
 2202POPC   PO430144  29.902   4.280   9.164
 2202POPC   GL130145  29.874   4.299   8.864
 2202POPC   GL230146  29.835   4.291   8.864
 2202POPC   C1A30147  29.958   4.344   8.564
 2202POPC   D2A30148  29.929   4.346   8.264
 2202POPC   C3A30149  29.935   4.335   7.964
 2202POPC   C4A30150  29.928   4.321   7.664
 2202POPC   C1B30151  29.694   4.250   8.564
 2202POPC   C2B30152  29.669   4.242   8.264
 2202POPC   C3B30153  29.714   4.295   7.964
 2202POPC   C4B30154  29.656   4.245   7.664
 2203POPC   NC330155  30.744  21.406   9.464
 2203POPC   PO430156  30.736  21.378   9.164
 2203POPC   GL130157  30.730  21.430   8.864
 2203POPC   GL230158  30.855  21.474   8.864
 2203POPC   C1A30159  30.726  21.338   8.564
 2203POPC   D2A30160  30.652  21.389   8.264
 2203POPC   C3A30161  30.710  21.371   7.964
 2203POPC   C4A30162  30.689  21.412   7.664
 2203POPC   C1B30163  30.921  21.452   8.564
 2203POPC   C2B30164  30.927  21.516   8.264
 2203POPC   C3B30165  30.903  21.509   7.964
 2203POPC   C4B30166  30.968  21.520   7.664
 2204POPC   NC330167  29.143   9.739   9.464
 2204POPC   PO430168  29.096   9.744   9.164
 2204POPC   GL130169  29.101   9.713   8.864
 2204POPC   GL230170  29.250   9.770   8.864
 2204POPC   C1A30171  29.123   9.780   8.564
 2204POPC   D2A30172  29.151   9.749   8.264
 2204POPC   C3A30173  29.107   9.705   7.964
 2204POPC   C4A30174  29.190   9.744   7.664
 2204POPC   C1B30175  29.371   9.704   8.564
 2204POPC   C2B30176  29.440   9.739   8.264
 2204POPC   C3B30177  29.417   9.748   7.964
 2204POPC   C4B30178  29.433   9.670   7.664
 2205POPC   NC330179  11.303   9.737   9.464
 2205POPC   PO430180  11.283   9.751   9.164
 2205POPC   GL130181  11.281   9.784   8.864
 2205POPC   GL230182  11.382   9.639   8.864
 2205POPC   C1A30183  11.333   9.770   8.564
 2205POPC   D2A30184  11.310   9.761   8.264
 2205POPC   C3A30185  11.340   9.742   7.964
 2205POPC   C4A30186  11.276   9.744   7.664
 2205POPC   C1B30187  11.442   9.565   8.564
 2205POPC   C2B30188  11.509   9.555   8.264
 2205POPC   C3B30189  11.487   9.543   7.964
 2205POPC   C4B30190  11.501   9.593   7.664
 2206POPC   NC330191   9.778  32.275   9.464
 2206POPC   PO430192   9.728  32.199   9.164
 2206POPC   GL130193   9.706  32.254   8.864
 2206POPC   GL230194   9.769  32.172   8.864
 2206POPC   C1A30195   9.727  32.235   8.564
 2206POPC   D2A30196   9.709  32.224   8.264
 2206POPC   C3A30197   9.738  32.277   7.964
 2206POPC   C4A30198   9.740  32.262   7.664
 2206POPC   C1B30199   9.749  32.026   8.564
 2206POPC   C2B30200   9.746  31.961   8.264
 2206POPC   C3B30201   9.662  31.966   7.964
 2206POPC   C4B30202   9.663  32.012   7.664
 2207POPC   NC330203   9.727  23.738   9.464
 2207POPC   PO430204   9.783  23.708   9.164
 2207POPC   GL130205   9.711  23.728   8.864
 2207POPC   GL230206   9.835  23.766   8.864
 2207POPC   C1A30207   9.699  23.694   8.564
 2207POPC   D2A30208   9.706  23.714   8.264
 2207POPC   C3A30209   9.732  23.729   7.964
 2207POPC   C4A30210   9.704  23.738   7.664
 2207POPC   C1B30211   9.946  23.798   8.564
 2207POPC   C2B30212  10.021  23.771   8.264
 2207POPC   C3B30213   9.958  23.715   7.964
 2207POPC   C4B30214   9.974  23.719   7.664
 2208POPC   NC330215  31.505  29.116   9.464
 2208POPC   PO430216  31.425  29.114   9.164
 2208POPC   GL130217  31.511  29.160   8.864
 2208POPC   GL230218  31.542  29.104   8.864
 2208POPC   C1A30219  31.466  29.103   8.564
 2208POPC   D2A30220  31.471  29.142   8.264
 2208POPC   C3A30221  31.469  29.099   7.964
 2208POPC   C4A30222  31.478  29.152   7.664
 2208POPC   C1B30223  31.693  28.996   8.564
 2208POPC   C2B30224  31.743  28.989   8.264
 2208POPC   C3B30225  31.697  29.062   7.964
 2208POPC   C4B30226  31.664  29.050   7.664
 2209POPC   NC330227  15.223  38.498   9.464
 2209POPC   PO430228  15.167  38.440   9.164
 2209POPC   GL130229  15.189  38.492   8.864
 2209POPC   GL230230  15.035  38.436   8.864
 2209POPC   C1A30231  15.139  38.503   8.564
 2209POPC   D2A30232  15.204  38.462   8.264
 2209POPC   C3A30233  15.222  38.441   7.964
 2209POPC   C4A30234  15.208  38.428   7.664
 2209POPC   C1B30235  14.945  38.530   8.564
 2209POPC   C2B30236  14.976  38.527   8.264
 2209POPC   C3B30237  14.931  38.533   7.964
 2209POPC   C4B30238  14.951  38.495   7.664
 2210POPC   NC330239  40.810  26.776   9.464
 2210POPC   PO430240  40.735  26.830   9.164
 2210POPC   GL130241  40.829  26.866   8.864
 2210POPC   GL230242  40.774  26.716   8.864
 2210POPC   C1A30243  40.806  26.856   8.564
 2210POPC   D2A30244  40.784  26.807   8.264
 2210POPC   C3A30245  40.764  26.813   7.964
 2210POPC   C4A30246  40.738  26.858   7.664
 2210POPC   C1B30247  40.801  26.570   8.564
 2210POPC   C2B30248  40.794  26.543   8.264
 2210POPC   C3B30249  40.804  26.559   7.964
 2210POPC   C4B30250  40.801  26.570   7.664
 2211POPC   NC330251  12.822   8.960   9.464
 2211POPC   PO430252  12.835   8.944   9.164
 2211POPC   GL130253  12.864   8.977   8.864
 2211POPC   GL230254  12.764   9.080   8.864
 2211POPC   C1A30255  12.874   9.000   8.564
 2211POPC   D2A30256  12.865   8.959   8.264
 2211POPC   C3A30257  12.836   8.923   7.964
 2211POPC   C4A30258  12.835   8.926   7.664
 2211POPC   C1B30259  12.788   9.238   8.564
 2211POPC   C2B30260  12.768   9.237   8.264
 2211POPC   C3B30261  12.730   9.214   7.964
 2211POPC   C4B30262  12.784   9.207   7.664
 2212POPC   NC330263  42.309  33.052   9.464
 2212POPC   PO430264  42.325  33.016   9.164
 2212POPC   GL130265  42.317  33.011   8.864
 2212POPC   GL230266  42.434  33.038   8.864
 2212POPC   C1A30267  42.358  33.009   8.564
 2212POPC   D2A30268  42.384  33.008   8.264
 2212POPC   C3A30269  42.323  32.975   7.964
 2212POPC   C4A30270  42.344  33.025   7.664
 2212POPC   C1B30271  42.630  32.983   8.564
 2212POPC   C2B30272  42.606  33.054   8.264
 2212POPC   C3B30273  42.630  33.069   7.964
 2212POPC   C4B30274  42.545  33.051   7.664
 2213POPC   NC330275   8.957  24.488   9.464
 2213POPC   PO430276   8.937  24.535   9.164
 2213POPC   GL130277   8.940  24.518   8.864
 2213POPC   GL230278   8.910  24.385   8.864
 2213POPC   C1A30279   8.932  24.503   8.564
 2213POPC   D2A30280   9.020  24.474   8.264
 2213POPC   C3A30281   9.003  24.468   7.964
 2213POPC   C4A30282   8.940  24.476   7.664
 2213POPC   C1B30283   8.829  24.251   8.564
 2213POPC   C2B30284   8.837  24.278   8.264
 2213POPC   C3B30285   8.866  24.306   7.964
 2213POPC   C4B30286   8.832  24.290   7.664
 2214POPC   NC330287  14.392  39.265   9.464
 2214POPC   PO430288  14.357  39.246   9.164
 2214POPC   GL130289  14.387  39.202   8.864
 2214POPC   GL230290  14.255  39.245   8.864
 2214POPC   C1A30291  14.420  39.202   8.564
 2214POPC   D2A30292  14.377  39.280   8.264
 2214POPC   C3A30293  14.427  39.252   7.964
 2214POPC   C4A30294  14.432  39.265   7.664
 2214POPC   C1B30295  14.156  39.239   8.564
 2214POPC   C2B30296  14.110  39.196   8.264
 2214POPC   C3B30297  14.182  39.228   7.964
 2214POPC   C4B30298  14.156  39.231   7.664
 2215POPC   NC330299   1.961   9.015   9.464
 2215POPC   PO430300   2.007   9.009   9.164
 2215POPC   GL130301   1.947   8.976   8.864
 2215POPC   GL230302   1.943   8.837   8.864
 2215POPC   C1A30303   1.943   8.963   8.564
 2215POPC   D2A30304   1.980   9.020   8.264
 2215POPC   C3A30305   1.942   9.005   7.964
 2215POPC   C4A30306   2.006   9.007   7.664
 2215POPC   C1B30307   1.959   8.725   8.564
 2215POPC   C2B30308   1.892   8.745   8.264
 2215POPC   C3B30309   1.964   8.710   7.964
 2215POPC   C4B30310   1.908   8.773   7.664
 2216POPC   NC330311  24.449  17.485   9.464
 2216POPC   PO430312  24.495  17.529   9.164
 2216POPC   GL130313  24.515  17.499   8.864
 2216POPC   GL230314  24.611  17.553   8.864
 2216POPC   C1A30315  24.497  17.502   8.564
 2216POPC   D2A30316  24.462  17.543   8.264
 2216POPC   C3A30317  24.509  17.533   7.964
 2216POPC   C4A30318  24.515  17.539   7.664
 2216POPC   C1B30319  24.724  17.522   8.564
 2216POPC   C2B30320  24.754  17.569   8.264
 2216POPC   C3B30321  24.753  17.547   7.964
 2216POPC   C4B30322  24.688  17.583   7.664
 2217POPC   NC330323   6.665  12.046   9.464
 2217POPC   PO430324   6.629  12.040   9.164
 2217POPC   GL130325   6.664  12.110   8.864
 2217POPC   GL230326   6.478  12.055   8.864
 2217POPC   C1A30327   6.666  12.123   8.564
 2217POPC   D2A30328   6.611  12.038   8.264
 2217POPC   C3A30329   6.611  12.034   7.964
 2217POPC   C4A30330   6.651  12.080   7.664
 2217POPC   C1B30331   6.392  12.061   8.564
 2217POPC   C2B30332   6.397  12.076   8.264
 2217POPC   C3B30333   6.372  12.034   7.964
 2217POPC   C4B30334   6.388  12.005   7.664
 2218POPC   NC330335  43.082  20.612   9.464
 2218POPC   PO430336  43.134  20.574   9.164
 2218POPC   GL130337  43.097  20.629   8.864
 2218POPC   GL230338  43.029  20.678   8.864
 2218POPC   C1A30339  43.085  20.594   8.564
 2218POPC   D2A30340  43.132  20.630   8.264
 2218POPC   C3A30341  43.144  20.578   7.964
 2218POPC   C4A30342  43.159  20.594   7.664
 2218POPC   C1B30343  43.016  20.838   8.564
 2218POPC   C2B30344  42.988  20.842   8.264
 2218POPC   C3B30345  43.013  20.799   7.964
 2218POPC   C4B30346  43.005  20.858   7.664
 2219POPC   NC330347  33.782  20.650   9.464
 2219POPC   PO430348  33.823  20.604   9.164
 2219POPC   GL130349  33.760  20.566   8.864
 2219POPC   GL230350  33.847  20.736   8.864
 2219POPC   C1A30351  33.805  20.617   8.564
 2219POPC   D2A30352  33.828  20.588   8.264
 2219POPC   C3A30353  33.795  20.649   7.964
 2219POPC   C4A30354  33.789  20.566   7.664
 2219POPC   C1B30355  33.994  20.824   8.564
 2219POPC   C2B30356  33.940  20.778   8.264
 2219POPC   C3B30357  33.985  20.806   7.964
 2219POPC   C4B30358  34.029  20.760   7.664
 2220POPC   NC330359  22.200  16.737   9.464
 2220POPC   PO430360  22.166  16.749   9.164
 2220POPC   GL130361  22.136  16.690   8.864
 2220POPC   GL230362  22.034  16.747   8.864
 2220POPC   C1A30363  22.169  16.758   8.564
 2220POPC   D2A30364  22.211  16.710   8.264
 2220POPC   C3A30365  22.202  16.718   7.964
 2220POPC   C4A30366  22.210  16.686   7.664
 2220POPC   C1B30367  21.960  16.858   8.564
 2220POPC   C2B30368  21.964  16.903   8.264
 2220POPC   C3B30369  21.934  16.824   7.964
 2220POPC   C4B30370  21.976  16.890   7.664
 2221POPC   NC330371  43.121   3.539   9.464
 2221POPC   PO430372  43.143   3.509   9.164
 2221POPC   GL130373  43.099   3.518   8.864
 2221POPC   GL230374  43.100   3.433   8.864
 2221POPC   C1A30375  43.141   3.559   8.564
 2221POPC   D2A30376  43.106   3.520   8.264
 2221POPC   C3A30377  43.101   3.564   7.964
 2221POPC   C4A30378  43.080   3.499   7.664
 2221POPC   C1B30379  43.068   3.271   8.564
 2221POPC   C2B30380  43.062   3.323   8.264
 2221POPC   C3B30381  43.084   3.346   7.964
 2221POPC   C4B30382  43.080   3.297   7.664
 2222POPC   NC330383   5.834  23.675   9.464
 2222POPC   PO430384   5.841  23.710   9.164
 2222POPC   GL130385   5.869  23.685   8.864
 2222POPC   GL230386   5.873  23.574   8.864
 2222POPC   C1A30387   5.895  23.755   8.564
 2222POPC   D2A30388   5.867  23.699   8.264
 2222POPC   C3A30389   5.853  23.672   7.964
 2222POPC   C4A30390   5.839  23.680   7.664
 2222POPC   C1B30391   5.807  23.517   8.564
 2222POPC   C2B30392   5.862  23.434   8.264
 2222POPC   C3B30393   5.786  23.467   7.964
 2222POPC   C4B30394   5.792  23.474   7.664
 2223POPC   NC330395  18.324   6.691   9.464
 2223POPC   PO430396  18.306   6.681   9.164
 2223POPC   GL130397  18.324   6.689   8.864
 2223POPC   GL230398  18.147   6.611   8.864
 2223POPC   C1A30399  18.269   6.596   8.564
 2223POPC   D2A30400  18.304   6.682   8.264
 2223POPC   C3A30401  18.275   6.604   7.964
 2223POPC   C4A30402  18.282   6.606   7.664
 2223POPC   C1B30403  18.064   6.516   8.564
 2223POPC   C2B30404  18.101   6.517   8.264
 2223POPC   C3B30405  18.098   6.479   7.964
 2223POPC   C4B30406  18.127   6.487   7.664
 2224POPC   NC330407  24.460  23.753   9.464
 2224POPC   PO430408  24.513  23.708   9.164
 2224POPC   GL130409  24.480  23.670   8.864
 2224POPC   GL230410  24.358  23.671   8.864
 2224POPC   C1A30411  24.502  23.759   8.564
 2224POPC   D2A30412  24.457  23.688   8.264
 2224POPC   C3A30413  24.450  23.736   7.964
 2224POPC   C4A30414  24.493  23.715   7.664
 2224POPC   C1B30415  24.251  23.557   8.564
 2224POPC   C2B30416  24.254  23.573   8.264
 2224POPC   C3B30417  24.237  23.556   7.964
 2224POPC   C4B30418  24.257  23.580   7.664
 2225POPC   NC330419  33.044  22.122   9.464
 2225POPC   PO430420  33.061  22.136   9.164
 2225POPC   GL130421  33.025  22.210   8.864
 2225POPC   GL230422  33.127  22.171   8.864
 2225POPC   C1A30423  33.021  22.130   8.564
 2225POPC   D2A30424  32.999  22.194   8.264
 2225POPC   C3A30425  32.996  22.178   7.964
 2225POPC   C4A30426  32.982  22.139   7.664
 2225POPC   C1B30427  33.225  22.108   8.564
 2225POPC   C2B30428  33.284  22.124   8.264
 2225POPC   C3B30429  33.233  22.133   7.964
 2225POPC   C4B30430  33.322  22.156   7.664
 2226POPC   NC330431  34.588   3.577   9.464
 2226POPC   PO430432  34.582   3.577   9.164
 2226POPC   GL130433  34.560   3.499   8.864
 2226POPC   GL230434  34.690   3.513   8.864
 2226POPC   C1A30435  34.542   3.542   8.564
 2226POPC   D2A30436  34.536   3.492   8.264
 2226POPC   C3A30437  34.529   3.585   7.964
 2226POPC   C4A30438  34.560   3.550   7.664
 2226POPC   C1B30439  34.814   3.495   8.564
 2226POPC   C2B30440  34.816   3.461   8.264
 2226POPC   C3B30441  34.797   3.440   7.964
 2226POPC   C4B30442  34.799   3.469   7.664
 2227POPC   NC330443   7.469  37.664   9.464
 2227POPC   PO430444   7.464  37.691   9.164
 2227POPC   GL130445   7.416  37.630   8.864
 2227POPC   GL230446   7.503  37.819   8.864
 2227POPC   C1A30447   7.449  37.663   8.564
 2227POPC   D2A30448   7.375  37.679   8.264
 2227POPC   C3A30449   7.432  37.691   7.964
 2227POPC   C4A30450   7.448  37.647   7.664
 2227POPC   C1B30451   7.611  37.917   8.564
 2227POPC   C2B30452   7.586  37.875   8.264
 2227POPC   C3B30453   7.579  37.831   7.964
 2227POPC   C4B30454   7.573  37.893   7.664
 2228POPC   NC330455  23.664  24.487   9.464
 2228POPC   PO430456  23.685  24.518   9.164
 2228POPC   GL130457  23.709  24.466   8.864
 2228POPC   GL230458  23.628  24.538   8.864
 2228POPC   C1A30459  23.670  24.527   8.564
 2228POPC   D2A30460  23.734  24.442   8.264
 2228POPC   C3A30461  23.686  24.454   7.964
 2228POPC   C4A30462  23.736  24.464   7.664
 2228POPC   C1B30463  23.506  24.545   8.564
 2228POPC   C2B30464  23.492  24.572   8.264
 2228POPC   C3B30465  23.473  24.543   7.964
 2228POPC   C4B30466  23.420  24.547   7.664
 2229POPC   NC330467   0.454   1.994   9.464
 2229POPC   PO430468   0.398   2.014   9.164
 2229POPC   GL130469   0.406   2.001   8.864
 2229POPC   GL230470   0.273   2.006   8.864
 2229POPC   C1A30471   0.419   1.988   8.564
 2229POPC   D2A30472   0.457   1.946   8.264
 2229POPC   C3A30473   0.478   2.016   7.964
 2229POPC   C4A30474   0.429   1.944   7.664
 2229POPC   C1B30475   0.198   2.073   8.564
 2229POPC   C2B30476   0.233   2.075   8.264
 2229POPC   C3B30477   0.186   2.045   7.964
 2229POPC   C4B30478   0.210   2.002   7.664
 2230POPC   NC330479  16.702  42.328   9.464
 2230POPC   PO430480  16.703  42.297   9.164
 2230POPC   GL130481  16.707  42.382   8.864
 2230POPC   GL230482  16.653  42.439   8.864
 2230POPC   C1A30483  16.684  42.371   8.564
 2230POPC   D2A30484  16.781  42.329   8.264
 2230POPC   C3A30485  16.701  42.313   7.964
 2230POPC   C4A30486  16.728  42.319   7.664
 2230POPC   C1B30487  16.534  42.415   8.564
 2230POPC   C2B30488  16.510  42.475   8.264
 2230POPC   C3B30489  16.546  42.453   7.964
 2230POPC   C4B30490  16.496  42.422   7.664
 2231POPC   NC330491  41.588  31.464   9.464
 2231POPC   PO430492  41.538  31.519   9.164
 2231POPC   GL130493  41.530  31.449   8.864
 2231POPC   GL230494  41.454  31.396   8.864
 2231POPC   C1A30495  41.522  31.483   8.564
 2231POPC   D2A30496  41.557  31.493   8.264
 2231POPC   C3A30497  41.593  31.433   7.964
 2231POPC   C4A30498  41.594  31.497   7.664
 2231POPC   C1B30499  41.440  31.248   8.564
 2231POPC   C2B30500  41.443  31.268   8.264
 2231POPC   C3B30501  41.436  31.230   7.964
 2231POPC   C4B30502  41.414  31.298   7.664
 2232POPC   NC330503  13.664  23.740   9.464
 2232POPC   PO430504  13.630  23.740   9.164
 2232POPC   GL130505  13.594  23.688   8.864
 2232POPC   GL230506  13.761  23.678   8.864
 2232POPC   C1A30507  13.629  23.763   8.564
 2232POPC   D2A30508  13.594  23.735   8.264
 2232POPC   C3A30509  13.593  23.726   7.964
 2232POPC   C4A30510  13.583  23.699   7.664
 2232POPC   C1B30511  13.845  23.700   8.564
 2232POPC   C2B30512  13.899  23.712   8.264
 2232POPC   C3B30513  13.872  23.675   7.964
 2232POPC   C4B30514  13.872  23.670   7.664
 2233POPC   NC330515   5.139  43.103   9.464
 2233POPC   PO430516   5.128  43.117   9.164
 2233POPC   GL130517   5.127  43.079   8.864
 2233POPC   GL230518   4.969  43.096   8.864
 2233POPC   C1A30519   5.054  43.138   8.564
 2233POPC   D2A30520   5.135  43.099   8.264
 2233POPC   C3A30521   5.104  43.144   7.964
 2233POPC   C4A30522   5.085  43.132   7.664
 2233POPC   C1B30523   4.840  43.013   8.564
 2233POPC   C2B30524   4.869  42.962   8.264
 2233POPC   C3B30525   4.894  42.973   7.964
 2233POPC   C4B30526   4.916  42.977   7.664
 2234POPC   NC330527   8.216  35.305   9.464
 2234POPC   PO430528   8.218  35.364   9.164
 2234POPC   GL130529   8.177  35.333   8.864
 2234POPC   GL230530   8.035  35.357   8.864
 2234POPC   C1A30531   8.148  35.314   8.564
 2234POPC   D2A30532   8.223  35.320   8.264
 2234POPC   C3A30533   8.215  35.317   7.964
 2234POPC   C4A30534   8.199  35.337   7.664
 2234POPC   C1B30535   7.937  35.255   8.564
 2234POPC   C2B30536   8.004  35.258   8.264
 2234POPC   C3B30537   7.918  35.276   7.964
 2234POPC   C4B30538   7.912  35.254   7.664
 2235POPC   NC330539  17.533  12.806   9.464
 2235POPC   PO430540  17.525  12.830   9.164
 2235POPC   GL130541  17.513  12.884   8.864
 2235POPC   GL230542  17.526  12.706   8.864
 2235POPC   C1A30543  17.495  12.825   8.564
 2235POPC   D2A30544  17.520  12.840   8.264
 2235POPC   C3A30545  17.492  12.822   7.964
 2235POPC   C4A30546  17.465  12.872   7.664
 2235POPC   C1B30547  17.477  12.558   8.564
 2235POPC   C2B30548  17.489  12.585   8.264
 2235POPC   C3B30549  17.478  12.615   7.964
 2235POPC   C4B30550  17.502  12.641   7.664
 2236POPC   NC330551  23.747  41.544   9.464
 2236POPC   PO430552  23.749  41.594   9.164
 2236POPC   GL130553  23.750  41.544   8.864
 2236POPC   GL230554  23.852  41.565   8.864
 2236POPC   C1A30555  23.668  41.607   8.564
 2236POPC   D2A30556  23.678  41.586   8.264
 2236POPC   C3A30557  23.685  41.522   7.964
 2236POPC   C4A30558  23.736  41.599   7.664
 2236POPC   C1B30559  24.008  41.538   8.564
 2236POPC   C2B30560  24.001  41.513   8.264
 2236POPC   C3B30561  23.928  41.505   7.964
 2236POPC   C4B30562  24.004  41.470   7.664
 2237POPC   NC330563  28.374  22.180   9.464
 2237POPC   PO430564  28.368  22.149   9.164
 2237POPC   GL130565  28.416  22.190   8.864
 2237POPC   GL230566  28.461  22.263   8.864
 2237POPC   C1A30567  28.390  22.139   8.564
 2237POPC   D2A30568  28.323  22.152   8.264
 2237POPC   C3A30569  28.404  22.202   7.964
 2237POPC   C4A30570  28.413  22.186   7.664
 2237POPC   C1B30571  28.628  22.293   8.564
 2237POPC   C2B30572  28.598  22.315   8.264
 2237POPC   C3B30573  28.613  22.246   7.964
 2237POPC   C4B30574  28.631  22.314   7.664
 2238POPC   NC330575   0.475  15.192   9.464
 2238POPC   PO430576   0.431  15.207   9.164
 2238POPC   GL130577   0.448  15.145   8.864
 2238POPC   GL230578   0.450  15.346   8.864
 2238POPC   C1A30579   0.412  15.220   8.564
 2238POPC   D2A30580   0.460  15.163   8.264
 2238POPC   C3A30581   0.445  15.187   7.964
 2238POPC   C4A30582   0.481  15.173   7.664
 2238POPC   C1B30583   0.389  15.381   8.564
 2238POPC   C2B30584   0.360  15.430   8.264
 2238POPC   C3B30585   0.423  15.446   7.964
 2238POPC   C4B30586   0.394  15.412   7.664
 2239POPC   NC330587   3.510  41.608   9.464
 2239POPC   PO430588   3.568  41.566   9.164
 2239POPC   GL130589   3.565  41.580   8.864
 2239POPC   GL230590   3.517  41.715   8.864
 2239POPC   C1A30591   3.556  41.583   8.564
 2239POPC   D2A30592   3.555  41.548   8.264
 2239POPC   C3A30593   3.565  41.586   7.964
 2239POPC   C4A30594   3.574  41.549   7.664
 2239POPC   C1B30595   3.543  41.838   8.564
 2239POPC   C2B30596   3.568  41.849   8.264
 2239POPC   C3B30597   3.537  41.798   7.964
 2239POPC   C4B30598   3.539  41.760   7.664
 2240POPC   NC330599   9.775   5.141   9.464
 2240POPC   PO430600   9.732   5.081   9.164
 2240POPC   GL130601   9.756   5.134   8.864
 2240POPC   GL230602   9.800   5.147   8.864
 2240POPC   C1A30603   9.793   5.064   8.564
 2240POPC   D2A30604   9.721   5.136   8.264
 2240POPC   C3A30605   9.701   5.115   7.964
 2240POPC   C4A30606   9.740   5.083   7.664
 2240POPC   C1B30607   9.906   5.300   8.564
 2240POPC   C2B30608   9.894   5.280   8.264
 2240POPC   C3B30609   9.924   5.283   7.964
 2240POPC   C4B30610   9.926   5.243   7.664
 2241POPC   NC330611  10.514   0.451   9.464
 2241POPC   PO430612  10.571   0.429   9.164
 2241POPC   GL130613  10.495   0.424   8.864
 2241POPC   GL230614  10.462   0.556   8.864
 2241POPC   C1A30615  10.574   0.445   8.564
 2241POPC   D2A30616  10.573   0.407   8.264
 2241POPC   C3A30617  10.485   0.428   7.964
 2241POPC   C4A30618  10.540   0.405   7.664
 2241POPC   C1B30619  10.486   0.682   8.564
 2241POPC   C2B30620  10.497   0.711   8.264
 2241POPC   C3B30621  10.412   0.680   7.964
 2241POPC   C4B30622  10.493   0.721   7.664
 2242POPC   NC330623  13.627  34.527   9.464
 2242POPC   PO430624  13.637  34.583   9.164
 2242POPC   GL130625  13.594  34.621   8.864
 2242POPC   GL230626  13.661  34.707   8.864
 2242POPC   C1A30627  13.676  34.591   8.564
 2242POPC   D2A30628  13.590  34.623   8.264
 2242POPC   C3A30629  13.602  34.619   7.964
 2242POPC   C4A30630  13.605  34.593   7.664
 2242POPC   C1B30631  13.734  34.822   8.564
 2242POPC   C2B30632  13.699  34.842   8.264
 2242POPC   C3B30633  13.710  34.790   7.964
 2242POPC   C4B30634  13.707  34.801   7.664
 2243POPC   NC330635  33.841  34.552   9.464
 2243POPC   PO430636  33.811  34.609   9.164
 2243POPC   GL130637  33.835  34.620   8.864
 2243POPC   GL230638  33.835  34.464   8.864
 2243POPC   C1A30639  33.818  34.535   8.564
 2243POPC   D2A30640  33.777  34.580   8.264
 2243POPC   C3A30641  33.842  34.574   7.964
 2243POPC   C4A30642  33.836  34.617   7.664
 2243POPC   C1B30643  33.872  34.303   8.564
 2243POPC   C2B30644  33.855  34.291   8.264
 2243POPC   C3B30645  33.856  34.315   7.964
 2243POPC   C4B30646  33.863  34.374   7.664
 2244POPC   NC330647  35.377  29.954   9.464
 2244POPC   PO430648  35.318  29.926   9.164
 2244POPC   GL130649  35.357  29.947   8.864
 2244POPC   GL230650  35.345  30.019   8.864
 2244POPC   C1A30651  35.341  29.918   8.564
 2244POPC   D2A30652  35.399  29.927   8.264
 2244POPC   C3A30653  35.340  29.956   7.964
 2244POPC   C4A30654  35.383  29.937   7.664
 2244POPC   C1B30655  35.422  30.164   8.564
 2244POPC   C2B30656  35.484  30.170   8.264
 2244POPC   C3B30657  35.479  30.189   7.964
 2244POPC   C4B30658  35.396  30.154   7.664
 2245POPC   NC330659   8.987   3.570   9.464
 2245POPC   PO430660   8.934   3.567   9.164
 2245POPC   GL130661   8.962   3.507   8.864
 2245POPC   GL230662   8.972   3.410   8.864
 2245POPC   C1A30663   8.944   3.516   8.564
 2245POPC   D2A30664   8.980   3.588   8.264
 2245POPC   C3A30665   9.020   3.546   7.964
 2245POPC   C4A30666   8.982   3.496   7.664
 2245POPC   C1B30667   9.013   3.267   8.564
 2245POPC   C2B30668   8.988   3.325   8.264
 2245POPC   C3B30669   9.022   3.314   7.964
 2245POPC   C4B30670   9.043   3.316   7.664
 2246POPC   NC330671  39.182  10.561   9.464
 2246POPC   PO430672  39.268  10.496   9.164
 2246POPC   GL130673  39.261  10.488   8.864
 2246POPC   GL230674  39.164  10.459   8.864
 2246POPC   C1A30675  39.209  10.533   8.564
 2246POPC   D2A30676  39.190  10.527   8.264
 2246POPC   C3A30677  39.244  10.496   7.964
 2246POPC   C4A30678  39.191  10.500   7.664
 2246POPC   C1B30679  39.106  10.305   8.564
 2246POPC   C2B30680  39.171  10.293   8.264
 2246POPC   C3B30681  39.150  10.287   7.964
 2246POPC   C4B30682  39.081  10.256   7.664
 2247POPC   NC330683  13.585  40.018   9.464
 2247POPC   PO430684  13.623  39.978   9.164
 2247POPC   GL130685  13.616  40.030   8.864
 2247POPC   GL230686  13.564  40.105   8.864
 2247POPC   C1A30687  13.621  39.987   8.564
 2247POPC   D2A30688  13.591  39.972   8.264
 2247POPC   C3A30689  13.597  40.034   7.964
 2247POPC   C4A30690  13.625  40.038   7.664
 2247POPC   C1B30691  13.499  40.201   8.564
 2247POPC   C2B30692  13.530  40.164   8.264
 2247POPC   C3B30693  13.528  40.208   7.964
 2247POPC   C4B30694  13.479  40.190   7.664
 2248POPC   NC330695  39.207  15.929   9.464
 2248POPC   PO430696  39.188  15.951   9.164
 2248POPC   GL130697  39.201  15.921   8.864
 2248POPC   GL230698  39.250  16.049   8.864
 2248POPC   C1A30699  39.211  15.970   8.564
 2248POPC   D2A30700  39.225  15.960   8.264
 2248POPC   C3A30701  39.281  15.976   7.964
 2248POPC   C4A30702  39.201  15.931   7.664
 2248POPC   C1B30703  39.208  16.182   8.564
 2248POPC   C2B30704  39.159  16.162   8.264
 2248POPC   C3B30705  39.204  16.245   7.964
 2248POPC   C4B30706  39.179  16.162   7.664
 2249POPC   NC330707  41.557  18.250   9.464
 2249POPC   PO430708  41.528  18.283   9.164
 2249POPC   GL130709  41.566  18.299   8.864
 2249POPC   GL230710  41.525  18.159   8.864
 2249POPC   C1A30711  41.552  18.310   8.564
 2249POPC   D2A30712  41.602  18.313   8.264
 2249POPC   C3A30713  41.516  18.251   7.964
 2249POPC   C4A30714  41.522  18.265   7.664
 2249POPC   C1B30715  41.382  18.035   8.564
 2249POPC   C2B30716  41.374  18.059   8.264
 2249POPC   C3B30717  41.416  18.112   7.964
 2249POPC   C4B30718  41.388  18.088   7.664
 2250POPC   NC330719  36.154  26.800   9.464
 2250POPC   PO430720  36.095  26.855   9.164
 2250POPC   GL130721  36.156  26.855   8.864
 2250POPC   GL230722  36.172  26.895   8.864
 2250POPC   C1A30723  36.108  26.783   8.564
 2250POPC   D2A30724  36.114  26.815   8.264
 2250POPC   C3A30725  36.092  26.865   7.964
 2250POPC   C4A30726  36.090  26.799   7.664
 2250POPC   C1B30727  36.306  26.972   8.564
 2250POPC   C2B30728  36.248  27.035   8.264
 2250POPC   C3B30729  36.279  27.016   7.964
 2250POPC   C4B30730  36.302  27.064   7.664
 2251POPC   NC330731  29.117  43.107   9.464
 2251POPC   PO430732  29.126  43.115   9.164
 2251POPC   GL130733  29.135  43.136   8.864
 2251POPC   GL230734  28.982  43.112   8.864
 2251POPC   C1A30735  29.183  43.098   8.564
 2251POPC   D2A30736  29.188  43.099   8.264
 2251POPC   C3A30737  29.130  43.109   7.964
 2251POPC   C4A30738  29.132  43.132   7.664
 2251POPC   C1B30739  28.872  43.214   8.564
 2251POPC   C2B30740  28.960  43.180   8.264
 2251POPC   C3B30741  28.943  43.154   7.964
 2251POPC   C4B30742  28.908  43.209   7.664
 2252POPC   NC330743   3.532  22.120   9.464
 2252POPC   PO430744   3.498  22.176   9.164
 2252POPC   GL130745   3.584  22.188   8.864
 2252POPC   GL230746   3.655  22.184   8.864
 2252POPC   C1A30747   3.542  22.187   8.564
 2252POPC   D2A30748   3.559  22.192   8.264
 2252POPC   C3A30749   3.564  22.155   7.964
 2252POPC   C4A30750   3.570  22.134   7.664
 2252POPC   C1B30751   3.760  22.144   8.564
 2252POPC   C2B30752   3.799  22.133   8.264
 2252POPC   C3B30753   3.772  22.119   7.964
 2252POPC   C4B30754   3.789  22.114   7.664
 2253POPC   NC330755  33.850  14.360   9.464
 2253POPC   PO430756  33.837  14.372   9.164
 2253POPC   GL130757  33.765  14.432   8.864
 2253POPC   GL230758  33.679  14.453   8.864
 2253POPC   C1A30759  33.784  14.404   8.564
 2253POPC   D2A30760  33.754  14.371   8.264
 2253POPC   C3A30761  33.761  14.420   7.964
 2253POPC   C4A30762  33.756  14.445   7.664
 2253POPC   C1B30763  33.545  14.470   8.564
 2253POPC   C2B30764  33.517  14.527   8.264
 2253POPC   C3B30765  33.515  14.521   7.964
 2253POPC   C4B30766  33.579  14.497   7.664
 2254POPC   NC330767  19.050  24.466   9.464
 2254POPC   PO430768  19.027  24.521   9.164
 2254POPC   GL130769  19.034  24.528   8.864
 2254POPC   GL230770  18.935  24.434   8.864
 2254POPC   C1A30771  19.030  24.516   8.564
 2254POPC   D2A30772  19.049  24.477   8.264
 2254POPC   C3A30773  19.108  24.484   7.964
 2254POPC   C4A30774  19.019  24.512   7.664
 2254POPC   C1B30775  18.850  24.407   8.564
 2254POPC   C2B30776  18.843  24.402   8.264
 2254POPC   C3B30777  18.810  24.394   7.964
 2254POPC   C4B30778  18.866  24.373   7.664
 2255POPC   NC330779   3.572  16.702   9.464
 2255POPC   PO430780   3.571  16.737   9.164
 2255POPC   GL130781   3.507  16.755   8.864
 2255POPC   GL230782   3.606  16.615   8.864
 2255POPC   C1A30783   3.574  16.707   8.564
 2255POPC   D2A30784   3.501  16.773   8.264
 2255POPC   C3A30785   3.513  16.709   7.964
 2255POPC   C4A30786   3.505  16.757   7.664
 2255POPC   C1B30787   3.581  16.536   8.564
 2255POPC   C2B30788   3.640  16.494   8.264
 2255POPC   C3B30789   3.588  16.533   7.964
 2255POPC   C4B30790   3.627  16.526   7.664
 2256POPC   NC330791  40.795  43.875   9.464
 2256POPC   PO430792  40.771  43.901   9.164
 2256POPC   GL130793  40.800  43.849   8.864
 2256POPC   GL230794  40.893  43.855   8.864
 2256POPC   C1A30795  40.740  43.902   8.564
 2256POPC   D2A30796  40.795  43.881   8.264
 2256POPC   C3A30797  40.740  43.924   7.964
 2256POPC   C4A30798  40.753  43.842   7.664
 2256POPC   C1B30799  41.007  43.832   8.564
 2256POPC   C2B30800  41.009  43.902   8.264
 2256POPC   C3B30801  41.033  43.877   7.964
 2256POPC   C4B30802  40.998  43.857   7.664
 2257POPC   NC330803  36.124  22.982   9.464
 2257POPC   PO430804  36.110  22.979   9.164
 2257POPC   GL130805  36.097  22.901   8.864
 2257POPC   GL230806  36.133  23.044   8.864
 2257POPC   C1A30807  36.150  22.944   8.564
 2257POPC   D2A30808  36.116  22.960   8.264
 2257POPC   C3A30809  36.136  22.967   7.964
 2257POPC   C4A30810  36.081  22.921   7.664
 2257POPC   C1B30811  36.202  23.150   8.564
 2257POPC   C2B30812  36.261  23.150   8.264
 2257POPC   C3B30813  36.229  23.210   7.964
 2257POPC   C4B30814  36.258  23.137   7.664
 2258POPC   NC330815  13.590  37.697   9.464
 2258POPC   PO430816  13.624  37.649   9.164
 2258POPC   GL130817  13.662  37.657   8.864
 2258POPC   GL230818  13.487  37.651   8.864
 2258POPC   C1A30819  13.659  37.645   8.564
 2258POPC   D2A30820  13.619  37.697   8.264
 2258POPC   C3A30821  13.642  37.647   7.964
 2258POPC   C4A30822  13.641  37.673   7.664
 2258POPC   C1B30823  13.343  37.669   8.564
 2258POPC   C2B30824  13.376  37.644   8.264
 2258POPC   C3B30825  13.339  37.683   7.964
 2258POPC   C4B30826  13.336  37.611   7.664
 2259POPC   NC330827  30.745  22.184   9.464
 2259POPC   PO430828  30.716  22.177   9.164
 2259POPC   GL130829  30.672  22.112   8.864
 2259POPC   GL230830  30.816  22.050   8.864
 2259POPC   C1A30831  30.666  22.206   8.564
 2259POPC   D2A30832  30.710  22.205   8.264
 2259POPC   C3A30833  30.708  22.194   7.964
 2259POPC   C4A30834  30.698  22.134   7.664
 2259POPC   C1B30835  30.907  21.945   8.564
 2259POPC   C2B30836  30.882  21.978   8.264
 2259POPC   C3B30837  30.908  21.935   7.964
 2259POPC   C4B30838  30.825  21.953   7.664
 2260POPC   NC330839  21.426  18.233   9.464
 2260POPC   PO430840  21.399  18.260   9.164
 2260POPC   GL130841  21.387  18.320   8.864
 2260POPC   GL230842  21.351  18.441   8.864
 2260POPC   C1A30843  21.339  18.303   8.564
 2260POPC   D2A30844  21.366  18.272   8.264
 2260POPC   C3A30845  21.389  18.278   7.964
 2260POPC   C4A30846  21.410  18.265   7.664
 2260POPC   C1B30847  21.290  18.571   8.564
 2260POPC   C2B30848  21.281  18.488   8.264
 2260POPC   C3B30849  21.357  18.547   7.964
 2260POPC   C4B30850  21.343  18.571   7.664
 2261POPC   NC330851  13.603  44.641   9.464
 2261POPC   PO430852  13.594  44.710   9.164
 2261POPC   GL130853  13.581  44.685   8.864
 2261POPC   GL230854  13.554  44.719   8.864
 2261POPC   C1A30855  13.660  44.683   8.564
 2261POPC   D2A30856  13.618  44.648   8.264
 2261POPC   C3A30857  13.665  44.624   7.964
 2261POPC   C4A30858  13.591  44.687   7.664
 2261POPC   C1B30859  13.440  44.783   8.564
 2261POPC   C2B30860  13.377  44.802   8.264
 2261POPC   C3B30861  13.380  44.752   7.964
 2261POPC   C4B30862  13.461  44.823   7.664
 2262POPC   NC330863  34.599  43.100   9.464
 2262POPC   PO430864  34.549  43.124   9.164
 2262POPC   GL130865  34.605  43.134   8.864
 2262POPC   GL230866  34.659  43.070   8.864
 2262POPC   C1A30867  34.611  43.068   8.564
 2262POPC   D2A30868  34.531  43.094   8.264
 2262POPC   C3A30869  34.533  43.084   7.964
 2262POPC   C4A30870  34.622  43.122   7.664
 2262POPC   C1B30871  34.771  43.072   8.564
 2262POPC   C2B30872  34.854  43.040   8.264
 2262POPC   C3B30873  34.862  43.099   7.964
 2262POPC   C4B30874  34.789  43.046   7.664
 2263POPC   NC330875  15.999  11.276   9.464
 2263POPC   PO430876  15.939  11.347   9.164
 2263POPC   GL130877  15.996  11.271   8.864
 2263POPC   GL230878  16.063  11.279   8.864
 2263POPC   C1A30879  15.908  11.343   8.564
 2263POPC   D2A30880  15.953  11.299   8.264
 2263POPC   C3A30881  15.982  11.348   7.964
 2263POPC   C4A30882  15.979  11.255   7.664
 2263POPC   C1B30883  16.142  11.183   8.564
 2263POPC   C2B30884  16.205  11.188   8.264
 2263POPC   C3B30885  16.160  11.172   7.964
 2263POPC   C4B30886  16.164  11.150   7.664
 2264POPC   NC330887  13.642   0.430   9.464
 2264POPC   PO430888  13.644   0.409   9.164
 2264POPC   GL130889  13.593   0.420   8.864
 2264POPC   GL230890  13.550   0.321   8.864
 2264POPC   C1A30891  13.647   0.458   8.564
 2264POPC   D2A30892  13.677   0.392   8.264
 2264POPC   C3A30893  13.627   0.456   7.964
 2264POPC   C4A30894  13.602   0.451   7.664
 2264POPC   C1B30895  13.465   0.222   8.564
 2264POPC   C2B30896  13.527   0.211   8.264
 2264POPC   C3B30897  13.518   0.262   7.964
 2264POPC   C4B30898  13.452   0.193   7.664
 2265POPC   NC330899   1.232   7.389   9.464
 2265POPC   PO430900   1.193   7.433   9.164
 2265POPC   GL130901   1.238   7.401   8.864
 2265POPC   GL230902   1.306   7.320   8.864
 2265POPC   C1A30903   1.245   7.469   8.564
 2265POPC   D2A30904   1.241   7.447   8.264
 2265POPC   C3A30905   1.228   7.440   7.964
 2265POPC   C4A30906   1.178   7.385   7.664
 2265POPC   C1B30907   1.327   7.214   8.564
 2265POPC   C2B30908   1.314   7.231   8.264
 2265POPC   C3B30909   1.316   7.195   7.964
 2265POPC   C4B30910   1.298   7.234   7.664
 2266POPC   NC330911  43.136   0.471   9.464
 2266POPC   PO430912  43.122   0.406   9.164
 2266POPC   GL130913  43.086   0.404   8.864
 2266POPC   GL230914  43.151   0.580   8.864
 2266POPC   C1A30915  43.078   0.453   8.564
 2266POPC   D2A30916  43.071   0.410   8.264
 2266POPC   C3A30917  43.092   0.425   7.964
 2266POPC   C4A30918  43.113   0.389   7.664
 2266POPC   C1B30919  43.125   0.648   8.564
 2266POPC   C2B30920  43.208   0.726   8.264
 2266POPC   C3B30921  43.200   0.643   7.964
 2266POPC   C4B30922  43.153   0.631   7.664
 2267POPC   NC330923  38.492  39.988   9.464
 2267POPC   PO430924  38.479  40.046   9.164
 2267POPC   GL130925  38.431  40.039   8.864
 2267POPC   GL230926  38.347  40.019   8.864
 2267POPC   C1A30927  38.435  39.972   8.564
 2267POPC   D2A30928  38.412  40.021   8.264
 2267POPC   C3A30929  38.422  39.970   7.964
 2267POPC   C4A30930  38.438  40.056   7.664
 2267POPC   C1B30931  38.178  40.053   8.564
 2267POPC   C2B30932  38.265  40.091   8.264
 2267POPC   C3B30933  38.192  40.126   7.964
 2267POPC   C4B30934  38.230  40.109   7.664
 2268POPC   NC330935   5.913  28.335   9.464
 2268POPC   PO430936   5.875  28.341   9.164
 2268POPC   GL130937   5.863  28.331   8.864
 2268POPC   GL230938   5.980  28.398   8.864
 2268POPC   C1A30939   5.908  28.404   8.564
 2268POPC   D2A30940   5.824  28.411   8.264
 2268POPC   C3A30941   5.903  28.398   7.964
 2268POPC   C4A30942   5.836  28.328   7.664
 2268POPC   C1B30943   6.142  28.465   8.564
 2268POPC   C2B30944   6.074  28.411   8.264
 2268POPC   C3B30945   6.069  28.453   7.964
 2268POPC   C4B30946   6.088  28.469   7.664
 2269POPC   NC330947  34.542  20.657   9.464
 2269POPC   PO430948  34.582  20.618   9.164
 2269POPC   GL130949  34.596  20.652   8.864
 2269POPC   GL230950  34.679  20.654   8.864
 2269POPC   C1A30951  34.546  20.650   8.564
 2269POPC   D2A30952  34.592  20.649   8.264
 2269POPC   C3A30953  34.625  20.583   7.964
 2269POPC   C4A30954  34.529  20.614   7.664
 2269POPC   C1B30955  34.780  20.705   8.564
 2269POPC   C2B30956  34.794  20.729   8.264
 2269POPC   C3B30957  34.776  20.630   7.964
 2269POPC   C4B30958  34.826  20.703   7.664
 2270POPC   NC330959   8.205  37.670   9.464
 2270POPC   PO430960   8.200  37.718   9.164
 2270POPC   GL130961   8.242  37.634   8.864
 2270POPC   GL230962   8.146  37.553   8.864
 2270POPC   C1A30963   8.153  37.676   8.564
 2270POPC   D2A30964   8.199  37.663   8.264
 2270POPC   C3A30965   8.187  37.704   7.964
 2270POPC   C4A30966   8.236  37.640   7.664
 2270POPC   C1B30967   8.031  37.452   8.564
 2270POPC   C2B30968   8.026  37.517   8.264
 2270POPC   C3B30969   8.069  37.535   7.964
 2270POPC   C4B30970   8.000  37.530   7.664
 2271POPC   NC330971   4.342  43.128   9.464
 2271POPC   PO430972   4.286  43.094   9.164
 2271POPC   GL130973   4.279  43.090   8.864
 2271POPC   GL230974   4.192  43.130   8.864
 2271POPC   C1A30975   4.290  43.062   8.564
 2271POPC   D2A30976   4.309  43.138   8.264
 2271POPC   C3A30977   4.320  43.100   7.964
 2271POPC   C4A30978   4.319  43.073   7.664
 2271POPC   C1B30979   4.086  43.297   8.564
 2271POPC   C2B30980   4.087  43.243   8.264
 2271POPC   C3B30981   4.155  43.236   7.964
 2271POPC   C4B30982   4.122  43.254   7.664
 2272POPC   NC330983  19.089   2.751   9.464
 2272POPC   PO430984  19.019   2.782   9.164
 2272POPC   GL130985  19.028   2.717   8.864
 2272POPC   GL230986  18.939   2.774   8.864
 2272POPC   C1A30987  19.024   2.753   8.564
 2272POPC   D2A30988  19.035   2.762   8.264
 2272POPC   C3A30989  19.020   2.731   7.964
 2272POPC   C4A30990  19.014   2.787   7.664
 2272POPC   C1B30991  18.849   2.702   8.564
 2272POPC   C2B30992  18.808   2.672   8.264
 2272POPC   C3B30993  18.816   2.708   7.964
 2272POPC   C4B30994  18.847   2.698   7.664
 2273POPC   NC330995  37.636  13.584   9.464
 2273POPC   PO430996  37.668  13.592   9.164
 2273POPC   GL130997  37.663  13.662   8.864
 2273POPC   GL230998  37.516  13.548   8.864
 2273POPC   C1A30999  37.698  13.643   8.564
 2273POPC   D2A31000  37.656  13.632   8.264
 2273POPC   C3A31001  37.713  13.623   7.964
 2273POPC   C4A31002  37.664  13.677   7.664
 2273POPC   C1B31003  37.429  13.569   8.564
 2273POPC   C2B31004  37.441  13.508   8.264
 2273POPC   C3B31005  37.436  13.521   7.964
 2273POPC   C4B31006  37.475  13.494   7.664
 2274POPC   NC331007  11.329  36.864   9.464
 2274POPC   PO431008  11.303  36.893   9.164
 2274POPC   GL131009  11.253  36.934   8.864
 2274POPC   GL231010  11.279  36.977   8.864
 2274POPC   C1A31011  11.271  36.924   8.564
 2274POPC   D2A31012  11.331  36.859   8.264
 2274POPC   C3A31013  11.337  36.895   7.964
 2274POPC   C4A31014  11.266  36.937   7.664
 2274POPC   C1B31015  11.164  37.186   8.564
 2274POPC   C2B31016  11.170  37.139   8.264
 2274POPC   C3B31017  11.257  37.100   7.964
 2274POPC   C4B31018  11.180  37.126   7.664
 2275POPC   NC331019  28.352  12.803   9.464
 2275POPC   PO431020  28.324  12.839   9.164
 2275POPC   GL131021  28.393  12.831   8.864
 2275POPC   GL231022  28.498  12.855   8.864
 2275POPC   C1A31023  28.375  12.856   8.564
 2275POPC   D2A31024  28.379  12.835   8.264
 2275POPC   C3A31025  28.369  12.847   7.964
 2275POPC   C4A31026  28.357  12.846   7.664
 2275POPC   C1B31027  28.657  12.777   8.564
 2275POPC   C2B31028  28.578  12.766   8.264
 2275POPC   C3B31029  28.646  12.764   7.964
 2275POPC   C4B31030  28.588  12.779   7.664
 2276POPC   NC331031  29.909  35.304   9.464
 2276POPC   PO431032  29.950  35.389   9.164
 2276POPC   GL131033  29.905  35.339   8.864
 2276POPC   GL231034  30.056  35.363   8.864
 2276POPC   C1A31035  29.928  35.388   8.564
 2276POPC   D2A31036  29.885  35.361   8.264
 2276POPC   C3A31037  29.944  35.339   7.964
 2276POPC   C4A31038  29.891  35.370   7.664
 2276POPC   C1B31039  30.178  35.411   8.564
 2276POPC   C2B31040  30.179  35.429   8.264
 2276POPC   C3B31041  30.208  35.376   7.964
 2276POPC   C4B31042  30.160  35.444   7.664
 2277POPC   NC331043  15.986   8.943   9.464
 2277POPC   PO431044  15.961   8.973   9.164
 2277POPC   GL131045  15.995   9.022   8.864
 2277POPC   GL231046  15.886   8.993   8.864
 2277POPC   C1A31047  15.966   8.967   8.564
 2277POPC   D2A31048  15.920   8.992   8.264
 2277POPC   C3A31049  15.999   8.997   7.964
 2277POPC   C4A31050  15.985   8.955   7.664
 2277POPC   C1B31051  15.706   9.073   8.564
 2277POPC   C2B31052  15.755   9.022   8.264
 2277POPC   C3B31053  15.690   9.052   7.964
 2277POPC   C4B31054  15.717   9.065   7.664
 2278POPC   NC331055   5.859   1.261   9.464
 2278POPC   PO431056   5.843   1.249   9.164
 2278POPC   GL131057   5.838   1.172   8.864
 2278POPC   GL231058   5.707   1.265   8.864
 2278POPC   C1A31059   5.850   1.221   8.564
 2278POPC   D2A31060   5.824   1.175   8.264
 2278POPC   C3A31061   5.873   1.251   7.964
 2278POPC   C4A31062   5.820   1.231   7.664
 2278POPC   C1B31063   5.610   1.265   8.564
 2278POPC   C2B31064   5.636   1.170   8.264
 2278POPC   C3B31065   5.574   1.209   7.964
 2278POPC   C4B31066   5.650   1.197   7.664
 2279POPC   NC331067  12.810  15.153   9.464
 2279POPC   PO431068  12.849  15.179   9.164
 2279POPC   GL131069  12.829  15.229   8.864
 2279POPC   GL231070  12.984  15.135   8.864
 2279POPC   C1A31071  12.827  15.196   8.564
 2279POPC   D2A31072  12.815  15.200   8.264
 2279POPC   C3A31073  12.895  15.193   7.964
 2279POPC   C4A31074  12.829  15.185   7.664
 2279POPC   C1B31075  12.998  14.992   8.564
 2279POPC   C2B31076  12.999  15.043   8.264
 2279POPC   C3B31077  13.014  15.038   7.964
 2279POPC   C4B31078  13.040  14.973   7.664
 2280POPC   NC331079  40.038   5.857   9.464
 2280POPC   PO431080  40.009   5.899   9.164
 2280POPC   GL131081  39.997   5.872   8.864
 2280POPC   GL231082  40.093   5.985   8.864
 2280POPC   C1A31083  40.040   5.849   8.564
 2280POPC   D2A31084  39.987   5.847   8.264
 2280POPC   C3A31085  39.957   5.870   7.964
 2280POPC   C4A31086  40.017   5.910   7.664
 2280POPC   C1B31087  40.075   6.047   8.564
 2280POPC   C2B31088  40.098   6.129   8.264
 2280POPC   C3B31089  40.128   6.050   7.964
 2280POPC   C4B31090  40.151   6.103   7.664
 2281POPC   NC331091  14.392  28.412   9.464
 2281POPC   PO431092  14.400  28.392   9.164
 2281POPC   GL131093  14.435  28.404   8.864
 2281POPC   GL231094  14.509  28.406   8.864
 2281POPC   C1A31095  14.427  28.365   8.564
 2281POPC   D2A31096  14.395  28.333   8.264
 2281POPC   C3A31097  14.413  28.391   7.964
 2281POPC   C4A31098  14.366  28.403   7.664
 2281POPC   C1B31099  14.619  28.401   8.564
 2281POPC   C2B31100  14.661  28.350   8.264
 2281POPC   C3B31101  14.644  28.399   7.964
 2281POPC   C4B31102  14.612  28.401   7.664
 2282POPC   NC331103  22.209  33.801   9.464
 2282POPC   PO431104  22.211  33.840   9.164
 2282POPC   GL131105  22.192  33.841   8.864
 2282POPC   GL231106  22.091  33.671   8.864
 2282POPC   C1A31107  22.164  33.790   8.564
 2282POPC   D2A31108  22.167  33.820   8.264
 2282POPC   C3A31109  22.146  33.763   7.964
 2282POPC   C4A31110  22.165  33.761   7.664
 2282POPC   C1B31111  22.103  33.608   8.564
 2282POPC   C2B31112  22.092  33.546   8.264
 2282POPC   C3B31113  22.037  33.601   7.964
 2282POPC   C4B31114  22.108  33.586   7.664
 2283POPC   NC331115  18.259   0.403   9.464
 2283POPC   PO431116  18.238   0.403   9.164
 2283POPC   GL131117  18.320   0.406   8.864
 2283POPC   GL231118  18.165   0.360   8.864
 2283POPC   C1A31119  18.276   0.398   8.564
 2283POPC   D2A31120  18.270   0.474   8.264
 2283POPC   C3A31121  18.321   0.452   7.964
 2283POPC   C4A31122  18.273   0.486   7.664
 2283POPC   C1B31123  18.065   0.312   8.564
 2283POPC   C2B31124  18.080   0.283   8.264
 2283POPC   C3B31125  18.044   0.299   7.964
 2283POPC   C4B31126  18.035   0.330   7.664
 2284POPC   NC331127  39.244  28.379   9.464
 2284POPC   PO431128  39.208  28.356   9.164
 2284POPC   GL131129  39.222  28.354   8.864
 2284POPC   GL231130  39.267  28.252   8.864
 2284POPC   C1A31131  39.228  28.383   8.564
 2284POPC   D2A31132  39.223  28.339   8.264
 2284POPC   C3A31133  39.275  28.368   7.964
 2284POPC   C4A31134  39.269  28.331   7.664
 2284POPC   C1B31135  39.284  28.108   8.564
 2284POPC   C2B31136  39.325  28.188   8.264
 2284POPC   C3B31137  39.314  28.153   7.964
 2284POPC   C4B31138  39.292  28.122   7.664
 2285POPC   NC331139  41.570  40.758   9.464
 2285POPC   PO431140  41.549  40.816   9.164
 2285POPC   GL131141  41.513  40.825   8.864
 2285POPC   GL231142  41.684  40.827   8.864
 2285POPC   C1A31143  41.528  40.734   8.564
 2285POPC   D2A31144  41.537  40.769   8.264
 2285POPC   C3A31145  41.566  40.829   7.964
 2285POPC   C4A31146  41.512  40.814   7.664
 2285POPC   C1B31147  41.824  40.812   8.564
 2285POPC   C2B31148  41.818  40.828   8.264
 2285POPC   C3B31149  41.766  40.791   7.964
 2285POPC   C4B31150  41.849  40.754   7.664
 2286POPC   NC331151   8.163  32.274   9.464
 2286POPC   PO431152   8.221  32.251   9.164
 2286POPC   GL131153   8.165  32.272   8.864
 2286POPC   GL231154   8.121  32.145   8.864
 2286POPC   C1A31155   8.207  32.203   8.564
 2286POPC   D2A31156   8.195  32.209   8.264
 2286POPC   C3A31157   8.207  32.282   7.964
 2286POPC   C4A31158   8.230  32.207   7.664
 2286POPC   C1B31159   8.028  32.016   8.564
 2286POPC   C2B31160   8.048  32.093   8.264
 2286POPC   C3B31161   7.987  32.082   7.964
 2286POPC   C4B31162   8.075  32.104   7.664
 2287POPC   NC331163  32.214  30.715   9.464
 2287POPC   PO431164  32.266  30.723   9.164
 2287POPC   GL131165  32.267  30.702   8.864
 2287POPC   GL231166  32.299  30.544   8.864
 2287POPC   C1A31167  32.280  30.743   8.564
 2287POPC   D2A31168  32.253  30.739   8.264
 2287POPC   C3A31169  32.230  30.729   7.964
 2287POPC   C4A31170  32.280  30.681   7.664
 2287POPC   C1B31171  32.386  30.510   8.564
 2287POPC   C2B31172  32.352  30.474   8.264
 2287POPC   C3B31173  32.397  30.476   7.964
 2287POPC   C4B31174  32.429  30.467   7.664
 2288POPC   NC331175  24.514   1.183   9.464
 2288POPC   PO431176  24.539   1.176   9.164
 2288POPC   GL131177  24.522   1.173   8.864
 2288POPC   GL231178  24.409   1.178   8.864
 2288POPC   C1A31179  24.448   1.254   8.564
 2288POPC   D2A31180  24.449   1.212   8.264
 2288POPC   C3A31181  24.453   1.256   7.964
 2288POPC   C4A31182  24.507   1.190   7.664
 2288POPC   C1B31183  24.340   1.028   8.564
 2288POPC   C2B31184  24.353   1.029   8.264
 2288POPC   C3B31185  24.263   1.030   7.964
 2288POPC   C4B31186  24.346   1.013   7.664
 2289POPC   NC331187  34.615   8.237   9.464
 2289POPC   PO431188  34.573   8.179   9.164
 2289POPC   GL131189  34.623   8.153   8.864
 2289POPC   GL231190  34.655   8.141   8.864
 2289POPC   C1A31191  34.617   8.229   8.564
 2289POPC   D2A31192  34.589   8.170   8.264
 2289POPC   C3A31193  34.605   8.184   7.964
 2289POPC   C4A31194  34.555   8.208   7.664
 2289POPC   C1B31195  34.760   8.100   8.564
 2289POPC   C2B31196  34.815   8.024   8.264
 2289POPC   C3B31197  34.828   8.015   7.964
 2289POPC   C4B31198  34.789   8.065   7.664
 2290POPC   NC331199  44.643  32.231   9.464
 2290POPC   PO431200  44.643  32.237   9.164
 2290POPC   GL131201  44.656  32.214   8.864
 2290POPC   GL231202  44.693  32.118   8.864
 2290POPC   C1A31203  44.624  32.287   8.564
 2290POPC   D2A31204  44.690  32.257   8.264
 2290POPC   C3A31205  44.651  32.222   7.964
 2290POPC   C4A31206  44.672  32.231   7.664
 2290POPC   C1B31207  44.817  32.030   8.564
 2290POPC   C2B31208  44.787  32.088   8.264
 2290POPC   C3B31209  44.825  32.074   7.964
 2290POPC   C4B31210  44.847  32.038   7.664
 2291POPC   NC331211  35.303  22.163   9.464
 2291POPC   PO431212  35.363  22.122   9.164
 2291POPC   GL131213  35.318  22.160   8.864
 2291POPC   GL231214  35.370  22.010   8.864
 2291POPC   C1A31215  35.307  22.199   8.564
 2291POPC   D2A31216  35.341  22.150   8.264
 2291POPC   C3A31217  35.398  22.160   7.964
 2291POPC   C4A31218  35.315  22.153   7.664
 2291POPC   C1B31219  35.365  21.951   8.564
 2291POPC   C2B31220  35.349  21.936   8.264
 2291POPC   C3B31221  35.386  21.942   7.964
 2291POPC   C4B31222  35.410  21.882   7.664
 2292POPC   NC331223   2.740  15.211   9.464
 2292POPC   PO431224   2.779  15.222   9.164
 2292POPC   GL131225   2.788  15.131   8.864
 2292POPC   GL231226   2.689  15.091   8.864
 2292POPC   C1A31227   2.745  15.138   8.564
 2292POPC   D2A31228   2.733  15.223   8.264
 2292POPC   C3A31229   2.738  15.211   7.964
 2292POPC   C4A31230   2.735  15.184   7.664
 2292POPC   C1B31231   2.679  14.974   8.564
 2292POPC   C2B31232   2.638  14.990   8.264
 2292POPC   C3B31233   2.697  14.934   7.964
 2292POPC   C4B31234   2.639  14.936   7.664
 2293POPC   NC331235   7.427  12.077   9.464
 2293POPC   PO431236   7.390  12.076   9.164
 2293POPC   GL131237   7.427  12.107   8.864
 2293POPC   GL231238   7.581  12.153   8.864
 2293POPC   C1A31239   7.392  12.094   8.564
 2293POPC   D2A31240   7.418  12.030   8.264
 2293POPC   C3A31241   7.389  12.081   7.964
 2293POPC   C4A31242   7.422  12.067   7.664
 2293POPC   C1B31243   7.601  12.195   8.564
 2293POPC   C2B31244   7.600  12.225   8.264
 2293POPC   C3B31245   7.618  12.177   7.964
 2293POPC   C4B31246   7.647  12.187   7.664
 2294POPC   NC331247   5.105   1.197   9.464
 2294POPC   PO431248   5.123   1.184   9.164
 2294POPC   GL131249   5.109   1.241   8.864
 2294POPC   GL231250   4.967   1.113   8.864
 2294POPC   C1A31251   5.102   1.250   8.564
 2294POPC   D2A31252   5.086   1.240   8.264
 2294POPC   C3A31253   5.134   1.242   7.964
 2294POPC   C4A31254   5.098   1.212   7.664
 2294POPC   C1B31255   4.942   1.044   8.564
 2294POPC   C2B31256   4.904   1.082   8.264
 2294POPC   C3B31257   4.876   1.008   7.964
 2294POPC   C4B31258   4.934   1.023   7.664
 2295POPC   NC331259  40.037  22.145   9.464
 2295POPC   PO431260  40.006  22.140   9.164
 2295POPC   GL131261  40.003  22.158   8.864
 2295POPC   GL231262  39.890  22.278   8.864
 2295POPC   C1A31263  39.996  22.186   8.564
 2295POPC   D2A31264  39.969  22.125   8.264
 2295POPC   C3A31265  40.017  22.175   7.964
 2295POPC   C4A31266  39.975  22.114   7.664
 2295POPC   C1B31267  39.856  22.344   8.564
 2295POPC   C2B31268  39.905  22.346   8.264
 2295POPC   C3B31269  39.833  22.407   7.964
 2295POPC   C4B31270  39.813  22.407   7.664
 2296POPC   NC331271  21.428  26.797   9.464
 2296POPC   PO431272  21.382  26.861   9.164
 2296POPC   GL131273  21.419  26.782   8.864
 2296POPC   GL231274  21.429  26.760   8.864
 2296POPC   C1A31275  21.406  26.812   8.564
 2296POPC   D2A31276  21.418  26.825   8.264
 2296POPC   C3A31277  21.425  26.865   7.964
 2296POPC   C4A31278  21.393  26.780   7.664
 2296POPC   C1B31279  21.546  26.593   8.564
 2296POPC   C2B31280  21.572  26.594   8.264
 2296POPC   C3B31281  21.593  26.681   7.964
 2296POPC   C4B31282  21.604  26.669   7.664
 2297POPC   NC331283   5.133   5.907   9.464
 2297POPC   PO431284   5.077   5.914   9.164
 2297POPC   GL131285   5.057   5.844   8.864
 2297POPC   GL231286   4.998   5.732   8.864
 2297POPC   C1A31287   5.125   5.826   8.564
 2297POPC   D2A31288   5.109   5.881   8.264
 2297POPC   C3A31289   5.082   5.888   7.964
 2297POPC   C4A31290   5.121   5.862   7.664
 2297POPC   C1B31291   4.950   5.648   8.564
 2297POPC   C2B31292   4.946   5.635   8.264
 2297POPC   C3B31293   4.986   5.658   7.964
 2297POPC   C4B31294   5.035   5.677   7.664
 2298POPC   NC331295  15.922   1.961   9.464
 2298POPC   PO431296  15.936   1.982   9.164
 2298POPC   GL131297  15.939   1.941   8.864
 2298POPC   GL231298  15.895   2.069   8.864
 2298POPC   C1A31299  15.985   2.001   8.564
 2298POPC   D2A31300  15.921   1.982   8.264
 2298POPC   C3A31301  15.979   2.026   7.964
 2298POPC   C4A31302  16.001   1.994   7.664
 2298POPC   C1B31303  15.827   2.206   8.564
 2298POPC   C2B31304  15.758   2.144   8.264
 2298POPC   C3B31305  15.804   2.182   7.964
 2298POPC   C4B31306  15.752   2.207   7.664
 2299POPC   NC331307  33.001  10.512   9.464
 2299POPC   PO431308  33.061  10.488   9.164
 2299POPC   GL131309  33.047  10.538   8.864
 2299POPC   GL231310  32.947  10.420   8.864
 2299POPC   C1A31311  33.036  10.557   8.564
 2299POPC   D2A31312  33.022  10.482   8.264
 2299POPC   C3A31313  33.062  10.482   7.964
 2299POPC   C4A31314  32.999  10.530   7.664
 2299POPC   C1B31315  32.910  10.285   8.564
 2299POPC   C2B31316  32.849  10.279   8.264
 2299POPC   C3B31317  32.888  10.367   7.964
 2299POPC   C4B31318  32.854  10.308   7.664
 2300POPC   NC331319  15.909  32.242   9.464
 2300POPC   PO431320  15.990  32.285   9.164
 2300POPC   GL131321  15.973  32.281   8.864
 2300POPC   GL231322  15.972  32.385   8.864
 2300POPC   C1A31323  15.990  32.216   8.564
 2300POPC   D2A31324  15.926  32.223   8.264
 2300POPC   C3A31325  15.994  32.220   7.964
 2300POPC   C4A31326  15.915  32.213   7.664
 2300POPC   C1B31327  15.968  32.457   8.564
 2300POPC   C2B31328  15.961  32.543   8.264
 2300POPC   C3B31329  15.986  32.470   7.964
 2300POPC   C4B31330  15.941  32.537   7.664
 2301POPC   NC331331  33.025  34.533   9.464
 2301POPC   PO431332  32.996  34.624   9.164
 2301POPC   GL131333  33.052  34.581   8.864
 2301POPC   GL231334  33.039  34.668   8.864
 2301POPC   C1A31335  33.073  34.531   8.564
 2301POPC   D2A31336  33.023  34.573   8.264
 2301POPC   C3A31337  33.071  34.594   7.964
 2301POPC   C4A31338  33.052  34.587   7.664
 2301POPC   C1B31339  33.051  34.822   8.564
 2301POPC   C2B31340  32.996  34.839   8.264
 2301POPC   C3B31341  32.987  34.862   7.964
 2301POPC   C4B31342  33.049  34.857   7.664
 2302POPC   NC331343  34.578   5.892   9.464
 2302POPC   PO431344  34.568   5.846   9.164
 2302POPC   GL131345  34.579   5.858   8.864
 2302POPC   GL231346  34.430   5.865   8.864
 2302POPC   C1A31347  34.564   5.881   8.564
 2302POPC   D2A31348  34.563   5.906   8.264
 2302POPC   C3A31349  34.597   5.904   7.964
 2302POPC   C4A31350  34.599   5.868   7.664
 2302POPC   C1B31351  34.296   5.868   8.564
 2302POPC   C2B31352  34.280   5.797   8.264
 2302POPC   C3B31353  34.305   5.813   7.964
 2302POPC   C4B31354  34.300   5.800   7.664
 2303POPC   NC331355   5.054  37.646   9.464
 2303POPC   PO431356   5.087  37.648   9.164
 2303POPC   GL131357   5.129  37.700   8.864
 2303POPC   GL231358   5.131  37.753   8.864
 2303POPC   C1A31359   5.125  37.698   8.564
 2303POPC   D2A31360   5.056  37.690   8.264
 2303POPC   C3A31361   5.099  37.681   7.964
 2303POPC   C4A31362   5.058  37.707   7.664
 2303POPC   C1B31363   5.199  37.863   8.564
 2303POPC   C2B31364   5.221  37.914   8.264
 2303POPC   C3B31365   5.229  37.877   7.964
 2303POPC   C4B31366   5.265  37.872   7.664
 2304POPC   NC331367  43.075   2.734   9.464
 2304POPC   PO431368  43.072   2.739   9.164
 2304POPC   GL131369  43.112   2.748   8.864
 2304POPC   GL231370  42.940   2.775   8.864
 2304POPC   C1A31371  43.121   2.738   8.564
 2304POPC   D2A31372  43.086   2.723   8.264
 2304POPC   C3A31373  43.116   2.734   7.964
 2304POPC   C4A31374  43.154   2.808   7.664
 2304POPC   C1B31375  42.880   2.729   8.564
 2304POPC   C2B31376  42.867   2.731   8.264
 2304POPC   C3B31377  42.880   2.753   7.964
 2304POPC   C4B31378  42.834   2.782   7.664
 2305POPC   NC331379  28.362  29.948   9.464
 2305POPC   PO431380  28.329  29.914   9.164
 2305POPC   GL131381  28.382  29.964   8.864
 2305POPC   GL231382  28.324  30.041   8.864
 2305POPC   C1A31383  28.385  29.906   8.564
 2305POPC   D2A31384  28.366  29.930   8.264
 2305POPC   C3A31385  28.339  29.880   7.964
 2305POPC   C4A31386  28.346  29.927   7.664
 2305POPC   C1B31387  28.305  30.117   8.564
 2305POPC   C2B31388  28.267  30.134   8.264
 2305POPC   C3B31389  28.319  30.119   7.964
 2305POPC   C4B31390  28.270  30.170   7.664
 2306POPC   NC331391   6.673  24.442   9.464
 2306POPC   PO431392   6.665  24.455   9.164
 2306POPC   GL131393   6.679  24.496   8.864
 2306POPC   GL231394   6.512  24.429   8.864
 2306POPC   C1A31395   6.616  24.536   8.564
 2306POPC   D2A31396   6.604  24.495   8.264
 2306POPC   C3A31397   6.647  24.447   7.964
 2306POPC   C4A31398   6.597  24.477   7.664
 2306POPC   C1B31399   6.442  24.320   8.564
 2306POPC   C2B31400   6.460  24.287   8.264
 2306POPC   C3B31401   6.454  24.332   7.964
 2306POPC   C4B31402   6.462  24.280   7.664
 2307POPC   NC331403  36.945  41.562   9.464
 2307POPC   PO431404  36.911  41.517   9.164
 2307POPC   GL131405  36.940  41.547   8.864
 2307POPC   GL231406  37.011  41.467   8.864
 2307POPC   C1A31407  36.887  41.557   8.564
 2307POPC   D2A31408  36.901  41.603   8.264
 2307POPC   C3A31409  36.910  41.551   7.964
 2307POPC   C4A31410  36.881  41.548   7.664
 2307POPC   C1B31411  37.074  41.402   8.564
 2307POPC   C2B31412  37.146  41.383   8.264
 2307POPC   C3B31413  37.131  41.428   7.964
 2307POPC   C4B31414  37.099  41.450   7.664
 2308POPC   NC331415  34.570  22.891   9.464
 2308POPC   PO431416  34.599  22.921   9.164
 2308POPC   GL131417  34.586  22.897   8.864
 2308POPC   GL231418  34.473  22.996   8.864
 2308POPC   C1A31419  34.582  22.952   8.564
 2308POPC   D2A31420  34.605  22.974   8.264
 2308POPC   C3A31421  34.589  22.984   7.964
 2308POPC   C4A31422  34.625  22.923   7.664
 2308POPC   C1B31423  34.374  22.948   8.564
 2308POPC   C2B31424  34.323  22.931   8.264
 2308POPC   C3B31425  34.293  22.960   7.964
 2308POPC   C4B31426  34.301  22.970   7.664
 2309POPC   NC331427  16.726  15.936   9.464
 2309POPC   PO431428  16.694  15.937   9.164
 2309POPC   GL131429  16.713  16.001   8.864
 2309POPC   GL231430  16.642  16.009   8.864
 2309POPC   C1A31431  16.773  15.975   8.564
 2309POPC   D2A31432  16.730  15.977   8.264
 2309POPC   C3A31433  16.759  15.911   7.964
 2309POPC   C4A31434  16.773  15.954   7.664
 2309POPC   C1B31435  16.507  16.132   8.564
 2309POPC   C2B31436  16.545  16.074   8.264
 2309POPC   C3B31437  16.575  16.102   7.964
 2309POPC   C4B31438  16.572  16.114   7.664
 2310POPC   NC331439  39.217   1.254   9.464
 2310POPC   PO431440  39.197   1.164   9.164
 2310POPC   GL131441  39.239   1.212   8.864
 2310POPC   GL231442  39.113   1.327   8.864
 2310POPC   C1A31443  39.280   1.243   8.564
 2310POPC   D2A31444  39.269   1.176   8.264
 2310POPC   C3A31445  39.220   1.184   7.964
 2310POPC   C4A31446  39.272   1.197   7.664
 2310POPC   C1B31447  39.041   1.409   8.564
 2310POPC   C2B31448  39.038   1.369   8.264
 2310POPC   C3B31449  39.102   1.425   7.964
 2310POPC   C4B31450  39.008   1.391   7.664
 2311POPC   NC331451  36.927  12.053   9.464
 2311POPC   PO431452  36.889  12.060   9.164
 2311POPC   GL131453  36.914  12.102   8.864
 2311POPC   GL231454  36.746  12.061   8.864
 2311POPC   C1A31455  36.894  12.046   8.564
 2311POPC   D2A31456  36.929  12.083   8.264
 2311POPC   C3A31457  36.881  12.034   7.964
 2311POPC   C4A31458  36.929  12.035   7.664
 2311POPC   C1B31459  36.632  12.009   8.564
 2311POPC   C2B31460  36.711  11.993   8.264
 2311POPC   C3B31461  36.667  11.960   7.964
 2311POPC   C4B31462  36.623  11.930   7.664
 2312POPC   NC331463  21.357  34.536   9.464
 2312POPC   PO431464  21.414  34.530   9.164
 2312POPC   GL131465  21.364  34.618   8.864
 2312POPC   GL231466  21.231  34.578   8.864
 2312POPC   C1A31467  21.376  34.619   8.564
 2312POPC   D2A31468  21.383  34.542   8.264
 2312POPC   C3A31469  21.417  34.616   7.964
 2312POPC   C4A31470  21.345  34.602   7.664
 2312POPC   C1B31471  21.137  34.542   8.564
 2312POPC   C2B31472  21.126  34.497   8.264
 2312POPC   C3B31473  21.181  34.544   7.964
 2312POPC   C4B31474  21.175  34.518   7.664
 2313POPC   NC331475  16.714  43.866   9.464
 2313POPC   PO431476  16.768  43.856   9.164
 2313POPC   GL131477  16.760  43.857   8.864
 2313POPC   GL231478  16.863  43.803   8.864
 2313POPC   C1A31479  16.738  43.895   8.564
 2313POPC   D2A31480  16.775  43.900   8.264
 2313POPC   C3A31481  16.769  43.865   7.964
 2313POPC   C4A31482  16.697  43.930   7.664
 2313POPC   C1B31483  16.908  43.678   8.564
 2313POPC   C2B31484  16.882  43.725   8.264
 2313POPC   C3B31485  16.944  43.718   7.964
 2313POPC   C4B31486  16.924  43.678   7.664
 2314POPC   NC331487  30.671  30.709   9.464
 2314POPC   PO431488  30.744  30.649   9.164
 2314POPC   GL131489  30.692  30.703   8.864
 2314POPC   GL231490  30.638  30.567   8.864
 2314POPC   C1A31491  30.661  30.699   8.564
 2314POPC   D2A31492  30.648  30.743   8.264
 2314POPC   C3A31493  30.719  30.667   7.964
 2314POPC   C4A31494  30.739  30.700   7.664
 2314POPC   C1B31495  30.533  30.558   8.564
 2314POPC   C2B31496  30.477  30.476   8.264
 2314POPC   C3B31497  30.560  30.526   7.964
 2314POPC   C4B31498  30.527  30.509   7.664
 2315POPC   NC331499  22.189  41.598   9.464
 2315POPC   PO431500  22.198  41.593   9.164
 2315POPC   GL131501  22.183  41.548   8.864
 2315POPC   GL231502  22.232  41.438   8.864
 2315POPC   C1A31503  22.136  41.565   8.564
 2315POPC   D2A31504  22.130  41.575   8.264
 2315POPC   C3A31505  22.114  41.594   7.964
 2315POPC   C4A31506  22.121  41.584   7.664
 2315POPC   C1B31507  22.257  41.302   8.564
 2315POPC   C2B31508  22.219  41.357   8.264
 2315POPC   C3B31509  22.265  41.334   7.964
 2315POPC   C4B31510  22.209  41.350   7.664
 2316POPC   NC331511  23.708   8.924   9.464
 2316POPC   PO431512  23.712   8.977   9.164
 2316POPC   GL131513  23.723   8.985   8.864
 2316POPC   GL231514  23.590   9.030   8.864
 2316POPC   C1A31515  23.762   8.983   8.564
 2316POPC   D2A31516  23.666   8.963   8.264
 2316POPC   C3A31517  23.664   8.972   7.964
 2316POPC   C4A31518  23.723   8.935   7.664
 2316POPC   C1B31519  23.539   9.154   8.564
 2316POPC   C2B31520  23.532   9.193   8.264
 2316POPC   C3B31521  23.514   9.120   7.964
 2316POPC   C4B31522  23.606   9.166   7.664
 2317POPC   NC331523  43.894  21.356   9.464
 2317POPC   PO431524  43.929  21.389   9.164
 2317POPC   GL131525  43.843  21.423   8.864
 2317POPC   GL231526  43.967  21.471   8.864
 2317POPC   C1A31527  43.922  21.356   8.564
 2317POPC   D2A31528  43.848  21.406   8.264
 2317POPC   C3A31529  43.912  21.381   7.964
 2317POPC   C4A31530  43.871  21.402   7.664
 2317POPC   C1B31531  44.104  21.499   8.564
 2317POPC   C2B31532  44.071  21.500   8.264
 2317POPC   C3B31533  44.055  21.534   7.964
 2317POPC   C4B31534  44.058  21.504   7.664
 2318POPC   NC331535  44.655  44.627   9.464
 2318POPC   PO431536  44.666  44.682   9.164
 2318POPC   GL131537  44.668  44.648   8.864
 2318POPC   GL231538  44.745  44.774   8.864
 2318POPC   C1A31539  44.641  44.700   8.564
 2318POPC   D2A31540  44.700  44.649   8.264
 2318POPC   C3A31541  44.642  44.616   7.964
 2318POPC   C4A31542  44.625  44.707   7.664
 2318POPC   C1B31543  44.785  44.891   8.564
 2318POPC   C2B31544  44.804  44.874   8.264
 2318POPC   C3B31545  44.864  44.819   7.964
 2318POPC   C4B31546  44.789  44.831   7.664
 2319POPC   NC331547   9.702  13.641   9.464
 2319POPC   PO431548   9.780  13.588   9.164
 2319POPC   GL131549   9.715  13.581   8.864
 2319POPC   GL231550   9.663  13.625   8.864
 2319POPC   C1A31551   9.783  13.677   8.564
 2319POPC   D2A31552   9.737  13.589   8.264
 2319POPC   C3A31553   9.775  13.581   7.964
 2319POPC   C4A31554   9.714  13.639   7.664
 2319POPC   C1B31555   9.558  13.533   8.564
 2319POPC   C2B31556   9.532  13.491   8.264
 2319POPC   C3B31557   9.559  13.519   7.964
 2319POPC   C4B31558   9.509  13.542   7.664
 2320POPC   NC331559  26.865  15.981   9.464
 2320POPC   PO431560  26.843  15.996   9.164
 2320POPC   GL131561  26.792  15.948   8.864
 2320POPC   GL231562  26.854  15.886   8.864
 2320POPC   C1A31563  26.810  15.954   8.564
 2320POPC   D2A31564  26.801  15.936   8.264
 2320POPC   C3A31565  26.785  15.921   7.964
 2320POPC   C4A31566  26.831  15.926   7.664
 2320POPC   C1B31567  26.933  15.690   8.564
 2320POPC   C2B31568  26.880  15.732   8.264
 2320POPC   C3B31569  26.883  15.742   7.964
 2320POPC   C4B31570  26.890  15.766   7.664
 2321POPC   NC331571   5.869  42.358   9.464
 2321POPC   PO431572   5.912  42.381   9.164
 2321POPC   GL131573   5.864  42.323   8.864
 2321POPC   GL231574   5.915  42.231   8.864
 2321POPC   C1A31575   5.895  42.379   8.564
 2321POPC   D2A31576   5.917  42.362   8.264
 2321POPC   C3A31577   5.820  42.287   7.964
 2321POPC   C4A31578   5.847  42.349   7.664
 2321POPC   C1B31579   6.080  42.154   8.564
 2321POPC   C2B31580   6.044  42.145   8.264
 2321POPC   C3B31581   6.024  42.174   7.964
 2321POPC   C4B31582   6.028  42.181   7.664
 2322POPC   NC331583  34.550  36.135   9.464
 2322POPC   PO431584  34.613  36.101   9.164
 2322POPC   GL131585  34.591  36.112   8.864
 2322POPC   GL231586  34.563  36.251   8.864
 2322POPC   C1A31587  34.540  36.095   8.564
 2322POPC   D2A31588  34.547  36.096   8.264
 2322POPC   C3A31589  34.623  36.082   7.964
 2322POPC   C4A31590  34.560  36.166   7.664
 2322POPC   C1B31591  34.578  36.380   8.564
 2322POPC   C2B31592  34.561  36.422   8.264
 2322POPC   C3B31593  34.528  36.327   7.964
 2322POPC   C4B31594  34.503  36.377   7.664
 2323POPC   NC331595  39.265  20.648   9.464
 2323POPC   PO431596  39.258  20.584   9.164
 2323POPC   GL131597  39.261  20.646   8.864
 2323POPC   GL231598  39.098  20.645   8.864
 2323POPC   C1A31599  39.182  20.582   8.564
 2323POPC   D2A31600  39.185  20.644   8.264
 2323POPC   C3A31601  39.239  20.585   7.964
 2323POPC   C4A31602  39.268  20.639   7.664
 2323POPC   C1B31603  39.043  20.684   8.564
 2323POPC   C2B31604  39.051  20.755   8.264
 2323POPC   C3B31605  39.018  20.701   7.964
 2323POPC   C4B31606  39.054  20.706   7.664
 2324POPC   NC331607  40.823   8.990   9.464
 2324POPC   PO431608  40.735   9.018   9.164
 2324POPC   GL131609  40.751   8.955   8.864
 2324POPC   GL231610  40.918   8.868   8.864
 2324POPC   C1A31611  40.791   8.972   8.564
 2324POPC   D2A31612  40.803   8.977   8.264
 2324POPC   C3A31613  40.825   9.000   7.964
 2324POPC   C4A31614  40.771   9.017   7.664
 2324POPC   C1B31615  40.970   8.843   8.564
 2324POPC   C2B31616  41.023   8.819   8.264
 2324POPC   C3B31617  40.961   8.808   7.964
 2324POPC   C4B31618  41.019   8.865   7.664
 2325POPC   NC331619  33.000  15.906   9.464
 2325POPC   PO431620  33.040  15.947   9.164
 2325POPC   GL131621  33.002  15.996   8.864
 2325POPC   GL231622  33.169  15.889   8.864
 2325POPC   C1A31623  33.058  16.004   8.564
 2325POPC   D2A31624  33.011  15.932   8.264
 2325POPC   C3A31625  33.074  15.947   7.964
 2325POPC   C4A31626  32.981  15.937   7.664
 2325POPC   C1B31627  33.301  15.895   8.564
 2325POPC   C2B31628  33.292  15.915   8.264
 2325POPC   C3B31629  33.305  15.916   7.964
 2325POPC   C4B31630  33.246  15.862   7.664
 2326POPC   NC331631  40.750  13.606   9.464
 2326POPC   PO431632  40.758  13.661   9.164
 2326POPC   GL131633  40.762  13.592   8.864
 2326POPC   GL231634  40.849  13.573   8.864
 2326POPC   C1A31635  40.743  13.590   8.564
 2326POPC   D2A31636  40.771  13.620   8.264
 2326POPC   C3A31637  40.760  13.644   7.964
 2326POPC   C4A31638  40.824  13.605   7.664
 2326POPC   C1B31639  41.028  13.573   8.564
 2326POPC   C2B31640  41.050  13.499   8.264
 2326POPC   C3B31641  40.989  13.512   7.964
 2326POPC   C4B31642  40.984  13.567   7.664
 2327POPC   NC331643  31.459  17.515   9.464
 2327POPC   PO431644  31.444  17.512   9.164
 2327POPC   GL131645  31.448  17.496   8.864
 2327POPC   GL231646  31.579  17.523   8.864
 2327POPC   C1A31647  31.468  17.531   8.564
 2327POPC   D2A31648  31.428  17.458   8.264
 2327POPC   C3A31649  31.479  17.470   7.964
 2327POPC   C4A31650  31.441  17.496   7.664
 2327POPC   C1B31651  31.731  17.439   8.564
 2327POPC   C2B31652  31.710  17.445   8.264
 2327POPC   C3B31653  31.721  17.509   7.964
 2327POPC   C4B31654  31.716  17.481   7.664
 2328POPC   NC331655  18.289  18.327   9.464
 2328POPC   PO431656  18.294  18.306   9.164
 2328POPC   GL131657  18.286  18.308   8.864
 2328POPC   GL231658  18.209  18.306   8.864
 2328POPC   C1A31659  18.244  18.279   8.564
 2328POPC   D2A31660  18.264  18.276   8.264
 2328POPC   C3A31661  18.244  18.282   7.964
 2328POPC   C4A31662  18.270  18.274   7.664
 2328POPC   C1B31663  18.004  18.425   8.564
 2328POPC   C2B31664  18.045  18.366   8.264
 2328POPC   C3B31665  18.075  18.399   7.964
 2328POPC   C4B31666  18.027  18.357   7.664
 2329POPC   NC331667  30.663   1.238   9.464
 2329POPC   PO431668  30.746   1.203   9.164
 2329POPC   GL131669  30.678   1.196   8.864
 2329POPC   GL231670  30.605   1.276   8.864
 2329POPC   C1A31671  30.653   1.217   8.564
 2329POPC   D2A31672  30.732   1.185   8.264
 2329POPC   C3A31673  30.711   1.181   7.964
 2329POPC   C4A31674  30.711   1.238   7.664
 2329POPC   C1B31675  30.555   1.387   8.564
 2329POPC   C2B31676  30.545   1.456   8.264
 2329POPC   C3B31677  30.550   1.464   7.964
 2329POPC   C4B31678  30.519   1.416   7.664
 2330POPC   NC331679  42.379  15.960   9.464
 2330POPC   PO431680  42.383  15.980   9.164
 2330POPC   GL131681  42.325  15.965   8.864
 2330POPC   GL231682  42.204  15.849   8.864
 2330POPC   C1A31683  42.366  15.939   8.564
 2330POPC   D2A31684  42.348  15.915   8.264
 2330POPC   C3A31685  42.382  15.936   7.964
 2330POPC   C4A31686  42.294  15.978   7.664
 2330POPC   C1B31687  42.126  15.806   8.564
 2330POPC   C2B31688  42.107  15.803   8.264
 2330POPC   C3B31689  42.143  15.780   7.964
 2330POPC   C4B31690  42.151  15.841   7.664
 2331POPC   NC331691  43.898  32.983   9.464
 2331POPC   PO431692  43.881  33.069   9.164
 2331POPC   GL131693  43.932  32.989   8.864
 2331POPC   GL231694  43.974  33.089   8.864
 2331POPC   C1A31695  43.859  33.065   8.564
 2331POPC   D2A31696  43.858  33.034   8.264
 2331POPC   C3A31697  43.892  33.055   7.964
 2331POPC   C4A31698  43.852  32.997   7.664
 2331POPC   C1B31699  44.056  33.236   8.564
 2331POPC   C2B31700  44.014  33.172   8.264
 2331POPC   C3B31701  44.016  33.176   7.964
 2331POPC   C4B31702  44.059  33.211   7.664
 2332POPC   NC331703  13.631  22.937   9.464
 2332POPC   PO431704  13.672  22.974   9.164
 2332POPC   GL131705  13.656  22.984   8.864
 2332POPC   GL231706  13.755  22.922   8.864
 2332POPC   C1A31707  13.581  22.905   8.564
 2332POPC   D2A31708  13.593  22.929   8.264
 2332POPC   C3A31709  13.611  22.985   7.964
 2332POPC   C4A31710  13.626  22.900   7.664
 2332POPC   C1B31711  13.856  22.784   8.564
 2332POPC   C2B31712  13.871  22.834   8.264
 2332POPC   C3B31713  13.878  22.806   7.964
 2332POPC   C4B31714  13.832  22.780   7.664
 2333POPC   NC331715   3.501   6.643   9.464
 2333POPC   PO431716   3.586   6.651   9.164
 2333POPC   GL131717   3.547   6.655   8.864
 2333POPC   GL231718   3.466   6.692   8.864
 2333POPC   C1A31719   3.580   6.615   8.564
 2333POPC   D2A31720   3.525   6.597   8.264
 2333POPC   C3A31721   3.501   6.615   7.964
 2333POPC   C4A31722   3.562   6.661   7.664
 2333POPC   C1B31723   3.323   6.807   8.564
 2333POPC   C2B31724   3.401   6.804   8.264
 2333POPC   C3B31725   3.383   6.851   7.964
 2333POPC   C4B31726   3.323   6.787   7.664
 2334POPC   NC331727  24.530  28.328   9.464
 2334POPC   PO431728  24.491  28.321   9.164
 2334POPC   GL131729  24.530  28.394   8.864
 2334POPC   GL231730  24.353  28.333   8.864
 2334POPC   C1A31731  24.501  28.340   8.564
 2334POPC   D2A31732  24.441  28.395   8.264
 2334POPC   C3A31733  24.483  28.324   7.964
 2334POPC   C4A31734  24.498  28.400   7.664
 2334POPC   C1B31735  24.253  28.296   8.564
 2334POPC   C2B31736  24.271  28.222   8.264
 2334POPC   C3B31737  24.250  28.268   7.964
 2334POPC   C4B31738  24.245  28.263   7.664
 2335POPC   NC331739  26.781  22.917   9.464
 2335POPC   PO431740  26.783  22.961   9.164
 2335POPC   GL131741  26.837  22.893   8.864
 2335POPC   GL231742  26.908  23.010   8.864
 2335POPC   C1A31743  26.838  22.932   8.564
 2335POPC   D2A31744  26.811  22.955   8.264
 2335POPC   C3A31745  26.832  22.960   7.964
 2335POPC   C4A31746  26.815  22.941   7.664
 2335POPC   C1B31747  27.071  23.008   8.564
 2335POPC   C2B31748  27.012  23.065   8.264
 2335POPC   C3B31749  27.078  23.069   7.964
 2335POPC   C4B31750  27.030  23.070   7.664
 2336POPC   NC331751  22.945  31.462   9.464
 2336POPC   PO431752  22.895  31.450   9.164
 2336POPC   GL131753  22.978  31.453   8.864
 2336POPC   GL231754  22.930  31.595   8.864
 2336POPC   C1A31755  22.891  31.460   8.564
 2336POPC   D2A31756  22.941  31.429   8.264
 2336POPC   C3A31757  22.943  31.511   7.964
 2336POPC   C4A31758  22.980  31.501   7.664
 2336POPC   C1B31759  22.921  31.717   8.564
 2336POPC   C2B31760  22.966  31.761   8.264
 2336POPC   C3B31761  22.901  31.692   7.964
 2336POPC   C4B31762  22.911  31.742   7.664
 2337POPC   NC331763   7.387  17.534   9.464
 2337POPC   PO431764   7.458  17.484   9.164
 2337POPC   GL131765   7.433  17.467   8.864
 2337POPC   GL231766   7.367  17.621   8.864
 2337POPC   C1A31767   7.426  17.461   8.564
 2337POPC   D2A31768   7.421  17.479   8.264
 2337POPC   C3A31769   7.397  17.479   7.964
 2337POPC   C4A31770   7.419  17.524   7.664
 2337POPC   C1B31771   7.268  17.690   8.564
 2337POPC   C2B31772   7.350  17.742   8.264
 2337POPC   C3B31773   7.285  17.729   7.964
 2337POPC   C4B31774   7.275  17.729   7.664
 2338POPC   NC331775  39.207  44.687   9.464
 2338POPC   PO431776  39.271  44.664   9.164
 2338POPC   GL131777  39.251  44.661   8.864
 2338POPC   GL231778  39.378  44.674   8.864
 2338POPC   C1A31779  39.204  44.636   8.564
 2338POPC   D2A31780  39.229  44.634   8.264
 2338POPC   C3A31781  39.202  44.670   7.964
 2338POPC   C4A31782  39.225  44.669   7.664
 2338POPC   C1B31783  39.498  44.726   8.564
 2338POPC   C2B31784  39.498  44.713   8.264
 2338POPC   C3B31785  39.529  44.669   7.964
 2338POPC   C4B31786  39.489  44.739   7.664
 2339POPC   NC331787  21.405  10.532   9.464
 2339POPC   PO431788  21.386  10.507   9.164
 2339POPC   GL131789  21.412  10.507   8.864
 2339POPC   GL231790  21.351  10.653   8.864
 2339POPC   C1A31791  21.354  10.491   8.564
 2339POPC   D2A31792  21.341  10.529   8.264
 2339POPC   C3A31793  21.415  10.525   7.964
 2339POPC   C4A31794  21.357  10.511   7.664
 2339POPC   C1B31795  21.453  10.806   8.564
 2339POPC   C2B31796  21.419  10.743   8.264
 2339POPC   C3B31797  21.455  10.779   7.964
 2339POPC   C4B31798  21.460  10.733   7.664
 2340POPC   NC331799   1.178  19.078   9.464
 2340POPC   PO431800   1.167  19.078   9.164
 2340POPC   GL131801   1.237  19.036   8.864
 2340POPC   GL231802   1.263  19.151   8.864
 2340POPC   C1A31803   1.177  19.053   8.564
 2340POPC   D2A31804   1.175  19.064   8.264
 2340POPC   C3A31805   1.216  19.092   7.964
 2340POPC   C4A31806   1.174  19.012   7.664
 2340POPC   C1B31807   1.364  19.261   8.564
 2340POPC   C2B31808   1.433  19.256   8.264
 2340POPC   C3B31809   1.378  19.246   7.964
 2340POPC   C4B31810   1.393  19.272   7.664
 2341POPC   NC331811  27.639   0.400   9.464
 2341POPC   PO431812  27.613   0.462   9.164
 2341POPC   GL131813  27.612   0.458   8.864
 2341POPC   GL231814  27.577   0.571   8.864
 2341POPC   C1A31815  27.632   0.437   8.564
 2341POPC   D2A31816  27.634   0.445   8.264
 2341POPC   C3A31817  27.553   0.391   7.964
 2341POPC   C4A31818  27.547   0.419   7.664
 2341POPC   C1B31819  27.596   0.670   8.564
 2341POPC   C2B31820  27.580   0.715   8.264
 2341POPC   C3B31821  27.593   0.645   7.964
 2341POPC   C4B31822  27.670   0.689   7.664
 2342POPC   NC331823   7.421  43.155   9.464
 2342POPC   PO431824   7.466  43.094   9.164
 2342POPC   GL131825   7.447  43.075   8.864
 2342POPC   GL231826   7.552  43.019   8.864
 2342POPC   C1A31827   7.441  43.141   8.564
 2342POPC   D2A31828   7.421  43.149   8.264
 2342POPC   C3A31829   7.403  43.126   7.964
 2342POPC   C4A31830   7.464  43.109   7.664
 2342POPC   C1B31831   7.603  43.005   8.564
 2342POPC   C2B31832   7.637  43.007   8.264
 2342POPC   C3B31833   7.643  42.959   7.964
 2342POPC   C4B31834   7.604  42.997   7.664
 2343POPC   NC331835  14.408  36.087   9.464
 2343POPC   PO431836  14.404  36.160   9.164
 2343POPC   GL131837  14.401  36.120   8.864
 2343POPC   GL231838  14.367  36.292   8.864
 2343POPC   C1A31839  14.398  36.139   8.564
 2343POPC   D2A31840  14.418  36.121   8.264
 2343POPC   C3A31841  14.374  36.169   7.964
 2343POPC   C4A31842  14.411  36.121   7.664
 2343POPC   C1B31843  14.361  36.404   8.564
 2343POPC   C2B31844  14.405  36.400   8.264
 2343POPC   C3B31845  14.418  36.337   7.964
 2343POPC   C4B31846  14.362  36.353   7.664
 2344POPC   NC331847  35.310   4.302   9.464
 2344POPC   PO431848  35.337   4.342   9.164
 2344POPC   GL131849  35.347   4.299   8.864
 2344POPC   GL231850  35.475   4.285   8.864
 2344POPC   C1A31851  35.348   4.300   8.564
 2344POPC   D2A31852  35.373   4.344   8.264
 2344POPC   C3A31853  35.326   4.352   7.964
 2344POPC   C4A31854  35.312   4.289   7.664
 2344POPC   C1B31855  35.567   4.227   8.564
 2344POPC   C2B31856  35.589   4.215   8.264
 2344POPC   C3B31857  35.547   4.238   7.964
 2344POPC   C4B31858  35.573   4.248   7.664
 2345POPC   NC331859  22.162   3.559   9.464
 2345POPC   PO431860  22.200   3.577   9.164
 2345POPC   GL131861  22.207   3.550   8.864
 2345POPC   GL231862  22.149   3.440   8.864
 2345POPC   C1A31863  22.132   3.558   8.564
 2345POPC   D2A31864  22.147   3.520   8.264
 2345POPC   C3A31865  22.208   3.550   7.964
 2345POPC   C4A31866  22.127   3.568   7.664
 2345POPC   C1B31867  22.027   3.354   8.564
 2345POPC   C2B31868  22.019   3.265   8.264
 2345POPC   C3B31869  22.079   3.359   7.964
 2345POPC   C4B31870  22.032   3.265   7.664
 2346POPC   NC331871  13.646  17.544   9.464
 2346POPC   PO431872  13.594  17.492   9.164
 2346POPC   GL131873  13.592  17.487   8.864
 2346POPC   GL231874  13.759  17.518   8.864
 2346POPC   C1A31875  13.588  17.502   8.564
 2346POPC   D2A31876  13.613  17.524   8.264
 2346POPC   C3A31877  13.664  17.501   7.964
 2346POPC   C4A31878  13.615  17.552   7.664
 2346POPC   C1B31879  13.879  17.595   8.564
 2346POPC   C2B31880  13.829  17.627   8.264
 2346POPC   C3B31881  13.891  17.624   7.964
 2346POPC   C4B31882  13.868  17.621   7.664
 2347POPC   NC331883  36.878  11.279   9.464
 2347POPC   PO431884  36.942  11.340   9.164
 2347POPC   GL131885  36.939  11.280   8.864
 2347POPC   GL231886  36.967  11.415   8.864
 2347POPC   C1A31887  36.904  11.313   8.564
 2347POPC   D2A31888  36.890  11.251   8.264
 2347POPC   C3A31889  36.949  11.311   7.964
 2347POPC   C4A31890  36.875  11.323   7.664
 2347POPC   C1B31891  37.103  11.408   8.564
 2347POPC   C2B31892  37.091  11.485   8.264
 2347POPC   C3B31893  37.063  11.422   7.964
 2347POPC   C4B31894  37.066  11.394   7.664
 2348POPC   NC331895  26.089  29.877   9.464
 2348POPC   PO431896  25.994  29.877   9.164
 2348POPC   GL131897  26.090  29.955   8.864
 2348POPC   GL231898  26.043  29.767   8.864
 2348POPC   C1A31899  26.048  29.881   8.564
 2348POPC   D2A31900  25.999  29.943   8.264
 2348POPC   C3A31901  26.080  29.872   7.964
 2348POPC   C4A31902  26.081  29.917   7.664
 2348POPC   C1B31903  26.136  29.673   8.564
 2348POPC   C2B31904  26.099  29.659   8.264
 2348POPC   C3B31905  26.142  29.648   7.964
 2348POPC   C4B31906  26.077  29.662   7.664
 2349POPC   NC331907  19.052   4.294   9.464
 2349POPC   PO431908  19.019   4.338   9.164
 2349POPC   GL131909  19.044   4.273   8.864
 2349POPC   GL231910  19.199   4.320   8.864
 2349POPC   C1A31911  19.013   4.330   8.564
 2349POPC   D2A31912  19.036   4.346   8.264
 2349POPC   C3A31913  19.084   4.272   7.964
 2349POPC   C4A31914  19.037   4.292   7.664
 2349POPC   C1B31915  19.317   4.396   8.564
 2349POPC   C2B31916  19.334   4.418   8.264
 2349POPC   C3B31917  19.274   4.417   7.964
 2349POPC   C4B31918  19.275   4.426   7.664
 2350POPC   NC331919  12.890  15.931   9.464
 2350POPC   PO431920  12.856  15.927   9.164
 2350POPC   GL131921  12.881  15.966   8.864
 2350POPC   GL231922  12.957  15.998   8.864
 2350POPC   C1A31923  12.834  15.993   8.564
 2350POPC   D2A31924  12.802  15.912   8.264
 2350POPC   C3A31925  12.875  15.966   7.964
 2350POPC   C4A31926  12.826  15.985   7.664
 2350POPC   C1B31927  13.093  16.074   8.564
 2350POPC   C2B31928  13.097  16.072   8.264
 2350POPC   C3B31929  13.050  16.069   7.964
 2350POPC   C4B31930  13.096  16.076   7.664
 2351POPC   NC331931   7.372   4.306   9.464
 2351POPC   PO431932   7.461   4.330   9.164
 2351POPC   GL131933   7.438   4.320   8.864
 2351POPC   GL231934   7.457   4.167   8.864
 2351POPC   C1A31935   7.469   4.348   8.564
 2351POPC   D2A31936   7.389   4.353   8.264
 2351POPC   C3A31937   7.442   4.304   7.964
 2351POPC   C4A31938   7.399   4.355   7.664
 2351POPC   C1B31939   7.541   4.050   8.564
 2351POPC   C2B31940   7.539   4.072   8.264
 2351POPC   C3B31941   7.493   4.073   7.964
 2351POPC   C4B31942   7.569   4.076   7.664
 2352POPC   NC331943  32.279  42.298   9.464
 2352POPC   PO431944  32.216  42.349   9.164
 2352POPC   GL131945  32.296  42.356   8.864
 2352POPC   GL231946  32.195  42.463   8.864
 2352POPC   C1A31947  32.263  42.344   8.564
 2352POPC   D2A31948  32.246  42.313   8.264
 2352POPC   C3A31949  32.239  42.345   7.964
 2352POPC   C4A31950  32.247  42.308   7.664
 2352POPC   C1B31951  32.099  42.502   8.564
 2352POPC   C2B31952  32.074  42.500   8.264
 2352POPC   C3B31953  32.061  42.584   7.964
 2352POPC   C4B31954  32.140  42.538   7.664
 2353POPC   NC331955   0.458   0.439   9.464
 2353POPC   PO431956   0.395   0.389   9.164
 2353POPC   GL131957   0.441   0.407   8.864
 2353POPC   GL231958   0.602   0.471   8.864
 2353POPC   C1A31959   0.408   0.407   8.564
 2353POPC   D2A31960   0.455   0.414   8.264
 2353POPC   C3A31961   0.470   0.422   7.964
 2353POPC   C4A31962   0.447   0.471   7.664
 2353POPC   C1B31963   0.664   0.430   8.564
 2353POPC   C2B31964   0.731   0.509   8.264
 2353POPC   C3B31965   0.670   0.466   7.964
 2353POPC   C4B31966   0.652   0.509   7.664
 2354POPC   NC331967  41.573  11.253   9.464
 2354POPC   PO431968  41.577  11.336   9.164
 2354POPC   GL131969  41.535  11.302   8.864
 2354POPC   GL231970  41.637  11.214   8.864
 2354POPC   C1A31971  41.596  11.333   8.564
 2354POPC   D2A31972  41.604  11.264   8.264
 2354POPC   C3A31973  41.603  11.345   7.964
 2354POPC   C4A31974  41.543  11.255   7.664
 2354POPC   C1B31975  41.786  11.112   8.564
 2354POPC   C2B31976  41.777  11.181   8.264
 2354POPC   C3B31977  41.809  11.188   7.964
 2354POPC   C4B31978  41.717  11.174   7.664
 2355POPC   NC331979  19.083  18.277   9.464
 2355POPC   PO431980  19.026  18.246   9.164
 2355POPC   GL131981  19.025  18.291   8.864
 2355POPC   GL231982  18.936  18.348   8.864
 2355POPC   C1A31983  19.026  18.302   8.564
 2355POPC   D2A31984  19.051  18.235   8.264
 2355POPC   C3A31985  19.037  18.292   7.964
 2355POPC   C4A31986  19.092  18.317   7.664
 2355POPC   C1B31987  18.876  18.421   8.564
 2355POPC   C2B31988  18.929  18.416   8.264
 2355POPC   C3B31989  18.866  18.426   7.964
 2355POPC   C4B31990  18.848  18.442   7.664
 2356POPC   NC331991  28.328  23.679   9.464
 2356POPC   PO431992  28.401  23.742   9.164
 2356POPC   GL131993  28.373  23.667   8.864
 2356POPC   GL231994  28.438  23.862   8.864
 2356POPC   C1A31995  28.371  23.694   8.564
 2356POPC   D2A31996  28.393  23.680   8.264
 2356POPC   C3A31997  28.372  23.695   7.964
 2356POPC   C4A31998  28.402  23.725   7.664
 2356POPC   C1B31999  28.391  23.927   8.564
 2356POPC   C2B32000  28.463  23.975   8.264
 2356POPC   C3B32001  28.437  23.974   7.964
 2356POPC   C4B32002  28.439  23.916   7.664
 2357POPC   NC332003   3.548   9.793   9.464
 2357POPC   PO432004   3.589   9.784   9.164
 2357POPC   GL132005   3.498   9.720   8.864
 2357POPC   GL232006   3.375   9.765   8.864
 2357POPC   C1A32007   3.493   9.758   8.564
 2357POPC   D2A32008   3.525   9.722   8.264
 2357POPC   C3A32009   3.519   9.766   7.964
 2357POPC   C4A32010   3.565   9.724   7.664
 2357POPC   C1B32011   3.273   9.841   8.564
 2357POPC   C2B32012   3.321   9.836   8.264
 2357POPC   C3B32013   3.308   9.818   7.964
 2357POPC   C4B32014   3.320   9.863   7.664
 2358POPC   NC332015  33.808  12.051   9.464
 2358POPC   PO432016  33.796  12.120   9.164
 2358POPC   GL132017  33.831  12.077   8.864
 2358POPC   GL232018  33.650  12.022   8.864
 2358POPC   C1A32019  33.759  12.090   8.564
 2358POPC   D2A32020  33.810  12.087   8.264
 2358POPC   C3A32021  33.821  12.040   7.964
 2358POPC   C4A32022  33.827  12.074   7.664
 2358POPC   C1B32023  33.541  12.041   8.564
 2358POPC   C2B32024  33.506  12.067   8.264
 2358POPC   C3B32025  33.525  12.080   7.964
 2358POPC   C4B32026  33.589  12.060   7.664
 2359POPC   NC332027  29.941   5.905   9.464
 2359POPC   PO432028  29.968   5.881   9.164
 2359POPC   GL132029  29.884   5.906   8.864
 2359POPC   GL232030  29.828   5.802   8.864
 2359POPC   C1A32031  29.956   5.900   8.564
 2359POPC   D2A32032  29.892   5.909   8.264
 2359POPC   C3A32033  29.898   5.908   7.964
 2359POPC   C4A32034  29.881   5.918   7.664
 2359POPC   C1B32035  29.701   5.793   8.564
 2359POPC   C2B32036  29.703   5.822   8.264
 2359POPC   C3B32037  29.639   5.773   7.964
 2359POPC   C4B32038  29.704   5.798   7.664
 2360POPC   NC332039  14.397   1.184   9.464
 2360POPC   PO432040  14.409   1.252   9.164
 2360POPC   GL132041  14.393   1.253   8.864
 2360POPC   GL232042  14.304   1.121   8.864
 2360POPC   C1A32043  14.371   1.210   8.564
 2360POPC   D2A32044  14.416   1.189   8.264
 2360POPC   C3A32045  14.425   1.185   7.964
 2360POPC   C4A32046  14.416   1.191   7.664
 2360POPC   C1B32047  14.299   0.936   8.564
 2360POPC   C2B32048  14.338   0.973   8.264
 2360POPC   C3B32049  14.342   1.005   7.964
 2360POPC   C4B32050  14.322   0.994   7.664
 2361POPC   NC332051  36.901  39.185   9.464
 2361POPC   PO432052  36.936  39.208   9.164
 2361POPC   GL132053  36.866  39.262   8.864
 2361POPC   GL232054  37.050  39.195   8.864
 2361POPC   C1A32055  36.898  39.235   8.564
 2361POPC   D2A32056  36.907  39.219   8.264
 2361POPC   C3A32057  36.863  39.244   7.964
 2361POPC   C4A32058  36.924  39.209   7.664
 2361POPC   C1B32059  37.134  39.087   8.564
 2361POPC   C2B32060  37.125  39.160   8.264
 2361POPC   C3B32061  37.117  39.138   7.964
 2361POPC   C4B32062  37.088  39.133   7.664
 2362POPC   NC332063  12.109  41.529   9.464
 2362POPC   PO432064  12.118  41.599   9.164
 2362POPC   GL132065  12.027  41.565   8.864
 2362POPC   GL232066  12.009  41.723   8.864
 2362POPC   C1A32067  12.054  41.588   8.564
 2362POPC   D2A32068  12.077  41.605   8.264
 2362POPC   C3A32069  12.097  41.544   7.964
 2362POPC   C4A32070  12.029  41.605   7.664
 2362POPC   C1B32071  12.044  41.782   8.564
 2362POPC   C2B32072  12.055  41.831   8.264
 2362POPC   C3B32073  12.042  41.846   7.964
 2362POPC   C4B32074  12.059  41.840   7.664
 2363POPC   NC332075  29.946  14.450   9.464
 2363POPC   PO432076  29.906  14.434   9.164
 2363POPC   GL132077  29.927  14.373   8.864
 2363POPC   GL232078  30.012  14.445   8.864
 2363POPC   C1A32079  29.887  14.357   8.564
 2363POPC   D2A32080  29.918  14.366   8.264
 2363POPC   C3A32081  29.886  14.418   7.964
 2363POPC   C4A32082  29.970  14.416   7.664
 2363POPC   C1B32083  30.141  14.382   8.564
 2363POPC   C2B32084  30.195  14.410   8.264
 2363POPC   C3B32085  30.194  14.375   7.964
 2363POPC   C4B32086  30.201  14.388   7.664
 2364POPC   NC332087  28.363  43.070   9.464
 2364POPC   PO432088  28.331  43.154   9.164
 2364POPC   GL132089  28.368  43.119   8.864
 2364POPC   GL232090  28.500  43.143   8.864
 2364POPC   C1A32091  28.396  43.099   8.564
 2364POPC   D2A32092  28.412  43.116   8.264
 2364POPC   C3A32093  28.339  43.062   7.964
 2364POPC   C4A32094  28.417  43.102   7.664
 2364POPC   C1B32095  28.596  43.268   8.564
 2364POPC   C2B32096  28.568  43.272   8.264
 2364POPC   C3B32097  28.599  43.305   7.964
 2364POPC   C4B32098  28.546  43.272   7.664
 2365POPC   NC332099  34.598  12.854   9.464
 2365POPC   PO432100  34.612  12.820   9.164
 2365POPC   GL132101  34.533  12.846   8.864
 2365POPC   GL232102  34.468  12.861   8.864
 2365POPC   C1A32103  34.579  12.866   8.564
 2365POPC   D2A32104  34.609  12.844   8.264
 2365POPC   C3A32105  34.575  12.849   7.964
 2365POPC   C4A32106  34.606  12.890   7.664
 2365POPC   C1B32107  34.381  12.971   8.564
 2365POPC   C2B32108  34.365  12.933   8.264
 2365POPC   C3B32109  34.358  12.968   7.964
 2365POPC   C4B32110  34.293  12.947   7.664
 2366POPC   NC332111   9.752  29.146   9.464
 2366POPC   PO432112   9.754  29.193   9.164
 2366POPC   GL132113   9.793  29.195   8.864
 2366POPC   GL232114   9.828  29.006   8.864
 2366POPC   C1A32115   9.768  29.162   8.564
 2366POPC   D2A32116   9.797  29.112   8.264
 2366POPC   C3A32117   9.756  29.111   7.964
 2366POPC   C4A32118   9.749  29.111   7.664
 2366POPC   C1B32119   9.861  28.926   8.564
 2366POPC   C2B32120   9.878  28.957   8.264
 2366POPC   C3B32121   9.791  28.887   7.964
 2366POPC   C4B32122   9.839  28.943   7.664
 2367POPC   NC332123  40.764  11.302   9.464
 2367POPC   PO432124  40.798  11.268   9.164
 2367POPC   GL132125  40.746  11.334   8.864
 2367POPC   GL232126  40.840  11.379   8.864
 2367POPC   C1A32127  40.816  11.271   8.564
 2367POPC   D2A32128  40.746  11.276   8.264
 2367POPC   C3A32129  40.829  11.346   7.964
 2367POPC   C4A32130  40.818  11.315   7.664
 2367POPC   C1B32131  40.976  11.469   8.564
 2367POPC   C2B32132  40.922  11.457   8.264
 2367POPC   C3B32133  40.924  11.448   7.964
 2367POPC   C4B32134  40.946  11.471   7.664
 2368POPC   NC332135  11.303  10.550   9.464
 2368POPC   PO432136  11.259  10.491   9.164
 2368POPC   GL132137  11.299  10.540   8.864
 2368POPC   GL232138  11.225  10.597   8.864
 2368POPC   C1A32139  11.293  10.538   8.564
 2368POPC   D2A32140  11.312  10.560   8.264
 2368POPC   C3A32141  11.336  10.554   7.964
 2368POPC   C4A32142  11.265  10.514   7.664
 2368POPC   C1B32143  11.107  10.686   8.564
 2368POPC   C2B32144  11.156  10.704   8.264
 2368POPC   C3B32145  11.168  10.749   7.964
 2368POPC   C4B32146  11.126  10.715   7.664
 2369POPC   NC332147  31.491  13.588   9.464
 2369POPC   PO432148  31.428  13.658   9.164
 2369POPC   GL132149  31.477  13.587   8.864
 2369POPC   GL232150  31.507  13.784   8.864
 2369POPC   C1A32151  31.493  13.610   8.564
 2369POPC   D2A32152  31.438  13.636   8.264
 2369POPC   C3A32153  31.476  13.584   7.964
 2369POPC   C4A32154  31.481  13.640   7.664
 2369POPC   C1B32155  31.474  13.840   8.564
 2369POPC   C2B32156  31.472  13.831   8.264
 2369POPC   C3B32157  31.497  13.840   7.964
 2369POPC   C4B32158  31.518  13.893   7.664
 2370POPC   NC332159   8.178   8.939   9.464
 2370POPC   PO432160   8.222   8.930   9.164
 2370POPC   GL132161   8.185   8.936   8.864
 2370POPC   GL232162   8.086   9.057   8.864
 2370POPC   C1A32163   8.161   9.011   8.564
 2370POPC   D2A32164   8.176   8.990   8.264
 2370POPC   C3A32165   8.183   8.987   7.964
 2370POPC   C4A32166   8.220   8.950   7.664
 2370POPC   C1B32167   7.981   9.181   8.564
 2370POPC   C2B32168   8.018   9.106   8.264
 2370POPC   C3B32169   7.986   9.133   7.964
 2370POPC   C4B32170   8.052   9.096   7.664
 2371POPC   NC332171   3.510  31.440   9.464
 2371POPC   PO432172   3.584  31.491   9.164
 2371POPC   GL132173   3.578  31.444   8.864
 2371POPC   GL232174   3.689  31.520   8.864
 2371POPC   C1A32175   3.584  31.459   8.564
 2371POPC   D2A32176   3.494  31.507   8.264
 2371POPC   C3A32177   3.524  31.513   7.964
 2371POPC   C4A32178   3.528  31.448   7.664
 2371POPC   C1B32179   3.737  31.671   8.564
 2371POPC   C2B32180   3.704  31.652   8.264
 2371POPC   C3B32181   3.720  31.612   7.964
 2371POPC   C4B32182   3.773  31.601   7.664
 2372POPC   NC332183  43.840  31.439   9.464
 2372POPC   PO432184  43.878  31.427   9.164
 2372POPC   GL132185  43.848  31.470   8.864
 2372POPC   GL232186  43.824  31.597   8.864
 2372POPC   C1A32187  43.854  31.456   8.564
 2372POPC   D2A32188  43.882  31.466   8.264
 2372POPC   C3A32189  43.846  31.495   7.964
 2372POPC   C4A32190  43.931  31.455   7.664
 2372POPC   C1B32191  43.856  31.712   8.564
 2372POPC   C2B32192  43.831  31.762   8.264
 2372POPC   C3B32193  43.861  31.756   7.964
 2372POPC   C4B32194  43.867  31.691   7.664
 2373POPC   NC332195  39.980  12.862   9.464
 2373POPC   PO432196  40.043  12.892   9.164
 2373POPC   GL132197  40.005  12.877   8.864
 2373POPC   GL232198  40.145  12.854   8.864
 2373POPC   C1A32199  40.046  12.861   8.564
 2373POPC   D2A32200  40.004  12.888   8.264
 2373POPC   C3A32201  39.981  12.878   7.964
 2373POPC   C4A32202  40.005  12.853   7.664
 2373POPC   C1B32203  40.237  12.940   8.564
 2373POPC   C2B32204  40.235  12.937   8.264
 2373POPC   C3B32205  40.194  12.959   7.964
 2373POPC   C4B32206  40.215  12.924   7.664
 2374POPC   NC332207  31.468   3.526   9.464
 2374POPC   PO432208  31.520   3.531   9.164
 2374POPC   GL132209  31.512   3.522   8.864
 2374POPC   GL232210  31.455   3.447   8.864
 2374POPC   C1A32211  31.437   3.510   8.564
 2374POPC   D2A32212  31.446   3.585   8.264
 2374POPC   C3A32213  31.487   3.507   7.964
 2374POPC   C4A32214  31.501   3.585   7.664
 2374POPC   C1B32215  31.381   3.341   8.564
 2374POPC   C2B32216  31.391   3.334   8.264
 2374POPC   C3B32217  31.320   3.291   7.964
 2374POPC   C4B32218  31.377   3.324   7.664
 2375POPC   NC332219  21.337  30.719   9.464
 2375POPC   PO432220  21.396  30.716   9.164
 2375POPC   GL132221  21.395  30.694   8.864
 2375POPC   GL232222  21.473  30.826   8.864
 2375POPC   C1A32223  21.391  30.660   8.564
 2375POPC   D2A32224  21.361  30.710   8.264
 2375POPC   C3A32225  21.372  30.717   7.964
 2375POPC   C4A32226  21.393  30.665   7.664
 2375POPC   C1B32227  21.534  30.891   8.564
 2375POPC   C2B32228  21.474  30.946   8.264
 2375POPC   C3B32229  21.452  30.917   7.964
 2375POPC   C4B32230  21.450  30.881   7.664
 2376POPC   NC332231  16.720  13.650   9.464
 2376POPC   PO432232  16.753  13.595   9.164
 2376POPC   GL132233  16.766  13.591   8.864
 2376POPC   GL232234  16.815  13.715   8.864
 2376POPC   C1A32235  16.732  13.620   8.564
 2376POPC   D2A32236  16.692  13.587   8.264
 2376POPC   C3A32237  16.752  13.656   7.964
 2376POPC   C4A32238  16.767  13.656   7.664
 2376POPC   C1B32239  16.994  13.764   8.564
 2376POPC   C2B32240  16.917  13.746   8.264
 2376POPC   C3B32241  16.925  13.789   7.964
 2376POPC   C4B32242  16.976  13.736   7.664
 2377POPC   NC332243  25.239  16.735   9.464
 2377POPC   PO432244  25.217  16.703   9.164
 2377POPC   GL132245  25.290  16.716   8.864
 2377POPC   GL232246  25.196  16.788   8.864
 2377POPC   C1A32247  25.277  16.740   8.564
 2377POPC   D2A32248  25.236  16.687   8.264
 2377POPC   C3A32249  25.298  16.705   7.964
 2377POPC   C4A32250  25.274  16.743   7.664
 2377POPC   C1B32251  25.087  16.834   8.564
 2377POPC   C2B32252  25.026  16.840   8.264
 2377POPC   C3B32253  25.102  16.920   7.964
 2377POPC   C4B32254  25.013  16.922   7.664
 2378POPC   NC332255  40.747  44.614   9.464
 2378POPC   PO432256  40.799  44.635   9.164
 2378POPC   GL132257  40.802  44.652   8.864
 2378POPC   GL232258  40.702  44.496   8.864
 2378POPC   C1A32259  40.750  44.674   8.564
 2378POPC   D2A32260  40.755  44.684   8.264
 2378POPC   C3A32261  40.740  44.702   7.964
 2378POPC   C4A32262  40.743  44.678   7.664
 2378POPC   C1B32263  40.711  44.461   8.564
 2378POPC   C2B32264  40.702  44.470   8.264
 2378POPC   C3B32265  40.740  44.462   7.964
 2378POPC   C4B32266  40.744  44.460   7.664
 2379POPC   NC332267  25.290  29.928   9.464
 2379POPC   PO432268  25.279  29.880   9.164
 2379POPC   GL132269  25.301  29.871   8.864
 2379POPC   GL232270  25.148  29.996   8.864
 2379POPC   C1A32271  25.276  29.907   8.564
 2379POPC   D2A32272  25.284  29.928   8.264
 2379POPC   C3A32273  25.219  29.961   7.964
 2379POPC   C4A32274  25.237  29.961   7.664
 2379POPC   C1B32275  25.072  30.087   8.564
 2379POPC   C2B32276  25.069  30.116   8.264
 2379POPC   C3B32277  25.116  30.075   7.964
 2379POPC   C4B32278  25.046  30.113   7.664
 2380POPC   NC332279   8.154   2.796   9.464
 2380POPC   PO432280   8.205   2.730   9.164
 2380POPC   GL132281   8.164   2.753   8.864
 2380POPC   GL232282   8.185   2.665   8.864
 2380POPC   C1A32283   8.179   2.789   8.564
 2380POPC   D2A32284   8.196   2.723   8.264
 2380POPC   C3A32285   8.150   2.783   7.964
 2380POPC   C4A32286   8.185   2.790   7.664
 2380POPC   C1B32287   8.169   2.495   8.564
 2380POPC   C2B32288   8.142   2.562   8.264
 2380POPC   C3B32289   8.131   2.538   7.964
 2380POPC   C4B32290   8.179   2.491   7.664
 2381POPC   NC332291  23.737  35.313   9.464
 2381POPC   PO432292  23.705  35.374   9.164
 2381POPC   GL132293  23.720  35.350   8.864
 2381POPC   GL232294  23.776  35.461   8.864
 2381POPC   C1A32295  23.756  35.367   8.564
 2381POPC   D2A32296  23.693  35.361   8.264
 2381POPC   C3A32297  23.691  35.391   7.964
 2381POPC   C4A32298  23.761  35.328   7.664
 2381POPC   C1B32299  23.905  35.486   8.564
 2381POPC   C2B32300  23.866  35.483   8.264
 2381POPC   C3B32301  23.922  35.500   7.964
 2381POPC   C4B32302  23.946  35.490   7.664
 2382POPC   NC332303  44.644  41.605   9.464
 2382POPC   PO432304  44.651  41.588   9.164
 2382POPC   GL132305  44.667  41.514   8.864
 2382POPC   GL232306  44.567  41.656   8.864
 2382POPC   C1A32307  44.614  41.558   8.564
 2382POPC   D2A32308  44.618  41.532   8.264
 2382POPC   C3A32309  44.677  41.532   7.964
 2382POPC   C4A32310  44.672  41.517   7.664
 2382POPC   C1B32311  44.605  41.834   8.564
 2382POPC   C2B32312  44.550  41.769   8.264
 2382POPC   C3B32313  44.561  41.801   7.964
 2382POPC   C4B32314  44.525  41.833   7.664
 2383POPC   NC332315  22.944  24.440   9.464
 2383POPC   PO432316  22.949  24.461   9.164
 2383POPC   GL132317  22.909  24.526   8.864
 2383POPC   GL232318  22.983  24.605   8.864
 2383POPC   C1A32319  22.935  24.517   8.564
 2383POPC   D2A32320  22.892  24.482   8.264
 2383POPC   C3A32321  22.907  24.469   7.964
 2383POPC   C4A32322  22.910  24.459   7.664
 2383POPC   C1B32323  23.092  24.684   8.564
 2383POPC   C2B32324  23.066  24.696   8.264
 2383POPC   C3B32325  23.094  24.730   7.964
 2383POPC   C4B32326  23.125  24.681   7.664
 2384POPC   NC332327  35.380  36.941   9.464
 2384POPC   PO432328  35.400  36.922   9.164
 2384POPC   GL132329  35.327  36.866   8.864
 2384POPC   GL232330  35.272  37.045   8.864
 2384POPC   C1A32331  35.337  36.927   8.564
 2384POPC   D2A32332  35.374  36.942   8.264
 2384POPC   C3A32333  35.369  36.953   7.964
 2384POPC   C4A32334  35.369  36.934   7.664
 2384POPC   C1B32335  35.266  37.136   8.564
 2384POPC   C2B32336  35.299  37.091   8.264
 2384POPC   C3B32337  35.256  37.094   7.964
 2384POPC   C4B32338  35.232  37.125   7.664
 2385POPC   NC332339  32.260  26.842   9.464
 2385POPC   PO432340  32.291  26.776   9.164
 2385POPC   GL132341  32.229  26.780   8.864
 2385POPC   GL232342  32.250  26.740   8.864
 2385POPC   C1A32343  32.222  26.789   8.564
 2385POPC   D2A32344  32.205  26.813   8.264
 2385POPC   C3A32345  32.227  26.774   7.964
 2385POPC   C4A32346  32.206  26.806   7.664
 2385POPC   C1B32347  32.266  26.562   8.564
 2385POPC   C2B32348  32.227  26.554   8.264
 2385POPC   C3B32349  32.285  26.566   7.964
 2385POPC   C4B32350  32.276  26.591   7.664
 2386POPC   NC332351  19.849  44.653   9.464
 2386POPC   PO432352  19.856  44.670   9.164
 2386POPC   GL132353  19.812  44.680   8.864
 2386POPC   GL232354  19.969  44.669   8.864
 2386POPC   C1A32355  19.820  44.652   8.564
 2386POPC   D2A32356  19.820  44.627   8.264
 2386POPC   C3A32357  19.802  44.634   7.964
 2386POPC   C4A32358  19.792  44.694   7.664
 2386POPC   C1B32359  20.044  44.634   8.564
 2386POPC   C2B32360  20.119  44.582   8.264
 2386POPC   C3B32361  20.081  44.564   7.964
 2386POPC   C4B32362  20.112  44.623   7.664
 2387POPC   NC332363   5.050  12.048   9.464
 2387POPC   PO432364   5.068  12.106   9.164
 2387POPC   GL132365   5.080  12.054   8.864
 2387POPC   GL232366   5.227  12.139   8.864
 2387POPC   C1A32367   5.113  12.110   8.564
 2387POPC   D2A32368   5.089  12.071   8.264
 2387POPC   C3A32369   5.061  12.042   7.964
 2387POPC   C4A32370   5.089  12.096   7.664
 2387POPC   C1B32371   5.335  12.172   8.564
 2387POPC   C2B32372   5.307  12.232   8.264
 2387POPC   C3B32373   5.274  12.238   7.964
 2387POPC   C4B32374   5.309  12.237   7.664
 2388POPC   NC332375  29.956  43.079   9.464
 2388POPC   PO432376  29.947  43.109   9.164
 2388POPC   GL132377  29.892  43.064   8.864
 2388POPC   GL232378  29.959  42.969   8.864
 2388POPC   C1A32379  29.893  43.066   8.564
 2388POPC   D2A32380  29.872  43.151   8.264
 2388POPC   C3A32381  29.886  43.157   7.964
 2388POPC   C4A32382  29.953  43.132   7.664
 2388POPC   C1B32383  30.013  42.855   8.564
 2388POPC   C2B32384  29.996  42.900   8.264
 2388POPC   C3B32385  30.029  42.892   7.964
 2388POPC   C4B32386  30.001  42.851   7.664
 2389POPC   NC332387  33.762  36.146   9.464
 2389POPC   PO432388  33.771  36.174   9.164
 2389POPC   GL132389  33.840  36.142   8.864
 2389POPC   GL232390  33.953  36.172   8.864
 2389POPC   C1A32391  33.811  36.132   8.564
 2389POPC   D2A32392  33.808  36.139   8.264
 2389POPC   C3A32393  33.832  36.131   7.964
 2389POPC   C4A32394  33.840  36.109   7.664
 2389POPC   C1B32395  34.029  36.117   8.564
 2389POPC   C2B32396  34.046  36.120   8.264
 2389POPC   C3B32397  34.052  36.143   7.964
 2389POPC   C4B32398  34.024  36.154   7.664
 2390POPC   NC332399  28.336   9.776   9.464
 2390POPC   PO432400  28.320   9.788   9.164
 2390POPC   GL132401  28.371   9.727   8.864
 2390POPC   GL232402  28.272   9.746   8.864
 2390POPC   C1A32403  28.339   9.791   8.564
 2390POPC   D2A32404  28.413   9.765   8.264
 2390POPC   C3A32405  28.357   9.724   7.964
 2390POPC   C4A32406  28.369   9.760   7.664
 2390POPC   C1B32407  28.169   9.631   8.564
 2390POPC   C2B32408  28.092   9.707   8.264
 2390POPC   C3B32409  28.121   9.640   7.964
 2390POPC   C4B32410  28.113   9.667   7.664
 2391POPC   NC332411   4.346  15.201   9.464
 2391POPC   PO432412   4.350  15.203   9.164
 2391POPC   GL132413   4.308  15.197   8.864
 2391POPC   GL232414   4.364  15.009   8.864
 2391POPC   C1A32415   4.292  15.178   8.564
 2391POPC   D2A32416   4.359  15.212   8.264
 2391POPC   C3A32417   4.304  15.170   7.964
 2391POPC   C4A32418   4.307  15.134   7.664
 2391POPC   C1B32419   4.339  14.942   8.564
 2391POPC   C2B32420   4.345  14.885   8.264
 2391POPC   C3B32421   4.384  14.960   7.964
 2391POPC   C4B32422   4.362  14.939   7.664
 2392POPC   NC332423   3.510   3.574   9.464
 2392POPC   PO432424   3.564   3.494   9.164
 2392POPC   GL132425   3.587   3.551   8.864
 2392POPC   GL232426   3.370   3.558   8.864
 2392POPC   C1A32427   3.518   3.522   8.564
 2392POPC   D2A32428   3.583   3.526   8.264
 2392POPC   C3A32429   3.564   3.537   7.964
 2392POPC   C4A32430   3.544   3.565   7.664
 2392POPC   C1B32431   3.278   3.579   8.564
 2392POPC   C2B32432   3.247   3.602   8.264
 2392POPC   C3B32433   3.306   3.544   7.964
 2392POPC   C4B32434   3.339   3.583   7.664
 2393POPC   NC332435  24.502  15.172   9.464
 2393POPC   PO432436  24.536  15.216   9.164
 2393POPC   GL132437  24.498  15.141   8.864
 2393POPC   GL232438  24.593  15.107   8.864
 2393POPC   C1A32439  24.466  15.193   8.564
 2393POPC   D2A32440  24.492  15.132   8.264
 2393POPC   C3A32441  24.444  15.209   7.964
 2393POPC   C4A32442  24.520  15.196   7.664
 2393POPC   C1B32443  24.694  15.002   8.564
 2393POPC   C2B32444  24.683  15.007   8.264
 2393POPC   C3B32445  24.656  14.996   7.964
 2393POPC   C4B32446  24.700  14.980   7.664
 2394POPC   NC332447  42.362  12.050   9.464
 2394POPC   PO432448  42.368  12.094   9.164
 2394POPC   GL132449  42.314  12.031   8.864
 2394POPC   GL232450  42.376  11.973   8.864
 2394POPC   C1A32451  42.379  12.064   8.564
 2394POPC   D2A32452  42.287  12.125   8.264
 2394POPC   C3A32453  42.320  12.104   7.964
 2394POPC   C4A32454  42.344  12.097   7.664
 2394POPC   C1B32455  42.357  11.866   8.564
 2394POPC   C2B32456  42.362  11.858   8.264
 2394POPC   C3B32457  42.414  11.799   7.964
 2394POPC   C4B32458  42.412  11.858   7.664
 2395POPC   NC332459  14.411   4.335   9.464
 2395POPC   PO432460  14.396   4.299   9.164
 2395POPC   GL132461  14.404   4.272   8.864
 2395POPC   GL232462  14.242   4.312   8.864
 2395POPC   C1A32463  14.428   4.337   8.564
 2395POPC   D2A32464  14.423   4.335   8.264
 2395POPC   C3A32465  14.392   4.281   7.964
 2395POPC   C4A32466  14.419   4.346   7.664
 2395POPC   C1B32467  14.163   4.359   8.564
 2395POPC   C2B32468  14.144   4.402   8.264
 2395POPC   C3B32469  14.137   4.342   7.964
 2395POPC   C4B32470  14.202   4.358   7.664
 2396POPC   NC332471  25.260  26.019   9.464
 2396POPC   PO432472  25.294  26.065   9.164
 2396POPC   GL132473  25.286  26.060   8.864
 2396POPC   GL232474  25.335  25.948   8.864
 2396POPC   C1A32475  25.287  26.015   8.564
 2396POPC   D2A32476  25.230  26.083   8.264
 2396POPC   C3A32477  25.299  26.066   7.964
 2396POPC   C4A32478  25.259  26.042   7.664
 2396POPC   C1B32479  25.302  25.757   8.564
 2396POPC   C2B32480  25.356  25.854   8.264
 2396POPC   C3B32481  25.383  25.822   7.964
 2396POPC   C4B32482  25.310  25.777   7.664
 2397POPC   NC332483  10.500  32.273   9.464
 2397POPC   PO432484  10.534  32.284   9.164
 2397POPC   GL132485  10.522  32.288   8.864
 2397POPC   GL232486  10.491  32.356   8.864
 2397POPC   C1A32487  10.484  32.290   8.564
 2397POPC   D2A32488  10.561  32.244   8.264
 2397POPC   C3A32489  10.511  32.290   7.964
 2397POPC   C4A32490  10.478  32.229   7.664
 2397POPC   C1B32491  10.410  32.456   8.564
 2397POPC   C2B32492  10.393  32.484   8.264
 2397POPC   C3B32493  10.408  32.462   7.964
 2397POPC   C4B32494  10.411  32.519   7.664
 2398POPC   NC332495  27.559  17.462   9.464
 2398POPC   PO432496  27.632  17.543   9.164
 2398POPC   GL132497  27.601  17.553   8.864
 2398POPC   GL232498  27.521  17.437   8.864
 2398POPC   C1A32499  27.616  17.470   8.564
 2398POPC   D2A32500  27.600  17.503   8.264
 2398POPC   C3A32501  27.558  17.473   7.964
 2398POPC   C4A32502  27.632  17.530   7.664
 2398POPC   C1B32503  27.469  17.322   8.564
 2398POPC   C2B32504  27.465  17.231   8.264
 2398POPC   C3B32505  27.548  17.263   7.964
 2398POPC   C4B32506  27.546  17.226   7.664
 2399POPC   NC332507  19.062  25.297   9.464
 2399POPC   PO432508  19.102  25.290   9.164
 2399POPC   GL132509  19.108  25.221   8.864
 2399POPC   GL232510  18.928  25.380   8.864
 2399POPC   C1A32511  19.089  25.301   8.564
 2399POPC   D2A32512  19.072  25.311   8.264
 2399POPC   C3A32513  19.036  25.278   7.964
 2399POPC   C4A32514  19.091  25.301   7.664
 2399POPC   C1B32515  18.862  25.465   8.564
 2399POPC   C2B32516  18.919  25.400   8.264
 2399POPC   C3B32517  18.924  25.418   7.964
 2399POPC   C4B32518  18.938  25.434   7.664
 2400POPC   NC332519  22.984  12.028   9.464
 2400POPC   PO432520  22.955  12.081   9.164
 2400POPC   GL132521  22.944  12.121   8.864
 2400POPC   GL232522  22.874  12.201   8.864
 2400POPC   C1A32523  22.922  12.028   8.564
 2400POPC   D2A32524  22.930  12.084   8.264
 2400POPC   C3A32525  22.890  12.036   7.964
 2400POPC   C4A32526  22.981  12.047   7.664
 2400POPC   C1B32527  22.745  12.252   8.564
 2400POPC   C2B32528  22.775  12.260   8.264
 2400POPC   C3B32529  22.832  12.325   7.964
 2400POPC   C4B32530  22.794  12.320   7.664
 2401POPC   NC332531  34.530  36.923   9.464
 2401POPC   PO432532  34.553  36.890   9.164
 2401POPC   GL132533  34.567  36.921   8.864
 2401POPC   GL232534  34.668  36.978   8.864
 2401POPC   C1A32535  34.583  36.860   8.564
 2401POPC   D2A32536  34.535  36.948   8.264
 2401POPC   C3A32537  34.532  36.860   7.964
 2401POPC   C4A32538  34.574  36.860   7.664
 2401POPC   C1B32539  34.753  37.107   8.564
 2401POPC   C2B32540  34.766  37.069   8.264
 2401POPC   C3B32541  34.723  37.022   7.964
 2401POPC   C4B32542  34.810  37.016   7.664
 2402POPC   NC332543  28.413  30.648   9.464
 2402POPC   PO432544  28.376  30.713   9.164
 2402POPC   GL132545  28.363  30.649   8.864
 2402POPC   GL232546  28.408  30.611   8.864
 2402POPC   C1A32547  28.361  30.654   8.564
 2402POPC   D2A32548  28.409  30.744   8.264
 2402POPC   C3A32549  28.375  30.676   7.964
 2402POPC   C4A32550  28.333  30.707   7.664
 2402POPC   C1B32551  28.396  30.426   8.564
 2402POPC   C2B32552  28.414  30.490   8.264
 2402POPC   C3B32553  28.384  30.446   7.964
 2402POPC   C4B32554  28.402  30.426   7.664
 2403POPC   NC332555  16.757  33.013   9.464
 2403POPC   PO432556  16.728  33.057   9.164
 2403POPC   GL132557  16.777  32.981   8.864
 2403POPC   GL232558  16.677  32.947   8.864
 2403POPC   C1A32559  16.689  33.057   8.564
 2403POPC   D2A32560  16.733  33.042   8.264
 2403POPC   C3A32561  16.762  33.021   7.964
 2403POPC   C4A32562  16.735  32.988   7.664
 2403POPC   C1B32563  16.531  32.845   8.564
 2403POPC   C2B32564  16.537  32.902   8.264
 2403POPC   C3B32565  16.591  32.899   7.964
 2403POPC   C4B32566  16.517  32.882   7.664
 2404POPC   NC332567  15.228  14.434   9.464
 2404POPC   PO432568  15.147  14.413   9.164
 2404POPC   GL132569  15.187  14.393   8.864
 2404POPC   GL232570  15.281  14.431   8.864
 2404POPC   C1A32571  15.181  14.400   8.564
 2404POPC   D2A32572  15.209  14.381   8.264
 2404POPC   C3A32573  15.159  14.433   7.964
 2404POPC   C4A32574  15.138  14.384   7.664
 2404POPC   C1B32575  15.406  14.386   8.564
 2404POPC   C2B32576  15.479  14.376   8.264
 2404POPC   C3B32577  15.464  14.449   7.964
 2404POPC   C4B32578  15.380  14.361   7.664
 2405POPC   NC332579   9.698  25.287   9.464
 2405POPC   PO432580   9.798  25.252   9.164
 2405POPC   GL132581   9.783  25.286   8.864
 2405POPC   GL232582   9.707  25.438   8.864
 2405POPC   C1A32583   9.752  25.306   8.564
 2405POPC   D2A32584   9.763  25.272   8.264
 2405POPC   C3A32585   9.744  25.247   7.964
 2405POPC   C4A32586   9.761  25.268   7.664
 2405POPC   C1B32587   9.761  25.545   8.564
 2405POPC   C2B32588   9.728  25.518   8.264
 2405POPC   C3B32589   9.684  25.494   7.964
 2405POPC   C4B32590   9.734  25.486   7.664
 2406POPC   NC332591   2.740  21.421   9.464
 2406POPC   PO432592   2.763  21.350   9.164
 2406POPC   GL132593   2.757  21.396   8.864
 2406POPC   GL232594   2.615  21.299   8.864
 2406POPC   C1A32595   2.749  21.367   8.564
 2406POPC   D2A32596   2.725  21.350   8.264
 2406POPC   C3A32597   2.805  21.386   7.964
 2406POPC   C4A32598   2.744  21.404   7.664
 2406POPC   C1B32599   2.537  21.261   8.564
 2406POPC   C2B32600   2.502  21.308   8.264
 2406POPC   C3B32601   2.499  21.257   7.964
 2406POPC   C4B32602   2.547  21.304   7.664
 2407POPC   NC332603  39.243   1.998   9.464
 2407POPC   PO432604  39.267   2.006   9.164
 2407POPC   GL132605  39.187   1.959   8.864
 2407POPC   GL232606  39.252   1.888   8.864
 2407POPC   C1A32607  39.239   2.026   8.564
 2407POPC   D2A32608  39.191   2.007   8.264
 2407POPC   C3A32609  39.182   2.037   7.964
 2407POPC   C4A32610  39.211   2.011   7.664
 2407POPC   C1B32611  39.385   1.772   8.564
 2407POPC   C2B32612  39.396   1.767   8.264
 2407POPC   C3B32613  39.388   1.814   7.964
 2407POPC   C4B32614  39.339   1.776   7.664
 2408POPC   NC332615  26.808  29.886   9.464
 2408POPC   PO432616  26.805  29.951   9.164
 2408POPC   GL132617  26.798  29.898   8.864
 2408POPC   GL232618  26.760  29.848   8.864
 2408POPC   C1A32619  26.828  29.928   8.564
 2408POPC   D2A32620  26.810  29.962   8.264
 2408POPC   C3A32621  26.854  29.911   7.964
 2408POPC   C4A32622  26.782  29.887   7.664
 2408POPC   C1B32623  26.676  29.679   8.564
 2408POPC   C2B32624  26.668  29.676   8.264
 2408POPC   C3B32625  26.702  29.722   7.964
 2408POPC   C4B32626  26.702  29.704   7.664
 2409POPC   NC332627   1.943  32.984   9.464
 2409POPC   PO432628   2.021  32.981   9.164
 2409POPC   GL132629   1.993  33.061   8.864
 2409POPC   GL232630   1.885  32.996   8.864
 2409POPC   C1A32631   2.022  33.008   8.564
 2409POPC   D2A32632   1.971  32.983   8.264
 2409POPC   C3A32633   1.943  33.029   7.964
 2409POPC   C4A32634   1.943  33.064   7.664
 2409POPC   C1B32635   1.757  32.900   8.564
 2409POPC   C2B32636   1.716  32.910   8.264
 2409POPC   C3B32637   1.706  32.946   7.964
 2409POPC   C4B32638   1.797  32.905   7.664
 2410POPC   NC332639  30.660  20.644   9.464
 2410POPC   PO432640  30.647  20.614   9.164
 2410POPC   GL132641  30.678  20.591   8.864
 2410POPC   GL232642  30.796  20.550   8.864
 2410POPC   C1A32643  30.659  20.658   8.564
 2410POPC   D2A32644  30.700  20.578   8.264
 2410POPC   C3A32645  30.713  20.644   7.964
 2410POPC   C4A32646  30.744  20.613   7.664
 2410POPC   C1B32647  30.871  20.455   8.564
 2410POPC   C2B32648  30.868  20.491   8.264
 2410POPC   C3B32649  30.911  20.470   7.964
 2410POPC   C4B32650  30.954  20.493   7.664
 2411POPC   NC332651  23.710  10.512   9.464
 2411POPC   PO432652  23.721  10.507   9.164
 2411POPC   GL132653  23.731  10.495   8.864
 2411POPC   GL232654  23.801  10.479   8.864
 2411POPC   C1A32655  23.681  10.479   8.564
 2411POPC   D2A32656  23.728  10.549   8.264
 2411POPC   C3A32657  23.753  10.503   7.964
 2411POPC   C4A32658  23.727  10.562   7.664
 2411POPC   C1B32659  23.937  10.438   8.564
 2411POPC   C2B32660  24.007  10.439   8.264
 2411POPC   C3B32661  24.007  10.506   7.964
 2411POPC   C4B32662  24.000  10.470   7.664
 2412POPC   NC332663  23.678  15.953   9.464
 2412POPC   PO432664  23.760  15.999   9.164
 2412POPC   GL132665  23.721  15.912   8.864
 2412POPC   GL232666  23.606  16.036   8.864
 2412POPC   C1A32667  23.715  15.962   8.564
 2412POPC   D2A32668  23.732  15.953   8.264
 2412POPC   C3A32669  23.701  15.971   7.964
 2412POPC   C4A32670  23.720  15.916   7.664
 2412POPC   C1B32671  23.492  16.109   8.564
 2412POPC   C2B32672  23.473  16.111   8.264
 2412POPC   C3B32673  23.522  16.066   7.964
 2412POPC   C4B32674  23.493  16.055   7.664
 2413POPC   NC332675  42.354  15.229   9.464
 2413POPC   PO432676  42.379  15.223   9.164
 2413POPC   GL132677  42.299  15.150   8.864
 2413POPC   GL232678  42.337  15.049   8.864
 2413POPC   C1A32679  42.335  15.135   8.564
 2413POPC   D2A32680  42.361  15.220   8.264
 2413POPC   C3A32681  42.354  15.225   7.964
 2413POPC   C4A32682  42.373  15.175   7.664
 2413POPC   C1B32683  42.372  14.940   8.564
 2413POPC   C2B32684  42.393  14.956   8.264
 2413POPC   C3B32685  42.372  14.947   7.964
 2413POPC   C4B32686  42.344  14.905   7.664
 2414POPC   NC332687   5.882  40.738   9.464
 2414POPC   PO432688   5.891  40.782   9.164
 2414POPC   GL132689   5.881  40.733   8.864
 2414POPC   GL232690   5.935  40.717   8.864
 2414POPC   C1A32691   5.905  40.776   8.564
 2414POPC   D2A32692   5.910  40.819   8.264
 2414POPC   C3A32693   5.874  40.744   7.964
 2414POPC   C4A32694   5.844  40.820   7.664
 2414POPC   C1B32695   5.975  40.543   8.564
 2414POPC   C2B32696   5.981  40.523   8.264
 2414POPC   C3B32697   5.928  40.515   7.964
 2414POPC   C4B32698   5.928  40.601   7.664
 2415POPC   NC332699   7.430  10.574   9.464
 2415POPC   PO432700   7.375  10.522   9.164
 2415POPC   GL132701   7.464  10.523   8.864
 2415POPC   GL232702   7.306  10.592   8.864
 2415POPC   C1A32703   7.435  10.532   8.564
 2415POPC   D2A32704   7.381  10.515   8.264
 2415POPC   C3A32705   7.405  10.554   7.964
 2415POPC   C4A32706   7.374  10.564   7.664
 2415POPC   C1B32707   7.270  10.678   8.564
 2415POPC   C2B32708   7.302  10.731   8.264
 2415POPC   C3B32709   7.255  10.678   7.964
 2415POPC   C4B32710   7.258  10.773   7.664
 2416POPC   NC332711  22.953  33.013   9.464
 2416POPC   PO432712  22.908  33.070   9.164
 2416POPC   GL132713  22.907  33.058   8.864
 2416POPC   GL232714  22.913  32.945   8.864
 2416POPC   C1A32715  22.931  33.014   8.564
 2416POPC   D2A32716  22.893  32.992   8.264
 2416POPC   C3A32717  22.914  33.030   7.964
 2416POPC   C4A32718  22.948  32.994   7.664
 2416POPC   C1B32719  22.929  32.805   8.564
 2416POPC   C2B32720  22.890  32.823   8.264
 2416POPC   C3B32721  22.910  32.804   7.964
 2416POPC   C4B32722  22.926  32.757   7.664
 2417POPC   NC332723  18.243  17.526   9.464
 2417POPC   PO432724  18.243  17.501   9.164
 2417POPC   GL132725  18.264  17.537   8.864
 2417POPC   GL232726  18.435  17.500   8.864
 2417POPC   C1A32727  18.305  17.540   8.564
 2417POPC   D2A32728  18.266  17.519   8.264
 2417POPC   C3A32729  18.250  17.459   7.964
 2417POPC   C4A32730  18.281  17.518   7.664
 2417POPC   C1B32731  18.486  17.406   8.564
 2417POPC   C2B32732  18.489  17.457   8.264
 2417POPC   C3B32733  18.516  17.451   7.964
 2417POPC   C4B32734  18.543  17.423   7.664
 2418POPC   NC332735  23.687  17.491   9.464
 2418POPC   PO432736  23.736  17.529   9.164
 2418POPC   GL132737  23.727  17.467   8.864
 2418POPC   GL232738  23.815  17.550   8.864
 2418POPC   C1A32739  23.698  17.458   8.564
 2418POPC   D2A32740  23.763  17.461   8.264
 2418POPC   C3A32741  23.754  17.485   7.964
 2418POPC   C4A32742  23.684  17.544   7.664
 2418POPC   C1B32743  23.913  17.664   8.564
 2418POPC   C2B32744  23.956  17.654   8.264
 2418POPC   C3B32745  23.891  17.653   7.964
 2418POPC   C4B32746  23.918  17.705   7.664
 2419POPC   NC332747  23.682  16.744   9.464
 2419POPC   PO432748  23.697  16.686   9.164
 2419POPC   GL132749  23.719  16.698   8.864
 2419POPC   GL232750  23.679  16.891   8.864
 2419POPC   C1A32751  23.751  16.757   8.564
 2419POPC   D2A32752  23.719  16.753   8.264
 2419POPC   C3A32753  23.674  16.773   7.964
 2419POPC   C4A32754  23.762  16.747   7.664
 2419POPC   C1B32755  23.572  16.915   8.564
 2419POPC   C2B32756  23.610  16.929   8.264
 2419POPC   C3B32757  23.580  16.970   7.964
 2419POPC   C4B32758  23.615  16.928   7.664
 2420POPC   NC332759  12.104  11.330   9.464
 2420POPC   PO432760  12.067  11.347   9.164
 2420POPC   GL132761  12.026  11.334   8.864
 2420POPC   GL232762  11.957  11.262   8.864
 2420POPC   C1A32763  12.060  11.337   8.564
 2420POPC   D2A32764  12.067  11.291   8.264
 2420POPC   C3A32765  12.042  11.320   7.964
 2420POPC   C4A32766  12.038  11.291   7.664
 2420POPC   C1B32767  11.864  11.240   8.564
 2420POPC   C2B32768  11.830  11.238   8.264
 2420POPC   C3B32769  11.874  11.235   7.964
 2420POPC   C4B32770  11.821  11.274   7.664
 2421POPC   NC332771   1.968  19.009   9.464
 2421POPC   PO432772   1.966  19.059   9.164
 2421POPC   GL132773   1.970  19.041   8.864
 2421POPC   GL232774   2.043  18.956   8.864
 2421POPC   C1A32775   2.029  19.011   8.564
 2421POPC   D2A32776   2.001  19.074   8.264
 2421POPC   C3A32777   1.982  19.068   7.964
 2421POPC   C4A32778   2.034  19.028   7.664
 2421POPC   C1B32779   2.028  18.828   8.564
 2421POPC   C2B32780   2.017  18.849   8.264
 2421POPC   C3B32781   2.018  18.761   7.964
 2421POPC   C4B32782   1.997  18.761   7.664
 2422POPC   NC332783   1.191  33.045   9.464
 2422POPC   PO432784   1.252  33.031   9.164
 2422POPC   GL132785   1.215  33.015   8.864
 2422POPC   GL232786   1.062  33.063   8.864
 2422POPC   C1A32787   1.244  33.030   8.564
 2422POPC   D2A32788   1.166  32.983   8.264
 2422POPC   C3A32789   1.204  33.045   7.964
 2422POPC   C4A32790   1.225  33.015   7.664
 2422POPC   C1B32791   0.946  33.124   8.564
 2422POPC   C2B32792   0.992  33.113   8.264
 2422POPC   C3B32793   0.956  33.104   7.964
 2422POPC   C4B32794   1.015  33.100   7.664
 2423POPC   NC332795  12.105  21.344   9.464
 2423POPC   PO432796  12.087  21.412   9.164
 2423POPC   GL132797  12.032  21.413   8.864
 2423POPC   GL232798  12.007  21.279   8.864
 2423POPC   C1A32799  12.051  21.360   8.564
 2423POPC   D2A32800  12.043  21.344   8.264
 2423POPC   C3A32801  12.078  21.397   7.964
 2423POPC   C4A32802  12.123  21.365   7.664
 2423POPC   C1B32803  11.849  21.273   8.564
 2423POPC   C2B32804  11.860  21.243   8.264
 2423POPC   C3B32805  11.821  21.276   7.964
 2423POPC   C4B32806  11.828  21.267   7.664
 2424POPC   NC332807   3.564  36.891   9.464
 2424POPC   PO432808   3.572  36.906   9.164
 2424POPC   GL132809   3.504  36.868   8.864
 2424POPC   GL232810   3.621  36.802   8.864
 2424POPC   C1A32811   3.591  36.888   8.564
 2424POPC   D2A32812   3.548  36.897   8.264
 2424POPC   C3A32813   3.591  36.914   7.964
 2424POPC   C4A32814   3.534  36.923   7.664
 2424POPC   C1B32815   3.643  36.629   8.564
 2424POPC   C2B32816   3.662  36.667   8.264
 2424POPC   C3B32817   3.631  36.666   7.964
 2424POPC   C4B32818   3.597  36.683   7.664
 2425POPC   NC332819  32.264   6.673   9.464
 2425POPC   PO432820  32.223   6.665   9.164
 2425POPC   GL132821  32.225   6.663   8.864
 2425POPC   GL232822  32.386   6.775   8.864
 2425POPC   C1A32823  32.286   6.689   8.564
 2425POPC   D2A32824  32.283   6.644   8.264
 2425POPC   C3A32825  32.291   6.676   7.964
 2425POPC   C4A32826  32.296   6.620   7.664
 2425POPC   C1B32827  32.471   6.770   8.564
 2425POPC   C2B32828  32.487   6.774   8.264
 2425POPC   C3B32829  32.485   6.842   7.964
 2425POPC   C4B32830  32.457   6.851   7.664
 2426POPC   NC332831  34.598   7.451   9.464
 2426POPC   PO432832  34.575   7.458   9.164
 2426POPC   GL132833  34.586   7.385   8.864
 2426POPC   GL232834  34.674   7.545   8.864
 2426POPC   C1A32835  34.601   7.407   8.564
 2426POPC   D2A32836  34.609   7.421   8.264
 2426POPC   C3A32837  34.599   7.420   7.964
 2426POPC   C4A32838  34.616   7.443   7.664
 2426POPC   C1B32839  34.706   7.619   8.564
 2426POPC   C2B32840  34.720   7.664   8.264
 2426POPC   C3B32841  34.724   7.665   7.964
 2426POPC   C4B32842  34.687   7.603   7.664
 2427POPC   NC332843  36.161  32.976   9.464
 2427POPC   PO432844  36.163  33.052   9.164
 2427POPC   GL132845  36.090  33.036   8.864
 2427POPC   GL232846  36.275  33.066   8.864
 2427POPC   C1A32847  36.089  33.044   8.564
 2427POPC   D2A32848  36.163  33.010   8.264
 2427POPC   C3A32849  36.152  33.037   7.964
 2427POPC   C4A32850  36.103  33.042   7.664
 2427POPC   C1B32851  36.388  33.031   8.564
 2427POPC   C2B32852  36.333  33.037   8.264
 2427POPC   C3B32853  36.381  33.052   7.964
 2427POPC   C4B32854  36.332  33.061   7.664
 2428POPC   NC332855  43.064   6.639   9.464
 2428POPC   PO432856  43.105   6.603   9.164
 2428POPC   GL132857  43.091   6.683   8.864
 2428POPC   GL232858  43.069   6.580   8.864
 2428POPC   C1A32859  43.135   6.665   8.564
 2428POPC   D2A32860  43.084   6.670   8.264
 2428POPC   C3A32861  43.087   6.638   7.964
 2428POPC   C4A32862  43.156   6.670   7.664
 2428POPC   C1B32863  42.957   6.490   8.564
 2428POPC   C2B32864  42.935   6.493   8.264
 2428POPC   C3B32865  42.950   6.463   7.964
 2428POPC   C4B32866  42.952   6.518   7.664
 2429POPC   NC332867  19.040  20.615   9.464
 2429POPC   PO432868  19.024  20.655   9.164
 2429POPC   GL132869  19.039  20.635   8.864
 2429POPC   GL232870  19.152  20.735   8.864
 2429POPC   C1A32871  19.053  20.576   8.564
 2429POPC   D2A32872  19.038  20.630   8.264
 2429POPC   C3A32873  19.055  20.630   7.964
 2429POPC   C4A32874  19.044  20.636   7.664
 2429POPC   C1B32875  19.123  20.843   8.564
 2429POPC   C2B32876  19.201  20.873   8.264
 2429POPC   C3B32877  19.187  20.878   7.964
 2429POPC   C4B32878  19.189  20.823   7.664
 2430POPC   NC332879  35.331  13.614   9.464
 2430POPC   PO432880  35.351  13.621   9.164
 2430POPC   GL132881  35.332  13.646   8.864
 2430POPC   GL232882  35.286  13.561   8.864
 2430POPC   C1A32883  35.321  13.662   8.564
 2430POPC   D2A32884  35.348  13.614   8.264
 2430POPC   C3A32885  35.382  13.656   7.964
 2430POPC   C4A32886  35.385  13.602   7.664
 2430POPC   C1B32887  35.134  13.451   8.564
 2430POPC   C2B32888  35.154  13.428   8.264
 2430POPC   C3B32889  35.118  13.423   7.964
 2430POPC   C4B32890  35.154  13.473   7.664
 2431POPC   NC332891  41.576  23.718   9.464
 2431POPC   PO432892  41.518  23.670   9.164
 2431POPC   GL132893  41.520  23.743   8.864
 2431POPC   GL232894  41.630  23.770   8.864
 2431POPC   C1A32895  41.533  23.733   8.564
 2431POPC   D2A32896  41.557  23.750   8.264
 2431POPC   C3A32897  41.551  23.718   7.964
 2431POPC   C4A32898  41.587  23.712   7.664
 2431POPC   C1B32899  41.769  23.894   8.564
 2431POPC   C2B32900  41.770  23.898   8.264
 2431POPC   C3B32901  41.739  23.928   7.964
 2431POPC   C4B32902  41.737  23.909   7.664
 2432POPC   NC332903  13.628  30.733   9.464
 2432POPC   PO432904  13.627  30.707   9.164
 2432POPC   GL132905  13.624  30.675   8.864
 2432POPC   GL232906  13.506  30.756   8.864
 2432POPC   C1A32907  13.648  30.731   8.564
 2432POPC   D2A32908  13.648  30.696   8.264
 2432POPC   C3A32909  13.666  30.730   7.964
 2432POPC   C4A32910  13.621  30.673   7.664
 2432POPC   C1B32911  13.368  30.829   8.564
 2432POPC   C2B32912  13.417  30.817   8.264
 2432POPC   C3B32913  13.414  30.760   7.964
 2432POPC   C4B32914  13.401  30.826   7.664
 2433POPC   NC332915   1.168   8.926   9.464
 2433POPC   PO432916   1.193   8.967   9.164
 2433POPC   GL132917   1.190   9.022   8.864
 2433POPC   GL232918   1.121   9.004   8.864
 2433POPC   C1A32919   1.213   8.933   8.564
 2433POPC   D2A32920   1.257   8.959   8.264
 2433POPC   C3A32921   1.168   9.022   7.964
 2433POPC   C4A32922   1.212   8.954   7.664
 2433POPC   C1B32923   0.984   9.034   8.564
 2433POPC   C2B32924   0.926   8.948   8.264
 2433POPC   C3B32925   0.949   8.963   7.964
 2433POPC   C4B32926   0.957   8.997   7.664
 2434POPC   NC332927  39.976  33.848   9.464
 2434POPC   PO432928  40.013  33.814   9.164
 2434POPC   GL132929  40.030  33.824   8.864
 2434POPC   GL232930  39.954  33.689   8.864
 2434POPC   C1A32931  39.985  33.823   8.564
 2434POPC   D2A32932  40.010  33.778   8.264
 2434POPC   C3A32933  39.969  33.824   7.964
 2434POPC   C4A32934  39.995  33.819   7.664
 2434POPC   C1B32935  39.836  33.560   8.564
 2434POPC   C2B32936  39.816  33.560   8.264
 2434POPC   C3B32937  39.893  33.560   7.964
 2434POPC   C4B32938  39.878  33.608   7.664
 2435POPC   NC332939   2.815   5.819   9.464
 2435POPC   PO432940   2.751   5.833   9.164
 2435POPC   GL132941   2.774   5.827   8.864
 2435POPC   GL232942   2.610   5.797   8.864
 2435POPC   C1A32943   2.800   5.902   8.564
 2435POPC   D2A32944   2.781   5.862   8.264
 2435POPC   C3A32945   2.762   5.898   7.964
 2435POPC   C4A32946   2.754   5.884   7.664
 2435POPC   C1B32947   2.539   5.791   8.564
 2435POPC   C2B32948   2.510   5.810   8.264
 2435POPC   C3B32949   2.508   5.777   7.964
 2435POPC   C4B32950   2.486   5.860   7.664
 2436POPC   NC332951  26.839  43.854   9.464
 2436POPC   PO432952  26.782  43.885   9.164
 2436POPC   GL132953  26.802  43.913   8.864
 2436POPC   GL232954  26.874  43.785   8.864
 2436POPC   C1A32955  26.850  43.888   8.564
 2436POPC   D2A32956  26.836  43.888   8.264
 2436POPC   C3A32957  26.814  43.877   7.964
 2436POPC   C4A32958  26.863  43.869   7.664
 2436POPC   C1B32959  26.959  43.708   8.564
 2436POPC   C2B32960  27.042  43.763   8.264
 2436POPC   C3B32961  26.960  43.696   7.964
 2436POPC   C4B32962  26.982  43.742   7.664
 2437POPC   NC332963   7.406  19.787   9.464
 2437POPC   PO432964   7.439  19.884   9.164
 2437POPC   GL132965   7.384  19.862   8.864
 2437POPC   GL232966   7.443  19.701   8.864
 2437POPC   C1A32967   7.396  19.806   8.564
 2437POPC   D2A32968   7.405  19.841   8.264
 2437POPC   C3A32969   7.445  19.806   7.964
 2437POPC   C4A32970   7.399  19.821   7.664
 2437POPC   C1B32971   7.503  19.595   8.564
 2437POPC   C2B32972   7.592  19.657   8.264
 2437POPC   C3B32973   7.529  19.625   7.964
 2437POPC   C4B32974   7.586  19.574   7.664
 2438POPC   NC332975  31.502  16.778   9.464
 2438POPC   PO432976  31.464  16.712   9.164
 2438POPC   GL132977  31.462  16.712   8.864
 2438POPC   GL232978  31.582  16.744   8.864
 2438POPC   C1A32979  31.475  16.764   8.564
 2438POPC   D2A32980  31.481  16.739   8.264
 2438POPC   C3A32981  31.488  16.708   7.964
 2438POPC   C4A32982  31.487  16.780   7.664
 2438POPC   C1B32983  31.729  16.716   8.564
 2438POPC   C2B32984  31.710  16.740   8.264
 2438POPC   C3B32985  31.687  16.765   7.964
 2438POPC   C4B32986  31.745  16.740   7.664
 2439POPC   NC332987   2.721  28.389   9.464
 2439POPC   PO432988   2.787  28.410   9.164
 2439POPC   GL132989   2.789  28.395   8.864
 2439POPC   GL232990   2.666  28.262   8.864
 2439POPC   C1A32991   2.813  28.335   8.564
 2439POPC   D2A32992   2.786  28.365   8.264
 2439POPC   C3A32993   2.798  28.397   7.964
 2439POPC   C4A32994   2.755  28.416   7.664
 2439POPC   C1B32995   2.536  28.239   8.564
 2439POPC   C2B32996   2.505  28.216   8.264
 2439POPC   C3B32997   2.533  28.282   7.964
 2439POPC   C4B32998   2.586  28.213   7.664
 2440POPC   NC332999  19.821  12.833   9.464
 2440POPC   PO433000  19.865  12.863   9.164
 2440POPC   GL133001  19.816  12.812   8.864
 2440POPC   GL233002  19.762  12.844   8.864
 2440POPC   C1A33003  19.809  12.812   8.564
 2440POPC   D2A33004  19.821  12.833   8.264
 2440POPC   C3A33005  19.796  12.846   7.964
 2440POPC   C4A33006  19.818  12.831   7.664
 2440POPC   C1B33007  19.561  12.903   8.564
 2440POPC   C2B33008  19.577  12.891   8.264
 2440POPC   C3B33009  19.559  12.893   7.964
 2440POPC   C4B33010  19.630  12.937   7.664
 2441POPC   NC333011  17.478  18.312   9.464
 2441POPC   PO433012  17.552  18.238   9.164
 2441POPC   GL133013  17.543  18.300   8.864
 2441POPC   GL233014  17.575  18.385   8.864
 2441POPC   C1A33015  17.519  18.258   8.564
 2441POPC   D2A33016  17.508  18.330   8.264
 2441POPC   C3A33017  17.509  18.327   7.964
 2441POPC   C4A33018  17.550  18.327   7.664
 2441POPC   C1B33019  17.752  18.483   8.564
 2441POPC   C2B33020  17.684  18.446   8.264
 2441POPC   C3B33021  17.692  18.443   7.964
 2441POPC   C4B33022  17.703  18.389   7.664
 2442POPC   NC333023  34.555   5.082   9.464
 2442POPC   PO433024  34.581   5.112   9.164
 2442POPC   GL133025  34.536   5.121   8.864
 2442POPC   GL233026  34.663   5.010   8.864
 2442POPC   C1A33027  34.558   5.097   8.564
 2442POPC   D2A33028  34.626   5.045   8.264
 2442POPC   C3A33029  34.532   5.058   7.964
 2442POPC   C4A33030  34.587   5.100   7.664
 2442POPC   C1B33031  34.840   4.962   8.564
 2442POPC   C2B33032  34.751   5.007   8.264
 2442POPC   C3B33033  34.806   4.981   7.964
 2442POPC   C4B33034  34.744   5.001   7.664
 2443POPC   NC333035  34.579  30.667   9.464
 2443POPC   PO433036  34.609  30.667   9.164
 2443POPC   GL133037  34.613  30.732   8.864
 2443POPC   GL233038  34.453  30.775   8.864
 2443POPC   C1A33039  34.548  30.693   8.564
 2443POPC   D2A33040  34.626  30.719   8.264
 2443POPC   C3A33041  34.564  30.732   7.964
 2443POPC   C4A33042  34.587  30.726   7.664
 2443POPC   C1B33043  34.403  30.796   8.564
 2443POPC   C2B33044  34.373  30.875   8.264
 2443POPC   C3B33045  34.323  30.781   7.964
 2443POPC   C4B33046  34.412  30.789   7.664
 2444POPC   NC333047  34.597  23.698   9.464
 2444POPC   PO433048  34.541  23.757   9.164
 2444POPC   GL133049  34.566  23.693   8.864
 2444POPC   GL233050  34.654  23.844   8.864
 2444POPC   C1A33051  34.609  23.713   8.564
 2444POPC   D2A33052  34.572  23.678   8.264
 2444POPC   C3A33053  34.551  23.719   7.964
 2444POPC   C4A33054  34.544  23.709   7.664
 2444POPC   C1B33055  34.744  23.854   8.564
 2444POPC   C2B33056  34.754  23.871   8.264
 2444POPC   C3B33057  34.798  23.886   7.964
 2444POPC   C4B33058  34.772  23.843   7.664
 2445POPC   NC333059  20.573  42.313   9.464
 2445POPC   PO433060  20.595  42.381   9.164
 2445POPC   GL133061  20.566  42.321   8.864
 2445POPC   GL233062  20.643  42.426   8.864
 2445POPC   C1A33063  20.648  42.339   8.564
 2445POPC   D2A33064  20.650  42.332   8.264
 2445POPC   C3A33065  20.598  42.332   7.964
 2445POPC   C4A33066  20.657  42.369   7.664
 2445POPC   C1B33067  20.622  42.618   8.564
 2445POPC   C2B33068  20.614  42.588   8.264
 2445POPC   C3B33069  20.622  42.599   7.964
 2445POPC   C4B33070  20.656  42.566   7.664
 2446POPC   NC333071  22.154  26.003   9.464
 2446POPC   PO433072  22.204  25.991   9.164
 2446POPC   GL133073  22.204  26.065   8.864
 2446POPC   GL233074  22.005  26.051   8.864
 2446POPC   C1A33075  22.142  26.035   8.564
 2446POPC   D2A33076  22.128  26.026   8.264
 2446POPC   C3A33077  22.123  26.063   7.964
 2446POPC   C4A33078  22.200  25.993   7.664
 2446POPC   C1B33079  21.965  26.087   8.564
 2446POPC   C2B33080  21.919  26.092   8.264
 2446POPC   C3B33081  21.870  26.075   7.964
 2446POPC   C4B33082  21.950  26.130   7.664
 2447POPC   NC333083  44.641  33.041   9.464
 2447POPC   PO433084  44.638  32.977   9.164
 2447POPC   GL133085  44.689  32.982   8.864
 2447POPC   GL233086  44.507  32.924   8.864
 2447POPC   C1A33087  44.621  33.036   8.564
 2447POPC   D2A33088  44.651  33.057   8.264
 2447POPC   C3A33089  44.678  33.004   7.964
 2447POPC   C4A33090  44.677  32.986   7.664
 2447POPC   C1B33091  44.436  32.947   8.564
 2447POPC   C2B33092  44.401  32.949   8.264
 2447POPC   C3B33093  44.463  32.902   7.964
 2447POPC   C4B33094  44.479  32.873   7.664
 2448POPC   NC333095  33.027  30.739   9.464
 2448POPC   PO433096  33.008  30.696   9.164
 2448POPC   GL133097  32.993  30.678   8.864
 2448POPC   GL233098  33.156  30.721   8.864
 2448POPC   C1A33099  33.052  30.727   8.564
 2448POPC   D2A33100  33.052  30.720   8.264
 2448POPC   C3A33101  33.041  30.674   7.964
 2448POPC   C4A33102  32.978  30.729   7.664
 2448POPC   C1B33103  33.231  30.633   8.564
 2448POPC   C2B33104  33.234  30.626   8.264
 2448POPC   C3B33105  33.269  30.649   7.964
 2448POPC   C4B33106  33.256  30.672   7.664
 2449POPC   NC333107  44.681  26.844   9.464
 2449POPC   PO433108  44.704  26.846   9.164
 2449POPC   GL133109  44.626  26.859   8.864
 2449POPC   GL233110  44.736  26.754   8.864
 2449POPC   C1A33111  44.681  26.821   8.564
 2449POPC   D2A33112  44.651  26.835   8.264
 2449POPC   C3A33113  44.695  26.836   7.964
 2449POPC   C4A33114  44.678  26.797   7.664
 2449POPC   C1B33115  44.845  26.598   8.564
 2449POPC   C2B33116  44.862  26.641   8.264
 2449POPC   C3B33117  44.821  26.681   7.964
 2449POPC   C4B33118  44.856  26.651   7.664
 2450POPC   NC333119   3.503   1.237   9.464
 2450POPC   PO433120   3.500   1.183   9.164
 2450POPC   GL133121   3.543   1.165   8.864
 2450POPC   GL233122   3.493   1.382   8.864
 2450POPC   C1A33123   3.497   1.190   8.564
 2450POPC   D2A33124   3.573   1.216   8.264
 2450POPC   C3A33125   3.526   1.164   7.964
 2450POPC   C4A33126   3.535   1.264   7.664
 2450POPC   C1B33127   3.495   1.440   8.564
 2450POPC   C2B33128   3.490   1.490   8.264
 2450POPC   C3B33129   3.528   1.506   7.964
 2450POPC   C4B33130   3.531   1.462   7.664
 2451POPC   NC333131  29.935  23.671   9.464
 2451POPC   PO433132  29.918  23.750   9.164
 2451POPC   GL133133  29.966  23.738   8.864
 2451POPC   GL233134  30.065  23.717   8.864
 2451POPC   C1A33135  29.959  23.761   8.564
 2451POPC   D2A33136  29.897  23.703   8.264
 2451POPC   C3A33137  29.950  23.723   7.964
 2451POPC   C4A33138  29.920  23.733   7.664
 2451POPC   C1B33139  30.149  23.776   8.564
 2451POPC   C2B33140  30.129  23.783   8.264
 2451POPC   C3B33141  30.204  23.734   7.964
 2451POPC   C4B33142  30.187  23.819   7.664
 2452POPC   NC333143  32.983  12.027   9.464
 2452POPC   PO433144  32.992  12.033   9.164
 2452POPC   GL133145  33.023  12.089   8.864
 2452POPC   GL233146  33.187  12.021   8.864
 2452POPC   C1A33147  32.991  12.091   8.564
 2452POPC   D2A33148  32.975  12.041   8.264
 2452POPC   C3A33149  33.041  12.031   7.964
 2452POPC   C4A33150  32.982  12.090   7.664
 2452POPC   C1B33151  33.276  11.923   8.564
 2452POPC   C2B33152  33.202  11.964   8.264
 2452POPC   C3B33153  33.237  11.936   7.964
 2452POPC   C4B33154  33.294  11.987   7.664
 2453POPC   NC333155  11.319  33.036   9.464
 2453POPC   PO433156  11.349  33.068   9.164
 2453POPC   GL133157  11.290  33.061   8.864
 2453POPC   GL233158  11.393  33.062   8.864
 2453POPC   C1A33159  11.301  32.985   8.564
 2453POPC   D2A33160  11.291  33.006   8.264
 2453POPC   C3A33161  11.255  33.011   7.964
 2453POPC   C4A33162  11.304  33.000   7.664
 2453POPC   C1B33163  11.535  33.230   8.564
 2453POPC   C2B33164  11.480  33.133   8.264
 2453POPC   C3B33165  11.476  33.169   7.964
 2453POPC   C4B33166  11.543  33.205   7.664
 2454POPC   NC333167   9.744  40.762   9.464
 2454POPC   PO433168   9.786  40.797   9.164
 2454POPC   GL133169   9.721  40.772   8.864
 2454POPC   GL233170   9.884  40.664   8.864
 2454POPC   C1A33171   9.772  40.773   8.564
 2454POPC   D2A33172   9.782  40.805   8.264
 2454POPC   C3A33173   9.719  40.814   7.964
 2454POPC   C4A33174   9.758  40.752   7.664
 2454POPC   C1B33175   9.920  40.580   8.564
 2454POPC   C2B33176   9.981  40.577   8.264
 2454POPC   C3B33177   9.986  40.670   7.964
 2454POPC   C4B33178   9.981  40.614   7.664
 2455POPC   NC333179   8.203  39.263   9.464
 2455POPC   PO433180   8.171  39.251   9.164
 2455POPC   GL133181   8.166  39.270   8.864
 2455POPC   GL233182   8.275  39.102   8.864
 2455POPC   C1A33183   8.175  39.215   8.564
 2455POPC   D2A33184   8.186  39.232   8.264
 2455POPC   C3A33185   8.166  39.208   7.964
 2455POPC   C4A33186   8.201  39.244   7.664
 2455POPC   C1B33187   8.283  38.957   8.564
 2455POPC   C2B33188   8.285  39.006   8.264
 2455POPC   C3B33189   8.273  39.050   7.964
 2455POPC   C4B33190   8.350  38.987   7.664
 2456POPC   NC333191  23.716  29.179   9.464
 2456POPC   PO433192  23.763  29.179   9.164
 2456POPC   GL133193  23.682  29.136   8.864
 2456POPC   GL233194  23.615  29.149   8.864
 2456POPC   C1A33195  23.716  29.128   8.564
 2456POPC   D2A33196  23.718  29.172   8.264
 2456POPC   C3A33197  23.758  29.100   7.964
 2456POPC   C4A33198  23.739  29.120   7.664
 2456POPC   C1B33199  23.446  29.257   8.564
 2456POPC   C2B33200  23.516  29.227   8.264
 2456POPC   C3B33201  23.449  29.196   7.964
 2456POPC   C4B33202  23.436  29.199   7.664
 2457POPC   NC333203  30.648  19.821   9.464
 2457POPC   PO433204  30.647  19.815   9.164
 2457POPC   GL133205  30.720  19.834   8.864
 2457POPC   GL233206  30.642  19.908   8.864
 2457POPC   C1A33207  30.741  19.882   8.564
 2457POPC   D2A33208  30.694  19.807   8.264
 2457POPC   C3A33209  30.687  19.797   7.964
 2457POPC   C4A33210  30.707  19.849   7.664
 2457POPC   C1B33211  30.607  20.078   8.564
 2457POPC   C2B33212  30.552  20.036   8.264
 2457POPC   C3B33213  30.608  20.063   7.964
 2457POPC   C4B33214  30.609  20.019   7.664
 2458POPC   NC333215   7.418   7.425   9.464
 2458POPC   PO433216   7.401   7.424   9.164
 2458POPC   GL133217   7.463   7.453   8.864
 2458POPC   GL233218   7.437   7.300   8.864
 2458POPC   C1A33219   7.378   7.438   8.564
 2458POPC   D2A33220   7.385   7.422   8.264
 2458POPC   C3A33221   7.457   7.420   7.964
 2458POPC   C4A33222   7.383   7.458   7.664
 2458POPC   C1B33223   7.462   7.163   8.564
 2458POPC   C2B33224   7.476   7.165   8.264
 2458POPC   C3B33225   7.463   7.182   7.964
 2458POPC   C4B33226   7.522   7.211   7.664
 2459POPC   NC333227  13.612  15.933   9.464
 2459POPC   PO433228  13.600  15.928   9.164
 2459POPC   GL133229  13.580  15.931   8.864
 2459POPC   GL233230  13.722  16.009   8.864
 2459POPC   C1A33231  13.587  15.982   8.564
 2459POPC   D2A33232  13.648  15.974   8.264
 2459POPC   C3A33233  13.609  15.962   7.964
 2459POPC   C4A33234  13.597  15.922   7.664
 2459POPC   C1B33235  13.844  16.000   8.564
 2459POPC   C2B33236  13.836  15.993   8.264
 2459POPC   C3B33237  13.831  15.989   7.964
 2459POPC   C4B33238  13.879  15.996   7.664
 2460POPC   NC333239  40.815  37.669   9.464
 2460POPC   PO433240  40.806  37.703   9.164
 2460POPC   GL133241  40.775  37.648   8.864
 2460POPC   GL233242  40.681  37.598   8.864
 2460POPC   C1A33243  40.797  37.682   8.564
 2460POPC   D2A33244  40.802  37.690   8.264
 2460POPC   C3A33245  40.770  37.715   7.964
 2460POPC   C4A33246  40.814  37.663   7.664
 2460POPC   C1B33247  40.610  37.535   8.564
 2460POPC   C2B33248  40.650  37.540   8.264
 2460POPC   C3B33249  40.584  37.530   7.964
 2460POPC   C4B33250  40.649  37.515   7.664
 2461POPC   NC333251  22.142   6.652   9.464
 2461POPC   PO433252  22.122   6.635   9.164
 2461POPC   GL133253  22.155   6.609   8.864
 2461POPC   GL233254  22.039   6.753   8.864
 2461POPC   C1A33255  22.137   6.671   8.564
 2461POPC   D2A33256  22.124   6.664   8.264
 2461POPC   C3A33257  22.174   6.629   7.964
 2461POPC   C4A33258  22.135   6.673   7.664
 2461POPC   C1B33259  21.951   6.815   8.564
 2461POPC   C2B33260  21.937   6.772   8.264
 2461POPC   C3B33261  21.979   6.802   7.964
 2461POPC   C4B33262  21.962   6.769   7.664
 2462POPC   NC333263   4.300   8.242   9.464
 2462POPC   PO433264   4.305   8.212   9.164
 2462POPC   GL133265   4.315   8.178   8.864
 2462POPC   GL233266   4.481   8.144   8.864
 2462POPC   C1A33267   4.319   8.183   8.564
 2462POPC   D2A33268   4.302   8.200   8.264
 2462POPC   C3A33269   4.349   8.200   7.964
 2462POPC   C4A33270   4.279   8.194   7.664
 2462POPC   C1B33271   4.581   8.070   8.564
 2462POPC   C2B33272   4.530   8.091   8.264
 2462POPC   C3B33273   4.570   8.104   7.964
 2462POPC   C4B33274   4.567   8.076   7.664
 2463POPC   NC333275  11.343  38.434   9.464
 2463POPC   PO433276  11.268  38.462   9.164
 2463POPC   GL133277  11.264  38.450   8.864
 2463POPC   GL233278  11.465  38.413   8.864
 2463POPC   C1A33279  11.266  38.473   8.564
 2463POPC   D2A33280  11.344  38.425   8.264
 2463POPC   C3A33281  11.282  38.451   7.964
 2463POPC   C4A33282  11.350  38.472   7.664
 2463POPC   C1B33283  11.579  38.465   8.564
 2463POPC   C2B33284  11.557  38.479   8.264
 2463POPC   C3B33285  11.589  38.445   7.964
 2463POPC   C4B33286  11.511  38.452   7.664
 2464POPC   NC333287  16.702  23.736   9.464
 2464POPC   PO433288  16.699  23.694   9.164
 2464POPC   GL133289  16.756  23.674   8.864
 2464POPC   GL233290  16.772  23.630   8.864
 2464POPC   C1A33291  16.776  23.763   8.564
 2464POPC   D2A33292  16.766  23.697   8.264
 2464POPC   C3A33293  16.700  23.689   7.964
 2464POPC   C4A33294  16.738  23.737   7.664
 2464POPC   C1B33295  16.889  23.460   8.564
 2464POPC   C2B33296  16.908  23.463   8.264
 2464POPC   C3B33297  16.890  23.542   7.964
 2464POPC   C4B33298  16.856  23.533   7.664
 2465POPC   NC333299   2.779  43.151   9.464
 2465POPC   PO433300   2.765  43.126   9.164
 2465POPC   GL133301   2.761  43.102   8.864
 2465POPC   GL233302   2.730  43.250   8.864
 2465POPC   C1A33303   2.737  43.089   8.564
 2465POPC   D2A33304   2.792  43.147   8.264
 2465POPC   C3A33305   2.746  43.073   7.964
 2465POPC   C4A33306   2.810  43.104   7.664
 2465POPC   C1B33307   2.739  43.365   8.564
 2465POPC   C2B33308   2.729  43.353   8.264
 2465POPC   C3B33309   2.710  43.369   7.964
 2465POPC   C4B33310   2.746  43.368   7.664
 2466POPC   NC333311   0.414  31.521   9.464
 2466POPC   PO433312   0.406  31.487   9.164
 2466POPC   GL133313   0.402  31.513   8.864
 2466POPC   GL233314   0.365  31.529   8.864
 2466POPC   C1A33315   0.403  31.514   8.564
 2466POPC   D2A33316   0.406  31.432   8.264
 2466POPC   C3A33317   0.410  31.477   7.964
 2466POPC   C4A33318   0.474  31.470   7.664
 2466POPC   C1B33319   0.189  31.622   8.564
 2466POPC   C2B33320   0.167  31.609   8.264
 2466POPC   C3B33321   0.188  31.601   7.964
 2466POPC   C4B33322   0.239  31.539   7.664
 2467POPC   NC333323  11.298  12.883   9.464
 2467POPC   PO433324  11.325  12.883   9.164
 2467POPC   GL133325  11.252  12.837   8.864
 2467POPC   GL233326  11.369  12.938   8.864
 2467POPC   C1A33327  11.264  12.891   8.564
 2467POPC   D2A33328  11.273  12.811   8.264
 2467POPC   C3A33329  11.302  12.826   7.964
 2467POPC   C4A33330  11.277  12.808   7.664
 2467POPC   C1B33331  11.470  13.054   8.564
 2467POPC   C2B33332  11.508  13.030   8.264
 2467POPC   C3B33333  11.501  13.048   7.964
 2467POPC   C4B33334  11.487  13.044   7.664
 2468POPC   NC333335  13.656  16.742   9.464
 2468POPC   PO433336  13.659  16.717   9.164
 2468POPC   GL133337  13.591  16.718   8.864
 2468POPC   GL233338  13.699  16.795   8.864
 2468POPC   C1A33339  13.618  16.778   8.564
 2468POPC   D2A33340  13.655  16.772   8.264
 2468POPC   C3A33341  13.614  16.733   7.964
 2468POPC   C4A33342  13.653  16.720   7.664
 2468POPC   C1B33343  13.860  16.923   8.564
 2468POPC   C2B33344  13.873  16.848   8.264
 2468POPC   C3B33345  13.848  16.833   7.964
 2468POPC   C4B33346  13.877  16.885   7.664
 2469POPC   NC333347  29.112   8.948   9.464
 2469POPC   PO433348  29.128   8.923   9.164
 2469POPC   GL133349  29.165   8.952   8.864
 2469POPC   GL233350  29.258   8.985   8.864
 2469POPC   C1A33351  29.098   8.948   8.564
 2469POPC   D2A33352  29.147   8.954   8.264
 2469POPC   C3A33353  29.128   8.998   7.964
 2469POPC   C4A33354  29.188   9.015   7.664
 2469POPC   C1B33355  29.381   8.939   8.564
 2469POPC   C2B33356  29.389   8.961   8.264
 2469POPC   C3B33357  29.384   8.926   7.964
 2469POPC   C4B33358  29.349   8.975   7.664
 2470POPC   NC333359   1.175   5.917   9.464
 2470POPC   PO433360   1.197   5.861   9.164
 2470POPC   GL133361   1.192   5.865   8.864
 2470POPC   GL233362   1.248   5.712   8.864
 2470POPC   C1A33363   1.246   5.892   8.564
 2470POPC   D2A33364   1.262   5.918   8.264
 2470POPC   C3A33365   1.182   5.869   7.964
 2470POPC   C4A33366   1.245   5.833   7.664
 2470POPC   C1B33367   1.256   5.587   8.564
 2470POPC   C2B33368   1.233   5.589   8.264
 2470POPC   C3B33369   1.262   5.659   7.964
 2470POPC   C4B33370   1.308   5.665   7.664
 2471POPC   NC333371   0.442   7.434   9.464
 2471POPC   PO433372   0.442   7.449   9.164
 2471POPC   GL133373   0.396   7.460   8.864
 2471POPC   GL233374   0.509   7.331   8.864
 2471POPC   C1A33375   0.475   7.394   8.564
 2471POPC   D2A33376   0.402   7.459   8.264
 2471POPC   C3A33377   0.399   7.454   7.964
 2471POPC   C4A33378   0.426   7.372   7.664
 2471POPC   C1B33379   0.601   7.277   8.564
 2471POPC   C2B33380   0.636   7.243   8.264
 2471POPC   C3B33381   0.640   7.248   7.964
 2471POPC   C4B33382   0.629   7.239   7.664
 2472POPC   NC333383  10.498  10.478   9.464
 2472POPC   PO433384  10.493  10.508   9.164
 2472POPC   GL133385  10.571  10.568   8.864
 2472POPC   GL233386  10.657  10.540   8.864
 2472POPC   C1A33387  10.503  10.550   8.564
 2472POPC   D2A33388  10.528  10.522   8.264
 2472POPC   C3A33389  10.512  10.536   7.964
 2472POPC   C4A33390  10.549  10.572   7.664
 2472POPC   C1B33391  10.731  10.492   8.564
 2472POPC   C2B33392  10.747  10.487   8.264
 2472POPC   C3B33393  10.812  10.516   7.964
 2472POPC   C4B33394  10.771  10.565   7.664
 2473POPC   NC333395  33.046   0.404   9.464
 2473POPC   PO433396  32.998   0.430   9.164
 2473POPC   GL133397  33.068   0.408   8.864
 2473POPC   GL233398  32.866   0.496   8.864
 2473POPC   C1A33399  32.980   0.413   8.564
 2473POPC   D2A33400  33.007   0.391   8.264
 2473POPC   C3A33401  33.062   0.405   7.964
 2473POPC   C4A33402  32.998   0.443   7.664
 2473POPC   C1B33403  32.766   0.595   8.564
 2473POPC   C2B33404  32.805   0.568   8.264
 2473POPC   C3B33405  32.841   0.594   7.964
 2473POPC   C4B33406  32.818   0.509   7.664
 2474POPC   NC333407  33.825  33.048   9.464
 2474POPC   PO433408  33.823  33.042   9.164
 2474POPC   GL133409  33.766  33.010   8.864
 2474POPC   GL233410  33.791  33.133   8.864
 2474POPC   C1A33411  33.778  32.975   8.564
 2474POPC   D2A33412  33.808  33.067   8.264
 2474POPC   C3A33413  33.784  33.050   7.964
 2474POPC   C4A33414  33.821  33.010   7.664
 2474POPC   C1B33415  33.768  33.270   8.564
 2474POPC   C2B33416  33.772  33.316   8.264
 2474POPC   C3B33417  33.840  33.301   7.964
 2474POPC   C4B33418  33.807  33.297   7.664
 2475POPC   NC333419  16.730  25.238   9.464
 2475POPC   PO433420  16.733  25.225   9.164
 2475POPC   GL133421  16.770  25.223   8.864
 2475POPC   GL233422  16.849  25.275   8.864
 2475POPC   C1A33423  16.690  25.269   8.564
 2475POPC   D2A33424  16.778  25.237   8.264
 2475POPC   C3A33425  16.780  25.276   7.964
 2475POPC   C4A33426  16.780  25.223   7.664
 2475POPC   C1B33427  16.995  25.202   8.564
 2475POPC   C2B33428  16.957  25.226   8.264
 2475POPC   C3B33429  16.988  25.197   7.964
 2475POPC   C4B33430  16.988  25.207   7.664
 2476POPC   NC333431   1.222  41.513   9.464
 2476POPC   PO433432   1.227  41.519   9.164
 2476POPC   GL133433   1.252  41.554   8.864
 2476POPC   GL233434   1.269  41.432   8.864
 2476POPC   C1A33435   1.264  41.524   8.564
 2476POPC   D2A33436   1.253  41.602   8.264
 2476POPC   C3A33437   1.224  41.607   7.964
 2476POPC   C4A33438   1.226  41.575   7.664
 2476POPC   C1B33439   1.355  41.392   8.564
 2476POPC   C2B33440   1.312  41.312   8.264
 2476POPC   C3B33441   1.329  41.334   7.964
 2476POPC   C4B33442   1.327  41.331   7.664
 2477POPC   NC333443  33.008  35.345   9.464
 2477POPC   PO433444  32.978  35.329   9.164
 2477POPC   GL133445  33.029  35.323   8.864
 2477POPC   GL233446  33.049  35.271   8.864
 2477POPC   C1A33447  33.018  35.330   8.564
 2477POPC   D2A33448  33.040  35.325   8.264
 2477POPC   C3A33449  33.044  35.382   7.964
 2477POPC   C4A33450  33.067  35.317   7.664
 2477POPC   C1B33451  32.997  35.080   8.564
 2477POPC   C2B33452  33.006  35.069   8.264
 2477POPC   C3B33453  32.994  35.104   7.964
 2477POPC   C4B33454  32.940  35.110   7.664
 2478POPC   NC333455  25.282  11.294   9.464
 2478POPC   PO433456  25.274  11.288   9.164
 2478POPC   GL133457  25.256  11.302   8.864
 2478POPC   GL233458  25.339  11.162   8.864
 2478POPC   C1A33459  25.234  11.261   8.564
 2478POPC   D2A33460  25.279  11.281   8.264
 2478POPC   C3A33461  25.294  11.273   7.964
 2478POPC   C4A33462  25.220  11.302   7.664
 2478POPC   C1B33463  25.388  11.092   8.564
 2478POPC   C2B33464  25.413  11.146   8.264
 2478POPC   C3B33465  25.383  11.078   7.964
 2478POPC   C4B33466  25.433  11.104   7.664
 2479POPC   NC333467  33.036  36.893   9.464
 2479POPC   PO433468  32.978  36.914   9.164
 2479POPC   GL133469  32.977  36.900   8.864
 2479POPC   GL233470  33.134  36.934   8.864
 2479POPC   C1A33471  33.038  36.939   8.564
 2479POPC   D2A33472  33.013  36.915   8.264
 2479POPC   C3A33473  32.999  36.906   7.964
 2479POPC   C4A33474  33.014  36.900   7.664
 2479POPC   C1B33475  33.276  36.886   8.564
 2479POPC   C2B33476  33.315  36.898   8.264
 2479POPC   C3B33477  33.279  36.887   7.964
 2479POPC   C4B33478  33.231  36.970   7.664
 2480POPC   NC333479  33.785   2.039   9.464
 2480POPC   PO433480  33.843   2.011   9.164
 2480POPC   GL133481  33.772   2.039   8.864
 2480POPC   GL233482  33.844   2.053   8.864
 2480POPC   C1A33483  33.800   2.011   8.564
 2480POPC   D2A33484  33.841   1.967   8.264
 2480POPC   C3A33485  33.832   1.991   7.964
 2480POPC   C4A33486  33.842   1.978   7.664
 2480POPC   C1B33487  33.914   2.135   8.564
 2480POPC   C2B33488  33.932   2.225   8.264
 2480POPC   C3B33489  33.957   2.150   7.964
 2480POPC   C4B33490  33.960   2.181   7.664
 2481POPC   NC333491  44.680   5.864   9.464
 2481POPC   PO433492  44.695   5.831   9.164
 2481POPC   GL133493  44.622   5.843   8.864
 2481POPC   GL233494  44.768   5.789   8.864
 2481POPC   C1A33495  44.654   5.885   8.564
 2481POPC   D2A33496  44.652   5.850   8.264
 2481POPC   C3A33497  44.678   5.825   7.964
 2481POPC   C4A33498  44.616   5.858   7.664
 2481POPC   C1B33499  44.832   5.703   8.564
 2481POPC   C2B33500  44.801   5.667   8.264
 2481POPC   C3B33501  44.858   5.648   7.964
 2481POPC   C4B33502  44.826   5.694   7.664
 2482POPC   NC333503  29.176  37.703   9.464
 2482POPC   PO433504  29.176  37.700   9.164
 2482POPC   GL133505  29.117  37.704   8.864
 2482POPC   GL233506  29.128  37.812   8.864
 2482POPC   C1A33507  29.104  37.642   8.564
 2482POPC   D2A33508  29.191  37.642   8.264
 2482POPC   C3A33509  29.113  37.667   7.964
 2482POPC   C4A33510  29.120  37.641   7.664
 2482POPC   C1B33511  29.197  37.933   8.564
 2482POPC   C2B33512  29.134  37.885   8.264
 2482POPC   C3B33513  29.122  37.953   7.964
 2482POPC   C4B33514  29.140  37.941   7.664
 2483POPC   NC333515  19.077  19.839   9.464
 2483POPC   PO433516  19.036  19.801   9.164
 2483POPC   GL133517  19.054  19.850   8.864
 2483POPC   GL233518  19.011  19.736   8.864
 2483POPC   C1A33519  19.064  19.787   8.564
 2483POPC   D2A33520  19.022  19.875   8.264
 2483POPC   C3A33521  19.087  19.816   7.964
 2483POPC   C4A33522  19.021  19.795   7.664
 2483POPC   C1B33523  18.855  19.676   8.564
 2483POPC   C2B33524  18.869  19.700   8.264
 2483POPC   C3B33525  18.923  19.616   7.964
 2483POPC   C4B33526  18.909  19.635   7.664
 2484POPC   NC333527  43.151  19.852   9.464
 2484POPC   PO433528  43.140  19.803   9.164
 2484POPC   GL133529  43.063  19.841   8.864
 2484POPC   GL233530  43.252  19.752   8.864
 2484POPC   C1A33531  43.151  19.800   8.564
 2484POPC   D2A33532  43.117  19.843   8.264
 2484POPC   C3A33533  43.112  19.857   7.964
 2484POPC   C4A33534  43.064  19.869   7.664
 2484POPC   C1B33535  43.388  19.755   8.564
 2484POPC   C2B33536  43.363  19.703   8.264
 2484POPC   C3B33537  43.301  19.709   7.964
 2484POPC   C4B33538  43.374  19.748   7.664
 2485POPC   NC333539  12.849  33.831   9.464
 2485POPC   PO433540  12.832  33.822   9.164
 2485POPC   GL133541  12.843  33.799   8.864
 2485POPC   GL233542  12.759  33.665   8.864
 2485POPC   C1A33543  12.832  33.783   8.564
 2485POPC   D2A33544  12.828  33.760   8.264
 2485POPC   C3A33545  12.893  33.814   7.964
 2485POPC   C4A33546  12.882  33.789   7.664
 2485POPC   C1B33547  12.725  33.572   8.564
 2485POPC   C2B33548  12.718  33.612   8.264
 2485POPC   C3B33549  12.665  33.618   7.964
 2485POPC   C4B33550  12.732  33.580   7.664
 2486POPC   NC333551   3.555  38.438   9.464
 2486POPC   PO433552   3.562  38.471   9.164
 2486POPC   GL133553   3.566  38.409   8.864
 2486POPC   GL233554   3.408  38.421   8.864
 2486POPC   C1A33555   3.497  38.504   8.564
 2486POPC   D2A33556   3.583  38.412   8.264
 2486POPC   C3A33557   3.582  38.432   7.964
 2486POPC   C4A33558   3.497  38.407   7.664
 2486POPC   C1B33559   3.299  38.408   8.564
 2486POPC   C2B33560   3.272  38.482   8.264
 2486POPC   C3B33561   3.251  38.490   7.964
 2486POPC   C4B33562   3.319  38.412   7.664
 2487POPC   NC333563  38.488  32.246   9.464
 2487POPC   PO433564  38.414  32.255   9.164
 2487POPC   GL133565  38.491  32.278   8.864
 2487POPC   GL233566  38.495  32.393   8.864
 2487POPC   C1A33567  38.446  32.290   8.564
 2487POPC   D2A33568  38.425  32.223   8.264
 2487POPC   C3A33569  38.454  32.288   7.964
 2487POPC   C4A33570  38.445  32.246   7.664
 2487POPC   C1B33571  38.603  32.407   8.564
 2487POPC   C2B33572  38.555  32.471   8.264
 2487POPC   C3B33573  38.601  32.414   7.964
 2487POPC   C4B33574  38.590  32.451   7.664
 2488POPC   NC333575   3.541   0.413   9.464
 2488POPC   PO433576   3.570   0.454   9.164
 2488POPC   GL133577   3.585   0.391   8.864
 2488POPC   GL233578   3.466   0.286   8.864
 2488POPC   C1A33579   3.551   0.394   8.564
 2488POPC   D2A33580   3.507   0.439   8.264
 2488POPC   C3A33581   3.586   0.410   7.964
 2488POPC   C4A33582   3.579   0.429   7.664
 2488POPC   C1B33583   3.438   0.240   8.564
 2488POPC   C2B33584   3.446   0.228   8.264
 2488POPC   C3B33585   3.433   0.184   7.964
 2488POPC   C4B33586   3.502   0.186   7.664
 2489POPC   NC333587  12.810  21.348   9.464
 2489POPC   PO433588  12.901  21.363   9.164
 2489POPC   GL133589  12.851  21.433   8.864
 2489POPC   GL233590  12.927  21.271   8.864
 2489POPC   C1A33591  12.899  21.387   8.564
 2489POPC   D2A33592  12.816  21.340   8.264
 2489POPC   C3A33593  12.820  21.387   7.964
 2489POPC   C4A33594  12.838  21.374   7.664
 2489POPC   C1B33595  13.047  21.194   8.564
 2489POPC   C2B33596  13.017  21.281   8.264
 2489POPC   C3B33597  13.058  21.258   7.964
 2489POPC   C4B33598  13.082  21.219   7.664
 2490POPC   NC333599   6.659   2.017   9.464
 2490POPC   PO433600   6.646   2.027   9.164
 2490POPC   GL133601   6.622   1.949   8.864
 2490POPC   GL233602   6.770   1.878   8.864
 2490POPC   C1A33603   6.667   2.026   8.564
 2490POPC   D2A33604   6.676   2.023   8.264
 2490POPC   C3A33605   6.626   2.011   7.964
 2490POPC   C4A33606   6.646   1.981   7.664
 2490POPC   C1B33607   6.803   1.866   8.564
 2490POPC   C2B33608   6.808   1.790   8.264
 2490POPC   C3B33609   6.800   1.867   7.964
 2490POPC   C4B33610   6.835   1.786   7.664
 2491POPC   NC333611  34.531  41.582   9.464
 2491POPC   PO433612  34.533  41.605   9.164
 2491POPC   GL133613  34.533  41.607   8.864
 2491POPC   GL233614  34.635  41.636   8.864
 2491POPC   C1A33615  34.534  41.517   8.564
 2491POPC   D2A33616  34.534  41.574   8.264
 2491POPC   C3A33617  34.546  41.576   7.964
 2491POPC   C4A33618  34.572  41.599   7.664
 2491POPC   C1B33619  34.629  41.773   8.564
 2491POPC   C2B33620  34.696  41.799   8.264
 2491POPC   C3B33621  34.664  41.750   7.964
 2491POPC   C4B33622  34.669  41.759   7.664
 2492POPC   NC333623  21.424  14.384   9.464
 2492POPC   PO433624  21.373  14.436   9.164
 2492POPC   GL133625  21.400  14.375   8.864
 2492POPC   GL233626  21.462  14.320   8.864
 2492POPC   C1A33627  21.389  14.398   8.564
 2492POPC   D2A33628  21.411  14.426   8.264
 2492POPC   C3A33629  21.340  14.428   7.964
 2492POPC   C4A33630  21.340  14.393   7.664
 2492POPC   C1B33631  21.451  14.155   8.564
 2492POPC   C2B33632  21.438  14.206   8.264
 2492POPC   C3B33633  21.480  14.189   7.964
 2492POPC   C4B33634  21.470  14.168   7.664
 2493POPC   NC333635   4.296  36.082   9.464
 2493POPC   PO433636   4.295  36.170   9.164
 2493POPC   GL133637   4.342  36.146   8.864
 2493POPC   GL233638   4.413  36.262   8.864
 2493POPC   C1A33639   4.300  36.113   8.564
 2493POPC   D2A33640   4.338  36.175   8.264
 2493POPC   C3A33641   4.363  36.156   7.964
 2493POPC   C4A33642   4.313  36.116   7.664
 2493POPC   C1B33643   4.490  36.322   8.564
 2493POPC   C2B33644   4.477  36.365   8.264
 2493POPC   C3B33645   4.480  36.372   7.964
 2493POPC   C4B33646   4.499  36.332   7.664
 2494POPC   NC333647   7.468   6.683   9.464
 2494POPC   PO433648   7.391   6.597   9.164
 2494POPC   GL133649   7.388   6.684   8.864
 2494POPC   GL233650   7.414   6.800   8.864
 2494POPC   C1A33651   7.404   6.660   8.564
 2494POPC   D2A33652   7.414   6.690   8.264
 2494POPC   C3A33653   7.423   6.628   7.964
 2494POPC   C4A33654   7.415   6.663   7.664
 2494POPC   C1B33655   7.360   6.916   8.564
 2494POPC   C2B33656   7.313   6.897   8.264
 2494POPC   C3B33657   7.356   6.914   7.964
 2494POPC   C4B33658   7.286   6.848   7.664
 2495POPC   NC333659  38.479  37.712   9.464
 2495POPC   PO433660  38.464  37.659   9.164
 2495POPC   GL133661  38.441  37.632   8.864
 2495POPC   GL233662  38.391  37.590   8.864
 2495POPC   C1A33663  38.476  37.688   8.564
 2495POPC   D2A33664  38.481  37.712   8.264
 2495POPC   C3A33665  38.486  37.669   7.964
 2495POPC   C4A33666  38.460  37.678   7.664
 2495POPC   C1B33667  38.247  37.452   8.564
 2495POPC   C2B33668  38.297  37.518   8.264
 2495POPC   C3B33669  38.264  37.535   7.964
 2495POPC   C4B33670  38.302  37.461   7.664
 2496POPC   NC333671  28.381  12.123   9.464
 2496POPC   PO433672  28.396  12.091   9.164
 2496POPC   GL133673  28.351  12.115   8.864
 2496POPC   GL233674  28.219  12.165   8.864
 2496POPC   C1A33675  28.395  12.099   8.564
 2496POPC   D2A33676  28.325  12.081   8.264
 2496POPC   C3A33677  28.343  12.026   7.964
 2496POPC   C4A33678  28.382  12.028   7.664
 2496POPC   C1B33679  28.175  12.134   8.564
 2496POPC   C2B33680  28.160  12.176   8.264
 2496POPC   C3B33681  28.146  12.168   7.964
 2496POPC   C4B33682  28.116  12.218   7.664
 2497POPC   NC333683  37.674  30.689   9.464
 2497POPC   PO433684  37.651  30.673   9.164
 2497POPC   GL133685  37.679  30.675   8.864
 2497POPC   GL233686  37.761  30.733   8.864
 2497POPC   C1A33687  37.645  30.732   8.564
 2497POPC   D2A33688  37.671  30.693   8.264
 2497POPC   C3A33689  37.718  30.709   7.964
 2497POPC   C4A33690  37.692  30.680   7.664
 2497POPC   C1B33691  37.908  30.821   8.564
 2497POPC   C2B33692  37.953  30.759   8.264
 2497POPC   C3B33693  37.932  30.795   7.964
 2497POPC   C4B33694  37.918  30.798   7.664
 2498POPC   NC333695  31.470  21.416   9.464
 2498POPC   PO433696  31.520  21.369   9.164
 2498POPC   GL133697  31.442  21.382   8.864
 2498POPC   GL233698  31.342  21.329   8.864
 2498POPC   C1A33699  31.453  21.377   8.564
 2498POPC   D2A33700  31.452  21.386   8.264
 2498POPC   C3A33701  31.438  21.388   7.964
 2498POPC   C4A33702  31.511  21.390   7.664
 2498POPC   C1B33703  31.249  21.298   8.564
 2498POPC   C2B33704  31.278  21.311   8.264
 2498POPC   C3B33705  31.263  21.300   7.964
 2498POPC   C4B33706  31.237  21.290   7.664
 2499POPC   NC333707  40.049  18.245   9.464
 2499POPC   PO433708  39.962  18.270   9.164
 2499POPC   GL133709  40.041  18.278   8.864
 2499POPC   GL233710  40.161  18.369   8.864
 2499POPC   C1A33711  39.969  18.238   8.564
 2499POPC   D2A33712  39.978  18.239   8.264
 2499POPC   C3A33713  39.964  18.273   7.964
 2499POPC   C4A33714  40.018  18.244   7.664
 2499POPC   C1B33715  40.249  18.439   8.564
 2499POPC   C2B33716  40.269  18.356   8.264
 2499POPC   C3B33717  40.239  18.426   7.964
 2499POPC   C4B33718  40.213  18.398   7.664
 2500POPC   NC333719  37.646  15.965   9.464
 2500POPC   PO433720  37.707  15.949   9.164
 2500POPC   GL133721  37.677  15.935   8.864
 2500POPC   GL233722  37.607  15.802   8.864
 2500POPC   C1A33723  37.724  15.990   8.564
 2500POPC   D2A33724  37.684  15.954   8.264
 2500POPC   C3A33725  37.677  16.001   7.964
 2500POPC   C4A33726  37.692  15.972   7.664
 2500POPC   C1B33727  37.550  15.768   8.564
 2500POPC   C2B33728  37.566  15.732   8.264
 2500POPC   C3B33729  37.519  15.782   7.964
 2500POPC   C4B33730  37.521  15.771   7.664
 2501POPC   NC333731  44.656  26.078   9.464
 2501POPC   PO433732  44.674  26.047   9.164
 2501POPC   GL133733  44.687  26.084   8.864
 2501POPC   GL233734  44.816  26.042   8.864
 2501POPC   C1A33735  44.629  26.014   8.564
 2501POPC   D2A33736  44.695  26.032   8.264
 2501POPC   C3A33737  44.672  26.024   7.964
 2501POPC   C4A33738  44.655  26.049   7.664
 2501POPC   C1B33739  44.954  26.042   8.564
 2501POPC   C2B33740  44.881  25.976   8.264
 2501POPC   C3B33741  44.901  25.986   7.964
 2501POPC   C4B33742  44.952  26.002   7.664
 2502POPC   NC333743  40.009  42.349   9.464
 2502POPC   PO433744  40.015  42.351   9.164
 2502POPC   GL133745  39.999  42.292   8.864
 2502POPC   GL233746  39.873  42.352   8.864
 2502POPC   C1A33747  39.985  42.309   8.564
 2502POPC   D2A33748  39.971  42.334   8.264
 2502POPC   C3A33749  40.022  42.347   7.964
 2502POPC   C4A33750  39.982  42.377   7.664
 2502POPC   C1B33751  39.769  42.420   8.564
 2502POPC   C2B33752  39.769  42.434   8.264
 2502POPC   C3B33753  39.753  42.450   7.964
 2502POPC   C4B33754  39.790  42.461   7.664
 2503POPC   NC333755  38.434   2.768   9.464
 2503POPC   PO433756  38.410   2.806   9.164
 2503POPC   GL133757  38.470   2.766   8.864
 2503POPC   GL233758  38.541   2.787   8.864
 2503POPC   C1A33759  38.469   2.717   8.564
 2503POPC   D2A33760  38.504   2.815   8.264
 2503POPC   C3A33761  38.429   2.783   7.964
 2503POPC   C4A33762  38.470   2.748   7.664
 2503POPC   C1B33763  38.701   2.854   8.564
 2503POPC   C2B33764  38.636   2.875   8.264
 2503POPC   C3B33765  38.655   2.875   7.964
 2503POPC   C4B33766  38.655   2.919   7.664
 2504POPC   NC333767  25.300  15.941   9.464
 2504POPC   PO433768  25.226  15.923   9.164
 2504POPC   GL133769  25.222  15.972   8.864
 2504POPC   GL233770  25.295  16.055   8.864
 2504POPC   C1A33771  25.236  15.979   8.564
 2504POPC   D2A33772  25.216  15.984   8.264
 2504POPC   C3A33773  25.221  15.968   7.964
 2504POPC   C4A33774  25.246  15.929   7.664
 2504POPC   C1B33775  25.286  16.187   8.564
 2504POPC   C2B33776  25.240  16.204   8.264
 2504POPC   C3B33777  25.259  16.232   7.964
 2504POPC   C4B33778  25.222  16.241   7.664
 2505POPC   NC333779  27.634  22.206   9.464
 2505POPC   PO433780  27.623  22.201   9.164
 2505POPC   GL133781  27.632  22.129   8.864
 2505POPC   GL233782  27.688  22.177   8.864
 2505POPC   C1A33783  27.632  22.131   8.564
 2505POPC   D2A33784  27.583  22.122   8.264
 2505POPC   C3A33785  27.626  22.159   7.964
 2505POPC   C4A33786  27.585  22.146   7.664
 2505POPC   C1B33787  27.785  22.225   8.564
 2505POPC   C2B33788  27.870  22.197   8.264
 2505POPC   C3B33789  27.823  22.231   7.964
 2505POPC   C4B33790  27.832  22.236   7.664
 2506POPC   NC333791  36.931  14.354   9.464
 2506POPC   PO433792  36.869  14.356   9.164
 2506POPC   GL133793  36.948  14.364   8.864
 2506POPC   GL233794  36.886  14.267   8.864
 2506POPC   C1A33795  36.915  14.381   8.564
 2506POPC   D2A33796  36.933  14.453   8.264
 2506POPC   C3A33797  36.893  14.420   7.964
 2506POPC   C4A33798  36.859  14.438   7.664
 2506POPC   C1B33799  36.843  14.178   8.564
 2506POPC   C2B33800  36.898  14.201   8.264
 2506POPC   C3B33801  36.847  14.116   7.964
 2506POPC   C4B33802  36.895  14.136   7.664
 2507POPC   NC333803  18.241   1.942   9.464
 2507POPC   PO433804  18.238   1.965   9.164
 2507POPC   GL133805  18.300   2.006   8.864
 2507POPC   GL233806  18.274   2.131   8.864
 2507POPC   C1A33807  18.302   1.952   8.564
 2507POPC   D2A33808  18.277   1.942   8.264
 2507POPC   C3A33809  18.245   2.037   7.964
 2507POPC   C4A33810  18.331   2.010   7.664
 2507POPC   C1B33811  18.253   2.231   8.564
 2507POPC   C2B33812  18.220   2.250   8.264
 2507POPC   C3B33813  18.256   2.279   7.964
 2507POPC   C4B33814  18.194   2.224   7.664
 2508POPC   NC333815   8.238  33.831   9.464
 2508POPC   PO433816   8.217  33.752   9.164
 2508POPC   GL133817   8.169  33.757   8.864
 2508POPC   GL233818   8.208  33.677   8.864
 2508POPC   C1A33819   8.187  33.829   8.564
 2508POPC   D2A33820   8.175  33.836   8.264
 2508POPC   C3A33821   8.244  33.750   7.964
 2508POPC   C4A33822   8.153  33.845   7.664
 2508POPC   C1B33823   8.282  33.566   8.564
 2508POPC   C2B33824   8.293  33.610   8.264
 2508POPC   C3B33825   8.225  33.573   7.964
 2508POPC   C4B33826   8.296  33.609   7.664
 2509POPC   NC333827  31.474  34.551   9.464
 2509POPC   PO433828  31.454  34.616   9.164
 2509POPC   GL133829  31.473  34.545   8.864
 2509POPC   GL233830  31.480  34.461   8.864
 2509POPC   C1A33831  31.431  34.606   8.564
 2509POPC   D2A33832  31.425  34.575   8.264
 2509POPC   C3A33833  31.428  34.558   7.964
 2509POPC   C4A33834  31.464  34.535   7.664
 2509POPC   C1B33835  31.395  34.366   8.564
 2509POPC   C2B33836  31.425  34.298   8.264
 2509POPC   C3B33837  31.389  34.304   7.964
 2509POPC   C4B33838  31.448  34.333   7.664
 2510POPC   NC333839  12.811  42.374   9.464
 2510POPC   PO433840  12.851  42.306   9.164
 2510POPC   GL133841  12.899  42.292   8.864
 2510POPC   GL233842  12.838  42.195   8.864
 2510POPC   C1A33843  12.820  42.294   8.564
 2510POPC   D2A33844  12.861  42.375   8.264
 2510POPC   C3A33845  12.889  42.313   7.964
 2510POPC   C4A33846  12.894  42.353   7.664
 2510POPC   C1B33847  12.847  42.105   8.564
 2510POPC   C2B33848  12.858  42.104   8.264
 2510POPC   C3B33849  12.868  42.119   7.964
 2510POPC   C4B33850  12.877  42.048   7.664
 2511POPC   NC333851  43.854  16.707   9.464
 2511POPC   PO433852  43.854  16.691   9.164
 2511POPC   GL133853  43.904  16.727   8.864
 2511POPC   GL233854  43.911  16.868   8.864
 2511POPC   C1A33855  43.855  16.684   8.564
 2511POPC   D2A33856  43.866  16.750   8.264
 2511POPC   C3A33857  43.879  16.750   7.964
 2511POPC   C4A33858  43.877  16.704   7.664
 2511POPC   C1B33859  43.982  16.903   8.564
 2511POPC   C2B33860  44.058  16.966   8.264
 2511POPC   C3B33861  44.042  16.959   7.964
 2511POPC   C4B33862  44.038  16.975   7.664
 2512POPC   NC333863   5.858   4.309   9.464
 2512POPC   PO433864   5.909   4.276   9.164
 2512POPC   GL133865   5.904   4.350   8.864
 2512POPC   GL233866   5.952   4.455   8.864
 2512POPC   C1A33867   5.819   4.324   8.564
 2512POPC   D2A33868   5.885   4.308   8.264
 2512POPC   C3A33869   5.888   4.272   7.964
 2512POPC   C4A33870   5.844   4.347   7.664
 2512POPC   C1B33871   5.987   4.528   8.564
 2512POPC   C2B33872   5.994   4.538   8.264
 2512POPC   C3B33873   5.998   4.531   7.964
 2512POPC   C4B33874   6.024   4.482   7.664
 2513POPC   NC333875  10.495  22.144   9.464
 2513POPC   PO433876  10.504  22.181   9.164
 2513POPC   GL133877  10.483  22.128   8.864
 2513POPC   GL233878  10.406  22.274   8.864
 2513POPC   C1A33879  10.528  22.112   8.564
 2513POPC   D2A33880  10.551  22.153   8.264
 2513POPC   C3A33881  10.500  22.155   7.964
 2513POPC   C4A33882  10.508  22.129   7.664
 2513POPC   C1B33883  10.321  22.340   8.564
 2513POPC   C2B33884  10.330  22.296   8.264
 2513POPC   C3B33885  10.357  22.313   7.964
 2513POPC   C4B33886  10.289  22.279   7.664
 2514POPC   NC333887   2.800  26.015   9.464
 2514POPC   PO433888   2.744  26.052   9.164
 2514POPC   GL133889   2.734  26.004   8.864
 2514POPC   GL233890   2.852  26.122   8.864
 2514POPC   C1A33891   2.719  26.000   8.564
 2514POPC   D2A33892   2.760  26.043   8.264
 2514POPC   C3A33893   2.771  26.091   7.964
 2514POPC   C4A33894   2.782  25.997   7.664
 2514POPC   C1B33895   2.998  26.230   8.564
 2514POPC   C2B33896   2.938  26.187   8.264
 2514POPC   C3B33897   2.907  26.212   7.964
 2514POPC   C4B33898   2.964  26.230   7.664
 2515POPC   NC333899  29.169  26.001   9.464
 2515POPC   PO433900  29.178  25.999   9.164
 2515POPC   GL133901  29.119  26.071   8.864
 2515POPC   GL233902  29.229  26.059   8.864
 2515POPC   C1A33903  29.167  26.002   8.564
 2515POPC   D2A33904  29.175  26.002   8.264
 2515POPC   C3A33905  29.101  26.042   7.964
 2515POPC   C4A33906  29.165  26.085   7.664
 2515POPC   C1B33907  29.395  26.102   8.564
 2515POPC   C2B33908  29.417  26.194   8.264
 2515POPC   C3B33909  29.344  26.148   7.964
 2515POPC   C4B33910  29.412  26.133   7.664
 2516POPC   NC333911   2.767   2.726   9.464
 2516POPC   PO433912   2.793   2.726   9.164
 2516POPC   GL133913   2.809   2.768   8.864
 2516POPC   GL233914   2.633   2.824   8.864
 2516POPC   C1A33915   2.812   2.787   8.564
 2516POPC   D2A33916   2.774   2.787   8.264
 2516POPC   C3A33917   2.814   2.738   7.964
 2516POPC   C4A33918   2.725   2.775   7.664
 2516POPC   C1B33919   2.516   2.859   8.564
 2516POPC   C2B33920   2.509   2.785   8.264
 2516POPC   C3B33921   2.504   2.790   7.964
 2516POPC   C4B33922   2.527   2.831   7.664
 2517POPC   NC333923  29.146  18.297   9.464
 2517POPC   PO433924  29.146  18.243   9.164
 2517POPC   GL133925  29.097  18.288   8.864
 2517POPC   GL233926  29.161  18.431   8.864
 2517POPC   C1A33927  29.103  18.277   8.564
 2517POPC   D2A33928  29.131  18.329   8.264
 2517POPC   C3A33929  29.186  18.245   7.964
 2517POPC   C4A33930  29.181  18.314   7.664
 2517POPC   C1B33931  29.145  18.571   8.564
 2517POPC   C2B33932  29.069  18.513   8.264
 2517POPC   C3B33933  29.112  18.546   7.964
 2517POPC   C4B33934  29.159  18.561   7.664
 2518POPC   NC333935  24.478  14.381   9.464
 2518POPC   PO433936  24.457  14.431   9.164
 2518POPC   GL133937  24.484  14.388   8.864
 2518POPC   GL233938  24.556  14.534   8.864
 2518POPC   C1A33939  24.483  14.400   8.564
 2518POPC   D2A33940  24.513  14.366   8.264
 2518POPC   C3A33941  24.470  14.448   7.964
 2518POPC   C4A33942  24.526  14.432   7.664
 2518POPC   C1B33943  24.632  14.551   8.564
 2518POPC   C2B33944  24.688  14.605   8.264
 2518POPC   C3B33945  24.640  14.592   7.964
 2518POPC   C4B33946  24.723  14.524   7.664
 2519POPC   NC333947  21.342  40.801   9.464
 2519POPC   PO433948  21.398  40.753   9.164
 2519POPC   GL133949  21.380  40.791   8.864
 2519POPC   GL233950  21.311  40.808   8.864
 2519POPC   C1A33951  21.424  40.798   8.564
 2519POPC   D2A33952  21.397  40.748   8.264
 2519POPC   C3A33953  21.410  40.793   7.964
 2519POPC   C4A33954  21.412  40.759   7.664
 2519POPC   C1B33955  21.127  40.772   8.564
 2519POPC   C2B33956  21.140  40.719   8.264
 2519POPC   C3B33957  21.169  40.777   7.964
 2519POPC   C4B33958  21.143  40.764   7.664
 2520POPC   NC333959   1.952  15.973   9.464
 2520POPC   PO433960   2.013  15.949   9.164
 2520POPC   GL133961   1.976  16.000   8.864
 2520POPC   GL233962   2.065  15.924   8.864
 2520POPC   C1A33963   1.988  15.985   8.564
 2520POPC   D2A33964   1.966  15.930   8.264
 2520POPC   C3A33965   1.996  15.949   7.964
 2520POPC   C4A33966   1.959  15.933   7.664
 2520POPC   C1B33967   2.205  15.884   8.564
 2520POPC   C2B33968   2.170  15.817   8.264
 2520POPC   C3B33969   2.236  15.809   7.964
 2520POPC   C4B33970   2.170  15.808   7.664
 2521POPC   NC333971  32.208  28.350   9.464
 2521POPC   PO433972  32.202  28.361   9.164
 2521POPC   GL133973  32.276  28.418   8.864
 2521POPC   GL233974  32.332  28.513   8.864
 2521POPC   C1A33975  32.297  28.324   8.564
 2521POPC   D2A33976  32.284  28.397   8.264
 2521POPC   C3A33977  32.229  28.369   7.964
 2521POPC   C4A33978  32.270  28.347   7.664
 2521POPC   C1B33979  32.338  28.594   8.564
 2521POPC   C2B33980  32.275  28.625   8.264
 2521POPC   C3B33981  32.273  28.657   7.964
 2521POPC   C4B33982  32.350  28.649   7.664
 2522POPC   NC333983  21.395  17.491   9.464
 2522POPC   PO433984  21.400  17.483   9.164
 2522POPC   GL133985  21.342  17.535   8.864
 2522POPC   GL233986  21.221  17.538   8.864
 2522POPC   C1A33987  21.400  17.552   8.564
 2522POPC   D2A33988  21.371  17.542   8.264
 2522POPC   C3A33989  21.409  17.540   7.964
 2522POPC   C4A33990  21.406  17.516   7.664
 2522POPC   C1B33991  21.120  17.592   8.564
 2522POPC   C2B33992  21.169  17.559   8.264
 2522POPC   C3B33993  21.158  17.605   7.964
 2522POPC   C4B33994  21.140  17.520   7.664
 2523POPC   NC333995  35.380  43.910   9.464
 2523POPC   PO433996  35.311  43.894   9.164
 2523POPC   GL133997  35.308  43.886   8.864
 2523POPC   GL233998  35.455  43.795   8.864
 2523POPC   C1A33999  35.355  43.852   8.564
 2523POPC   D2A34000  35.349  43.875   8.264
 2523POPC   C3A34001  35.371  43.837   7.964
 2523POPC   C4A34002  35.378  43.854   7.664
 2523POPC   C1B34003  35.604  43.770   8.564
 2523POPC   C2B34004  35.540  43.713   8.264
 2523POPC   C3B34005  35.532  43.728   7.964
 2523POPC   C4B34006  35.523  43.722   7.664
 2524POPC   NC334007  12.064  23.679   9.464
 2524POPC   PO434008  12.054  23.678   9.164
 2524POPC   GL134009  12.082  23.755   8.864
 2524POPC   GL234010  12.240  23.716   8.864
 2524POPC   C1A34011  12.103  23.706   8.564
 2524POPC   D2A34012  12.123  23.730   8.264
 2524POPC   C3A34013  12.066  23.753   7.964
 2524POPC   C4A34014  12.098  23.707   7.664
 2524POPC   C1B34015  12.321  23.603   8.564
 2524POPC   C2B34016  12.294  23.585   8.264
 2524POPC   C3B34017  12.319  23.668   7.964
 2524POPC   C4B34018  12.273  23.680   7.664
 2525POPC   NC334019  36.162  42.383   9.464
 2525POPC   PO434020  36.089  42.306   9.164
 2525POPC   GL134021  36.106  42.367   8.864
 2525POPC   GL234022  36.208  42.427   8.864
 2525POPC   C1A34023  36.139  42.344   8.564
 2525POPC   D2A34024  36.170  42.302   8.264
 2525POPC   C3A34025  36.081  42.333   7.964
 2525POPC   C4A34026  36.104  42.334   7.664
 2525POPC   C1B34027  36.346  42.480   8.564
 2525POPC   C2B34028  36.304  42.450   8.264
 2525POPC   C3B34029  36.324  42.525   7.964
 2525POPC   C4B34030  36.275  42.505   7.664
 2526POPC   NC334031  26.052  28.345   9.464
 2526POPC   PO434032  26.089  28.324   9.164
 2526POPC   GL134033  26.082  28.392   8.864
 2526POPC   GL234034  25.939  28.312   8.864
 2526POPC   C1A34035  26.011  28.409   8.564
 2526POPC   D2A34036  25.994  28.368   8.264
 2526POPC   C3A34037  26.014  28.376   7.964
 2526POPC   C4A34038  25.992  28.415   7.664
 2526POPC   C1B34039  25.865  28.290   8.564
 2526POPC   C2B34040  25.813  28.244   8.264
 2526POPC   C3B34041  25.820  28.269   7.964
 2526POPC   C4B34042  25.780  28.288   7.664
 2527POPC   NC334043  40.783   5.118   9.464
 2527POPC   PO434044  40.781   5.051   9.164
 2527POPC   GL134045  40.787   5.118   8.864
 2527POPC   GL234046  40.845   4.989   8.864
 2527POPC   C1A34047  40.748   5.094   8.564
 2527POPC   D2A34048  40.825   5.058   8.264
 2527POPC   C3A34049  40.804   5.130   7.964
 2527POPC   C4A34050  40.762   5.073   7.664
 2527POPC   C1B34051  40.910   4.854   8.564
 2527POPC   C2B34052  40.911   4.833   8.264
 2527POPC   C3B34053  40.892   4.896   7.964
 2527POPC   C4B34054  40.887   4.849   7.664
 2528POPC   NC334055  33.789   4.323   9.464
 2528POPC   PO434056  33.771   4.303   9.164
 2528POPC   GL134057  33.849   4.312   8.864
 2528POPC   GL234058  33.732   4.246   8.864
 2528POPC   C1A34059  33.836   4.312   8.564
 2528POPC   D2A34060  33.823   4.310   8.264
 2528POPC   C3A34061  33.793   4.362   7.964
 2528POPC   C4A34062  33.782   4.275   7.664
 2528POPC   C1B34063  33.599   4.149   8.564
 2528POPC   C2B34064  33.619   4.151   8.264
 2528POPC   C3B34065  33.553   4.178   7.964
 2528POPC   C4B34066  33.555   4.152   7.664
 2529POPC   NC334067  39.199  12.865   9.464
 2529POPC   PO434068  39.208  12.891   9.164
 2529POPC   GL134069  39.219  12.827   8.864
 2529POPC   GL234070  39.372  12.808   8.864
 2529POPC   C1A34071  39.217  12.886   8.564
 2529POPC   D2A34072  39.266  12.872   8.264
 2529POPC   C3A34073  39.221  12.841   7.964
 2529POPC   C4A34074  39.205  12.882   7.664
 2529POPC   C1B34075  39.465  12.812   8.564
 2529POPC   C2B34076  39.437  12.877   8.264
 2529POPC   C3B34077  39.463  12.819   7.964
 2529POPC   C4B34078  39.525  12.883   7.664
 2530POPC   NC334079  43.845   2.788   9.464
 2530POPC   PO434080  43.929   2.729   9.164
 2530POPC   GL134081  43.919   2.788   8.864
 2530POPC   GL234082  43.960   2.762   8.864
 2530POPC   C1A34083  43.910   2.772   8.564
 2530POPC   D2A34084  43.865   2.736   8.264
 2530POPC   C3A34085  43.885   2.756   7.964
 2530POPC   C4A34086  43.926   2.740   7.664
 2530POPC   C1B34087  44.081   2.673   8.564
 2530POPC   C2B34088  44.100   2.650   8.264
 2530POPC   C3B34089  44.089   2.701   7.964
 2530POPC   C4B34090  44.139   2.710   7.664
 2531POPC   NC334091  11.347  36.114   9.464
 2531POPC   PO434092  11.283  36.080   9.164
 2531POPC   GL134093  11.321  36.088   8.864
 2531POPC   GL234094  11.370  36.199   8.864
 2531POPC   C1A34095  11.315  36.120   8.564
 2531POPC   D2A34096  11.344  36.096   8.264
 2531POPC   C3A34097  11.317  36.140   7.964
 2531POPC   C4A34098  11.269  36.136   7.664
 2531POPC   C1B34099  11.437  36.376   8.564
 2531POPC   C2B34100  11.428  36.346   8.264
 2531POPC   C3B34101  11.385  36.386   7.964
 2531POPC   C4B34102  11.413  36.315   7.664
 2532POPC   NC334103   8.950   2.799   9.464
 2532POPC   PO434104   8.951   2.720   9.164
 2532POPC   GL134105   9.001   2.763   8.864
 2532POPC   GL234106   8.968   2.684   8.864
 2532POPC   C1A34107   8.989   2.773   8.564
 2532POPC   D2A34108   8.978   2.757   8.264
 2532POPC   C3A34109   8.948   2.745   7.964
 2532POPC   C4A34110   8.951   2.805   7.664
 2532POPC   C1B34111   8.902   2.517   8.564
 2532POPC   C2B34112   8.859   2.563   8.264
 2532POPC   C3B34113   8.947   2.563   7.964
 2532POPC   C4B34114   8.926   2.513   7.664
 2533POPC   NC334115  19.048  41.535   9.464
 2533POPC   PO434116  19.057  41.607   9.164
 2533POPC   GL134117  19.062  41.585   8.864
 2533POPC   GL234118  19.217  41.580   8.864
 2533POPC   C1A34119  19.031  41.557   8.564
 2533POPC   D2A34120  19.022  41.525   8.264
 2533POPC   C3A34121  19.053  41.546   7.964
 2533POPC   C4A34122  19.050  41.529   7.664
 2533POPC   C1B34123  19.340  41.550   8.564
 2533POPC   C2B34124  19.274  41.572   8.264
 2533POPC   C3B34125  19.329  41.530   7.964
 2533POPC   C4B34126  19.338  41.579   7.664
 2534POPC   NC334127  22.210  30.709   9.464
 2534POPC   PO434128  22.211  30.719   9.164
 2534POPC   GL134129  22.204  30.715   8.864
 2534POPC   GL234130  22.115  30.784   8.864
 2534POPC   C1A34131  22.181  30.711   8.564
 2534POPC   D2A34132  22.156  30.656   8.264
 2534POPC   C3A34133  22.208  30.716   7.964
 2534POPC   C4A34134  22.177  30.736   7.664
 2534POPC   C1B34135  22.097  30.924   8.564
 2534POPC   C2B34136  22.128  30.921   8.264
 2534POPC   C3B34137  22.092  30.889   7.964
 2534POPC   C4B34138  22.131  30.969   7.664
 2535POPC   NC334139  22.911  13.591   9.464
 2535POPC   PO434140  22.900  13.590   9.164
 2535POPC   GL134141  22.918  13.591   8.864
 2535POPC   GL234142  23.095  13.585   8.864
 2535POPC   C1A34143  22.908  13.661   8.564
 2535POPC   D2A34144  22.960  13.617   8.264
 2535POPC   C3A34145  22.947  13.609   7.964
 2535POPC   C4A34146  22.920  13.675   7.664
 2535POPC   C1B34147  23.197  13.488   8.564
 2535POPC   C2B34148  23.199  13.537   8.264
 2535POPC   C3B34149  23.192  13.567   7.964
 2535POPC   C4B34150  23.207  13.505   7.664
 2536POPC   NC334151  36.126   1.949   9.464
 2536POPC   PO434152  36.101   2.032   9.164
 2536POPC   GL134153  36.160   1.963   8.864
 2536POPC   GL234154  36.038   2.117   8.864
 2536POPC   C1A34155  36.160   1.952   8.564
 2536POPC   D2A34156  36.094   1.952   8.264
 2536POPC   C3A34157  36.108   1.996   7.964
 2536POPC   C4A34158  36.083   2.024   7.664
 2536POPC   C1B34159  36.058   2.184   8.564
 2536POPC   C2B34160  36.070   2.193   8.264
 2536POPC   C3B34161  35.990   2.202   7.964
 2536POPC   C4B34162  36.048   2.226   7.664
 2537POPC   NC334163  12.071  30.673   9.464
 2537POPC   PO434164  12.055  30.699   9.164
 2537POPC   GL134165  12.090  30.680   8.864
 2537POPC   GL234166  11.926  30.684   8.864
 2537POPC   C1A34167  12.089  30.725   8.564
 2537POPC   D2A34168  12.108  30.722   8.264
 2537POPC   C3A34169  12.053  30.673   7.964
 2537POPC   C4A34170  12.097  30.650   7.664
 2537POPC   C1B34171  11.805  30.709   8.564
 2537POPC   C2B34172  11.832  30.717   8.264
 2537POPC   C3B34173  11.818  30.770   7.964
 2537POPC   C4B34174  11.831  30.756   7.664
 2538POPC   NC334175  40.036  21.361   9.464
 2538POPC   PO434176  40.007  21.421   9.164
 2538POPC   GL134177  39.973  21.420   8.864
 2538POPC   GL234178  40.037  21.541   8.864
 2538POPC   C1A34179  39.959  21.336   8.564
 2538POPC   D2A34180  39.967  21.371   8.264
 2538POPC   C3A34181  39.963  21.349   7.964
 2538POPC   C4A34182  40.034  21.377   7.664
 2538POPC   C1B34183  39.931  21.679   8.564
 2538POPC   C2B34184  39.998  21.636   8.264
 2538POPC   C3B34185  40.015  21.625   7.964
 2538POPC   C4B34186  39.960  21.665   7.664
 2539POPC   NC334187  13.636  25.257   9.464
 2539POPC   PO434188  13.605  25.231   9.164
 2539POPC   GL134189  13.655  25.274   8.864
 2539POPC   GL234190  13.761  25.268   8.864
 2539POPC   C1A34191  13.605  25.249   8.564
 2539POPC   D2A34192  13.647  25.271   8.264
 2539POPC   C3A34193  13.633  25.308   7.964
 2539POPC   C4A34194  13.668  25.252   7.664
 2539POPC   C1B34195  13.883  25.199   8.564
 2539POPC   C2B34196  13.887  25.149   8.264
 2539POPC   C3B34197  13.850  25.215   7.964
 2539POPC   C4B34198  13.816  25.163   7.664
 2540POPC   NC334199   2.772  22.126   9.464
 2540POPC   PO434200   2.795  22.203   9.164
 2540POPC   GL134201   2.732  22.207   8.864
 2540POPC   GL234202   2.653  22.237   8.864
 2540POPC   C1A34203   2.722  22.134   8.564
 2540POPC   D2A34204   2.716  22.159   8.264
 2540POPC   C3A34205   2.781  22.143   7.964
 2540POPC   C4A34206   2.744  22.153   7.664
 2540POPC   C1B34207   2.564  22.346   8.564
 2540POPC   C2B34208   2.532  22.277   8.264
 2540POPC   C3B34209   2.526  22.357   7.964
 2540POPC   C4B34210   2.592  22.330   7.664
 2541POPC   NC334211  12.095  10.554   9.464
 2541POPC   PO434212  12.039  10.569   9.164
 2541POPC   GL134213  12.101  10.527   8.864
 2541POPC   GL234214  11.947  10.578   8.864
 2541POPC   C1A34215  12.096  10.554   8.564
 2541POPC   D2A34216  12.080  10.488   8.264
 2541POPC   C3A34217  12.126  10.540   7.964
 2541POPC   C4A34218  12.065  10.500   7.664
 2541POPC   C1B34219  11.905  10.605   8.564
 2541POPC   C2B34220  11.862  10.615   8.264
 2541POPC   C3B34221  11.838  10.630   7.964
 2541POPC   C4B34222  11.832  10.636   7.664
 2542POPC   NC334223  25.241   3.566   9.464
 2542POPC   PO434224  25.271   3.525   9.164
 2542POPC   GL134225  25.229   3.566   8.864
 2542POPC   GL234226  25.340   3.468   8.864
 2542POPC   C1A34227  25.225   3.532   8.564
 2542POPC   D2A34228  25.250   3.553   8.264
 2542POPC   C3A34229  25.270   3.563   7.964
 2542POPC   C4A34230  25.247   3.548   7.664
 2542POPC   C1B34231  25.465   3.501   8.564
 2542POPC   C2B34232  25.493   3.459   8.264
 2542POPC   C3B34233  25.493   3.494   7.964
 2542POPC   C4B34234  25.546   3.475   7.664
 2543POPC   NC334235  36.132  29.894   9.464
 2543POPC   PO434236  36.166  29.873   9.164
 2543POPC   GL134237  36.145  29.886   8.864
 2543POPC   GL234238  36.213  29.883   8.864
 2543POPC   C1A34239  36.089  29.871   8.564
 2543POPC   D2A34240  36.113  29.941   8.264
 2543POPC   C3A34241  36.084  29.919   7.964
 2543POPC   C4A34242  36.137  29.921   7.664
 2543POPC   C1B34243  36.366  29.925   8.564
 2543POPC   C2B34244  36.337  29.962   8.264
 2543POPC   C3B34245  36.332  29.906   7.964
 2543POPC   C4B34246  36.352  29.963   7.664
 2544POPC   NC334247   8.185  17.508   9.464
 2544POPC   PO434248   8.177  17.529   9.164
 2544POPC   GL134249   8.195  17.511   8.864
 2544POPC   GL234250   8.168  17.570   8.864
 2544POPC   C1A34251   8.199  17.476   8.564
 2544POPC   D2A34252   8.202  17.522   8.264
 2544POPC   C3A34253   8.160  17.473   7.964
 2544POPC   C4A34254   8.160  17.493   7.664
 2544POPC   C1B34255   8.072  17.720   8.564
 2544POPC   C2B34256   8.015  17.691   8.264
 2544POPC   C3B34257   8.039  17.756   7.964
 2544POPC   C4B34258   8.006  17.691   7.664
 2545POPC   NC334259  33.069  33.830   9.464
 2545POPC   PO434260  32.999  33.829   9.164
 2545POPC   GL134261  33.038  33.828   8.864
 2545POPC   GL234262  33.147  33.883   8.864
 2545POPC   C1A34263  33.002  33.787   8.564
 2545POPC   D2A34264  32.993  33.809   8.264
 2545POPC   C3A34265  33.002  33.768   7.964
 2545POPC   C4A34266  32.975  33.833   7.664
 2545POPC   C1B34267  33.211  33.964   8.564
 2545POPC   C2B34268  33.202  33.978   8.264
 2545POPC   C3B34269  33.254  33.945   7.964
 2545POPC   C4B34270  33.201  33.960   7.664
 2546POPC   NC334271   2.812  41.598   9.464
 2546POPC   PO434272   2.807  41.553   9.164
 2546POPC   GL134273   2.745  41.575   8.864
 2546POPC   GL234274   2.846  41.411   8.864
 2546POPC   C1A34275   2.767  41.576   8.564
 2546POPC   D2A34276   2.807  41.597   8.264
 2546POPC   C3A34277   2.799  41.585   7.964
 2546POPC   C4A34278   2.752  41.516   7.664
 2546POPC   C1B34279   2.894  41.379   8.564
 2546POPC   C2B34280   2.900  41.315   8.264
 2546POPC   C3B34281   2.857  41.357   7.964
 2546POPC   C4B34282   2.916  41.331   7.664
 2547POPC   NC334283   1.962  25.314   9.464
 2547POPC   PO434284   1.979  25.287   9.164
 2547POPC   GL134285   1.974  25.296   8.864
 2547POPC   GL234286   2.048  25.386   8.864
 2547POPC   C1A34287   1.953  25.258   8.564
 2547POPC   D2A34288   1.988  25.303   8.264
 2547POPC   C3A34289   1.944  25.217   7.964
 2547POPC   C4A34290   1.958  25.279   7.664
 2547POPC   C1B34291   2.005  25.469   8.564
 2547POPC   C2B34292   2.069  25.543   8.264
 2547POPC   C3B34293   2.036  25.546   7.964
 2547POPC   C4B34294   2.015  25.486   7.664
 2548POPC   NC334295  35.399   5.849   9.464
 2548POPC   PO434296  35.359   5.838   9.164
 2548POPC   GL134297  35.368   5.895   8.864
 2548POPC   GL234298  35.377   5.788   8.864
 2548POPC   C1A34299  35.381   5.823   8.564
 2548POPC   D2A34300  35.372   5.837   8.264
 2548POPC   C3A34301  35.389   5.855   7.964
 2548POPC   C4A34302  35.391   5.866   7.664
 2548POPC   C1B34303  35.433   5.612   8.564
 2548POPC   C2B34304  35.397   5.611   8.264
 2548POPC   C3B34305  35.429   5.645   7.964
 2548POPC   C4B34306  35.430   5.604   7.664
 2549POPC   NC334307  19.812  28.410   9.464
 2549POPC   PO434308  19.819  28.402   9.164
 2549POPC   GL134309  19.796  28.383   8.864
 2549POPC   GL234310  19.892  28.343   8.864
 2549POPC   C1A34311  19.860  28.336   8.564
 2549POPC   D2A34312  19.834  28.347   8.264
 2549POPC   C3A34313  19.786  28.365   7.964
 2549POPC   C4A34314  19.845  28.341   7.664
 2549POPC   C1B34315  20.053  28.239   8.564
 2549POPC   C2B34316  20.059  28.285   8.264
 2549POPC   C3B34317  20.027  28.202   7.964
 2549POPC   C4B34318  20.031  28.284   7.664
 2550POPC   NC334319   7.395  44.649   9.464
 2550POPC   PO434320   7.379  44.705   9.164
 2550POPC   GL134321   7.469  44.634   8.864
 2550POPC   GL234322   7.551  44.630   8.864
 2550POPC   C1A34323   7.437  44.639   8.564
 2550POPC   D2A34324   7.450  44.667   8.264
 2550POPC   C3A34325   7.371  44.707   7.964
 2550POPC   C4A34326   7.375  44.640   7.664
 2550POPC   C1B34327   7.627  44.590   8.564
 2550POPC   C2B34328   7.703  44.602   8.264
 2550POPC   C3B34329   7.678  44.560   7.964
 2550POPC   C4B34330   7.668  44.555   7.664
 2551POPC   NC334331  24.510  26.778   9.464
 2551POPC   PO434332  24.453  26.847   9.164
 2551POPC   GL134333  24.539  26.837   8.864
 2551POPC   GL234334  24.565  26.756   8.864
 2551POPC   C1A34335  24.517  26.792   8.564
 2551POPC   D2A34336  24.472  26.837   8.264
 2551POPC   C3A34337  24.453  26.791   7.964
 2551POPC   C4A34338  24.504  26.775   7.664
 2551POPC   C1B34339  24.701  26.634   8.564
 2551POPC   C2B34340  24.693  26.696   8.264
 2551POPC   C3B34341  24.656  26.706   7.964
 2551POPC   C4B34342  24.711  26.659   7.664
 2552POPC   NC334343  28.395   0.466   9.464
 2552POPC   PO434344  28.369   0.432   9.164
 2552POPC   GL134345  28.369   0.456   8.864
 2552POPC   GL234346  28.424   0.543   8.864
 2552POPC   C1A34347  28.352   0.391   8.564
 2552POPC   D2A34348  28.321   0.486   8.264
 2552POPC   C3A34349  28.384   0.417   7.964
 2552POPC   C4A34350  28.330   0.421   7.664
 2552POPC   C1B34351  28.573   0.613   8.564
 2552POPC   C2B34352  28.526   0.592   8.264
 2552POPC   C3B34353  28.535   0.545   7.964
 2552POPC   C4B34354  28.617   0.624   7.664
 2553POPC   NC334355  24.525  43.915   9.464
 2553POPC   PO434356  24.517  43.864   9.164
 2553POPC   GL134357  24.517  43.858   8.864
 2553POPC   GL234358  24.460  43.952   8.864
 2553POPC   C1A34359  24.452  43.860   8.564
 2553POPC   D2A34360  24.499  43.884   8.264
 2553POPC   C3A34361  24.521  43.864   7.964
 2553POPC   C4A34362  24.534  43.900   7.664
 2553POPC   C1B34363  24.309  44.065   8.564
 2553POPC   C2B34364  24.303  44.074   8.264
 2553POPC   C3B34365  24.320  44.088   7.964
 2553POPC   C4B34366  24.347  44.068   7.664
 2554POPC   NC334367  38.498   6.677   9.464
 2554POPC   PO434368  38.499   6.631   9.164
 2554POPC   GL134369  38.480   6.632   8.864
 2554POPC   GL234370  38.381   6.698   8.864
 2554POPC   C1A34371  38.437   6.613   8.564
 2554POPC   D2A34372  38.449   6.630   8.264
 2554POPC   C3A34373  38.450   6.680   7.964
 2554POPC   C4A34374  38.483   6.615   7.664
 2554POPC   C1B34375  38.329   6.896   8.564
 2554POPC   C2B34376  38.352   6.880   8.264
 2554POPC   C3B34377  38.341   6.886   7.964
 2554POPC   C4B34378  38.262   6.826   7.664
 2555POPC   NC334379   1.965   3.501   9.464
 2555POPC   PO434380   1.953   3.572   9.164
 2555POPC   GL134381   2.014   3.563   8.864
 2555POPC   GL234382   1.923   3.669   8.864
 2555POPC   C1A34383   1.977   3.528   8.564
 2555POPC   D2A34384   2.022   3.517   8.264
 2555POPC   C3A34385   1.947   3.580   7.964
 2555POPC   C4A34386   1.987   3.499   7.664
 2555POPC   C1B34387   1.802   3.740   8.564
 2555POPC   C2B34388   1.866   3.781   8.264
 2555POPC   C3B34389   1.836   3.773   7.964
 2555POPC   C4B34390   1.829   3.725   7.664
 2556POPC   NC334391  39.960  29.181   9.464
 2556POPC   PO434392  39.980  29.171   9.164
 2556POPC   GL134393  39.997  29.100   8.864
 2556POPC   GL234394  40.074  29.093   8.864
 2556POPC   C1A34395  39.999  29.108   8.564
 2556POPC   D2A34396  40.022  29.126   8.264
 2556POPC   C3A34397  39.993  29.123   7.964
 2556POPC   C4A34398  39.966  29.130   7.664
 2556POPC   C1B34399  40.112  28.959   8.564
 2556POPC   C2B34400  40.111  28.936   8.264
 2556POPC   C3B34401  40.154  28.933   7.964
 2556POPC   C4B34402  40.189  28.940   7.664
 2557POPC   NC334403  38.410  30.695   9.464
 2557POPC   PO434404  38.464  30.669   9.164
 2557POPC   GL134405  38.433  30.735   8.864
 2557POPC   GL234406  38.617  30.661   8.864
 2557POPC   C1A34407  38.417  30.737   8.564
 2557POPC   D2A34408  38.431  30.689   8.264
 2557POPC   C3A34409  38.453  30.665   7.964
 2557POPC   C4A34410  38.451  30.670   7.664
 2557POPC   C1B34411  38.670  30.743   8.564
 2557POPC   C2B34412  38.711  30.734   8.264
 2557POPC   C3B34413  38.689  30.677   7.964
 2557POPC   C4B34414  38.694  30.676   7.664
 2558POPC   NC334415  22.933  36.937   9.464
 2558POPC   PO434416  22.962  36.872   9.164
 2558POPC   GL134417  22.927  36.865   8.864
 2558POPC   GL234418  23.027  36.916   8.864
 2558POPC   C1A34419  22.909  36.915   8.564
 2558POPC   D2A34420  22.954  36.923   8.264
 2558POPC   C3A34421  22.907  36.938   7.964
 2558POPC   C4A34422  22.922  36.949   7.664
 2558POPC   C1B34423  23.145  36.938   8.564
 2558POPC   C2B34424  23.217  36.955   8.264
 2558POPC   C3B34425  23.172  36.882   7.964
 2558POPC   C4B34426  23.193  36.880   7.664
 2559POPC   NC334427  14.417  20.598   9.464
 2559POPC   PO434428  14.392  20.625   9.164
 2559POPC   GL134429  14.453  20.579   8.864
 2559POPC   GL234430  14.280  20.582   8.864
 2559POPC   C1A34431  14.442  20.589   8.564
 2559POPC   D2A34432  14.432  20.570   8.264
 2559POPC   C3A34433  14.450  20.619   7.964
 2559POPC   C4A34434  14.368  20.609   7.664
 2559POPC   C1B34435  14.185  20.578   8.564
 2559POPC   C2B34436  14.161  20.604   8.264
 2559POPC   C3B34437  14.157  20.578   7.964
 2559POPC   C4B34438  14.128  20.558   7.664
 2560POPC   NC334439  38.440  19.020   9.464
 2560POPC   PO434440  38.407  19.093   9.164
 2560POPC   GL134441  38.476  19.049   8.864
 2560POPC   GL234442  38.341  18.996   8.864
 2560POPC   C1A34443  38.410  19.035   8.564
 2560POPC   D2A34444  38.478  19.072   8.264
 2560POPC   C3A34445  38.495  19.089   7.964
 2560POPC   C4A34446  38.487  19.044   7.664
 2560POPC   C1B34447  38.229  18.926   8.564
 2560POPC   C2B34448  38.192  18.995   8.264
 2560POPC   C3B34449  38.207  18.983   7.964
 2560POPC   C4B34450  38.218  18.915   7.664
 2561POPC   NC334451  10.496   5.874   9.464
 2561POPC   PO434452  10.573   5.910   9.164
 2561POPC   GL134453  10.483   5.887   8.864
 2561POPC   GL234454  10.448   5.956   8.864
 2561POPC   C1A34455  10.552   5.863   8.564
 2561POPC   D2A34456  10.557   5.907   8.264
 2561POPC   C3A34457  10.488   5.902   7.964
 2561POPC   C4A34458  10.565   5.871   7.664
 2561POPC   C1B34459  10.413   6.069   8.564
 2561POPC   C2B34460  10.424   6.051   8.264
 2561POPC   C3B34461  10.400   6.132   7.964
 2561POPC   C4B34462  10.405   6.049   7.664
 2562POPC   NC334463  35.396   1.212   9.464
 2562POPC   PO434464  35.382   1.224   9.164
 2562POPC   GL134465  35.383   1.194   8.864
 2562POPC   GL234466  35.258   1.178   8.864
 2562POPC   C1A34467  35.364   1.262   8.564
 2562POPC   D2A34468  35.389   1.255   8.264
 2562POPC   C3A34469  35.341   1.217   7.964
 2562POPC   C4A34470  35.324   1.219   7.664
 2562POPC   C1B34471  35.141   1.136   8.564
 2562POPC   C2B34472  35.120   1.150   8.264
 2562POPC   C3B34473  35.096   1.128   7.964
 2562POPC   C4B34474  35.081   1.191   7.664
 2563POPC   NC334475  17.551  26.075   9.464
 2563POPC   PO434476  17.527  26.049   9.164
 2563POPC   GL134477  17.484  26.088   8.864
 2563POPC   GL234478  17.503  26.176   8.864
 2563POPC   C1A34479  17.545  26.055   8.564
 2563POPC   D2A34480  17.484  26.063   8.264
 2563POPC   C3A34481  17.551  26.000   7.964
 2563POPC   C4A34482  17.505  26.068   7.664
 2563POPC   C1B34483  17.605  26.310   8.564
 2563POPC   C2B34484  17.570  26.279   8.264
 2563POPC   C3B34485  17.584  26.257   7.964
 2563POPC   C4B34486  17.527  26.336   7.664
 2564POPC   NC334487   1.993  37.667   9.464
 2564POPC   PO434488   2.009  37.694   9.164
 2564POPC   GL134489   2.023  37.630   8.864
 2564POPC   GL234490   2.021  37.837   8.864
 2564POPC   C1A34491   1.978  37.663   8.564
 2564POPC   D2A34492   2.036  37.714   8.264
 2564POPC   C3A34493   2.036  37.630   7.964
 2564POPC   C4A34494   1.995  37.720   7.664
 2564POPC   C1B34495   1.945  37.963   8.564
 2564POPC   C2B34496   1.937  37.951   8.264
 2564POPC   C3B34497   2.013  37.896   7.964
 2564POPC   C4B34498   1.970  37.965   7.664
 2565POPC   NC334499  34.624  10.502   9.464
 2565POPC   PO434500  34.570  10.498   9.164
 2565POPC   GL134501  34.609  10.567   8.864
 2565POPC   GL234502  34.622  10.646   8.864
 2565POPC   C1A34503  34.528  10.482   8.564
 2565POPC   D2A34504  34.544  10.480   8.264
 2565POPC   C3A34505  34.584  10.527   7.964
 2565POPC   C4A34506  34.533  10.521   7.664
 2565POPC   C1B34507  34.727  10.753   8.564
 2565POPC   C2B34508  34.733  10.749   8.264
 2565POPC   C3B34509  34.705  10.758   7.964
 2565POPC   C4B34510  34.696  10.713   7.664
 2566POPC   NC334511  22.176  28.417   9.464
 2566POPC   PO434512  22.206  28.342   9.164
 2566POPC   GL134513  22.125  28.344   8.864
 2566POPC   GL234514  22.254  28.281   8.864
 2566POPC   C1A34515  22.187  28.346   8.564
 2566POPC   D2A34516  22.194  28.414   8.264
 2566POPC   C3A34517  22.149  28.407   7.964
 2566POPC   C4A34518  22.192  28.364   7.664
 2566POPC   C1B34519  22.396  28.210   8.564
 2566POPC   C2B34520  22.370  28.221   8.264
 2566POPC   C3B34521  22.374  28.203   7.964
 2566POPC   C4B34522  22.336  28.268   7.664
 2567POPC   NC334523   1.988   0.437   9.464
 2567POPC   PO434524   2.005   0.434   9.164
 2567POPC   GL134525   2.037   0.482   8.864
 2567POPC   GL234526   1.989   0.298   8.864
 2567POPC   C1A34527   1.988   0.487   8.564
 2567POPC   D2A34528   1.986   0.395   8.264
 2567POPC   C3A34529   2.004   0.471   7.964
 2567POPC   C4A34530   2.013   0.470   7.664
 2567POPC   C1B34531   2.063   0.223   8.564
 2567POPC   C2B34532   2.025   0.171   8.264
 2567POPC   C3B34533   2.003   0.224   7.964
 2567POPC   C4B34534   1.990   0.205   7.664
 2568POPC   NC334535  25.314   0.410   9.464
 2568POPC   PO434536  25.267   0.421   9.164
 2568POPC   GL134537  25.244   0.482   8.864
 2568POPC   GL234538  25.361   0.298   8.864
 2568POPC   C1A34539  25.303   0.474   8.564
 2568POPC   D2A34540  25.287   0.392   8.264
 2568POPC   C3A34541  25.266   0.418   7.964
 2568POPC   C4A34542  25.314   0.423   7.664
 2568POPC   C1B34543  25.364   0.211   8.564
 2568POPC   C2B34544  25.369   0.218   8.264
 2568POPC   C3B34545  25.401   0.175   7.964
 2568POPC   C4B34546  25.344   0.236   7.664
 2569POPC   NC334547  38.411  10.521   9.464
 2569POPC   PO434548  38.482  10.520   9.164
 2569POPC   GL134549  38.428  10.497   8.864
 2569POPC   GL234550  38.567  10.471   8.864
 2569POPC   C1A34551  38.463  10.480   8.564
 2569POPC   D2A34552  38.499  10.482   8.264
 2569POPC   C3A34553  38.478  10.523   7.964
 2569POPC   C4A34554  38.473  10.482   7.664
 2569POPC   C1B34555  38.709  10.389   8.564
 2569POPC   C2B34556  38.706  10.445   8.264
 2569POPC   C3B34557  38.626  10.363   7.964
 2569POPC   C4B34558  38.679  10.399   7.664
 2570POPC   NC334559  39.220  31.468   9.464
 2570POPC   PO434560  39.232  31.448   9.164
 2570POPC   GL134561  39.182  31.465   8.864
 2570POPC   GL234562  39.327  31.527   8.864
 2570POPC   C1A34563  39.280  31.428   8.564
 2570POPC   D2A34564  39.207  31.488   8.264
 2570POPC   C3A34565  39.200  31.453   7.964
 2570POPC   C4A34566  39.251  31.470   7.664
 2570POPC   C1B34567  39.424  31.598   8.564
 2570POPC   C2B34568  39.420  31.609   8.264
 2570POPC   C3B34569  39.392  31.585   7.964
 2570POPC   C4B34570  39.453  31.576   7.664
 2571POPC   NC334571   6.665  31.492   9.464
 2571POPC   PO434572   6.653  31.436   9.164
 2571POPC   GL134573   6.641  31.434   8.864
 2571POPC   GL234574   6.628  31.340   8.864
 2571POPC   C1A34575   6.658  31.507   8.564
 2571POPC   D2A34576   6.605  31.500   8.264
 2571POPC   C3A34577   6.601  31.494   7.964
 2571POPC   C4A34578   6.628  31.432   7.664
 2571POPC   C1B34579   6.725  31.195   8.564
 2571POPC   C2B34580   6.715  31.227   8.264
 2571POPC   C3B34581   6.687  31.218   7.964
 2571POPC   C4B34582   6.661  31.219   7.664
 2572POPC   NC334583  26.090  34.625   9.464
 2572POPC   PO434584  26.026  34.575   9.164
 2572POPC   GL134585  26.029  34.570   8.864
 2572POPC   GL234586  26.126  34.496   8.864
 2572POPC   C1A34587  26.002  34.583   8.564
 2572POPC   D2A34588  26.051  34.600   8.264
 2572POPC   C3A34589  26.035  34.597   7.964
 2572POPC   C4A34590  26.074  34.568   7.664
 2572POPC   C1B34591  26.254  34.505   8.564
 2572POPC   C2B34592  26.296  34.496   8.264
 2572POPC   C3B34593  26.280  34.431   7.964
 2572POPC   C4B34594  26.303  34.447   7.664
 2573POPC   NC334595   4.287  29.958   9.464
 2573POPC   PO434596   4.288  29.876   9.164
 2573POPC   GL134597   4.269  29.886   8.864
 2573POPC   GL234598   4.441  29.831   8.864
 2573POPC   C1A34599   4.348  29.887   8.564
 2573POPC   D2A34600   4.321  29.911   8.264
 2573POPC   C3A34601   4.273  29.969   7.964
 2573POPC   C4A34602   4.356  29.916   7.664
 2573POPC   C1B34603   4.511  29.792   8.564
 2573POPC   C2B34604   4.573  29.758   8.264
 2573POPC   C3B34605   4.508  29.802   7.964
 2573POPC   C4B34606   4.533  29.833   7.664
 2574POPC   NC334607  28.354  25.297   9.464
 2574POPC   PO434608  28.329  25.233   9.164
 2574POPC   GL134609  28.329  25.253   8.864
 2574POPC   GL234610  28.414  25.386   8.864
 2574POPC   C1A34611  28.360  25.285   8.564
 2574POPC   D2A34612  28.397  25.251   8.264
 2574POPC   C3A34613  28.336  25.299   7.964
 2574POPC   C4A34614  28.377  25.228   7.664
 2574POPC   C1B34615  28.531  25.505   8.564
 2574POPC   C2B34616  28.498  25.432   8.264
 2574POPC   C3B34617  28.521  25.426   7.964
 2574POPC   C4B34618  28.512  25.447   7.664
 2575POPC   NC334619  13.631  39.227   9.464
 2575POPC   PO434620  13.666  39.232   9.164
 2575POPC   GL134621  13.596  39.261   8.864
 2575POPC   GL234622  13.788  39.236   8.864
 2575POPC   C1A34623  13.588  39.256   8.564
 2575POPC   D2A34624  13.673  39.262   8.264
 2575POPC   C3A34625  13.587  39.236   7.964
 2575POPC   C4A34626  13.633  39.217   7.664
 2575POPC   C1B34627  13.902  39.333   8.564
 2575POPC   C2B34628  13.827  39.305   8.264
 2575POPC   C3B34629  13.907  39.327   7.964
 2575POPC   C4B34630  13.919  39.333   7.664
 2576POPC   NC334631   6.608  18.307   9.464
 2576POPC   PO434632   6.654  18.328   9.164
 2576POPC   GL134633   6.659  18.327   8.864
 2576POPC   GL234634   6.510  18.194   8.864
 2576POPC   C1A34635   6.683  18.240   8.564
 2576POPC   D2A34636   6.691  18.264   8.264
 2576POPC   C3A34637   6.663  18.295   7.964
 2576POPC   C4A34638   6.617  18.267   7.664
 2576POPC   C1B34639   6.402  18.169   8.564
 2576POPC   C2B34640   6.434  18.169   8.264
 2576POPC   C3B34641   6.409  18.241   7.964
 2576POPC   C4B34642   6.394  18.169   7.664
 2577POPC   NC334643  42.348  38.440   9.464
 2577POPC   PO434644  42.329  38.456   9.164
 2577POPC   GL134645  42.324  38.474   8.864
 2577POPC   GL234646  42.314  38.305   8.864
 2577POPC   C1A34647  42.366  38.447   8.564
 2577POPC   D2A34648  42.341  38.471   8.264
 2577POPC   C3A34649  42.384  38.483   7.964
 2577POPC   C4A34650  42.300  38.439   7.664
 2577POPC   C1B34651  42.286  38.193   8.564
 2577POPC   C2B34652  42.329  38.232   8.264
 2577POPC   C3B34653  42.343  38.233   7.964
 2577POPC   C4B34654  42.345  38.189   7.664
 2578POPC   NC334655  12.114  29.178   9.464
 2578POPC   PO434656  12.090  29.116   9.164
 2578POPC   GL134657  12.073  29.141   8.864
 2578POPC   GL234658  12.209  29.123   8.864
 2578POPC   C1A34659  12.115  29.193   8.564
 2578POPC   D2A34660  12.089  29.095   8.264
 2578POPC   C3A34661  12.077  29.183   7.964
 2578POPC   C4A34662  12.087  29.160   7.664
 2578POPC   C1B34663  12.293  29.076   8.564
 2578POPC   C2B34664  12.279  29.089   8.264
 2578POPC   C3B34665  12.338  29.087   7.964
 2578POPC   C4B34666  12.312  29.130   7.664
 2579POPC   NC334667  23.710  42.332   9.464
 2579POPC   PO434668  23.694  42.353   9.164
 2579POPC   GL134669  23.754  42.300   8.864
 2579POPC   GL234670  23.696  42.425   8.864
 2579POPC   C1A34671  23.750  42.298   8.564
 2579POPC   D2A34672  23.722  42.289   8.264
 2579POPC   C3A34673  23.678  42.301   7.964
 2579POPC   C4A34674  23.684  42.373   7.664
 2579POPC   C1B34675  23.730  42.572   8.564
 2579POPC   C2B34676  23.759  42.570   8.264
 2579POPC   C3B34677  23.754  42.579   7.964
 2579POPC   C4B34678  23.730  42.567   7.664
 2580POPC   NC334679  20.607  44.657   9.464
 2580POPC   PO434680  20.563  44.638   9.164
 2580POPC   GL134681  20.619  44.701   8.864
 2580POPC   GL234682  20.618  44.816   8.864
 2580POPC   C1A34683  20.597  44.621   8.564
 2580POPC   D2A34684  20.575  44.680   8.264
 2580POPC   C3A34685  20.583  44.699   7.964
 2580POPC   C4A34686  20.586  44.663   7.664
 2580POPC   C1B34687  20.707  44.888   8.564
 2580POPC   C2B34688  20.700  44.915   8.264
 2580POPC   C3B34689  20.724  44.907   7.964
 2580POPC   C4B34690  20.736  44.846   7.664
 2581POPC   NC334691  33.810  16.715   9.464
 2581POPC   PO434692  33.809  16.707   9.164
 2581POPC   GL134693  33.778  16.766   8.864
 2581POPC   GL234694  33.746  16.616   8.864
 2581POPC   C1A34695  33.838  16.774   8.564
 2581POPC   D2A34696  33.819  16.762   8.264
 2581POPC   C3A34697  33.833  16.780   7.964
 2581POPC   C4A34698  33.819  16.713   7.664
 2581POPC   C1B34699  33.735  16.517   8.564
 2581POPC   C2B34700  33.754  16.516   8.264
 2581POPC   C3B34701  33.663  16.498   7.964
 2581POPC   C4B34702  33.672  16.467   7.664
 2582POPC   NC334703  29.871  36.860   9.464
 2582POPC   PO434704  29.926  36.892   9.164
 2582POPC   GL134705  29.918  36.854   8.864
 2582POPC   GL234706  29.971  36.738   8.864
 2582POPC   C1A34707  29.931  36.922   8.564
 2582POPC   D2A34708  29.911  36.860   8.264
 2582POPC   C3A34709  29.928  36.855   7.964
 2582POPC   C4A34710  29.962  36.868   7.664
 2582POPC   C1B34711  29.979  36.645   8.564
 2582POPC   C2B34712  29.971  36.668   8.264
 2582POPC   C3B34713  29.954  36.630   7.964
 2582POPC   C4B34714  29.992  36.676   7.664
 2583POPC   NC334715   3.575  32.987   9.464
 2583POPC   PO434716   3.568  33.011   9.164
 2583POPC   GL134717   3.570  33.021   8.864
 2583POPC   GL234718   3.514  32.948   8.864
 2583POPC   C1A34719   3.546  32.985   8.564
 2583POPC   D2A34720   3.512  33.070   8.264
 2583POPC   C3A34721   3.570  32.980   7.964
 2583POPC   C4A34722   3.510  33.024   7.664
 2583POPC   C1B34723   3.514  32.764   8.564
 2583POPC   C2B34724   3.482  32.811   8.264
 2583POPC   C3B34725   3.521  32.776   7.964
 2583POPC   C4B34726   3.438  32.771   7.664
 2584POPC   NC334727  22.130  40.771   9.464
 2584POPC   PO434728  22.149  40.815   9.164
 2584POPC   GL134729  22.209  40.806   8.864
 2584POPC   GL234730  22.096  40.746   8.864
 2584POPC   C1A34731  22.211  40.823   8.564
 2584POPC   D2A34732  22.153  40.803   8.264
 2584POPC   C3A34733  22.157  40.798   7.964
 2584POPC   C4A34734  22.161  40.810   7.664
 2584POPC   C1B34735  21.903  40.627   8.564
 2584POPC   C2B34736  21.956  40.693   8.264
 2584POPC   C3B34737  21.958  40.679   7.964
 2584POPC   C4B34738  21.941  40.650   7.664
 2585POPC   NC334739  35.332  20.646   9.464
 2585POPC   PO434740  35.375  20.645   9.164
 2585POPC   GL134741  35.367  20.603   8.864
 2585POPC   GL234742  35.464  20.690   8.864
 2585POPC   C1A34743  35.351  20.605   8.564
 2585POPC   D2A34744  35.389  20.641   8.264
 2585POPC   C3A34745  35.329  20.578   7.964
 2585POPC   C4A34746  35.327  20.592   7.664
 2585POPC   C1B34747  35.594  20.721   8.564
 2585POPC   C2B34748  35.516  20.812   8.264
 2585POPC   C3B34749  35.552  20.803   7.964
 2585POPC   C4B34750  35.557  20.795   7.664
 2586POPC   NC334751  29.115  22.910   9.464
 2586POPC   PO434752  29.177  22.947   9.164
 2586POPC   GL134753  29.175  22.984   8.864
 2586POPC   GL234754  29.272  22.915   8.864
 2586POPC   C1A34755  29.177  22.897   8.564
 2586POPC   D2A34756  29.130  22.907   8.264
 2586POPC   C3A34757  29.099  22.971   7.964
 2586POPC   C4A34758  29.133  22.988   7.664
 2586POPC   C1B34759  29.365  22.850   8.564
 2586POPC   C2B34760  29.435  22.888   8.264
 2586POPC   C3B34761  29.355  22.853   7.964
 2586POPC   C4B34762  29.365  22.881   7.664
 2587POPC   NC334763  17.507  43.859   9.464
 2587POPC   PO434764  17.487  43.857   9.164
 2587POPC   GL134765  17.486  43.856   8.864
 2587POPC   GL234766  17.670  43.914   8.864
 2587POPC   C1A34767  17.531  43.898   8.564
 2587POPC   D2A34768  17.476  43.885   8.264
 2587POPC   C3A34769  17.553  43.920   7.964
 2587POPC   C4A34770  17.503  43.891   7.664
 2587POPC   C1B34771  17.708  44.024   8.564
 2587POPC   C2B34772  17.733  44.036   8.264
 2587POPC   C3B34773  17.770  44.007   7.964
 2587POPC   C4B34774  17.735  43.947   7.664
 2588POPC   NC334775  36.899  31.440   9.464
 2588POPC   PO434776  36.876  31.434   9.164
 2588POPC   GL134777  36.928  31.472   8.864
 2588POPC   GL234778  36.996  31.529   8.864
 2588POPC   C1A34779  36.892  31.442   8.564
 2588POPC   D2A34780  36.895  31.499   8.264
 2588POPC   C3A34781  36.944  31.429   7.964
 2588POPC   C4A34782  36.947  31.478   7.664
 2588POPC   C1B34783  37.069  31.581   8.564
 2588POPC   C2B34784  37.153  31.662   8.264
 2588POPC   C3B34785  37.056  31.668   7.964
 2588POPC   C4B34786  37.107  31.635   7.664
 2589POPC   NC334787  12.852  31.459   9.464
 2589POPC   PO434788  12.836  31.484   9.164
 2589POPC   GL134789  12.822  31.471   8.864
 2589POPC   GL234790  12.692  31.485   8.864
 2589POPC   C1A34791  12.824  31.486   8.564
 2589POPC   D2A34792  12.887  31.492   8.264
 2589POPC   C3A34793  12.815  31.472   7.964
 2589POPC   C4A34794  12.856  31.504   7.664
 2589POPC   C1B34795  12.559  31.501   8.564
 2589POPC   C2B34796  12.592  31.522   8.264
 2589POPC   C3B34797  12.580  31.541   7.964
 2589POPC   C4B34798  12.579  31.514   7.664
 2590POPC   NC334799  24.475  27.593   9.464
 2590POPC   PO434800  24.535  27.582   9.164
 2590POPC   GL134801  24.533  27.551   8.864
 2590POPC   GL234802  24.520  27.660   8.864
 2590POPC   C1A34803  24.449  27.615   8.564
 2590POPC   D2A34804  24.502  27.616   8.264
 2590POPC   C3A34805  24.442  27.625   7.964
 2590POPC   C4A34806  24.513  27.637   7.664
 2590POPC   C1B34807  24.658  27.822   8.564
 2590POPC   C2B34808  24.654  27.815   8.264
 2590POPC   C3B34809  24.645  27.846   7.964
 2590POPC   C4B34810  24.647  27.829   7.664
 2591POPC   NC334811  29.880  27.638   9.464
 2591POPC   PO434812  29.919  27.556   9.164
 2591POPC   GL134813  29.963  27.597   8.864
 2591POPC   GL234814  29.834  27.541   8.864
 2591POPC   C1A34815  29.919  27.549   8.564
 2591POPC   D2A34816  29.901  27.630   8.264
 2591POPC   C3A34817  29.913  27.562   7.964
 2591POPC   C4A34818  29.898  27.610   7.664
 2591POPC   C1B34819  29.720  27.581   8.564
 2591POPC   C2B34820  29.682  27.610   8.264
 2591POPC   C3B34821  29.657  27.531   7.964
 2591POPC   C4B34822  29.669  27.543   7.664
 2592POPC   NC334823  41.512   2.810   9.464
 2592POPC   PO434824  41.605   2.781   9.164
 2592POPC   GL134825  41.563   2.775   8.864
 2592POPC   GL234826  41.650   2.876   8.864
 2592POPC   C1A34827  41.535   2.716   8.564
 2592POPC   D2A34828  41.531   2.771   8.264
 2592POPC   C3A34829  41.531   2.734   7.964
 2592POPC   C4A34830  41.543   2.758   7.664
 2592POPC   C1B34831  41.733   2.918   8.564
 2592POPC   C2B34832  41.717   2.909   8.264
 2592POPC   C3B34833  41.750   2.929   7.964
 2592POPC   C4B34834  41.721   2.971   7.664
 2593POPC   NC334835  34.573  42.322   9.464
 2593POPC   PO434836  34.573  42.308   9.164
 2593POPC   GL134837  34.595  42.351   8.864
 2593POPC   GL234838  34.718  42.254   8.864
 2593POPC   C1A34839  34.564  42.369   8.564
 2593POPC   D2A34840  34.577  42.319   8.264
 2593POPC   C3A34841  34.554  42.363   7.964
 2593POPC   C4A34842  34.554  42.347   7.664
 2593POPC   C1B34843  34.755  42.158   8.564
 2593POPC   C2B34844  34.822  42.170   8.264
 2593POPC   C3B34845  34.785  42.238   7.964
 2593POPC   C4B34846  34.759  42.242   7.664
 2594POPC   NC334847  20.577  36.916   9.464
 2594POPC   PO434848  20.585  36.870   9.164
 2594POPC   GL134849  20.635  36.883   8.864
 2594POPC   GL234850  20.615  37.022   8.864
 2594POPC   C1A34851  20.634  36.914   8.564
 2594POPC   D2A34852  20.573  36.915   8.264
 2594POPC   C3A34853  20.594  36.942   7.964
 2594POPC   C4A34854  20.652  36.862   7.664
 2594POPC   C1B34855  20.530  37.144   8.564
 2594POPC   C2B34856  20.596  37.112   8.264
 2594POPC   C3B34857  20.536  37.161   7.964
 2594POPC   C4B34858  20.612  37.184   7.664
 2595POPC   NC334859  33.783   8.964   9.464
 2595POPC   PO434860  33.831   8.930   9.164
 2595POPC   GL134861  33.813   8.929   8.864
 2595POPC   GL234862  33.803   8.855   8.864
 2595POPC   C1A34863  33.784   8.960   8.564
 2595POPC   D2A34864  33.822   8.992   8.264
 2595POPC   C3A34865  33.770   8.948   7.964
 2595POPC   C4A34866  33.799   8.949   7.664
 2595POPC   C1B34867  33.872   8.767   8.564
 2595POPC   C2B34868  33.924   8.768   8.264
 2595POPC   C3B34869  33.920   8.744   7.964
 2595POPC   C4B34870  33.841   8.691   7.664
 2596POPC   NC334871  12.815   3.581   9.464
 2596POPC   PO434872  12.834   3.546   9.164
 2596POPC   GL134873  12.883   3.558   8.864
 2596POPC   GL234874  12.987   3.460   8.864
 2596POPC   C1A34875  12.840   3.509   8.564
 2596POPC   D2A34876  12.868   3.590   8.264
 2596POPC   C3A34877  12.844   3.557   7.964
 2596POPC   C4A34878  12.871   3.546   7.664
 2596POPC   C1B34879  13.089   3.424   8.564
 2596POPC   C2B34880  13.072   3.420   8.264
 2596POPC   C3B34881  13.040   3.468   7.964
 2596POPC   C4B34882  13.073   3.464   7.664
 2597POPC   NC334883  22.904  36.091   9.464
 2597POPC   PO434884  22.923  36.153   9.164
 2597POPC   GL134885  22.910  36.080   8.864
 2597POPC   GL234886  22.897  36.272   8.864
 2597POPC   C1A34887  22.908  36.176   8.564
 2597POPC   D2A34888  22.957  36.124   8.264
 2597POPC   C3A34889  22.951  36.099   7.964
 2597POPC   C4A34890  22.890  36.153   7.664
 2597POPC   C1B34891  22.805  36.306   8.564
 2597POPC   C2B34892  22.856  36.306   8.264
 2597POPC   C3B34893  22.790  36.354   7.964
 2597POPC   C4B34894  22.809  36.393   7.664
 2598POPC   NC334895  32.269  26.067   9.464
 2598POPC   PO434896  32.205  26.064   9.164
 2598POPC   GL134897  32.207  26.040   8.864
 2598POPC   GL234898  32.387  26.116   8.864
 2598POPC   C1A34899  32.261  26.075   8.564
 2598POPC   D2A34900  32.268  26.059   8.264
 2598POPC   C3A34901  32.275  25.995   7.964
 2598POPC   C4A34902  32.245  26.088   7.664
 2598POPC   C1B34903  32.457  26.163   8.564
 2598POPC   C2B34904  32.480  26.185   8.264
 2598POPC   C3B34905  32.448  26.166   7.964
 2598POPC   C4B34906  32.450  26.219   7.664
 2599POPC   NC334907  24.504  38.420   9.464
 2599POPC   PO434908  24.442  38.458   9.164
 2599POPC   GL134909  24.492  38.495   8.864
 2599POPC   GL234910  24.413  38.578   8.864
 2599POPC   C1A34911  24.443  38.498   8.564
 2599POPC   D2A34912  24.518  38.461   8.264
 2599POPC   C3A34913  24.460  38.443   7.964
 2599POPC   C4A34914  24.466  38.499   7.664
 2599POPC   C1B34915  24.303  38.643   8.564
 2599POPC   C2B34916  24.316  38.602   8.264
 2599POPC   C3B34917  24.354  38.621   7.964
 2599POPC   C4B34918  24.382  38.603   7.664
 2600POPC   NC334919  25.310   7.425   9.464
 2600POPC   PO434920  25.245   7.391   9.164
 2600POPC   GL134921  25.256   7.409   8.864
 2600POPC   GL234922  25.170   7.451   8.864
 2600POPC   C1A34923  25.251   7.445   8.564
 2600POPC   D2A34924  25.299   7.375   8.264
 2600POPC   C3A34925  25.256   7.469   7.964
 2600POPC   C4A34926  25.311   7.426   7.664
 2600POPC   C1B34927  24.993   7.502   8.564
 2600POPC   C2B34928  25.047   7.430   8.264
 2600POPC   C3B34929  25.004   7.469   7.964
 2600POPC   C4B34930  25.025   7.443   7.664
 2601POPC   NC334931   5.098  21.405   9.464
 2601POPC   PO434932   5.052  21.420   9.164
 2601POPC   GL134933   5.078  21.337   8.864
 2601POPC   GL234934   5.146  21.430   8.864
 2601POPC   C1A34935   5.107  21.405   8.564
 2601POPC   D2A34936   5.063  21.358   8.264
 2601POPC   C3A34937   5.087  21.435   7.964
 2601POPC   C4A34938   5.124  21.433   7.664
 2601POPC   C1B34939   5.272  21.594   8.564
 2601POPC   C2B34940   5.225  21.532   8.264
 2601POPC   C3B34941   5.251  21.587   7.964
 2601POPC   C4B34942   5.247  21.541   7.664
 2602POPC   NC334943  39.211  17.534   9.464
 2602POPC   PO434944  39.189  17.509   9.164
 2602POPC   GL134945  39.266  17.549   8.864
 2602POPC   GL234946  39.364  17.595   8.864
 2602POPC   C1A34947  39.246  17.506   8.564
 2602POPC   D2A34948  39.224  17.512   8.264
 2602POPC   C3A34949  39.208  17.543   7.964
 2602POPC   C4A34950  39.202  17.477   7.664
 2602POPC   C1B34951  39.399  17.680   8.564
 2602POPC   C2B34952  39.454  17.678   8.264
 2602POPC   C3B34953  39.435  17.682   7.964
 2602POPC   C4B34954  39.433  17.647   7.664
 2603POPC   NC334955  31.490   9.715   9.464
 2603POPC   PO434956  31.491   9.710   9.164
 2603POPC   GL134957  31.433   9.789   8.864
 2603POPC   GL234958  31.429   9.802   8.864
 2603POPC   C1A34959  31.505   9.794   8.564
 2603POPC   D2A34960  31.506   9.785   8.264
 2603POPC   C3A34961  31.520   9.720   7.964
 2603POPC   C4A34962  31.422   9.750   7.664
 2603POPC   C1B34963  31.328   9.928   8.564
 2603POPC   C2B34964  31.280   9.979   8.264
 2603POPC   C3B34965  31.265   9.938   7.964
 2603POPC   C4B34966  31.346   9.904   7.664
 2604POPC   NC334967  25.231  12.108   9.464
 2604POPC   PO434968  25.297  12.096   9.164
 2604POPC   GL134969  25.238  12.055   8.864
 2604POPC   GL234970  25.436  12.085   8.864
 2604POPC   C1A34971  25.234  12.098   8.564
 2604POPC   D2A34972  25.302  12.047   8.264
 2604POPC   C3A34973  25.218  12.038   7.964
 2604POPC   C4A34974  25.302  12.027   7.664
 2604POPC   C1B34975  25.467  12.162   8.564
 2604POPC   C2B34976  25.490  12.080   8.264
 2604POPC   C3B34977  25.510  12.098   7.964
 2604POPC   C4B34978  25.467  12.125   7.664
 2605POPC   NC334979  24.523  24.538   9.464
 2605POPC   PO434980  24.456  24.480   9.164
 2605POPC   GL134981  24.478  24.450   8.864
 2605POPC   GL234982  24.535  24.638   8.864
 2605POPC   C1A34983  24.536  24.467   8.564
 2605POPC   D2A34984  24.486  24.472   8.264
 2605POPC   C3A34985  24.474  24.507   7.964
 2605POPC   C4A34986  24.535  24.450   7.664
 2605POPC   C1B34987  24.541  24.697   8.564
 2605POPC   C2B34988  24.539  24.696   8.264
 2605POPC   C3B34989  24.581  24.685   7.964
 2605POPC   C4B34990  24.540  24.716   7.664
 2606POPC   NC334991  19.059  32.234   9.464
 2606POPC   PO434992  19.055  32.253   9.164
 2606POPC   GL134993  19.086  32.200   8.864
 2606POPC   GL234994  19.131  32.253   8.864
 2606POPC   C1A34995  19.010  32.215   8.564
 2606POPC   D2A34996  19.083  32.228   8.264
 2606POPC   C3A34997  19.060  32.238   7.964
 2606POPC   C4A34998  19.100  32.269   7.664
 2606POPC   C1B34999  19.307  32.387   8.564
 2606POPC   C2B35000  19.320  32.355   8.264
 2606POPC   C3B35001  19.284  32.363   7.964
 2606POPC   C4B35002  19.294  32.333   7.664
 2607POPC   NC335003  19.071  13.643   9.464
 2607POPC   PO435004  19.011  13.664   9.164
 2607POPC   GL135005  19.055  13.587   8.864
 2607POPC   GL235006  18.947  13.752   8.864
 2607POPC   C1A35007  19.053  13.615   8.564
 2607POPC   D2A35008  19.037  13.646   8.264
 2607POPC   C3A35009  19.011  13.661   7.964
 2607POPC   C4A35010  19.026  13.596   7.664
 2607POPC   C1B35011  18.918  13.765   8.564
 2607POPC   C2B35012  18.840  13.769   8.264
 2607POPC   C3B35013  18.889  13.788   7.964
 2607POPC   C4B35014  18.899  13.779   7.664
 2608POPC   NC335015  12.871   7.463   9.464
 2608POPC   PO435016  12.828   7.404   9.164
 2608POPC   GL135017  12.899   7.448   8.864
 2608POPC   GL235018  12.832   7.539   8.864
 2608POPC   C1A35019  12.890   7.372   8.564
 2608POPC   D2A35020  12.804   7.405   8.264
 2608POPC   C3A35021  12.847   7.429   7.964
 2608POPC   C4A35022  12.880   7.404   7.664
 2608POPC   C1B35023  12.733   7.658   8.564
 2608POPC   C2B35024  12.778   7.609   8.264
 2608POPC   C3B35025  12.802   7.638   7.964
 2608POPC   C4B35026  12.737   7.649   7.664
 2609POPC   NC335027  15.179  36.919   9.464
 2609POPC   PO435028  15.181  36.917   9.164
 2609POPC   GL135029  15.205  36.908   8.864
 2609POPC   GL235030  15.053  36.782   8.864
 2609POPC   C1A35031  15.136  36.887   8.564
 2609POPC   D2A35032  15.193  36.924   8.264
 2609POPC   C3A35033  15.181  36.900   7.964
 2609POPC   C4A35034  15.227  36.924   7.664
 2609POPC   C1B35035  15.012  36.769   8.564
 2609POPC   C2B35036  15.020  36.694   8.264
 2609POPC   C3B35037  14.988  36.774   7.964
 2609POPC   C4B35038  15.003  36.776   7.664
 2610POPC   NC335039  12.825   9.739   9.464
 2610POPC   PO435040  12.884   9.755   9.164
 2610POPC   GL135041  12.807   9.727   8.864
 2610POPC   GL235042  13.010   9.778   8.864
 2610POPC   C1A35043  12.866   9.755   8.564
 2610POPC   D2A35044  12.823   9.770   8.264
 2610POPC   C3A35045  12.891   9.782   7.964
 2610POPC   C4A35046  12.823   9.796   7.664
 2610POPC   C1B35047  13.114   9.786   8.564
 2610POPC   C2B35048  13.057   9.835   8.264
 2610POPC   C3B35049  13.047   9.808   7.964
 2610POPC   C4B35050  13.122   9.799   7.664
 2611POPC   NC335051   2.752  40.808   9.464
 2611POPC   PO435052   2.734  40.741   9.164
 2611POPC   GL135053   2.782  40.812   8.864
 2611POPC   GL235054   2.630  40.862   8.864
 2611POPC   C1A35055   2.776  40.828   8.564
 2611POPC   D2A35056   2.798  40.780   8.264
 2611POPC   C3A35057   2.769  40.831   7.964
 2611POPC   C4A35058   2.792  40.742   7.664
 2611POPC   C1B35059   2.539  40.904   8.564
 2611POPC   C2B35060   2.579  40.907   8.264
 2611POPC   C3B35061   2.591  40.940   7.964
 2611POPC   C4B35062   2.625  40.937   7.664
 2612POPC   NC335063   3.506  29.149   9.464
 2612POPC   PO435064   3.529  29.180   9.164
 2612POPC   GL135065   3.547  29.187   8.864
 2612POPC   GL235066   3.559  29.008   8.864
 2612POPC   C1A35067   3.502  29.097   8.564
 2612POPC   D2A35068   3.553  29.156   8.264
 2612POPC   C3A35069   3.549  29.138   7.964
 2612POPC   C4A35070   3.506  29.151   7.664
 2612POPC   C1B35071   3.460  28.878   8.564
 2612POPC   C2B35072   3.492  28.926   8.264
 2612POPC   C3B35073   3.477  28.879   7.964
 2612POPC   C4B35074   3.475  28.927   7.664
 2613POPC   NC335075  44.618  36.925   9.464
 2613POPC   PO435076  44.615  36.926   9.164
 2613POPC   GL135077  44.665  36.910   8.864
 2613POPC   GL235078  44.614  36.980   8.864
 2613POPC   C1A35079  44.684  36.893   8.564
 2613POPC   D2A35080  44.678  36.944   8.264
 2613POPC   C3A35081  44.646  36.880   7.964
 2613POPC   C4A35082  44.681  36.868   7.664
 2613POPC   C1B35083  44.576  37.111   8.564
 2613POPC   C2B35084  44.555  37.141   8.264
 2613POPC   C3B35085  44.526  37.097   7.964
 2613POPC   C4B35086  44.569  37.137   7.664
 2614POPC   NC335087   3.502   4.318   9.464
 2614POPC   PO435088   3.523   4.274   9.164
 2614POPC   GL135089   3.540   4.308   8.864
 2614POPC   GL235090   3.506   4.429   8.864
 2614POPC   C1A35091   3.546   4.358   8.564
 2614POPC   D2A35092   3.509   4.321   8.264
 2614POPC   C3A35093   3.545   4.350   7.964
 2614POPC   C4A35094   3.572   4.328   7.664
 2614POPC   C1B35095   3.398   4.517   8.564
 2614POPC   C2B35096   3.438   4.496   8.264
 2614POPC   C3B35097   3.386   4.495   7.964
 2614POPC   C4B35098   3.421   4.501   7.664
 2615POPC   NC335099  19.816  25.280   9.464
 2615POPC   PO435100  19.881  25.274   9.164
 2615POPC   GL135101  19.845  25.300   8.864
 2615POPC   GL235102  19.681  25.280   8.864
 2615POPC   C1A35103  19.801  25.244   8.564
 2615POPC   D2A35104  19.833  25.296   8.264
 2615POPC   C3A35105  19.832  25.299   7.964
 2615POPC   C4A35106  19.861  25.271   7.664
 2615POPC   C1B35107  19.612  25.163   8.564
 2615POPC   C2B35108  19.611  25.252   8.264
 2615POPC   C3B35109  19.598  25.159   7.964
 2615POPC   C4B35110  19.552  25.245   7.664
 2616POPC   NC335111  24.484   1.972   9.464
 2616POPC   PO435112  24.528   1.981   9.164
 2616POPC   GL135113  24.454   1.988   8.864
 2616POPC   GL235114  24.650   2.011   8.864
 2616POPC   C1A35115  24.526   1.987   8.564
 2616POPC   D2A35116  24.526   1.997   8.264
 2616POPC   C3A35117  24.524   1.963   7.964
 2616POPC   C4A35118  24.481   2.032   7.664
 2616POPC   C1B35119  24.720   2.093   8.564
 2616POPC   C2B35120  24.714   2.106   8.264
 2616POPC   C3B35121  24.704   2.064   7.964
 2616POPC   C4B35122  24.740   2.116   7.664
 2617POPC   NC335123  13.654  42.356   9.464
 2617POPC   PO435124  13.612  42.347   9.164
 2617POPC   GL135125  13.612  42.334   8.864
 2617POPC   GL235126  13.621  42.211   8.864
 2617POPC   C1A35127  13.669  42.330   8.564
 2617POPC   D2A35128  13.630  42.301   8.264
 2617POPC   C3A35129  13.651  42.316   7.964
 2617POPC   C4A35130  13.634  42.357   7.664
 2617POPC   C1B35131  13.671  42.101   8.564
 2617POPC   C2B35132  13.659  42.132   8.264
 2617POPC   C3B35133  13.701  42.072   7.964
 2617POPC   C4B35134  13.736  42.113   7.664
 2618POPC   NC335135  10.535  28.344   9.464
 2618POPC   PO435136  10.551  28.371   9.164
 2618POPC   GL135137  10.532  28.404   8.864
 2618POPC   GL235138  10.524  28.543   8.864
 2618POPC   C1A35139  10.517  28.329   8.564
 2618POPC   D2A35140  10.498  28.361   8.264
 2618POPC   C3A35141  10.511  28.384   7.964
 2618POPC   C4A35142  10.550  28.407   7.664
 2618POPC   C1B35143  10.497  28.642   8.564
 2618POPC   C2B35144  10.524  28.632   8.264
 2618POPC   C3B35145  10.502  28.602   7.964
 2618POPC   C4B35146  10.582  28.590   7.664
 2619POPC   NC335147   8.236   5.075   9.464
 2619POPC   PO435148   8.239   5.069   9.164
 2619POPC   GL135149   8.190   5.044   8.864
 2619POPC   GL235150   8.238   4.924   8.864
 2619POPC   C1A35151   8.225   5.114   8.564
 2619POPC   D2A35152   8.236   5.097   8.264
 2619POPC   C3A35153   8.207   5.053   7.964
 2619POPC   C4A35154   8.230   5.074   7.664
 2619POPC   C1B35155   8.229   4.804   8.564
 2619POPC   C2B35156   8.206   4.828   8.264
 2619POPC   C3B35157   8.175   4.882   7.964
 2619POPC   C4B35158   8.205   4.890   7.664
 2620POPC   NC335159  36.935  28.415   9.464
 2620POPC   PO435160  36.946  28.320   9.164
 2620POPC   GL135161  36.921  28.353   8.864
 2620POPC   GL235162  36.789  28.427   8.864
 2620POPC   C1A35163  36.885  28.320   8.564
 2620POPC   D2A35164  36.917  28.333   8.264
 2620POPC   C3A35165  36.918  28.407   7.964
 2620POPC   C4A35166  36.856  28.322   7.664
 2620POPC   C1B35167  36.624  28.472   8.564
 2620POPC   C2B35168  36.682  28.453   8.264
 2620POPC   C3B35169  36.629  28.426   7.964
 2620POPC   C4B35170  36.629  28.436   7.664
 2621POPC   NC335171  34.538   9.795   9.464
 2621POPC   PO435172  34.576   9.715   9.164
 2621POPC   GL135173  34.604   9.791   8.864
 2621POPC   GL235174  34.460   9.706   8.864
 2621POPC   C1A35175  34.581   9.718   8.564
 2621POPC   D2A35176  34.581   9.766   8.264
 2621POPC   C3A35177  34.596   9.744   7.964
 2621POPC   C4A35178  34.605   9.752   7.664
 2621POPC   C1B35179  34.342   9.729   8.564
 2621POPC   C2B35180  34.295   9.698   8.264
 2621POPC   C3B35181  34.340   9.739   7.964
 2621POPC   C4B35182  34.281   9.668   7.664
 2622POPC   NC335183  12.835  22.938   9.464
 2622POPC   PO435184  12.827  22.966   9.164
 2622POPC   GL135185  12.888  22.941   8.864
 2622POPC   GL235186  12.774  22.926   8.864
 2622POPC   C1A35187  12.882  22.937   8.564
 2622POPC   D2A35188  12.864  22.928   8.264
 2622POPC   C3A35189  12.884  22.951   7.964
 2622POPC   C4A35190  12.862  22.940   7.664
 2622POPC   C1B35191  12.613  22.957   8.564
 2622POPC   C2B35192  12.557  22.972   8.264
 2622POPC   C3B35193  12.644  23.007   7.964
 2622POPC   C4B35194  12.591  22.982   7.664
 2623POPC   NC335195  34.580  12.061   9.464
 2623POPC   PO435196  34.621  12.042   9.164
 2623POPC   GL135197  34.615  12.073   8.864
 2623POPC   GL235198  34.478  12.032   8.864
 2623POPC   C1A35199  34.574  12.097   8.564
 2623POPC   D2A35200  34.542  12.087   8.264
 2623POPC   C3A35201  34.535  12.074   7.964
 2623POPC   C4A35202  34.580  12.076   7.664
 2623POPC   C1B35203  34.332  12.038   8.564
 2623POPC   C2B35204  34.334  12.038   8.264
 2623POPC   C3B35205  34.354  12.029   7.964
 2623POPC   C4B35206  34.366  12.060   7.664
 2624POPC   NC335207  15.184  36.085   9.464
 2624POPC   PO435208  15.205  36.101   9.164
 2624POPC   GL135209  15.199  36.088   8.864
 2624POPC   GL235210  15.288  36.239   8.864
 2624POPC   C1A35211  15.138  36.116   8.564
 2624POPC   D2A35212  15.221  36.105   8.264
 2624POPC   C3A35213  15.130  36.120   7.964
 2624POPC   C4A35214  15.178  36.153   7.664
 2624POPC   C1B35215  15.348  36.325   8.564
 2624POPC   C2B35216  15.345  36.315   8.264
 2624POPC   C3B35217  15.369  36.279   7.964
 2624POPC   C4B35218  15.340  36.313   7.664
 2625POPC   NC335219  33.757  24.514   9.464
 2625POPC   PO435220  33.750  24.463   9.164
 2625POPC   GL135221  33.765  24.493   8.864
 2625POPC   GL235222  33.792  24.345   8.864
 2625POPC   C1A35223  33.766  24.496   8.564
 2625POPC   D2A35224  33.832  24.490   8.264
 2625POPC   C3A35225  33.766  24.451   7.964
 2625POPC   C4A35226  33.811  24.463   7.664
 2625POPC   C1B35227  33.806  24.253   8.564
 2625POPC   C2B35228  33.785  24.291   8.264
 2625POPC   C3B35229  33.743  24.200   7.964
 2625POPC   C4B35230  33.709  24.217   7.664
 2626POPC   NC335231  33.841   3.522   9.464
 2626POPC   PO435232  33.802   3.536   9.164
 2626POPC   GL135233  33.816   3.553   8.864
 2626POPC   GL235234  33.756   3.384   8.864
 2626POPC   C1A35235  33.769   3.559   8.564
 2626POPC   D2A35236  33.802   3.588   8.264
 2626POPC   C3A35237  33.808   3.591   7.964
 2626POPC   C4A35238  33.760   3.538   7.664
 2626POPC   C1B35239  33.734   3.255   8.564
 2626POPC   C2B35240  33.778   3.246   8.264
 2626POPC   C3B35241  33.771   3.291   7.964
 2626POPC   C4B35242  33.791   3.332   7.664
 2627POPC   NC335243  19.877   0.392   9.464
 2627POPC   PO435244  19.839   0.408   9.164
 2627POPC   GL135245  19.858   0.414   8.864
 2627POPC   GL235246  19.914   0.401   8.864
 2627POPC   C1A35247  19.852   0.400   8.564
 2627POPC   D2A35248  19.839   0.417   8.264
 2627POPC   C3A35249  19.853   0.404   7.964
 2627POPC   C4A35250  19.815   0.403   7.664
 2627POPC   C1B35251  20.058   0.317   8.564
 2627POPC   C2B35252  20.090   0.349   8.264
 2627POPC   C3B35253  20.009   0.317   7.964
 2627POPC   C4B35254  20.044   0.358   7.664
 2628POPC   NC335255  20.569   2.030   9.464
 2628POPC   PO435256  20.599   1.961   9.164
 2628POPC   GL135257  20.611   2.006   8.864
 2628POPC   GL235258  20.684   1.928   8.864
 2628POPC   C1A35259  20.600   1.983   8.564
 2628POPC   D2A35260  20.581   2.021   8.264
 2628POPC   C3A35261  20.573   1.985   7.964
 2628POPC   C4A35262  20.623   1.997   7.664
 2628POPC   C1B35263  20.860   1.942   8.564
 2628POPC   C2B35264  20.884   1.903   8.264
 2628POPC   C3B35265  20.859   1.952   7.964
 2628POPC   C4B35266  20.839   1.950   7.664
 2629POPC   NC335267   1.987  42.314   9.464
 2629POPC   PO435268   1.951  42.369   9.164
 2629POPC   GL135269   1.990  42.368   8.864
 2629POPC   GL235270   2.055  42.189   8.864
 2629POPC   C1A35271   2.021  42.366   8.564
 2629POPC   D2A35272   2.025  42.334   8.264
 2629POPC   C3A35273   2.034  42.289   7.964
 2629POPC   C4A35274   1.992  42.380   7.664
 2629POPC   C1B35275   2.042  42.048   8.564
 2629POPC   C2B35276   2.032  42.097   8.264
 2629POPC   C3B35277   2.035  42.083   7.964
 2629POPC   C4B35278   2.078  42.108   7.664
 2630POPC   NC335279  12.084  33.036   9.464
 2630POPC   PO435280  12.111  32.974   9.164
 2630POPC   GL135281  12.055  32.985   8.864
 2630POPC   GL235282  12.036  32.900   8.864
 2630POPC   C1A35283  12.120  33.054   8.564
 2630POPC   D2A35284  12.118  32.982   8.264
 2630POPC   C3A35285  12.095  32.983   7.964
 2630POPC   C4A35286  12.053  32.994   7.664
 2630POPC   C1B35287  11.892  32.872   8.564
 2630POPC   C2B35288  11.871  32.855   8.264
 2630POPC   C3B35289  11.904  32.854   7.964
 2630POPC   C4B35290  11.887  32.855   7.664
 2631POPC   NC335291  26.078   2.785   9.464
 2631POPC   PO435292  26.069   2.782   9.164
 2631POPC   GL135293  26.045   2.813   8.864
 2631POPC   GL235294  25.950   2.845   8.864
 2631POPC   C1A35295  26.058   2.736   8.564
 2631POPC   D2A35296  25.997   2.740   8.264
 2631POPC   C3A35297  25.997   2.813   7.964
 2631POPC   C4A35298  26.052   2.742   7.664
 2631POPC   C1B35299  25.842   2.862   8.564
 2631POPC   C2B35300  25.805   2.856   8.264
 2631POPC   C3B35301  25.832   2.874   7.964
 2631POPC   C4B35302  25.826   2.899   7.664
 2632POPC   NC335303  33.793  44.630   9.464
 2632POPC   PO435304  33.829  44.615   9.164
 2632POPC   GL135305  33.750  44.622   8.864
 2632POPC   GL235306  33.914  44.752   8.864
 2632POPC   C1A35307  33.806  44.666   8.564
 2632POPC   D2A35308  33.757  44.651   8.264
 2632POPC   C3A35309  33.806  44.683   7.964
 2632POPC   C4A35310  33.788  44.705   7.664
 2632POPC   C1B35311  33.959  44.802   8.564
 2632POPC   C2B35312  34.021  44.883   8.264
 2632POPC   C3B35313  33.936  44.790   7.964
 2632POPC   C4B35314  33.938  44.811   7.664
 2633POPC   NC335315   8.195   3.537   9.464
 2633POPC   PO435316   8.181   3.570   9.164
 2633POPC   GL135317   8.171   3.499   8.864
 2633POPC   GL235318   8.061   3.522   8.864
 2633POPC   C1A35319   8.172   3.555   8.564
 2633POPC   D2A35320   8.223   3.584   8.264
 2633POPC   C3A35321   8.188   3.495   7.964
 2633POPC   C4A35322   8.183   3.532   7.664
 2633POPC   C1B35323   7.947   3.417   8.564
 2633POPC   C2B35324   8.015   3.400   8.264
 2633POPC   C3B35325   7.951   3.480   7.964
 2633POPC   C4B35326   7.944   3.421   7.664
 2634POPC   NC335327  11.324  22.984   9.464
 2634POPC   PO435328  11.324  22.925   9.164
 2634POPC   GL135329  11.255  22.934   8.864
 2634POPC   GL235330  11.339  22.810   8.864
 2634POPC   C1A35331  11.310  22.916   8.564
 2634POPC   D2A35332  11.263  22.927   8.264
 2634POPC   C3A35333  11.273  22.908   7.964
 2634POPC   C4A35334  11.305  22.896   7.664
 2634POPC   C1B35335  11.315  22.667   8.564
 2634POPC   C2B35336  11.313  22.708   8.264
 2634POPC   C3B35337  11.309  22.709   7.964
 2634POPC   C4B35338  11.349  22.686   7.664
 2635POPC   NC335339   8.241   1.185   9.464
 2635POPC   PO435340   8.180   1.207   9.164
 2635POPC   GL135341   8.190   1.167   8.864
 2635POPC   GL235342   8.254   1.303   8.864
 2635POPC   C1A35343   8.210   1.207   8.564
 2635POPC   D2A35344   8.171   1.249   8.264
 2635POPC   C3A35345   8.154   1.185   7.964
 2635POPC   C4A35346   8.229   1.180   7.664
 2635POPC   C1B35347   8.383   1.349   8.564
 2635POPC   C2B35348   8.352   1.341   8.264
 2635POPC   C3B35349   8.428   1.406   7.964
 2635POPC   C4B35350   8.420   1.359   7.664
 2636POPC   NC335351  41.519  14.427   9.464
 2636POPC   PO435352  41.548  14.387   9.164
 2636POPC   GL135353  41.547  14.423   8.864
 2636POPC   GL235354  41.484  14.480   8.864
 2636POPC   C1A35355  41.588  14.438   8.564
 2636POPC   D2A35356  41.594  14.381   8.264
 2636POPC   C3A35357  41.538  14.412   7.964
 2636POPC   C4A35358  41.567  14.440   7.664
 2636POPC   C1B35359  41.344  14.546   8.564
 2636POPC   C2B35360  41.369  14.507   8.264
 2636POPC   C3B35361  41.291  14.476   7.964
 2636POPC   C4B35362  41.375  14.511   7.664
 2637POPC   NC335363  30.735  39.238   9.464
 2637POPC   PO435364  30.650  39.248   9.164
 2637POPC   GL135365  30.739  39.271   8.864
 2637POPC   GL235366  30.660  39.337   8.864
 2637POPC   C1A35367  30.730  39.261   8.564
 2637POPC   D2A35368  30.735  39.259   8.264
 2637POPC   C3A35369  30.705  39.266   7.964
 2637POPC   C4A35370  30.686  39.185   7.664
 2637POPC   C1B35371  30.689  39.513   8.564
 2637POPC   C2B35372  30.699  39.513   8.264
 2637POPC   C3B35373  30.642  39.525   7.964
 2637POPC   C4B35374  30.700  39.462   7.664
 2638POPC   NC335375  40.790  14.451   9.464
 2638POPC   PO435376  40.815  14.378   9.164
 2638POPC   GL135377  40.816  14.399   8.864
 2638POPC   GL235378  40.943  14.429   8.864
 2638POPC   C1A35379  40.775  14.423   8.564
 2638POPC   D2A35380  40.789  14.364   8.264
 2638POPC   C3A35381  40.739  14.356   7.964
 2638POPC   C4A35382  40.827  14.380   7.664
 2638POPC   C1B35383  41.044  14.431   8.564
 2638POPC   C2B35384  41.047  14.405   8.264
 2638POPC   C3B35385  40.992  14.376   7.964
 2638POPC   C4B35386  41.077  14.387   7.664
 2639POPC   NC335387  31.474  42.315   9.464
 2639POPC   PO435388  31.468  42.301   9.164
 2639POPC   GL135389  31.446  42.374   8.864
 2639POPC   GL235390  31.362  42.354   8.864
 2639POPC   C1A35391  31.471  42.304   8.564
 2639POPC   D2A35392  31.511  42.321   8.264
 2639POPC   C3A35393  31.460  42.360   7.964
 2639POPC   C4A35394  31.460  42.356   7.664
 2639POPC   C1B35395  31.218  42.339   8.564
 2639POPC   C2B35396  31.173  42.362   8.264
 2639POPC   C3B35397  31.244  42.333   7.964
 2639POPC   C4B35398  31.192  42.385   7.664
 2640POPC   NC335399  30.649  15.186   9.464
 2640POPC   PO435400  30.712  15.133   9.164
 2640POPC   GL135401  30.740  15.198   8.864
 2640POPC   GL235402  30.569  15.135   8.864
 2640POPC   C1A35403  30.657  15.153   8.564
 2640POPC   D2A35404  30.678  15.153   8.264
 2640POPC   C3A35405  30.652  15.197   7.964
 2640POPC   C4A35406  30.655  15.130   7.664
 2640POPC   C1B35407  30.460  15.170   8.564
 2640POPC   C2B35408  30.478  15.192   8.264
 2640POPC   C3B35409  30.450  15.158   7.964
 2640POPC   C4B35410  30.490  15.137   7.664
 2641POPC   NC335411  26.014  43.075   9.464
 2641POPC   PO435412  26.065  43.107   9.164
 2641POPC   GL135413  26.003  43.061   8.864
 2641POPC   GL235414  25.974  43.204   8.864
 2641POPC   C1A35415  26.002  43.093   8.564
 2641POPC   D2A35416  25.997  43.135   8.264
 2641POPC   C3A35417  26.051  43.131   7.964
 2641POPC   C4A35418  26.029  43.152   7.664
 2641POPC   C1B35419  25.971  43.377   8.564
 2641POPC   C2B35420  25.985  43.330   8.264
 2641POPC   C3B35421  26.049  43.348   7.964
 2641POPC   C4B35422  25.974  43.353   7.664
 2642POPC   NC335423  39.226  33.758   9.464
 2642POPC   PO435424  39.270  33.798   9.164
 2642POPC   GL135425  39.198  33.847   8.864
 2642POPC   GL235426  39.190  33.919   8.864
 2642POPC   C1A35427  39.249  33.759   8.564
 2642POPC   D2A35428  39.198  33.788   8.264
 2642POPC   C3A35429  39.192  33.774   7.964
 2642POPC   C4A35430  39.272  33.800   7.664
 2642POPC   C1B35431  39.117  34.011   8.564
 2642POPC   C2B35432  39.112  34.005   8.264
 2642POPC   C3B35433  39.121  34.035   7.964
 2642POPC   C4B35434  39.188  33.996   7.664
 2643POPC   NC335435  15.179   8.205   9.464
 2643POPC   PO435436  15.159   8.197   9.164
 2643POPC   GL135437  15.179   8.190   8.864
 2643POPC   GL235438  15.278   8.074   8.864
 2643POPC   C1A35439  15.153   8.243   8.564
 2643POPC   D2A35440  15.191   8.240   8.264
 2643POPC   C3A35441  15.199   8.193   7.964
 2643POPC   C4A35442  15.163   8.156   7.664
 2643POPC   C1B35443  15.294   7.957   8.564
 2643POPC   C2B35444  15.257   7.935   8.264
 2643POPC   C3B35445  15.333   7.994   7.964
 2643POPC   C4B35446  15.302   7.941   7.664
 2644POPC   NC335447  32.993   9.771   9.464
 2644POPC   PO435448  33.021   9.772   9.164
 2644POPC   GL135449  32.977   9.717   8.864
 2644POPC   GL235450  33.057   9.685   8.864
 2644POPC   C1A35451  33.052   9.780   8.564
 2644POPC   D2A35452  33.071   9.745   8.264
 2644POPC   C3A35453  33.006   9.757   7.964
 2644POPC   C4A35454  33.015   9.710   7.664
 2644POPC   C1B35455  33.211   9.512   8.564
 2644POPC   C2B35456  33.215   9.561   8.264
 2644POPC   C3B35457  33.205   9.511   7.964
 2644POPC   C4B35458  33.142   9.544   7.664
 2645POPC   NC335459   5.061  20.657   9.464
 2645POPC   PO435460   5.097  20.655   9.164
 2645POPC   GL135461   5.106  20.640   8.864
 2645POPC   GL235462   4.967  20.539   8.864
 2645POPC   C1A35463   5.084  20.574   8.564
 2645POPC   D2A35464   5.119  20.653   8.264
 2645POPC   C3A35465   5.118  20.592   7.964
 2645POPC   C4A35466   5.097  20.637   7.664
 2645POPC   C1B35467   4.959  20.416   8.564
 2645POPC   C2B35468   4.914  20.461   8.264
 2645POPC   C3B35469   4.959  20.474   7.964
 2645POPC   C4B35470   4.915  20.451   7.664
 2646POPC   NC335471  44.624   3.536   9.464
 2646POPC   PO435472  44.643   3.531   9.164
 2646POPC   GL135473  44.631   3.504   8.864
 2646POPC   GL235474  44.537   3.436   8.864
 2646POPC   C1A35475  44.710   3.553   8.564
 2646POPC   D2A35476  44.639   3.523   8.264
 2646POPC   C3A35477  44.710   3.544   7.964
 2646POPC   C4A35478  44.636   3.554   7.664
 2646POPC   C1B35479  44.488   3.380   8.564
 2646POPC   C2B35480  44.505   3.427   8.264
 2646POPC   C3B35481  44.428   3.427   7.964
 2646POPC   C4B35482  44.460   3.364   7.664
 2647POPC   NC335483  22.193   8.968   9.464
 2647POPC   PO435484  22.179   9.001   9.164
 2647POPC   GL135485  22.161   9.010   8.864
 2647POPC   GL235486  22.047   8.938   8.864
 2647POPC   C1A35487  22.119   8.991   8.564
 2647POPC   D2A35488  22.211   8.991   8.264
 2647POPC   C3A35489  22.211   9.005   7.964
 2647POPC   C4A35490  22.171   8.993   7.664
 2647POPC   C1B35491  21.930   8.955   8.564
 2647POPC   C2B35492  21.895   9.026   8.264
 2647POPC   C3B35493  21.927   9.031   7.964
 2647POPC   C4B35494  21.869   9.021   7.664
 2648POPC   NC335495  42.364  23.668   9.464
 2648POPC   PO435496  42.315  23.708   9.164
 2648POPC   GL135497  42.316  23.698   8.864
 2648POPC   GL235498  42.230  23.646   8.864
 2648POPC   C1A35499  42.345  23.674   8.564
 2648POPC   D2A35500  42.286  23.683   8.264
 2648POPC   C3A35501  42.314  23.698   7.964
 2648POPC   C4A35502  42.296  23.729   7.664
 2648POPC   C1B35503  42.055  23.677   8.564
 2648POPC   C2B35504  42.120  23.672   8.264
 2648POPC   C3B35505  42.049  23.598   7.964
 2648POPC   C4B35506  42.058  23.644   7.664
 2649POPC   NC335507   4.316  35.367   9.464
 2649POPC   PO435508   4.285  35.371   9.164
 2649POPC   GL135509   4.308  35.363   8.864
 2649POPC   GL235510   4.364  35.464   8.864
 2649POPC   C1A35511   4.362  35.398   8.564
 2649POPC   D2A35512   4.355  35.304   8.264
 2649POPC   C3A35513   4.316  35.345   7.964
 2649POPC   C4A35514   4.361  35.364   7.664
 2649POPC   C1B35515   4.462  35.573   8.564
 2649POPC   C2B35516   4.421  35.580   8.264
 2649POPC   C3B35517   4.484  35.617   7.964
 2649POPC   C4B35518   4.444  35.560   7.664
 2650POPC   NC335519  37.659  21.363   9.464
 2650POPC   PO435520  37.656  21.381   9.164
 2650POPC   GL135521  37.650  21.362   8.864
 2650POPC   GL235522  37.812  21.376   8.864
 2650POPC   C1A35523  37.635  21.346   8.564
 2650POPC   D2A35524  37.712  21.424   8.264
 2650POPC   C3A35525  37.687  21.338   7.964
 2650POPC   C4A35526  37.647  21.390   7.664
 2650POPC   C1B35527  37.931  21.365   8.564
 2650POPC   C2B35528  37.939  21.303   8.264
 2650POPC   C3B35529  37.921  21.340   7.964
 2650POPC   C4B35530  37.967  21.337   7.664
 2651POPC   NC335531  42.351  32.210   9.464
 2651POPC   PO435532  42.376  32.240   9.164
 2651POPC   GL135533  42.323  32.291   8.864
 2651POPC   GL235534  42.230  32.261   8.864
 2651POPC   C1A35535  42.366  32.244   8.564
 2651POPC   D2A35536  42.307  32.224   8.264
 2651POPC   C3A35537  42.346  32.245   7.964
 2651POPC   C4A35538  42.325  32.218   7.664
 2651POPC   C1B35539  42.126  32.323   8.564
 2651POPC   C2B35540  42.111  32.355   8.264
 2651POPC   C3B35541  42.086  32.394   7.964
 2651POPC   C4B35542  42.144  32.389   7.664
 2652POPC   NC335543   6.645   2.803   9.464
 2652POPC   PO435544   6.616   2.779   9.164
 2652POPC   GL135545   6.686   2.778   8.864
 2652POPC   GL235546   6.677   2.630   8.864
 2652POPC   C1A35547   6.646   2.783   8.564
 2652POPC   D2A35548   6.645   2.787   8.264
 2652POPC   C3A35549   6.672   2.776   7.964
 2652POPC   C4A35550   6.693   2.746   7.664
 2652POPC   C1B35551   6.647   2.511   8.564
 2652POPC   C2B35552   6.661   2.555   8.264
 2652POPC   C3B35553   6.643   2.519   7.964
 2652POPC   C4B35554   6.655   2.531   7.664
 2653POPC   NC335555  32.986  21.418   9.464
 2653POPC   PO435556  33.068  21.400   9.164
 2653POPC   GL135557  32.977  21.423   8.864
 2653POPC   GL235558  32.949  21.439   8.864
 2653POPC   C1A35559  33.041  21.363   8.564
 2653POPC   D2A35560  32.989  21.364   8.264
 2653POPC   C3A35561  33.018  21.361   7.964
 2653POPC   C4A35562  33.035  21.384   7.664
 2653POPC   C1B35563  32.790  21.425   8.564
 2653POPC   C2B35564  32.776  21.413   8.264
 2653POPC   C3B35565  32.791  21.360   7.964
 2653POPC   C4B35566  32.759  21.354   7.664
 2654POPC   NC335567  21.354  33.802   9.464
 2654POPC   PO435568  21.419  33.808   9.164
 2654POPC   GL135569  21.428  33.810   8.864
 2654POPC   GL235570  21.519  33.754   8.864
 2654POPC   C1A35571  21.349  33.843   8.564
 2654POPC   D2A35572  21.368  33.764   8.264
 2654POPC   C3A35573  21.338  33.759   7.964
 2654POPC   C4A35574  21.408  33.778   7.664
 2654POPC   C1B35575  21.664  33.759   8.564
 2654POPC   C2B35576  21.678  33.762   8.264
 2654POPC   C3B35577  21.681  33.772   7.964
 2654POPC   C4B35578  21.661  33.819   7.664
 2655POPC   NC335579   9.756  15.227   9.464
 2655POPC   PO435580   9.714  15.183   9.164
 2655POPC   GL135581   9.729  15.144   8.864
 2655POPC   GL235582   9.650  15.190   8.864
 2655POPC   C1A35583   9.769  15.194   8.564
 2655POPC   D2A35584   9.778  15.221   8.264
 2655POPC   C3A35585   9.776  15.140   7.964
 2655POPC   C4A35586   9.781  15.202   7.664
 2655POPC   C1B35587   9.525  15.176   8.564
 2655POPC   C2B35588   9.537  15.084   8.264
 2655POPC   C3B35589   9.539  15.175   7.964
 2655POPC   C4B35590   9.502  15.166   7.664
 2656POPC   NC335591  41.543  29.102   9.464
 2656POPC   PO435592  41.588  29.194   9.164
 2656POPC   GL135593  41.596  29.112   8.864
 2656POPC   GL235594  41.454  29.191   8.864
 2656POPC   C1A35595  41.573  29.180   8.564
 2656POPC   D2A35596  41.573  29.166   8.264
 2656POPC   C3A35597  41.585  29.192   7.964
 2656POPC   C4A35598  41.515  29.161   7.664
 2656POPC   C1B35599  41.311  29.337   8.564
 2656POPC   C2B35600  41.323  29.305   8.264
 2656POPC   C3B35601  41.387  29.287   7.964
 2656POPC   C4B35602  41.341  29.311   7.664
 2657POPC   NC335603   2.785   1.962   9.464
 2657POPC   PO435604   2.723   1.942   9.164
 2657POPC   GL135605   2.753   1.946   8.864
 2657POPC   GL235606   2.662   2.037   8.864
 2657POPC   C1A35607   2.750   2.030   8.564
 2657POPC   D2A35608   2.770   1.988   8.264
 2657POPC   C3A35609   2.757   1.954   7.964
 2657POPC   C4A35610   2.790   1.943   7.664
 2657POPC   C1B35611   2.509   1.979   8.564
 2657POPC   C2B35612   2.529   1.971   8.264
 2657POPC   C3B35613   2.536   1.976   7.964
 2657POPC   C4B35614   2.541   2.018   7.664
 2658POPC   NC335615  26.785   8.954   9.464
 2658POPC   PO435616  26.852   9.017   9.164
 2658POPC   GL135617  26.787   8.966   8.864
 2658POPC   GL235618  26.759   8.907   8.864
 2658POPC   C1A35619  26.866   8.931   8.564
 2658POPC   D2A35620  26.862   8.944   8.264
 2658POPC   C3A35621  26.842   8.959   7.964
 2658POPC   C4A35622  26.859   8.936   7.664
 2658POPC   C1B35623  26.605   8.735   8.564
 2658POPC   C2B35624  26.655   8.766   8.264
 2658POPC   C3B35625  26.663   8.806   7.964
 2658POPC   C4B35626  26.651   8.794   7.664
 2659POPC   NC335627  19.047  12.099   9.464
 2659POPC   PO435628  19.013  12.124   9.164
 2659POPC   GL135629  19.086  12.054   8.864
 2659POPC   GL235630  18.983  12.138   8.864
 2659POPC   C1A35631  19.049  12.080   8.564
 2659POPC   D2A35632  19.058  12.083   8.264
 2659POPC   C3A35633  19.087  12.035   7.964
 2659POPC   C4A35634  19.106  12.039   7.664
 2659POPC   C1B35635  18.840  12.265   8.564
 2659POPC   C2B35636  18.898  12.224   8.264
 2659POPC   C3B35637  18.875  12.230   7.964
 2659POPC   C4B35638  18.895  12.278   7.664
 2660POPC   NC335639  23.706   1.242   9.464
 2660POPC   PO435640  23.756   1.172   9.164
 2660POPC   GL135641  23.678   1.169   8.864
 2660POPC   GL235642  23.771   1.068   8.864
 2660POPC   C1A35643  23.731   1.249   8.564
 2660POPC   D2A35644  23.757   1.225   8.264
 2660POPC   C3A35645  23.728   1.182   7.964
 2660POPC   C4A35646  23.667   1.263   7.664
 2660POPC   C1B35647  23.693   0.976   8.564
 2660POPC   C2B35648  23.735   0.984   8.264
 2660POPC   C3B35649  23.777   0.956   7.964
 2660POPC   C4B35650  23.699   0.921   7.664
 2661POPC   NC335651   1.199  40.013   9.464
 2661POPC   PO435652   1.213  40.020   9.164
 2661POPC   GL135653   1.167  40.026   8.864
 2661POPC   GL235654   1.147  40.167   8.864
 2661POPC   C1A35655   1.224  39.963   8.564
 2661POPC   D2A35656   1.200  40.002   8.264
 2661POPC   C3A35657   1.221  40.055   7.964
 2661POPC   C4A35658   1.252  40.006   7.664
 2661POPC   C1B35659   1.111  40.251   8.564
 2661POPC   C2B35660   1.192  40.288   8.264
 2661POPC   C3B35661   1.187  40.234   7.964
 2661POPC   C4B35662   1.162  40.250   7.664
 2662POPC   NC335663  25.279  10.513   9.464
 2662POPC   PO435664  25.270  10.540   9.164
 2662POPC   GL135665  25.310  10.509   8.864
 2662POPC   GL235666  25.209  10.664   8.864
 2662POPC   C1A35667  25.235  10.497   8.564
 2662POPC   D2A35668  25.285  10.566   8.264
 2662POPC   C3A35669  25.288  10.543   7.964
 2662POPC   C4A35670  25.313  10.521   7.664
 2662POPC   C1B35671  25.138  10.756   8.564
 2662POPC   C2B35672  25.132  10.702   8.264
 2662POPC   C3B35673  25.132  10.717   7.964
 2662POPC   C4B35674  25.131  10.727   7.664
 2663POPC   NC335675   4.297  26.799   9.464
 2663POPC   PO435676   4.312  26.829   9.164
 2663POPC   GL135677   4.355  26.815   8.864
 2663POPC   GL235678   4.266  26.665   8.864
 2663POPC   C1A35679   4.349  26.778   8.564
 2663POPC   D2A35680   4.341  26.839   8.264
 2663POPC   C3A35681   4.359  26.807   7.964
 2663POPC   C4A35682   4.333  26.802   7.664
 2663POPC   C1B35683   4.294  26.606   8.564
 2663POPC   C2B35684   4.290  26.615   8.264
 2663POPC   C3B35685   4.262  26.611   7.964
 2663POPC   C4B35686   4.321  26.615   7.664
 2664POPC   NC335687  37.658   5.057   9.464
 2664POPC   PO435688  37.650   5.057   9.164
 2664POPC   GL135689  37.667   5.045   8.864
 2664POPC   GL235690  37.597   5.246   8.864
 2664POPC   C1A35691  37.650   5.094   8.564
 2664POPC   D2A35692  37.697   5.139   8.264
 2664POPC   C3A35693  37.688   5.047   7.964
 2664POPC   C4A35694  37.719   5.087   7.664
 2664POPC   C1B35695  37.605   5.321   8.564
 2664POPC   C2B35696  37.635   5.312   8.264
 2664POPC   C3B35697  37.624   5.314   7.964
 2664POPC   C4B35698  37.558   5.303   7.664
 2665POPC   NC335699  36.918  30.708   9.464
 2665POPC   PO435700  36.947  30.724   9.164
 2665POPC   GL135701  36.953  30.662   8.864
 2665POPC   GL235702  36.813  30.616   8.864
 2665POPC   C1A35703  36.883  30.735   8.564
 2665POPC   D2A35704  36.934  30.697   8.264
 2665POPC   C3A35705  36.886  30.703   7.964
 2665POPC   C4A35706  36.881  30.658   7.664
 2665POPC   C1B35707  36.746  30.472   8.564
 2665POPC   C2B35708  36.748  30.554   8.264
 2665POPC   C3B35709  36.738  30.495   7.964
 2665POPC   C4B35710  36.724  30.529   7.664
 2666POPC   NC335711  26.045  29.159   9.464
 2666POPC   PO435712  26.024  29.109   9.164
 2666POPC   GL135713  26.048  29.127   8.864
 2666POPC   GL235714  25.878  29.150   8.864
 2666POPC   C1A35715  26.012  29.116   8.564
 2666POPC   D2A35716  26.025  29.139   8.264
 2666POPC   C3A35717  25.998  29.185   7.964
 2666POPC   C4A35718  25.999  29.111   7.664
 2666POPC   C1B35719  25.805  29.233   8.564
 2666POPC   C2B35720  25.826  29.213   8.264
 2666POPC   C3B35721  25.770  29.156   7.964
 2666POPC   C4B35722  25.754  29.193   7.664
 2667POPC   NC335723  26.804  37.667   9.464
 2667POPC   PO435724  26.842  37.671   9.164
 2667POPC   GL135725  26.776  37.693   8.864
 2667POPC   GL235726  26.952  37.758   8.864
 2667POPC   C1A35727  26.803  37.650   8.564
 2667POPC   D2A35728  26.824  37.727   8.264
 2667POPC   C3A35729  26.830  37.673   7.964
 2667POPC   C4A35730  26.834  37.668   7.664
 2667POPC   C1B35731  26.991  37.871   8.564
 2667POPC   C2B35732  27.056  37.843   8.264
 2667POPC   C3B35733  26.985  37.801   7.964
 2667POPC   C4B35734  27.046  37.880   7.664
 2668POPC   NC335735  37.723  20.604   9.464
 2668POPC   PO435736  37.718  20.565   9.164
 2668POPC   GL135737  37.705  20.657   8.864
 2668POPC   GL235738  37.721  20.556   8.864
 2668POPC   C1A35739  37.645  20.643   8.564
 2668POPC   D2A35740  37.637  20.656   8.264
 2668POPC   C3A35741  37.699  20.589   7.964
 2668POPC   C4A35742  37.707  20.648   7.664
 2668POPC   C1B35743  37.877  20.466   8.564
 2668POPC   C2B35744  37.841  20.406   8.264
 2668POPC   C3B35745  37.895  20.409   7.964
 2668POPC   C4B35746  37.801  20.433   7.664
 2669POPC   NC335747  21.364  44.628   9.464
 2669POPC   PO435748  21.413  44.669   9.164
 2669POPC   GL135749  21.371  44.616   8.864
 2669POPC   GL235750  21.360  44.755   8.864
 2669POPC   C1A35751  21.360  44.660   8.564
 2669POPC   D2A35752  21.432  44.647   8.264
 2669POPC   C3A35753  21.399  44.649   7.964
 2669POPC   C4A35754  21.349  44.644   7.664
 2669POPC   C1B35755  21.275  44.876   8.564
 2669POPC   C2B35756  21.317  44.840   8.264
 2669POPC   C3B35757  21.304  44.892   7.964
 2669POPC   C4B35758  21.256  44.927   7.664
 2670POPC   NC335759  27.573  43.926   9.464
 2670POPC   PO435760  27.594  43.862   9.164
 2670POPC   GL135761  27.605  43.924   8.864
 2670POPC   GL235762  27.694  43.951   8.864
 2670POPC   C1A35763  27.598  43.897   8.564
 2670POPC   D2A35764  27.635  43.932   8.264
 2670POPC   C3A35765  27.604  43.930   7.964
 2670POPC   C4A35766  27.633  43.918   7.664
 2670POPC   C1B35767  27.840  44.082   8.564
 2670POPC   C2B35768  27.752  44.071   8.264
 2670POPC   C3B35769  27.812  44.008   7.964
 2670POPC   C4B35770  27.756  44.087   7.664
 2671POPC   NC335771  29.101  36.115   9.464
 2671POPC   PO435772  29.122  36.088   9.164
 2671POPC   GL135773  29.104  36.103   8.864
 2671POPC   GL235774  29.172  36.020   8.864
 2671POPC   C1A35775  29.111  36.131   8.564
 2671POPC   D2A35776  29.139  36.099   8.264
 2671POPC   C3A35777  29.169  36.134   7.964
 2671POPC   C4A35778  29.165  36.170   7.664
 2671POPC   C1B35779  29.184  35.918   8.564
 2671POPC   C2B35780  29.162  35.867   8.264
 2671POPC   C3B35781  29.235  35.897   7.964
 2671POPC   C4B35782  29.169  35.898   7.664
 2672POPC   NC335783  19.035   1.999   9.464
 2672POPC   PO435784  19.079   2.024   9.164
 2672POPC   GL135785  19.043   1.997   8.864
 2672POPC   GL235786  19.135   2.073   8.864
 2672POPC   C1A35787  19.027   1.986   8.564
 2672POPC   D2A35788  19.090   2.032   8.264
 2672POPC   C3A35789  19.034   1.960   7.964
 2672POPC   C4A35790  19.102   2.011   7.664
 2672POPC   C1B35791  19.166   2.214   8.564
 2672POPC   C2B35792  19.226   2.226   8.264
 2672POPC   C3B35793  19.198   2.173   7.964
 2672POPC   C4B35794  19.224   2.231   7.664
 2673POPC   NC335795  22.978   8.948   9.464
 2673POPC   PO435796  22.950   8.966   9.164
 2673POPC   GL135797  22.921   8.943   8.864
 2673POPC   GL235798  22.937   9.144   8.864
 2673POPC   C1A35799  22.978   8.980   8.564
 2673POPC   D2A35800  22.966   8.979   8.264
 2673POPC   C3A35801  22.988   8.931   7.964
 2673POPC   C4A35802  22.890   9.004   7.664
 2673POPC   C1B35803  22.868   9.176   8.564
 2673POPC   C2B35804  22.900   9.202   8.264
 2673POPC   C3B35805  22.915   9.174   7.964
 2673POPC   C4B35806  22.899   9.270   7.664
 2674POPC   NC335807  26.838   8.167   9.464
 2674POPC   PO435808  26.781   8.180   9.164
 2674POPC   GL135809  26.808   8.163   8.864
 2674POPC   GL235810  26.671   8.146   8.864
 2674POPC   C1A35811  26.866   8.174   8.564
 2674POPC   D2A35812  26.787   8.237   8.264
 2674POPC   C3A35813  26.861   8.242   7.964
 2674POPC   C4A35814  26.846   8.181   7.664
 2674POPC   C1B35815  26.642   8.014   8.564
 2674POPC   C2B35816  26.588   8.041   8.264
 2674POPC   C3B35817  26.576   8.023   7.964
 2674POPC   C4B35818  26.605   8.080   7.664
 2675POPC   NC335819  15.147   1.954   9.464
 2675POPC   PO435820  15.142   2.007   9.164
 2675POPC   GL135821  15.214   1.971   8.864
 2675POPC   GL235822  15.059   1.973   8.864
 2675POPC   C1A35823  15.222   2.030   8.564
 2675POPC   D2A35824  15.193   2.028   8.264
 2675POPC   C3A35825  15.216   2.038   7.964
 2675POPC   C4A35826  15.167   2.034   7.664
 2675POPC   C1B35827  14.902   2.015   8.564
 2675POPC   C2B35828  14.967   2.090   8.264
 2675POPC   C3B35829  14.902   2.064   7.964
 2675POPC   C4B35830  14.895   2.031   7.664
 2676POPC   NC335831  11.332  42.309   9.464
 2676POPC   PO435832  11.263  42.314   9.164
 2676POPC   GL135833  11.347  42.327   8.864
 2676POPC   GL235834  11.227  42.212   8.864
 2676POPC   C1A35835  11.337  42.316   8.564
 2676POPC   D2A35836  11.337  42.353   8.264
 2676POPC   C3A35837  11.329  42.335   7.964
 2676POPC   C4A35838  11.258  42.365   7.664
 2676POPC   C1B35839  11.201  42.117   8.564
 2676POPC   C2B35840  11.256  42.056   8.264
 2676POPC   C3B35841  11.216  42.122   7.964
 2676POPC   C4B35842  11.224  42.114   7.664
 2677POPC   NC335843  10.480   8.986   9.464
 2677POPC   PO435844  10.528   8.944   9.164
 2677POPC   GL135845  10.541   8.935   8.864
 2677POPC   GL235846  10.506   8.873   8.864
 2677POPC   C1A35847  10.516   8.957   8.564
 2677POPC   D2A35848  10.522   8.984   8.264
 2677POPC   C3A35849  10.506   8.944   7.964
 2677POPC   C4A35850  10.556   8.992   7.664
 2677POPC   C1B35851  10.527   8.741   8.564
 2677POPC   C2B35852  10.526   8.734   8.264
 2677POPC   C3B35853  10.519   8.683   7.964
 2677POPC   C4B35854  10.482   8.716   7.664
 2678POPC   NC335855  36.874  22.121   9.464
 2678POPC   PO435856  36.918  22.153   9.164
 2678POPC   GL135857  36.942  22.194   8.864
 2678POPC   GL235858  36.805  22.239   8.864
 2678POPC   C1A35859  36.912  22.125   8.564
 2678POPC   D2A35860  36.865  22.192   8.264
 2678POPC   C3A35861  36.861  22.150   7.964
 2678POPC   C4A35862  36.952  22.140   7.664
 2678POPC   C1B35863  36.817  22.374   8.564
 2678POPC   C2B35864  36.856  22.402   8.264
 2678POPC   C3B35865  36.803  22.359   7.964
 2678POPC   C4B35866  36.768  22.392   7.664
 2679POPC   NC335867   0.393   2.724   9.464
 2679POPC   PO435868   0.407   2.732   9.164
 2679POPC   GL135869   0.445   2.783   8.864
 2679POPC   GL235870   0.579   2.693   8.864
 2679POPC   C1A35871   0.471   2.728   8.564
 2679POPC   D2A35872   0.410   2.730   8.264
 2679POPC   C3A35873   0.465   2.805   7.964
 2679POPC   C4A35874   0.403   2.717   7.664
 2679POPC   C1B35875   0.641   2.644   8.564
 2679POPC   C2B35876   0.603   2.651   8.264
 2679POPC   C3B35877   0.590   2.602   7.964
 2679POPC   C4B35878   0.614   2.623   7.664
 2680POPC   NC335879   8.206   8.210   9.464
 2680POPC   PO435880   8.154   8.239   9.164
 2680POPC   GL135881   8.215   8.165   8.864
 2680POPC   GL235882   8.369   8.241   8.864
 2680POPC   C1A35883   8.241   8.152   8.564
 2680POPC   D2A35884   8.179   8.207   8.264
 2680POPC   C3A35885   8.178   8.239   7.964
 2680POPC   C4A35886   8.219   8.206   7.664
 2680POPC   C1B35887   8.398   8.175   8.564
 2680POPC   C2B35888   8.404   8.208   8.264
 2680POPC   C3B35889   8.411   8.214   7.964
 2680POPC   C4B35890   8.487   8.261   7.664
 2681POPC   NC335891  19.050  15.146   9.464
 2681POPC   PO435892  19.106  15.177   9.164
 2681POPC   GL135893  19.049  15.185   8.864
 2681POPC   GL235894  18.956  15.322   8.864
 2681POPC   C1A35895  19.038  15.183   8.564
 2681POPC   D2A35896  19.012  15.147   8.264
 2681POPC   C3A35897  19.103  15.130   7.964
 2681POPC   C4A35898  19.050  15.167   7.664
 2681POPC   C1B35899  18.851  15.375   8.564
 2681POPC   C2B35900  18.884  15.379   8.264
 2681POPC   C3B35901  18.871  15.416   7.964
 2681POPC   C4B35902  18.851  15.324   7.664
 2682POPC   NC335903  24.463  43.101   9.464
 2682POPC   PO435904  24.477  43.082   9.164
 2682POPC   GL135905  24.462  43.135   8.864
 2682POPC   GL235906  24.378  43.193   8.864
 2682POPC   C1A35907  24.473  43.159   8.564
 2682POPC   D2A35908  24.484  43.083   8.264
 2682POPC   C3A35909  24.530  43.155   7.964
 2682POPC   C4A35910  24.528  43.089   7.664
 2682POPC   C1B35911  24.311  43.201   8.564
 2682POPC   C2B35912  24.300  43.270   8.264
 2682POPC   C3B35913  24.278  43.230   7.964
 2682POPC   C4B35914  24.232  43.248   7.664
 2683POPC   NC335915  25.227   2.015   9.464
 2683POPC   PO435916  25.257   2.032   9.164
 2683POPC   GL135917  25.286   1.952   8.864
 2683POPC   GL235918  25.236   1.832   8.864
 2683POPC   C1A35919  25.263   1.980   8.564
 2683POPC   D2A35920  25.224   1.969   8.264
 2683POPC   C3A35921  25.282   1.964   7.964
 2683POPC   C4A35922  25.281   2.000   7.664
 2683POPC   C1B35923  25.157   1.744   8.564
 2683POPC   C2B35924  25.152   1.742   8.264
 2683POPC   C3B35925  25.217   1.797   7.964
 2683POPC   C4B35926  25.226   1.793   7.664
 2684POPC   NC335927  29.192  44.658   9.464
 2684POPC   PO435928  29.119  44.646   9.164
 2684POPC   GL135929  29.147  44.636   8.864
 2684POPC   GL235930  29.233  44.750   8.864
 2684POPC   C1A35931  29.111  44.654   8.564
 2684POPC   D2A35932  29.162  44.697   8.264
 2684POPC   C3A35933  29.121  44.659   7.964
 2684POPC   C4A35934  29.148  44.648   7.664
 2684POPC   C1B35935  29.304  44.817   8.564
 2684POPC   C2B35936  29.276  44.832   8.264
 2684POPC   C3B35937  29.350  44.884   7.964
 2684POPC   C4B35938  29.348  44.844   7.664
 2685POPC   NC335939  17.484  15.190   9.464
 2685POPC   PO435940  17.498  15.221   9.164
 2685POPC   GL135941  17.506  15.224   8.864
 2685POPC   GL235942  17.359  15.162   8.864
 2685POPC   C1A35943  17.532  15.209   8.564
 2685POPC   D2A35944  17.495  15.150   8.264
 2685POPC   C3A35945  17.548  15.198   7.964
 2685POPC   C4A35946  17.484  15.130   7.664
 2685POPC   C1B35947  17.272  15.116   8.564
 2685POPC   C2B35948  17.266  15.165   8.264
 2685POPC   C3B35949  17.286  15.125   7.964
 2685POPC   C4B35950  17.286  15.116   7.664
 2686POPC   NC335951  12.809  22.182   9.464
 2686POPC   PO435952  12.897  22.172   9.164
 2686POPC   GL135953  12.880  22.130   8.864
 2686POPC   GL235954  12.832  22.321   8.864
 2686POPC   C1A35955  12.837  22.194   8.564
 2686POPC   D2A35956  12.894  22.195   8.264
 2686POPC   C3A35957  12.887  22.179   7.964
 2686POPC   C4A35958  12.862  22.129   7.664
 2686POPC   C1B35959  12.799  22.449   8.564
 2686POPC   C2B35960  12.762  22.424   8.264
 2686POPC   C3B35961  12.755  22.407   7.964
 2686POPC   C4B35962  12.796  22.422   7.664
 2687POPC   NC335963   8.189  26.801   9.464
 2687POPC   PO435964   8.181  26.832   9.164
 2687POPC   GL135965   8.191  26.840   8.864
 2687POPC   GL235966   8.261  26.780   8.864
 2687POPC   C1A35967   8.176  26.776   8.564
 2687POPC   D2A35968   8.169  26.829   8.264
 2687POPC   C3A35969   8.186  26.807   7.964
 2687POPC   C4A35970   8.148  26.823   7.664
 2687POPC   C1B35971   8.368  26.705   8.564
 2687POPC   C2B35972   8.438  26.655   8.264
 2687POPC   C3B35973   8.424  26.638   7.964
 2687POPC   C4B35974   8.448  26.693   7.664
 2688POPC   NC335975  22.186  39.245   9.464
 2688POPC   PO435976  22.141  39.227   9.164
 2688POPC   GL135977  22.205  39.181   8.864
 2688POPC   GL235978  22.086  39.279   8.864
 2688POPC   C1A35979  22.118  39.232   8.564
 2688POPC   D2A35980  22.199  39.264   8.264
 2688POPC   C3A35981  22.140  39.198   7.964
 2688POPC   C4A35982  22.153  39.256   7.664
 2688POPC   C1B35983  22.007  39.380   8.564
 2688POPC   C2B35984  21.948  39.347   8.264
 2688POPC   C3B35985  21.978  39.399   7.964
 2688POPC   C4B35986  21.987  39.383   7.664
 2689POPC   NC335987  10.554  34.622   9.464
 2689POPC   PO435988  10.490  34.624   9.164
 2689POPC   GL135989  10.541  34.618   8.864
 2689POPC   GL235990  10.662  34.569   8.864
 2689POPC   C1A35991  10.524  34.581   8.564
 2689POPC   D2A35992  10.550  34.529   8.264
 2689POPC   C3A35993  10.532  34.577   7.964
 2689POPC   C4A35994  10.539  34.553   7.664
 2689POPC   C1B35995  10.710  34.498   8.564
 2689POPC   C2B35996  10.749  34.518   8.264
 2689POPC   C3B35997  10.785  34.490   7.964
 2689POPC   C4B35998  10.792  34.489   7.664
 2690POPC   NC335999  43.914  40.739   9.464
 2690POPC   PO436000  43.903  40.807   9.164
 2690POPC   GL136001  43.923  40.737   8.864
 2690POPC   GL236002  43.906  40.656   8.864
 2690POPC   C1A36003  43.854  40.826   8.564
 2690POPC   D2A36004  43.886  40.812   8.264
 2690POPC   C3A36005  43.903  40.753   7.964
 2690POPC   C4A36006  43.935  40.762   7.664
 2690POPC   C1B36007  43.890  40.524   8.564
 2690POPC   C2B36008  43.867  40.545   8.264
 2690POPC   C3B36009  43.886  40.534   7.964
 2690POPC   C4B36010  43.814  40.577   7.664
 2691POPC   NC336011  27.588  11.282   9.464
 2691POPC   PO436012  27.572  11.270   9.164
 2691POPC   GL136013  27.545  11.273   8.864
 2691POPC   GL236014  27.502  11.381   8.864
 2691POPC   C1A36015  27.601  11.251   8.564
 2691POPC   D2A36016  27.555  11.328   8.264
 2691POPC   C3A36017  27.639  11.283   7.964
 2691POPC   C4A36018  27.601  11.267   7.664
 2691POPC   C1B36019  27.424  11.482   8.564
 2691POPC   C2B36020  27.419  11.505   8.264
 2691POPC   C3B36021  27.416  11.494   7.964
 2691POPC   C4B36022  27.498  11.553   7.664
 2692POPC   NC336023   5.059   7.464   9.464
 2692POPC   PO436024   5.070   7.441   9.164
 2692POPC   GL136025   5.135   7.456   8.864
 2692POPC   GL236026   5.116   7.271   8.864
 2692POPC   C1A36027   5.055   7.426   8.564
 2692POPC   D2A36028   5.124   7.398   8.264
 2692POPC   C3A36029   5.099   7.434   7.964
 2692POPC   C4A36030   5.065   7.449   7.664
 2692POPC   C1B36031   5.078   7.216   8.564
 2692POPC   C2B36032   5.087   7.152   8.264
 2692POPC   C3B36033   5.065   7.174   7.964
 2692POPC   C4B36034   5.079   7.132   7.664
 2693POPC   NC336035   0.415   5.892   9.464
 2693POPC   PO436036   0.472   5.906   9.164
 2693POPC   GL136037   0.396   5.824   8.864
 2693POPC   GL236038   0.556   5.793   8.864
 2693POPC   C1A36039   0.391   5.858   8.564
 2693POPC   D2A36040   0.447   5.847   8.264
 2693POPC   C3A36041   0.419   5.911   7.964
 2693POPC   C4A36042   0.471   5.910   7.664
 2693POPC   C1B36043   0.664   5.723   8.564
 2693POPC   C2B36044   0.620   5.722   8.264
 2693POPC   C3B36045   0.590   5.743   7.964
 2693POPC   C4B36046   0.601   5.680   7.664
 2694POPC   NC336047   9.786   7.371   9.464
 2694POPC   PO436048   9.729   7.384   9.164
 2694POPC   GL136049   9.756   7.416   8.864
 2694POPC   GL236050   9.668   7.407   8.864
 2694POPC   C1A36051   9.763   7.451   8.564
 2694POPC   D2A36052   9.778   7.378   8.264
 2694POPC   C3A36053   9.703   7.410   7.964
 2694POPC   C4A36054   9.724   7.393   7.664
 2694POPC   C1B36055   9.548   7.345   8.564
 2694POPC   C2B36056   9.510   7.301   8.264
 2694POPC   C3B36057   9.554   7.281   7.964
 2694POPC   C4B36058   9.553   7.296   7.664
 2695POPC   NC336059  24.512  10.490   9.464
 2695POPC   PO436060  24.489  10.480   9.164
 2695POPC   GL136061  24.508  10.492   8.864
 2695POPC   GL236062  24.433  10.431   8.864
 2695POPC   C1A36063  24.460  10.489   8.564
 2695POPC   D2A36064  24.462  10.525   8.264
 2695POPC   C3A36065  24.452  10.572   7.964
 2695POPC   C4A36066  24.513  10.509   7.664
 2695POPC   C1B36067  24.308  10.303   8.564
 2695POPC   C2B36068  24.376  10.292   8.264
 2695POPC   C3B36069  24.372  10.318   7.964
 2695POPC   C4B36070  24.341  10.294   7.664
 2696POPC   NC336071   5.851  15.167   9.464
 2696POPC   PO436072   5.850  15.185   9.164
 2696POPC   GL136073   5.894  15.165   8.864
 2696POPC   GL236074   5.868  15.063   8.864
 2696POPC   C1A36075   5.877  15.154   8.564
 2696POPC   D2A36076   5.902  15.151   8.264
 2696POPC   C3A36077   5.875  15.200   7.964
 2696POPC   C4A36078   5.827  15.227   7.664
 2696POPC   C1B36079   5.923  14.952   8.564
 2696POPC   C2B36080   5.951  14.898   8.264
 2696POPC   C3B36081   5.870  14.887   7.964
 2696POPC   C4B36082   5.926  14.892   7.664
 2697POPC   NC336083   7.371  15.223   9.464
 2697POPC   PO436084   7.404  15.133   9.164
 2697POPC   GL136085   7.400  15.186   8.864
 2697POPC   GL236086   7.483  15.283   8.864
 2697POPC   C1A36087   7.374  15.163   8.564
 2697POPC   D2A36088   7.443  15.168   8.264
 2697POPC   C3A36089   7.391  15.131   7.964
 2697POPC   C4A36090   7.395  15.193   7.664
 2697POPC   C1B36091   7.506  15.469   8.564
 2697POPC   C2B36092   7.486  15.449   8.264
 2697POPC   C3B36093   7.428  15.464   7.964
 2697POPC   C4B36094   7.498  15.456   7.664
 2698POPC   NC336095  39.242  27.602   9.464
 2698POPC   PO436096  39.184  27.619   9.164
 2698POPC   GL136097  39.250  27.638   8.864
 2698POPC   GL236098  39.108  27.567   8.864
 2698POPC   C1A36099  39.213  27.596   8.564
 2698POPC   D2A36100  39.255  27.630   8.264
 2698POPC   C3A36101  39.240  27.633   7.964
 2698POPC   C4A36102  39.196  27.594   7.664
 2698POPC   C1B36103  38.989  27.481   8.564
 2698POPC   C2B36104  39.007  27.484   8.264
 2698POPC   C3B36105  38.961  27.475   7.964
 2698POPC   C4B36106  39.045  27.548   7.664
 2699POPC   NC336107  19.789  34.551   9.464
 2699POPC   PO436108  19.832  34.560   9.164
 2699POPC   GL136109  19.867  34.590   8.864
 2699POPC   GL236110  19.938  34.582   8.864
 2699POPC   C1A36111  19.848  34.582   8.564
 2699POPC   D2A36112  19.859  34.584   8.264
 2699POPC   C3A36113  19.837  34.546   7.964
 2699POPC   C4A36114  19.827  34.582   7.664
 2699POPC   C1B36115  20.027  34.524   8.564
 2699POPC   C2B36116  20.119  34.473   8.264
 2699POPC   C3B36117  20.028  34.488   7.964
 2699POPC   C4B36118  20.073  34.520   7.664
 2700POPC   NC336119  15.166  18.317   9.464
 2700POPC   PO436120  15.156  18.244   9.164
 2700POPC   GL136121  15.191  18.259   8.864
 2700POPC   GL236122  15.257  18.349   8.864
 2700POPC   C1A36123  15.225  18.298   8.564
 2700POPC   D2A36124  15.132  18.278   8.264
 2700POPC   C3A36125  15.189  18.306   7.964
 2700POPC   C4A36126  15.211  18.333   7.664
 2700POPC   C1B36127  15.418  18.369   8.564
 2700POPC   C2B36128  15.385  18.330   8.264
 2700POPC   C3B36129  15.428  18.361   7.964
 2700POPC   C4B36130  15.444  18.356   7.664
 2701POPC   NC336131  16.740  12.883   9.464
 2701POPC   PO436132  16.710  12.820   9.164
 2701POPC   GL136133  16.684  12.828   8.864
 2701POPC   GL236134  16.855  12.867   8.864
 2701POPC   C1A36135  16.761  12.860   8.564
 2701POPC   D2A36136  16.725  12.879   8.264
 2701POPC   C3A36137  16.715  12.812   7.964
 2701POPC   C4A36138  16.761  12.845   7.664
 2701POPC   C1B36139  17.002  12.845   8.564
 2701POPC   C2B36140  16.955  12.811   8.264
 2701POPC   C3B36141  17.010  12.784   7.964
 2701POPC   C4B36142  16.990  12.821   7.664
 2702POPC   NC336143  29.940  37.688   9.464
 2702POPC   PO436144  29.933  37.656   9.164
 2702POPC   GL136145  29.948  37.641   8.864
 2702POPC   GL236146  29.842  37.578   8.864
 2702POPC   C1A36147  29.885  37.677   8.564
 2702POPC   D2A36148  29.907  37.680   8.264
 2702POPC   C3A36149  29.874  37.689   7.964
 2702POPC   C4A36150  29.907  37.675   7.664
 2702POPC   C1B36151  29.713  37.450   8.564
 2702POPC   C2B36152  29.738  37.490   8.264
 2702POPC   C3B36153  29.801  37.503   7.964
 2702POPC   C4B36154  29.721  37.498   7.664
 2703POPC   NC336155  15.980  21.383   9.464
 2703POPC   PO436156  15.976  21.401   9.164
 2703POPC   GL136157  15.973  21.362   8.864
 2703POPC   GL236158  15.951  21.524   8.864
 2703POPC   C1A36159  15.952  21.421   8.564
 2703POPC   D2A36160  15.938  21.403   8.264
 2703POPC   C3A36161  15.927  21.426   7.964
 2703POPC   C4A36162  15.983  21.422   7.664
 2703POPC   C1B36163  15.890  21.628   8.564
 2703POPC   C2B36164  15.836  21.635   8.264
 2703POPC   C3B36165  15.897  21.609   7.964
 2703POPC   C4B36166  15.888  21.653   7.664
 2704POPC   NC336167  19.792  43.067   9.464
 2704POPC   PO436168  19.873  43.101   9.164
 2704POPC   GL136169  19.851  43.098   8.864
 2704POPC   GL236170  19.829  43.238   8.864
 2704POPC   C1A36171  19.791  43.130   8.564
 2704POPC   D2A36172  19.821  43.112   8.264
 2704POPC   C3A36173  19.844  43.112   7.964
 2704POPC   C4A36174  19.883  43.132   7.664
 2704POPC   C1B36175  19.867  43.336   8.564
 2704POPC   C2B36176  19.903  43.337   8.264
 2704POPC   C3B36177  19.818  43.319   7.964
 2704POPC   C4B36178  19.916  43.389   7.664
 2705POPC   NC336179  22.942   1.190   9.464
 2705POPC   PO436180  22.982   1.201   9.164
 2705POPC   GL136181  22.911   1.168   8.864
 2705POPC   GL236182  22.822   1.131   8.864
 2705POPC   C1A36183  22.962   1.261   8.564
 2705POPC   D2A36184  22.919   1.197   8.264
 2705POPC   C3A36185  22.986   1.209   7.964
 2705POPC   C4A36186  22.909   1.189   7.664
 2705POPC   C1B36187  22.793   0.989   8.564
 2705POPC   C2B36188  22.773   1.035   8.264
 2705POPC   C3B36189  22.755   1.051   7.964
 2705POPC   C4B36190  22.780   1.046   7.664
 2706POPC   NC336191   9.768   1.177   9.464
 2706POPC   PO436192   9.781   1.250   9.164
 2706POPC   GL136193   9.774   1.198   8.864
 2706POPC   GL236194   9.697   1.065   8.864
 2706POPC   C1A36195   9.732   1.173   8.564
 2706POPC   D2A36196   9.706   1.232   8.264
 2706POPC   C3A36197   9.780   1.203   7.964
 2706POPC   C4A36198   9.795   1.209   7.664
 2706POPC   C1B36199   9.639   0.992   8.564
 2706POPC   C2B36200   9.607   0.992   8.264
 2706POPC   C3B36201   9.580   1.009   7.964
 2706POPC   C4B36202   9.610   1.066   7.664
 2707POPC   NC336203  14.397  21.377   9.464
 2707POPC   PO436204  14.442  21.406   9.164
 2707POPC   GL136205  14.390  21.350   8.864
 2707POPC   GL236206  14.328  21.330   8.864
 2707POPC   C1A36207  14.371  21.408   8.564
 2707POPC   D2A36208  14.364  21.436   8.264
 2707POPC   C3A36209  14.420  21.359   7.964
 2707POPC   C4A36210  14.429  21.379   7.664
 2707POPC   C1B36211  14.264  21.221   8.564
 2707POPC   C2B36212  14.268  21.233   8.264
 2707POPC   C3B36213  14.217  21.208   7.964
 2707POPC   C4B36214  14.211  21.261   7.664
 2708POPC   NC336215  27.611  29.918   9.464
 2708POPC   PO436216  27.575  29.928   9.164
 2708POPC   GL136217  27.557  29.925   8.864
 2708POPC   GL236218  27.487  30.026   8.864
 2708POPC   C1A36219  27.556  29.880   8.564
 2708POPC   D2A36220  27.607  29.914   8.264
 2708POPC   C3A36221  27.595  29.941   7.964
 2708POPC   C4A36222  27.567  29.933   7.664
 2708POPC   C1B36223  27.446  30.064   8.564
 2708POPC   C2B36224  27.397  30.143   8.264
 2708POPC   C3B36225  27.410  30.149   7.964
 2708POPC   C4B36226  27.397  30.094   7.664
 2709POPC   NC336227  43.859  32.204   9.464
 2709POPC   PO436228  43.849  32.289   9.164
 2709POPC   GL136229  43.926  32.236   8.864
 2709POPC   GL236230  43.807  32.266   8.864
 2709POPC   C1A36231  43.875  32.205   8.564
 2709POPC   D2A36232  43.883  32.274   8.264
 2709POPC   C3A36233  43.846  32.199   7.964
 2709POPC   C4A36234  43.900  32.277   7.664
 2709POPC   C1B36235  43.687  32.343   8.564
 2709POPC   C2B36236  43.633  32.342   8.264
 2709POPC   C3B36237  43.601  32.299   7.964
 2709POPC   C4B36238  43.645  32.256   7.664
 2710POPC   NC336239  31.502  36.899   9.464
 2710POPC   PO436240  31.500  36.908   9.164
 2710POPC   GL136241  31.521  36.857   8.864
 2710POPC   GL236242  31.312  36.846   8.864
 2710POPC   C1A36243  31.516  36.937   8.564
 2710POPC   D2A36244  31.494  36.906   8.264
 2710POPC   C3A36245  31.502  36.893   7.964
 2710POPC   C4A36246  31.478  36.921   7.664
 2710POPC   C1B36247  31.215  36.831   8.564
 2710POPC   C2B36248  31.183  36.843   8.264
 2710POPC   C3B36249  31.238  36.842   7.964
 2710POPC   C4B36250  31.203  36.837   7.664
 2711POPC   NC336251  34.607  28.374   9.464
 2711POPC   PO436252  34.536  28.415   9.164
 2711POPC   GL136253  34.598  28.335   8.864
 2711POPC   GL236254  34.500  28.420   8.864
 2711POPC   C1A36255  34.574  28.399   8.564
 2711POPC   D2A36256  34.576  28.343   8.264
 2711POPC   C3A36257  34.576  28.391   7.964
 2711POPC   C4A36258  34.588  28.380   7.664
 2711POPC   C1B36259  34.388  28.448   8.564
 2711POPC   C2B36260  34.300  28.474   8.264
 2711POPC   C3B36261  34.300  28.465   7.964
 2711POPC   C4B36262  34.380  28.422   7.664
 2712POPC   NC336263  10.525  26.857   9.464
 2712POPC   PO436264  10.514  26.773   9.164
 2712POPC   GL136265  10.483  26.816   8.864
 2712POPC   GL236266  10.521  26.688   8.864
 2712POPC   C1A36267  10.485  26.779   8.564
 2712POPC   D2A36268  10.561  26.867   8.264
 2712POPC   C3A36269  10.540  26.821   7.964
 2712POPC   C4A36270  10.560  26.811   7.664
 2712POPC   C1B36271  10.512  26.525   8.564
 2712POPC   C2B36272  10.444  26.563   8.264
 2712POPC   C3B36273  10.435  26.612   7.964
 2712POPC   C4B36274  10.529  26.578   7.664
 2713POPC   NC336275  42.336  11.329   9.464
 2713POPC   PO436276  42.348  11.297   9.164
 2713POPC   GL136277  42.308  11.311   8.864
 2713POPC   GL236278  42.445  11.344   8.864
 2713POPC   C1A36279  42.368  11.282   8.564
 2713POPC   D2A36280  42.306  11.321   8.264
 2713POPC   C3A36281  42.288  11.289   7.964
 2713POPC   C4A36282  42.371  11.254   7.664
 2713POPC   C1B36283  42.589  11.316   8.564
 2713POPC   C2B36284  42.547  11.351   8.264
 2713POPC   C3B36285  42.616  11.300   7.964
 2713POPC   C4B36286  42.543  11.287   7.664
 2714POPC   NC336287  34.538  32.200   9.464
 2714POPC   PO436288  34.606  32.228   9.164
 2714POPC   GL136289  34.601  32.252   8.864
 2714POPC   GL236290  34.636  32.182   8.864
 2714POPC   C1A36291  34.560  32.254   8.564
 2714POPC   D2A36292  34.606  32.244   8.264
 2714POPC   C3A36293  34.572  32.246   7.964
 2714POPC   C4A36294  34.593  32.246   7.664
 2714POPC   C1B36295  34.714  32.027   8.564
 2714POPC   C2B36296  34.751  32.046   8.264
 2714POPC   C3B36297  34.771  32.042   7.964
 2714POPC   C4B36298  34.734  32.065   7.664
 2715POPC   NC336299  20.565  37.704   9.464
 2715POPC   PO436300  20.633  37.631   9.164
 2715POPC   GL136301  20.636  37.633   8.864
 2715POPC   GL236302  20.653  37.827   8.864
 2715POPC   C1A36303  20.602  37.702   8.564
 2715POPC   D2A36304  20.658  37.726   8.264
 2715POPC   C3A36305  20.570  37.632   7.964
 2715POPC   C4A36306  20.605  37.720   7.664
 2715POPC   C1B36307  20.667  37.864   8.564
 2715POPC   C2B36308  20.732  37.954   8.264
 2715POPC   C3B36309  20.729  37.946   7.964
 2715POPC   C4B36310  20.696  37.902   7.664
 2716POPC   NC336311   2.807  33.033   9.464
 2716POPC   PO436312   2.758  33.019   9.164
 2716POPC   GL136313   2.748  33.004   8.864
 2716POPC   GL236314   2.746  32.875   8.864
 2716POPC   C1A36315   2.762  33.063   8.564
 2716POPC   D2A36316   2.792  33.022   8.264
 2716POPC   C3A36317   2.814  33.051   7.964
 2716POPC   C4A36318   2.767  33.058   7.664
 2716POPC   C1B36319   2.808  32.749   8.564
 2716POPC   C2B36320   2.744  32.798   8.264
 2716POPC   C3B36321   2.796  32.823   7.964
 2716POPC   C4B36322   2.734  32.727   7.664
 2717POPC   NC336323   5.843  19.799   9.464
 2717POPC   PO436324   5.845  19.799   9.164
 2717POPC   GL136325   5.878  19.860   8.864
 2717POPC   GL236326   5.867  19.991   8.864
 2717POPC   C1A36327   5.852  19.810   8.564
 2717POPC   D2A36328   5.821  19.811   8.264
 2717POPC   C3A36329   5.835  19.785   7.964
 2717POPC   C4A36330   5.832  19.823   7.664
 2717POPC   C1B36331   5.861  20.085   8.564
 2717POPC   C2B36332   5.884  20.096   8.264
 2717POPC   C3B36333   5.835  20.093   7.964
 2717POPC   C4B36334   5.922  20.066   7.664
 2718POPC   NC336335  14.409  35.340   9.464
 2718POPC   PO436336  14.377  35.368   9.164
 2718POPC   GL136337  14.434  35.356   8.864
 2718POPC   GL236338  14.345  35.507   8.864
 2718POPC   C1A36339  14.385  35.397   8.564
 2718POPC   D2A36340  14.398  35.328   8.264
 2718POPC   C3A36341  14.390  35.359   7.964
 2718POPC   C4A36342  14.402  35.383   7.664
 2718POPC   C1B36343  14.260  35.587   8.564
 2718POPC   C2B36344  14.244  35.609   8.264
 2718POPC   C3B36345  14.281  35.527   7.964
 2718POPC   C4B36346  14.273  35.552   7.664
 2719POPC   NC336347  24.476   0.415   9.464
 2719POPC   PO436348  24.491   0.484   9.164
 2719POPC   GL136349  24.457   0.393   8.864
 2719POPC   GL236350  24.571   0.352   8.864
 2719POPC   C1A36351  24.449   0.445   8.564
 2719POPC   D2A36352  24.462   0.471   8.264
 2719POPC   C3A36353  24.461   0.405   7.964
 2719POPC   C4A36354  24.517   0.430   7.664
 2719POPC   C1B36355  24.598   0.195   8.564
 2719POPC   C2B36356  24.615   0.185   8.264
 2719POPC   C3B36357  24.668   0.227   7.964
 2719POPC   C4B36358  24.621   0.195   7.664
 2720POPC   NC336359  19.798   6.692   9.464
 2720POPC   PO436360  19.868   6.689   9.164
 2720POPC   GL136361  19.834   6.630   8.864
 2720POPC   GL236362  19.699   6.703   8.864
 2720POPC   C1A36363  19.827   6.622   8.564
 2720POPC   D2A36364  19.855   6.682   8.264
 2720POPC   C3A36365  19.791   6.692   7.964
 2720POPC   C4A36366  19.811   6.682   7.664
 2720POPC   C1B36367  19.605   6.728   8.564
 2720POPC   C2B36368  19.619   6.735   8.264
 2720POPC   C3B36369  19.633   6.744   7.964
 2720POPC   C4B36370  19.637   6.820   7.664
 2721POPC   NC336371  24.532   6.617   9.464
 2721POPC   PO436372  24.446   6.679   9.164
 2721POPC   GL136373  24.533   6.651   8.864
 2721POPC   GL236374  24.605   6.532   8.864
 2721POPC   C1A36375  24.473   6.642   8.564
 2721POPC   D2A36376  24.511   6.638   8.264
 2721POPC   C3A36377  24.537   6.606   7.964
 2721POPC   C4A36378  24.519   6.601   7.664
 2721POPC   C1B36379  24.677   6.415   8.564
 2721POPC   C2B36380  24.705   6.445   8.264
 2721POPC   C3B36381  24.640   6.469   7.964
 2721POPC   C4B36382  24.700   6.453   7.664
 2722POPC   NC336383  15.174   9.752   9.464
 2722POPC   PO436384  15.188   9.767   9.164
 2722POPC   GL136385  15.217   9.757   8.864
 2722POPC   GL236386  15.241   9.602   8.864
 2722POPC   C1A36387  15.167   9.795   8.564
 2722POPC   D2A36388  15.224   9.763   8.264
 2722POPC   C3A36389  15.138   9.757   7.964
 2722POPC   C4A36390  15.166   9.718   7.664
 2722POPC   C1B36391  15.253   9.515   8.564
 2722POPC   C2B36392  15.298   9.523   8.264
 2722POPC   C3B36393  15.262   9.490   7.964
 2722POPC   C4B36394  15.242   9.568   7.664
 2723POPC   NC336395  34.548   6.625   9.464
 2723POPC   PO436396  34.571   6.673   9.164
 2723POPC   GL136397  34.613   6.611   8.864
 2723POPC   GL236398  34.455   6.535   8.864
 2723POPC   C1A36399  34.577   6.602   8.564
 2723POPC   D2A36400  34.596   6.635   8.264
 2723POPC   C3A36401  34.605   6.687   7.964
 2723POPC   C4A36402  34.625   6.618   7.664
 2723POPC   C1B36403  34.346   6.541   8.564
 2723POPC   C2B36404  34.409   6.562   8.264
 2723POPC   C3B36405  34.407   6.543   7.964
 2723POPC   C4B36406  34.395   6.483   7.664
 2724POPC   NC336407  10.518  26.070   9.464
 2724POPC   PO436408  10.545  26.056   9.164
 2724POPC   GL136409  10.567  25.992   8.864
 2724POPC   GL236410  10.627  25.951   8.864
 2724POPC   C1A36411  10.541  26.046   8.564
 2724POPC   D2A36412  10.518  25.996   8.264
 2724POPC   C3A36413  10.485  26.030   7.964
 2724POPC   C4A36414  10.492  26.059   7.664
 2724POPC   C1B36415  10.665  25.828   8.564
 2724POPC   C2B36416  10.618  25.855   8.264
 2724POPC   C3B36417  10.589  25.829   7.964
 2724POPC   C4B36418  10.687  25.807   7.664
 2725POPC   NC336419   5.905  13.675   9.464
 2725POPC   PO436420   5.820  13.641   9.164
 2725POPC   GL136421   5.874  13.619   8.864
 2725POPC   GL236422   5.918  13.707   8.864
 2725POPC   C1A36423   5.870  13.661   8.564
 2725POPC   D2A36424   5.824  13.668   8.264
 2725POPC   C3A36425   5.877  13.584   7.964
 2725POPC   C4A36426   5.838  13.593   7.664
 2725POPC   C1B36427   6.034  13.856   8.564
 2725POPC   C2B36428   5.964  13.825   8.264
 2725POPC   C3B36429   6.047  13.836   7.964
 2725POPC   C4B36430   5.979  13.796   7.664
 2726POPC   NC336431  36.127  32.228   9.464
 2726POPC   PO436432  36.156  32.297   9.164
 2726POPC   GL136433  36.094  32.218   8.864
 2726POPC   GL236434  36.262  32.259   8.864
 2726POPC   C1A36435  36.082  32.277   8.564
 2726POPC   D2A36436  36.152  32.228   8.264
 2726POPC   C3A36437  36.123  32.212   7.964
 2726POPC   C4A36438  36.096  32.293   7.664
 2726POPC   C1B36439  36.327  32.160   8.564
 2726POPC   C2B36440  36.389  32.206   8.264
 2726POPC   C3B36441  36.385  32.167   7.964
 2726POPC   C4B36442  36.364  32.230   7.664
 2727POPC   NC336443   7.453  29.121   9.464
 2727POPC   PO436444   7.408  29.191   9.164
 2727POPC   GL136445   7.397  29.194   8.864
 2727POPC   GL236446   7.288  29.241   8.864
 2727POPC   C1A36447   7.389  29.099   8.564
 2727POPC   D2A36448   7.426  29.159   8.264
 2727POPC   C3A36449   7.372  29.106   7.964
 2727POPC   C4A36450   7.462  29.194   7.664
 2727POPC   C1B36451   7.206  29.259   8.564
 2727POPC   C2B36452   7.233  29.245   8.264
 2727POPC   C3B36453   7.199  29.272   7.964
 2727POPC   C4B36454   7.250  29.242   7.664
 2728POPC   NC336455  42.353  27.553   9.464
 2728POPC   PO436456  42.306  27.543   9.164
 2728POPC   GL136457  42.331  27.617   8.864
 2728POPC   GL236458  42.291  27.487   8.864
 2728POPC   C1A36459  42.343  27.638   8.564
 2728POPC   D2A36460  42.289  27.608   8.264
 2728POPC   C3A36461  42.354  27.573   7.964
 2728POPC   C4A36462  42.295  27.568   7.664
 2728POPC   C1B36463  42.110  27.449   8.564
 2728POPC   C2B36464  42.193  27.386   8.264
 2728POPC   C3B36465  42.178  27.423   7.964
 2728POPC   C4B36466  42.129  27.413   7.664
 2729POPC   NC336467   5.072  34.596   9.464
 2729POPC   PO436468   5.062  34.625   9.164
 2729POPC   GL136469   5.130  34.559   8.864
 2729POPC   GL236470   5.145  34.696   8.864
 2729POPC   C1A36471   5.062  34.535   8.564
 2729POPC   D2A36472   5.117  34.536   8.264
 2729POPC   C3A36473   5.089  34.537   7.964
 2729POPC   C4A36474   5.056  34.547   7.664
 2729POPC   C1B36475   5.281  34.726   8.564
 2729POPC   C2B36476   5.308  34.764   8.264
 2729POPC   C3B36477   5.271  34.746   7.964
 2729POPC   C4B36478   5.313  34.768   7.664
 2730POPC   NC336479  13.637  14.370   9.464
 2730POPC   PO436480  13.578  14.439   9.164
 2730POPC   GL136481  13.671  14.414   8.864
 2730POPC   GL236482  13.668  14.237   8.864
 2730POPC   C1A36483  13.644  14.408   8.564
 2730POPC   D2A36484  13.631  14.403   8.264
 2730POPC   C3A36485  13.635  14.433   7.964
 2730POPC   C4A36486  13.658  14.448   7.664
 2730POPC   C1B36487  13.713  14.116   8.564
 2730POPC   C2B36488  13.698  14.204   8.264
 2730POPC   C3B36489  13.628  14.121   7.964
 2730POPC   C4B36490  13.673  14.133   7.664
 2731POPC   NC336491  25.278  36.162   9.464
 2731POPC   PO436492  25.240  36.144   9.164
 2731POPC   GL136493  25.303  36.101   8.864
 2731POPC   GL236494  25.244  35.985   8.864
 2731POPC   C1A36495  25.277  36.117   8.564
 2731POPC   D2A36496  25.244  36.105   8.264
 2731POPC   C3A36497  25.217  36.082   7.964
 2731POPC   C4A36498  25.313  36.175   7.664
 2731POPC   C1B36499  25.133  35.870   8.564
 2731POPC   C2B36500  25.180  35.925   8.264
 2731POPC   C3B36501  25.188  35.925   7.964
 2731POPC   C4B36502  25.156  35.937   7.664
 2732POPC   NC336503  43.888   7.402   9.464
 2732POPC   PO436504  43.854   7.434   9.164
 2732POPC   GL136505  43.846   7.417   8.864
 2732POPC   GL236506  43.851   7.343   8.864
 2732POPC   C1A36507  43.927   7.388   8.564
 2732POPC   D2A36508  43.867   7.401   8.264
 2732POPC   C3A36509  43.836   7.388   7.964
 2732POPC   C4A36510  43.904   7.414   7.664
 2732POPC   C1B36511  43.810   7.156   8.564
 2732POPC   C2B36512  43.860   7.131   8.264
 2732POPC   C3B36513  43.828   7.183   7.964
 2732POPC   C4B36514  43.803   7.196   7.664
 2733POPC   NC336515   2.814   8.193   9.464
 2733POPC   PO436516   2.780   8.229   9.164
 2733POPC   GL136517   2.789   8.188   8.864
 2733POPC   GL236518   2.675   8.164   8.864
 2733POPC   C1A36519   2.799   8.147   8.564
 2733POPC   D2A36520   2.722   8.191   8.264
 2733POPC   C3A36521   2.808   8.183   7.964
 2733POPC   C4A36522   2.718   8.235   7.664
 2733POPC   C1B36523   2.547   8.051   8.564
 2733POPC   C2B36524   2.566   8.091   8.264
 2733POPC   C3B36525   2.550   8.094   7.964
 2733POPC   C4B36526   2.584   8.057   7.664
 2734POPC   NC336527  22.964   3.502   9.464
 2734POPC   PO436528  22.931   3.519   9.164
 2734POPC   GL136529  22.939   3.576   8.864
 2734POPC   GL236530  22.835   3.521   8.864
 2734POPC   C1A36531  22.911   3.492   8.564
 2734POPC   D2A36532  22.960   3.563   8.264
 2734POPC   C3A36533  22.962   3.538   7.964
 2734POPC   C4A36534  22.944   3.575   7.664
 2734POPC   C1B36535  22.707   3.427   8.564
 2734POPC   C2B36536  22.717   3.459   8.264
 2734POPC   C3B36537  22.672   3.439   7.964
 2734POPC   C4B36538  22.673   3.447   7.664
 2735POPC   NC336539  27.588  23.725   9.464
 2735POPC   PO436540  27.612  23.700   9.164
 2735POPC   GL136541  27.599  23.728   8.864
 2735POPC   GL236542  27.452  23.831   8.864
 2735POPC   C1A36543  27.617  23.735   8.564
 2735POPC   D2A36544  27.630  23.733   8.264
 2735POPC   C3A36545  27.602  23.716   7.964
 2735POPC   C4A36546  27.561  23.763   7.664
 2735POPC   C1B36547  27.436  23.857   8.564
 2735POPC   C2B36548  27.437  23.894   8.264
 2735POPC   C3B36549  27.417  23.830   7.964
 2735POPC   C4B36550  27.353  23.860   7.664
 2736POPC   NC336551  13.640   9.781   9.464
 2736POPC   PO436552  13.581   9.784   9.164
 2736POPC   GL136553  13.593   9.740   8.864
 2736POPC   GL236554  13.545   9.775   8.864
 2736POPC   C1A36555  13.650   9.705   8.564
 2736POPC   D2A36556  13.621   9.717   8.264
 2736POPC   C3A36557  13.631   9.789   7.964
 2736POPC   C4A36558  13.592   9.768   7.664
 2736POPC   C1B36559  13.354   9.831   8.564
 2736POPC   C2B36560  13.420   9.766   8.264
 2736POPC   C3B36561  13.419   9.826   7.964
 2736POPC   C4B36562  13.379   9.820   7.664
 2737POPC   NC336563  14.361  44.660   9.464
 2737POPC   PO436564  14.369  44.708   9.164
 2737POPC   GL136565  14.375  44.685   8.864
 2737POPC   GL236566  14.349  44.753   8.864
 2737POPC   C1A36567  14.361  44.616   8.564
 2737POPC   D2A36568  14.410  44.705   8.264
 2737POPC   C3A36569  14.420  44.685   7.964
 2737POPC   C4A36570  14.390  44.668   7.664
 2737POPC   C1B36571  14.272  44.855   8.564
 2737POPC   C2B36572  14.290  44.901   8.264
 2737POPC   C3B36573  14.344  44.922   7.964
 2737POPC   C4B36574  14.270  44.850   7.664
 2738POPC   NC336575  43.915  18.282   9.464
 2738POPC   PO436576  43.873  18.324   9.164
 2738POPC   GL136577  43.898  18.286   8.864
 2738POPC   GL236578  43.815  18.139   8.864
 2738POPC   C1A36579  43.892  18.234   8.564
 2738POPC   D2A36580  43.917  18.326   8.264
 2738POPC   C3A36581  43.924  18.318   7.964
 2738POPC   C4A36582  43.865  18.252   7.664
 2738POPC   C1B36583  43.775  18.089   8.564
 2738POPC   C2B36584  43.791  17.996   8.264
 2738POPC   C3B36585  43.825  18.071   7.964
 2738POPC   C4B36586  43.850  18.018   7.664
 2739POPC   NC336587  26.837  39.989   9.464
 2739POPC   PO436588  26.808  39.982   9.164
 2739POPC   GL136589  26.820  40.006   8.864
 2739POPC   GL236590  26.878  40.110   8.864
 2739POPC   C1A36591  26.798  40.046   8.564
 2739POPC   D2A36592  26.810  39.998   8.264
 2739POPC   C3A36593  26.842  39.989   7.964
 2739POPC   C4A36594  26.861  40.001   7.664
 2739POPC   C1B36595  26.895  40.229   8.564
 2739POPC   C2B36596  26.913  40.244   8.264
 2739POPC   C3B36597  26.876  40.287   7.964
 2739POPC   C4B36598  26.833  40.249   7.664
 2740POPC   NC336599  26.083   2.026   9.464
 2740POPC   PO436600  26.056   2.002   9.164
 2740POPC   GL136601  26.026   2.026   8.864
 2740POPC   GL236602  25.982   1.832   8.864
 2740POPC   C1A36603  26.091   2.017   8.564
 2740POPC   D2A36604  26.027   1.955   8.264
 2740POPC   C3A36605  26.041   1.958   7.964
 2740POPC   C4A36606  26.060   1.979   7.664
 2740POPC   C1B36607  26.028   1.749   8.564
 2740POPC   C2B36608  26.035   1.700   8.264
 2740POPC   C3B36609  26.053   1.738   7.964
 2740POPC   C4B36610  26.063   1.789   7.664
 2741POPC   NC336611  25.998  26.785   9.464
 2741POPC   PO436612  26.026  26.831   9.164
 2741POPC   GL136613  26.070  26.834   8.864
 2741POPC   GL236614  26.055  26.685   8.864
 2741POPC   C1A36615  26.028  26.866   8.564
 2741POPC   D2A36616  25.997  26.802   8.264
 2741POPC   C3A36617  26.056  26.828   7.964
 2741POPC   C4A36618  26.009  26.850   7.664
 2741POPC   C1B36619  26.072  26.593   8.564
 2741POPC   C2B36620  26.010  26.548   8.264
 2741POPC   C3B36621  26.102  26.541   7.964
 2741POPC   C4B36622  26.018  26.549   7.664
 2742POPC   NC336623  11.338  29.171   9.464
 2742POPC   PO436624  11.256  29.187   9.164
 2742POPC   GL136625  11.309  29.194   8.864
 2742POPC   GL236626  11.470  29.166   8.864
 2742POPC   C1A36627  11.339  29.171   8.564
 2742POPC   D2A36628  11.293  29.117   8.264
 2742POPC   C3A36629  11.335  29.171   7.964
 2742POPC   C4A36630  11.333  29.124   7.664
 2742POPC   C1B36631  11.519  29.131   8.564
 2742POPC   C2B36632  11.551  29.063   8.264
 2742POPC   C3B36633  11.572  29.121   7.964
 2742POPC   C4B36634  11.587  29.065   7.664
 2743POPC   NC336635  12.823  24.495   9.464
 2743POPC   PO436636  12.896  24.489   9.164
 2743POPC   GL136637  12.865  24.485   8.864
 2743POPC   GL236638  12.906  24.594   8.864
 2743POPC   C1A36639  12.891  24.513   8.564
 2743POPC   D2A36640  12.876  24.450   8.264
 2743POPC   C3A36641  12.860  24.535   7.964
 2743POPC   C4A36642  12.871  24.528   7.664
 2743POPC   C1B36643  12.905  24.713   8.564
 2743POPC   C2B36644  12.907  24.769   8.264
 2743POPC   C3B36645  12.889  24.762   7.964
 2743POPC   C4B36646  12.840  24.787   7.664
 2744POPC   NC336647  17.549  19.793   9.464
 2744POPC   PO436648  17.495  19.787   9.164
 2744POPC   GL136649  17.548  19.830   8.864
 2744POPC   GL236650  17.653  19.805   8.864
 2744POPC   C1A36651  17.542  19.800   8.564
 2744POPC   D2A36652  17.550  19.880   8.264
 2744POPC   C3A36653  17.498  19.884   7.964
 2744POPC   C4A36654  17.459  19.872   7.664
 2744POPC   C1B36655  17.757  19.763   8.564
 2744POPC   C2B36656  17.749  19.750   8.264
 2744POPC   C3B36657  17.746  19.753   7.964
 2744POPC   C4B36658  17.769  19.750   7.664
 2745POPC   NC336659  13.628  36.100   9.464
 2745POPC   PO436660  13.578  36.133   9.164
 2745POPC   GL136661  13.655  36.098   8.864
 2745POPC   GL236662  13.505  36.157   8.864
 2745POPC   C1A36663  13.676  36.167   8.564
 2745POPC   D2A36664  13.669  36.159   8.264
 2745POPC   C3A36665  13.610  36.111   7.964
 2745POPC   C4A36666  13.639  36.118   7.664
 2745POPC   C1B36667  13.360  36.110   8.564
 2745POPC   C2B36668  13.333  36.180   8.264
 2745POPC   C3B36669  13.362  36.178   7.964
 2745POPC   C4B36670  13.346  36.146   7.664
 2746POPC   NC336671  38.449  15.991   9.464
 2746POPC   PO436672  38.477  15.927   9.164
 2746POPC   GL136673  38.484  15.968   8.864
 2746POPC   GL236674  38.464  16.085   8.864
 2746POPC   C1A36675  38.497  15.955   8.564
 2746POPC   D2A36676  38.477  15.941   8.264
 2746POPC   C3A36677  38.425  15.924   7.964
 2746POPC   C4A36678  38.490  15.967   7.664
 2746POPC   C1B36679  38.444  16.185   8.564
 2746POPC   C2B36680  38.454  16.250   8.264
 2746POPC   C3B36681  38.431  16.197   7.964
 2746POPC   C4B36682  38.419  16.249   7.664
 2747POPC   NC336683  40.787  39.254   9.464
 2747POPC   PO436684  40.735  39.247   9.164
 2747POPC   GL136685  40.738  39.254   8.864
 2747POPC   GL236686  40.829  39.127   8.864
 2747POPC   C1A36687  40.815  39.239   8.564
 2747POPC   D2A36688  40.736  39.277   8.264
 2747POPC   C3A36689  40.758  39.218   7.964
 2747POPC   C4A36690  40.775  39.259   7.664
 2747POPC   C1B36691  40.911  39.015   8.564
 2747POPC   C2B36692  40.956  39.070   8.264
 2747POPC   C3B36693  40.886  39.044   7.964
 2747POPC   C4B36694  40.977  39.015   7.664
 2748POPC   NC336695  14.384  11.346   9.464
 2748POPC   PO436696  14.379  11.339   9.164
 2748POPC   GL136697  14.397  11.332   8.864
 2748POPC   GL236698  14.548  11.375   8.864
 2748POPC   C1A36699  14.441  11.250   8.564
 2748POPC   D2A36700  14.358  11.253   8.264
 2748POPC   C3A36701  14.385  11.316   7.964
 2748POPC   C4A36702  14.452  11.334   7.664
 2748POPC   C1B36703  14.596  11.362   8.564
 2748POPC   C2B36704  14.613  11.397   8.264
 2748POPC   C3B36705  14.673  11.326   7.964
 2748POPC   C4B36706  14.598  11.335   7.664
 2749POPC   NC336707  26.835  24.498   9.464
 2749POPC   PO436708  26.768  24.527   9.164
 2749POPC   GL136709  26.769  24.444   8.864
 2749POPC   GL236710  26.749  24.620   8.864
 2749POPC   C1A36711  26.802  24.509   8.564
 2749POPC   D2A36712  26.858  24.464   8.264
 2749POPC   C3A36713  26.816  24.516   7.964
 2749POPC   C4A36714  26.845  24.462   7.664
 2749POPC   C1B36715  26.802  24.696   8.564
 2749POPC   C2B36716  26.747  24.738   8.264
 2749POPC   C3B36717  26.729  24.772   7.964
 2749POPC   C4B36718  26.767  24.768   7.664
 2750POPC   NC336719  39.964  33.025   9.464
 2750POPC   PO436720  40.053  33.050   9.164
 2750POPC   GL136721  40.040  33.050   8.864
 2750POPC   GL236722  40.071  33.052   8.864
 2750POPC   C1A36723  39.966  33.012   8.564
 2750POPC   D2A36724  39.969  33.044   8.264
 2750POPC   C3A36725  39.984  33.057   7.964
 2750POPC   C4A36726  40.005  33.060   7.664
 2750POPC   C1B36727  40.192  33.152   8.564
 2750POPC   C2B36728  40.216  33.114   8.264
 2750POPC   C3B36729  40.210  33.175   7.964
 2750POPC   C4B36730  40.221  33.119   7.664
 2751POPC   NC336731   7.444  32.979   9.464
 2751POPC   PO436732   7.411  32.988   9.164
 2751POPC   GL136733   7.414  32.990   8.864
 2751POPC   GL236734   7.422  32.876   8.864
 2751POPC   C1A36735   7.400  33.060   8.564
 2751POPC   D2A36736   7.447  33.009   8.264
 2751POPC   C3A36737   7.409  33.049   7.964
 2751POPC   C4A36738   7.424  33.066   7.664
 2751POPC   C1B36739   7.438  32.757   8.564
 2751POPC   C2B36740   7.510  32.819   8.264
 2751POPC   C3B36741   7.524  32.756   7.964
 2751POPC   C4B36742   7.481  32.786   7.664
 2752POPC   NC336743  13.623  41.607   9.464
 2752POPC   PO436744  13.608  41.543   9.164
 2752POPC   GL136745  13.632  41.600   8.864
 2752POPC   GL236746  13.538  41.635   8.864
 2752POPC   C1A36747  13.630  41.594   8.564
 2752POPC   D2A36748  13.610  41.530   8.264
 2752POPC   C3A36749  13.617  41.558   7.964
 2752POPC   C4A36750  13.636  41.584   7.664
 2752POPC   C1B36751  13.522  41.768   8.564
 2752POPC   C2B36752  13.525  41.809   8.264
 2752POPC   C3B36753  13.483  41.769   7.964
 2752POPC   C4B36754  13.553  41.810   7.664
 2753POPC   NC336755  27.585  19.811   9.464
 2753POPC   PO436756  27.602  19.805   9.164
 2753POPC   GL136757  27.554  19.836   8.864
 2753POPC   GL236758  27.693  19.797   8.864
 2753POPC   C1A36759  27.579  19.816   8.564
 2753POPC   D2A36760  27.628  19.826   8.264
 2753POPC   C3A36761  27.588  19.847   7.964
 2753POPC   C4A36762  27.569  19.824   7.664
 2753POPC   C1B36763  27.784  19.731   8.564
 2753POPC   C2B36764  27.845  19.674   8.264
 2753POPC   C3B36765  27.831  19.694   7.964
 2753POPC   C4B36766  27.774  19.710   7.664
 2754POPC   NC336767   9.018  44.692   9.464
 2754POPC   PO436768   8.965  44.688   9.164
 2754POPC   GL136769   9.013  44.707   8.864
 2754POPC   GL236770   9.017  44.811   8.864
 2754POPC   C1A36771   9.008  44.699   8.564
 2754POPC   D2A36772   8.958  44.678   8.264
 2754POPC   C3A36773   8.948  44.647   7.964
 2754POPC   C4A36774   9.020  44.625   7.664
 2754POPC   C1B36775   9.024  44.907   8.564
 2754POPC   C2B36776   9.111  44.921   8.264
 2754POPC   C3B36777   9.025  44.864   7.964
 2754POPC   C4B36778   9.109  44.929   7.664
 2755POPC   NC336779  21.390  16.775   9.464
 2755POPC   PO436780  21.367  16.765   9.164
 2755POPC   GL136781  21.408  16.713   8.864
 2755POPC   GL236782  21.441  16.792   8.864
 2755POPC   C1A36783  21.347  16.765   8.564
 2755POPC   D2A36784  21.395  16.711   8.264
 2755POPC   C3A36785  21.355  16.772   7.964
 2755POPC   C4A36786  21.413  16.731   7.664
 2755POPC   C1B36787  21.607  16.890   8.564
 2755POPC   C2B36788  21.540  16.863   8.264
 2755POPC   C3B36789  21.631  16.858   7.964
 2755POPC   C4B36790  21.591  16.878   7.664
 2756POPC   NC336791  22.897  28.346   9.464
 2756POPC   PO436792  22.952  28.398   9.164
 2756POPC   GL136793  22.900  28.386   8.864
 2756POPC   GL236794  23.003  28.203   8.864
 2756POPC   C1A36795  22.933  28.382   8.564
 2756POPC   D2A36796  22.900  28.377   8.264
 2756POPC   C3A36797  22.953  28.386   7.964
 2756POPC   C4A36798  22.936  28.412   7.664
 2756POPC   C1B36799  22.997  28.097   8.564
 2756POPC   C2B36800  23.010  28.163   8.264
 2756POPC   C3B36801  22.998  28.172   7.964
 2756POPC   C4B36802  22.981  28.084   7.664
 2757POPC   NC336803  11.286  32.244   9.464
 2757POPC   PO436804  11.257  32.254   9.164
 2757POPC   GL136805  11.267  32.268   8.864
 2757POPC   GL236806  11.329  32.393   8.864
 2757POPC   C1A36807  11.349  32.205   8.564
 2757POPC   D2A36808  11.298  32.245   8.264
 2757POPC   C3A36809  11.282  32.265   7.964
 2757POPC   C4A36810  11.287  32.247   7.664
 2757POPC   C1B36811  11.389  32.521   8.564
 2757POPC   C2B36812  11.423  32.472   8.264
 2757POPC   C3B36813  11.364  32.520   7.964
 2757POPC   C4B36814  11.391  32.510   7.664
 2758POPC   NC336815   3.545  29.939   9.464
 2758POPC   PO436816   3.590  29.889   9.164
 2758POPC   GL136817   3.552  29.936   8.864
 2758POPC   GL236818   3.524  29.791   8.864
 2758POPC   C1A36819   3.584  29.926   8.564
 2758POPC   D2A36820   3.519  29.964   8.264
 2758POPC   C3A36821   3.535  29.896   7.964
 2758POPC   C4A36822   3.587  29.955   7.664
 2758POPC   C1B36823   3.404  29.703   8.564
 2758POPC   C2B36824   3.466  29.663   8.264
 2758POPC   C3B36825   3.423  29.732   7.964
 2758POPC   C4B36826   3.441  29.645   7.664
 2759POPC   NC336827  21.349  15.932   9.464
 2759POPC   PO436828  21.411  15.961   9.164
 2759POPC   GL136829  21.347  15.917   8.864
 2759POPC   GL236830  21.409  15.883   8.864
 2759POPC   C1A36831  21.401  15.962   8.564
 2759POPC   D2A36832  21.337  15.933   8.264
 2759POPC   C3A36833  21.431  15.990   7.964
 2759POPC   C4A36834  21.340  15.913   7.664
 2759POPC   C1B36835  21.499  15.776   8.564
 2759POPC   C2B36836  21.463  15.757   8.264
 2759POPC   C3B36837  21.550  15.782   7.964
 2759POPC   C4B36838  21.512  15.694   7.664
 2760POPC   NC336839  32.247  29.157   9.464
 2760POPC   PO436840  32.274  29.165   9.164
 2760POPC   GL136841  32.229  29.185   8.864
 2760POPC   GL236842  32.290  29.259   8.864
 2760POPC   C1A36843  32.295  29.111   8.564
 2760POPC   D2A36844  32.200  29.162   8.264
 2760POPC   C3A36845  32.297  29.106   7.964
 2760POPC   C4A36846  32.274  29.168   7.664
 2760POPC   C1B36847  32.340  29.424   8.564
 2760POPC   C2B36848  32.325  29.427   8.264
 2760POPC   C3B36849  32.312  29.399   7.964
 2760POPC   C4B36850  32.355  29.341   7.664
 2761POPC   NC336851  24.512  39.988   9.464
 2761POPC   PO436852  24.530  39.970   9.164
 2761POPC   GL136853  24.449  40.001   8.864
 2761POPC   GL236854  24.598  40.080   8.864
 2761POPC   C1A36855  24.517  40.046   8.564
 2761POPC   D2A36856  24.535  40.037   8.264
 2761POPC   C3A36857  24.513  40.044   7.964
 2761POPC   C4A36858  24.473  39.984   7.664
 2761POPC   C1B36859  24.677  40.189   8.564
 2761POPC   C2B36860  24.713  40.211   8.264
 2761POPC   C3B36861  24.652  40.180   7.964
 2761POPC   C4B36862  24.639  40.167   7.664
 2762POPC   NC336863   0.399  25.232   9.464
 2762POPC   PO436864   0.432  25.314   9.164
 2762POPC   GL136865   0.422  25.283   8.864
 2762POPC   GL236866   0.540  25.350   8.864
 2762POPC   C1A36867   0.430  25.259   8.564
 2762POPC   D2A36868   0.446  25.293   8.264
 2762POPC   C3A36869   0.408  25.260   7.964
 2762POPC   C4A36870   0.450  25.216   7.664
 2762POPC   C1B36871   0.610  25.362   8.564
 2762POPC   C2B36872   0.616  25.398   8.264
 2762POPC   C3B36873   0.633  25.386   7.964
 2762POPC   C4B36874   0.650  25.413   7.664
 2763POPC   NC336875  27.563   8.940   9.464
 2763POPC   PO436876  27.598   8.992   9.164
 2763POPC   GL136877  27.601   9.002   8.864
 2763POPC   GL236878  27.503   8.996   8.864
 2763POPC   C1A36879  27.582   8.926   8.564
 2763POPC   D2A36880  27.638   8.967   8.264
 2763POPC   C3A36881  27.628   8.979   7.964
 2763POPC   C4A36882  27.617   8.986   7.664
 2763POPC   C1B36883  27.307   9.053   8.564
 2763POPC   C2B36884  27.360   9.007   8.264
 2763POPC   C3B36885  27.364   9.047   7.964
 2763POPC   C4B36886  27.338   9.066   7.664
 2764POPC   NC336887  38.437  12.869   9.464
 2764POPC   PO436888  38.451  12.837   9.164
 2764POPC   GL136889  38.438  12.830   8.864
 2764POPC   GL236890  38.511  12.806   8.864
 2764POPC   C1A36891  38.466  12.858   8.564
 2764POPC   D2A36892  38.430  12.810   8.264
 2764POPC   C3A36893  38.471  12.872   7.964
 2764POPC   C4A36894  38.444  12.841   7.664
 2764POPC   C1B36895  38.667  12.687   8.564
 2764POPC   C2B36896  38.666  12.719   8.264
 2764POPC   C3B36897  38.664  12.767   7.964
 2764POPC   C4B36898  38.711  12.732   7.664
 2765POPC   NC336899  11.267  13.605   9.464
 2765POPC   PO436900  11.285  13.596   9.164
 2765POPC   GL136901  11.330  13.660   8.864
 2765POPC   GL236902  11.204  13.745   8.864
 2765POPC   C1A36903  11.298  13.670   8.564
 2765POPC   D2A36904  11.263  13.630   8.264
 2765POPC   C3A36905  11.314  13.617   7.964
 2765POPC   C4A36906  11.293  13.653   7.664
 2765POPC   C1B36907  11.211  13.862   8.564
 2765POPC   C2B36908  11.208  13.802   8.264
 2765POPC   C3B36909  11.158  13.851   7.964
 2765POPC   C4B36910  11.168  13.882   7.664
 2766POPC   NC336911  41.547  32.251   9.464
 2766POPC   PO436912  41.527  32.200   9.164
 2766POPC   GL136913  41.520  32.235   8.864
 2766POPC   GL236914  41.503  32.165   8.864
 2766POPC   C1A36915  41.600  32.219   8.564
 2766POPC   D2A36916  41.574  32.270   8.264
 2766POPC   C3A36917  41.552  32.200   7.964
 2766POPC   C4A36918  41.527  32.262   7.664
 2766POPC   C1B36919  41.528  31.989   8.564
 2766POPC   C2B36920  41.543  31.984   8.264
 2766POPC   C3B36921  41.482  32.010   7.964
 2766POPC   C4B36922  41.513  31.980   7.664
 2767POPC   NC336923  25.284  43.146   9.464
 2767POPC   PO436924  25.250  43.117   9.164
 2767POPC   GL136925  25.304  43.137   8.864
 2767POPC   GL236926  25.176  43.226   8.864
 2767POPC   C1A36927  25.229  43.104   8.564
 2767POPC   D2A36928  25.251  43.068   8.264
 2767POPC   C3A36929  25.285  43.119   7.964
 2767POPC   C4A36930  25.284  43.073   7.664
 2767POPC   C1B36931  25.054  43.322   8.564
 2767POPC   C2B36932  25.113  43.291   8.264
 2767POPC   C3B36933  25.141  43.324   7.964
 2767POPC   C4B36934  25.064  43.277   7.664
 2768POPC   NC336935  27.608   7.465   9.464
 2768POPC   PO436936  27.546   7.450   9.164
 2768POPC   GL136937  27.610   7.401   8.864
 2768POPC   GL236938  27.651   7.578   8.864
 2768POPC   C1A36939  27.598   7.371   8.564
 2768POPC   D2A36940  27.585   7.465   8.264
 2768POPC   C3A36941  27.633   7.376   7.964
 2768POPC   C4A36942  27.607   7.388   7.664
 2768POPC   C1B36943  27.674   7.683   8.564
 2768POPC   C2B36944  27.682   7.653   8.264
 2768POPC   C3B36945  27.627   7.631   7.964
 2768POPC   C4B36946  27.610   7.710   7.664
 2769POPC   NC336947   9.003  29.106   9.464
 2769POPC   PO436948   8.979  29.130   9.164
 2769POPC   GL136949   8.966  29.148   8.864
 2769POPC   GL236950   8.892  29.269   8.864
 2769POPC   C1A36951   8.954  29.114   8.564
 2769POPC   D2A36952   8.934  29.134   8.264
 2769POPC   C3A36953   8.928  29.096   7.964
 2769POPC   C4A36954   8.973  29.107   7.664
 2769POPC   C1B36955   8.813  29.349   8.564
 2769POPC   C2B36956   8.857  29.350   8.264
 2769POPC   C3B36957   8.791  29.319   7.964
 2769POPC   C4B36958   8.808  29.333   7.664
 2770POPC   NC336959  35.337   3.510   9.464
 2770POPC   PO436960  35.395   3.513   9.164
 2770POPC   GL136961  35.316   3.542   8.864
 2770POPC   GL236962  35.194   3.513   8.864
 2770POPC   C1A36963  35.378   3.534   8.564
 2770POPC   D2A36964  35.314   3.535   8.264
 2770POPC   C3A36965  35.328   3.498   7.964
 2770POPC   C4A36966  35.396   3.541   7.664
 2770POPC   C1B36967  35.171   3.407   8.564
 2770POPC   C2B36968  35.095   3.412   8.264
 2770POPC   C3B36969  35.174   3.379   7.964
 2770POPC   C4B36970  35.100   3.461   7.664
 2771POPC   NC336971  37.673   1.981   9.464
 2771POPC   PO436972  37.723   1.997   9.164
 2771POPC   GL136973  37.637   1.954   8.864
 2771POPC   GL236974  37.817   1.966   8.864
 2771POPC   C1A36975  37.707   2.017   8.564
 2771POPC   D2A36976  37.701   2.039   8.264
 2771POPC   C3A36977  37.645   1.954   7.964
 2771POPC   C4A36978  37.690   2.010   7.664
 2771POPC   C1B36979  37.907   1.808   8.564
 2771POPC   C2B36980  37.856   1.876   8.264
 2771POPC   C3B36981  37.852   1.886   7.964
 2771POPC   C4B36982  37.906   1.798   7.664
 2772POPC   NC336983   1.959  40.745   9.464
 2772POPC   PO436984   1.995  40.753   9.164
 2772POPC   GL136985   2.000  40.832   8.864
 2772POPC   GL236986   2.109  40.857   8.864
 2772POPC   C1A36987   2.036  40.820   8.564
 2772POPC   D2A36988   2.035  40.775   8.264
 2772POPC   C3A36989   2.023  40.792   7.964
 2772POPC   C4A36990   1.979  40.822   7.664
 2772POPC   C1B36991   2.177  40.868   8.564
 2772POPC   C2B36992   2.187  40.863   8.264
 2772POPC   C3B36993   2.188  40.917   7.964
 2772POPC   C4B36994   2.258  40.893   7.664
 2773POPC   NC336995  22.901  43.909   9.464
 2773POPC   PO436996  22.987  43.901   9.164
 2773POPC   GL136997  22.949  43.935   8.864
 2773POPC   GL236998  22.900  43.773   8.864
 2773POPC   C1A36999  22.939  43.850   8.564
 2773POPC   D2A37000  22.983  43.911   8.264
 2773POPC   C3A37001  22.921  43.884   7.964
 2773POPC   C4A37002  22.926  43.875   7.664
 2773POPC   C1B37003  22.921  43.676   8.564
 2773POPC   C2B37004  22.882  43.601   8.264
 2773POPC   C3B37005  22.850  43.686   7.964
 2773POPC   C4B37006  22.899  43.630   7.664
 2774POPC   NC337007   2.012   5.061   9.464
 2774POPC   PO437008   2.011   5.067   9.164
 2774POPC   GL137009   1.954   5.089   8.864
 2774POPC   GL237010   1.960   5.220   8.864
 2774POPC   C1A37011   1.989   5.069   8.564
 2774POPC   D2A37012   1.990   5.067   8.264
 2774POPC   C3A37013   1.964   5.130   7.964
 2774POPC   C4A37014   1.978   5.140   7.664
 2774POPC   C1B37015   1.918   5.335   8.564
 2774POPC   C2B37016   1.965   5.379   8.264
 2774POPC   C3B37017   1.977   5.307   7.964
 2774POPC   C4B37018   1.903   5.360   7.664
 2775POPC   NC337019  38.495  34.554   9.464
 2775POPC   PO437020  38.427  34.582   9.164
 2775POPC   GL137021  38.463  34.534   8.864
 2775POPC   GL237022  38.556  34.602   8.864
 2775POPC   C1A37023  38.473  34.533   8.564
 2775POPC   D2A37024  38.456  34.547   8.264
 2775POPC   C3A37025  38.494  34.605   7.964
 2775POPC   C4A37026  38.444  34.575   7.664
 2775POPC   C1B37027  38.718  34.644   8.564
 2775POPC   C2B37028  38.724  34.656   8.264
 2775POPC   C3B37029  38.670  34.669   7.964
 2775POPC   C4B37030  38.700  34.598   7.664
 2776POPC   NC337031  32.219  32.285   9.464
 2776POPC   PO437032  32.244  32.261   9.164
 2776POPC   GL137033  32.256  32.264   8.864
 2776POPC   GL237034  32.306  32.382   8.864
 2776POPC   C1A37035  32.279  32.208   8.564
 2776POPC   D2A37036  32.293  32.236   8.264
 2776POPC   C3A37037  32.209  32.245   7.964
 2776POPC   C4A37038  32.269  32.269   7.664
 2776POPC   C1B37039  32.385  32.437   8.564
 2776POPC   C2B37040  32.414  32.428   8.264
 2776POPC   C3B37041  32.467  32.414   7.964
 2776POPC   C4B37042  32.451  32.380   7.664
 2777POPC   NC337043  33.756  33.774   9.464
 2777POPC   PO437044  33.837  33.843   9.164
 2777POPC   GL137045  33.795  33.785   8.864
 2777POPC   GL237046  33.836  33.914   8.864
 2777POPC   C1A37047  33.766  33.796   8.564
 2777POPC   D2A37048  33.791  33.830   8.264
 2777POPC   C3A37049  33.812  33.833   7.964
 2777POPC   C4A37050  33.839  33.768   7.664
 2777POPC   C1B37051  33.927  34.036   8.564
 2777POPC   C2B37052  33.946  33.970   8.264
 2777POPC   C3B37053  33.929  34.059   7.964
 2777POPC   C4B37054  33.914  34.008   7.664
 2778POPC   NC337055  11.344  15.208   9.464
 2778POPC   PO437056  11.272  15.148   9.164
 2778POPC   GL137057  11.332  15.214   8.864
 2778POPC   GL237058  11.203  15.206   8.864
 2778POPC   C1A37059  11.344  15.212   8.564
 2778POPC   D2A37060  11.272  15.136   8.264
 2778POPC   C3A37061  11.307  15.225   7.964
 2778POPC   C4A37062  11.335  15.152   7.664
 2778POPC   C1B37063  11.037  15.232   8.564
 2778POPC   C2B37064  11.027  15.254   8.264
 2778POPC   C3B37065  11.030  15.204   7.964
 2778POPC   C4B37066  11.039  15.198   7.664
 2779POPC   NC337067  15.137  27.573   9.464
 2779POPC   PO437068  15.213  27.590   9.164
 2779POPC   GL137069  15.214  27.564   8.864
 2779POPC   GL237070  15.235  27.422   8.864
 2779POPC   C1A37071  15.159  27.622   8.564
 2779POPC   D2A37072  15.192  27.599   8.264
 2779POPC   C3A37073  15.165  27.609   7.964
 2779POPC   C4A37074  15.199  27.608   7.664
 2779POPC   C1B37075  15.187  27.361   8.564
 2779POPC   C2B37076  15.183  27.311   8.264
 2779POPC   C3B37077  15.176  27.377   7.964
 2779POPC   C4B37078  15.268  27.345   7.664
 2780POPC   NC337079  42.320  43.886   9.464
 2780POPC   PO437080  42.384  43.898   9.164
 2780POPC   GL137081  42.291  43.872   8.864
 2780POPC   GL237082  42.336  43.984   8.864
 2780POPC   C1A37083  42.290  43.901   8.564
 2780POPC   D2A37084  42.328  43.925   8.264
 2780POPC   C3A37085  42.320  43.865   7.964
 2780POPC   C4A37086  42.337  43.892   7.664
 2780POPC   C1B37087  42.238  44.118   8.564
 2780POPC   C2B37088  42.251  44.099   8.264
 2780POPC   C3B37089  42.264  44.129   7.964
 2780POPC   C4B37090  42.263  44.086   7.664
 2781POPC   NC337091  11.311  11.307   9.464
 2781POPC   PO437092  11.251  11.257   9.164
 2781POPC   GL137093  11.274  11.289   8.864
 2781POPC   GL237094  11.415  11.220   8.864
 2781POPC   C1A37095  11.300  11.347   8.564
 2781POPC   D2A37096  11.262  11.327   8.264
 2781POPC   C3A37097  11.259  11.274   7.964
 2781POPC   C4A37098  11.282  11.329   7.664
 2781POPC   C1B37099  11.477  11.109   8.564
 2781POPC   C2B37100  11.497  11.162   8.264
 2781POPC   C3B37101  11.453  11.144   7.964
 2781POPC   C4B37102  11.530  11.169   7.664
 2782POPC   NC337103  19.091   1.260   9.464
 2782POPC   PO437104  19.080   1.185   9.164
 2782POPC   GL137105  19.075   1.205   8.864
 2782POPC   GL237106  18.945   1.119   8.864
 2782POPC   C1A37107  19.089   1.229   8.564
 2782POPC   D2A37108  19.020   1.220   8.264
 2782POPC   C3A37109  19.030   1.220   7.964
 2782POPC   C4A37110  19.011   1.259   7.664
 2782POPC   C1B37111  18.840   1.032   8.564
 2782POPC   C2B37112  18.860   1.015   8.264
 2782POPC   C3B37113  18.877   1.087   7.964
 2782POPC   C4B37114  18.883   1.023   7.664
 2783POPC   NC337115  37.655  26.822   9.464
 2783POPC   PO437116  37.640  26.846   9.164
 2783POPC   GL137117  37.708  26.843   8.864
 2783POPC   GL237118  37.731  26.900   8.864
 2783POPC   C1A37119  37.717  26.816   8.564
 2783POPC   D2A37120  37.686  26.786   8.264
 2783POPC   C3A37121  37.670  26.807   7.964
 2783POPC   C4A37122  37.653  26.818   7.664
 2783POPC   C1B37123  37.831  27.067   8.564
 2783POPC   C2B37124  37.862  27.003   8.264
 2783POPC   C3B37125  37.785  26.988   7.964
 2783POPC   C4B37126  37.849  27.048   7.664
 2784POPC   NC337127   7.391  32.239   9.464
 2784POPC   PO437128   7.426  32.212   9.164
 2784POPC   GL137129   7.419  32.219   8.864
 2784POPC   GL237130   7.441  32.190   8.864
 2784POPC   C1A37131   7.428  32.231   8.564
 2784POPC   D2A37132   7.432  32.225   8.264
 2784POPC   C3A37133   7.410  32.205   7.964
 2784POPC   C4A37134   7.398  32.242   7.664
 2784POPC   C1B37135   7.536  32.017   8.564
 2784POPC   C2B37136   7.521  32.072   8.264
 2784POPC   C3B37137   7.521  31.985   7.964
 2784POPC   C4B37138   7.507  32.026   7.664
 2785POPC   NC337139  39.251   0.391   9.464
 2785POPC   PO437140  39.201   0.483   9.164
 2785POPC   GL137141  39.191   0.463   8.864
 2785POPC   GL237142  39.356   0.560   8.864
 2785POPC   C1A37143  39.192   0.459   8.564
 2785POPC   D2A37144  39.186   0.404   8.264
 2785POPC   C3A37145  39.232   0.483   7.964
 2785POPC   C4A37146  39.260   0.438   7.664
 2785POPC   C1B37147  39.387   0.683   8.564
 2785POPC   C2B37148  39.415   0.681   8.264
 2785POPC   C3B37149  39.422   0.686   7.964
 2785POPC   C4B37150  39.398   0.629   7.664
 2786POPC   NC337151  14.410  38.467   9.464
 2786POPC   PO437152  14.417  38.436   9.164
 2786POPC   GL137153  14.373  38.468   8.864
 2786POPC   GL237154  14.293  38.511   8.864
 2786POPC   C1A37155  14.373  38.455   8.564
 2786POPC   D2A37156  14.377  38.480   8.264
 2786POPC   C3A37157  14.402  38.471   7.964
 2786POPC   C4A37158  14.365  38.425   7.664
 2786POPC   C1B37159  14.250  38.626   8.564
 2786POPC   C2B37160  14.279  38.641   8.264
 2786POPC   C3B37161  14.284  38.613   7.964
 2786POPC   C4B37162  14.255  38.623   7.664
 2787POPC   NC337163  12.116  19.815   9.464
 2787POPC   PO437164  12.053  19.807   9.164
 2787POPC   GL137165  12.121  19.808   8.864
 2787POPC   GL237166  12.145  19.743   8.864
 2787POPC   C1A37167  12.075  19.871   8.564
 2787POPC   D2A37168  12.083  19.814   8.264
 2787POPC   C3A37169  12.087  19.848   7.964
 2787POPC   C4A37170  12.075  19.845   7.664
 2787POPC   C1B37171  12.287  19.649   8.564
 2787POPC   C2B37172  12.189  19.686   8.264
 2787POPC   C3B37173  12.282  19.680   7.964
 2787POPC   C4B37174  12.270  19.652   7.664
 2788POPC   NC337175  39.981  14.399   9.464
 2788POPC   PO437176  40.051  14.406   9.164
 2788POPC   GL137177  40.012  14.384   8.864
 2788POPC   GL237178  39.856  14.335   8.864
 2788POPC   C1A37179  39.994  14.436   8.564
 2788POPC   D2A37180  40.036  14.399   8.264
 2788POPC   C3A37181  39.982  14.451   7.964
 2788POPC   C4A37182  40.052  14.397   7.664
 2788POPC   C1B37183  39.807  14.336   8.564
 2788POPC   C2B37184  39.776  14.394   8.264
 2788POPC   C3B37185  39.794  14.360   7.964
 2788POPC   C4B37186  39.774  14.323   7.664
 2789POPC   NC337187  43.079  38.439   9.464
 2789POPC   PO437188  43.073  38.463   9.164
 2789POPC   GL137189  43.093  38.448   8.864
 2789POPC   GL237190  42.955  38.396   8.864
 2789POPC   C1A37191  43.160  38.503   8.564
 2789POPC   D2A37192  43.116  38.469   8.264
 2789POPC   C3A37193  43.079  38.442   7.964
 2789POPC   C4A37194  43.080  38.426   7.664
 2789POPC   C1B37195  42.902  38.384   8.564
 2789POPC   C2B37196  42.818  38.372   8.264
 2789POPC   C3B37197  42.824  38.405   7.964
 2789POPC   C4B37198  42.876  38.437   7.664
 2790POPC   NC337199  26.016  15.937   9.464
 2790POPC   PO437200  26.006  16.004   9.164
 2790POPC   GL137201  26.084  15.937   8.864
 2790POPC   GL237202  25.951  15.898   8.864
 2790POPC   C1A37203  26.068  15.908   8.564
 2790POPC   D2A37204  26.067  15.929   8.264
 2790POPC   C3A37205  26.053  15.964   7.964
 2790POPC   C4A37206  26.036  15.951   7.664
 2790POPC   C1B37207  25.797  15.798   8.564
 2790POPC   C2B37208  25.867  15.805   8.264
 2790POPC   C3B37209  25.855  15.848   7.964
 2790POPC   C4B37210  25.824  15.801   7.664
 2791POPC   NC337211  33.002   8.234   9.464
 2791POPC   PO437212  32.975   8.165   9.164
 2791POPC   GL137213  33.029   8.197   8.864
 2791POPC   GL237214  32.928   8.164   8.864
 2791POPC   C1A37215  32.986   8.207   8.564
 2791POPC   D2A37216  33.052   8.212   8.264
 2791POPC   C3A37217  32.992   8.234   7.964
 2791POPC   C4A37218  32.997   8.163   7.664
 2791POPC   C1B37219  32.784   8.184   8.564
 2791POPC   C2B37220  32.781   8.174   8.264
 2791POPC   C3B37221  32.818   8.227   7.964
 2791POPC   C4B37222  32.761   8.241   7.664
 2792POPC   NC337223   3.568   8.227   9.464
 2792POPC   PO437224   3.574   8.191   9.164
 2792POPC   GL137225   3.582   8.183   8.864
 2792POPC   GL237226   3.630   8.205   8.864
 2792POPC   C1A37227   3.545   8.165   8.564
 2792POPC   D2A37228   3.530   8.157   8.264
 2792POPC   C3A37229   3.508   8.163   7.964
 2792POPC   C4A37230   3.529   8.201   7.664
 2792POPC   C1B37231   3.745   8.219   8.564
 2792POPC   C2B37232   3.810   8.193   8.264
 2792POPC   C3B37233   3.791   8.217   7.964
 2792POPC   C4B37234   3.833   8.260   7.664
 2793POPC   NC337235  23.739  15.185   9.464
 2793POPC   PO437236  23.718  15.144   9.164
 2793POPC   GL137237  23.743  15.156   8.864
 2793POPC   GL237238  23.669  15.289   8.864
 2793POPC   C1A37239  23.731  15.169   8.564
 2793POPC   D2A37240  23.714  15.192   8.264
 2793POPC   C3A37241  23.713  15.169   7.964
 2793POPC   C4A37242  23.762  15.192   7.664
 2793POPC   C1B37243  23.640  15.438   8.564
 2793POPC   C2B37244  23.652  15.425   8.264
 2793POPC   C3B37245  23.646  15.421   7.964
 2793POPC   C4B37246  23.631  15.464   7.664
 2794POPC   NC337247  14.430  43.090   9.464
 2794POPC   PO437248  14.447  43.145   9.164
 2794POPC   GL137249  14.436  43.087   8.864
 2794POPC   GL237250  14.448  43.230   8.864
 2794POPC   C1A37251  14.354  43.157   8.564
 2794POPC   D2A37252  14.418  43.082   8.264
 2794POPC   C3A37253  14.381  43.147   7.964
 2794POPC   C4A37254  14.354  43.123   7.664
 2794POPC   C1B37255  14.608  43.317   8.564
 2794POPC   C2B37256  14.608  43.278   8.264
 2794POPC   C3B37257  14.554  43.295   7.964
 2794POPC   C4B37258  14.557  43.254   7.664
 2795POPC   NC337259  16.718   1.259   9.464
 2795POPC   PO437260  16.750   1.189   9.164
 2795POPC   GL137261  16.725   1.190   8.864
 2795POPC   GL237262  16.629   1.131   8.864
 2795POPC   C1A37263  16.745   1.238   8.564
 2795POPC   D2A37264  16.721   1.211   8.264
 2795POPC   C3A37265  16.774   1.249   7.964
 2795POPC   C4A37266  16.688   1.210   7.664
 2795POPC   C1B37267  16.535   1.054   8.564
 2795POPC   C2B37268  16.515   0.999   8.264
 2795POPC   C3B37269  16.533   1.072   7.964
 2795POPC   C4B37270  16.535   1.043   7.664
 2796POPC   NC337271  15.169   3.538   9.464
 2796POPC   PO437272  15.208   3.497   9.164
 2796POPC   GL137273  15.225   3.572   8.864
 2796POPC   GL237274  15.234   3.394   8.864
 2796POPC   C1A37275  15.132   3.584   8.564
 2796POPC   D2A37276  15.218   3.580   8.264
 2796POPC   C3A37277  15.179   3.495   7.964
 2796POPC   C4A37278  15.217   3.564   7.664
 2796POPC   C1B37279  15.220   3.261   8.564
 2796POPC   C2B37280  15.219   3.289   8.264
 2796POPC   C3B37281  15.214   3.264   7.964
 2796POPC   C4B37282  15.178   3.295   7.664
 2797POPC   NC337283  16.771  36.140   9.464
 2797POPC   PO437284  16.710  36.121   9.164
 2797POPC   GL137285  16.732  36.113   8.864
 2797POPC   GL237286  16.854  36.056   8.864
 2797POPC   C1A37287  16.727  36.089   8.564
 2797POPC   D2A37288  16.737  36.091   8.264
 2797POPC   C3A37289  16.719  36.156   7.964
 2797POPC   C4A37290  16.778  36.174   7.664
 2797POPC   C1B37291  16.914  35.923   8.564
 2797POPC   C2B37292  16.970  35.991   8.264
 2797POPC   C3B37293  16.961  35.929   7.964
 2797POPC   C4B37294  16.962  35.978   7.664
 2798POPC   NC337295  43.146  22.137   9.464
 2798POPC   PO437296  43.119  22.209   9.164
 2798POPC   GL137297  43.080  22.137   8.864
 2798POPC   GL237298  43.223  22.148   8.864
 2798POPC   C1A37299  43.113  22.173   8.564
 2798POPC   D2A37300  43.154  22.208   8.264
 2798POPC   C3A37301  43.140  22.204   7.964
 2798POPC   C4A37302  43.133  22.164   7.664
 2798POPC   C1B37303  43.310  22.119   8.564
 2798POPC   C2B37304  43.325  22.051   8.264
 2798POPC   C3B37305  43.369  22.046   7.964
 2798POPC   C4B37306  43.329  22.052   7.664
 2799POPC   NC337307  13.579   1.198   9.464
 2799POPC   PO437308  13.627   1.210   9.164
 2799POPC   GL137309  13.619   1.179   8.864
 2799POPC   GL237310  13.535   1.235   8.864
 2799POPC   C1A37311  13.581   1.182   8.564
 2799POPC   D2A37312  13.634   1.199   8.264
 2799POPC   C3A37313  13.642   1.247   7.964
 2799POPC   C4A37314  13.677   1.191   7.664
 2799POPC   C1B37315  13.364   1.210   8.564
 2799POPC   C2B37316  13.373   1.150   8.264
 2799POPC   C3B37317  13.373   1.217   7.964
 2799POPC   C4B37318  13.412   1.158   7.664
 2800POPC   NC337319   6.632  22.208   9.464
 2800POPC   PO437320   6.681  22.208   9.164
 2800POPC   GL137321   6.602  22.195   8.864
 2800POPC   GL237322   6.685  22.010   8.864
 2800POPC   C1A37323   6.681  22.180   8.564
 2800POPC   D2A37324   6.633  22.212   8.264
 2800POPC   C3A37325   6.621  22.156   7.964
 2800POPC   C4A37326   6.693  22.136   7.664
 2800POPC   C1B37327   6.734  21.936   8.564
 2800POPC   C2B37328   6.660  21.901   8.264
 2800POPC   C3B37329   6.648  21.902   7.964
 2800POPC   C4B37330   6.639  21.903   7.664
 2801POPC   NC337331  28.372  40.049   9.464
 2801POPC   PO437332  28.339  40.015   9.164
 2801POPC   GL137333  28.344  40.040   8.864
 2801POPC   GL237334  28.407  40.159   8.864
 2801POPC   C1A37335  28.387  40.035   8.564
 2801POPC   D2A37336  28.361  40.050   8.264
 2801POPC   C3A37337  28.418  40.049   7.964
 2801POPC   C4A37338  28.338  39.961   7.664
 2801POPC   C1B37339  28.536  40.182   8.564
 2801POPC   C2B37340  28.456  40.186   8.264
 2801POPC   C3B37341  28.467  40.198   7.964
 2801POPC   C4B37342  28.471  40.191   7.664
 2802POPC   NC337343  12.105   9.007   9.464
 2802POPC   PO437344  12.077   8.975   9.164
 2802POPC   GL137345  12.070   8.978   8.864
 2802POPC   GL237346  12.199   9.078   8.864
 2802POPC   C1A37347  12.094   8.987   8.564
 2802POPC   D2A37348  12.098   8.972   8.264
 2802POPC   C3A37349  12.059   8.982   7.964
 2802POPC   C4A37350  12.096   8.933   7.664
 2802POPC   C1B37351  12.204   9.130   8.564
 2802POPC   C2B37352  12.220   9.139   8.264
 2802POPC   C3B37353  12.197   9.165   7.964
 2802POPC   C4B37354  12.239   9.165   7.664
 2803POPC   NC337355  40.053  17.555   9.464
 2803POPC   PO437356  40.052  17.555   9.164
 2803POPC   GL137357  39.960  17.510   8.864
 2803POPC   GL237358  40.096  17.382   8.864
 2803POPC   C1A37359  40.041  17.541   8.564
 2803POPC   D2A37360  40.041  17.553   8.264
 2803POPC   C3A37361  40.031  17.481   7.964
 2803POPC   C4A37362  40.053  17.518   7.664
 2803POPC   C1B37363  40.199  17.360   8.564
 2803POPC   C2B37364  40.140  17.308   8.264
 2803POPC   C3B37365  40.184  17.355   7.964
 2803POPC   C4B37366  40.198  17.336   7.664
 2804POPC   NC337367  36.865   4.281   9.464
 2804POPC   PO437368  36.932   4.360   9.164
 2804POPC   GL137369  36.863   4.304   8.864
 2804POPC   GL237370  36.873   4.462   8.864
 2804POPC   C1A37371  36.888   4.293   8.564
 2804POPC   D2A37372  36.874   4.277   8.264
 2804POPC   C3A37373  36.908   4.350   7.964
 2804POPC   C4A37374  36.948   4.273   7.664
 2804POPC   C1B37375  36.901   4.587   8.564
 2804POPC   C2B37376  36.867   4.590   8.264
 2804POPC   C3B37377  36.874   4.517   7.964
 2804POPC   C4B37378  36.876   4.585   7.664
 2805POPC   NC337379  41.571  19.044   9.464
 2805POPC   PO437380  41.510  19.083   9.164
 2805POPC   GL137381  41.554  19.035   8.864
 2805POPC   GL237382  41.720  19.088   8.864
 2805POPC   C1A37383  41.527  19.092   8.564
 2805POPC   D2A37384  41.594  19.020   8.264
 2805POPC   C3A37385  41.525  19.083   7.964
 2805POPC   C4A37386  41.558  19.063   7.664
 2805POPC   C1B37387  41.795  19.057   8.564
 2805POPC   C2B37388  41.777  19.142   8.264
 2805POPC   C3B37389  41.818  19.119   7.964
 2805POPC   C4B37390  41.757  19.137   7.664
 2806POPC   NC337391  16.720   6.651   9.464
 2806POPC   PO437392  16.754   6.647   9.164
 2806POPC   GL137393  16.761   6.606   8.864
 2806POPC   GL237394  16.737   6.816   8.864
 2806POPC   C1A37395  16.695   6.634   8.564
 2806POPC   D2A37396  16.764   6.615   8.264
 2806POPC   C3A37397  16.781   6.694   7.964
 2806POPC   C4A37398  16.725   6.616   7.664
 2806POPC   C1B37399  16.693   6.874   8.564
 2806POPC   C2B37400  16.732   6.920   8.264
 2806POPC   C3B37401  16.648   6.890   7.964
 2806POPC   C4B37402  16.715   6.894   7.664
 2807POPC   NC337403  44.688   0.454   9.464
 2807POPC   PO437404  44.616   0.448   9.164
 2807POPC   GL137405  44.618   0.467   8.864
 2807POPC   GL237406  44.790   0.451   8.864
 2807POPC   C1A37407  44.697   0.429   8.564
 2807POPC   D2A37408  44.706   0.442   8.264
 2807POPC   C3A37409  44.667   0.429   7.964
 2807POPC   C4A37410  44.620   0.406   7.664
 2807POPC   C1B37411  44.898   0.422   8.564
 2807POPC   C2B37412  44.863   0.406   8.264
 2807POPC   C3B37413  44.863   0.489   7.964
 2807POPC   C4B37414  44.870   0.487   7.664
 2808POPC   NC337415   0.480  19.087   9.464
 2808POPC   PO437416   0.485  19.061   9.164
 2808POPC   GL137417   0.439  19.045   8.864
 2808POPC   GL237418   0.461  19.138   8.864
 2808POPC   C1A37419   0.467  19.068   8.564
 2808POPC   D2A37420   0.466  19.064   8.264
 2808POPC   C3A37421   0.469  19.077   7.964
 2808POPC   C4A37422   0.417  19.104   7.664
 2808POPC   C1B37423   0.570  19.292   8.564
 2808POPC   C2B37424   0.599  19.291   8.264
 2808POPC   C3B37425   0.539  19.296   7.964
 2808POPC   C4B37426   0.529  19.254   7.664
 2809POPC   NC337427  36.872  40.020   9.464
 2809POPC   PO437428  36.949  39.983   9.164
 2809POPC   GL137429  36.899  39.958   8.864
 2809POPC   GL237430  36.749  39.939   8.864
 2809POPC   C1A37431  36.895  40.012   8.564
 2809POPC   D2A37432  36.936  39.985   8.264
 2809POPC   C3A37433  36.931  40.002   7.964
 2809POPC   C4A37434  36.923  40.037   7.664
 2809POPC   C1B37435  36.716  39.900   8.564
 2809POPC   C2B37436  36.709  39.865   8.264
 2809POPC   C3B37437  36.649  39.923   7.964
 2809POPC   C4B37438  36.653  39.916   7.664
 2810POPC   NC337439  18.331  24.447   9.464
 2810POPC   PO437440  18.263  24.509   9.164
 2810POPC   GL137441  18.329  24.442   8.864
 2810POPC   GL237442  18.299  24.636   8.864
 2810POPC   C1A37443  18.257  24.509   8.564
 2810POPC   D2A37444  18.309  24.504   8.264
 2810POPC   C3A37445  18.322  24.489   7.964
 2810POPC   C4A37446  18.303  24.453   7.664
 2810POPC   C1B37447  18.396  24.726   8.564
 2810POPC   C2B37448  18.316  24.708   8.264
 2810POPC   C3B37449  18.374  24.750   7.964
 2810POPC   C4B37450  18.318  24.684   7.664
 2811POPC   NC337451  15.182  22.210   9.464
 2811POPC   PO437452  15.161  22.126   9.164
 2811POPC   GL137453  15.191  22.164   8.864
 2811POPC   GL237454  15.233  22.212   8.864
 2811POPC   C1A37455  15.198  22.163   8.564
 2811POPC   D2A37456  15.162  22.203   8.264
 2811POPC   C3A37457  15.204  22.125   7.964
 2811POPC   C4A37458  15.133  22.168   7.664
 2811POPC   C1B37459  15.363  22.325   8.564
 2811POPC   C2B37460  15.394  22.277   8.264
 2811POPC   C3B37461  15.359  22.335   7.964
 2811POPC   C4B37462  15.333  22.366   7.664
 2812POPC   NC337463   4.334  33.803   9.464
 2812POPC   PO437464   4.278  33.762   9.164
 2812POPC   GL137465   4.290  33.778   8.864
 2812POPC   GL237466   4.252  33.860   8.864
 2812POPC   C1A37467   4.336  33.831   8.564
 2812POPC   D2A37468   4.334  33.817   8.264
 2812POPC   C3A37469   4.300  33.762   7.964
 2812POPC   C4A37470   4.314  33.811   7.664
 2812POPC   C1B37471   4.064  33.911   8.564
 2812POPC   C2B37472   4.110  33.964   8.264
 2812POPC   C3B37473   4.117  33.948   7.964
 2812POPC   C4B37474   4.078  33.940   7.664
 2813POPC   NC337475   9.770  11.342   9.464
 2813POPC   PO437476   9.780  11.256   9.164
 2813POPC   GL137477   9.719  11.278   8.864
 2813POPC   GL237478   9.773  11.231   8.864
 2813POPC   C1A37479   9.782  11.328   8.564
 2813POPC   D2A37480   9.791  11.290   8.264
 2813POPC   C3A37481   9.717  11.302   7.964
 2813POPC   C4A37482   9.781  11.335   7.664
 2813POPC   C1B37483   9.864  11.131   8.564
 2813POPC   C2B37484   9.898  11.085   8.264
 2813POPC   C3B37485   9.851  11.125   7.964
 2813POPC   C4B37486   9.840  11.117   7.664
 2814POPC   NC337487  36.953   5.908   9.464
 2814POPC   PO437488  36.952   5.891   9.164
 2814POPC   GL137489  36.927   5.850   8.864
 2814POPC   GL237490  37.035   5.791   8.864
 2814POPC   C1A37491  36.876   5.854   8.564
 2814POPC   D2A37492  36.915   5.854   8.264
 2814POPC   C3A37493  36.854   5.857   7.964
 2814POPC   C4A37494  36.925   5.911   7.664
 2814POPC   C1B37495  37.068   5.637   8.564
 2814POPC   C2B37496  37.113   5.637   8.264
 2814POPC   C3B37497  37.040   5.641   7.964
 2814POPC   C4B37498  37.037   5.674   7.664
 2815POPC   NC337499  12.095  15.207   9.464
 2815POPC   PO437500  12.068  15.176   9.164
 2815POPC   GL137501  12.123  15.148   8.864
 2815POPC   GL237502  12.057  15.057   8.864
 2815POPC   C1A37503  12.038  15.229   8.564
 2815POPC   D2A37504  12.058  15.227   8.264
 2815POPC   C3A37505  12.061  15.196   7.964
 2815POPC   C4A37506  12.029  15.192   7.664
 2815POPC   C1B37507  12.009  14.920   8.564
 2815POPC   C2B37508  12.010  14.939   8.264
 2815POPC   C3B37509  11.953  14.909   7.964
 2815POPC   C4B37510  11.935  14.962   7.664
 2816POPC   NC337511  12.088  39.272   9.464
 2816POPC   PO437512  12.064  39.263   9.164
 2816POPC   GL137513  12.031  39.278   8.864
 2816POPC   GL237514  12.047  39.088   8.864
 2816POPC   C1A37515  12.109  39.208   8.564
 2816POPC   D2A37516  12.083  39.232   8.264
 2816POPC   C3A37517  12.071  39.190   7.964
 2816POPC   C4A37518  12.066  39.214   7.664
 2816POPC   C1B37519  12.091  38.949   8.564
 2816POPC   C2B37520  12.090  38.986   8.264
 2816POPC   C3B37521  12.147  39.023   7.964
 2816POPC   C4B37522  12.088  39.008   7.664
 2817POPC   NC337523   5.048  29.873   9.464
 2817POPC   PO437524   5.062  29.923   9.164
 2817POPC   GL137525   5.086  29.904   8.864
 2817POPC   GL237526   4.964  29.939   8.864
 2817POPC   C1A37527   5.134  29.879   8.564
 2817POPC   D2A37528   5.046  29.892   8.264
 2817POPC   C3A37529   5.058  29.878   7.964
 2817POPC   C4A37530   5.067  29.872   7.664
 2817POPC   C1B37531   4.800  29.959   8.564
 2817POPC   C2B37532   4.826  29.972   8.264
 2817POPC   C3B37533   4.877  29.945   7.964
 2817POPC   C4B37534   4.876  29.995   7.664
 2818POPC   NC337535  27.566  21.418   9.464
 2818POPC   PO437536  27.642  21.412   9.164
 2818POPC   GL137537  27.546  21.383   8.864
 2818POPC   GL237538  27.618  21.319   8.864
 2818POPC   C1A37539  27.624  21.356   8.564
 2818POPC   D2A37540  27.634  21.385   8.264
 2818POPC   C3A37541  27.617  21.362   7.964
 2818POPC   C4A37542  27.553  21.405   7.664
 2818POPC   C1B37543  27.691  21.167   8.564
 2818POPC   C2B37544  27.747  21.185   8.264
 2818POPC   C3B37545  27.727  21.174   7.964
 2818POPC   C4B37546  27.697  21.179   7.664
 2819POPC   NC337547   7.435   1.165   9.464
 2819POPC   PO437548   7.430   1.185   9.164
 2819POPC   GL137549   7.380   1.189   8.864
 2819POPC   GL237550   7.482   1.135   8.864
 2819POPC   C1A37551   7.440   1.230   8.564
 2819POPC   D2A37552   7.381   1.249   8.264
 2819POPC   C3A37553   7.465   1.190   7.964
 2819POPC   C4A37554   7.460   1.219   7.664
 2819POPC   C1B37555   7.536   0.946   8.564
 2819POPC   C2B37556   7.497   0.946   8.264
 2819POPC   C3B37557   7.515   0.992   7.964
 2819POPC   C4B37558   7.491   1.005   7.664
 2820POPC   NC337559  17.553   6.619   9.464
 2820POPC   PO437560  17.541   6.663   9.164
 2820POPC   GL137561  17.534   6.682   8.864
 2820POPC   GL237562  17.541   6.746   8.864
 2820POPC   C1A37563  17.544   6.649   8.564
 2820POPC   D2A37564  17.533   6.672   8.264
 2820POPC   C3A37565  17.490   6.635   7.964
 2820POPC   C4A37566  17.544   6.602   7.664
 2820POPC   C1B37567  17.506   6.900   8.564
 2820POPC   C2B37568  17.549   6.936   8.264
 2820POPC   C3B37569  17.492   6.848   7.964
 2820POPC   C4B37570  17.499   6.920   7.664
 2821POPC   NC337571  29.892  36.176   9.464
 2821POPC   PO437572  29.910  36.097   9.164
 2821POPC   GL137573  29.899  36.131   8.864
 2821POPC   GL237574  29.808  36.103   8.864
 2821POPC   C1A37575  29.936  36.148   8.564
 2821POPC   D2A37576  29.911  36.169   8.264
 2821POPC   C3A37577  29.922  36.124   7.964
 2821POPC   C4A37578  29.956  36.085   7.664
 2821POPC   C1B37579  29.699  36.176   8.564
 2821POPC   C2B37580  29.677  36.158   8.264
 2821POPC   C3B37581  29.717  36.134   7.964
 2821POPC   C4B37582  29.673  36.192   7.664
 2822POPC   NC337583  14.380  19.806   9.464
 2822POPC   PO437584  14.376  19.856   9.164
 2822POPC   GL137585  14.428  19.843   8.864
 2822POPC   GL237586  14.521  19.796   8.864
 2822POPC   C1A37587  14.449  19.800   8.564
 2822POPC   D2A37588  14.392  19.860   8.264
 2822POPC   C3A37589  14.431  19.788   7.964
 2822POPC   C4A37590  14.404  19.785   7.664
 2822POPC   C1B37591  14.646  19.775   8.564
 2822POPC   C2B37592  14.629  19.826   8.264
 2822POPC   C3B37593  14.651  19.800   7.964
 2822POPC   C4B37594  14.633  19.840   7.664
 2823POPC   NC337595  28.416  17.499   9.464
 2823POPC   PO437596  28.376  17.499   9.164
 2823POPC   GL137597  28.366  17.482   8.864
 2823POPC   GL237598  28.216  17.568   8.864
 2823POPC   C1A37599  28.402  17.489   8.564
 2823POPC   D2A37600  28.382  17.487   8.264
 2823POPC   C3A37601  28.399  17.500   7.964
 2823POPC   C4A37602  28.407  17.491   7.664
 2823POPC   C1B37603  28.101  17.523   8.564
 2823POPC   C2B37604  28.113  17.525   8.264
 2823POPC   C3B37605  28.118  17.518   7.964
 2823POPC   C4B37606  28.096  17.546   7.664
 2824POPC   NC337607  33.034  26.084   9.464
 2824POPC   PO437608  32.980  26.015   9.164
 2824POPC   GL137609  33.034  26.070   8.864
 2824POPC   GL237610  33.018  25.941   8.864
 2824POPC   C1A37611  33.069  26.091   8.564
 2824POPC   D2A37612  33.001  26.030   8.264
 2824POPC   C3A37613  33.018  26.010   7.964
 2824POPC   C4A37614  32.979  25.995   7.664
 2824POPC   C1B37615  33.123  25.769   8.564
 2824POPC   C2B37616  33.065  25.793   8.264
 2824POPC   C3B37617  33.087  25.831   7.964
 2824POPC   C4B37618  33.068  25.800   7.664
 2825POPC   NC337619  11.258  23.745   9.464
 2825POPC   PO437620  11.325  23.677   9.164
 2825POPC   GL137621  11.274  23.719   8.864
 2825POPC   GL237622  11.440  23.761   8.864
 2825POPC   C1A37623  11.330  23.674   8.564
 2825POPC   D2A37624  11.250  23.691   8.264
 2825POPC   C3A37625  11.266  23.757   7.964
 2825POPC   C4A37626  11.309  23.699   7.664
 2825POPC   C1B37627  11.536  23.779   8.564
 2825POPC   C2B37628  11.501  23.756   8.264
 2825POPC   C3B37629  11.568  23.796   7.964
 2825POPC   C4B37630  11.517  23.791   7.664
 2826POPC   NC337631  39.249   5.107   9.464
 2826POPC   PO437632  39.188   5.062   9.164
 2826POPC   GL137633  39.211   5.064   8.864
 2826POPC   GL237634  39.273   4.987   8.864
 2826POPC   C1A37635  39.244   5.104   8.564
 2826POPC   D2A37636  39.185   5.065   8.264
 2826POPC   C3A37637  39.276   5.047   7.964
 2826POPC   C4A37638  39.231   5.065   7.664
 2826POPC   C1B37639  39.284   4.845   8.564
 2826POPC   C2B37640  39.194   4.890   8.264
 2826POPC   C3B37641  39.235   4.882   7.964
 2826POPC   C4B37642  39.212   4.852   7.664
 2827POPC   NC337643   1.212   2.033   9.464
 2827POPC   PO437644   1.181   1.993   9.164
 2827POPC   GL137645   1.241   1.998   8.864
 2827POPC   GL237646   1.287   2.073   8.864
 2827POPC   C1A37647   1.177   2.035   8.564
 2827POPC   D2A37648   1.216   2.028   8.264
 2827POPC   C3A37649   1.208   2.039   7.964
 2827POPC   C4A37650   1.168   2.027   7.664
 2827POPC   C1B37651   1.414   2.143   8.564
 2827POPC   C2B37652   1.423   2.156   8.264
 2827POPC   C3B37653   1.427   2.195   7.964
 2827POPC   C4B37654   1.438   2.143   7.664
 2828POPC   NC337655   2.723   4.286   9.464
 2828POPC   PO437656   2.766   4.350   9.164
 2828POPC   GL137657   2.726   4.276   8.864
 2828POPC   GL237658   2.722   4.176   8.864
 2828POPC   C1A37659   2.719   4.271   8.564
 2828POPC   D2A37660   2.779   4.311   8.264
 2828POPC   C3A37661   2.813   4.269   7.964
 2828POPC   C4A37662   2.795   4.279   7.664
 2828POPC   C1B37663   2.584   4.137   8.564
 2828POPC   C2B37664   2.560   4.094   8.264
 2828POPC   C3B37665   2.625   4.172   7.964
 2828POPC   C4B37666   2.654   4.086   7.664
 2829POPC   NC337667  35.377  35.368   9.464
 2829POPC   PO437668  35.322  35.307   9.164
 2829POPC   GL137669  35.377  35.356   8.864
 2829POPC   GL237670  35.494  35.373   8.864
 2829POPC   C1A37671  35.333  35.359   8.564
 2829POPC   D2A37672  35.366  35.308   8.264
 2829POPC   C3A37673  35.305  35.306   7.964
 2829POPC   C4A37674  35.356  35.355   7.664
 2829POPC   C1B37675  35.624  35.396   8.564
 2829POPC   C2B37676  35.597  35.394   8.264
 2829POPC   C3B37677  35.592  35.442   7.964
 2829POPC   C4B37678  35.565  35.427   7.664
 2830POPC   NC337679  32.975  40.797   9.464
 2830POPC   PO437680  33.009  40.744   9.164
 2830POPC   GL137681  33.035  40.736   8.864
 2830POPC   GL237682  33.115  40.812   8.864
 2830POPC   C1A37683  33.066  40.814   8.564
 2830POPC   D2A37684  33.039  40.753   8.264
 2830POPC   C3A37685  33.012  40.740   7.964
 2830POPC   C4A37686  32.999  40.814   7.664
 2830POPC   C1B37687  33.315  40.830   8.564
 2830POPC   C2B37688  33.245  40.838   8.264
 2830POPC   C3B37689  33.252  40.829   7.964
 2830POPC   C4B37690  33.305  40.832   7.664
 2831POPC   NC337691  10.509  29.130   9.464
 2831POPC   PO437692  10.548  29.151   9.164
 2831POPC   GL137693  10.510  29.169   8.864
 2831POPC   GL237694  10.651  29.170   8.864
 2831POPC   C1A37695  10.547  29.120   8.564
 2831POPC   D2A37696  10.529  29.121   8.264
 2831POPC   C3A37697  10.565  29.188   7.964
 2831POPC   C4A37698  10.516  29.109   7.664
 2831POPC   C1B37699  10.785  29.195   8.564
 2831POPC   C2B37700  10.763  29.117   8.264
 2831POPC   C3B37701  10.786  29.201   7.964
 2831POPC   C4B37702  10.779  29.195   7.664
 2832POPC   NC337703  31.453  22.956   9.464
 2832POPC   PO437704  31.487  22.957   9.164
 2832POPC   GL137705  31.515  22.939   8.864
 2832POPC   GL237706  31.552  22.840   8.864
 2832POPC   C1A37707  31.461  22.979   8.564
 2832POPC   D2A37708  31.490  22.898   8.264
 2832POPC   C3A37709  31.429  22.906   7.964
 2832POPC   C4A37710  31.438  22.900   7.664
 2832POPC   C1B37711  31.650  22.776   8.564
 2832POPC   C2B37712  31.710  22.840   8.264
 2832POPC   C3B37713  31.699  22.762   7.964
 2832POPC   C4B37714  31.714  22.794   7.664
 2833POPC   NC337715   0.454   4.343   9.464
 2833POPC   PO437716   0.481   4.319   9.164
 2833POPC   GL137717   0.483   4.280   8.864
 2833POPC   GL237718   0.597   4.315   8.864
 2833POPC   C1A37719   0.472   4.304   8.564
 2833POPC   D2A37720   0.455   4.295   8.264
 2833POPC   C3A37721   0.468   4.275   7.964
 2833POPC   C4A37722   0.431   4.326   7.664
 2833POPC   C1B37723   0.638   4.345   8.564
 2833POPC   C2B37724   0.641   4.414   8.264
 2833POPC   C3B37725   0.696   4.359   7.964
 2833POPC   C4B37726   0.719   4.419   7.664
 2834POPC   NC337727  43.854  19.019   9.464
 2834POPC   PO437728  43.883  19.039   9.164
 2834POPC   GL137729  43.915  19.018   8.864
 2834POPC   GL237730  43.900  18.949   8.864
 2834POPC   C1A37731  43.842  19.107   8.564
 2834POPC   D2A37732  43.884  19.065   8.264
 2834POPC   C3A37733  43.852  19.041   7.964
 2834POPC   C4A37734  43.863  19.069   7.664
 2834POPC   C1B37735  43.988  18.808   8.564
 2834POPC   C2B37736  43.971  18.823   8.264
 2834POPC   C3B37737  43.964  18.767   7.964
 2834POPC   C4B37738  43.991  18.770   7.664
 2835POPC   NC337739  35.400   8.185   9.464
 2835POPC   PO437740  35.377   8.203   9.164
 2835POPC   GL137741  35.367   8.182   8.864
 2835POPC   GL237742  35.358   8.282   8.864
 2835POPC   C1A37743  35.355   8.196   8.564
 2835POPC   D2A37744  35.336   8.187   8.264
 2835POPC   C3A37745  35.381   8.161   7.964
 2835POPC   C4A37746  35.307   8.191   7.664
 2835POPC   C1B37747  35.398   8.403   8.564
 2835POPC   C2B37748  35.318   8.466   8.264
 2835POPC   C3B37749  35.371   8.488   7.964
 2835POPC   C4B37750  35.335   8.403   7.664
 2836POPC   NC337751   1.194  26.005   9.464
 2836POPC   PO437752   1.191  26.040   9.164
 2836POPC   GL137753   1.182  26.070   8.864
 2836POPC   GL237754   1.063  26.060   8.864
 2836POPC   C1A37755   1.263  26.044   8.564
 2836POPC   D2A37756   1.253  26.086   8.264
 2836POPC   C3A37757   1.239  26.041   7.964
 2836POPC   C4A37758   1.206  25.992   7.664
 2836POPC   C1B37759   1.010  26.161   8.564
 2836POPC   C2B37760   0.946  26.098   8.264
 2836POPC   C3B37761   1.005  26.123   7.964
 2836POPC   C4B37762   1.006  26.171   7.664
 2837POPC   NC337763  30.741  19.073   9.464
 2837POPC   PO437764  30.692  19.077   9.164
 2837POPC   GL137765  30.684  19.080   8.864
 2837POPC   GL237766  30.793  19.112   8.864
 2837POPC   C1A37767  30.687  19.100   8.564
 2837POPC   D2A37768  30.730  19.078   8.264
 2837POPC   C3A37769  30.680  19.084   7.964
 2837POPC   C4A37770  30.679  19.019   7.664
 2837POPC   C1B37771  30.982  19.118   8.564
 2837POPC   C2B37772  30.934  19.181   8.264
 2837POPC   C3B37773  30.969  19.173   7.964
 2837POPC   C4B37774  30.974  19.113   7.664
 2838POPC   NC337775  22.137  44.671   9.464
 2838POPC   PO437776  22.195  44.687   9.164
 2838POPC   GL137777  22.193  44.667   8.864
 2838POPC   GL237778  22.314  44.761   8.864
 2838POPC   C1A37779  22.183  44.647   8.564
 2838POPC   D2A37780  22.211  44.641   8.264
 2838POPC   C3A37781  22.129  44.679   7.964
 2838POPC   C4A37782  22.148  44.702   7.664
 2838POPC   C1B37783  22.391  44.825   8.564
 2838POPC   C2B37784  22.394  44.772   8.264
 2838POPC   C3B37785  22.390  44.785   7.964
 2838POPC   C4B37786  22.328  44.799   7.664
 2839POPC   NC337787   8.945   9.789   9.464
 2839POPC   PO437788   8.928   9.757   9.164
 2839POPC   GL137789   9.020   9.777   8.864
 2839POPC   GL237790   8.972   9.840   8.864
 2839POPC   C1A37791   8.947   9.797   8.564
 2839POPC   D2A37792   8.984   9.758   8.264
 2839POPC   C3A37793   8.993   9.713   7.964
 2839POPC   C4A37794   8.982   9.725   7.664
 2839POPC   C1B37795   9.080  10.033   8.564
 2839POPC   C2B37796   9.038  10.025   8.264
 2839POPC   C3B37797   9.014  10.023   7.964
 2839POPC   C4B37798   9.034  10.029   7.664
 2840POPC   NC337799  35.381  32.203   9.464
 2840POPC   PO437800  35.348  32.283   9.164
 2840POPC   GL137801  35.365  32.205   8.864
 2840POPC   GL237802  35.252  32.160   8.864
 2840POPC   C1A37803  35.332  32.209   8.564
 2840POPC   D2A37804  35.402  32.249   8.264
 2840POPC   C3A37805  35.398  32.204   7.964
 2840POPC   C4A37806  35.380  32.228   7.664
 2840POPC   C1B37807  35.297  31.976   8.564
 2840POPC   C2B37808  35.246  32.015   8.264
 2840POPC   C3B37809  35.211  31.990   7.964
 2840POPC   C4B37810  35.222  32.060   7.664
 2841POPC   NC337811  16.741   2.741   9.464
 2841POPC   PO437812  16.750   2.750   9.164
 2841POPC   GL137813  16.701   2.759   8.864
 2841POPC   GL237814  16.642   2.812   8.864
 2841POPC   C1A37815  16.711   2.762   8.564
 2841POPC   D2A37816  16.733   2.724   8.264
 2841POPC   C3A37817  16.721   2.789   7.964
 2841POPC   C4A37818  16.732   2.785   7.664
 2841POPC   C1B37819  16.561   2.868   8.564
 2841POPC   C2B37820  16.538   2.908   8.264
 2841POPC   C3B37821  16.513   2.887   7.964
 2841POPC   C4B37822  16.511   2.931   7.664
 2842POPC   NC337823  21.355  36.149   9.464
 2842POPC   PO437824  21.377  36.089   9.164
 2842POPC   GL137825  21.372  36.167   8.864
 2842POPC   GL237826  21.298  36.098   8.864
 2842POPC   C1A37827  21.403  36.169   8.564
 2842POPC   D2A37828  21.359  36.106   8.264
 2842POPC   C3A37829  21.402  36.133   7.964
 2842POPC   C4A37830  21.370  36.112   7.664
 2842POPC   C1B37831  21.138  36.092   8.564
 2842POPC   C2B37832  21.121  36.087   8.264
 2842POPC   C3B37833  21.163  36.132   7.964
 2842POPC   C4B37834  21.176  36.147   7.664
 2843POPC   NC337835  22.191  38.505   9.464
 2843POPC   PO437836  22.135  38.413   9.164
 2843POPC   GL137837  22.160  38.426   8.864
 2843POPC   GL237838  22.119  38.574   8.864
 2843POPC   C1A37839  22.207  38.486   8.564
 2843POPC   D2A37840  22.170  38.421   8.264
 2843POPC   C3A37841  22.162  38.434   7.964
 2843POPC   C4A37842  22.159  38.460   7.664
 2843POPC   C1B37843  22.082  38.650   8.564
 2843POPC   C2B37844  22.032  38.657   8.264
 2843POPC   C3B37845  22.087  38.684   7.964
 2843POPC   C4B37846  22.064  38.731   7.664
 2844POPC   NC337847   8.165  19.837   9.464
 2844POPC   PO437848   8.158  19.859   9.164
 2844POPC   GL137849   8.155  19.847   8.864
 2844POPC   GL237850   8.027  19.849   8.864
 2844POPC   C1A37851   8.199  19.838   8.564
 2844POPC   D2A37852   8.198  19.851   8.264
 2844POPC   C3A37853   8.185  19.845   7.964
 2844POPC   C4A37854   8.190  19.810   7.664
 2844POPC   C1B37855   7.919  19.794   8.564
 2844POPC   C2B37856   7.970  19.742   8.264
 2844POPC   C3B37857   7.989  19.730   7.964
 2844POPC   C4B37858   7.921  19.784   7.664
 2845POPC   NC337859   1.230   0.404   9.464
 2845POPC   PO437860   1.210   0.438   9.164
 2845POPC   GL137861   1.194   0.399   8.864
 2845POPC   GL237862   1.337   0.417   8.864
 2845POPC   C1A37863   1.220   0.481   8.564
 2845POPC   D2A37864   1.251   0.391   8.264
 2845POPC   C3A37865   1.232   0.435   7.964
 2845POPC   C4A37866   1.203   0.469   7.664
 2845POPC   C1B37867   1.457   0.397   8.564
 2845POPC   C2B37868   1.463   0.365   8.264
 2845POPC   C3B37869   1.482   0.346   7.964
 2845POPC   C4B37870   1.442   0.301   7.664
 2846POPC   NC337871  17.505  36.921   9.464
 2846POPC   PO437872  17.554  36.916   9.164
 2846POPC   GL137873  17.546  36.891   8.864
 2846POPC   GL237874  17.419  36.863   8.864
 2846POPC   C1A37875  17.471  36.919   8.564
 2846POPC   D2A37876  17.532  36.952   8.264
 2846POPC   C3A37877  17.542  36.900   7.964
 2846POPC   C4A37878  17.479  36.935   7.664
 2846POPC   C1B37879  17.237  36.876   8.564
 2846POPC   C2B37880  17.305  36.929   8.264
 2846POPC   C3B37881  17.302  36.932   7.964
 2846POPC   C4B37882  17.265  36.868   7.664
 2847POPC   NC337883  22.168   8.210   9.464
 2847POPC   PO437884  22.159   8.199   9.164
 2847POPC   GL137885  22.125   8.214   8.864
 2847POPC   GL237886  22.262   8.066   8.864
 2847POPC   C1A37887  22.163   8.180   8.564
 2847POPC   D2A37888  22.185   8.228   8.264
 2847POPC   C3A37889  22.177   8.154   7.964
 2847POPC   C4A37890  22.170   8.230   7.664
 2847POPC   C1B37891  22.284   8.017   8.564
 2847POPC   C2B37892  22.348   7.997   8.264
 2847POPC   C3B37893  22.355   8.046   7.964
 2847POPC   C4B37894  22.374   8.056   7.664
 2848POPC   NC337895   2.798  24.526   9.464
 2848POPC   PO437896   2.725  24.537   9.164
 2848POPC   GL137897   2.734  24.497   8.864
 2848POPC   GL237898   2.682  24.429   8.864
 2848POPC   C1A37899   2.801  24.517   8.564
 2848POPC   D2A37900   2.780  24.464   8.264
 2848POPC   C3A37901   2.769  24.484   7.964
 2848POPC   C4A37902   2.805  24.481   7.664
 2848POPC   C1B37903   2.573  24.409   8.564
 2848POPC   C2B37904   2.552  24.409   8.264
 2848POPC   C3B37905   2.482  24.396   7.964
 2848POPC   C4B37906   2.570  24.386   7.664
 2849POPC   NC337907  29.928  29.108   9.464
 2849POPC   PO437908  29.915  29.141   9.164
 2849POPC   GL137909  29.917  29.141   8.864
 2849POPC   GL237910  29.845  29.284   8.864
 2849POPC   C1A37911  29.911  29.122   8.564
 2849POPC   D2A37912  29.958  29.113   8.264
 2849POPC   C3A37913  29.894  29.142   7.964
 2849POPC   C4A37914  29.906  29.168   7.664
 2849POPC   C1B37915  29.789  29.297   8.564
 2849POPC   C2B37916  29.764  29.281   8.264
 2849POPC   C3B37917  29.728  29.325   7.964
 2849POPC   C4B37918  29.771  29.313   7.664
 2850POPC   NC337919  40.775  23.731   9.464
 2850POPC   PO437920  40.737  23.716   9.164
 2850POPC   GL137921  40.795  23.677   8.864
 2850POPC   GL237922  40.753  23.601   8.864
 2850POPC   C1A37923  40.833  23.748   8.564
 2850POPC   D2A37924  40.735  23.700   8.264
 2850POPC   C3A37925  40.754  23.665   7.964
 2850POPC   C4A37926  40.786  23.755   7.664
 2850POPC   C1B37927  40.812  23.458   8.564
 2850POPC   C2B37928  40.847  23.496   8.264
 2850POPC   C3B37929  40.833  23.466   7.964
 2850POPC   C4B37930  40.762  23.459   7.664
 2851POPC   NC337931  31.470  18.237   9.464
 2851POPC   PO437932  31.491  18.268   9.164
 2851POPC   GL137933  31.441  18.299   8.864
 2851POPC   GL237934  31.499  18.428   8.864
 2851POPC   C1A37935  31.451  18.260   8.564
 2851POPC   D2A37936  31.437  18.248   8.264
 2851POPC   C3A37937  31.499  18.328   7.964
 2851POPC   C4A37938  31.487  18.323   7.664
 2851POPC   C1B37939  31.505  18.542   8.564
 2851POPC   C2B37940  31.561  18.507   8.264
 2851POPC   C3B37941  31.589  18.515   7.964
 2851POPC   C4B37942  31.521  18.567   7.664
 2852POPC   NC337943  37.710  37.717   9.464
 2852POPC   PO437944  37.656  37.701   9.164
 2852POPC   GL137945  37.630  37.654   8.864
 2852POPC   GL237946  37.799  37.605   8.864
 2852POPC   C1A37947  37.700  37.725   8.564
 2852POPC   D2A37948  37.717  37.721   8.264
 2852POPC   C3A37949  37.660  37.725   7.964
 2852POPC   C4A37950  37.683  37.696   7.664
 2852POPC   C1B37951  37.913  37.498   8.564
 2852POPC   C2B37952  37.912  37.533   8.264
 2852POPC   C3B37953  37.872  37.548   7.964
 2852POPC   C4B37954  37.904  37.498   7.664
 2853POPC   NC337955  26.827  27.640   9.464
 2853POPC   PO437956  26.772  27.573   9.164
 2853POPC   GL137957  26.830  27.635   8.864
 2853POPC   GL237958  26.659  27.642   8.864
 2853POPC   C1A37959  26.864  27.571   8.564
 2853POPC   D2A37960  26.777  27.638   8.264
 2853POPC   C3A37961  26.799  27.595   7.964
 2853POPC   C4A37962  26.807  27.567   7.664
 2853POPC   C1B37963  26.565  27.611   8.564
 2853POPC   C2B37964  26.523  27.681   8.264
 2853POPC   C3B37965  26.617  27.601   7.964
 2853POPC   C4B37966  26.545  27.641   7.664
 2854POPC   NC337967  26.033   9.721   9.464
 2854POPC   PO437968  26.032   9.725   9.164
 2854POPC   GL137969  26.085   9.762   8.864
 2854POPC   GL237970  25.970   9.842   8.864
 2854POPC   C1A37971  25.998   9.726   8.564
 2854POPC   D2A37972  26.077   9.776   8.264
 2854POPC   C3A37973  26.043   9.797   7.964
 2854POPC   C4A37974  26.052   9.753   7.664
 2854POPC   C1B37975  25.937   9.972   8.564
 2854POPC   C2B37976  26.017   9.990   8.264
 2854POPC   C3B37977  25.994   9.981   7.964
 2854POPC   C4B37978  25.961  10.032   7.664
 2855POPC   NC337979  41.560   5.827   9.464
 2855POPC   PO437980  41.539   5.880   9.164
 2855POPC   GL137981  41.528   5.882   8.864
 2855POPC   GL237982  41.672   6.011   8.864
 2855POPC   C1A37983  41.547   5.824   8.564
 2855POPC   D2A37984  41.538   5.874   8.264
 2855POPC   C3A37985  41.512   5.829   7.964
 2855POPC   C4A37986  41.544   5.851   7.664
 2855POPC   C1B37987  41.711   6.052   8.564
 2855POPC   C2B37988  41.727   6.066   8.264
 2855POPC   C3B37989  41.688   6.020   7.964
 2855POPC   C4B37990  41.728   6.094   7.664
 2856POPC   NC337991  13.617  43.873   9.464
 2856POPC   PO437992  13.599  43.840   9.164
 2856POPC   GL137993  13.654  43.892   8.864
 2856POPC   GL237994  13.523  43.941   8.864
 2856POPC   C1A37995  13.652  43.884   8.564
 2856POPC   D2A37996  13.626  43.868   8.264
 2856POPC   C3A37997  13.584  43.858   7.964
 2856POPC   C4A37998  13.593  43.928   7.664
 2856POPC   C1B37999  13.464  44.031   8.564
 2856POPC   C2B38000  13.413  44.077   8.264
 2856POPC   C3B38001  13.406  44.020   7.964
 2856POPC   C4B38002  13.470  44.055   7.664
 2857POPC   NC338003  37.650  33.028   9.464
 2857POPC   PO438004  37.670  32.996   9.164
 2857POPC   GL138005  37.714  32.984   8.864
 2857POPC   GL238006  37.656  33.106   8.864
 2857POPC   C1A38007  37.728  33.034   8.564
 2857POPC   D2A38008  37.712  33.019   8.264
 2857POPC   C3A38009  37.683  33.025   7.964
 2857POPC   C4A38010  37.646  33.040   7.664
 2857POPC   C1B38011  37.537  33.211   8.564
 2857POPC   C2B38012  37.573  33.252   8.264
 2857POPC   C3B38013  37.569  33.268   7.964
 2857POPC   C4B38014  37.573  33.221   7.664
 2858POPC   NC338015  31.505  30.658   9.464
 2858POPC   PO438016  31.475  30.680   9.164
 2858POPC   GL138017  31.439  30.714   8.864
 2858POPC   GL238018  31.442  30.832   8.864
 2858POPC   C1A38019  31.446  30.674   8.564
 2858POPC   D2A38020  31.462  30.657   8.264
 2858POPC   C3A38021  31.500  30.721   7.964
 2858POPC   C4A38022  31.450  30.727   7.664
 2858POPC   C1B38023  31.293  30.893   8.564
 2858POPC   C2B38024  31.273  30.880   8.264
 2858POPC   C3B38025  31.298  30.871   7.964
 2858POPC   C4B38026  31.350  30.854   7.664
 2859POPC   NC338027  10.517  22.949   9.464
 2859POPC   PO438028  10.495  22.966   9.164
 2859POPC   GL138029  10.554  22.911   8.864
 2859POPC   GL238030  10.491  22.847   8.864
 2859POPC   C1A38031  10.523  22.912   8.564
 2859POPC   D2A38032  10.502  22.987   8.264
 2859POPC   C3A38033  10.569  22.899   7.964
 2859POPC   C4A38034  10.475  22.935   7.664
 2859POPC   C1B38035  10.368  22.691   8.564
 2859POPC   C2B38036  10.431  22.706   8.264
 2859POPC   C3B38037  10.439  22.764   7.964
 2859POPC   C4B38038  10.375  22.718   7.664
 2860POPC   NC338039  33.815  36.859   9.464
 2860POPC   PO438040  33.783  36.904   9.164
 2860POPC   GL138041  33.821  36.898   8.864
 2860POPC   GL238042  33.925  36.900   8.864
 2860POPC   C1A38043  33.773  36.947   8.564
 2860POPC   D2A38044  33.773  36.939   8.264
 2860POPC   C3A38045  33.785  36.898   7.964
 2860POPC   C4A38046  33.823  36.909   7.664
 2860POPC   C1B38047  34.015  36.832   8.564
 2860POPC   C2B38048  34.072  36.811   8.264
 2860POPC   C3B38049  33.993  36.766   7.964
 2860POPC   C4B38050  34.048  36.828   7.664
 2861POPC   NC338051   5.822  39.975   9.464
 2861POPC   PO438052   5.878  40.047   9.164
 2861POPC   GL138053   5.914  40.019   8.864
 2861POPC   GL238054   5.832  40.108   8.864
 2861POPC   C1A38055   5.894  39.996   8.564
 2861POPC   D2A38056   5.913  40.038   8.264
 2861POPC   C3A38057   5.851  39.987   7.964
 2861POPC   C4A38058   5.871  39.989   7.664
 2861POPC   C1B38059   5.920  40.231   8.564
 2861POPC   C2B38060   5.907  40.257   8.264
 2861POPC   C3B38061   5.895  40.233   7.964
 2861POPC   C4B38062   5.872  40.219   7.664
 2862POPC   NC338063   1.960  41.529   9.464
 2862POPC   PO438064   1.998  41.555   9.164
 2862POPC   GL138065   1.962  41.588   8.864
 2862POPC   GL238066   1.860  41.516   8.864
 2862POPC   C1A38067   2.006  41.556   8.564
 2862POPC   D2A38068   2.034  41.511   8.264
 2862POPC   C3A38069   2.024  41.576   7.964
 2862POPC   C4A38070   1.973  41.548   7.664
 2862POPC   C1B38071   1.711  41.429   8.564
 2862POPC   C2B38072   1.775  41.519   8.264
 2862POPC   C3B38073   1.795  41.516   7.964
 2862POPC   C4B38074   1.769  41.490   7.664
 2863POPC   NC338075  20.581  43.901   9.464
 2863POPC   PO438076  20.621  43.881   9.164
 2863POPC   GL138077  20.582  43.850   8.864
 2863POPC   GL238078  20.455  43.856   8.864
 2863POPC   C1A38079  20.578  43.897   8.564
 2863POPC   D2A38080  20.619  43.867   8.264
 2863POPC   C3A38081  20.596  43.891   7.964
 2863POPC   C4A38082  20.657  43.933   7.664
 2863POPC   C1B38083  20.429  43.783   8.564
 2863POPC   C2B38084  20.339  43.800   8.264
 2863POPC   C3B38085  20.414  43.744   7.964
 2863POPC   C4B38086  20.368  43.805   7.664
 2864POPC   NC338087   4.354  22.166   9.464
 2864POPC   PO438088   4.337  22.183   9.164
 2864POPC   GL138089   4.324  22.202   8.864
 2864POPC   GL238090   4.154  22.104   8.864
 2864POPC   C1A38091   4.276  22.166   8.564
 2864POPC   D2A38092   4.356  22.182   8.264
 2864POPC   C3A38093   4.308  22.197   7.964
 2864POPC   C4A38094   4.300  22.181   7.664
 2864POPC   C1B38095   4.069  22.113   8.564
 2864POPC   C2B38096   4.100  22.077   8.264
 2864POPC   C3B38097   4.056  22.099   7.964
 2864POPC   C4B38098   4.052  22.065   7.664
 2865POPC   NC338099  38.472  17.494   9.464
 2865POPC   PO438100  38.417  17.548   9.164
 2865POPC   GL138101  38.499  17.531   8.864
 2865POPC   GL238102  38.371  17.527   8.864
 2865POPC   C1A38103  38.440  17.483   8.564
 2865POPC   D2A38104  38.409  17.537   8.264
 2865POPC   C3A38105  38.470  17.547   7.964
 2865POPC   C4A38106  38.480  17.534   7.664
 2865POPC   C1B38107  38.186  17.617   8.564
 2865POPC   C2B38108  38.242  17.568   8.264
 2865POPC   C3B38109  38.241  17.621   7.964
 2865POPC   C4B38110  38.267  17.572   7.664
 2866POPC   NC338111  38.480  39.236   9.464
 2866POPC   PO438112  38.442  39.268   9.164
 2866POPC   GL138113  38.440  39.269   8.864
 2866POPC   GL238114  38.607  39.269   8.864
 2866POPC   C1A38115  38.407  39.213   8.564
 2866POPC   D2A38116  38.458  39.278   8.264
 2866POPC   C3A38117  38.411  39.279   7.964
 2866POPC   C4A38118  38.487  39.223   7.664
 2866POPC   C1B38119  38.668  39.209   8.564
 2866POPC   C2B38120  38.695  39.263   8.264
 2866POPC   C3B38121  38.733  39.273   7.964
 2866POPC   C4B38122  38.711  39.271   7.664
 2867POPC   NC338123  27.610  29.097   9.464
 2867POPC   PO438124  27.615  29.169   9.164
 2867POPC   GL138125  27.600  29.119   8.864
 2867POPC   GL238126  27.619  29.022   8.864
 2867POPC   C1A38127  27.641  29.120   8.564
 2867POPC   D2A38128  27.563  29.106   8.264
 2867POPC   C3A38129  27.546  29.099   7.964
 2867POPC   C4A38130  27.639  29.132   7.664
 2867POPC   C1B38131  27.650  28.934   8.564
 2867POPC   C2B38132  27.721  28.862   8.264
 2867POPC   C3B38133  27.710  28.903   7.964
 2867POPC   C4B38134  27.630  28.953   7.664
 2868POPC   NC338135  30.704   0.415   9.464
 2868POPC   PO438136  30.699   0.458   9.164
 2868POPC   GL138137  30.742   0.443   8.864
 2868POPC   GL238138  30.621   0.344   8.864
 2868POPC   C1A38139  30.684   0.437   8.564
 2868POPC   D2A38140  30.657   0.456   8.264
 2868POPC   C3A38141  30.714   0.484   7.964
 2868POPC   C4A38142  30.735   0.440   7.664
 2868POPC   C1B38143  30.485   0.302   8.564
 2868POPC   C2B38144  30.505   0.258   8.264
 2868POPC   C3B38145  30.486   0.311   7.964
 2868POPC   C4B38146  30.479   0.286   7.664
 2869POPC   NC338147   8.968  42.376   9.464
 2869POPC   PO438148   8.934  42.374   9.164
 2869POPC   GL138149   8.972  42.359   8.864
 2869POPC   GL238150   9.001  42.449   8.864
 2869POPC   C1A38151   8.951  42.301   8.564
 2869POPC   D2A38152   8.999  42.298   8.264
 2869POPC   C3A38153   8.985  42.297   7.964
 2869POPC   C4A38154   8.971  42.373   7.664
 2869POPC   C1B38155   9.006  42.588   8.564
 2869POPC   C2B38156   9.084  42.550   8.264
 2869POPC   C3B38157   9.040  42.561   7.964
 2869POPC   C4B38158   9.061  42.550   7.664
 2870POPC   NC338159   2.738  37.699   9.464
 2870POPC   PO438160   2.756  37.715   9.164
 2870POPC   GL138161   2.742  37.632   8.864
 2870POPC   GL238162   2.725  37.782   8.864
 2870POPC   C1A38163   2.751  37.690   8.564
 2870POPC   D2A38164   2.801  37.719   8.264
 2870POPC   C3A38165   2.788  37.690   7.964
 2870POPC   C4A38166   2.752  37.678   7.664
 2870POPC   C1B38167   2.720  37.952   8.564
 2870POPC   C2B38168   2.677  37.873   8.264
 2870POPC   C3B38169   2.691  37.906   7.964
 2870POPC   C4B38170   2.722  37.956   7.664
 2871POPC   NC338171  14.393   8.176   9.464
 2871POPC   PO438172  14.372   8.187   9.164
 2871POPC   GL138173  14.372   8.221   8.864
 2871POPC   GL238174  14.322   8.223   8.864
 2871POPC   C1A38175  14.450   8.166   8.564
 2871POPC   D2A38176  14.410   8.213   8.264
 2871POPC   C3A38177  14.364   8.156   7.964
 2871POPC   C4A38178  14.368   8.208   7.664
 2871POPC   C1B38179  14.137   8.280   8.564
 2871POPC   C2B38180  14.151   8.332   8.264
 2871POPC   C3B38181  14.127   8.254   7.964
 2871POPC   C4B38182  14.207   8.322   7.664
 2872POPC   NC338183  12.033  34.559   9.464
 2872POPC   PO438184  12.034  34.621   9.164
 2872POPC   GL138185  12.052  34.545   8.864
 2872POPC   GL238186  11.944  34.475   8.864
 2872POPC   C1A38187  12.048  34.591   8.564
 2872POPC   D2A38188  12.051  34.606   8.264
 2872POPC   C3A38189  12.118  34.617   7.964
 2872POPC   C4A38190  12.110  34.593   7.664
 2872POPC   C1B38191  11.859  34.435   8.564
 2872POPC   C2B38192  11.890  34.463   8.264
 2872POPC   C3B38193  11.831  34.429   7.964
 2872POPC   C4B38194  11.851  34.433   7.664
 2873POPC   NC338195  43.906   2.034   9.464
 2873POPC   PO438196  43.890   1.969   9.164
 2873POPC   GL138197  43.859   1.945   8.864
 2873POPC   GL238198  43.735   2.022   8.864
 2873POPC   C1A38199  43.856   1.940   8.564
 2873POPC   D2A38200  43.923   1.953   8.264
 2873POPC   C3A38201  43.910   2.001   7.964
 2873POPC   C4A38202  43.908   1.987   7.664
 2873POPC   C1B38203  43.688   2.079   8.564
 2873POPC   C2B38204  43.707   2.138   8.264
 2873POPC   C3B38205  43.672   2.132   7.964
 2873POPC   C4B38206  43.650   2.127   7.664
 2874POPC   NC338207   2.763  20.611   9.464
 2874POPC   PO438208   2.734  20.568   9.164
 2874POPC   GL138209   2.732  20.609   8.864
 2874POPC   GL238210   2.831  20.698   8.864
 2874POPC   C1A38211   2.795  20.572   8.564
 2874POPC   D2A38212   2.761  20.619   8.264
 2874POPC   C3A38213   2.800  20.568   7.964
 2874POPC   C4A38214   2.793  20.570   7.664
 2874POPC   C1B38215   2.963  20.829   8.564
 2874POPC   C2B38216   2.954  20.798   8.264
 2874POPC   C3B38217   2.975  20.826   7.964
 2874POPC   C4B38218   2.989  20.743   7.664
 2875POPC   NC338219   2.729  10.555   9.464
 2875POPC   PO438220   2.750  10.527   9.164
 2875POPC   GL138221   2.725  10.550   8.864
 2875POPC   GL238222   2.602  10.536   8.864
 2875POPC   C1A38223   2.771  10.535   8.564
 2875POPC   D2A38224   2.792  10.548   8.264
 2875POPC   C3A38225   2.748  10.503   7.964
 2875POPC   C4A38226   2.806  10.513   7.664
 2875POPC   C1B38227   2.565  10.483   8.564
 2875POPC   C2B38228   2.545  10.457   8.264
 2875POPC   C3B38229   2.534  10.476   7.964
 2875POPC   C4B38230   2.526  10.419   7.664
 2876POPC   NC338231  20.602  22.205   9.464
 2876POPC   PO438232  20.593  22.158   9.164
 2876POPC   GL138233  20.630  22.114   8.864
 2876POPC   GL238234  20.580  22.256   8.864
 2876POPC   C1A38235  20.644  22.112   8.564
 2876POPC   D2A38236  20.628  22.118   8.264
 2876POPC   C3A38237  20.585  22.152   7.964
 2876POPC   C4A38238  20.582  22.179   7.664
 2876POPC   C1B38239  20.498  22.375   8.564
 2876POPC   C2B38240  20.512  22.395   8.264
 2876POPC   C3B38241  20.483  22.364   7.964
 2876POPC   C4B38242  20.502  22.409   7.664
 2877POPC   NC338243  19.881   1.260   9.464
 2877POPC   PO438244  19.831   1.231   9.164
 2877POPC   GL138245  19.873   1.183   8.864
 2877POPC   GL238246  19.756   1.292   8.864
 2877POPC   C1A38247  19.883   1.246   8.564
 2877POPC   D2A38248  19.785   1.248   8.264
 2877POPC   C3A38249  19.824   1.204   7.964
 2877POPC   C4A38250  19.834   1.179   7.664
 2877POPC   C1B38251  19.638   1.360   8.564
 2877POPC   C2B38252  19.640   1.309   8.264
 2877POPC   C3B38253  19.604   1.322   7.964
 2877POPC   C4B38254  19.572   1.337   7.664
 2878POPC   NC338255  23.688  12.074   9.464
 2878POPC   PO438256  23.727  12.112   9.164
 2878POPC   GL138257  23.733  12.105   8.864
 2878POPC   GL238258  23.816  12.100   8.864
 2878POPC   C1A38259  23.734  12.090   8.564
 2878POPC   D2A38260  23.685  12.053   8.264
 2878POPC   C3A38261  23.731  12.110   7.964
 2878POPC   C4A38262  23.740  12.123   7.664
 2878POPC   C1B38263  23.896  12.189   8.564
 2878POPC   C2B38264  23.940  12.181   8.264
 2878POPC   C3B38265  23.987  12.193   7.964
 2878POPC   C4B38266  23.978  12.233   7.664
 2879POPC   NC338267  25.255  38.438   9.464
 2879POPC   PO438268  25.237  38.412   9.164
 2879POPC   GL138269  25.280  38.424   8.864
 2879POPC   GL238270  25.187  38.616   8.864
 2879POPC   C1A38271  25.257  38.440   8.564
 2879POPC   D2A38272  25.286  38.466   8.264
 2879POPC   C3A38273  25.294  38.463   7.964
 2879POPC   C4A38274  25.279  38.457   7.664
 2879POPC   C1B38275  25.131  38.669   8.564
 2879POPC   C2B38276  25.153  38.682   8.264
 2879POPC   C3B38277  25.175  38.667   7.964
 2879POPC   C4B38278  25.180  38.660   7.664
 2880POPC   NC338279  18.316  43.149   9.464
 2880POPC   PO438280  18.332  43.102   9.164
 2880POPC   GL138281  18.314  43.108   8.864
 2880POPC   GL238282  18.195  43.203   8.864
 2880POPC   C1A38283  18.314  43.135   8.564
 2880POPC   D2A38284  18.302  43.078   8.264
 2880POPC   C3A38285  18.317  43.112   7.964
 2880POPC   C4A38286  18.317  43.133   7.664
 2880POPC   C1B38287  18.081  43.230   8.564
 2880POPC   C2B38288  18.075  43.179   8.264
 2880POPC   C3B38289  18.088  43.239   7.964
 2880POPC   C4B38290  18.030  43.166   7.664
 2881POPC   NC338291   5.076  28.395   9.464
 2881POPC   PO438292   5.104  28.358   9.164
 2881POPC   GL138293   5.074  28.402   8.864
 2881POPC   GL238294   5.250  28.384   8.864
 2881POPC   C1A38295   5.084  28.322   8.564
 2881POPC   D2A38296   5.133  28.327   8.264
 2881POPC   C3A38297   5.092  28.417   7.964
 2881POPC   C4A38298   5.078  28.410   7.664
 2881POPC   C1B38299   5.350  28.326   8.564
 2881POPC   C2B38300   5.289  28.302   8.264
 2881POPC   C3B38301   5.365  28.295   7.964
 2881POPC   C4B38302   5.297  28.346   7.664
 2882POPC   NC338303  26.034  19.836   9.464
 2882POPC   PO438304  26.043  19.838   9.164
 2882POPC   GL138305  26.055  19.789   8.864
 2882POPC   GL238306  26.027  19.687   8.864
 2882POPC   C1A38307  25.995  19.865   8.564
 2882POPC   D2A38308  26.058  19.870   8.264
 2882POPC   C3A38309  26.046  19.843   7.964
 2882POPC   C4A38310  26.046  19.851   7.664
 2882POPC   C1B38311  26.118  19.548   8.564
 2882POPC   C2B38312  26.119  19.546   8.264
 2882POPC   C3B38313  26.079  19.628   7.964
 2882POPC   C4B38314  26.058  19.546   7.664
 2883POPC   NC338315  36.932  33.788   9.464
 2883POPC   PO438316  36.858  33.762   9.164
 2883POPC   GL138317  36.915  33.843   8.864
 2883POPC   GL238318  36.823  33.831   8.864
 2883POPC   C1A38319  36.919  33.801   8.564
 2883POPC   D2A38320  36.875  33.824   8.264
 2883POPC   C3A38321  36.913  33.757   7.964
 2883POPC   C4A38322  36.874  33.836   7.664
 2883POPC   C1B38323  36.643  33.828   8.564
 2883POPC   C2B38324  36.638  33.832   8.264
 2883POPC   C3B38325  36.700  33.741   7.964
 2883POPC   C4B38326  36.619  33.803   7.664
 2884POPC   NC338327  26.830  26.075   9.464
 2884POPC   PO438328  26.843  26.073   9.164
 2884POPC   GL138329  26.828  26.038   8.864
 2884POPC   GL238330  26.866  25.937   8.864
 2884POPC   C1A38331  26.836  26.021   8.564
 2884POPC   D2A38332  26.782  26.075   8.264
 2884POPC   C3A38333  26.865  26.074   7.964
 2884POPC   C4A38334  26.851  25.999   7.664
 2884POPC   C1B38335  26.886  25.775   8.564
 2884POPC   C2B38336  26.920  25.803   8.264
 2884POPC   C3B38337  26.936  25.851   7.964
 2884POPC   C4B38338  26.957  25.777   7.664
 2885POPC   NC338339   3.576  35.363   9.464
 2885POPC   PO438340   3.531  35.364   9.164
 2885POPC   GL138341   3.570  35.323   8.864
 2885POPC   GL238342   3.396  35.375   8.864
 2885POPC   C1A38343   3.509  35.324   8.564
 2885POPC   D2A38344   3.497  35.326   8.264
 2885POPC   C3A38345   3.532  35.371   7.964
 2885POPC   C4A38346   3.535  35.378   7.664
 2885POPC   C1B38347   3.258  35.354   8.564
 2885POPC   C2B38348   3.286  35.373   8.264
 2885POPC   C3B38349   3.326  35.400   7.964
 2885POPC   C4B38350   3.335  35.383   7.664
 2886POPC   NC338351  31.433  25.274   9.464
 2886POPC   PO438352  31.464  25.294   9.164
 2886POPC   GL138353  31.494  25.235   8.864
 2886POPC   GL238354  31.641  25.284   8.864
 2886POPC   C1A38355  31.441  25.292   8.564
 2886POPC   D2A38356  31.509  25.216   8.264
 2886POPC   C3A38357  31.493  25.266   7.964
 2886POPC   C4A38358  31.439  25.279   7.664
 2886POPC   C1B38359  31.668  25.334   8.564
 2886POPC   C2B38360  31.699  25.327   8.264
 2886POPC   C3B38361  31.760  25.283   7.964
 2886POPC   C4B38362  31.762  25.369   7.664
 2887POPC   NC338363  15.149   8.953   9.464
 2887POPC   PO438364  15.139   8.972   9.164
 2887POPC   GL138365  15.203   8.987   8.864
 2887POPC   GL238366  15.294   8.897   8.864
 2887POPC   C1A38367  15.134   8.934   8.564
 2887POPC   D2A38368  15.214   8.926   8.264
 2887POPC   C3A38369  15.228   8.955   7.964
 2887POPC   C4A38370  15.192   8.944   7.664
 2887POPC   C1B38371  15.350   8.747   8.564
 2887POPC   C2B38372  15.334   8.743   8.264
 2887POPC   C3B38373  15.316   8.718   7.964
 2887POPC   C4B38374  15.334   8.789   7.664
 2888POPC   NC338375  20.625  19.013   9.464
 2888POPC   PO438376  20.590  19.058   9.164
 2888POPC   GL138377  20.642  19.099   8.864
 2888POPC   GL238378  20.553  19.184   8.864
 2888POPC   C1A38379  20.659  19.009   8.564
 2888POPC   D2A38380  20.573  19.065   8.264
 2888POPC   C3A38381  20.626  19.043   7.964
 2888POPC   C4A38382  20.636  19.067   7.664
 2888POPC   C1B38383  20.438  19.265   8.564
 2888POPC   C2B38384  20.422  19.256   8.264
 2888POPC   C3B38385  20.485  19.244   7.964
 2888POPC   C4B38386  20.457  19.238   7.664
 2889POPC   NC338387  38.486  13.647   9.464
 2889POPC   PO438388  38.484  13.653   9.164
 2889POPC   GL138389  38.443  13.676   8.864
 2889POPC   GL238390  38.382  13.685   8.864
 2889POPC   C1A38391  38.414  13.617   8.564
 2889POPC   D2A38392  38.452  13.636   8.264
 2889POPC   C3A38393  38.460  13.609   7.964
 2889POPC   C4A38394  38.490  13.649   7.664
 2889POPC   C1B38395  38.280  13.794   8.564
 2889POPC   C2B38396  38.318  13.797   8.264
 2889POPC   C3B38397  38.286  13.807   7.964
 2889POPC   C4B38398  38.318  13.841   7.664
 2890POPC   NC338399  42.317  42.349   9.464
 2890POPC   PO438400  42.334  42.300   9.164
 2890POPC   GL138401  42.288  42.367   8.864
 2890POPC   GL238402  42.388  42.406   8.864
 2890POPC   C1A38403  42.308  42.316   8.564
 2890POPC   D2A38404  42.312  42.328   8.264
 2890POPC   C3A38405  42.329  42.380   7.964
 2890POPC   C4A38406  42.299  42.366   7.664
 2890POPC   C1B38407  42.532  42.527   8.564
 2890POPC   C2B38408  42.490  42.512   8.264
 2890POPC   C3B38409  42.471  42.478   7.964
 2890POPC   C4B38410  42.533  42.486   7.664
 2891POPC   NC338411  26.090  14.366   9.464
 2891POPC   PO438412  26.069  14.364   9.164
 2891POPC   GL138413  26.065  14.418   8.864
 2891POPC   GL238414  26.127  14.454   8.864
 2891POPC   C1A38415  25.995  14.357   8.564
 2891POPC   D2A38416  26.051  14.361   8.264
 2891POPC   C3A38417  26.032  14.413   7.964
 2891POPC   C4A38418  26.003  14.437   7.664
 2891POPC   C1B38419  26.286  14.442   8.564
 2891POPC   C2B38420  26.243  14.424   8.264
 2891POPC   C3B38421  26.300  14.442   7.964
 2891POPC   C4B38422  26.239  14.496   7.664
 2892POPC   NC338423  37.662  12.075   9.464
 2892POPC   PO438424  37.634  12.086   9.164
 2892POPC   GL138425  37.670  12.064   8.864
 2892POPC   GL238426  37.754  12.095   8.864
 2892POPC   C1A38427  37.664  12.063   8.564
 2892POPC   D2A38428  37.657  12.094   8.264
 2892POPC   C3A38429  37.685  12.048   7.964
 2892POPC   C4A38430  37.673  12.066   7.664
 2892POPC   C1B38431  37.952  12.100   8.564
 2892POPC   C2B38432  37.947  12.173   8.264
 2892POPC   C3B38433  37.931  12.084   7.964
 2892POPC   C4B38434  37.927  12.155   7.664
 2893POPC   NC338435   3.578  18.306   9.464
 2893POPC   PO438436   3.557  18.273   9.164
 2893POPC   GL138437   3.591  18.318   8.864
 2893POPC   GL238438   3.576  18.166   8.864
 2893POPC   C1A38439   3.565  18.283   8.564
 2893POPC   D2A38440   3.568  18.304   8.264
 2893POPC   C3A38441   3.554  18.256   7.964
 2893POPC   C4A38442   3.549  18.280   7.664
 2893POPC   C1B38443   3.714  18.031   8.564
 2893POPC   C2B38444   3.667  18.041   8.264
 2893POPC   C3B38445   3.686  18.101   7.964
 2893POPC   C4B38446   3.664  18.094   7.664
 2894POPC   NC338447  36.175  43.922   9.464
 2894POPC   PO438448  36.136  43.935   9.164
 2894POPC   GL138449  36.165  43.900   8.864
 2894POPC   GL238450  36.062  43.779   8.864
 2894POPC   C1A38451  36.133  43.892   8.564
 2894POPC   D2A38452  36.139  43.933   8.264
 2894POPC   C3A38453  36.146  43.872   7.964
 2894POPC   C4A38454  36.174  43.933   7.664
 2894POPC   C1B38455  35.980  43.723   8.564
 2894POPC   C2B38456  35.917  43.737   8.264
 2894POPC   C3B38457  35.948  43.692   7.964
 2894POPC   C4B38458  35.995  43.750   7.664
 2895POPC   NC338459  13.587   6.621   9.464
 2895POPC   PO438460  13.650   6.615   9.164
 2895POPC   GL138461  13.623   6.674   8.864
 2895POPC   GL238462  13.516   6.582   8.864
 2895POPC   C1A38463  13.579   6.630   8.564
 2895POPC   D2A38464  13.625   6.647   8.264
 2895POPC   C3A38465  13.605   6.680   7.964
 2895POPC   C4A38466  13.663   6.619   7.664
 2895POPC   C1B38467  13.498   6.480   8.564
 2895POPC   C2B38468  13.505   6.475   8.264
 2895POPC   C3B38469  13.515   6.417   7.964
 2895POPC   C4B38470  13.458   6.418   7.664
 2896POPC   NC338471  37.648  18.269   9.464
 2896POPC   PO438472  37.649  18.280   9.164
 2896POPC   GL138473  37.721  18.329   8.864
 2896POPC   GL238474  37.825  18.378   8.864
 2896POPC   C1A38475  37.707  18.252   8.564
 2896POPC   D2A38476  37.684  18.312   8.264
 2896POPC   C3A38477  37.722  18.255   7.964
 2896POPC   C4A38478  37.647  18.281   7.664
 2896POPC   C1B38479  37.919  18.437   8.564
 2896POPC   C2B38480  37.947  18.376   8.264
 2896POPC   C3B38481  37.946  18.434   7.964
 2896POPC   C4B38482  37.916  18.382   7.664
 2897POPC   NC338483   8.969  22.946   9.464
 2897POPC   PO438484   9.016  22.962   9.164
 2897POPC   GL138485   8.964  22.987   8.864
 2897POPC   GL238486   9.057  22.883   8.864
 2897POPC   C1A38487   8.948  22.931   8.564
 2897POPC   D2A38488   9.011  22.967   8.264
 2897POPC   C3A38489   8.988  22.959   7.964
 2897POPC   C4A38490   8.969  22.970   7.664
 2897POPC   C1B38491   9.115  22.724   8.564
 2897POPC   C2B38492   9.161  22.807   8.264
 2897POPC   C3B38493   9.189  22.789   7.964
 2897POPC   C4B38494   9.187  22.724   7.664
 2898POPC   NC338495  22.912   2.740   9.464
 2898POPC   PO438496  22.898   2.789   9.164
 2898POPC   GL138497  22.956   2.731   8.864
 2898POPC   GL238498  22.896   2.654   8.864
 2898POPC   C1A38499  22.923   2.811   8.564
 2898POPC   D2A38500  22.915   2.794   8.264
 2898POPC   C3A38501  22.959   2.727   7.964
 2898POPC   C4A38502  22.966   2.759   7.664
 2898POPC   C1B38503  22.730   2.561   8.564
 2898POPC   C2B38504  22.795   2.556   8.264
 2898POPC   C3B38505  22.786   2.557   7.964
 2898POPC   C4B38506  22.819   2.526   7.664
 2899POPC   NC338507  32.277   8.231   9.464
 2899POPC   PO438508  32.250   8.175   9.164
 2899POPC   GL138509  32.240   8.245   8.864
 2899POPC   GL238510  32.369   8.178   8.864
 2899POPC   C1A38511  32.263   8.188   8.564
 2899POPC   D2A38512  32.283   8.183   8.264
 2899POPC   C3A38513  32.229   8.220   7.964
 2899POPC   C4A38514  32.258   8.215   7.664
 2899POPC   C1B38515  32.508   8.066   8.564
 2899POPC   C2B38516  32.457   8.055   8.264
 2899POPC   C3B38517  32.488   8.081   7.964
 2899POPC   C4B38518  32.426   8.124   7.664
 2900POPC   NC338519  19.076  26.844   9.464
 2900POPC   PO438520  19.022  26.844   9.164
 2900POPC   GL138521  19.013  26.825   8.864
 2900POPC   GL238522  18.975  26.967   8.864
 2900POPC   C1A38523  19.027  26.772   8.564
 2900POPC   D2A38524  19.010  26.851   8.264
 2900POPC   C3A38525  19.016  26.861   7.964
 2900POPC   C4A38526  19.014  26.805   7.664
 2900POPC   C1B38527  18.967  27.057   8.564
 2900POPC   C2B38528  18.954  27.013   8.264
 2900POPC   C3B38529  18.964  27.088   7.964
 2900POPC   C4B38530  18.963  27.053   7.664
 2901POPC   NC338531   9.743  26.807   9.464
 2901POPC   PO438532   9.754  26.852   9.164
 2901POPC   GL138533   9.757  26.776   8.864
 2901POPC   GL238534   9.904  26.920   8.864
 2901POPC   C1A38535   9.705  26.841   8.564
 2901POPC   D2A38536   9.743  26.787   8.264
 2901POPC   C3A38537   9.711  26.863   7.964
 2901POPC   C4A38538   9.731  26.781   7.664
 2901POPC   C1B38539   9.998  26.998   8.564
 2901POPC   C2B38540  10.002  26.978   8.264
 2901POPC   C3B38541   9.976  26.964   7.964
 2901POPC   C4B38542   9.954  26.963   7.664
 2902POPC   NC338543  29.958  44.638   9.464
 2902POPC   PO438544  29.933  44.655   9.164
 2902POPC   GL138545  29.916  44.703   8.864
 2902POPC   GL238546  29.965  44.761   8.864
 2902POPC   C1A38547  29.958  44.676   8.564
 2902POPC   D2A38548  29.904  44.692   8.264
 2902POPC   C3A38549  29.907  44.660   7.964
 2902POPC   C4A38550  29.966  44.622   7.664
 2902POPC   C1B38551  30.020  44.859   8.564
 2902POPC   C2B38552  29.985  44.864   8.264
 2902POPC   C3B38553  30.039  44.850   7.964
 2902POPC   C4B38554  30.041  44.887   7.664
 2903POPC   NC338555  17.507  35.321   9.464
 2903POPC   PO438556  17.491  35.333   9.164
 2903POPC   GL138557  17.458  35.400   8.864
 2903POPC   GL238558  17.399  35.425   8.864
 2903POPC   C1A38559  17.477  35.303   8.564
 2903POPC   D2A38560  17.475  35.333   8.264
 2903POPC   C3A38561  17.492  35.392   7.964
 2903POPC   C4A38562  17.484  35.319   7.664
 2903POPC   C1B38563  17.309  35.394   8.564
 2903POPC   C2B38564  17.277  35.430   8.264
 2903POPC   C3B38565  17.232  35.394   7.964
 2903POPC   C4B38566  17.289  35.395   7.664
 2904POPC   NC338567  33.038   9.006   9.464
 2904POPC   PO438568  32.993   9.003   9.164
 2904POPC   GL138569  33.066   8.974   8.864
 2904POPC   GL238570  32.932   8.881   8.864
 2904POPC   C1A38571  33.053   8.944   8.564
 2904POPC   D2A38572  33.059   8.952   8.264
 2904POPC   C3A38573  33.054   9.015   7.964
 2904POPC   C4A38574  33.002   8.930   7.664
 2904POPC   C1B38575  32.907   8.719   8.564
 2904POPC   C2B38576  32.913   8.775   8.264
 2904POPC   C3B38577  32.897   8.763   7.964
 2904POPC   C4B38578  32.944   8.714   7.664
 2905POPC   NC338579   3.583  43.884   9.464
 2905POPC   PO438580   3.569  43.898   9.164
 2905POPC   GL138581   3.544  43.850   8.864
 2905POPC   GL238582   3.556  44.026   8.864
 2905POPC   C1A38583   3.586  43.924   8.564
 2905POPC   D2A38584   3.532  43.838   8.264
 2905POPC   C3A38585   3.585  43.855   7.964
 2905POPC   C4A38586   3.514  43.844   7.664
 2905POPC   C1B38587   3.575  44.111   8.564
 2905POPC   C2B38588   3.522  44.174   8.264
 2905POPC   C3B38589   3.536  44.175   7.964
 2905POPC   C4B38590   3.522  44.147   7.664
 2906POPC   NC338591  21.394   9.786   9.464
 2906POPC   PO438592  21.372   9.743   9.164
 2906POPC   GL138593  21.414   9.767   8.864
 2906POPC   GL238594  21.496   9.809   8.864
 2906POPC   C1A38595  21.362   9.756   8.564
 2906POPC   D2A38596  21.435   9.787   8.264
 2906POPC   C3A38597  21.343   9.791   7.964
 2906POPC   C4A38598  21.364   9.739   7.664
 2906POPC   C1B38599  21.591   9.778   8.564
 2906POPC   C2B38600  21.634   9.750   8.264
 2906POPC   C3B38601  21.675   9.811   7.964
 2906POPC   C4B38602  21.656   9.809   7.664
 2907POPC   NC338603   2.729  35.308   9.464
 2907POPC   PO438604   2.742  35.374   9.164
 2907POPC   GL138605   2.747  35.333   8.864
 2907POPC   GL238606   2.821  35.493   8.864
 2907POPC   C1A38607   2.745  35.369   8.564
 2907POPC   D2A38608   2.786  35.320   8.264
 2907POPC   C3A38609   2.790  35.349   7.964
 2907POPC   C4A38610   2.737  35.391   7.664
 2907POPC   C1B38611   2.930  35.553   8.564
 2907POPC   C2B38612   2.932  35.563   8.264
 2907POPC   C3B38613   2.894  35.515   7.964
 2907POPC   C4B38614   2.917  35.555   7.664
 2908POPC   NC338615  37.681   8.973   9.464
 2908POPC   PO438616  37.651   8.940   9.164
 2908POPC   GL138617  37.644   9.006   8.864
 2908POPC   GL238618  37.779   9.085   8.864
 2908POPC   C1A38619  37.705   8.936   8.564
 2908POPC   D2A38620  37.631   8.961   8.264
 2908POPC   C3A38621  37.673   8.943   7.964
 2908POPC   C4A38622  37.675   8.951   7.664
 2908POPC   C1B38623  37.834   9.181   8.564
 2908POPC   C2B38624  37.860   9.132   8.264
 2908POPC   C3B38625  37.871   9.186   7.964
 2908POPC   C4B38626  37.815   9.184   7.664
 2909POPC   NC338627  29.123   6.622   9.464
 2909POPC   PO438628  29.176   6.626   9.164
 2909POPC   GL138629  29.152   6.680   8.864
 2909POPC   GL238630  29.077   6.574   8.864
 2909POPC   C1A38631  29.174   6.603   8.564
 2909POPC   D2A38632  29.161   6.621   8.264
 2909POPC   C3A38633  29.118   6.642   7.964
 2909POPC   C4A38634  29.118   6.669   7.664
 2909POPC   C1B38635  29.046   6.477   8.564
 2909POPC   C2B38636  28.999   6.476   8.264
 2909POPC   C3B38637  29.027   6.430   7.964
 2909POPC   C4B38638  28.971   6.426   7.664
 2910POPC   NC338639  33.801  43.147   9.464
 2910POPC   PO438640  33.842  43.102   9.164
 2910POPC   GL138641  33.806  43.134   8.864
 2910POPC   GL238642  33.782  42.998   8.864
 2910POPC   C1A38643  33.771  43.079   8.564
 2910POPC   D2A38644  33.840  43.106   8.264
 2910POPC   C3A38645  33.796  43.128   7.964
 2910POPC   C4A38646  33.844  43.097   7.664
 2910POPC   C1B38647  33.722  42.834   8.564
 2910POPC   C2B38648  33.728  42.906   8.264
 2910POPC   C3B38649  33.723  42.855   7.964
 2910POPC   C4B38650  33.672  42.833   7.664
 2911POPC   NC338651  42.311  10.483   9.464
 2911POPC   PO438652  42.294  10.497   9.164
 2911POPC   GL138653  42.355  10.545   8.864
 2911POPC   GL238654  42.238  10.448   8.864
 2911POPC   C1A38655  42.302  10.496   8.564
 2911POPC   D2A38656  42.314  10.491   8.264
 2911POPC   C3A38657  42.336  10.533   7.964
 2911POPC   C4A38658  42.348  10.515   7.664
 2911POPC   C1B38659  42.225  10.325   8.564
 2911POPC   C2B38660  42.183  10.299   8.264
 2911POPC   C3B38661  42.211  10.288   7.964
 2911POPC   C4B38662  42.151  10.316   7.664
 2912POPC   NC338663   8.946  39.995   9.464
 2912POPC   PO438664   9.014  40.011   9.164
 2912POPC   GL138665   9.010  40.009   8.864
 2912POPC   GL238666   9.048  40.006   8.864
 2912POPC   C1A38667   9.004  39.978   8.564
 2912POPC   D2A38668   8.939  40.028   8.264
 2912POPC   C3A38669   9.014  40.023   7.964
 2912POPC   C4A38670   8.971  40.021   7.664
 2912POPC   C1B38671   9.163  40.096   8.564
 2912POPC   C2B38672   9.162  40.099   8.264
 2912POPC   C3B38673   9.202  40.082   7.964
 2912POPC   C4B38674   9.251  40.128   7.664
 2913POPC   NC338675  23.753  40.752   9.464
 2913POPC   PO438676  23.723  40.740   9.164
 2913POPC   GL138677  23.761  40.773   8.864
 2913POPC   GL238678  23.720  40.630   8.864
 2913POPC   C1A38679  23.706  40.738   8.564
 2913POPC   D2A38680  23.685  40.769   8.264
 2913POPC   C3A38681  23.680  40.776   7.964
 2913POPC   C4A38682  23.717  40.742   7.664
 2913POPC   C1B38683  23.690  40.519   8.564
 2913POPC   C2B38684  23.613  40.501   8.264
 2913POPC   C3B38685  23.646  40.569   7.964
 2913POPC   C4B38686  23.612  40.534   7.664
 2914POPC   NC338687  14.416  22.147   9.464
 2914POPC   PO438688  14.449  22.166   9.164
 2914POPC   GL138689  14.369  22.170   8.864
 2914POPC   GL238690  14.457  22.081   8.864
 2914POPC   C1A38691  14.407  22.143   8.564
 2914POPC   D2A38692  14.357  22.203   8.264
 2914POPC   C3A38693  14.366  22.157   7.964
 2914POPC   C4A38694  14.363  22.185   7.664
 2914POPC   C1B38695  14.553  21.982   8.564
 2914POPC   C2B38696  14.494  21.953   8.264
 2914POPC   C3B38697  14.562  21.921   7.964
 2914POPC   C4B38698  14.551  21.906   7.664
 2915POPC   NC338699   3.567  15.177   9.464
 2915POPC   PO438700   3.544  15.136   9.164
 2915POPC   GL138701   3.571  15.168   8.864
 2915POPC   GL238702   3.707  15.164   8.864
 2915POPC   C1A38703   3.531  15.217   8.564
 2915POPC   D2A38704   3.570  15.171   8.264
 2915POPC   C3A38705   3.508  15.194   7.964
 2915POPC   C4A38706   3.528  15.159   7.664
 2915POPC   C1B38707   3.755  15.099   8.564
 2915POPC   C2B38708   3.811  15.107   8.264
 2915POPC   C3B38709   3.806  15.150   7.964
 2915POPC   C4B38710   3.738  15.110   7.664
 2916POPC   NC338711  13.603  20.617   9.464
 2916POPC   PO438712  13.665  20.573   9.164
 2916POPC   GL138713  13.613  20.618   8.864
 2916POPC   GL238714  13.559  20.564   8.864
 2916POPC   C1A38715  13.600  20.622   8.564
 2916POPC   D2A38716  13.634  20.587   8.264
 2916POPC   C3A38717  13.676  20.601   7.964
 2916POPC   C4A38718  13.670  20.580   7.664
 2916POPC   C1B38719  13.418  20.475   8.564
 2916POPC   C2B38720  13.496  20.452   8.264
 2916POPC   C3B38721  13.434  20.423   7.964
 2916POPC   C4B38722  13.420  20.432   7.664
 2917POPC   NC338723   8.981  33.840   9.464
 2917POPC   PO438724   8.964  33.806   9.164
 2917POPC   GL138725   8.943  33.771   8.864
 2917POPC   GL238726   8.877  33.780   8.864
 2917POPC   C1A38727   8.930  33.787   8.564
 2917POPC   D2A38728   9.014  33.766   8.264
 2917POPC   C3A38729   9.007  33.769   7.964
 2917POPC   C4A38730   9.011  33.832   7.664
 2917POPC   C1B38731   8.730  33.653   8.564
 2917POPC   C2B38732   8.750  33.726   8.264
 2917POPC   C3B38733   8.733  33.743   7.964
 2917POPC   C4B38734   8.740  33.703   7.664
 2918POPC   NC338735  35.371  23.761   9.464
 2918POPC   PO438736  35.327  23.745   9.164
 2918POPC   GL138737  35.305  23.738   8.864
 2918POPC   GL238738  35.416  23.618   8.864
 2918POPC   C1A38739  35.337  23.677   8.564
 2918POPC   D2A38740  35.310  23.714   8.264
 2918POPC   C3A38741  35.306  23.687   7.964
 2918POPC   C4A38742  35.363  23.709   7.664
 2918POPC   C1B38743  35.599  23.591   8.564
 2918POPC   C2B38744  35.580  23.549   8.264
 2918POPC   C3B38745  35.569  23.589   7.964
 2918POPC   C4B38746  35.590  23.606   7.664
 2919POPC   NC338747   7.374  19.044   9.464
 2919POPC   PO438748   7.435  19.092   9.164
 2919POPC   GL138749   7.427  19.055   8.864
 2919POPC   GL238750   7.298  18.955   8.864
 2919POPC   C1A38751   7.406  19.069   8.564
 2919POPC   D2A38752   7.467  19.070   8.264
 2919POPC   C3A38753   7.457  19.037   7.964
 2919POPC   C4A38754   7.397  19.012   7.664
 2919POPC   C1B38755   7.241  18.931   8.564
 2919POPC   C2B38756   7.240  18.935   8.264
 2919POPC   C3B38757   7.214  18.899   7.964
 2919POPC   C4B38758   7.252  18.900   7.664
 2920POPC   NC338759   9.747   1.967   9.464
 2920POPC   PO438760   9.717   2.034   9.164
 2920POPC   GL138761   9.788   2.020   8.864
 2920POPC   GL238762   9.852   1.985   8.864
 2920POPC   C1A38763   9.762   2.006   8.564
 2920POPC   D2A38764   9.778   1.986   8.264
 2920POPC   C3A38765   9.769   1.956   7.964
 2920POPC   C4A38766   9.700   2.037   7.664
 2920POPC   C1B38767   9.994   1.981   8.564
 2920POPC   C2B38768  10.038   1.962   8.264
 2920POPC   C3B38769  10.005   1.901   7.964
 2920POPC   C4B38770  10.006   1.915   7.664
 2921POPC   NC338771  24.446  25.289   9.464
 2921POPC   PO438772  24.492  25.235   9.164
 2921POPC   GL138773  24.506  25.257   8.864
 2921POPC   GL238774  24.408  25.342   8.864
 2921POPC   C1A38775  24.514  25.222   8.564
 2921POPC   D2A38776  24.497  25.293   8.264
 2921POPC   C3A38777  24.500  25.229   7.964
 2921POPC   C4A38778  24.513  25.245   7.664
 2921POPC   C1B38779  24.273  25.465   8.564
 2921POPC   C2B38780  24.266  25.453   8.264
 2921POPC   C3B38781  24.291  25.477   7.964
 2921POPC   C4B38782  24.290  25.468   7.664
 2922POPC   NC338783  22.945  29.174   9.464
 2922POPC   PO438784  22.982  29.171   9.164
 2922POPC   GL138785  22.937  29.116   8.864
 2922POPC   GL238786  23.035  29.057   8.864
 2922POPC   C1A38787  22.963  29.103   8.564
 2922POPC   D2A38788  22.966  29.183   8.264
 2922POPC   C3A38789  22.954  29.139   7.964
 2922POPC   C4A38790  22.985  29.143   7.664
 2922POPC   C1B38791  23.080  28.988   8.564
 2922POPC   C2B38792  23.121  28.973   8.264
 2922POPC   C3B38793  23.050  28.966   7.964
 2922POPC   C4B38794  23.045  28.900   7.664
 2923POPC   NC338795  33.765  41.555   9.464
 2923POPC   PO438796  33.834  41.520   9.164
 2923POPC   GL138797  33.806  41.569   8.864
 2923POPC   GL238798  33.893  41.560   8.864
 2923POPC   C1A38799  33.770  41.597   8.564
 2923POPC   D2A38800  33.795  41.535   8.264
 2923POPC   C3A38801  33.796  41.597   7.964
 2923POPC   C4A38802  33.806  41.528   7.664
 2923POPC   C1B38803  34.010  41.481   8.564
 2923POPC   C2B38804  34.048  41.468   8.264
 2923POPC   C3B38805  34.068  41.498   7.964
 2923POPC   C4B38806  34.046  41.522   7.664
 2924POPC   NC338807   9.705  10.520   9.464
 2924POPC   PO438808   9.797  10.548   9.164
 2924POPC   GL138809   9.773  10.494   8.864
 2924POPC   GL238810   9.702  10.579   8.864
 2924POPC   C1A38811   9.721  10.495   8.564
 2924POPC   D2A38812   9.777  10.553   8.264
 2924POPC   C3A38813   9.708  10.523   7.964
 2924POPC   C4A38814   9.733  10.536   7.664
 2924POPC   C1B38815   9.531  10.664   8.564
 2924POPC   C2B38816   9.552  10.661   8.264
 2924POPC   C3B38817   9.589  10.640   7.964
 2924POPC   C4B38818   9.583  10.685   7.664
 2925POPC   NC338819  14.377   3.547   9.464
 2925POPC   PO438820  14.380   3.525   9.164
 2925POPC   GL138821  14.392   3.494   8.864
 2925POPC   GL238822  14.439   3.662   8.864
 2925POPC   C1A38823  14.422   3.517   8.564
 2925POPC   D2A38824  14.427   3.588   8.264
 2925POPC   C3A38825  14.425   3.583   7.964
 2925POPC   C4A38826  14.375   3.590   7.664
 2925POPC   C1B38827  14.486   3.810   8.564
 2925POPC   C2B38828  14.447   3.823   8.264
 2925POPC   C3B38829  14.521   3.783   7.964
 2925POPC   C4B38830  14.462   3.771   7.664
 2926POPC   NC338831  35.358  24.490   9.464
 2926POPC   PO438832  35.355  24.529   9.164
 2926POPC   GL138833  35.361  24.522   8.864
 2926POPC   GL238834  35.442  24.591   8.864
 2926POPC   C1A38835  35.314  24.503   8.564
 2926POPC   D2A38836  35.347  24.480   8.264
 2926POPC   C3A38837  35.327  24.507   7.964
 2926POPC   C4A38838  35.387  24.460   7.664
 2926POPC   C1B38839  35.565  24.583   8.564
 2926POPC   C2B38840  35.597  24.555   8.264
 2926POPC   C3B38841  35.542  24.551   7.964
 2926POPC   C4B38842  35.613  24.628   7.664
 2927POPC   NC338843  30.744  22.908   9.464
 2927POPC   PO438844  30.689  22.891   9.164
 2927POPC   GL138845  30.716  22.898   8.864
 2927POPC   GL238846  30.808  22.884   8.864
 2927POPC   C1A38847  30.689  22.900   8.564
 2927POPC   D2A38848  30.676  22.905   8.264
 2927POPC   C3A38849  30.654  22.909   7.964
 2927POPC   C4A38850  30.658  22.948   7.664
 2927POPC   C1B38851  30.960  22.825   8.564
 2927POPC   C2B38852  30.880  22.780   8.264
 2927POPC   C3B38853  30.876  22.842   7.964
 2927POPC   C4B38854  30.931  22.854   7.664
 2928POPC   NC338855  17.520  16.739   9.464
 2928POPC   PO438856  17.530  16.690   9.164
 2928POPC   GL138857  17.526  16.727   8.864
 2928POPC   GL238858  17.580  16.603   8.864
 2928POPC   C1A38859  17.482  16.718   8.564
 2928POPC   D2A38860  17.483  16.730   8.264
 2928POPC   C3A38861  17.472  16.752   7.964
 2928POPC   C4A38862  17.540  16.749   7.664
 2928POPC   C1B38863  17.607  16.456   8.564
 2928POPC   C2B38864  17.626  16.526   8.264
 2928POPC   C3B38865  17.608  16.517   7.964
 2928POPC   C4B38866  17.645  16.463   7.664
 2929POPC   NC338867  37.720   0.472   9.464
 2929POPC   PO438868  37.675   0.390   9.164
 2929POPC   GL138869  37.677   0.395   8.864
 2929POPC   GL238870  37.622   0.352   8.864
 2929POPC   C1A38871  37.658   0.484   8.564
 2929POPC   D2A38872  37.656   0.422   8.264
 2929POPC   C3A38873  37.722   0.473   7.964
 2929POPC   C4A38874  37.647   0.388   7.664
 2929POPC   C1B38875  37.519   0.211   8.564
 2929POPC   C2B38876  37.528   0.209   8.264
 2929POPC   C3B38877  37.542   0.227   7.964
 2929POPC   C4B38878  37.528   0.261   7.664
 2930POPC   NC338879  42.331   3.538   9.464
 2930POPC   PO438880  42.342   3.563   9.164
 2930POPC   GL138881  42.335   3.548   8.864
 2930POPC   GL238882  42.490   3.471   8.864
 2930POPC   C1A38883  42.365   3.538   8.564
 2930POPC   D2A38884  42.380   3.516   8.264
 2930POPC   C3A38885  42.371   3.538   7.964
 2930POPC   C4A38886  42.321   3.588   7.664
 2930POPC   C1B38887  42.550   3.444   8.564
 2930POPC   C2B38888  42.568   3.421   8.264
 2930POPC   C3B38889  42.581   3.396   7.964
 2930POPC   C4B38890  42.586   3.450   7.664
 2931POPC   NC338891  22.974  40.039   9.464
 2931POPC   PO438892  22.929  40.034   9.164
 2931POPC   GL138893  22.946  39.969   8.864
 2931POPC   GL238894  22.943  40.083   8.864
 2931POPC   C1A38895  22.966  40.049   8.564
 2931POPC   D2A38896  22.965  40.025   8.264
 2931POPC   C3A38897  22.911  39.993   7.964
 2931POPC   C4A38898  22.942  40.035   7.664
 2931POPC   C1B38899  22.900  40.233   8.564
 2931POPC   C2B38900  22.944  40.282   8.264
 2931POPC   C3B38901  22.981  40.275   7.964
 2931POPC   C4B38902  22.938  40.240   7.664
 2932POPC   NC338903  36.084  31.470   9.464
 2932POPC   PO438904  36.149  31.430   9.164
 2932POPC   GL138905  36.142  31.435   8.864
 2932POPC   GL238906  36.199  31.484   8.864
 2932POPC   C1A38907  36.116  31.455   8.564
 2932POPC   D2A38908  36.127  31.460   8.264
 2932POPC   C3A38909  36.137  31.477   7.964
 2932POPC   C4A38910  36.137  31.522   7.664
 2932POPC   C1B38911  36.353  31.446   8.564
 2932POPC   C2B38912  36.331  31.444   8.264
 2932POPC   C3B38913  36.370  31.370   7.964
 2932POPC   C4B38914  36.379  31.418   7.664
 2933POPC   NC338915  15.919  18.252   9.464
 2933POPC   PO438916  15.921  18.311   9.164
 2933POPC   GL138917  15.936  18.300   8.864
 2933POPC   GL238918  15.843  18.232   8.864
 2933POPC   C1A38919  15.957  18.320   8.564
 2933POPC   D2A38920  15.999  18.275   8.264
 2933POPC   C3A38921  15.932  18.290   7.964
 2933POPC   C4A38922  15.979  18.300   7.664
 2933POPC   C1B38923  15.701  18.222   8.564
 2933POPC   C2B38924  15.736  18.299   8.264
 2933POPC   C3B38925  15.731  18.301   7.964
 2933POPC   C4B38926  15.706  18.218   7.664
 2934POPC   NC338927  37.631  44.684   9.464
 2934POPC   PO438928  37.690  44.614   9.164
 2934POPC   GL138929  37.637  44.643   8.864
 2934POPC   GL238930  37.597  44.546   8.864
 2934POPC   C1A38931  37.713  44.628   8.564
 2934POPC   D2A38932  37.678  44.667   8.264
 2934POPC   C3A38933  37.716  44.657   7.964
 2934POPC   C4A38934  37.631  44.689   7.664
 2934POPC   C1B38935  37.479  44.522   8.564
 2934POPC   C2B38936  37.464  44.466   8.264
 2934POPC   C3B38937  37.502  44.468   7.964
 2934POPC   C4B38938  37.490  44.500   7.664
 2935POPC   NC338939   8.964  12.841   9.464
 2935POPC   PO438940   8.998  12.813   9.164
 2935POPC   GL138941   8.993  12.815   8.864
 2935POPC   GL238942   9.130  12.870   8.864
 2935POPC   C1A38943   8.934  12.831   8.564
 2935POPC   D2A38944   9.012  12.849   8.264
 2935POPC   C3A38945   8.938  12.809   7.964
 2935POPC   C4A38946   8.969  12.888   7.664
 2935POPC   C1B38947   9.176  12.980   8.564
 2935POPC   C2B38948   9.204  12.940   8.264
 2935POPC   C3B38949   9.212  13.009   7.964
 2935POPC   C4B38950   9.160  13.006   7.664
 2936POPC   NC338951  30.739   7.406   9.464
 2936POPC   PO438952  30.743   7.468   9.164
 2936POPC   GL138953  30.706   7.467   8.864
 2936POPC   GL238954  30.838   7.460   8.864
 2936POPC   C1A38955  30.743   7.390   8.564
 2936POPC   D2A38956  30.667   7.467   8.264
 2936POPC   C3A38957  30.662   7.390   7.964
 2936POPC   C4A38958  30.650   7.399   7.664
 2936POPC   C1B38959  30.906   7.477   8.564
 2936POPC   C2B38960  30.965   7.413   8.264
 2936POPC   C3B38961  30.981   7.427   7.964
 2936POPC   C4B38962  30.915   7.384   7.664
 2937POPC   NC338963  37.662   3.492   9.464
 2937POPC   PO438964  37.706   3.586   9.164
 2937POPC   GL138965  37.630   3.563   8.864
 2937POPC   GL238966  37.603   3.581   8.864
 2937POPC   C1A38967  37.658   3.574   8.564
 2937POPC   D2A38968  37.666   3.590   8.264
 2937POPC   C3A38969  37.635   3.580   7.964
 2937POPC   C4A38970  37.674   3.582   7.664
 2937POPC   C1B38971  37.472   3.648   8.564
 2937POPC   C2B38972  37.486   3.691   8.264
 2937POPC   C3B38973  37.469   3.682   7.964
 2937POPC   C4B38974  37.517   3.683   7.664
 2938POPC   NC338975  15.958   8.205   9.464
 2938POPC   PO438976  15.982   8.239   9.164
 2938POPC   GL138977  15.978   8.186   8.864
 2938POPC   GL238978  15.784   8.204   8.864
 2938POPC   C1A38979  15.956   8.155   8.564
 2938POPC   D2A38980  15.976   8.162   8.264
 2938POPC   C3A38981  15.927   8.207   7.964
 2938POPC   C4A38982  15.942   8.221   7.664
 2938POPC   C1B38983  15.736   8.168   8.564
 2938POPC   C2B38984  15.699   8.210   8.264
 2938POPC   C3B38985  15.721   8.168   7.964
 2938POPC   C4B38986  15.674   8.255   7.664
 2939POPC   NC338987  17.489  26.785   9.464
 2939POPC   PO438988  17.495  26.776   9.164
 2939POPC   GL138989  17.459  26.847   8.864
 2939POPC   GL238990  17.442  26.933   8.864
 2939POPC   C1A38991  17.540  26.772   8.564
 2939POPC   D2A38992  17.528  26.862   8.264
 2939POPC   C3A38993  17.535  26.853   7.964
 2939POPC   C4A38994  17.504  26.799   7.664
 2939POPC   C1B38995  17.398  27.047   8.564
 2939POPC   C2B38996  17.487  27.010   8.264
 2939POPC   C3B38997  17.401  27.089   7.964
 2939POPC   C4B38998  17.473  27.024   7.664
 2940POPC   NC338999  40.018  16.689   9.464
 2940POPC   PO439000  39.992  16.762   9.164
 2940POPC   GL139001  40.045  16.734   8.864
 2940POPC   GL239002  39.885  16.817   8.864
 2940POPC   C1A39003  40.017  16.762   8.564
 2940POPC   D2A39004  39.999  16.774   8.264
 2940POPC   C3A39005  39.981  16.770   7.964
 2940POPC   C4A39006  40.011  16.765   7.664
 2940POPC   C1B39007  39.819  16.789   8.564
 2940POPC   C2B39008  39.737  16.799   8.264
 2940POPC   C3B39009  39.822  16.844   7.964
 2940POPC   C4B39010  39.793  16.867   7.664
 2941POPC   NC339011  26.017  24.465   9.464
 2941POPC   PO439012  26.055  24.491   9.164
 2941POPC   GL139013  26.029  24.469   8.864
 2941POPC   GL239014  26.130  24.405   8.864
 2941POPC   C1A39015  26.012  24.488   8.564
 2941POPC   D2A39016  26.050  24.491   8.264
 2941POPC   C3A39017  26.039  24.470   7.964
 2941POPC   C4A39018  26.040  24.447   7.664
 2941POPC   C1B39019  26.280  24.384   8.564
 2941POPC   C2B39020  26.237  24.399   8.264
 2941POPC   C3B39021  26.306  24.448   7.964
 2941POPC   C4B39022  26.277  24.454   7.664
 2942POPC   NC339023   9.705  33.032   9.464
 2942POPC   PO439024   9.777  33.048   9.164
 2942POPC   GL139025   9.719  32.980   8.864
 2942POPC   GL239026   9.846  33.079   8.864
 2942POPC   C1A39027   9.717  32.998   8.564
 2942POPC   D2A39028   9.742  33.020   8.264
 2942POPC   C3A39029   9.743  32.994   7.964
 2942POPC   C4A39030   9.793  32.989   7.664
 2942POPC   C1B39031  10.022  33.003   8.564
 2942POPC   C2B39032  10.039  33.062   8.264
 2942POPC   C3B39033   9.983  33.011   7.964
 2942POPC   C4B39034  10.024  33.081   7.664
 2943POPC   NC339035   9.721   3.544   9.464
 2943POPC   PO439036   9.737   3.501   9.164
 2943POPC   GL139037   9.767   3.543   8.864
 2943POPC   GL239038   9.817   3.641   8.864
 2943POPC   C1A39039   9.714   3.559   8.564
 2943POPC   D2A39040   9.744   3.539   8.264
 2943POPC   C3A39041   9.751   3.492   7.964
 2943POPC   C4A39042   9.766   3.590   7.664
 2943POPC   C1B39043   9.860   3.735   8.564
 2943POPC   C2B39044   9.874   3.708   8.264
 2943POPC   C3B39045   9.877   3.731   7.964
 2943POPC   C4B39046   9.924   3.740   7.664
 2944POPC   NC339047  34.539  35.394   9.464
 2944POPC   PO439048  34.597  35.321   9.164
 2944POPC   GL139049  34.604  35.382   8.864
 2944POPC   GL239050  34.708  35.312   8.864
 2944POPC   C1A39051  34.557  35.371   8.564
 2944POPC   D2A39052  34.543  35.360   8.264
 2944POPC   C3A39053  34.580  35.330   7.964
 2944POPC   C4A39054  34.576  35.391   7.664
 2944POPC   C1B39055  34.875  35.366   8.564
 2944POPC   C2B39056  34.808  35.362   8.264
 2944POPC   C3B39057  34.837  35.372   7.964
 2944POPC   C4B39058  34.779  35.372   7.664
 2945POPC   NC339059   3.558  17.489   9.464
 2945POPC   PO439060   3.579  17.482   9.164
 2945POPC   GL139061   3.577  17.471   8.864
 2945POPC   GL239062   3.637  17.439   8.864
 2945POPC   C1A39063   3.573  17.509   8.564
 2945POPC   D2A39064   3.562  17.523   8.264
 2945POPC   C3A39065   3.515  17.497   7.964
 2945POPC   C4A39066   3.540  17.486   7.664
 2945POPC   C1B39067   3.669  17.343   8.564
 2945POPC   C2B39068   3.712  17.280   8.264
 2945POPC   C3B39069   3.657  17.348   7.964
 2945POPC   C4B39070   3.690  17.325   7.664
 2946POPC   NC339071   9.000   1.971   9.464
 2946POPC   PO439072   9.012   1.981   9.164
 2946POPC   GL139073   8.961   2.005   8.864
 2946POPC   GL239074   9.074   1.928   8.864
 2946POPC   C1A39075   8.956   1.985   8.564
 2946POPC   D2A39076   9.002   1.962   8.264
 2946POPC   C3A39077   8.947   2.016   7.964
 2946POPC   C4A39078   8.963   2.036   7.664
 2946POPC   C1B39079   9.179   1.893   8.564
 2946POPC   C2B39080   9.172   1.913   8.264
 2946POPC   C3B39081   9.225   1.877   7.964
 2946POPC   C4B39082   9.183   1.947   7.664
 2947POPC   NC339083   5.855  15.969   9.464
 2947POPC   PO439084   5.849  16.002   9.164
 2947POPC   GL139085   5.846  15.970   8.864
 2947POPC   GL239086   5.960  15.949   8.864
 2947POPC   C1A39087   5.891  15.996   8.564
 2947POPC   D2A39088   5.891  15.964   8.264
 2947POPC   C3A39089   5.837  15.931   7.964
 2947POPC   C4A39090   5.912  15.927   7.664
 2947POPC   C1B39091   6.117  15.994   8.564
 2947POPC   C2B39092   6.079  16.045   8.264
 2947POPC   C3B39093   6.079  15.991   7.964
 2947POPC   C4B39094   6.114  16.043   7.664
 2948POPC   NC339095   7.425  20.569   9.464
 2948POPC   PO439096   7.429  20.633   9.164
 2948POPC   GL139097   7.394  20.659   8.864
 2948POPC   GL239098   7.523  20.517   8.864
 2948POPC   C1A39099   7.450  20.650   8.564
 2948POPC   D2A39100   7.431  20.655   8.264
 2948POPC   C3A39101   7.394  20.656   7.964
 2948POPC   C4A39102   7.420  20.627   7.664
 2948POPC   C1B39103   7.622  20.468   8.564
 2948POPC   C2B39104   7.612  20.547   8.264
 2948POPC   C3B39105   7.689  20.511   7.964
 2948POPC   C4B39106   7.699  20.529   7.664
 2949POPC   NC339107   5.048  12.822   9.464
 2949POPC   PO439108   5.089  12.813   9.164
 2949POPC   GL139109   5.046  12.855   8.864
 2949POPC   GL239110   5.224  12.811   8.864
 2949POPC   C1A39111   5.074  12.858   8.564
 2949POPC   D2A39112   5.097  12.819   8.264
 2949POPC   C3A39113   5.071  12.887   7.964
 2949POPC   C4A39114   5.083  12.829   7.664
 2949POPC   C1B39115   5.347  12.765   8.564
 2949POPC   C2B39116   5.380  12.785   8.264
 2949POPC   C3B39117   5.352  12.801   7.964
 2949POPC   C4B39118   5.305  12.800   7.664
 2950POPC   NC339119  20.566  15.932   9.464
 2950POPC   PO439120  20.605  15.963   9.164
 2950POPC   GL139121  20.627  15.973   8.864
 2950POPC   GL239122  20.532  15.860   8.864
 2950POPC   C1A39123  20.607  15.970   8.564
 2950POPC   D2A39124  20.561  15.996   8.264
 2950POPC   C3A39125  20.660  15.983   7.964
 2950POPC   C4A39126  20.572  15.990   7.664
 2950POPC   C1B39127  20.491  15.765   8.564
 2950POPC   C2B39128  20.533  15.764   8.264
 2950POPC   C3B39129  20.497  15.710   7.964
 2950POPC   C4B39130  20.530  15.695   7.664
 2951POPC   NC339131   3.531   8.984   9.464
 2951POPC   PO439132   3.515   8.962   9.164
 2951POPC   GL139133   3.496   8.962   8.864
 2951POPC   GL239134   3.378   8.918   8.864
 2951POPC   C1A39135   3.505   8.927   8.564
 2951POPC   D2A39136   3.525   8.965   8.264
 2951POPC   C3A39137   3.587   9.014   7.964
 2951POPC   C4A39138   3.514   8.928   7.664
 2951POPC   C1B39139   3.318   8.906   8.564
 2951POPC   C2B39140   3.339   8.893   8.264
 2951POPC   C3B39141   3.305   8.892   7.964
 2951POPC   C4B39142   3.355   8.837   7.664
 2952POPC   NC339143  15.957  40.736   9.464
 2952POPC   PO439144  15.928  40.765   9.164
 2952POPC   GL139145  15.917  40.806   8.864
 2952POPC   GL239146  15.840  40.786   8.864
 2952POPC   C1A39147  15.986  40.777   8.564
 2952POPC   D2A39148  15.976  40.786   8.264
 2952POPC   C3A39149  15.954  40.774   7.964
 2952POPC   C4A39150  16.003  40.764   7.664
 2952POPC   C1B39151  15.708  40.666   8.564
 2952POPC   C2B39152  15.729  40.733   8.264
 2952POPC   C3B39153  15.704  40.719   7.964
 2952POPC   C4B39154  15.727  40.748   7.664
 2953POPC   NC339155  21.338  37.710   9.464
 2953POPC   PO439156  21.336  37.651   9.164
 2953POPC   GL139157  21.389  37.643   8.864
 2953POPC   GL239158  21.473  37.722   8.864
 2953POPC   C1A39159  21.427  37.686   8.564
 2953POPC   D2A39160  21.386  37.692   8.264
 2953POPC   C3A39161  21.366  37.716   7.964
 2953POPC   C4A39162  21.418  37.701   7.664
 2953POPC   C1B39163  21.610  37.772   8.564
 2953POPC   C2B39164  21.568  37.766   8.264
 2953POPC   C3B39165  21.594  37.827   7.964
 2953POPC   C4B39166  21.580  37.809   7.664
 2954POPC   NC339167  15.149  39.206   9.464
 2954POPC   PO439168  15.183  39.250   9.164
 2954POPC   GL139169  15.180  39.227   8.864
 2954POPC   GL239170  15.064  39.227   8.864
 2954POPC   C1A39171  15.170  39.247   8.564
 2954POPC   D2A39172  15.186  39.260   8.264
 2954POPC   C3A39173  15.172  39.220   7.964
 2954POPC   C4A39174  15.199  39.185   7.664
 2954POPC   C1B39175  14.938  39.243   8.564
 2954POPC   C2B39176  14.964  39.268   8.264
 2954POPC   C3B39177  14.955  39.323   7.964
 2954POPC   C4B39178  14.915  39.249   7.664
 2955POPC   NC339179  17.493   5.878   9.464
 2955POPC   PO439180  17.471   5.833   9.164
 2955POPC   GL139181  17.497   5.856   8.864
 2955POPC   GL239182  17.443   5.952   8.864
 2955POPC   C1A39183  17.537   5.842   8.564
 2955POPC   D2A39184  17.532   5.886   8.264
 2955POPC   C3A39185  17.471   5.824   7.964
 2955POPC   C4A39186  17.522   5.875   7.664
 2955POPC   C1B39187  17.409   6.110   8.564
 2955POPC   C2B39188  17.398   6.088   8.264
 2955POPC   C3B39189  17.385   6.086   7.964
 2955POPC   C4B39190  17.372   6.066   7.664
 2956POPC   NC339191  20.658  15.213   9.464
 2956POPC   PO439192  20.638  15.200   9.164
 2956POPC   GL139193  20.636  15.154   8.864
 2956POPC   GL239194  20.710  15.172   8.864
 2956POPC   C1A39195  20.574  15.134   8.564
 2956POPC   D2A39196  20.574  15.229   8.264
 2956POPC   C3A39197  20.651  15.217   7.964
 2956POPC   C4A39198  20.600  15.137   7.664
 2956POPC   C1B39199  20.857  15.106   8.564
 2956POPC   C2B39200  20.821  15.061   8.264
 2956POPC   C3B39201  20.829  15.111   7.964
 2956POPC   C4B39202  20.829  15.058   7.664
 2957POPC   NC339203   4.323  17.493   9.464
 2957POPC   PO439204   4.310  17.460   9.164
 2957POPC   GL139205   4.354  17.502   8.864
 2957POPC   GL239206   4.321  17.424   8.864
 2957POPC   C1A39207   4.293  17.525   8.564
 2957POPC   D2A39208   4.356  17.505   8.264
 2957POPC   C3A39209   4.355  17.495   7.964
 2957POPC   C4A39210   4.363  17.529   7.664
 2957POPC   C1B39211   4.302  17.250   8.564
 2957POPC   C2B39212   4.326  17.301   8.264
 2957POPC   C3B39213   4.229  17.229   7.964
 2957POPC   C4B39214   4.327  17.235   7.664
 2958POPC   NC339215   7.399  42.296   9.464
 2958POPC   PO439216   7.408  42.309   9.164
 2958POPC   GL139217   7.441  42.310   8.864
 2958POPC   GL239218   7.344  42.486   8.864
 2958POPC   C1A39219   7.461  42.349   8.564
 2958POPC   D2A39220   7.410  42.298   8.264
 2958POPC   C3A39221   7.411  42.287   7.964
 2958POPC   C4A39222   7.448  42.299   7.664
 2958POPC   C1B39223   7.333  42.534   8.564
 2958POPC   C2B39224   7.332  42.527   8.264
 2958POPC   C3B39225   7.244  42.572   7.964
 2958POPC   C4B39226   7.257  42.584   7.664
 2959POPC   NC339227  40.026  13.645   9.464
 2959POPC   PO439228  39.969  13.637   9.164
 2959POPC   GL139229  39.963  13.583   8.864
 2959POPC   GL239230  40.120  13.616   8.864
 2959POPC   C1A39231  39.976  13.635   8.564
 2959POPC   D2A39232  40.053  13.631   8.264
 2959POPC   C3A39233  39.961  13.585   7.964
 2959POPC   C4A39234  40.009  13.660   7.664
 2959POPC   C1B39235  40.294  13.669   8.564
 2959POPC   C2B39236  40.223  13.643   8.264
 2959POPC   C3B39237  40.263  13.650   7.964
 2959POPC   C4B39238  40.214  13.592   7.664
 2960POPC   NC339239  38.433  27.555   9.464
 2960POPC   PO439240  38.494  27.547   9.164
 2960POPC   GL139241  38.460  27.641   8.864
 2960POPC   GL239242  38.405  27.485   8.864
 2960POPC   C1A39243  38.440  27.586   8.564
 2960POPC   D2A39244  38.434  27.586   8.264
 2960POPC   C3A39245  38.411  27.617   7.964
 2960POPC   C4A39246  38.501  27.577   7.664
 2960POPC   C1B39247  38.421  27.310   8.564
 2960POPC   C2B39248  38.477  27.379   8.264
 2960POPC   C3B39249  38.410  27.371   7.964
 2960POPC   C4B39250  38.426  27.311   7.664
 2961POPC   NC339251  14.419  37.695   9.464
 2961POPC   PO439252  14.388  37.662   9.164
 2961POPC   GL139253  14.378  37.723   8.864
 2961POPC   GL239254  14.308  37.615   8.864
 2961POPC   C1A39255  14.452  37.630   8.564
 2961POPC   D2A39256  14.355  37.682   8.264
 2961POPC   C3A39257  14.384  37.688   7.964
 2961POPC   C4A39258  14.408  37.665   7.664
 2961POPC   C1B39259  14.246  37.520   8.564
 2961POPC   C2B39260  14.249  37.471   8.264
 2961POPC   C3B39261  14.193  37.481   7.964
 2961POPC   C4B39262  14.200  37.500   7.664
 2962POPC   NC339263  18.328  15.145   9.464
 2962POPC   PO439264  18.288  15.209   9.164
 2962POPC   GL139265  18.282  15.147   8.864
 2962POPC   GL239266  18.343  15.104   8.864
 2962POPC   C1A39267  18.315  15.143   8.564
 2962POPC   D2A39268  18.250  15.192   8.264
 2962POPC   C3A39269  18.259  15.191   7.964
 2962POPC   C4A39270  18.276  15.135   7.664
 2962POPC   C1B39271  18.534  15.060   8.564
 2962POPC   C2B39272  18.461  15.084   8.264
 2962POPC   C3B39273  18.456  15.008   7.964
 2962POPC   C4B39274  18.475  14.990   7.664
 2963POPC   NC339275  12.875  41.547   9.464
 2963POPC   PO439276  12.836  41.585   9.164
 2963POPC   GL139277  12.831  41.575   8.864
 2963POPC   GL239278  12.962  41.479   8.864
 2963POPC   C1A39279  12.853  41.562   8.564
 2963POPC   D2A39280  12.863  41.531   8.264
 2963POPC   C3A39281  12.865  41.585   7.964
 2963POPC   C4A39282  12.810  41.560   7.664
 2963POPC   C1B39283  13.082  41.389   8.564
 2963POPC   C2B39284  13.003  41.372   8.264
 2963POPC   C3B39285  13.041  41.368   7.964
 2963POPC   C4B39286  13.006  41.380   7.664
 2964POPC   NC339287   5.044  32.974   9.464
 2964POPC   PO439288   5.096  33.026   9.164
 2964POPC   GL139289   5.056  33.015   8.864
 2964POPC   GL239290   4.972  32.985   8.864
 2964POPC   C1A39291   5.064  32.993   8.564
 2964POPC   D2A39292   5.081  33.013   8.264
 2964POPC   C3A39293   5.093  32.999   7.964
 2964POPC   C4A39294   5.134  33.024   7.664
 2964POPC   C1B39295   4.897  32.919   8.564
 2964POPC   C2B39296   4.908  32.895   8.264
 2964POPC   C3B39297   4.879  32.926   7.964
 2964POPC   C4B39298   4.873  32.866   7.664
 2965POPC   NC339299  19.041  15.934   9.464
 2965POPC   PO439300  19.033  15.950   9.164
 2965POPC   GL139301  19.029  15.999   8.864
 2965POPC   GL239302  19.079  16.073   8.864
 2965POPC   C1A39303  19.097  15.964   8.564
 2965POPC   D2A39304  19.028  15.987   8.264
 2965POPC   C3A39305  19.106  15.933   7.964
 2965POPC   C4A39306  19.012  15.999   7.664
 2965POPC   C1B39307  18.979  16.247   8.564
 2965POPC   C2B39308  18.990  16.174   8.264
 2965POPC   C3B39309  19.037  16.188   7.964
 2965POPC   C4B39310  19.011  16.164   7.664
 2966POPC   NC339311   4.269   9.797   9.464
 2966POPC   PO439312   4.286   9.797   9.164
 2966POPC   GL139313   4.293   9.782   8.864
 2966POPC   GL239314   4.227   9.885   8.864
 2966POPC   C1A39315   4.309   9.746   8.564
 2966POPC   D2A39316   4.307   9.765   8.264
 2966POPC   C3A39317   4.278   9.736   7.964
 2966POPC   C4A39318   4.312   9.777   7.664
 2966POPC   C1B39319   4.193   9.992   8.564
 2966POPC   C2B39320   4.242   9.976   8.264
 2966POPC   C3B39321   4.211   9.977   7.964
 2966POPC   C4B39322   4.197   9.988   7.664
 2967POPC   NC339323  44.636  18.239   9.464
 2967POPC   PO439324  44.662  18.318   9.164
 2967POPC   GL139325  44.675  18.300   8.864
 2967POPC   GL239326  44.787  18.195   8.864
 2967POPC   C1A39327  44.710  18.289   8.564
 2967POPC   D2A39328  44.614  18.278   8.264
 2967POPC   C3A39329  44.640  18.302   7.964
 2967POPC   C4A39330  44.628  18.254   7.664
 2967POPC   C1B39331  44.901  18.151   8.564
 2967POPC   C2B39332  44.873  18.170   8.264
 2967POPC   C3B39333  44.905  18.083   7.964
 2967POPC   C4B39334  44.891  18.121   7.664
 2968POPC   NC339335   2.739  34.589   9.464
 2968POPC   PO439336   2.772  34.617   9.164
 2968POPC   GL139337   2.722  34.526   8.864
 2968POPC   GL239338   2.732  34.672   8.864
 2968POPC   C1A39339   2.774  34.620   8.564
 2968POPC   D2A39340   2.733  34.607   8.264
 2968POPC   C3A39341   2.805  34.597   7.964
 2968POPC   C4A39342   2.764  34.583   7.664
 2968POPC   C1B39343   2.659  34.807   8.564
 2968POPC   C2B39344   2.716  34.829   8.264
 2968POPC   C3B39345   2.657  34.776   7.964
 2968POPC   C4B39346   2.699  34.843   7.664
 2969POPC   NC339347  34.546  29.112   9.464
 2969POPC   PO439348  34.584  29.195   9.164
 2969POPC   GL139349  34.574  29.180   8.864
 2969POPC   GL239350  34.424  29.147   8.864
 2969POPC   C1A39351  34.553  29.114   8.564
 2969POPC   D2A39352  34.573  29.151   8.264
 2969POPC   C3A39353  34.531  29.114   7.964
 2969POPC   C4A39354  34.591  29.133   7.664
 2969POPC   C1B39355  34.305  29.195   8.564
 2969POPC   C2B39356  34.388  29.211   8.264
 2969POPC   C3B39357  34.372  29.191   7.964
 2969POPC   C4B39358  34.310  29.237   7.664
 2970POPC   NC339359  27.600  14.453   9.464
 2970POPC   PO439360  27.563  14.444   9.164
 2970POPC   GL139361  27.605  14.442   8.864
 2970POPC   GL239362  27.492  14.365   8.864
 2970POPC   C1A39363  27.580  14.394   8.564
 2970POPC   D2A39364  27.640  14.438   8.264
 2970POPC   C3A39365  27.635  14.443   7.964
 2970POPC   C4A39366  27.598  14.440   7.664
 2970POPC   C1B39367  27.367  14.373   8.564
 2970POPC   C2B39368  27.319  14.371   8.264
 2970POPC   C3B39369  27.360  14.423   7.964
 2970POPC   C4B39370  27.344  14.373   7.664
 2971POPC   NC339371  16.767  22.183   9.464
 2971POPC   PO439372  16.749  22.145   9.164
 2971POPC   GL139373  16.726  22.208   8.864
 2971POPC   GL239374  16.695  22.301   8.864
 2971POPC   C1A39375  16.776  22.138   8.564
 2971POPC   D2A39376  16.764  22.156   8.264
 2971POPC   C3A39377  16.744  22.186   7.964
 2971POPC   C4A39378  16.747  22.127   7.664
 2971POPC   C1B39379  16.590  22.414   8.564
 2971POPC   C2B39380  16.586  22.394   8.264
 2971POPC   C3B39381  16.615  22.374   7.964
 2971POPC   C4B39382  16.655  22.405   7.664
 2972POPC   NC339383   5.076  42.370   9.464
 2972POPC   PO439384   5.123  42.362   9.164
 2972POPC   GL139385   5.083  42.361   8.864
 2972POPC   GL239386   5.156  42.398   8.864
 2972POPC   C1A39387   5.112  42.343   8.564
 2972POPC   D2A39388   5.066  42.289   8.264
 2972POPC   C3A39389   5.074  42.357   7.964
 2972POPC   C4A39390   5.089  42.340   7.664
 2972POPC   C1B39391   5.349  42.489   8.564
 2972POPC   C2B39392   5.275  42.418   8.264
 2972POPC   C3B39393   5.344  42.417   7.964
 2972POPC   C4B39394   5.342  42.468   7.664
 2973POPC   NC339395  23.698  28.418   9.464
 2973POPC   PO439396  23.713  28.365   9.164
 2973POPC   GL139397  23.709  28.370   8.864
 2973POPC   GL239398  23.828  28.357   8.864
 2973POPC   C1A39399  23.733  28.410   8.564
 2973POPC   D2A39400  23.690  28.392   8.264
 2973POPC   C3A39401  23.676  28.320   7.964
 2973POPC   C4A39402  23.705  28.331   7.664
 2973POPC   C1B39403  23.956  28.317   8.564
 2973POPC   C2B39404  23.922  28.343   8.264
 2973POPC   C3B39405  23.953  28.337   7.964
 2973POPC   C4B39406  23.921  28.310   7.664
 2974POPC   NC339407  33.797  31.444   9.464
 2974POPC   PO439408  33.817  31.514   9.164
 2974POPC   GL139409  33.788  31.446   8.864
 2974POPC   GL239410  33.824  31.618   8.864
 2974POPC   C1A39411  33.766  31.511   8.564
 2974POPC   D2A39412  33.829  31.423   8.264
 2974POPC   C3A39413  33.841  31.522   7.964
 2974POPC   C4A39414  33.823  31.496   7.664
 2974POPC   C1B39415  33.770  31.678   8.564
 2974POPC   C2B39416  33.804  31.686   8.264
 2974POPC   C3B39417  33.864  31.740   7.964
 2974POPC   C4B39418  33.797  31.730   7.664
 2975POPC   NC339419  17.523  19.079   9.464
 2975POPC   PO439420  17.521  19.056   9.164
 2975POPC   GL139421  17.547  19.052   8.864
 2975POPC   GL239422  17.628  19.031   8.864
 2975POPC   C1A39423  17.513  19.054   8.564
 2975POPC   D2A39424  17.529  19.085   8.264
 2975POPC   C3A39425  17.529  19.048   7.964
 2975POPC   C4A39426  17.508  19.108   7.664
 2975POPC   C1B39427  17.728  18.993   8.564
 2975POPC   C2B39428  17.739  18.983   8.264
 2975POPC   C3B39429  17.770  18.939   7.964
 2975POPC   C4B39430  17.758  18.933   7.664
 2976POPC   NC339431  26.805  26.843   9.464
 2976POPC   PO439432  26.846  26.813   9.164
 2976POPC   GL139433  26.845  26.770   8.864
 2976POPC   GL239434  26.971  26.781   8.864
 2976POPC   C1A39435  26.829  26.834   8.564
 2976POPC   D2A39436  26.823  26.811   8.264
 2976POPC   C3A39437  26.863  26.779   7.964
 2976POPC   C4A39438  26.783  26.830   7.664
 2976POPC   C1B39439  27.070  26.776   8.564
 2976POPC   C2B39440  27.079  26.787   8.264
 2976POPC   C3B39441  27.074  26.828   7.964
 2976POPC   C4B39442  27.020  26.835   7.664
 2977POPC   NC339443  30.728  26.078   9.464
 2977POPC   PO439444  30.665  26.042   9.164
 2977POPC   GL139445  30.746  26.025   8.864
 2977POPC   GL239446  30.667  25.870   8.864
 2977POPC   C1A39447  30.723  26.071   8.564
 2977POPC   D2A39448  30.700  26.036   8.264
 2977POPC   C3A39449  30.686  26.087   7.964
 2977POPC   C4A39450  30.651  26.073   7.664
 2977POPC   C1B39451  30.671  25.745   8.564
 2977POPC   C2B39452  30.655  25.831   8.264
 2977POPC   C3B39453  30.688  25.804   7.964
 2977POPC   C4B39454  30.649  25.831   7.664
 2978POPC   NC339455  14.435   5.857   9.464
 2978POPC   PO439456  14.389   5.833   9.164
 2978POPC   GL139457  14.377   5.822   8.864
 2978POPC   GL239458  14.324   5.855   8.864
 2978POPC   C1A39459  14.438   5.919   8.564
 2978POPC   D2A39460  14.427   5.831   8.264
 2978POPC   C3A39461  14.395   5.842   7.964
 2978POPC   C4A39462  14.363   5.891   7.664
 2978POPC   C1B39463  14.161   5.795   8.564
 2978POPC   C2B39464  14.194   5.823   8.264
 2978POPC   C3B39465  14.173   5.788   7.964
 2978POPC   C4B39466  14.205   5.771   7.664
 2979POPC   NC339467  15.182   5.906   9.464
 2979POPC   PO439468  15.224   5.884   9.164
 2979POPC   GL139469  15.131   5.912   8.864
 2979POPC   GL239470  15.299   6.001   8.864
 2979POPC   C1A39471  15.184   5.857   8.564
 2979POPC   D2A39472  15.159   5.868   8.264
 2979POPC   C3A39473  15.161   5.831   7.964
 2979POPC   C4A39474  15.134   5.898   7.664
 2979POPC   C1B39475  15.336   6.116   8.564
 2979POPC   C2B39476  15.345   6.046   8.264
 2979POPC   C3B39477  15.341   6.065   7.964
 2979POPC   C4B39478  15.346   6.032   7.664
 2980POPC   NC339479   3.516  37.695   9.464
 2980POPC   PO439480   3.517  37.630   9.164
 2980POPC   GL139481   3.551  37.724   8.864
 2980POPC   GL239482   3.618  37.720   8.864
 2980POPC   C1A39483   3.496  37.645   8.564
 2980POPC   D2A39484   3.530  37.711   8.264
 2980POPC   C3A39485   3.536  37.645   7.964
 2980POPC   C4A39486   3.510  37.723   7.664
 2980POPC   C1B39487   3.757  37.791   8.564
 2980POPC   C2B39488   3.785  37.773   8.264
 2980POPC   C3B39489   3.781  37.778   7.964
 2980POPC   C4B39490   3.741  37.820   7.664
 2981POPC   NC339491   5.820  26.068   9.464
 2981POPC   PO439492   5.884  26.045   9.164
 2981POPC   GL139493   5.851  25.995   8.864
 2981POPC   GL239494   5.832  26.175   8.864
 2981POPC   C1A39495   5.847  26.053   8.564
 2981POPC   D2A39496   5.827  26.059   8.264
 2981POPC   C3A39497   5.879  25.996   7.964
 2981POPC   C4A39498   5.909  26.075   7.664
 2981POPC   C1B39499   5.674  26.274   8.564
 2981POPC   C2B39500   5.677  26.221   8.264
 2981POPC   C3B39501   5.709  26.278   7.964
 2981POPC   C4B39502   5.683  26.247   7.664
 2982POPC   NC339503  32.231  14.400   9.464
 2982POPC   PO439504  32.219  14.453   9.164
 2982POPC   GL139505  32.203  14.446   8.864
 2982POPC   GL239506  32.170  14.531   8.864
 2982POPC   C1A39507  32.241  14.358   8.564
 2982POPC   D2A39508  32.256  14.363   8.264
 2982POPC   C3A39509  32.297  14.394   7.964
 2982POPC   C4A39510  32.202  14.426   7.664
 2982POPC   C1B39511  32.199  14.653   8.564
 2982POPC   C2B39512  32.191  14.635   8.264
 2982POPC   C3B39513  32.170  14.591   7.964
 2982POPC   C4B39514  32.161  14.608   7.664
 2983POPC   NC339515  42.334  17.483   9.464
 2983POPC   PO439516  42.349  17.536   9.164
 2983POPC   GL139517  42.326  17.535   8.864
 2983POPC   GL239518  42.274  17.603   8.864
 2983POPC   C1A39519  42.295  17.488   8.564
 2983POPC   D2A39520  42.324  17.522   8.264
 2983POPC   C3A39521  42.297  17.518   7.964
 2983POPC   C4A39522  42.335  17.543   7.664
 2983POPC   C1B39523  42.306  17.718   8.564
 2983POPC   C2B39524  42.236  17.753   8.264
 2983POPC   C3B39525  42.310  17.740   7.964
 2983POPC   C4B39526  42.308  17.765   7.664
 2984POPC   NC339527  12.893   1.194   9.464
 2984POPC   PO439528  12.845   1.192   9.164
 2984POPC   GL139529  12.811   1.217   8.864
 2984POPC   GL239530  12.983   1.197   8.864
 2984POPC   C1A39531  12.875   1.189   8.564
 2984POPC   D2A39532  12.807   1.236   8.264
 2984POPC   C3A39533  12.866   1.256   7.964
 2984POPC   C4A39534  12.856   1.255   7.664
 2984POPC   C1B39535  13.110   1.223   8.564
 2984POPC   C2B39536  13.060   1.274   8.264
 2984POPC   C3B39537  13.143   1.202   7.964
 2984POPC   C4B39538  13.093   1.242   7.664
 2985POPC   NC339539  39.967  29.912   9.464
 2985POPC   PO439540  39.968  29.927   9.164
 2985POPC   GL139541  40.040  29.923   8.864
 2985POPC   GL239542  40.062  30.071   8.864
 2985POPC   C1A39543  40.041  29.965   8.564
 2985POPC   D2A39544  39.966  29.879   8.264
 2985POPC   C3A39545  39.994  29.937   7.964
 2985POPC   C4A39546  40.031  29.877   7.664
 2985POPC   C1B39547  40.065  30.177   8.564
 2985POPC   C2B39548  40.049  30.127   8.264
 2985POPC   C3B39549  40.105  30.107   7.964
 2985POPC   C4B39550  40.110  30.162   7.664
 2986POPC   NC339551   1.951  13.620   9.464
 2986POPC   PO439552   1.942  13.587   9.164
 2986POPC   GL139553   1.962  13.579   8.864
 2986POPC   GL239554   1.868  13.705   8.864
 2986POPC   C1A39555   1.973  13.676   8.564
 2986POPC   D2A39556   1.943  13.602   8.264
 2986POPC   C3A39557   2.030  13.605   7.964
 2986POPC   C4A39558   2.017  13.617   7.664
 2986POPC   C1B39559   1.771  13.660   8.564
 2986POPC   C2B39560   1.742  13.714   8.264
 2986POPC   C3B39561   1.765  13.640   7.964
 2986POPC   C4B39562   1.776  13.699   7.664
 2987POPC   NC339563  33.034  43.069   9.464
 2987POPC   PO439564  33.070  43.071   9.164
 2987POPC   GL139565  33.073  43.124   8.864
 2987POPC   GL239566  33.187  43.195   8.864
 2987POPC   C1A39567  33.006  43.129   8.564
 2987POPC   D2A39568  33.054  43.124   8.264
 2987POPC   C3A39569  33.071  43.141   7.964
 2987POPC   C4A39570  33.008  43.120   7.664
 2987POPC   C1B39571  33.253  43.211   8.564
 2987POPC   C2B39572  33.299  43.172   8.264
 2987POPC   C3B39573  33.294  43.196   7.964
 2987POPC   C4B39574  33.265  43.232   7.664
 2988POPC   NC339575  27.571  26.063   9.464
 2988POPC   PO439576  27.581  26.050   9.164
 2988POPC   GL139577  27.549  26.046   8.864
 2988POPC   GL239578  27.667  25.933   8.864
 2988POPC   C1A39579  27.606  26.052   8.564
 2988POPC   D2A39580  27.603  26.062   8.264
 2988POPC   C3A39581  27.624  26.086   7.964
 2988POPC   C4A39582  27.593  26.065   7.664
 2988POPC   C1B39583  27.794  25.905   8.564
 2988POPC   C2B39584  27.832  25.960   8.264
 2988POPC   C3B39585  27.835  25.898   7.964
 2988POPC   C4B39586  27.795  25.886   7.664
 2989POPC   NC339587  12.867  33.059   9.464
 2989POPC   PO439588  12.836  33.047   9.164
 2989POPC   GL139589  12.806  33.043   8.864
 2989POPC   GL239590  12.735  33.046   8.864
 2989POPC   C1A39591  12.805  33.020   8.564
 2989POPC   D2A39592  12.804  33.003   8.264
 2989POPC   C3A39593  12.859  33.039   7.964
 2989POPC   C4A39594  12.829  33.050   7.664
 2989POPC   C1B39595  12.609  33.014   8.564
 2989POPC   C2B39596  12.578  33.083   8.264
 2989POPC   C3B39597  12.573  33.009   7.964
 2989POPC   C4B39598  12.570  33.036   7.664
 2990POPC   NC339599  23.680  33.832   9.464
 2990POPC   PO439600  23.747  33.767   9.164
 2990POPC   GL139601  23.696  33.816   8.864
 2990POPC   GL239602  23.585  33.834   8.864
 2990POPC   C1A39603  23.711  33.796   8.564
 2990POPC   D2A39604  23.696  33.808   8.264
 2990POPC   C3A39605  23.678  33.812   7.964
 2990POPC   C4A39606  23.724  33.774   7.664
 2990POPC   C1B39607  23.514  33.946   8.564
 2990POPC   C2B39608  23.539  33.936   8.264
 2990POPC   C3B39609  23.496  33.940   7.964
 2990POPC   C4B39610  23.555  33.959   7.664
 2991POPC   NC339611  30.668  18.258   9.464
 2991POPC   PO439612  30.740  18.324   9.164
 2991POPC   GL139613  30.720  18.330   8.864
 2991POPC   GL239614  30.823  18.332   8.864
 2991POPC   C1A39615  30.700  18.295   8.564
 2991POPC   D2A39616  30.670  18.234   8.264
 2991POPC   C3A39617  30.725  18.322   7.964
 2991POPC   C4A39618  30.686  18.278   7.664
 2991POPC   C1B39619  30.912  18.319   8.564
 2991POPC   C2B39620  30.961  18.257   8.264
 2991POPC   C3B39621  30.925  18.307   7.964
 2991POPC   C4B39622  30.900  18.320   7.664
 2992POPC   NC339623   8.947  12.059   9.464
 2992POPC   PO439624   8.982  12.076   9.164
 2992POPC   GL139625   8.970  12.033   8.864
 2992POPC   GL239626   8.872  12.182   8.864
 2992POPC   C1A39627   8.953  12.050   8.564
 2992POPC   D2A39628   8.956  12.102   8.264
 2992POPC   C3A39629   8.970  12.091   7.964
 2992POPC   C4A39630   8.981  12.053   7.664
 2992POPC   C1B39631   8.827  12.228   8.564
 2992POPC   C2B39632   8.748  12.217   8.264
 2992POPC   C3B39633   8.747  12.281   7.964
 2992POPC   C4B39634   8.837  12.295   7.664
 2993POPC   NC339635   6.598  29.174   9.464
 2993POPC   PO439636   6.642  29.191   9.164
 2993POPC   GL139637   6.652  29.149   8.864
 2993POPC   GL239638   6.480  29.156   8.864
 2993POPC   C1A39639   6.616  29.132   8.564
 2993POPC   D2A39640   6.626  29.152   8.264
 2993POPC   C3A39641   6.664  29.165   7.964
 2993POPC   C4A39642   6.616  29.177   7.664
 2993POPC   C1B39643   6.425  29.127   8.564
 2993POPC   C2B39644   6.371  29.069   8.264
 2993POPC   C3B39645   6.448  29.144   7.964
 2993POPC   C4B39646   6.408  29.119   7.664
 2994POPC   NC339647   8.223  20.619   9.464
 2994POPC   PO439648   8.189  20.600   9.164
 2994POPC   GL139649   8.236  20.610   8.864
 2994POPC   GL239650   8.144  20.520   8.864
 2994POPC   C1A39651   8.156  20.658   8.564
 2994POPC   D2A39652   8.222  20.655   8.264
 2994POPC   C3A39653   8.193  20.626   7.964
 2994POPC   C4A39654   8.186  20.657   7.664
 2994POPC   C1B39655   8.094  20.363   8.564
 2994POPC   C2B39656   8.134  20.409   8.264
 2994POPC   C3B39657   8.161  20.399   7.964
 2994POPC   C4B39658   8.160  20.330   7.664
 2995POPC   NC339659  11.294   6.662   9.464
 2995POPC   PO439660  11.311   6.605   9.164
 2995POPC   GL139661  11.296   6.617   8.864
 2995POPC   GL239662  11.271   6.549   8.864
 2995POPC   C1A39663  11.339   6.622   8.564
 2995POPC   D2A39664  11.318   6.614   8.264
 2995POPC   C3A39665  11.257   6.625   7.964
 2995POPC   C4A39666  11.309   6.633   7.664
 2995POPC   C1B39667  11.212   6.424   8.564
 2995POPC   C2B39668  11.215   6.455   8.264
 2995POPC   C3B39669  11.269   6.394   7.964
 2995POPC   C4B39670  11.251   6.361   7.664
 2996POPC   NC339671   1.243  29.954   9.464
 2996POPC   PO439672   1.185  29.901   9.164
 2996POPC   GL139673   1.249  29.872   8.864
 2996POPC   GL239674   1.235  30.070   8.864
 2996POPC   C1A39675   1.258  29.911   8.564
 2996POPC   D2A39676   1.181  29.961   8.264
 2996POPC   C3A39677   1.249  29.913   7.964
 2996POPC   C4A39678   1.218  29.960   7.664
 2996POPC   C1B39679   1.295  30.195   8.564
 2996POPC   C2B39680   1.258  30.150   8.264
 2996POPC   C3B39681   1.257  30.203   7.964
 2996POPC   C4B39682   1.226  30.150   7.664
 2997POPC   NC339683  32.258  21.356   9.464
 2997POPC   PO439684  32.264  21.364   9.164
 2997POPC   GL139685  32.268  21.420   8.864
 2997POPC   GL239686  32.385  21.416   8.864
 2997POPC   C1A39687  32.259  21.395   8.564
 2997POPC   D2A39688  32.225  21.410   8.264
 2997POPC   C3A39689  32.270  21.337   7.964
 2997POPC   C4A39690  32.202  21.347   7.664
 2997POPC   C1B39691  32.523  21.482   8.564
 2997POPC   C2B39692  32.522  21.455   8.264
 2997POPC   C3B39693  32.536  21.450   7.964
 2997POPC   C4B39694  32.448  21.426   7.664
 2998POPC   NC339695  26.015  19.094   9.464
 2998POPC   PO439696  26.061  19.108   9.164
 2998POPC   GL139697  26.007  19.104   8.864
 2998POPC   GL239698  25.949  18.993   8.864
 2998POPC   C1A39699  25.992  19.021   8.564
 2998POPC   D2A39700  26.027  19.030   8.264
 2998POPC   C3A39701  26.027  19.043   7.964
 2998POPC   C4A39702  26.027  19.048   7.664
 2998POPC   C1B39703  25.908  18.858   8.564
 2998POPC   C2B39704  25.869  18.850   8.264
 2998POPC   C3B39705  25.862  18.881   7.964
 2998POPC   C4B39706  25.929  18.820   7.664
 2999POPC   NC339707   3.519  30.696   9.464
 2999POPC   PO439708   3.584  30.687   9.164
 2999POPC   GL139709   3.537  30.696   8.864
 2999POPC   GL239710   3.401  30.661   8.864
 2999POPC   C1A39711   3.511  30.683   8.564
 2999POPC   D2A39712   3.571  30.662   8.264
 2999POPC   C3A39713   3.554  30.741   7.964
 2999POPC   C4A39714   3.508  30.678   7.664
 2999POPC   C1B39715   3.242  30.735   8.564
 2999POPC   C2B39716   3.336  30.721   8.264
 2999POPC   C3B39717   3.267  30.750   7.964
 2999POPC   C4B39718   3.288  30.752   7.664
 3000POPC   NC339719  41.533  34.601   9.464
 3000POPC   PO439720  41.549  34.575   9.164
 3000POPC   GL139721  41.590  34.617   8.864
 3000POPC   GL239722  41.424  34.662   8.864
 3000POPC   C1A39723  41.529  34.610   8.564
 3000POPC   D2A39724  41.605  34.598   8.264
 3000POPC   C3A39725  41.586  34.578   7.964
 3000POPC   C4A39726  41.519  34.583   7.664
 3000POPC   C1B39727  41.372  34.703   8.564
 3000POPC   C2B39728  41.312  34.760   8.264
 3000POPC   C3B39729  41.349  34.751   7.964
 3000POPC   C4B39730  41.349  34.702   7.664
 3001POPC   NC339731  41.530   8.183   9.464
 3001POPC   PO439732  41.571   8.183   9.164
 3001POPC   GL139733  41.555   8.187   8.864
 3001POPC   GL239734  41.462   8.329   8.864
 3001POPC   C1A39735  41.593   8.203   8.564
 3001POPC   D2A39736  41.575   8.165   8.264
 3001POPC   C3A39737  41.565   8.176   7.964
 3001POPC   C4A39738  41.562   8.237   7.664
 3001POPC   C1B39739  41.410   8.422   8.564
 3001POPC   C2B39740  41.455   8.467   8.264
 3001POPC   C3B39741  41.487   8.419   7.964
 3001POPC   C4B39742  41.446   8.457   7.664
 3002POPC   NC339743   5.860  22.905   9.464
 3002POPC   PO439744   5.837  22.951   9.164
 3002POPC   GL139745   5.902  22.972   8.864
 3002POPC   GL239746   5.854  23.050   8.864
 3002POPC   C1A39747   5.849  22.983   8.564
 3002POPC   D2A39748   5.866  22.977   8.264
 3002POPC   C3A39749   5.894  22.923   7.964
 3002POPC   C4A39750   5.910  22.898   7.664
 3002POPC   C1B39751   5.909  23.201   8.564
 3002POPC   C2B39752   5.897  23.196   8.264
 3002POPC   C3B39753   5.850  23.178   7.964
 3002POPC   C4B39754   5.903  23.198   7.664
 3003POPC   NC339755   0.460  15.925   9.464
 3003POPC   PO439756   0.445  15.917   9.164
 3003POPC   GL139757   0.437  15.973   8.864
 3003POPC   GL239758   0.506  15.878   8.864
 3003POPC   C1A39759   0.437  15.993   8.564
 3003POPC   D2A39760   0.419  15.971   8.264
 3003POPC   C3A39761   0.479  15.974   7.964
 3003POPC   C4A39762   0.447  15.923   7.664
 3003POPC   C1B39763   0.449  15.670   8.564
 3003POPC   C2B39764   0.486  15.680   8.264
 3003POPC   C3B39765   0.508  15.727   7.964
 3003POPC   C4B39766   0.473  15.709   7.664
 3004POPC   NC339767  31.450   8.231   9.464
 3004POPC   PO439768  31.469   8.238   9.164
 3004POPC   GL139769  31.508   8.199   8.864
 3004POPC   GL239770  31.358   8.284   8.864
 3004POPC   C1A39771  31.490   8.204   8.564
 3004POPC   D2A39772  31.522   8.153   8.264
 3004POPC   C3A39773  31.461   8.155   7.964
 3004POPC   C4A39774  31.503   8.166   7.664
 3004POPC   C1B39775  31.226   8.321   8.564
 3004POPC   C2B39776  31.258   8.336   8.264
 3004POPC   C3B39777  31.299   8.369   7.964
 3004POPC   C4B39778  31.306   8.377   7.664
 3005POPC   NC339779  36.168  28.407   9.464
 3005POPC   PO439780  36.124  28.391   9.164
 3005POPC   GL139781  36.089  28.323   8.864
 3005POPC   GL239782  36.091  28.309   8.864
 3005POPC   C1A39783  36.174  28.377   8.564
 3005POPC   D2A39784  36.145  28.396   8.264
 3005POPC   C3A39785  36.143  28.400   7.964
 3005POPC   C4A39786  36.096  28.366   7.664
 3005POPC   C1B39787  36.015  28.132   8.564
 3005POPC   C2B39788  35.998  28.115   8.264
 3005POPC   C3B39789  35.969  28.110   7.964
 3005POPC   C4B39790  36.005  28.169   7.664
 3006POPC   NC339791  13.612  10.521   9.464
 3006POPC   PO439792  13.583  10.565   9.164
 3006POPC   GL139793  13.595  10.490   8.864
 3006POPC   GL239794  13.465  10.489   8.864
 3006POPC   C1A39795  13.582  10.497   8.564
 3006POPC   D2A39796  13.595  10.484   8.264
 3006POPC   C3A39797  13.631  10.560   7.964
 3006POPC   C4A39798  13.623  10.565   7.664
 3006POPC   C1B39799  13.395  10.558   8.564
 3006POPC   C2B39800  13.390  10.501   8.264
 3006POPC   C3B39801  13.419  10.536   7.964
 3006POPC   C4B39802  13.397  10.521   7.664
 3007POPC   NC339803   4.313  39.200   9.464
 3007POPC   PO439804   4.311  39.228   9.164
 3007POPC   GL139805   4.345  39.221   8.864
 3007POPC   GL239806   4.391  39.373   8.864
 3007POPC   C1A39807   4.286  39.255   8.564
 3007POPC   D2A39808   4.317  39.206   8.264
 3007POPC   C3A39809   4.303  39.230   7.964
 3007POPC   C4A39810   4.339  39.266   7.664
 3007POPC   C1B39811   4.418  39.454   8.564
 3007POPC   C2B39812   4.368  39.445   8.264
 3007POPC   C3B39813   4.416  39.473   7.964
 3007POPC   C4B39814   4.437  39.480   7.664
 3008POPC   NC339815  42.351  26.020   9.464
 3008POPC   PO439816  42.301  26.039   9.164
 3008POPC   GL139817  42.297  26.041   8.864
 3008POPC   GL239818  42.308  26.105   8.864
 3008POPC   C1A39819  42.297  26.022   8.564
 3008POPC   D2A39820  42.351  26.035   8.264
 3008POPC   C3A39821  42.346  26.041   7.964
 3008POPC   C4A39822  42.365  26.084   7.664
 3008POPC   C1B39823  42.220  26.228   8.564
 3008POPC   C2B39824  42.167  26.233   8.264
 3008POPC   C3B39825  42.252  26.215   7.964
 3008POPC   C4B39826  42.237  26.259   7.664
 3009POPC   NC339827  36.951  21.342   9.464
 3009POPC   PO439828  36.944  21.374   9.164
 3009POPC   GL139829  36.892  21.408   8.864
 3009POPC   GL239830  36.974  21.321   8.864
 3009POPC   C1A39831  36.941  21.415   8.564
 3009POPC   D2A39832  36.888  21.389   8.264
 3009POPC   C3A39833  36.925  21.422   7.964
 3009POPC   C4A39834  36.934  21.406   7.664
 3009POPC   C1B39835  37.104  21.267   8.564
 3009POPC   C2B39836  37.161  21.273   8.264
 3009POPC   C3B39837  37.120  21.221   7.964
 3009POPC   C4B39838  37.142  21.267   7.664
 3010POPC   NC339839   8.205  36.125   9.464
 3010POPC   PO439840   8.219  36.100   9.164
 3010POPC   GL139841   8.190  36.133   8.864
 3010POPC   GL239842   8.342  36.225   8.864
 3010POPC   C1A39843   8.229  36.141   8.564
 3010POPC   D2A39844   8.201  36.087   8.264
 3010POPC   C3A39845   8.232  36.160   7.964
 3010POPC   C4A39846   8.221  36.081   7.664
 3010POPC   C1B39847   8.463  36.239   8.564
 3010POPC   C2B39848   8.379  36.191   8.264
 3010POPC   C3B39849   8.444  36.208   7.964
 3010POPC   C4B39850   8.389  36.219   7.664
 3011POPC   NC339851  20.619  24.520   9.464
 3011POPC   PO439852  20.659  24.479   9.164
 3011POPC   GL139853  20.634  24.494   8.864
 3011POPC   GL239854  20.474  24.482   8.864
 3011POPC   C1A39855  20.572  24.502   8.564
 3011POPC   D2A39856  20.564  24.501   8.264
 3011POPC   C3A39857  20.655  24.477   7.964
 3011POPC   C4A39858  20.627  24.443   7.664
 3011POPC   C1B39859  20.398  24.425   8.564
 3011POPC   C2B39860  20.352  24.450   8.264
 3011POPC   C3B39861  20.390  24.364   7.964
 3011POPC   C4B39862  20.335  24.441   7.664
 3012POPC   NC339863   5.063  26.091   9.464
 3012POPC   PO439864   5.068  26.032   9.164
 3012POPC   GL139865   5.132  26.045   8.864
 3012POPC   GL239866   5.065  26.199   8.864
 3012POPC   C1A39867   5.105  25.992   8.564
 3012POPC   D2A39868   5.049  26.041   8.264
 3012POPC   C3A39869   5.095  26.050   7.964
 3012POPC   C4A39870   5.048  25.996   7.664
 3012POPC   C1B39871   5.110  26.288   8.564
 3012POPC   C2B39872   5.104  26.269   8.264
 3012POPC   C3B39873   5.152  26.287   7.964
 3012POPC   C4B39874   5.137  26.301   7.664
 3013POPC   NC339875  36.144  34.539   9.464
 3013POPC   PO439876  36.130  34.561   9.164
 3013POPC   GL139877  36.169  34.546   8.864
 3013POPC   GL239878  36.195  34.637   8.864
 3013POPC   C1A39879  36.154  34.539   8.564
 3013POPC   D2A39880  36.159  34.558   8.264
 3013POPC   C3A39881  36.172  34.539   7.964
 3013POPC   C4A39882  36.142  34.584   7.664
 3013POPC   C1B39883  36.274  34.751   8.564
 3013POPC   C2B39884  36.279  34.798   8.264
 3013POPC   C3B39885  36.287  34.794   7.964
 3013POPC   C4B39886  36.287  34.791   7.664
 3014POPC   NC339887  21.345  33.019   9.464
 3014POPC   PO439888  21.393  32.977   9.164
 3014POPC   GL139889  21.425  32.988   8.864
 3014POPC   GL239890  21.395  33.177   8.864
 3014POPC   C1A39891  21.338  33.001   8.564
 3014POPC   D2A39892  21.373  33.034   8.264
 3014POPC   C3A39893  21.428  33.033   7.964
 3014POPC   C4A39894  21.337  33.015   7.664
 3014POPC   C1B39895  21.527  33.274   8.564
 3014POPC   C2B39896  21.479  33.263   8.264
 3014POPC   C3B39897  21.451  33.255   7.964
 3014POPC   C4B39898  21.501  33.257   7.664
 3015POPC   NC339899  22.123  12.040   9.464
 3015POPC   PO439900  22.208  12.065   9.164
 3015POPC   GL139901  22.126  12.056   8.864
 3015POPC   GL239902  22.310  12.060   8.864
 3015POPC   C1A39903  22.149  12.089   8.564
 3015POPC   D2A39904  22.196  12.065   8.264
 3015POPC   C3A39905  22.193  12.033   7.964
 3015POPC   C4A39906  22.172  12.081   7.664
 3015POPC   C1B39907  22.364  11.994   8.564
 3015POPC   C2B39908  22.401  12.076   8.264
 3015POPC   C3B39909  22.451  12.039   7.964
 3015POPC   C4B39910  22.364  12.073   7.664
 3016POPC   NC339911   8.980  26.082   9.464
 3016POPC   PO439912   8.928  26.040   9.164
 3016POPC   GL139913   8.983  26.012   8.864
 3016POPC   GL239914   9.091  26.058   8.864
 3016POPC   C1A39915   8.952  26.000   8.564
 3016POPC   D2A39916   9.009  26.072   8.264
 3016POPC   C3A39917   8.942  26.075   7.964
 3016POPC   C4A39918   8.994  26.029   7.664
 3016POPC   C1B39919   9.260  26.024   8.564
 3016POPC   C2B39920   9.212  26.090   8.264
 3016POPC   C3B39921   9.237  26.020   7.964
 3016POPC   C4B39922   9.204  26.000   7.664
 3017POPC   NC339923  26.061   8.163   9.464
 3017POPC   PO439924  26.033   8.207   9.164
 3017POPC   GL139925  26.041   8.175   8.864
 3017POPC   GL239926  26.019   8.122   8.864
 3017POPC   C1A39927  26.059   8.149   8.564
 3017POPC   D2A39928  26.016   8.170   8.264
 3017POPC   C3A39929  26.067   8.211   7.964
 3017POPC   C4A39930  26.013   8.221   7.664
 3017POPC   C1B39931  26.101   7.955   8.564
 3017POPC   C2B39932  26.066   7.940   8.264
 3017POPC   C3B39933  26.145   7.936   7.964
 3017POPC   C4B39934  26.066   7.991   7.664
 3018POPC   NC339935  33.787  39.976   9.464
 3018POPC   PO439936  33.807  39.969   9.164
 3018POPC   GL139937  33.800  40.049   8.864
 3018POPC   GL239938  33.786  39.848   8.864
 3018POPC   C1A39939  33.787  40.001   8.564
 3018POPC   D2A39940  33.839  40.006   8.264
 3018POPC   C3A39941  33.781  39.983   7.964
 3018POPC   C4A39942  33.777  40.029   7.664
 3018POPC   C1B39943  33.688  39.785   8.564
 3018POPC   C2B39944  33.755  39.802   8.264
 3018POPC   C3B39945  33.701  39.743   7.964
 3018POPC   C4B39946  33.757  39.724   7.664
 3019POPC   NC339947   2.736  16.764   9.464
 3019POPC   PO439948   2.773  16.737   9.164
 3019POPC   GL139949   2.813  16.764   8.864
 3019POPC   GL239950   2.858  16.792   8.864
 3019POPC   C1A39951   2.808  16.738   8.564
 3019POPC   D2A39952   2.802  16.761   8.264
 3019POPC   C3A39953   2.813  16.745   7.964
 3019POPC   C4A39954   2.740  16.764   7.664
 3019POPC   C1B39955   2.910  16.953   8.564
 3019POPC   C2B39956   2.963  16.857   8.264
 3019POPC   C3B39957   2.995  16.857   7.964
 3019POPC   C4B39958   2.951  16.891   7.664
 3020POPC   NC339959  39.993  36.163   9.464
 3020POPC   PO439960  40.022  36.175   9.164
 3020POPC   GL139961  40.053  36.160   8.864
 3020POPC   GL239962  39.877  36.249   8.864
 3020POPC   C1A39963  40.053  36.175   8.564
 3020POPC   D2A39964  39.976  36.139   8.264
 3020POPC   C3A39965  39.982  36.165   7.964
 3020POPC   C4A39966  40.045  36.132   7.664
 3020POPC   C1B39967  39.849  36.279   8.564
 3020POPC   C2B39968  39.863  36.314   8.264
 3020POPC   C3B39969  39.839  36.304   7.964
 3020POPC   C4B39970  39.798  36.255   7.664
 3021POPC   NC339971  24.538  18.304   9.464
 3021POPC   PO439972  24.442  18.240   9.164
 3021POPC   GL139973  24.507  18.281   8.864
 3021POPC   GL239974  24.394  18.356   8.864
 3021POPC   C1A39975  24.521  18.329   8.564
 3021POPC   D2A39976  24.457  18.304   8.264
 3021POPC   C3A39977  24.540  18.330   7.964
 3021POPC   C4A39978  24.530  18.310   7.664
 3021POPC   C1B39979  24.330  18.402   8.564
 3021POPC   C2B39980  24.316  18.464   8.264
 3021POPC   C3B39981  24.268  18.401   7.964
 3021POPC   C4B39982  24.269  18.422   7.664
 3022POPC   NC339983  26.800   0.448   9.464
 3022POPC   PO439984  26.827   0.468   9.164
 3022POPC   GL139985  26.768   0.433   8.864
 3022POPC   GL239986  26.959   0.420   8.864
 3022POPC   C1A39987  26.793   0.485   8.564
 3022POPC   D2A39988  26.852   0.462   8.264
 3022POPC   C3A39989  26.789   0.432   7.964
 3022POPC   C4A39990  26.789   0.425   7.664
 3022POPC   C1B39991  27.063   0.453   8.564
 3022POPC   C2B39992  27.035   0.438   8.264
 3022POPC   C3B39993  27.083   0.436   7.964
 3022POPC   C4B39994  27.038   0.413   7.664
 3023POPC   NC339995   1.219   4.272   9.464
 3023POPC   PO439996   1.242   4.286   9.164
 3023POPC   GL139997   1.205   4.332   8.864
 3023POPC   GL239998   1.154   4.396   8.864
 3023POPC   C1A39999   1.206   4.325   8.564
 3023POPC   D2A40000   1.186   4.334   8.264
 3023POPC   C3A40001   1.172   4.311   7.964
 3023POPC   C4A40002   1.211   4.310   7.664
 3023POPC   C1B40003   1.204   4.616   8.564
 3023POPC   C2B40004   1.201   4.528   8.264
 3023POPC   C3B40005   1.158   4.593   7.964
 3023POPC   C4B40006   1.178   4.581   7.664
 3024POPC   NC340007  33.826   0.452   9.464
 3024POPC   PO440008  33.816   0.443   9.164
 3024POPC   GL140009  33.847   0.474   8.864
 3024POPC   GL240010  33.677   0.479   8.864
 3024POPC   C1A40011  33.834   0.462   8.564
 3024POPC   D2A40012  33.822   0.419   8.264
 3024POPC   C3A40013  33.818   0.475   7.964
 3024POPC   C4A40014  33.774   0.418   7.664
 3024POPC   C1B40015  33.576   0.495   8.564
 3024POPC   C2B40016  33.568   0.533   8.264
 3024POPC   C3B40017  33.604   0.486   7.964
 3024POPC   C4B40018  33.543   0.474   7.664
 3025POPC   NC340019  26.045  42.374   9.464
 3025POPC   PO440020  26.075  42.345   9.164
 3025POPC   GL140021  26.091  42.298   8.864
 3025POPC   GL240022  25.912  42.425   8.864
 3025POPC   C1A40023  26.013  42.374   8.564
 3025POPC   D2A40024  26.007  42.320   8.264
 3025POPC   C3A40025  26.053  42.307   7.964
 3025POPC   C4A40026  26.046  42.331   7.664
 3025POPC   C1B40027  25.841  42.429   8.564
 3025POPC   C2B40028  25.879  42.430   8.264
 3025POPC   C3B40029  25.812  42.481   7.964
 3025POPC   C4B40030  25.876  42.470   7.664
 3026POPC   NC340031  19.038   6.686   9.464
 3026POPC   PO440032  19.086   6.667   9.164
 3026POPC   GL140033  19.045   6.672   8.864
 3026POPC   GL240034  19.003   6.513   8.864
 3026POPC   C1A40035  19.074   6.691   8.564
 3026POPC   D2A40036  19.060   6.685   8.264
 3026POPC   C3A40037  19.104   6.654   7.964
 3026POPC   C4A40038  19.043   6.601   7.664
 3026POPC   C1B40039  18.948   6.411   8.564
 3026POPC   C2B40040  18.941   6.389   8.264
 3026POPC   C3B40041  18.924   6.450   7.964
 3026POPC   C4B40042  18.949   6.410   7.664
 3027POPC   NC340043   5.104  30.681   9.464
 3027POPC   PO440044   5.128  30.712   9.164
 3027POPC   GL140045   5.053  30.711   8.864
 3027POPC   GL240046   5.182  30.844   8.864
 3027POPC   C1A40047   5.048  30.692   8.564
 3027POPC   D2A40048   5.090  30.656   8.264
 3027POPC   C3A40049   5.119  30.647   7.964
 3027POPC   C4A40050   5.121  30.740   7.664
 3027POPC   C1B40051   5.243  30.945   8.564
 3027POPC   C2B40052   5.161  30.940   8.264
 3027POPC   C3B40053   5.160  30.917   7.964
 3027POPC   C4B40054   5.187  30.927   7.664
 3028POPC   NC340055  26.816  35.360   9.464
 3028POPC   PO440056  26.796  35.346   9.164
 3028POPC   GL140057  26.855  35.353   8.864
 3028POPC   GL240058  26.697  35.350   8.864
 3028POPC   C1A40059  26.780  35.401   8.564
 3028POPC   D2A40060  26.771  35.327   8.264
 3028POPC   C3A40061  26.799  35.380   7.964
 3028POPC   C4A40062  26.777  35.376   7.664
 3028POPC   C1B40063  26.571  35.333   8.564
 3028POPC   C2B40064  26.604  35.373   8.264
 3028POPC   C3B40065  26.579  35.306   7.964
 3028POPC   C4B40066  26.539  35.363   7.664
 3029POPC   NC340067  41.590  33.826   9.464
 3029POPC   PO440068  41.520  33.795   9.164
 3029POPC   GL140069  41.526  33.846   8.864
 3029POPC   GL240070  41.572  33.669   8.864
 3029POPC   C1A40071  41.567  33.848   8.564
 3029POPC   D2A40072  41.548  33.840   8.264
 3029POPC   C3A40073  41.591  33.775   7.964
 3029POPC   C4A40074  41.557  33.843   7.664
 3029POPC   C1B40075  41.562  33.558   8.564
 3029POPC   C2B40076  41.560  33.580   8.264
 3029POPC   C3B40077  41.578  33.509   7.964
 3029POPC   C4B40078  41.636  33.549   7.664
 3030POPC   NC340079  28.374  27.619   9.464
 3030POPC   PO440080  28.412  27.591   9.164
 3030POPC   GL140081  28.364  27.635   8.864
 3030POPC   GL240082  28.517  27.547   8.864
 3030POPC   C1A40083  28.354  27.587   8.564
 3030POPC   D2A40084  28.399  27.642   8.264
 3030POPC   C3A40085  28.352  27.544   7.964
 3030POPC   C4A40086  28.332  27.596   7.664
 3030POPC   C1B40087  28.609  27.438   8.564
 3030POPC   C2B40088  28.525  27.466   8.264
 3030POPC   C3B40089  28.529  27.489   7.964
 3030POPC   C4B40090  28.529  27.462   7.664
 3031POPC   NC340091  12.808  37.653   9.464
 3031POPC   PO440092  12.887  37.637   9.164
 3031POPC   GL140093  12.860  37.687   8.864
 3031POPC   GL240094  12.931  37.751   8.864
 3031POPC   C1A40095  12.818  37.631   8.564
 3031POPC   D2A40096  12.875  37.647   8.264
 3031POPC   C3A40097  12.846  37.640   7.964
 3031POPC   C4A40098  12.862  37.660   7.664
 3031POPC   C1B40099  13.107  37.788   8.564
 3031POPC   C2B40100  13.069  37.816   8.264
 3031POPC   C3B40101  13.031  37.807   7.964
 3031POPC   C4B40102  13.022  37.835   7.664
 3032POPC   NC340103  26.039  39.966   9.464
 3032POPC   PO440104  26.036  39.973   9.164
 3032POPC   GL140105  26.045  40.002   8.864
 3032POPC   GL240106  26.105  40.052   8.864
 3032POPC   C1A40107  26.044  40.042   8.564
 3032POPC   D2A40108  26.068  40.021   8.264
 3032POPC   C3A40109  26.022  40.016   7.964
 3032POPC   C4A40110  26.014  39.997   7.664
 3032POPC   C1B40111  26.199  40.134   8.564
 3032POPC   C2B40112  26.197  40.161   8.264
 3032POPC   C3B40113  26.204  40.149   7.964
 3032POPC   C4B40114  26.226  40.172   7.664
 3033POPC   NC340115  22.986  29.901   9.464
 3033POPC   PO440116  22.951  29.915   9.164
 3033POPC   GL140117  22.936  29.919   8.864
 3033POPC   GL240118  22.865  30.012   8.864
 3033POPC   C1A40119  22.969  29.926   8.564
 3033POPC   D2A40120  22.944  29.916   8.264
 3033POPC   C3A40121  22.897  29.935   7.964
 3033POPC   C4A40122  22.984  29.955   7.664
 3033POPC   C1B40123  22.756  30.025   8.564
 3033POPC   C2B40124  22.693  30.108   8.264
 3033POPC   C3B40125  22.747  30.041   7.964
 3033POPC   C4B40126  22.765  30.105   7.664
 3034POPC   NC340127  19.847  14.394   9.464
 3034POPC   PO440128  19.873  14.382   9.164
 3034POPC   GL140129  19.788  14.446   8.864
 3034POPC   GL240130  19.799  14.311   8.864
 3034POPC   C1A40131  19.835  14.373   8.564
 3034POPC   D2A40132  19.877  14.373   8.264
 3034POPC   C3A40133  19.845  14.356   7.964
 3034POPC   C4A40134  19.873  14.369   7.664
 3034POPC   C1B40135  19.740  14.196   8.564
 3034POPC   C2B40136  19.812  14.169   8.264
 3034POPC   C3B40137  19.813  14.157   7.964
 3034POPC   C4B40138  19.804  14.197   7.664
 3035POPC   NC340139   8.972  22.201   9.464
 3035POPC   PO440140   8.992  22.133   9.164
 3035POPC   GL140141   9.012  22.127   8.864
 3035POPC   GL240142   8.991  22.330   8.864
 3035POPC   C1A40143   9.001  22.117   8.564
 3035POPC   D2A40144   8.941  22.149   8.264
 3035POPC   C3A40145   8.998  22.143   7.964
 3035POPC   C4A40146   8.963  22.212   7.664
 3035POPC   C1B40147   8.956  22.397   8.564
 3035POPC   C2B40148   8.905  22.391   8.264
 3035POPC   C3B40149   8.899  22.377   7.964
 3035POPC   C4B40150   8.896  22.389   7.664
 3036POPC   NC340151   7.407  31.481   9.464
 3036POPC   PO440152   7.463  31.456   9.164
 3036POPC   GL140153   7.397  31.487   8.864
 3036POPC   GL240154   7.595  31.483   8.864
 3036POPC   C1A40155   7.463  31.429   8.564
 3036POPC   D2A40156   7.409  31.426   8.264
 3036POPC   C3A40157   7.428  31.484   7.964
 3036POPC   C4A40158   7.433  31.461   7.664
 3036POPC   C1B40159   7.682  31.452   8.564
 3036POPC   C2B40160   7.686  31.426   8.264
 3036POPC   C3B40161   7.711  31.476   7.964
 3036POPC   C4B40162   7.687  31.428   7.664
 3037POPC   NC340163  40.790  42.375   9.464
 3037POPC   PO440164  40.792  42.335   9.164
 3037POPC   GL140165  40.746  42.325   8.864
 3037POPC   GL240166  40.656  42.372   8.864
 3037POPC   C1A40167  40.742  42.381   8.564
 3037POPC   D2A40168  40.753  42.330   8.264
 3037POPC   C3A40169  40.770  42.323   7.964
 3037POPC   C4A40170  40.782  42.345   7.664
 3037POPC   C1B40171  40.597  42.460   8.564
 3037POPC   C2B40172  40.574  42.537   8.264
 3037POPC   C3B40173  40.654  42.510   7.964
 3037POPC   C4B40174  40.620  42.529   7.664
 3038POPC   NC340175  24.452  41.521   9.464
 3038POPC   PO440176  24.461  41.541   9.164
 3038POPC   GL140177  24.507  41.509   8.864
 3038POPC   GL240178  24.543  41.628   8.864
 3038POPC   C1A40179  24.445  41.579   8.564
 3038POPC   D2A40180  24.497  41.578   8.264
 3038POPC   C3A40181  24.506  41.546   7.964
 3038POPC   C4A40182  24.440  41.554   7.664
 3038POPC   C1B40183  24.654  41.672   8.564
 3038POPC   C2B40184  24.715  41.733   8.264
 3038POPC   C3B40185  24.648  41.709   7.964
 3038POPC   C4B40186  24.640  41.747   7.664
 3039POPC   NC340187   9.771  34.538   9.464
 3039POPC   PO440188   9.735  34.556   9.164
 3039POPC   GL140189   9.721  34.568   8.864
 3039POPC   GL240190   9.778  34.742   8.864
 3039POPC   C1A40191   9.778  34.575   8.564
 3039POPC   D2A40192   9.698  34.547   8.264
 3039POPC   C3A40193   9.716  34.612   7.964
 3039POPC   C4A40194   9.718  34.586   7.664
 3039POPC   C1B40195   9.728  34.848   8.564
 3039POPC   C2B40196   9.770  34.836   8.264
 3039POPC   C3B40197   9.736  34.801   7.964
 3039POPC   C4B40198   9.771  34.829   7.664
 3040POPC   NC340199  12.036  14.386   9.464
 3040POPC   PO440200  12.049  14.367   9.164
 3040POPC   GL140201  12.083  14.440   8.864
 3040POPC   GL240202  12.079  14.492   8.864
 3040POPC   C1A40203  12.069  14.405   8.564
 3040POPC   D2A40204  12.051  14.396   8.264
 3040POPC   C3A40205  12.037  14.364   7.964
 3040POPC   C4A40206  12.058  14.434   7.664
 3040POPC   C1B40207  12.057  14.673   8.564
 3040POPC   C2B40208  12.114  14.613   8.264
 3040POPC   C3B40209  12.075  14.654   7.964
 3040POPC   C4B40210  12.084  14.632   7.664
 3041POPC   NC340211  33.062  15.221   9.464
 3041POPC   PO440212  33.068  15.132   9.164
 3041POPC   GL140213  33.062  15.146   8.864
 3041POPC   GL240214  33.068  15.020   8.864
 3041POPC   C1A40215  33.029  15.140   8.564
 3041POPC   D2A40216  33.053  15.198   8.264
 3041POPC   C3A40217  33.065  15.143   7.964
 3041POPC   C4A40218  33.026  15.149   7.664
 3041POPC   C1B40219  33.064  14.906   8.564
 3041POPC   C2B40220  33.049  14.897   8.264
 3041POPC   C3B40221  32.996  14.959   7.964
 3041POPC   C4B40222  32.970  14.978   7.664
 3042POPC   NC340223  34.594  15.228   9.464
 3042POPC   PO440224  34.557  15.212   9.164
 3042POPC   GL140225  34.582  15.165   8.864
 3042POPC   GL240226  34.498  15.050   8.864
 3042POPC   C1A40227  34.582  15.208   8.564
 3042POPC   D2A40228  34.539  15.164   8.264
 3042POPC   C3A40229  34.586  15.187   7.964
 3042POPC   C4A40230  34.624  15.153   7.664
 3042POPC   C1B40231  34.491  14.981   8.564
 3042POPC   C2B40232  34.566  14.924   8.264
 3042POPC   C3B40233  34.497  14.923   7.964
 3042POPC   C4B40234  34.541  14.957   7.664
 3043POPC   NC340235   1.965  26.859   9.464
 3043POPC   PO440236   1.957  26.811   9.164
 3043POPC   GL140237   1.970  26.810   8.864
 3043POPC   GL240238   2.144  26.818   8.864
 3043POPC   C1A40239   2.036  26.802   8.564
 3043POPC   D2A40240   1.988  26.798   8.264
 3043POPC   C3A40241   1.998  26.866   7.964
 3043POPC   C4A40242   1.991  26.813   7.664
 3043POPC   C1B40243   2.267  26.911   8.564
 3043POPC   C2B40244   2.225  26.850   8.264
 3043POPC   C3B40245   2.279  26.893   7.964
 3043POPC   C4B40246   2.252  26.890   7.664
 3044POPC   NC340247  33.827   8.159   9.464
 3044POPC   PO440248  33.765   8.242   9.164
 3044POPC   GL140249  33.779   8.187   8.864
 3044POPC   GL240250  33.721   8.284   8.864
 3044POPC   C1A40251  33.755   8.193   8.564
 3044POPC   D2A40252  33.798   8.155   8.264
 3044POPC   C3A40253  33.793   8.240   7.964
 3044POPC   C4A40254  33.756   8.148   7.664
 3044POPC   C1B40255  33.516   8.272   8.564
 3044POPC   C2B40256  33.514   8.273   8.264
 3044POPC   C3B40257  33.531   8.284   7.964
 3044POPC   C4B40258  33.541   8.309   7.664
 3045POPC   NC340259   9.703  19.836   9.464
 3045POPC   PO440260   9.762  19.853   9.164
 3045POPC   GL140261   9.748  19.787   8.864
 3045POPC   GL240262   9.797  19.931   8.864
 3045POPC   C1A40263   9.796  19.805   8.564
 3045POPC   D2A40264   9.744  19.863   8.264
 3045POPC   C3A40265   9.755  19.876   7.964
 3045POPC   C4A40266   9.773  19.840   7.664
 3045POPC   C1B40267   9.767  20.122   8.564
 3045POPC   C2B40268   9.828  20.109   8.264
 3045POPC   C3B40269   9.791  20.064   7.964
 3045POPC   C4B40270   9.792  20.100   7.664
 3046POPC   NC340271  19.033  22.919   9.464
 3046POPC   PO440272  19.038  22.934   9.164
 3046POPC   GL140273  19.017  22.942   8.864
 3046POPC   GL240274  18.982  23.025   8.864
 3046POPC   C1A40275  19.018  22.913   8.564
 3046POPC   D2A40276  19.091  22.944   8.264
 3046POPC   C3A40277  19.078  22.956   7.964
 3046POPC   C4A40278  19.012  22.970   7.664
 3046POPC   C1B40279  18.826  23.018   8.564
 3046POPC   C2B40280  18.828  23.028   8.264
 3046POPC   C3B40281  18.814  22.995   7.964
 3046POPC   C4B40282  18.809  23.007   7.664
 3047POPC   NC340283  29.177   2.803   9.464
 3047POPC   PO440284  29.117   2.796   9.164
 3047POPC   GL140285  29.176   2.724   8.864
 3047POPC   GL240286  29.110   2.677   8.864
 3047POPC   C1A40287  29.153   2.769   8.564
 3047POPC   D2A40288  29.127   2.762   8.264
 3047POPC   C3A40289  29.151   2.785   7.964
 3047POPC   C4A40290  29.116   2.750   7.664
 3047POPC   C1B40291  29.011   2.509   8.564
 3047POPC   C2B40292  28.993   2.524   8.264
 3047POPC   C3B40293  29.043   2.529   7.964
 3047POPC   C4B40294  28.977   2.538   7.664
 3048POPC   NC340295  11.268  40.786   9.464
 3048POPC   PO440296  11.337  40.773   9.164
 3048POPC   GL140297  11.267  40.828   8.864
 3048POPC   GL240298  11.444  40.906   8.864
 3048POPC   C1A40299  11.265  40.764   8.564
 3048POPC   D2A40300  11.294  40.807   8.264
 3048POPC   C3A40301  11.334  40.774   7.964
 3048POPC   C4A40302  11.337  40.824   7.664
 3048POPC   C1B40303  11.481  40.902   8.564
 3048POPC   C2B40304  11.536  40.981   8.264
 3048POPC   C3B40305  11.528  40.978   7.964
 3048POPC   C4B40306  11.505  40.923   7.664
 3049POPC   NC340307  42.332  26.832   9.464
 3049POPC   PO440308  42.378  26.862   9.164
 3049POPC   GL140309  42.321  26.832   8.864
 3049POPC   GL240310  42.438  26.846   8.864
 3049POPC   C1A40311  42.359  26.788   8.564
 3049POPC   D2A40312  42.378  26.854   8.264
 3049POPC   C3A40313  42.332  26.776   7.964
 3049POPC   C4A40314  42.374  26.865   7.664
 3049POPC   C1B40315  42.572  26.857   8.564
 3049POPC   C2B40316  42.564  26.884   8.264
 3049POPC   C3B40317  42.558  26.910   7.964
 3049POPC   C4B40318  42.555  26.923   7.664
 3050POPC   NC340319   9.000  33.071   9.464
 3050POPC   PO440320   8.963  33.032   9.164
 3050POPC   GL140321   9.021  32.981   8.864
 3050POPC   GL240322   9.060  32.961   8.864
 3050POPC   C1A40323   8.925  33.007   8.564
 3050POPC   D2A40324   8.927  33.012   8.264
 3050POPC   C3A40325   9.011  33.015   7.964
 3050POPC   C4A40326   9.002  32.982   7.664
 3050POPC   C1B40327   9.102  32.876   8.564
 3050POPC   C2B40328   9.166  32.846   8.264
 3050POPC   C3B40329   9.173  32.895   7.964
 3050POPC   C4B40330   9.169  32.843   7.664
 3051POPC   NC340331  23.734  27.618   9.464
 3051POPC   PO440332  23.744  27.629   9.164
 3051POPC   GL140333  23.699  27.585   8.864
 3051POPC   GL240334  23.877  27.540   8.864
 3051POPC   C1A40335  23.688  27.549   8.564
 3051POPC   D2A40336  23.664  27.599   8.264
 3051POPC   C3A40337  23.750  27.634   7.964
 3051POPC   C4A40338  23.745  27.556   7.664
 3051POPC   C1B40339  23.917  27.507   8.564
 3051POPC   C2B40340  23.978  27.519   8.264
 3051POPC   C3B40341  23.937  27.520   7.964
 3051POPC   C4B40342  23.924  27.477   7.664
 3052POPC   NC340343  28.354  22.911   9.464
 3052POPC   PO440344  28.361  22.910   9.164
 3052POPC   GL140345  28.416  22.944   8.864
 3052POPC   GL240346  28.503  22.864   8.864
 3052POPC   C1A40347  28.331  22.943   8.564
 3052POPC   D2A40348  28.361  22.955   8.264
 3052POPC   C3A40349  28.323  22.960   7.964
 3052POPC   C4A40350  28.395  22.910   7.664
 3052POPC   C1B40351  28.602  22.784   8.564
 3052POPC   C2B40352  28.572  22.841   8.264
 3052POPC   C3B40353  28.583  22.858   7.964
 3052POPC   C4B40354  28.591  22.818   7.664
 3053POPC   NC340355  21.418  32.259   9.464
 3053POPC   PO440356  21.370  32.217   9.164
 3053POPC   GL140357  21.360  32.212   8.864
 3053POPC   GL240358  21.256  32.202   8.864
 3053POPC   C1A40359  21.344  32.242   8.564
 3053POPC   D2A40360  21.418  32.284   8.264
 3053POPC   C3A40361  21.427  32.210   7.964
 3053POPC   C4A40362  21.337  32.258   7.664
 3053POPC   C1B40363  21.203  32.129   8.564
 3053POPC   C2B40364  21.248  32.047   8.264
 3053POPC   C3B40365  21.246  32.096   7.964
 3053POPC   C4B40366  21.169  32.098   7.664
 3054POPC   NC340367   2.754  43.876   9.464
 3054POPC   PO440368   2.727  43.874   9.164
 3054POPC   GL140369   2.776  43.882   8.864
 3054POPC   GL240370   2.645  43.807   8.864
 3054POPC   C1A40371   2.750  43.894   8.564
 3054POPC   D2A40372   2.717  43.858   8.264
 3054POPC   C3A40373   2.803  43.853   7.964
 3054POPC   C4A40374   2.729  43.840   7.664
 3054POPC   C1B40375   2.561  43.809   8.564
 3054POPC   C2B40376   2.547  43.793   8.264
 3054POPC   C3B40377   2.519  43.759   7.964
 3054POPC   C4B40378   2.479  43.815   7.664
 3055POPC   NC340379   7.398  14.450   9.464
 3055POPC   PO440380   7.428  14.391   9.164
 3055POPC   GL140381   7.435  14.425   8.864
 3055POPC   GL240382   7.406  14.491   8.864
 3055POPC   C1A40383   7.395  14.451   8.564
 3055POPC   D2A40384   7.389  14.369   8.264
 3055POPC   C3A40385   7.460  14.432   7.964
 3055POPC   C4A40386   7.393  14.395   7.664
 3055POPC   C1B40387   7.408  14.606   8.564
 3055POPC   C2B40388   7.459  14.646   8.264
 3055POPC   C3B40389   7.445  14.641   7.964
 3055POPC   C4B40390   7.457  14.621   7.664
 3056POPC   NC340391  43.067   1.235   9.464
 3056POPC   PO440392  43.109   1.217   9.164
 3056POPC   GL140393  43.103   1.205   8.864
 3056POPC   GL240394  43.024   1.207   8.864
 3056POPC   C1A40395  43.146   1.224   8.564
 3056POPC   D2A40396  43.079   1.204   8.264
 3056POPC   C3A40397  43.106   1.245   7.964
 3056POPC   C4A40398  43.156   1.199   7.664
 3056POPC   C1B40399  42.911   1.252   8.564
 3056POPC   C2B40400  42.906   1.189   8.264
 3056POPC   C3B40401  42.846   1.254   7.964
 3056POPC   C4B40402  42.910   1.219   7.664
 3057POPC   NC340403  16.774  12.069   9.464
 3057POPC   PO440404  16.710  12.065   9.164
 3057POPC   GL140405  16.726  12.053   8.864
 3057POPC   GL240406  16.559  12.025   8.864
 3057POPC   C1A40407  16.726  12.120   8.564
 3057POPC   D2A40408  16.724  12.112   8.264
 3057POPC   C3A40409  16.718  12.077   7.964
 3057POPC   C4A40410  16.779  12.121   7.664
 3057POPC   C1B40411  16.451  12.099   8.564
 3057POPC   C2B40412  16.471  12.097   8.264
 3057POPC   C3B40413  16.507  12.111   7.964
 3057POPC   C4B40414  16.436  12.067   7.664
 3058POPC   NC340415   5.072  19.786   9.464
 3058POPC   PO440416   5.139  19.878   9.164
 3058POPC   GL140417   5.080  19.882   8.864
 3058POPC   GL240418   4.940  19.926   8.864
 3058POPC   C1A40419   5.074  19.806   8.564
 3058POPC   D2A40420   5.063  19.805   8.264
 3058POPC   C3A40421   5.136  19.878   7.964
 3058POPC   C4A40422   5.095  19.791   7.664
 3058POPC   C1B40423   4.888  19.964   8.564
 3058POPC   C2B40424   4.842  19.889   8.264
 3058POPC   C3B40425   4.832  19.926   7.964
 3058POPC   C4B40426   4.901  19.952   7.664
 3059POPC   NC340427   1.229  22.123   9.464
 3059POPC   PO440428   1.243  22.187   9.164
 3059POPC   GL140429   1.227  22.207   8.864
 3059POPC   GL240430   1.235  22.051   8.864
 3059POPC   C1A40431   1.261  22.123   8.564
 3059POPC   D2A40432   1.193  22.161   8.264
 3059POPC   C3A40433   1.188  22.173   7.964
 3059POPC   C4A40434   1.181  22.191   7.664
 3059POPC   C1B40435   1.290  21.931   8.564
 3059POPC   C2B40436   1.327  21.975   8.264
 3059POPC   C3B40437   1.355  21.961   7.964
 3059POPC   C4B40438   1.282  21.902   7.664
 3060POPC   NC340439  12.062   5.839   9.464
 3060POPC   PO440440  12.075   5.825   9.164
 3060POPC   GL140441  12.066   5.860   8.864
 3060POPC   GL240442  11.999   5.765   8.864
 3060POPC   C1A40443  12.071   5.902   8.564
 3060POPC   D2A40444  12.060   5.882   8.264
 3060POPC   C3A40445  12.036   5.831   7.964
 3060POPC   C4A40446  12.124   5.856   7.664
 3060POPC   C1B40447  12.054   5.613   8.564
 3060POPC   C2B40448  12.043   5.581   8.264
 3060POPC   C3B40449  12.042   5.581   7.964
 3060POPC   C4B40450  11.973   5.624   7.664
 3061POPC   NC340451  13.674  31.447   9.464
 3061POPC   PO440452  13.674  31.457   9.164
 3061POPC   GL140453  13.632  31.469   8.864
 3061POPC   GL240454  13.488  31.450   8.864
 3061POPC   C1A40455  13.640  31.441   8.564
 3061POPC   D2A40456  13.671  31.445   8.264
 3061POPC   C3A40457  13.628  31.447   7.964
 3061POPC   C4A40458  13.616  31.469   7.664
 3061POPC   C1B40459  13.389  31.463   8.564
 3061POPC   C2B40460  13.422  31.450   8.264
 3061POPC   C3B40461  13.397  31.408   7.964
 3061POPC   C4B40462  13.380  31.379   7.664
 3062POPC   NC340463   3.511  43.109   9.464
 3062POPC   PO440464   3.515  43.082   9.164
 3062POPC   GL140465   3.499  43.157   8.864
 3062POPC   GL240466   3.496  43.258   8.864
 3062POPC   C1A40467   3.552  43.123   8.564
 3062POPC   D2A40468   3.510  43.144   8.264
 3062POPC   C3A40469   3.545  43.123   7.964
 3062POPC   C4A40470   3.519  43.084   7.664
 3062POPC   C1B40471   3.433  43.372   8.564
 3062POPC   C2B40472   3.449  43.372   8.264
 3062POPC   C3B40473   3.379  43.339   7.964
 3062POPC   C4B40474   3.394  43.332   7.664
 3063POPC   NC340475  43.104   5.915   9.464
 3063POPC   PO440476  43.160   5.827   9.164
 3063POPC   GL140477  43.082   5.882   8.864
 3063POPC   GL240478  43.122   5.789   8.864
 3063POPC   C1A40479  43.117   5.917   8.564
 3063POPC   D2A40480  43.158   5.912   8.264
 3063POPC   C3A40481  43.079   5.874   7.964
 3063POPC   C4A40482  43.071   5.830   7.664
 3063POPC   C1B40483  43.152   5.663   8.564
 3063POPC   C2B40484  43.126   5.649   8.264
 3063POPC   C3B40485  43.185   5.602   7.964
 3063POPC   C4B40486  43.142   5.595   7.664
 3064POPC   NC340487  29.157  21.349   9.464
 3064POPC   PO440488  29.115  21.426   9.164
 3064POPC   GL140489  29.164  21.383   8.864
 3064POPC   GL240490  29.093  21.297   8.864
 3064POPC   C1A40491  29.164  21.433   8.564
 3064POPC   D2A40492  29.131  21.385   8.264
 3064POPC   C3A40493  29.189  21.389   7.964
 3064POPC   C4A40494  29.098  21.422   7.664
 3064POPC   C1B40495  29.113  21.124   8.564
 3064POPC   C2B40496  29.051  21.141   8.264
 3064POPC   C3B40497  29.141  21.177   7.964
 3064POPC   C4B40498  29.059  21.128   7.664
 3065POPC   NC340499  40.823  33.799   9.464
 3065POPC   PO440500  40.740  33.793   9.164
 3065POPC   GL140501  40.813  33.846   8.864
 3065POPC   GL240502  40.772  33.930   8.864
 3065POPC   C1A40503  40.822  33.761   8.564
 3065POPC   D2A40504  40.790  33.758   8.264
 3065POPC   C3A40505  40.782  33.831   7.964
 3065POPC   C4A40506  40.790  33.755   7.664
 3065POPC   C1B40507  40.889  34.046   8.564
 3065POPC   C2B40508  40.866  34.023   8.264
 3065POPC   C3B40509  40.886  34.006   7.964
 3065POPC   C4B40510  40.806  34.027   7.664
 3066POPC   NC340511  24.490  40.756   9.464
 3066POPC   PO440512  24.498  40.749   9.164
 3066POPC   GL140513  24.473  40.734   8.864
 3066POPC   GL240514  24.572  40.700   8.864
 3066POPC   C1A40515  24.506  40.735   8.564
 3066POPC   D2A40516  24.473  40.804   8.264
 3066POPC   C3A40517  24.499  40.760   7.964
 3066POPC   C4A40518  24.493  40.772   7.664
 3066POPC   C1B40519  24.689  40.623   8.564
 3066POPC   C2B40520  24.618  40.594   8.264
 3066POPC   C3B40521  24.664  40.610   7.964
 3066POPC   C4B40522  24.624  40.574   7.664
 3067POPC   NC340523  36.117  35.313   9.464
 3067POPC   PO440524  36.167  35.316   9.164
 3067POPC   GL140525  36.157  35.314   8.864
 3067POPC   GL240526  36.037  35.374   8.864
 3067POPC   C1A40527  36.098  35.398   8.564
 3067POPC   D2A40528  36.147  35.371   8.264
 3067POPC   C3A40529  36.137  35.348   7.964
 3067POPC   C4A40530  36.083  35.353   7.664
 3067POPC   C1B40531  35.866  35.293   8.564
 3067POPC   C2B40532  35.878  35.268   8.264
 3067POPC   C3B40533  35.871  35.321   7.964
 3067POPC   C4B40534  35.924  35.307   7.664
 3068POPC   NC340535  32.269  27.606   9.464
 3068POPC   PO440536  32.204  27.585   9.164
 3068POPC   GL140537  32.226  27.610   8.864
 3068POPC   GL240538  32.133  27.711   8.864
 3068POPC   C1A40539  32.285  27.632   8.564
 3068POPC   D2A40540  32.231  27.598   8.264
 3068POPC   C3A40541  32.228  27.609   7.964
 3068POPC   C4A40542  32.254  27.626   7.664
 3068POPC   C1B40543  32.057  27.800   8.564
 3068POPC   C2B40544  32.020  27.720   8.264
 3068POPC   C3B40545  32.079  27.773   7.964
 3068POPC   C4B40546  32.026  27.715   7.664
 3069POPC   NC340547  38.442  15.165   9.464
 3069POPC   PO440548  38.469  15.223   9.164
 3069POPC   GL140549  38.429  15.158   8.864
 3069POPC   GL240550  38.353  15.173   8.864
 3069POPC   C1A40551  38.448  15.152   8.564
 3069POPC   D2A40552  38.431  15.176   8.264
 3069POPC   C3A40553  38.454  15.157   7.964
 3069POPC   C4A40554  38.488  15.222   7.664
 3069POPC   C1B40555  38.194  15.067   8.564
 3069POPC   C2B40556  38.230  15.112   8.264
 3069POPC   C3B40557  38.192  15.088   7.964
 3069POPC   C4B40558  38.196  15.044   7.664
 3070POPC   NC340559   3.585  19.090   9.464
 3070POPC   PO440560   3.537  19.090   9.164
 3070POPC   GL140561   3.539  19.085   8.864
 3070POPC   GL240562   3.380  18.982   8.864
 3070POPC   C1A40563   3.498  19.027   8.564
 3070POPC   D2A40564   3.589  19.090   8.264
 3070POPC   C3A40565   3.513  19.034   7.964
 3070POPC   C4A40566   3.528  19.105   7.664
 3070POPC   C1B40567   3.333  18.976   8.564
 3070POPC   C2B40568   3.286  18.970   8.264
 3070POPC   C3B40569   3.341  18.991   7.964
 3070POPC   C4B40570   3.345  18.909   7.664
 3071POPC   NC340571  39.258  29.966   9.464
 3071POPC   PO440572  39.251  29.946   9.164
 3071POPC   GL140573  39.184  29.892   8.864
 3071POPC   GL240574  39.196  29.998   8.864
 3071POPC   C1A40575  39.185  29.886   8.564
 3071POPC   D2A40576  39.228  29.918   8.264
 3071POPC   C3A40577  39.258  29.875   7.964
 3071POPC   C4A40578  39.259  29.950   7.664
 3071POPC   C1B40579  39.185  30.202   8.564
 3071POPC   C2B40580  39.139  30.200   8.264
 3071POPC   C3B40581  39.168  30.140   7.964
 3071POPC   C4B40582  39.105  30.132   7.664
 3072POPC   NC340583  33.791  40.807   9.464
 3072POPC   PO440584  33.804  40.828   9.164
 3072POPC   GL140585  33.750  40.759   8.864
 3072POPC   GL240586  33.659  40.680   8.864
 3072POPC   C1A40587  33.763  40.828   8.564
 3072POPC   D2A40588  33.849  40.733   8.264
 3072POPC   C3A40589  33.789  40.763   7.964
 3072POPC   C4A40590  33.775  40.737   7.664
 3072POPC   C1B40591  33.661  40.645   8.564
 3072POPC   C2B40592  33.652  40.617   8.264
 3072POPC   C3B40593  33.610  40.649   7.964
 3072POPC   C4B40594  33.655  40.598   7.664
 3073POPC   NC340595   5.876  43.921   9.464
 3073POPC   PO440596   5.900  43.853   9.164
 3073POPC   GL140597   5.918  43.849   8.864
 3073POPC   GL240598   5.851  43.999   8.864
 3073POPC   C1A40599   5.820  43.923   8.564
 3073POPC   D2A40600   5.837  43.930   8.264
 3073POPC   C3A40601   5.870  43.868   7.964
 3073POPC   C4A40602   5.848  43.886   7.664
 3073POPC   C1B40603   5.884  44.149   8.564
 3073POPC   C2B40604   5.812  44.111   8.264
 3073POPC   C3B40605   5.874  44.094   7.964
 3073POPC   C4B40606   5.825  44.141   7.664
 3074POPC   NC340607  32.258  22.132   9.464
 3074POPC   PO440608  32.285  22.140   9.164
 3074POPC   GL140609  32.222  22.143   8.864
 3074POPC   GL240610  32.153  22.117   8.864
 3074POPC   C1A40611  32.279  22.187   8.564
 3074POPC   D2A40612  32.211  22.178   8.264
 3074POPC   C3A40613  32.287  22.197   7.964
 3074POPC   C4A40614  32.279  22.182   7.664
 3074POPC   C1B40615  32.046  22.062   8.564
 3074POPC   C2B40616  32.029  22.010   8.264
 3074POPC   C3B40617  32.054  22.029   7.964
 3074POPC   C4B40618  31.989  22.073   7.664
 3075POPC   NC340619  33.784  17.542   9.464
 3075POPC   PO440620  33.841  17.467   9.164
 3075POPC   GL140621  33.805  17.496   8.864
 3075POPC   GL240622  33.941  17.531   8.864
 3075POPC   C1A40623  33.801  17.508   8.564
 3075POPC   D2A40624  33.754  17.543   8.264
 3075POPC   C3A40625  33.777  17.490   7.964
 3075POPC   C4A40626  33.823  17.489   7.664
 3075POPC   C1B40627  34.029  17.578   8.564
 3075POPC   C2B40628  33.981  17.622   8.264
 3075POPC   C3B40629  34.068  17.615   7.964
 3075POPC   C4B40630  33.981  17.653   7.664
 3076POPC   NC340631  19.024  42.380   9.464
 3076POPC   PO440632  19.012  42.311   9.164
 3076POPC   GL140633  19.080  42.353   8.864
 3076POPC   GL240634  19.074  42.190   8.864
 3076POPC   C1A40635  19.044  42.341   8.564
 3076POPC   D2A40636  19.011  42.341   8.264
 3076POPC   C3A40637  19.054  42.355   7.964
 3076POPC   C4A40638  19.055  42.339   7.664
 3076POPC   C1B40639  19.053  42.066   8.564
 3076POPC   C2B40640  19.033  42.086   8.264
 3076POPC   C3B40641  19.046  42.101   7.964
 3076POPC   C4B40642  19.049  42.059   7.664
 3077POPC   NC340643   6.615  12.879   9.464
 3077POPC   PO440644   6.644  12.890   9.164
 3077POPC   GL140645   6.689  12.850   8.864
 3077POPC   GL240646   6.711  12.947   8.864
 3077POPC   C1A40647   6.674  12.892   8.564
 3077POPC   D2A40648   6.690  12.880   8.264
 3077POPC   C3A40649   6.671  12.871   7.964
 3077POPC   C4A40650   6.607  12.884   7.664
 3077POPC   C1B40651   6.787  13.033   8.564
 3077POPC   C2B40652   6.799  13.094   8.264
 3077POPC   C3B40653   6.710  13.028   7.964
 3077POPC   C4B40654   6.784  13.084   7.664
 3078POPC   NC340655  41.523   1.225   9.464
 3078POPC   PO440656  41.542   1.222   9.164
 3078POPC   GL140657  41.593   1.238   8.864
 3078POPC   GL240658  41.450   1.218   8.864
 3078POPC   C1A40659  41.571   1.208   8.564
 3078POPC   D2A40660  41.594   1.236   8.264
 3078POPC   C3A40661  41.600   1.210   7.964
 3078POPC   C4A40662  41.602   1.178   7.664
 3078POPC   C1B40663  41.272   1.294   8.564
 3078POPC   C2B40664  41.285   1.285   8.264
 3078POPC   C3B40665  41.279   1.263   7.964
 3078POPC   C4B40666  41.366   1.321   7.664
 3079POPC   NC340667  23.673  38.466   9.464
 3079POPC   PO440668  23.761  38.488   9.164
 3079POPC   GL140669  23.668  38.476   8.864
 3079POPC   GL240670  23.616  38.490   8.864
 3079POPC   C1A40671  23.762  38.411   8.564
 3079POPC   D2A40672  23.675  38.498   8.264
 3079POPC   C3A40673  23.749  38.465   7.964
 3079POPC   C4A40674  23.689  38.493   7.664
 3079POPC   C1B40675  23.500  38.467   8.564
 3079POPC   C2B40676  23.417  38.477   8.264
 3079POPC   C3B40677  23.437  38.425   7.964
 3079POPC   C4B40678  23.435  38.448   7.664
 3080POPC   NC340679  39.997  31.503   9.464
 3080POPC   PO440680  39.962  31.448   9.164
 3080POPC   GL140681  39.966  31.468   8.864
 3080POPC   GL240682  40.100  31.559   8.864
 3080POPC   C1A40683  39.968  31.474   8.564
 3080POPC   D2A40684  40.045  31.470   8.264
 3080POPC   C3A40685  39.970  31.488   7.964
 3080POPC   C4A40686  40.031  31.516   7.664
 3080POPC   C1B40687  40.159  31.722   8.564
 3080POPC   C2B40688  40.118  31.726   8.264
 3080POPC   C3B40689  40.151  31.732   7.964
 3080POPC   C4B40690  40.115  31.696   7.664
 3081POPC   NC340691  19.825  30.665   9.464
 3081POPC   PO440692  19.871  30.722   9.164
 3081POPC   GL140693  19.862  30.665   8.864
 3081POPC   GL240694  19.901  30.661   8.864
 3081POPC   C1A40695  19.785  30.689   8.564
 3081POPC   D2A40696  19.830  30.686   8.264
 3081POPC   C3A40697  19.853  30.728   7.964
 3081POPC   C4A40698  19.786  30.711   7.664
 3081POPC   C1B40699  20.063  30.608   8.564
 3081POPC   C2B40700  20.101  30.616   8.264
 3081POPC   C3B40701  20.087  30.567   7.964
 3081POPC   C4B40702  20.095  30.606   7.664
 3082POPC   NC340703  37.658  29.186   9.464
 3082POPC   PO440704  37.674  29.147   9.164
 3082POPC   GL140705  37.644  29.170   8.864
 3082POPC   GL240706  37.800  29.220   8.864
 3082POPC   C1A40707  37.637  29.107   8.564
 3082POPC   D2A40708  37.697  29.157   8.264
 3082POPC   C3A40709  37.714  29.154   7.964
 3082POPC   C4A40710  37.707  29.155   7.664
 3082POPC   C1B40711  37.899  29.209   8.564
 3082POPC   C2B40712  37.892  29.205   8.264
 3082POPC   C3B40713  37.901  29.163   7.964
 3082POPC   C4B40714  37.899  29.243   7.664
 3083POPC   NC340715  24.450  29.882   9.464
 3083POPC   PO440716  24.522  29.923   9.164
 3083POPC   GL140717  24.512  29.948   8.864
 3083POPC   GL240718  24.562  30.014   8.864
 3083POPC   C1A40719  24.441  29.970   8.564
 3083POPC   D2A40720  24.523  29.941   8.264
 3083POPC   C3A40721  24.484  29.886   7.964
 3083POPC   C4A40722  24.536  29.889   7.664
 3083POPC   C1B40723  24.682  29.989   8.564
 3083POPC   C2B40724  24.684  29.963   8.264
 3083POPC   C3B40725  24.731  29.990   7.964
 3083POPC   C4B40726  24.756  30.054   7.664
 3084POPC   NC340727  41.521  44.633   9.464
 3084POPC   PO440728  41.566  44.672   9.164
 3084POPC   GL140729  41.599  44.663   8.864
 3084POPC   GL240730  41.623  44.506   8.864
 3084POPC   C1A40731  41.550  44.625   8.564
 3084POPC   D2A40732  41.530  44.643   8.264
 3084POPC   C3A40733  41.577  44.689   7.964
 3084POPC   C4A40734  41.538  44.698   7.664
 3084POPC   C1B40735  41.667  44.418   8.564
 3084POPC   C2B40736  41.672  44.408   8.264
 3084POPC   C3B40737  41.667  44.400   7.964
 3084POPC   C4B40738  41.669  44.464   7.664
 3085POPC   NC340739  10.531  30.706   9.464
 3085POPC   PO440740  10.509  30.680   9.164
 3085POPC   GL140741  10.499  30.701   8.864
 3085POPC   GL240742  10.603  30.750   8.864
 3085POPC   C1A40743  10.531  30.696   8.564
 3085POPC   D2A40744  10.556  30.709   8.264
 3085POPC   C3A40745  10.475  30.740   7.964
 3085POPC   C4A40746  10.512  30.724   7.664
 3085POPC   C1B40747  10.674  30.847   8.564
 3085POPC   C2B40748  10.685  30.898   8.264
 3085POPC   C3B40749  10.657  30.851   7.964
 3085POPC   C4B40750  10.706  30.865   7.664
 3086POPC   NC340751  37.635  17.549   9.464
 3086POPC   PO440752  37.681  17.522   9.164
 3086POPC   GL140753  37.652  17.556   8.864
 3086POPC   GL240754  37.605  17.373   8.864
 3086POPC   C1A40755  37.668  17.538   8.564
 3086POPC   D2A40756  37.668  17.521   8.264
 3086POPC   C3A40757  37.649  17.470   7.964
 3086POPC   C4A40758  37.655  17.487   7.664
 3086POPC   C1B40759  37.544  17.272   8.564
 3086POPC   C2B40760  37.618  17.257   8.264
 3086POPC   C3B40761  37.590  17.261   7.964
 3086POPC   C4B40762  37.572  17.246   7.664
 3087POPC   NC340763  29.926  19.879   9.464
 3087POPC   PO440764  29.960  19.834   9.164
 3087POPC   GL140765  29.899  19.819   8.864
 3087POPC   GL240766  29.827  19.872   8.864
 3087POPC   C1A40767  29.965  19.882   8.564
 3087POPC   D2A40768  29.922  19.869   8.264
 3087POPC   C3A40769  29.900  19.841   7.964
 3087POPC   C4A40770  29.921  19.835   7.664
 3087POPC   C1B40771  29.682  19.944   8.564
 3087POPC   C2B40772  29.710  19.897   8.264
 3087POPC   C3B40773  29.739  19.914   7.964
 3087POPC   C4B40774  29.661  19.964   7.664
 3088POPC   NC340775   7.445  30.697   9.464
 3088POPC   PO440776   7.415  30.695   9.164
 3088POPC   GL140777   7.423  30.692   8.864
 3088POPC   GL240778   7.563  30.778   8.864
 3088POPC   C1A40779   7.380  30.741   8.564
 3088POPC   D2A40780   7.407  30.657   8.264
 3088POPC   C3A40781   7.451  30.689   7.964
 3088POPC   C4A40782   7.382  30.673   7.664
 3088POPC   C1B40783   7.656  30.840   8.564
 3088POPC   C2B40784   7.598  30.803   8.264
 3088POPC   C3B40785   7.631  30.858   7.964
 3088POPC   C4B40786   7.608  30.823   7.664
 3089POPC   NC340787  19.874  19.095   9.464
 3089POPC   PO440788  19.791  19.019   9.164
 3089POPC   GL140789  19.823  19.056   8.864
 3089POPC   GL240790  19.832  18.989   8.864
 3089POPC   C1A40791  19.842  19.054   8.564
 3089POPC   D2A40792  19.838  19.026   8.264
 3089POPC   C3A40793  19.849  19.078   7.964
 3089POPC   C4A40794  19.810  19.020   7.664
 3089POPC   C1B40795  19.724  18.862   8.564
 3089POPC   C2B40796  19.759  18.810   8.264
 3089POPC   C3B40797  19.728  18.843   7.964
 3089POPC   C4B40798  19.807  18.858   7.664
 3090POPC   NC340799  15.136  33.062   9.464
 3090POPC   PO440800  15.139  33.050   9.164
 3090POPC   GL140801  15.133  32.977   8.864
 3090POPC   GL240802  15.152  32.876   8.864
 3090POPC   C1A40803  15.155  33.060   8.564
 3090POPC   D2A40804  15.154  33.030   8.264
 3090POPC   C3A40805  15.195  33.071   7.964
 3090POPC   C4A40806  15.190  33.059   7.664
 3090POPC   C1B40807  15.140  32.771   8.564
 3090POPC   C2B40808  15.142  32.800   8.264
 3090POPC   C3B40809  15.172  32.799   7.964
 3090POPC   C4B40810  15.150  32.799   7.664
 3091POPC   NC340811   3.577  10.484   9.464
 3091POPC   PO440812   3.520  10.547   9.164
 3091POPC   GL140813   3.508  10.525   8.864
 3091POPC   GL240814   3.427  10.531   8.864
 3091POPC   C1A40815   3.586  10.477   8.564
 3091POPC   D2A40816   3.584  10.559   8.264
 3091POPC   C3A40817   3.561  10.475   7.964
 3091POPC   C4A40818   3.493  10.509   7.664
 3091POPC   C1B40819   3.249  10.526   8.564
 3091POPC   C2B40820   3.255  10.543   8.264
 3091POPC   C3B40821   3.288  10.533   7.964
 3091POPC   C4B40822   3.329  10.520   7.664
 3092POPC   NC340823  22.162  15.996   9.464
 3092POPC   PO440824  22.206  15.983   9.164
 3092POPC   GL140825  22.153  16.003   8.864
 3092POPC   GL240826  22.040  15.907   8.864
 3092POPC   C1A40827  22.167  15.952   8.564
 3092POPC   D2A40828  22.179  15.976   8.264
 3092POPC   C3A40829  22.139  15.938   7.964
 3092POPC   C4A40830  22.191  15.952   7.664
 3092POPC   C1B40831  21.921  15.937   8.564
 3092POPC   C2B40832  21.917  15.930   8.264
 3092POPC   C3B40833  21.919  15.862   7.964
 3092POPC   C4B40834  21.893  15.898   7.664
 3093POPC   NC340835   3.540  22.906   9.464
 3093POPC   PO440836   3.508  22.927   9.164
 3093POPC   GL140837   3.573  22.931   8.864
 3093POPC   GL240838   3.604  23.002   8.864
 3093POPC   C1A40839   3.521  22.902   8.564
 3093POPC   D2A40840   3.575  22.888   8.264
 3093POPC   C3A40841   3.526  22.979   7.964
 3093POPC   C4A40842   3.524  22.923   7.664
 3093POPC   C1B40843   3.773  23.060   8.564
 3093POPC   C2B40844   3.740  23.117   8.264
 3093POPC   C3B40845   3.709  23.097   7.964
 3093POPC   C4B40846   3.723  23.101   7.664
 3094POPC   NC340847  38.465   3.493   9.464
 3094POPC   PO440848  38.502   3.587   9.164
 3094POPC   GL140849  38.470   3.541   8.864
 3094POPC   GL240850  38.517   3.483   8.864
 3094POPC   C1A40851  38.473   3.506   8.564
 3094POPC   D2A40852  38.429   3.574   8.264
 3094POPC   C3A40853  38.489   3.563   7.964
 3094POPC   C4A40854  38.411   3.527   7.664
 3094POPC   C1B40855  38.529   3.275   8.564
 3094POPC   C2B40856  38.594   3.276   8.264
 3094POPC   C3B40857  38.550   3.341   7.964
 3094POPC   C4B40858  38.569   3.298   7.664
 3095POPC   NC340859  23.690  25.296   9.464
 3095POPC   PO440860  23.758  25.313   9.164
 3095POPC   GL140861  23.736  25.216   8.864
 3095POPC   GL240862  23.845  25.246   8.864
 3095POPC   C1A40863  23.714  25.299   8.564
 3095POPC   D2A40864  23.704  25.284   8.264
 3095POPC   C3A40865  23.671  25.233   7.964
 3095POPC   C4A40866  23.755  25.229   7.664
 3095POPC   C1B40867  23.938  25.272   8.564
 3095POPC   C2B40868  23.926  25.312   8.264
 3095POPC   C3B40869  23.961  25.346   7.964
 3095POPC   C4B40870  23.959  25.267   7.664
 3096POPC   NC340871  21.428  29.936   9.464
 3096POPC   PO440872  21.436  29.911   9.164
 3096POPC   GL140873  21.357  29.890   8.864
 3096POPC   GL240874  21.393  29.788   8.864
 3096POPC   C1A40875  21.425  29.875   8.564
 3096POPC   D2A40876  21.372  29.890   8.264
 3096POPC   C3A40877  21.394  29.897   7.964
 3096POPC   C4A40878  21.393  29.905   7.664
 3096POPC   C1B40879  21.529  29.687   8.564
 3096POPC   C2B40880  21.486  29.687   8.264
 3096POPC   C3B40881  21.513  29.729   7.964
 3096POPC   C4B40882  21.543  29.689   7.664
 3097POPC   NC340883  12.860   5.824   9.464
 3097POPC   PO440884  12.872   5.881   9.164
 3097POPC   GL140885  12.840   5.889   8.864
 3097POPC   GL240886  12.898   5.791   8.864
 3097POPC   C1A40887  12.850   5.872   8.564
 3097POPC   D2A40888  12.836   5.862   8.264
 3097POPC   C3A40889  12.816   5.836   7.964
 3097POPC   C4A40890  12.868   5.895   7.664
 3097POPC   C1B40891  12.991   5.640   8.564
 3097POPC   C2B40892  12.960   5.639   8.264
 3097POPC   C3B40893  12.916   5.690   7.964
 3097POPC   C4B40894  12.990   5.608   7.664
 3098POPC   NC340895  10.487   4.307   9.464
 3098POPC   PO440896  10.554   4.268   9.164
 3098POPC   GL140897  10.536   4.312   8.864
 3098POPC   GL240898  10.432   4.306   8.864
 3098POPC   C1A40899  10.480   4.294   8.564
 3098POPC   D2A40900  10.561   4.322   8.264
 3098POPC   C3A40901  10.474   4.292   7.964
 3098POPC   C4A40902  10.552   4.353   7.664
 3098POPC   C1B40903  10.292   4.325   8.564
 3098POPC   C2B40904  10.275   4.395   8.264
 3098POPC   C3B40905  10.243   4.363   7.964
 3098POPC   C4B40906  10.226   4.354   7.664
 3099POPC   NC340907  11.345   1.188   9.464
 3099POPC   PO440908  11.336   1.217   9.164
 3099POPC   GL140909  11.340   1.199   8.864
 3099POPC   GL240910  11.312   1.117   8.864
 3099POPC   C1A40911  11.259   1.204   8.564
 3099POPC   D2A40912  11.334   1.195   8.264
 3099POPC   C3A40913  11.272   1.233   7.964
 3099POPC   C4A40914  11.295   1.214   7.664
 3099POPC   C1B40915  11.376   0.947   8.564
 3099POPC   C2B40916  11.325   1.012   8.264
 3099POPC   C3B40917  11.371   0.932   7.964
 3099POPC   C4B40918  11.320   1.007   7.664
 3100POPC   NC340919  16.749  24.529   9.464
 3100POPC   PO440920  16.780  24.491   9.164
 3100POPC   GL140921  16.728  24.501   8.864
 3100POPC   GL240922  16.659  24.572   8.864
 3100POPC   C1A40923  16.759  24.464   8.564
 3100POPC   D2A40924  16.757  24.535   8.264
 3100POPC   C3A40925  16.696  24.526   7.964
 3100POPC   C4A40926  16.771  24.441   7.664
 3100POPC   C1B40927  16.541  24.608   8.564
 3100POPC   C2B40928  16.473  24.568   8.264
 3100POPC   C3B40929  16.517  24.612   7.964
 3100POPC   C4B40930  16.466  24.597   7.664
 3101POPC   NC340931   8.170   9.750   9.464
 3101POPC   PO440932   8.159   9.761   9.164
 3101POPC   GL140933   8.181   9.707   8.864
 3101POPC   GL240934   8.328   9.850   8.864
 3101POPC   C1A40935   8.245   9.700   8.564
 3101POPC   D2A40936   8.175   9.704   8.264
 3101POPC   C3A40937   8.155   9.781   7.964
 3101POPC   C4A40938   8.196   9.757   7.664
 3101POPC   C1B40939   8.414   9.902   8.564
 3101POPC   C2B40940   8.423   9.928   8.264
 3101POPC   C3B40941   8.349   9.966   7.964
 3101POPC   C4B40942   8.349   9.941   7.664
 3102POPC   NC340943  41.597  15.164   9.464
 3102POPC   PO440944  41.603  15.215   9.164
 3102POPC   GL140945  41.549  15.129   8.864
 3102POPC   GL240946  41.673  15.050   8.864
 3102POPC   C1A40947  41.513  15.134   8.564
 3102POPC   D2A40948  41.589  15.153   8.264
 3102POPC   C3A40949  41.576  15.211   7.964
 3102POPC   C4A40950  41.529  15.177   7.664
 3102POPC   C1B40951  41.727  14.964   8.564
 3102POPC   C2B40952  41.679  14.996   8.264
 3102POPC   C3B40953  41.730  14.979   7.964
 3102POPC   C4B40954  41.696  14.978   7.664
 3103POPC   NC340955  15.974  31.464   9.464
 3103POPC   PO440956  15.961  31.452   9.164
 3103POPC   GL140957  15.962  31.493   8.864
 3103POPC   GL240958  16.029  31.481   8.864
 3103POPC   C1A40959  15.950  31.507   8.564
 3103POPC   D2A40960  15.996  31.503   8.264
 3103POPC   C3A40961  15.971  31.517   7.964
 3103POPC   C4A40962  15.994  31.480   7.664
 3103POPC   C1B40963  16.142  31.570   8.564
 3103POPC   C2B40964  16.184  31.529   8.264
 3103POPC   C3B40965  16.212  31.618   7.964
 3103POPC   C4B40966  16.209  31.561   7.664
 3104POPC   NC340967  33.800  21.399   9.464
 3104POPC   PO440968  33.821  21.365   9.164
 3104POPC   GL140969  33.803  21.404   8.864
 3104POPC   GL240970  33.718  21.377   8.864
 3104POPC   C1A40971  33.839  21.363   8.564
 3104POPC   D2A40972  33.777  21.343   8.264
 3104POPC   C3A40973  33.831  21.423   7.964
 3104POPC   C4A40974  33.820  21.407   7.664
 3104POPC   C1B40975  33.599  21.284   8.564
 3104POPC   C2B40976  33.523  21.314   8.264
 3104POPC   C3B40977  33.516  21.347   7.964
 3104POPC   C4B40978  33.608  21.350   7.664
 3105POPC   NC340979  33.795  26.045   9.464
 3105POPC   PO440980  33.827  26.062   9.164
 3105POPC   GL140981  33.765  26.054   8.864
 3105POPC   GL240982  33.845  26.130   8.864
 3105POPC   C1A40983  33.801  25.999   8.564
 3105POPC   D2A40984  33.808  26.083   8.264
 3105POPC   C3A40985  33.769  26.084   7.964
 3105POPC   C4A40986  33.818  26.058   7.664
 3105POPC   C1B40987  33.771  26.250   8.564
 3105POPC   C2B40988  33.852  26.306   8.264
 3105POPC   C3B40989  33.814  26.300   7.964
 3105POPC   C4B40990  33.762  26.267   7.664
 3106POPC   NC340991  36.113   2.781   9.464
 3106POPC   PO440992  36.166   2.762   9.164
 3106POPC   GL140993  36.147   2.779   8.864
 3106POPC   GL240994  36.006   2.679   8.864
 3106POPC   C1A40995  36.141   2.775   8.564
 3106POPC   D2A40996  36.147   2.767   8.264
 3106POPC   C3A40997  36.112   2.719   7.964
 3106POPC   C4A40998  36.169   2.796   7.664
 3106POPC   C1B40999  35.874   2.710   8.564
 3106POPC   C2B41000  35.850   2.696   8.264
 3106POPC   C3B41001  35.851   2.640   7.964
 3106POPC   C4B41002  35.891   2.730   7.664
 3107POPC   NC341003  21.369  22.971   9.464
 3107POPC   PO441004  21.359  22.943   9.164
 3107POPC   GL141005  21.433  22.927   8.864
 3107POPC   GL241006  21.301  23.012   8.864
 3107POPC   C1A41007  21.399  22.965   8.564
 3107POPC   D2A41008  21.427  22.917   8.264
 3107POPC   C3A41009  21.422  22.967   7.964
 3107POPC   C4A41010  21.345  22.973   7.664
 3107POPC   C1B41011  21.250  23.215   8.564
 3107POPC   C2B41012  21.277  23.134   8.264
 3107POPC   C3B41013  21.291  23.166   7.964
 3107POPC   C4B41014  21.284  23.216   7.664
 3108POPC   NC341015  19.074  36.863   9.464
 3108POPC   PO441016  19.084  36.881   9.164
 3108POPC   GL141017  19.080  36.884   8.864
 3108POPC   GL241018  18.931  36.826   8.864
 3108POPC   C1A41019  19.097  36.867   8.564
 3108POPC   D2A41020  19.020  36.949   8.264
 3108POPC   C3A41021  19.061  36.887   7.964
 3108POPC   C4A41022  19.044  36.947   7.664
 3108POPC   C1B41023  18.791  36.794   8.564
 3108POPC   C2B41024  18.867  36.757   8.264
 3108POPC   C3B41025  18.835  36.742   7.964
 3108POPC   C4B41026  18.835  36.818   7.664
 3109POPC   NC341027  33.027   1.194   9.464
 3109POPC   PO441028  33.065   1.169   9.164
 3109POPC   GL141029  33.048   1.256   8.864
 3109POPC   GL241030  33.041   1.102   8.864
 3109POPC   C1A41031  33.014   1.262   8.564
 3109POPC   D2A41032  33.030   1.169   8.264
 3109POPC   C3A41033  33.031   1.226   7.964
 3109POPC   C4A41034  33.005   1.219   7.664
 3109POPC   C1B41035  33.085   0.990   8.564
 3109POPC   C2B41036  33.107   0.962   8.264
 3109POPC   C3B41037  33.180   0.970   7.964
 3109POPC   C4B41038  33.095   1.015   7.664
 3110POPC   NC341039  15.204  44.654   9.464
 3110POPC   PO441040  15.167  44.647   9.164
 3110POPC   GL141041  15.134  44.642   8.864
 3110POPC   GL241042  15.152  44.804   8.864
 3110POPC   C1A41043  15.210  44.707   8.564
 3110POPC   D2A41044  15.137  44.694   8.264
 3110POPC   C3A41045  15.211  44.689   7.964
 3110POPC   C4A41046  15.149  44.633   7.664
 3110POPC   C1B41047  15.025  44.884   8.564
 3110POPC   C2B41048  15.102  44.837   8.264
 3110POPC   C3B41049  15.021  44.925   7.964
 3110POPC   C4B41050  15.023  44.860   7.664
 3111POPC   NC341051   4.357  14.426   9.464
 3111POPC   PO441052   4.340  14.365   9.164
 3111POPC   GL141053   4.305  14.374   8.864
 3111POPC   GL241054   4.419  14.340   8.864
 3111POPC   C1A41055   4.321  14.422   8.564
 3111POPC   D2A41056   4.354  14.443   8.264
 3111POPC   C3A41057   4.300  14.382   7.964
 3111POPC   C4A41058   4.322  14.359   7.664
 3111POPC   C1B41059   4.480  14.153   8.564
 3111POPC   C2B41060   4.463  14.196   8.264
 3111POPC   C3B41061   4.487  14.154   7.964
 3111POPC   C4B41062   4.469  14.169   7.664
 3112POPC   NC341063  35.342  11.270   9.464
 3112POPC   PO441064  35.363  11.259   9.164
 3112POPC   GL141065  35.364  11.330   8.864
 3112POPC   GL241066  35.456  11.299   8.864
 3112POPC   C1A41067  35.343  11.281   8.564
 3112POPC   D2A41068  35.325  11.336   8.264
 3112POPC   C3A41069  35.390  11.313   7.964
 3112POPC   C4A41070  35.357  11.263   7.664
 3112POPC   C1B41071  35.612  11.392   8.564
 3112POPC   C2B41072  35.611  11.435   8.264
 3112POPC   C3B41073  35.586  11.375   7.964
 3112POPC   C4B41074  35.546  11.432   7.664
 3113POPC   NC341075  23.751  29.881   9.464
 3113POPC   PO441076  23.673  29.929   9.164
 3113POPC   GL141077  23.721  29.948   8.864
 3113POPC   GL241078  23.723  30.095   8.864
 3113POPC   C1A41079  23.700  29.961   8.564
 3113POPC   D2A41080  23.762  29.888   8.264
 3113POPC   C3A41081  23.703  29.873   7.964
 3113POPC   C4A41082  23.701  29.914   7.664
 3113POPC   C1B41083  23.741  30.217   8.564
 3113POPC   C2B41084  23.695  30.209   8.264
 3113POPC   C3B41085  23.778  30.128   7.964
 3113POPC   C4B41086  23.698  30.196   7.664
 3114POPC   NC341087  13.622  19.070   9.464
 3114POPC   PO441088  13.578  19.046   9.164
 3114POPC   GL141089  13.578  19.022   8.864
 3114POPC   GL241090  13.649  18.923   8.864
 3114POPC   C1A41091  13.659  19.051   8.564
 3114POPC   D2A41092  13.615  19.103   8.264
 3114POPC   C3A41093  13.608  19.084   7.964
 3114POPC   C4A41094  13.603  19.030   7.664
 3114POPC   C1B41095  13.656  18.857   8.564
 3114POPC   C2B41096  13.654  18.789   8.264
 3114POPC   C3B41097  13.649  18.846   7.964
 3114POPC   C4B41098  13.717  18.823   7.664
 3115POPC   NC341099  10.523  38.450   5.564
 3115POPC   PO441100  10.492  38.461   5.864
 3115POPC   GL141101  10.515  38.484   6.164
 3115POPC   GL241102  10.643  38.574   6.164
 3115POPC   C1A41103  10.565  38.477   6.464
 3115POPC   D2A41104  10.495  38.483   6.764
 3115POPC   C3A41105  10.566  38.451   7.064
 3115POPC   C4A41106  10.519  38.485   7.364
 3115POPC   C1B41107  10.690  38.630   6.464
 3115POPC   C2B41108  10.640  38.648   6.764
 3115POPC   C3B41109  10.701  38.634   7.064
 3115POPC   C4B41110  10.732  38.635   7.364
 3116POPC   NC341111  36.104   3.522   5.564
 3116POPC   PO441112  36.128   3.535   5.864
 3116POPC   GL141113  36.124   3.559   6.164
 3116POPC   GL241114  36.090   3.641   6.164
 3116POPC   C1A41115  36.092   3.532   6.464
 3116POPC   D2A41116  36.137   3.551   6.764
 3116POPC   C3A41117  36.174   3.568   7.064
 3116POPC   C4A41118  36.096   3.498   7.364
 3116POPC   C1B41119  36.113   3.824   6.464
 3116POPC   C2B41120  36.094   3.747   6.764
 3116POPC   C3B41121  36.117   3.782   7.064
 3116POPC   C4B41122  36.113   3.772   7.364
 3117POPC   NC341123  20.616  39.221   5.564
 3117POPC   PO441124  20.582  39.196   5.864
 3117POPC   GL141125  20.640  39.195   6.164
 3117POPC   GL241126  20.518  39.144   6.164
 3117POPC   C1A41127  20.569  39.249   6.464
 3117POPC   D2A41128  20.620  39.206   6.764
 3117POPC   C3A41129  20.645  39.185   7.064
 3117POPC   C4A41130  20.635  39.245   7.364
 3117POPC   C1B41131  20.490  39.003   6.464
 3117POPC   C2B41132  20.488  38.979   6.764
 3117POPC   C3B41133  20.477  39.045   7.064
 3117POPC   C4B41134  20.484  39.060   7.364
 3118POPC   NC341135  28.400  41.528   5.564
 3118POPC   PO441136  28.322  41.606   5.864
 3118POPC   GL141137  28.396  41.520   6.164
 3118POPC   GL241138  28.435  41.642   6.164
 3118POPC   C1A41139  28.373  41.510   6.464
 3118POPC   D2A41140  28.347  41.553   6.764
 3118POPC   C3A41141  28.342  41.582   7.064
 3118POPC   C4A41142  28.346  41.512   7.364
 3118POPC   C1B41143  28.593  41.704   6.464
 3118POPC   C2B41144  28.553  41.680   6.764
 3118POPC   C3B41145  28.609  41.694   7.064
 3118POPC   C4B41146  28.617  41.749   7.364
 3119POPC   NC341147   0.480  29.179   5.564
 3119POPC   PO441148   0.416  29.192   5.864
 3119POPC   GL141149   0.464  29.166   6.164
 3119POPC   GL241150   0.302  29.167   6.164
 3119POPC   C1A41151   0.472  29.117   6.464
 3119POPC   D2A41152   0.473  29.128   6.764
 3119POPC   C3A41153   0.430  29.142   7.064
 3119POPC   C4A41154   0.483  29.125   7.364
 3119POPC   C1B41155   0.191  29.113   6.464
 3119POPC   C2B41156   0.192  29.131   6.764
 3119POPC   C3B41157   0.194  29.094   7.064
 3119POPC   C4B41158   0.189  29.091   7.364
 3120POPC   NC341159   6.638   8.149   5.564
 3120POPC   PO441160   6.603   8.195   5.864
 3120POPC   GL141161   6.676   8.197   6.164
 3120POPC   GL241162   6.734   8.176   6.164
 3120POPC   C1A41163   6.614   8.156   6.464
 3120POPC   D2A41164   6.676   8.240   6.764
 3120POPC   C3A41165   6.603   8.244   7.064
 3120POPC   C4A41166   6.683   8.173   7.364
 3120POPC   C1B41167   6.882   8.156   6.464
 3120POPC   C2B41168   6.835   8.074   6.764
 3120POPC   C3B41169   6.839   8.079   7.064
 3120POPC   C4B41170   6.911   8.076   7.364
 3121POPC   NC341171  34.603  19.056   5.564
 3121POPC   PO441172  34.579  19.054   5.864
 3121POPC   GL141173  34.612  19.091   6.164
 3121POPC   GL241174  34.630  19.144   6.164
 3121POPC   C1A41175  34.611  19.011   6.464
 3121POPC   D2A41176  34.626  19.016   6.764
 3121POPC   C3A41177  34.566  19.086   7.064
 3121POPC   C4A41178  34.556  19.076   7.364
 3121POPC   C1B41179  34.737  19.255   6.464
 3121POPC   C2B41180  34.750  19.301   6.764
 3121POPC   C3B41181  34.725  19.241   7.064
 3121POPC   C4B41182  34.688  19.301   7.364
 3122POPC   NC341183   1.210  38.460   5.564
 3122POPC   PO441184   1.165  38.414   5.864
 3122POPC   GL141185   1.192  38.495   6.164
 3122POPC   GL241186   1.276  38.562   6.164
 3122POPC   C1A41187   1.240  38.408   6.464
 3122POPC   D2A41188   1.195  38.429   6.764
 3122POPC   C3A41189   1.213  38.460   7.064
 3122POPC   C4A41190   1.252  38.469   7.364
 3122POPC   C1B41191   1.239  38.655   6.464
 3122POPC   C2B41192   1.279  38.745   6.764
 3122POPC   C3B41193   1.252  38.674   7.064
 3122POPC   C4B41194   1.308  38.699   7.364
 3123POPC   NC341195   8.151  28.347   5.564
 3123POPC   PO441196   8.157  28.410   5.864
 3123POPC   GL141197   8.171  28.340   6.164
 3123POPC   GL241198   8.360  28.353   6.164
 3123POPC   C1A41199   8.199  28.392   6.464
 3123POPC   D2A41200   8.204  28.393   6.764
 3123POPC   C3A41201   8.225  28.374   7.064
 3123POPC   C4A41202   8.189  28.367   7.364
 3123POPC   C1B41203   8.403  28.367   6.464
 3123POPC   C2B41204   8.410  28.301   6.764
 3123POPC   C3B41205   8.432  28.296   7.064
 3123POPC   C4B41206   8.460  28.347   7.364
 3124POPC   NC341207  36.876  43.862   5.564
 3124POPC   PO441208  36.896  43.868   5.864
 3124POPC   GL141209  36.935  43.865   6.164
 3124POPC   GL241210  37.056  43.827   6.164
 3124POPC   C1A41211  36.950  43.934   6.464
 3124POPC   D2A41212  36.931  43.868   6.764
 3124POPC   C3A41213  36.892  43.875   7.064
 3124POPC   C4A41214  36.935  43.889   7.364
 3124POPC   C1B41215  37.193  43.889   6.464
 3124POPC   C2B41216  37.154  43.826   6.764
 3124POPC   C3B41217  37.141  43.870   7.064
 3124POPC   C4B41218  37.163  43.834   7.364
 3125POPC   NC341219  19.040  26.852   5.564
 3125POPC   PO441220  19.094  26.783   5.864
 3125POPC   GL141221  19.032  26.823   6.164
 3125POPC   GL241222  18.900  26.801   6.164
 3125POPC   C1A41223  19.072  26.854   6.464
 3125POPC   D2A41224  19.104  26.798   6.764
 3125POPC   C3A41225  19.052  26.841   7.064
 3125POPC   C4A41226  19.019  26.818   7.364
 3125POPC   C1B41227  18.818  26.694   6.464
 3125POPC   C2B41228  18.854  26.751   6.764
 3125POPC   C3B41229  18.825  26.771   7.064
 3125POPC   C4B41230  18.792  26.772   7.364
 3126POPC   NC341231  22.122  39.183   5.564
 3126POPC   PO441232  22.161  39.184   5.864
 3126POPC   GL141233  22.129  39.267   6.164
 3126POPC   GL241234  22.176  39.155   6.164
 3126POPC   C1A41235  22.162  39.206   6.464
 3126POPC   D2A41236  22.190  39.203   6.764
 3126POPC   C3A41237  22.176  39.280   7.064
 3126POPC   C4A41238  22.152  39.210   7.364
 3126POPC   C1B41239  22.238  38.946   6.464
 3126POPC   C2B41240  22.212  38.981   6.764
 3126POPC   C3B41241  22.231  38.999   7.064
 3126POPC   C4B41242  22.203  38.946   7.364
 3127POPC   NC341243  29.156  28.334   5.564
 3127POPC   PO441244  29.167  28.385   5.864
 3127POPC   GL141245  29.154  28.324   6.164
 3127POPC   GL241246  29.204  28.280   6.164
 3127POPC   C1A41247  29.182  28.346   6.464
 3127POPC   D2A41248  29.142  28.352   6.764
 3127POPC   C3A41249  29.118  28.376   7.064
 3127POPC   C4A41250  29.158  28.383   7.364
 3127POPC   C1B41251  29.220  28.159   6.464
 3127POPC   C2B41252  29.262  28.168   6.764
 3127POPC   C3B41253  29.206  28.182   7.064
 3127POPC   C4B41254  29.207  28.113   7.364
 3128POPC   NC341255  12.813   9.011   5.564
 3128POPC   PO441256  12.821   8.998   5.864
 3128POPC   GL141257  12.893   8.977   6.164
 3128POPC   GL241258  12.777   8.862   6.164
 3128POPC   C1A41259  12.834   8.973   6.464
 3128POPC   D2A41260  12.807   8.959   6.764
 3128POPC   C3A41261  12.860   8.990   7.064
 3128POPC   C4A41262  12.822   8.961   7.364
 3128POPC   C1B41263  12.801   8.773   6.464
 3128POPC   C2B41264  12.838   8.716   6.764
 3128POPC   C3B41265  12.833   8.691   7.064
 3128POPC   C4B41266  12.824   8.763   7.364
 3129POPC   NC341267   5.838  37.641   5.564
 3129POPC   PO441268   5.907  37.678   5.864
 3129POPC   GL141269   5.871  37.636   6.164
 3129POPC   GL241270   5.788  37.604   6.164
 3129POPC   C1A41271   5.867  37.702   6.464
 3129POPC   D2A41272   5.831  37.683   6.764
 3129POPC   C3A41273   5.835  37.675   7.064
 3129POPC   C4A41274   5.905  37.650   7.364
 3129POPC   C1B41275   5.743  37.480   6.464
 3129POPC   C2B41276   5.726  37.523   6.764
 3129POPC   C3B41277   5.721  37.528   7.064
 3129POPC   C4B41278   5.714  37.523   7.364
 3130POPC   NC341279  19.056  41.555   5.564
 3130POPC   PO441280  19.015  41.569   5.864
 3130POPC   GL141281  19.062  41.591   6.164
 3130POPC   GL241282  19.129  41.453   6.164
 3130POPC   C1A41283  19.073  41.572   6.464
 3130POPC   D2A41284  19.062  41.589   6.764
 3130POPC   C3A41285  19.038  41.577   7.064
 3130POPC   C4A41286  19.043  41.597   7.364
 3130POPC   C1B41287  19.101  41.352   6.464
 3130POPC   C2B41288  19.152  41.340   6.764
 3130POPC   C3B41289  19.179  41.324   7.064
 3130POPC   C4B41290  19.123  41.365   7.364
 3131POPC   NC341291  31.442   9.704   5.564
 3131POPC   PO441292  31.485   9.717   5.864
 3131POPC   GL141293  31.430   9.795   6.164
 3131POPC   GL241294  31.591   9.666   6.164
 3131POPC   C1A41295  31.445   9.701   6.464
 3131POPC   D2A41296  31.488   9.764   6.764
 3131POPC   C3A41297  31.490   9.784   7.064
 3131POPC   C4A41298  31.517   9.719   7.364
 3131POPC   C1B41299  31.661   9.670   6.464
 3131POPC   C2B41300  31.651   9.580   6.764
 3131POPC   C3B41301  31.720   9.643   7.064
 3131POPC   C4B41302  31.673   9.636   7.364
 3132POPC   NC341303  32.240  41.576   5.564
 3132POPC   PO441304  32.292  41.558   5.864
 3132POPC   GL141305  32.202  41.533   6.164
 3132POPC   GL241306  32.086  41.530   6.164
 3132POPC   C1A41307  32.211  41.589   6.464
 3132POPC   D2A41308  32.281  41.563   6.764
 3132POPC   C3A41309  32.275  41.601   7.064
 3132POPC   C4A41310  32.287  41.590   7.364
 3132POPC   C1B41311  31.988  41.465   6.464
 3132POPC   C2B41312  31.957  41.518   6.764
 3132POPC   C3B41313  32.017  41.475   7.064
 3132POPC   C4B41314  32.002  41.516   7.364
 3133POPC   NC341315  28.344  26.060   5.564
 3133POPC   PO441316  28.323  26.050   5.864
 3133POPC   GL141317  28.417  26.009   6.164
 3133POPC   GL241318  28.306  26.181   6.164
 3133POPC   C1A41319  28.373  26.076   6.464
 3133POPC   D2A41320  28.356  26.062   6.764
 3133POPC   C3A41321  28.349  25.994   7.064
 3133POPC   C4A41322  28.334  26.055   7.364
 3133POPC   C1B41323  28.234  26.275   6.464
 3133POPC   C2B41324  28.188  26.245   6.764
 3133POPC   C3B41325  28.188  26.199   7.064
 3133POPC   C4B41326  28.244  26.270   7.364
 3134POPC   NC341327  43.860   0.457   5.564
 3134POPC   PO441328  43.878   0.485   5.864
 3134POPC   GL141329  43.865   0.423   6.164
 3134POPC   GL241330  43.832   0.347   6.164
 3134POPC   C1A41331  43.930   0.390   6.464
 3134POPC   D2A41332  43.876   0.476   6.764
 3134POPC   C3A41333  43.857   0.390   7.064
 3134POPC   C4A41334  43.907   0.453   7.364
 3134POPC   C1B41335  43.778   0.220   6.464
 3134POPC   C2B41336  43.778   0.253   6.764
 3134POPC   C3B41337  43.740   0.173   7.064
 3134POPC   C4B41338  43.756   0.172   7.364
 3135POPC   NC341339   1.185   9.012   5.564
 3135POPC   PO441340   1.190   8.984   5.864
 3135POPC   GL141341   1.257   9.007   6.164
 3135POPC   GL241342   1.109   9.041   6.164
 3135POPC   C1A41343   1.226   9.000   6.464
 3135POPC   D2A41344   1.211   8.956   6.764
 3135POPC   C3A41345   1.181   8.997   7.064
 3135POPC   C4A41346   1.209   8.974   7.364
 3135POPC   C1B41347   0.982   9.120   6.464
 3135POPC   C2B41348   0.947   9.099   6.764
 3135POPC   C3B41349   0.947   9.126   7.064
 3135POPC   C4B41350   0.959   9.076   7.364
 3136POPC   NC341351  14.366  30.729   5.564
 3136POPC   PO441352  14.369  30.688   5.864
 3136POPC   GL141353  14.450  30.676   6.164
 3136POPC   GL241354  14.413  30.533   6.164
 3136POPC   C1A41355  14.375  30.700   6.464
 3136POPC   D2A41356  14.395  30.701   6.764
 3136POPC   C3A41357  14.422  30.647   7.064
 3136POPC   C4A41358  14.416  30.683   7.364
 3136POPC   C1B41359  14.427  30.448   6.464
 3136POPC   C2B41360  14.401  30.415   6.764
 3136POPC   C3B41361  14.422  30.455   7.064
 3136POPC   C4B41362  14.402  30.430   7.364
 3137POPC   NC341363   3.537  39.971   5.564
 3137POPC   PO441364   3.536  40.000   5.864
 3137POPC   GL141365   3.505  40.024   6.164
 3137POPC   GL241366   3.404  39.962   6.164
 3137POPC   C1A41367   3.491  39.970   6.464
 3137POPC   D2A41368   3.572  39.972   6.764
 3137POPC   C3A41369   3.531  40.041   7.064
 3137POPC   C4A41370   3.562  40.037   7.364
 3137POPC   C1B41371   3.340  39.858   6.464
 3137POPC   C2B41372   3.352  39.882   6.764
 3137POPC   C3B41373   3.363  39.902   7.064
 3137POPC   C4B41374   3.341  39.921   7.364
 3138POPC   NC341375  37.672   6.636   5.564
 3138POPC   PO441376  37.682   6.644   5.864
 3138POPC   GL141377  37.656   6.620   6.164
 3138POPC   GL241378  37.616   6.569   6.164
 3138POPC   C1A41379  37.685   6.595   6.464
 3138POPC   D2A41380  37.667   6.621   6.764
 3138POPC   C3A41381  37.713   6.649   7.064
 3138POPC   C4A41382  37.634   6.625   7.364
 3138POPC   C1B41383  37.535   6.455   6.464
 3138POPC   C2B41384  37.516   6.496   6.764
 3138POPC   C3B41385  37.472   6.492   7.064
 3138POPC   C4B41386  37.487   6.445   7.364
 3139POPC   NC341387  33.820  24.444   5.564
 3139POPC   PO441388  33.811  24.459   5.864
 3139POPC   GL141389  33.764  24.513   6.164
 3139POPC   GL241390  33.885  24.396   6.164
 3139POPC   C1A41391  33.797  24.498   6.464
 3139POPC   D2A41392  33.764  24.444   6.764
 3139POPC   C3A41393  33.772  24.468   7.064
 3139POPC   C4A41394  33.766  24.511   7.364
 3139POPC   C1B41395  34.025  24.360   6.464
 3139POPC   C2B41396  34.036  24.370   6.764
 3139POPC   C3B41397  34.016  24.376   7.064
 3139POPC   C4B41398  34.070  24.367   7.364
 3140POPC   NC341399   8.242  13.627   5.564
 3140POPC   PO441400   8.154  13.663   5.864
 3140POPC   GL141401   8.203  13.666   6.164
 3140POPC   GL241402   8.152  13.702   6.164
 3140POPC   C1A41403   8.197  13.650   6.464
 3140POPC   D2A41404   8.226  13.654   6.764
 3140POPC   C3A41405   8.160  13.583   7.064
 3140POPC   C4A41406   8.204  13.582   7.364
 3140POPC   C1B41407   8.024  13.887   6.464
 3140POPC   C2B41408   8.100  13.832   6.764
 3140POPC   C3B41409   8.102  13.826   7.064
 3140POPC   C4B41410   8.062  13.801   7.364
 3141POPC   NC341411   2.793  43.107   5.564
 3141POPC   PO441412   2.793  43.136   5.864
 3141POPC   GL141413   2.783  43.158   6.164
 3141POPC   GL241414   2.679  43.053   6.164
 3141POPC   C1A41415   2.719  43.077   6.464
 3141POPC   D2A41416   2.764  43.148   6.764
 3141POPC   C3A41417   2.770  43.067   7.064
 3141POPC   C4A41418   2.766  43.087   7.364
 3141POPC   C1B41419   2.533  42.915   6.464
 3141POPC   C2B41420   2.535  42.984   6.764
 3141POPC   C3B41421   2.601  42.984   7.064
 3141POPC   C4B41422   2.588  42.915   7.364
 3142POPC   NC341423   0.485  17.475   5.564
 3142POPC   PO441424   0.471  17.551   5.864
 3142POPC   GL141425   0.422  17.555   6.164
 3142POPC   GL241426   0.333  17.631   6.164
 3142POPC   C1A41427   0.397  17.494   6.464
 3142POPC   D2A41428   0.440  17.513   6.764
 3142POPC   C3A41429   0.412  17.504   7.064
 3142POPC   C4A41430   0.435  17.557   7.364
 3142POPC   C1B41431   0.222  17.682   6.464
 3142POPC   C2B41432   0.193  17.689   6.764
 3142POPC   C3B41433   0.192  17.638   7.064
 3142POPC   C4B41434   0.288  17.683   7.364
 3143POPC   NC341435  41.510  10.533   5.564
 3143POPC   PO441436  41.603  10.546   5.864
 3143POPC   GL141437  41.510  10.525   6.164
 3143POPC   GL241438  41.621  10.443   6.164
 3143POPC   C1A41439  41.545  10.518   6.464
 3143POPC   D2A41440  41.581  10.563   6.764
 3143POPC   C3A41441  41.569  10.525   7.064
 3143POPC   C4A41442  41.544  10.493   7.364
 3143POPC   C1B41443  41.645  10.298   6.464
 3143POPC   C2B41444  41.682  10.285   6.764
 3143POPC   C3B41445  41.644  10.283   7.064
 3143POPC   C4B41446  41.647  10.313   7.364
 3144POPC   NC341447  36.101  12.061   5.564
 3144POPC   PO441448  36.144  12.087   5.864
 3144POPC   GL141449  36.081  12.097   6.164
 3144POPC   GL241450  36.132  11.922   6.164
 3144POPC   C1A41451  36.174  12.028   6.464
 3144POPC   D2A41452  36.112  12.106   6.764
 3144POPC   C3A41453  36.126  12.124   7.064
 3144POPC   C4A41454  36.105  12.093   7.364
 3144POPC   C1B41455  36.097  11.884   6.464
 3144POPC   C2B41456  36.078  11.823   6.764
 3144POPC   C3B41457  36.066  11.796   7.064
 3144POPC   C4B41458  36.061  11.800   7.364
 3145POPC   NC341459  29.894   4.291   5.564
 3145POPC   PO441460  29.934   4.364   5.864
 3145POPC   GL141461  29.931   4.342   6.164
 3145POPC   GL241462  29.845   4.398   6.164
 3145POPC   C1A41463  29.923   4.311   6.464
 3145POPC   D2A41464  29.955   4.336   6.764
 3145POPC   C3A41465  29.882   4.357   7.064
 3145POPC   C4A41466  29.967   4.284   7.364
 3145POPC   C1B41467  29.790   4.575   6.464
 3145POPC   C2B41468  29.860   4.562   6.764
 3145POPC   C3B41469  29.832   4.500   7.064
 3145POPC   C4B41470  29.770   4.513   7.364
 3146POPC   NC341471  18.286  34.551   5.564
 3146POPC   PO441472  18.306  34.577   5.864
 3146POPC   GL141473  18.261  34.582   6.164
 3146POPC   GL241474  18.197  34.468   6.164
 3146POPC   C1A41475  18.313  34.609   6.464
 3146POPC   D2A41476  18.242  34.578   6.764
 3146POPC   C3A41477  18.246  34.527   7.064
 3146POPC   C4A41478  18.268  34.573   7.364
 3146POPC   C1B41479  18.134  34.408   6.464
 3146POPC   C2B41480  18.162  34.360   6.764
 3146POPC   C3B41481  18.096  34.358   7.064
 3146POPC   C4B41482  18.072  34.375   7.364
 3147POPC   NC341483  11.282  22.966   5.564
 3147POPC   PO441484  11.273  22.890   5.864
 3147POPC   GL141485  11.314  22.972   6.164
 3147POPC   GL241486  11.333  23.083   6.164
 3147POPC   C1A41487  11.318  22.889   6.464
 3147POPC   D2A41488  11.284  22.977   6.764
 3147POPC   C3A41489  11.298  22.935   7.064
 3147POPC   C4A41490  11.285  22.911   7.364
 3147POPC   C1B41491  11.431  23.145   6.464
 3147POPC   C2B41492  11.458  23.188   6.764
 3147POPC   C3B41493  11.404  23.150   7.064
 3147POPC   C4B41494  11.437  23.125   7.364
 3148POPC   NC341495  15.946  20.593   5.564
 3148POPC   PO441496  15.934  20.600   5.864
 3148POPC   GL141497  15.930  20.631   6.164
 3148POPC   GL241498  15.786  20.689   6.164
 3148POPC   C1A41499  15.923  20.602   6.464
 3148POPC   D2A41500  15.984  20.625   6.764
 3148POPC   C3A41501  15.907  20.657   7.064
 3148POPC   C4A41502  15.999  20.571   7.364
 3148POPC   C1B41503  15.759  20.632   6.464
 3148POPC   C2B41504  15.690  20.696   6.764
 3148POPC   C3B41505  15.749  20.656   7.064
 3148POPC   C4B41506  15.668  20.715   7.364
 3149POPC   NC341507  19.066   6.689   5.564
 3149POPC   PO441508  19.097   6.626   5.864
 3149POPC   GL141509  19.049   6.630   6.164
 3149POPC   GL241510  19.185   6.721   6.164
 3149POPC   C1A41511  19.081   6.606   6.464
 3149POPC   D2A41512  19.040   6.691   6.764
 3149POPC   C3A41513  19.014   6.653   7.064
 3149POPC   C4A41514  19.061   6.694   7.364
 3149POPC   C1B41515  19.292   6.736   6.464
 3149POPC   C2B41516  19.257   6.699   6.764
 3149POPC   C3B41517  19.336   6.662   7.064
 3149POPC   C4B41518  19.326   6.707   7.364
 3150POPC   NC341519   1.186  41.597   5.564
 3150POPC   PO441520   1.175  41.573   5.864
 3150POPC   GL141521   1.202  41.509   6.164
 3150POPC   GL241522   1.058  41.660   6.164
 3150POPC   C1A41523   1.173  41.593   6.464
 3150POPC   D2A41524   1.223  41.597   6.764
 3150POPC   C3A41525   1.197  41.607   7.064
 3150POPC   C4A41526   1.165  41.583   7.364
 3150POPC   C1B41527   0.958  41.685   6.464
 3150POPC   C2B41528   0.982  41.700   6.764
 3150POPC   C3B41529   0.951  41.657   7.064
 3150POPC   C4B41530   0.950  41.692   7.364
 3151POPC   NC341531  43.115   2.735   5.564
 3151POPC   PO441532  43.150   2.759   5.864
 3151POPC   GL141533  43.070   2.732   6.164
 3151POPC   GL241534  43.077   2.677   6.164
 3151POPC   C1A41535  43.148   2.764   6.464
 3151POPC   D2A41536  43.061   2.760   6.764
 3151POPC   C3A41537  43.106   2.761   7.064
 3151POPC   C4A41538  43.123   2.790   7.364
 3151POPC   C1B41539  43.017   2.538   6.464
 3151POPC   C2B41540  42.973   2.556   6.764
 3151POPC   C3B41541  43.030   2.548   7.064
 3151POPC   C4B41542  43.025   2.584   7.364
 3152POPC   NC341543  42.311  22.903   5.564
 3152POPC   PO441544  42.341  22.899   5.864
 3152POPC   GL141545  42.362  22.981   6.164
 3152POPC   GL241546  42.341  23.019   6.164
 3152POPC   C1A41547  42.351  22.939   6.464
 3152POPC   D2A41548  42.384  22.979   6.764
 3152POPC   C3A41549  42.363  22.961   7.064
 3152POPC   C4A41550  42.373  22.903   7.364
 3152POPC   C1B41551  42.441  23.141   6.464
 3152POPC   C2B41552  42.460  23.203   6.764
 3152POPC   C3B41553  42.404  23.138   7.064
 3152POPC   C4B41554  42.490  23.184   7.364
 3153POPC   NC341555  33.799  10.492   5.564
 3153POPC   PO441556  33.799  10.536   5.864
 3153POPC   GL141557  33.765  10.514   6.164
 3153POPC   GL241558  33.866  10.659   6.164
 3153POPC   C1A41559  33.752  10.531   6.464
 3153POPC   D2A41560  33.819  10.537   6.764
 3153POPC   C3A41561  33.816  10.562   7.064
 3153POPC   C4A41562  33.773  10.515   7.364
 3153POPC   C1B41563  33.896  10.731   6.464
 3153POPC   C2B41564  33.885  10.712   6.764
 3153POPC   C3B41565  33.967  10.738   7.064
 3153POPC   C4B41566  33.971  10.750   7.364
 3154POPC   NC341567  43.139   5.825   5.564
 3154POPC   PO441568  43.145   5.908   5.864
 3154POPC   GL141569  43.120   5.913   6.164
 3154POPC   GL241570  43.075   5.788   6.164
 3154POPC   C1A41571  43.131   5.883   6.464
 3154POPC   D2A41572  43.126   5.867   6.764
 3154POPC   C3A41573  43.132   5.883   7.064
 3154POPC   C4A41574  43.129   5.882   7.364
 3154POPC   C1B41575  43.028   5.603   6.464
 3154POPC   C2B41576  42.976   5.678   6.764
 3154POPC   C3B41577  42.985   5.618   7.064
 3154POPC   C4B41578  43.003   5.666   7.364
 3155POPC   NC341579  20.623  16.715   5.564
 3155POPC   PO441580  20.597  16.769   5.864
 3155POPC   GL141581  20.577  16.711   6.164
 3155POPC   GL241582  20.706  16.829   6.164
 3155POPC   C1A41583  20.636  16.710   6.464
 3155POPC   D2A41584  20.624  16.751   6.764
 3155POPC   C3A41585  20.600  16.768   7.064
 3155POPC   C4A41586  20.608  16.775   7.364
 3155POPC   C1B41587  20.787  16.866   6.464
 3155POPC   C2B41588  20.803  16.865   6.764
 3155POPC   C3B41589  20.849  16.841   7.064
 3155POPC   C4B41590  20.866  16.880   7.364
 3156POPC   NC341591   3.580  31.507   5.564
 3156POPC   PO441592   3.533  31.500   5.864
 3156POPC   GL141593   3.580  31.518   6.164
 3156POPC   GL241594   3.456  31.411   6.164
 3156POPC   C1A41595   3.551  31.457   6.464
 3156POPC   D2A41596   3.549  31.453   6.764
 3156POPC   C3A41597   3.578  31.472   7.064
 3156POPC   C4A41598   3.582  31.467   7.364
 3156POPC   C1B41599   3.417  31.231   6.464
 3156POPC   C2B41600   3.412  31.281   6.764
 3156POPC   C3B41601   3.393  31.261   7.064
 3156POPC   C4B41602   3.403  31.297   7.364
 3157POPC   NC341603  15.918  19.018   5.564
 3157POPC   PO441604  15.935  19.051   5.864
 3157POPC   GL141605  15.907  19.070   6.164
 3157POPC   GL241606  16.070  19.182   6.164
 3157POPC   C1A41607  15.960  19.066   6.464
 3157POPC   D2A41608  16.002  19.030   6.764
 3157POPC   C3A41609  15.934  19.048   7.064
 3157POPC   C4A41610  15.907  19.093   7.364
 3157POPC   C1B41611  16.116  19.227   6.464
 3157POPC   C2B41612  16.075  19.247   6.764
 3157POPC   C3B41613  16.112  19.230   7.064
 3157POPC   C4B41614  16.107  19.227   7.364
 3158POPC   NC341615  10.477  20.600   5.564
 3158POPC   PO441616  10.487  20.630   5.864
 3158POPC   GL141617  10.564  20.617   6.164
 3158POPC   GL241618  10.491  20.726   6.164
 3158POPC   C1A41619  10.525  20.563   6.464
 3158POPC   D2A41620  10.522  20.609   6.764
 3158POPC   C3A41621  10.567  20.621   7.064
 3158POPC   C4A41622  10.568  20.611   7.364
 3158POPC   C1B41623  10.444  20.881   6.464
 3158POPC   C2B41624  10.427  20.804   6.764
 3158POPC   C3B41625  10.437  20.899   7.064
 3158POPC   C4B41626  10.418  20.898   7.364
 3159POPC   NC341627   9.773  22.133   5.564
 3159POPC   PO441628   9.794  22.175   5.864
 3159POPC   GL141629   9.778  22.160   6.164
 3159POPC   GL241630   9.658  22.280   6.164
 3159POPC   C1A41631   9.731  22.149   6.464
 3159POPC   D2A41632   9.797  22.173   6.764
 3159POPC   C3A41633   9.728  22.123   7.064
 3159POPC   C4A41634   9.764  22.210   7.364
 3159POPC   C1B41635   9.634  22.399   6.464
 3159POPC   C2B41636   9.562  22.396   6.764
 3159POPC   C3B41637   9.551  22.371   7.064
 3159POPC   C4B41638   9.550  22.359   7.364
 3160POPC   NC341639   4.332  40.808   5.564
 3160POPC   PO441640   4.274  40.791   5.864
 3160POPC   GL141641   4.303  40.798   6.164
 3160POPC   GL241642   4.257  40.658   6.164
 3160POPC   C1A41643   4.315  40.760   6.464
 3160POPC   D2A41644   4.364  40.807   6.764
 3160POPC   C3A41645   4.313  40.789   7.064
 3160POPC   C4A41646   4.345  40.832   7.364
 3160POPC   C1B41647   4.229  40.550   6.464
 3160POPC   C2B41648   4.293  40.521   6.764
 3160POPC   C3B41649   4.295  40.580   7.064
 3160POPC   C4B41650   4.317  40.533   7.364
 3161POPC   NC341651  36.082   4.364   5.564
 3161POPC   PO441652  36.131   4.299   5.864
 3161POPC   GL141653  36.125   4.349   6.164
 3161POPC   GL241654  35.990   4.400   6.164
 3161POPC   C1A41655  36.084   4.332   6.464
 3161POPC   D2A41656  36.144   4.299   6.764
 3161POPC   C3A41657  36.090   4.327   7.064
 3161POPC   C4A41658  36.166   4.359   7.364
 3161POPC   C1B41659  35.925   4.464   6.464
 3161POPC   C2B41660  35.989   4.481   6.764
 3161POPC   C3B41661  35.940   4.533   7.064
 3161POPC   C4B41662  35.920   4.490   7.364
 3162POPC   NC341663  15.918  37.633   5.564
 3162POPC   PO441664  15.906  37.643   5.864
 3162POPC   GL141665  15.994  37.672   6.164
 3162POPC   GL241666  15.945  37.513   6.164
 3162POPC   C1A41667  15.949  37.689   6.464
 3162POPC   D2A41668  15.907  37.720   6.764
 3162POPC   C3A41669  15.916  37.725   7.064
 3162POPC   C4A41670  16.003  37.708   7.364
 3162POPC   C1B41671  15.957  37.400   6.464
 3162POPC   C2B41672  15.947  37.398   6.764
 3162POPC   C3B41673  15.960  37.475   7.064
 3162POPC   C4B41674  15.920  37.418   7.364
 3163POPC   NC341675   8.160  44.702   5.564
 3163POPC   PO441676   8.211  44.630   5.864
 3163POPC   GL141677   8.208  44.697   6.164
 3163POPC   GL241678   8.268  44.515   6.164
 3163POPC   C1A41679   8.237  44.630   6.464
 3163POPC   D2A41680   8.153  44.663   6.764
 3163POPC   C3A41681   8.231  44.647   7.064
 3163POPC   C4A41682   8.165  44.693   7.364
 3163POPC   C1B41683   8.245  44.376   6.464
 3163POPC   C2B41684   8.282  44.449   6.764
 3163POPC   C3B41685   8.246  44.467   7.064
 3163POPC   C4B41686   8.239  44.439   7.364
 3164POPC   NC341687  13.622  28.403   5.564
 3164POPC   PO441688  13.638  28.356   5.864
 3164POPC   GL141689  13.589  28.387   6.164
 3164POPC   GL241690  13.703  28.424   6.164
 3164POPC   C1A41691  13.628  28.416   6.464
 3164POPC   D2A41692  13.641  28.360   6.764
 3164POPC   C3A41693  13.658  28.331   7.064
 3164POPC   C4A41694  13.645  28.417   7.364
 3164POPC   C1B41695  13.734  28.583   6.464
 3164POPC   C2B41696  13.779  28.590   6.764
 3164POPC   C3B41697  13.796  28.604   7.064
 3164POPC   C4B41698  13.790  28.571   7.364
 3165POPC   NC341699  43.069  14.401   5.564
 3165POPC   PO441700  43.113  14.421   5.864
 3165POPC   GL141701  43.105  14.358   6.164
 3165POPC   GL241702  43.204  14.558   6.164
 3165POPC   C1A41703  43.156  14.392   6.464
 3165POPC   D2A41704  43.097  14.413   6.764
 3165POPC   C3A41705  43.101  14.405   7.064
 3165POPC   C4A41706  43.114  14.451   7.364
 3165POPC   C1B41707  43.245  14.595   6.464
 3165POPC   C2B41708  43.221  14.632   6.764
 3165POPC   C3B41709  43.253  14.614   7.064
 3165POPC   C4B41710  43.190  14.668   7.364
 3166POPC   NC341711   5.839  33.779   5.564
 3166POPC   PO441712   5.888  33.850   5.864
 3166POPC   GL141713   5.837  33.809   6.164
 3166POPC   GL241714   5.878  33.966   6.164
 3166POPC   C1A41715   5.846  33.758   6.464
 3166POPC   D2A41716   5.881  33.813   6.764
 3166POPC   C3A41717   5.913  33.808   7.064
 3166POPC   C4A41718   5.847  33.817   7.364
 3166POPC   C1B41719   5.898  33.999   6.464
 3166POPC   C2B41720   5.860  34.067   6.764
 3166POPC   C3B41721   5.900  34.046   7.064
 3166POPC   C4B41722   5.905  34.036   7.364
 3167POPC   NC341723  26.021  23.743   5.564
 3167POPC   PO441724  26.054  23.666   5.864
 3167POPC   GL141725  26.080  23.740   6.164
 3167POPC   GL241726  25.922  23.629   6.164
 3167POPC   C1A41727  25.994  23.669   6.464
 3167POPC   D2A41728  26.065  23.756   6.764
 3167POPC   C3A41729  26.035  23.687   7.064
 3167POPC   C4A41730  26.026  23.741   7.364
 3167POPC   C1B41731  25.815  23.563   6.464
 3167POPC   C2B41732  25.823  23.598   6.764
 3167POPC   C3B41733  25.836  23.547   7.064
 3167POPC   C4B41734  25.801  23.622   7.364
 3168POPC   NC341735  34.592   9.757   5.564
 3168POPC   PO441736  34.624   9.792   5.864
 3168POPC   GL141737  34.584   9.766   6.164
 3168POPC   GL241738  34.579   9.612   6.164
 3168POPC   C1A41739  34.613   9.724   6.464
 3168POPC   D2A41740  34.592   9.724   6.764
 3168POPC   C3A41741  34.535   9.722   7.064
 3168POPC   C4A41742  34.553   9.746   7.364
 3168POPC   C1B41743  34.459   9.492   6.464
 3168POPC   C2B41744  34.441   9.535   6.764
 3168POPC   C3B41745  34.493   9.509   7.064
 3168POPC   C4B41746  34.482   9.467   7.364
 3169POPC   NC341747   7.466   9.776   5.564
 3169POPC   PO441748   7.390   9.705   5.864
 3169POPC   GL141749   7.463   9.776   6.164
 3169POPC   GL241750   7.357   9.629   6.164
 3169POPC   C1A41751   7.428   9.769   6.464
 3169POPC   D2A41752   7.434   9.731   6.764
 3169POPC   C3A41753   7.450   9.718   7.064
 3169POPC   C4A41754   7.461   9.706   7.364
 3169POPC   C1B41755   7.237   9.608   6.464
 3169POPC   C2B41756   7.231   9.619   6.764
 3169POPC   C3B41757   7.217   9.582   7.064
 3169POPC   C4B41758   7.209   9.623   7.364
 3170POPC   NC341759  44.621  30.744   5.564
 3170POPC   PO441760  44.679  30.647   5.864
 3170POPC   GL141761  44.623  30.655   6.164
 3170POPC   GL241762  44.505  30.664   6.164
 3170POPC   C1A41763  44.677  30.719   6.464
 3170POPC   D2A41764  44.659  30.662   6.764
 3170POPC   C3A41765  44.676  30.739   7.064
 3170POPC   C4A41766  44.670  30.659   7.364
 3170POPC   C1B41767  44.396  30.607   6.464
 3170POPC   C2B41768  44.432  30.631   6.764
 3170POPC   C3B41769  44.459  30.637   7.064
 3170POPC   C4B41770  44.472  30.587   7.364
 3171POPC   NC341771  24.492   8.973   5.564
 3171POPC   PO441772  24.478   9.007   5.864
 3171POPC   GL141773  24.483   8.988   6.164
 3171POPC   GL241774  24.646   9.029   6.164
 3171POPC   C1A41775  24.446   8.996   6.464
 3171POPC   D2A41776  24.500   8.998   6.764
 3171POPC   C3A41777  24.531   8.927   7.064
 3171POPC   C4A41778  24.444   8.968   7.364
 3171POPC   C1B41779  24.714   9.039   6.464
 3171POPC   C2B41780  24.787   9.003   6.764
 3171POPC   C3B41781  24.712   8.960   7.064
 3171POPC   C4B41782  24.772   9.030   7.364
 3172POPC   NC341783  12.070  42.324   5.564
 3172POPC   PO441784  12.112  42.366   5.864
 3172POPC   GL141785  12.088  42.342   6.164
 3172POPC   GL241786  11.981  42.247   6.164
 3172POPC   C1A41787  12.041  42.320   6.464
 3172POPC   D2A41788  12.115  42.342   6.764
 3172POPC   C3A41789  12.099  42.359   7.064
 3172POPC   C4A41790  12.109  42.326   7.364
 3172POPC   C1B41791  11.954  42.120   6.464
 3172POPC   C2B41792  11.972  42.159   6.764
 3172POPC   C3B41793  11.912  42.146   7.064
 3172POPC   C4B41794  11.926  42.166   7.364
 3173POPC   NC341795  42.357  11.322   5.564
 3173POPC   PO441796  42.291  11.278   5.864
 3173POPC   GL141797  42.374  11.277   6.164
 3173POPC   GL241798  42.234  11.348   6.164
 3173POPC   C1A41799  42.352  11.253   6.464
 3173POPC   D2A41800  42.344  11.310   6.764
 3173POPC   C3A41801  42.323  11.261   7.064
 3173POPC   C4A41802  42.288  11.325   7.364
 3173POPC   C1B41803  42.126  11.371   6.464
 3173POPC   C2B41804  42.139  11.400   6.764
 3173POPC   C3B41805  42.105  11.406   7.064
 3173POPC   C4B41806  42.060  11.415   7.364
 3174POPC   NC341807  25.276   3.514   5.564
 3174POPC   PO441808  25.306   3.559   5.864
 3174POPC   GL141809  25.281   3.506   6.164
 3174POPC   GL241810  25.098   3.580   6.164
 3174POPC   C1A41811  25.237   3.501   6.464
 3174POPC   D2A41812  25.262   3.533   6.764
 3174POPC   C3A41813  25.257   3.500   7.064
 3174POPC   C4A41814  25.298   3.554   7.364
 3174POPC   C1B41815  24.993   3.503   6.464
 3174POPC   C2B41816  25.019   3.500   6.764
 3174POPC   C3B41817  25.032   3.511   7.064
 3174POPC   C4B41818  25.026   3.507   7.364
 3175POPC   NC341819  15.943  18.234   5.564
 3175POPC   PO441820  15.941  18.250   5.864
 3175POPC   GL141821  15.905  18.305   6.164
 3175POPC   GL241822  15.871  18.230   6.164
 3175POPC   C1A41823  15.990  18.235   6.464
 3175POPC   D2A41824  15.943  18.271   6.764
 3175POPC   C3A41825  15.935  18.301   7.064
 3175POPC   C4A41826  15.926  18.329   7.364
 3175POPC   C1B41827  15.776  18.138   6.464
 3175POPC   C2B41828  15.736  18.106   6.764
 3175POPC   C3B41829  15.758  18.178   7.064
 3175POPC   C4B41830  15.746  18.129   7.364
 3176POPC   NC341831  12.853  36.904   5.564
 3176POPC   PO441832  12.827  36.879   5.864
 3176POPC   GL141833  12.833  36.902   6.164
 3176POPC   GL241834  12.916  36.948   6.164
 3176POPC   C1A41835  12.852  36.856   6.464
 3176POPC   D2A41836  12.848  36.938   6.764
 3176POPC   C3A41837  12.885  36.907   7.064
 3176POPC   C4A41838  12.897  36.936   7.364
 3176POPC   C1B41839  13.075  36.997   6.464
 3176POPC   C2B41840  13.026  37.004   6.764
 3176POPC   C3B41841  13.045  37.039   7.064
 3176POPC   C4B41842  13.054  37.024   7.364
 3177POPC   NC341843  37.658  44.681   5.564
 3177POPC   PO441844  37.710  44.692   5.864
 3177POPC   GL141845  37.640  44.675   6.164
 3177POPC   GL241846  37.779  44.629   6.164
 3177POPC   C1A41847  37.660  44.618   6.464
 3177POPC   D2A41848  37.644  44.663   6.764
 3177POPC   C3A41849  37.694  44.662   7.064
 3177POPC   C4A41850  37.670  44.643   7.364
 3177POPC   C1B41851  37.881  44.563   6.464
 3177POPC   C2B41852  37.942  44.564   6.764
 3177POPC   C3B41853  37.948  44.596   7.064
 3177POPC   C4B41854  37.884  44.526   7.364
 3178POPC   NC341855  20.577   8.215   5.564
 3178POPC   PO441856  20.621   8.154   5.864
 3178POPC   GL141857  20.574   8.183   6.164
 3178POPC   GL241858  20.559   8.303   6.164
 3178POPC   C1A41859  20.625   8.192   6.464
 3178POPC   D2A41860  20.579   8.157   6.764
 3178POPC   C3A41861  20.636   8.204   7.064
 3178POPC   C4A41862  20.651   8.191   7.364
 3178POPC   C1B41863  20.519   8.380   6.464
 3178POPC   C2B41864  20.486   8.416   6.764
 3178POPC   C3B41865  20.470   8.385   7.064
 3178POPC   C4B41866  20.443   8.371   7.364
 3179POPC   NC341867  36.115   0.438   5.564
 3179POPC   PO441868  36.091   0.434   5.864
 3179POPC   GL141869  36.107   0.466   6.164
 3179POPC   GL241870  36.246   0.504   6.164
 3179POPC   C1A41871  36.153   0.414   6.464
 3179POPC   D2A41872  36.080   0.477   6.764
 3179POPC   C3A41873  36.170   0.453   7.064
 3179POPC   C4A41874  36.117   0.405   7.364
 3179POPC   C1B41875  36.407   0.546   6.464
 3179POPC   C2B41876  36.415   0.523   6.764
 3179POPC   C3B41877  36.416   0.491   7.064
 3179POPC   C4B41878  36.359   0.494   7.364
 3180POPC   NC341879   5.868   6.646   5.564
 3180POPC   PO441880   5.834   6.635   5.864
 3180POPC   GL141881   5.821   6.692   6.164
 3180POPC   GL241882   5.799   6.700   6.164
 3180POPC   C1A41883   5.850   6.614   6.464
 3180POPC   D2A41884   5.861   6.650   6.764
 3180POPC   C3A41885   5.900   6.648   7.064
 3180POPC   C4A41886   5.910   6.628   7.364
 3180POPC   C1B41887   5.668   6.796   6.464
 3180POPC   C2B41888   5.654   6.743   6.764
 3180POPC   C3B41889   5.680   6.767   7.064
 3180POPC   C4B41890   5.616   6.699   7.364
 3181POPC   NC341891  20.574   2.779   5.564
 3181POPC   PO441892  20.621   2.801   5.864
 3181POPC   GL141893  20.595   2.778   6.164
 3181POPC   GL241894  20.736   2.720   6.164
 3181POPC   C1A41895  20.640   2.796   6.464
 3181POPC   D2A41896  20.593   2.777   6.764
 3181POPC   C3A41897  20.644   2.731   7.064
 3181POPC   C4A41898  20.592   2.746   7.364
 3181POPC   C1B41899  20.832   2.646   6.464
 3181POPC   C2B41900  20.826   2.668   6.764
 3181POPC   C3B41901  20.841   2.636   7.064
 3181POPC   C4B41902  20.853   2.661   7.364
 3182POPC   NC341903  14.408  20.563   5.564
 3182POPC   PO441904  14.445  20.616   5.864
 3182POPC   GL141905  14.395  20.603   6.164
 3182POPC   GL241906  14.452  20.776   6.164
 3182POPC   C1A41907  14.423  20.648   6.464
 3182POPC   D2A41908  14.381  20.631   6.764
 3182POPC   C3A41909  14.405  20.580   7.064
 3182POPC   C4A41910  14.399  20.627   7.364
 3182POPC   C1B41911  14.362  20.884   6.464
 3182POPC   C2B41912  14.441  20.813   6.764
 3182POPC   C3B41913  14.397  20.881   7.064
 3182POPC   C4B41914  14.430  20.867   7.364
 3183POPC   NC341915  35.347  13.655   5.564
 3183POPC   PO441916  35.388  13.583   5.864
 3183POPC   GL141917  35.359  13.623   6.164
 3183POPC   GL241918  35.304  13.514   6.164
 3183POPC   C1A41919  35.361  13.615   6.464
 3183POPC   D2A41920  35.341  13.579   6.764
 3183POPC   C3A41921  35.397  13.625   7.064
 3183POPC   C4A41922  35.397  13.673   7.364
 3183POPC   C1B41923  35.304  13.379   6.464
 3183POPC   C2B41924  35.333  13.406   6.764
 3183POPC   C3B41925  35.258  13.413   7.064
 3183POPC   C4B41926  35.332  13.404   7.364
 3184POPC   NC341927  29.943  30.701   5.564
 3184POPC   PO441928  29.875  30.725   5.864
 3184POPC   GL141929  29.961  30.657   6.164
 3184POPC   GL241930  29.921  30.548   6.164
 3184POPC   C1A41931  29.886  30.702   6.464
 3184POPC   D2A41932  29.877  30.662   6.764
 3184POPC   C3A41933  29.875  30.672   7.064
 3184POPC   C4A41934  29.953  30.705   7.364
 3184POPC   C1B41935  29.972  30.472   6.464
 3184POPC   C2B41936  30.045  30.494   6.764
 3184POPC   C3B41937  29.993  30.426   7.064
 3184POPC   C4B41938  29.973  30.504   7.364
 3185POPC   NC341939  35.360   0.435   5.564
 3185POPC   PO441940  35.383   0.466   5.864
 3185POPC   GL141941  35.325   0.411   6.164
 3185POPC   GL241942  35.263   0.429   6.164
 3185POPC   C1A41943  35.324   0.438   6.464
 3185POPC   D2A41944  35.394   0.405   6.764
 3185POPC   C3A41945  35.344   0.440   7.064
 3185POPC   C4A41946  35.399   0.414   7.364
 3185POPC   C1B41947  35.121   0.437   6.464
 3185POPC   C2B41948  35.097   0.386   6.764
 3185POPC   C3B41949  35.120   0.413   7.064
 3185POPC   C4B41950  35.114   0.350   7.364
 3186POPC   NC341951  34.591  27.556   5.564
 3186POPC   PO441952  34.587  27.567   5.864
 3186POPC   GL141953  34.556  27.635   6.164
 3186POPC   GL241954  34.577  27.694   6.164
 3186POPC   C1A41955  34.551  27.575   6.464
 3186POPC   D2A41956  34.570  27.592   6.764
 3186POPC   C3A41957  34.547  27.618   7.064
 3186POPC   C4A41958  34.561  27.544   7.364
 3186POPC   C1B41959  34.628  27.803   6.464
 3186POPC   C2B41960  34.572  27.823   6.764
 3186POPC   C3B41961  34.571  27.855   7.064
 3186POPC   C4B41962  34.576  27.831   7.364
 3187POPC   NC341963  19.105  25.224   5.564
 3187POPC   PO441964  19.049  25.261   5.864
 3187POPC   GL141965  19.026  25.297   6.164
 3187POPC   GL241966  19.189  25.402   6.164
 3187POPC   C1A41967  19.077  25.311   6.464
 3187POPC   D2A41968  19.040  25.279   6.764
 3187POPC   C3A41969  19.040  25.216   7.064
 3187POPC   C4A41970  19.094  25.288   7.364
 3187POPC   C1B41971  19.226  25.463   6.464
 3187POPC   C2B41972  19.251  25.444   6.764
 3187POPC   C3B41973  19.220  25.438   7.064
 3187POPC   C4B41974  19.217  25.410   7.364
 3188POPC   NC341975   5.064  22.898   5.564
 3188POPC   PO441976   5.053  22.896   5.864
 3188POPC   GL141977   5.120  22.962   6.164
 3188POPC   GL241978   5.012  22.884   6.164
 3188POPC   C1A41979   5.135  22.941   6.464
 3188POPC   D2A41980   5.126  22.947   6.764
 3188POPC   C3A41981   5.073  22.896   7.064
 3188POPC   C4A41982   5.098  22.987   7.364
 3188POPC   C1B41983   4.837  22.881   6.464
 3188POPC   C2B41984   4.900  22.825   6.764
 3188POPC   C3B41985   4.858  22.886   7.064
 3188POPC   C4B41986   4.908  22.819   7.364
 3189POPC   NC341987  12.044  38.465   5.564
 3189POPC   PO441988  12.066  38.419   5.864
 3189POPC   GL141989  12.033  38.492   6.164
 3189POPC   GL241990  11.980  38.474   6.164
 3189POPC   C1A41991  12.122  38.419   6.464
 3189POPC   D2A41992  12.040  38.498   6.764
 3189POPC   C3A41993  12.094  38.470   7.064
 3189POPC   C4A41994  12.061  38.499   7.364
 3189POPC   C1B41995  11.830  38.478   6.464
 3189POPC   C2B41996  11.857  38.447   6.764
 3189POPC   C3B41997  11.798  38.458   7.064
 3189POPC   C4B41998  11.811  38.484   7.364
 3190POPC   NC341999  41.532  23.743   5.564
 3190POPC   PO442000  41.514  23.741   5.864
 3190POPC   GL142001  41.572  23.724   6.164
 3190POPC   GL242002  41.639  23.676   6.164
 3190POPC   C1A42003  41.571  23.667   6.464
 3190POPC   D2A42004  41.565  23.746   6.764
 3190POPC   C3A42005  41.550  23.753   7.064
 3190POPC   C4A42006  41.598  23.666   7.364
 3190POPC   C1B42007  41.753  23.569   6.464
 3190POPC   C2B42008  41.732  23.586   6.764
 3190POPC   C3B42009  41.696  23.528   7.064
 3190POPC   C4B42010  41.780  23.561   7.364
 3191POPC   NC342011  14.371  21.409   5.564
 3191POPC   PO442012  14.445  21.358   5.864
 3191POPC   GL142013  14.447  21.373   6.164
 3191POPC   GL242014  14.416  21.261   6.164
 3191POPC   C1A42015  14.371  21.405   6.464
 3191POPC   D2A42016  14.390  21.361   6.764
 3191POPC   C3A42017  14.356  21.343   7.064
 3191POPC   C4A42018  14.434  21.400   7.364
 3191POPC   C1B42019  14.388  21.159   6.464
 3191POPC   C2B42020  14.374  21.166   6.764
 3191POPC   C3B42021  14.378  21.116   7.064
 3191POPC   C4B42022  14.361  21.152   7.364
 3192POPC   NC342023  29.931  25.272   5.564
 3192POPC   PO442024  29.967  25.243   5.864
 3192POPC   GL142025  29.957  25.238   6.164
 3192POPC   GL242026  29.915  25.158   6.164
 3192POPC   C1A42027  29.894  25.229   6.464
 3192POPC   D2A42028  29.880  25.303   6.764
 3192POPC   C3A42029  29.933  25.261   7.064
 3192POPC   C4A42030  29.902  25.225   7.364
 3192POPC   C1B42031  29.866  25.000   6.464
 3192POPC   C2B42032  29.888  25.021   6.764
 3192POPC   C3B42033  29.827  25.049   7.064
 3192POPC   C4B42034  29.898  25.002   7.364
 3193POPC   NC342035   0.399  28.384   5.564
 3193POPC   PO442036   0.427  28.416   5.864
 3193POPC   GL142037   0.390  28.394   6.164
 3193POPC   GL242038   0.569  28.457   6.164
 3193POPC   C1A42039   0.428  28.322   6.464
 3193POPC   D2A42040   0.441  28.359   6.764
 3193POPC   C3A42041   0.403  28.416   7.064
 3193POPC   C4A42042   0.471  28.324   7.364
 3193POPC   C1B42043   0.657  28.501   6.464
 3193POPC   C2B42044   0.690  28.427   6.764
 3193POPC   C3B42045   0.669  28.501   7.064
 3193POPC   C4B42046   0.650  28.497   7.364
 3194POPC   NC342047  33.035  15.217   5.564
 3194POPC   PO442048  33.011  15.203   5.864
 3194POPC   GL142049  33.042  15.191   6.164
 3194POPC   GL242050  33.001  15.324   6.164
 3194POPC   C1A42051  33.017  15.215   6.464
 3194POPC   D2A42052  32.976  15.188   6.764
 3194POPC   C3A42053  32.985  15.224   7.064
 3194POPC   C4A42054  32.978  15.188   7.364
 3194POPC   C1B42055  33.005  15.459   6.464
 3194POPC   C2B42056  33.000  15.435   6.764
 3194POPC   C3B42057  33.002  15.393   7.064
 3194POPC   C4B42058  33.037  15.438   7.364
 3195POPC   NC342059   6.648  24.502   5.564
 3195POPC   PO442060   6.685  24.463   5.864
 3195POPC   GL142061   6.691  24.510   6.164
 3195POPC   GL242062   6.560  24.456   6.164
 3195POPC   C1A42063   6.662  24.473   6.464
 3195POPC   D2A42064   6.654  24.450   6.764
 3195POPC   C3A42065   6.621  24.457   7.064
 3195POPC   C4A42066   6.663  24.527   7.364
 3195POPC   C1B42067   6.382  24.355   6.464
 3195POPC   C2B42068   6.372  24.438   6.764
 3195POPC   C3B42069   6.371  24.432   7.064
 3195POPC   C4B42070   6.387  24.399   7.364
 3196POPC   NC342071  40.832  17.459   5.564
 3196POPC   PO442072  40.833  17.498   5.864
 3196POPC   GL142073  40.771  17.507   6.164
 3196POPC   GL242074  40.709  17.621   6.164
 3196POPC   C1A42075  40.736  17.535   6.464
 3196POPC   D2A42076  40.751  17.515   6.764
 3196POPC   C3A42077  40.829  17.547   7.064
 3196POPC   C4A42078  40.752  17.556   7.364
 3196POPC   C1B42079  40.579  17.719   6.464
 3196POPC   C2B42080  40.600  17.634   6.764
 3196POPC   C3B42081  40.628  17.678   7.064
 3196POPC   C4B42082  40.645  17.633   7.364
 3197POPC   NC342083  43.159  44.679   5.564
 3197POPC   PO442084  43.107  44.662   5.864
 3197POPC   GL142085  43.146  44.677   6.164
 3197POPC   GL242086  43.086  44.755   6.164
 3197POPC   C1A42087  43.109  44.616   6.464
 3197POPC   D2A42088  43.140  44.694   6.764
 3197POPC   C3A42089  43.152  44.644   7.064
 3197POPC   C4A42090  43.075  44.667   7.364
 3197POPC   C1B42091  43.107  44.905   6.464
 3197POPC   C2B42092  43.102  44.913   6.764
 3197POPC   C3B42093  43.120  44.922   7.064
 3197POPC   C4B42094  43.114  44.960   7.364
 3198POPC   NC342095   1.213  26.788   5.564
 3198POPC   PO442096   1.243  26.793   5.864
 3198POPC   GL142097   1.192  26.799   6.164
 3198POPC   GL242098   1.113  26.711   6.164
 3198POPC   C1A42099   1.261  26.794   6.464
 3198POPC   D2A42100   1.262  26.824   6.764
 3198POPC   C3A42101   1.191  26.866   7.064
 3198POPC   C4A42102   1.174  26.835   7.364
 3198POPC   C1B42103   1.108  26.575   6.464
 3198POPC   C2B42104   1.065  26.605   6.764
 3198POPC   C3B42105   1.132  26.632   7.064
 3198POPC   C4B42106   1.137  26.594   7.364
 3199POPC   NC342107  29.963  12.071   5.564
 3199POPC   PO442108  29.891  12.096   5.864
 3199POPC   GL142109  29.916  12.037   6.164
 3199POPC   GL242110  29.950  11.953   6.164
 3199POPC   C1A42111  29.891  12.075   6.464
 3199POPC   D2A42112  29.884  12.096   6.764
 3199POPC   C3A42113  29.931  12.088   7.064
 3199POPC   C4A42114  29.953  12.049   7.364
 3199POPC   C1B42115  30.095  11.905   6.464
 3199POPC   C2B42116  30.106  11.856   6.764
 3199POPC   C3B42117  30.041  11.865   7.064
 3199POPC   C4B42118  30.037  11.837   7.364
 3200POPC   NC342119  22.905  41.580   5.564
 3200POPC   PO442120  22.982  41.593   5.864
 3200POPC   GL142121  22.930  41.608   6.164
 3200POPC   GL242122  22.777  41.614   6.164
 3200POPC   C1A42123  22.967  41.544   6.464
 3200POPC   D2A42124  22.978  41.546   6.764
 3200POPC   C3A42125  22.923  41.517   7.064
 3200POPC   C4A42126  22.909  41.524   7.364
 3200POPC   C1B42127  22.671  41.625   6.464
 3200POPC   C2B42128  22.664  41.623   6.764
 3200POPC   C3B42129  22.684  41.619   7.064
 3200POPC   C4B42130  22.691  41.601   7.364
 3201POPC   NC342131  11.268  36.093   5.564
 3201POPC   PO442132  11.300  36.090   5.864
 3201POPC   GL142133  11.300  36.100   6.164
 3201POPC   GL242134  11.317  36.028   6.164
 3201POPC   C1A42135  11.302  36.129   6.464
 3201POPC   D2A42136  11.316  36.173   6.764
 3201POPC   C3A42137  11.312  36.146   7.064
 3201POPC   C4A42138  11.333  36.122   7.364
 3201POPC   C1B42139  11.366  35.849   6.464
 3201POPC   C2B42140  11.366  35.855   6.764
 3201POPC   C3B42141  11.309  35.853   7.064
 3201POPC   C4B42142  11.363  35.865   7.364
 3202POPC   NC342143  21.394   9.781   5.564
 3202POPC   PO442144  21.378   9.708   5.864
 3202POPC   GL142145  21.382   9.733   6.164
 3202POPC   GL242146  21.232   9.778   6.164
 3202POPC   C1A42147  21.373   9.750   6.464
 3202POPC   D2A42148  21.427   9.738   6.764
 3202POPC   C3A42149  21.418   9.773   7.064
 3202POPC   C4A42150  21.396   9.783   7.364
 3202POPC   C1B42151  21.151   9.902   6.464
 3202POPC   C2B42152  21.150   9.910   6.764
 3202POPC   C3B42153  21.180   9.836   7.064
 3202POPC   C4B42154  21.171   9.875   7.364
 3203POPC   NC342155  26.768  42.356   5.564
 3203POPC   PO442156  26.775  42.308   5.864
 3203POPC   GL142157  26.785  42.330   6.164
 3203POPC   GL242158  26.927  42.250   6.164
 3203POPC   C1A42159  26.821  42.317   6.464
 3203POPC   D2A42160  26.807  42.294   6.764
 3203POPC   C3A42161  26.812  42.330   7.064
 3203POPC   C4A42162  26.831  42.374   7.364
 3203POPC   C1B42163  27.047  42.252   6.464
 3203POPC   C2B42164  27.061  42.240   6.764
 3203POPC   C3B42165  27.035  42.226   7.064
 3203POPC   C4B42166  27.087  42.272   7.364
 3204POPC   NC342167  23.676  31.426   5.564
 3204POPC   PO442168  23.674  31.476   5.864
 3204POPC   GL142169  23.713  31.519   6.164
 3204POPC   GL242170  23.622  31.400   6.164
 3204POPC   C1A42171  23.753  31.521   6.464
 3204POPC   D2A42172  23.734  31.464   6.764
 3204POPC   C3A42173  23.672  31.444   7.064
 3204POPC   C4A42174  23.668  31.480   7.364
 3204POPC   C1B42175  23.594  31.238   6.464
 3204POPC   C2B42176  23.581  31.283   6.764
 3204POPC   C3B42177  23.639  31.247   7.064
 3204POPC   C4B42178  23.590  31.201   7.364
 3205POPC   NC342179   6.651  30.736   5.564
 3205POPC   PO442180   6.680  30.670   5.864
 3205POPC   GL142181   6.665  30.668   6.164
 3205POPC   GL242182   6.682  30.847   6.164
 3205POPC   C1A42183   6.645  30.679   6.464
 3205POPC   D2A42184   6.635  30.727   6.764
 3205POPC   C3A42185   6.653  30.664   7.064
 3205POPC   C4A42186   6.685  30.719   7.364
 3205POPC   C1B42187   6.740  30.951   6.464
 3205POPC   C2B42188   6.744  30.912   6.764
 3205POPC   C3B42189   6.793  30.874   7.064
 3205POPC   C4B42190   6.733  30.883   7.364
 3206POPC   NC342191  30.744  27.554   5.564
 3206POPC   PO442192  30.699  27.590   5.864
 3206POPC   GL142193  30.691  27.598   6.164
 3206POPC   GL242194  30.666  27.483   6.164
 3206POPC   C1A42195  30.701  27.613   6.464
 3206POPC   D2A42196  30.652  27.582   6.764
 3206POPC   C3A42197  30.730  27.545   7.064
 3206POPC   C4A42198  30.696  27.549   7.364
 3206POPC   C1B42199  30.702  27.318   6.464
 3206POPC   C2B42200  30.664  27.297   6.764
 3206POPC   C3B42201  30.673  27.339   7.064
 3206POPC   C4B42202  30.706  27.337   7.364
 3207POPC   NC342203  33.798  12.858   5.564
 3207POPC   PO442204  33.836  12.827   5.864
 3207POPC   GL142205  33.761  12.841   6.164
 3207POPC   GL242206  33.686  12.853   6.164
 3207POPC   C1A42207  33.762  12.894   6.464
 3207POPC   D2A42208  33.843  12.896   6.764
 3207POPC   C3A42209  33.766  12.815   7.064
 3207POPC   C4A42210  33.761  12.869   7.364
 3207POPC   C1B42211  33.529  12.861   6.464
 3207POPC   C2B42212  33.505  12.814   6.764
 3207POPC   C3B42213  33.549  12.840   7.064
 3207POPC   C4B42214  33.510  12.890   7.364
 3208POPC   NC342215   1.204  15.166   5.564
 3208POPC   PO442216   1.235  15.200   5.864
 3208POPC   GL142217   1.194  15.187   6.164
 3208POPC   GL242218   1.387  15.159   6.164
 3208POPC   C1A42219   1.209  15.178   6.464
 3208POPC   D2A42220   1.249  15.137   6.764
 3208POPC   C3A42221   1.236  15.170   7.064
 3208POPC   C4A42222   1.174  15.196   7.364
 3208POPC   C1B42223   1.501  15.124   6.464
 3208POPC   C2B42224   1.447  15.167   6.764
 3208POPC   C3B42225   1.448  15.170   7.064
 3208POPC   C4B42226   1.482  15.176   7.364
 3209POPC   NC342227  42.339   3.524   5.564
 3209POPC   PO442228  42.353   3.520   5.864
 3209POPC   GL142229  42.300   3.575   6.164
 3209POPC   GL242230  42.417   3.434   6.164
 3209POPC   C1A42231  42.315   3.548   6.464
 3209POPC   D2A42232  42.346   3.582   6.764
 3209POPC   C3A42233  42.340   3.521   7.064
 3209POPC   C4A42234  42.329   3.549   7.364
 3209POPC   C1B42235  42.527   3.418   6.464
 3209POPC   C2B42236  42.595   3.440   6.764
 3209POPC   C3B42237  42.560   3.385   7.064
 3209POPC   C4B42238  42.572   3.419   7.364
 3210POPC   NC342239   6.668  15.189   5.564
 3210POPC   PO442240   6.639  15.160   5.864
 3210POPC   GL142241   6.610  15.197   6.164
 3210POPC   GL242242   6.593  15.103   6.164
 3210POPC   C1A42243   6.603  15.135   6.464
 3210POPC   D2A42244   6.639  15.173   6.764
 3210POPC   C3A42245   6.651  15.135   7.064
 3210POPC   C4A42246   6.617  15.168   7.364
 3210POPC   C1B42247   6.488  14.946   6.464
 3210POPC   C2B42248   6.503  14.963   6.764
 3210POPC   C3B42249   6.519  14.969   7.064
 3210POPC   C4B42250   6.498  14.933   7.364
 3211POPC   NC342251   9.764   8.243   5.564
 3211POPC   PO442252   9.763   8.201   5.864
 3211POPC   GL142253   9.771   8.219   6.164
 3211POPC   GL242254   9.846   8.254   6.164
 3211POPC   C1A42255   9.753   8.195   6.464
 3211POPC   D2A42256   9.740   8.193   6.764
 3211POPC   C3A42257   9.786   8.149   7.064
 3211POPC   C4A42258   9.796   8.234   7.364
 3211POPC   C1B42259   9.921   8.401   6.464
 3211POPC   C2B42260   9.861   8.360   6.764
 3211POPC   C3B42261   9.887   8.427   7.064
 3211POPC   C4B42262   9.857   8.449   7.364
 3212POPC   NC342263  22.971  28.366   5.564
 3212POPC   PO442264  22.939  28.335   5.864
 3212POPC   GL142265  22.900  28.340   6.164
 3212POPC   GL242266  22.912  28.537   6.164
 3212POPC   C1A42267  22.959  28.391   6.464
 3212POPC   D2A42268  22.897  28.340   6.764
 3212POPC   C3A42269  22.929  28.339   7.064
 3212POPC   C4A42270  22.981  28.351   7.364
 3212POPC   C1B42271  23.035  28.572   6.464
 3212POPC   C2B42272  23.031  28.629   6.764
 3212POPC   C3B42273  22.952  28.565   7.064
 3212POPC   C4B42274  23.028  28.580   7.364
 3213POPC   NC342275   8.167  30.717   5.564
 3213POPC   PO442276   8.198  30.722   5.864
 3213POPC   GL142277   8.246  30.660   6.164
 3213POPC   GL242278   8.128  30.616   6.164
 3213POPC   C1A42279   8.149  30.655   6.464
 3213POPC   D2A42280   8.156  30.724   6.764
 3213POPC   C3A42281   8.239  30.699   7.064
 3213POPC   C4A42282   8.190  30.735   7.364
 3213POPC   C1B42283   8.002  30.459   6.464
 3213POPC   C2B42284   8.089  30.480   6.764
 3213POPC   C3B42285   8.030  30.472   7.064
 3213POPC   C4B42286   8.093  30.469   7.364
 3214POPC   NC342287   9.712  36.138   5.564
 3214POPC   PO442288   9.792  36.137   5.864
 3214POPC   GL142289   9.710  36.140   6.164
 3214POPC   GL242290   9.868  36.213   6.164
 3214POPC   C1A42291   9.785  36.149   6.464
 3214POPC   D2A42292   9.790  36.081   6.764
 3214POPC   C3A42293   9.750  36.151   7.064
 3214POPC   C4A42294   9.778  36.108   7.364
 3214POPC   C1B42295   9.948  36.305   6.464
 3214POPC   C2B42296   9.928  36.307   6.764
 3214POPC   C3B42297   9.913  36.335   7.064
 3214POPC   C4B42298   9.955  36.249   7.364
 3215POPC   NC342299   5.073  39.272   5.564
 3215POPC   PO442300   5.076  39.223   5.864
 3215POPC   GL142301   5.080  39.245   6.164
 3215POPC   GL242302   5.052  39.345   6.164
 3215POPC   C1A42303   5.066  39.206   6.464
 3215POPC   D2A42304   5.127  39.235   6.764
 3215POPC   C3A42305   5.072  39.240   7.064
 3215POPC   C4A42306   5.118  39.229   7.364
 3215POPC   C1B42307   5.029  39.505   6.464
 3215POPC   C2B42308   5.000  39.511   6.764
 3215POPC   C3B42309   4.983  39.437   7.064
 3215POPC   C4B42310   4.957  39.483   7.364
 3216POPC   NC342311  24.538   6.608   5.564
 3216POPC   PO442312  24.480   6.683   5.864
 3216POPC   GL142313  24.512   6.655   6.164
 3216POPC   GL242314  24.447   6.742   6.164
 3216POPC   C1A42315  24.490   6.676   6.464
 3216POPC   D2A42316  24.515   6.612   6.764
 3216POPC   C3A42317  24.443   6.637   7.064
 3216POPC   C4A42318  24.454   6.608   7.364
 3216POPC   C1B42319  24.378   6.903   6.464
 3216POPC   C2B42320  24.372   6.915   6.764
 3216POPC   C3B42321  24.378   6.848   7.064
 3216POPC   C4B42322  24.321   6.905   7.364
 3217POPC   NC342323  29.131   1.962   5.564
 3217POPC   PO442324  29.123   1.984   5.864
 3217POPC   GL142325  29.156   1.987   6.164
 3217POPC   GL242326  29.299   2.058   6.164
 3217POPC   C1A42327  29.157   1.997   6.464
 3217POPC   D2A42328  29.167   1.979   6.764
 3217POPC   C3A42329  29.122   2.018   7.064
 3217POPC   C4A42330  29.163   1.957   7.364
 3217POPC   C1B42331  29.396   2.082   6.464
 3217POPC   C2B42332  29.421   2.042   6.764
 3217POPC   C3B42333  29.401   2.086   7.064
 3217POPC   C4B42334  29.395   2.060   7.364
 3218POPC   NC342335  20.631  37.674   5.564
 3218POPC   PO442336  20.621  37.638   5.864
 3218POPC   GL142337  20.580  37.647   6.164
 3218POPC   GL242338  20.647  37.543   6.164
 3218POPC   C1A42339  20.611  37.673   6.464
 3218POPC   D2A42340  20.656  37.680   6.764
 3218POPC   C3A42341  20.570  37.649   7.064
 3218POPC   C4A42342  20.621  37.683   7.364
 3218POPC   C1B42343  20.641  37.479   6.464
 3218POPC   C2B42344  20.676  37.430   6.764
 3218POPC   C3B42345  20.660  37.424   7.064
 3218POPC   C4B42346  20.666  37.449   7.364
 3219POPC   NC342347  36.932   7.408   5.564
 3219POPC   PO442348  36.929   7.411   5.864
 3219POPC   GL142349  36.928   7.410   6.164
 3219POPC   GL242350  37.019   7.494   6.164
 3219POPC   C1A42351  36.936   7.380   6.464
 3219POPC   D2A42352  36.876   7.438   6.764
 3219POPC   C3A42353  36.941   7.455   7.064
 3219POPC   C4A42354  36.884   7.421   7.364
 3219POPC   C1B42355  37.083   7.559   6.464
 3219POPC   C2B42356  37.031   7.574   6.764
 3219POPC   C3B42357  37.092   7.576   7.064
 3219POPC   C4B42358  37.088   7.642   7.364
 3220POPC   NC342359  12.093  44.662   5.564
 3220POPC   PO442360  12.072  44.686   5.864
 3220POPC   GL142361  12.118  44.622   6.164
 3220POPC   GL242362  11.906  44.668   6.164
 3220POPC   C1A42363  12.063  44.643   6.464
 3220POPC   D2A42364  12.054  44.679   6.764
 3220POPC   C3A42365  12.046  44.628   7.064
 3220POPC   C4A42366  12.026  44.710   7.364
 3220POPC   C1B42367  11.862  44.729   6.464
 3220POPC   C2B42368  11.790  44.698   6.764
 3220POPC   C3B42369  11.875  44.651   7.064
 3220POPC   C4B42370  11.876  44.677   7.364
 3221POPC   NC342371  27.561  18.258   5.564
 3221POPC   PO442372  27.598  18.300   5.864
 3221POPC   GL142373  27.547  18.287   6.164
 3221POPC   GL242374  27.558  18.429   6.164
 3221POPC   C1A42375  27.549  18.312   6.464
 3221POPC   D2A42376  27.565  18.234   6.764
 3221POPC   C3A42377  27.550  18.324   7.064
 3221POPC   C4A42378  27.560  18.266   7.364
 3221POPC   C1B42379  27.510  18.526   6.464
 3221POPC   C2B42380  27.504  18.509   6.764
 3221POPC   C3B42381  27.473  18.519   7.064
 3221POPC   C4B42382  27.534  18.555   7.364
 3222POPC   NC342383  18.237   6.621   5.564
 3222POPC   PO442384  18.261   6.637   5.864
 3222POPC   GL142385  18.244   6.606   6.164
 3222POPC   GL242386  18.315   6.531   6.164
 3222POPC   C1A42387  18.291   6.639   6.464
 3222POPC   D2A42388  18.249   6.600   6.764
 3222POPC   C3A42389  18.314   6.603   7.064
 3222POPC   C4A42390  18.242   6.655   7.364
 3222POPC   C1B42391  18.285   6.357   6.464
 3222POPC   C2B42392  18.328   6.418   6.764
 3222POPC   C3B42393  18.287   6.358   7.064
 3222POPC   C4B42394  18.300   6.377   7.364
 3223POPC   NC342395  18.240  36.081   5.564
 3223POPC   PO442396  18.300  36.079   5.864
 3223POPC   GL142397  18.243  36.146   6.164
 3223POPC   GL242398  18.176  36.208   6.164
 3223POPC   C1A42399  18.332  36.125   6.464
 3223POPC   D2A42400  18.258  36.080   6.764
 3223POPC   C3A42401  18.294  36.135   7.064
 3223POPC   C4A42402  18.279  36.142   7.364
 3223POPC   C1B42403  18.095  36.217   6.464
 3223POPC   C2B42404  18.085  36.247   6.764
 3223POPC   C3B42405  18.014  36.265   7.064
 3223POPC   C4B42406  18.099  36.274   7.364
 3224POPC   NC342407   9.745  20.605   5.564
 3224POPC   PO442408   9.757  20.562   5.864
 3224POPC   GL142409   9.721  20.584   6.164
 3224POPC   GL242410   9.740  20.524   6.164
 3224POPC   C1A42411   9.749  20.649   6.464
 3224POPC   D2A42412   9.779  20.590   6.764
 3224POPC   C3A42413   9.789  20.604   7.064
 3224POPC   C4A42414   9.761  20.572   7.364
 3224POPC   C1B42415   9.693  20.338   6.464
 3224POPC   C2B42416   9.687  20.422   6.764
 3224POPC   C3B42417   9.629  20.339   7.064
 3224POPC   C4B42418   9.693  20.421   7.364
 3225POPC   NC342419  16.693  37.728   5.564
 3225POPC   PO442420  16.765  37.679   5.864
 3225POPC   GL142421  16.728  37.676   6.164
 3225POPC   GL242422  16.725  37.845   6.164
 3225POPC   C1A42423  16.741  37.662   6.464
 3225POPC   D2A42424  16.720  37.690   6.764
 3225POPC   C3A42425  16.760  37.726   7.064
 3225POPC   C4A42426  16.707  37.632   7.364
 3225POPC   C1B42427  16.617  37.927   6.464
 3225POPC   C2B42428  16.645  37.932   6.764
 3225POPC   C3B42429  16.625  37.881   7.064
 3225POPC   C4B42430  16.653  37.959   7.364
 3226POPC   NC342431  16.727   1.169   5.564
 3226POPC   PO442432  16.723   1.214   5.864
 3226POPC   GL142433  16.744   1.207   6.164
 3226POPC   GL242434  16.617   1.261   6.164
 3226POPC   C1A42435  16.772   1.236   6.464
 3226POPC   D2A42436  16.739   1.183   6.764
 3226POPC   C3A42437  16.729   1.178   7.064
 3226POPC   C4A42438  16.726   1.172   7.364
 3226POPC   C1B42439  16.509   1.200   6.464
 3226POPC   C2B42440  16.520   1.240   6.764
 3226POPC   C3B42441  16.475   1.235   7.064
 3226POPC   C4B42442  16.520   1.266   7.364
 3227POPC   NC342443   9.774  26.015   5.564
 3227POPC   PO442444   9.776  26.029   5.864
 3227POPC   GL142445   9.779  26.087   6.164
 3227POPC   GL242446   9.690  25.913   6.164
 3227POPC   C1A42447   9.744  26.037   6.464
 3227POPC   D2A42448   9.774  26.021   6.764
 3227POPC   C3A42449   9.720  25.999   7.064
 3227POPC   C4A42450   9.703  25.999   7.364
 3227POPC   C1B42451   9.671  25.834   6.464
 3227POPC   C2B42452   9.703  25.849   6.764
 3227POPC   C3B42453   9.634  25.754   7.064
 3227POPC   C4B42454   9.672  25.853   7.364
 3228POPC   NC342455  15.950  26.090   5.564
 3228POPC   PO442456  15.950  26.051   5.864
 3228POPC   GL142457  15.927  26.066   6.164
 3228POPC   GL242458  15.840  26.126   6.164
 3228POPC   C1A42459  15.956  26.044   6.464
 3228POPC   D2A42460  15.934  26.067   6.764
 3228POPC   C3A42461  15.964  26.029   7.064
 3228POPC   C4A42462  15.956  26.069   7.364
 3228POPC   C1B42463  15.803  26.235   6.464
 3228POPC   C2B42464  15.792  26.283   6.764
 3228POPC   C3B42465  15.808  26.223   7.064
 3228POPC   C4B42466  15.848  26.199   7.364
 3229POPC   NC342467  15.204   9.771   5.564
 3229POPC   PO442468  15.187   9.794   5.864
 3229POPC   GL142469  15.175   9.748   6.164
 3229POPC   GL242470  15.072   9.673   6.164
 3229POPC   C1A42471  15.194   9.733   6.464
 3229POPC   D2A42472  15.201   9.708   6.764
 3229POPC   C3A42473  15.228   9.718   7.064
 3229POPC   C4A42474  15.140   9.748   7.364
 3229POPC   C1B42475  14.967   9.645   6.464
 3229POPC   C2B42476  14.937   9.646   6.764
 3229POPC   C3B42477  15.005   9.582   7.064
 3229POPC   C4B42478  14.935   9.598   7.364
 3230POPC   NC342479  16.756   5.100   5.564
 3230POPC   PO442480  16.757   5.059   5.864
 3230POPC   GL142481  16.760   5.050   6.164
 3230POPC   GL242482  16.750   5.213   6.164
 3230POPC   C1A42483  16.697   5.120   6.464
 3230POPC   D2A42484  16.756   5.097   6.764
 3230POPC   C3A42485  16.714   5.132   7.064
 3230POPC   C4A42486  16.758   5.070   7.364
 3230POPC   C1B42487  16.845   5.297   6.464
 3230POPC   C2B42488  16.844   5.343   6.764
 3230POPC   C3B42489  16.845   5.321   7.064
 3230POPC   C4B42490  16.901   5.253   7.364
 3231POPC   NC342491  31.512  37.699   5.564
 3231POPC   PO442492  31.501  37.641   5.864
 3231POPC   GL142493  31.515  37.646   6.164
 3231POPC   GL242494  31.504  37.792   6.164
 3231POPC   C1A42495  31.448  37.661   6.464
 3231POPC   D2A42496  31.424  37.691   6.764
 3231POPC   C3A42497  31.448  37.650   7.064
 3231POPC   C4A42498  31.507  37.634   7.364
 3231POPC   C1B42499  31.602  37.921   6.464
 3231POPC   C2B42500  31.645  37.908   6.764
 3231POPC   C3B42501  31.570  37.918   7.064
 3231POPC   C4B42502  31.598  37.921   7.364
 3232POPC   NC342503   9.780  44.687   5.564
 3232POPC   PO442504   9.764  44.664   5.864
 3232POPC   GL142505   9.752  44.630   6.164
 3232POPC   GL242506   9.624  44.610   6.164
 3232POPC   C1A42507   9.704  44.692   6.464
 3232POPC   D2A42508   9.724  44.672   6.764
 3232POPC   C3A42509   9.798  44.621   7.064
 3232POPC   C4A42510   9.726  44.710   7.364
 3232POPC   C1B42511   9.583  44.510   6.464
 3232POPC   C2B42512   9.592  44.477   6.764
 3232POPC   C3B42513   9.638  44.419   7.064
 3232POPC   C4B42514   9.599  44.508   7.364
 3233POPC   NC342515   0.423  19.082   5.564
 3233POPC   PO442516   0.426  19.027   5.864
 3233POPC   GL142517   0.444  19.026   6.164
 3233POPC   GL242518   0.358  19.050   6.164
 3233POPC   C1A42519   0.437  19.016   6.464
 3233POPC   D2A42520   0.441  19.046   6.764
 3233POPC   C3A42521   0.483  19.012   7.064
 3233POPC   C4A42522   0.475  19.014   7.364
 3233POPC   C1B42523   0.167  19.057   6.464
 3233POPC   C2B42524   0.212  19.064   6.764
 3233POPC   C3B42525   0.235  18.996   7.064
 3233POPC   C4B42526   0.182  19.045   7.364
 3234POPC   NC342527  41.521   1.975   5.564
 3234POPC   PO442528  41.550   2.030   5.864
 3234POPC   GL142529  41.523   2.020   6.164
 3234POPC   GL242530  41.641   1.891   6.164
 3234POPC   C1A42531  41.561   1.963   6.464
 3234POPC   D2A42532  41.564   1.942   6.764
 3234POPC   C3A42533  41.575   2.037   7.064
 3234POPC   C4A42534  41.595   1.988   7.364
 3234POPC   C1B42535  41.694   1.835   6.464
 3234POPC   C2B42536  41.721   1.800   6.764
 3234POPC   C3B42537  41.711   1.752   7.064
 3234POPC   C4B42538  41.686   1.801   7.364
 3235POPC   NC342539  15.136  21.380   5.564
 3235POPC   PO442540  15.213  21.419   5.864
 3235POPC   GL142541  15.159  21.420   6.164
 3235POPC   GL242542  15.169  21.492   6.164
 3235POPC   C1A42543  15.141  21.367   6.464
 3235POPC   D2A42544  15.146  21.380   6.764
 3235POPC   C3A42545  15.163  21.383   7.064
 3235POPC   C4A42546  15.192  21.361   7.364
 3235POPC   C1B42547  15.121  21.597   6.464
 3235POPC   C2B42548  15.125  21.572   6.764
 3235POPC   C3B42549  15.077  21.640   7.064
 3235POPC   C4B42550  15.103  21.604   7.364
 3236POPC   NC342551   1.950  22.923   5.564
 3236POPC   PO442552   2.034  22.905   5.864
 3236POPC   GL142553   1.973  22.901   6.164
 3236POPC   GL242554   2.063  22.897   6.164
 3236POPC   C1A42555   1.963  22.983   6.464
 3236POPC   D2A42556   2.028  22.919   6.764
 3236POPC   C3A42557   2.030  22.982   7.064
 3236POPC   C4A42558   1.958  22.954   7.364
 3236POPC   C1B42559   2.161  22.754   6.464
 3236POPC   C2B42560   2.150  22.819   6.764
 3236POPC   C3B42561   2.190  22.788   7.064
 3236POPC   C4B42562   2.154  22.796   7.364
 3237POPC   NC342563   4.347  30.665   5.564
 3237POPC   PO442564   4.294  30.682   5.864
 3237POPC   GL142565   4.292  30.648   6.164
 3237POPC   GL242566   4.247  30.578   6.164
 3237POPC   C1A42567   4.309  30.674   6.464
 3237POPC   D2A42568   4.310  30.697   6.764
 3237POPC   C3A42569   4.282  30.738   7.064
 3237POPC   C4A42570   4.267  30.659   7.364
 3237POPC   C1B42571   4.204  30.502   6.464
 3237POPC   C2B42572   4.222  30.517   6.764
 3237POPC   C3B42573   4.200  30.504   7.064
 3237POPC   C4B42574   4.250  30.462   7.364
 3238POPC   NC342575  19.850  40.814   5.564
 3238POPC   PO442576  19.803  40.832   5.864
 3238POPC   GL142577  19.821  40.805   6.164
 3238POPC   GL242578  19.715  40.712   6.164
 3238POPC   C1A42579  19.806  40.827   6.464
 3238POPC   D2A42580  19.832  40.818   6.764
 3238POPC   C3A42581  19.816  40.739   7.064
 3238POPC   C4A42582  19.875  40.813   7.364
 3238POPC   C1B42583  19.593  40.686   6.464
 3238POPC   C2B42584  19.601  40.622   6.764
 3238POPC   C3B42585  19.602  40.623   7.064
 3238POPC   C4B42586  19.573  40.649   7.364
 3239POPC   NC342587  17.503  36.115   5.564
 3239POPC   PO442588  17.506  36.092   5.864
 3239POPC   GL142589  17.537  36.107   6.164
 3239POPC   GL242590  17.575  36.249   6.164
 3239POPC   C1A42591  17.544  36.159   6.464
 3239POPC   D2A42592  17.460  36.101   6.764
 3239POPC   C3A42593  17.551  36.092   7.064
 3239POPC   C4A42594  17.514  36.105   7.364
 3239POPC   C1B42595  17.723  36.277   6.464
 3239POPC   C2B42596  17.733  36.279   6.764
 3239POPC   C3B42597  17.671  36.323   7.064
 3239POPC   C4B42598  17.657  36.276   7.364
 3240POPC   NC342599  38.490   7.445   5.564
 3240POPC   PO442600  38.503   7.387   5.864
 3240POPC   GL142601  38.445   7.371   6.164
 3240POPC   GL242602  38.376   7.540   6.164
 3240POPC   C1A42603  38.406   7.425   6.464
 3240POPC   D2A42604  38.459   7.463   6.764
 3240POPC   C3A42605  38.478   7.444   7.064
 3240POPC   C4A42606  38.467   7.431   7.364
 3240POPC   C1B42607  38.280   7.568   6.464
 3240POPC   C2B42608  38.274   7.554   6.764
 3240POPC   C3B42609  38.218   7.575   7.064
 3240POPC   C4B42610  38.218   7.559   7.364
 3241POPC   NC342611   8.171  14.358   5.564
 3241POPC   PO442612   8.178  14.406   5.864
 3241POPC   GL142613   8.242  14.360   6.164
 3241POPC   GL242614   8.064  14.438   6.164
 3241POPC   C1A42615   8.186  14.442   6.464
 3241POPC   D2A42616   8.152  14.364   6.764
 3241POPC   C3A42617   8.169  14.418   7.064
 3241POPC   C4A42618   8.227  14.432   7.364
 3241POPC   C1B42619   8.007  14.566   6.464
 3241POPC   C2B42620   7.979  14.539   6.764
 3241POPC   C3B42621   8.026  14.566   7.064
 3241POPC   C4B42622   8.024  14.570   7.364
 3242POPC   NC342623  18.273   8.162   5.564
 3242POPC   PO442624  18.250   8.182   5.864
 3242POPC   GL142625  18.282   8.198   6.164
 3242POPC   GL242626  18.363   8.273   6.164
 3242POPC   C1A42627  18.314   8.205   6.464
 3242POPC   D2A42628  18.265   8.163   6.764
 3242POPC   C3A42629  18.270   8.153   7.064
 3242POPC   C4A42630  18.253   8.201   7.364
 3242POPC   C1B42631  18.523   8.325   6.464
 3242POPC   C2B42632  18.494   8.294   6.764
 3242POPC   C3B42633  18.562   8.256   7.064
 3242POPC   C4B42634  18.476   8.292   7.364
 3243POPC   NC342635  40.026  15.922   5.564
 3243POPC   PO442636  39.965  15.922   5.864
 3243POPC   GL142637  39.986  15.916   6.164
 3243POPC   GL242638  40.050  15.878   6.164
 3243POPC   C1A42639  39.960  15.972   6.464
 3243POPC   D2A42640  40.006  15.921   6.764
 3243POPC   C3A42641  40.027  15.935   7.064
 3243POPC   C4A42642  39.970  15.984   7.364
 3243POPC   C1B42643  40.172  15.802   6.464
 3243POPC   C2B42644  40.213  15.798   6.764
 3243POPC   C3B42645  40.208  15.724   7.064
 3243POPC   C4B42646  40.183  15.774   7.364
 3244POPC   NC342647  23.753  17.471   5.564
 3244POPC   PO442648  23.716  17.462   5.864
 3244POPC   GL142649  23.734  17.555   6.164
 3244POPC   GL242650  23.733  17.349   6.164
 3244POPC   C1A42651  23.744  17.460   6.464
 3244POPC   D2A42652  23.754  17.547   6.764
 3244POPC   C3A42653  23.665  17.532   7.064
 3244POPC   C4A42654  23.677  17.527   7.364
 3244POPC   C1B42655  23.732  17.229   6.464
 3244POPC   C2B42656  23.792  17.309   6.764
 3244POPC   C3B42657  23.720  17.271   7.064
 3244POPC   C4B42658  23.699  17.297   7.364
 3245POPC   NC342659   2.036   0.419   5.564
 3245POPC   PO442660   2.026   0.432   5.864
 3245POPC   GL142661   2.024   0.399   6.164
 3245POPC   GL242662   2.027   0.488   6.164
 3245POPC   C1A42663   2.037   0.462   6.464
 3245POPC   D2A42664   2.039   0.445   6.764
 3245POPC   C3A42665   1.969   0.406   7.064
 3245POPC   C4A42666   2.000   0.456   7.364
 3245POPC   C1B42667   2.115   0.654   6.464
 3245POPC   C2B42668   2.196   0.645   6.764
 3245POPC   C3B42669   2.165   0.587   7.064
 3245POPC   C4B42670   2.187   0.598   7.364
 3246POPC   NC342671  40.759  33.018   5.564
 3246POPC   PO442672  40.797  33.055   5.864
 3246POPC   GL142673  40.754  33.052   6.164
 3246POPC   GL242674  40.918  32.904   6.164
 3246POPC   C1A42675  40.830  33.043   6.464
 3246POPC   D2A42676  40.804  33.011   6.764
 3246POPC   C3A42677  40.749  32.999   7.064
 3246POPC   C4A42678  40.734  33.028   7.364
 3246POPC   C1B42679  41.026  32.897   6.464
 3246POPC   C2B42680  40.938  32.833   6.764
 3246POPC   C3B42681  40.974  32.861   7.064
 3246POPC   C4B42682  41.034  32.897   7.364
 3247POPC   NC342683  32.271  33.032   5.564
 3247POPC   PO442684  32.213  32.995   5.864
 3247POPC   GL142685  32.203  33.064   6.164
 3247POPC   GL242686  32.233  33.131   6.164
 3247POPC   C1A42687  32.209  33.060   6.464
 3247POPC   D2A42688  32.241  33.028   6.764
 3247POPC   C3A42689  32.292  33.073   7.064
 3247POPC   C4A42690  32.220  32.996   7.364
 3247POPC   C1B42691  32.251  33.231   6.464
 3247POPC   C2B42692  32.263  33.265   6.764
 3247POPC   C3B42693  32.277  33.296   7.064
 3247POPC   C4B42694  32.246  33.290   7.364
 3248POPC   NC342695  23.689  44.665   5.564
 3248POPC   PO442696  23.737  44.695   5.864
 3248POPC   GL142697  23.744  44.696   6.164
 3248POPC   GL242698  23.738  44.737   6.164
 3248POPC   C1A42699  23.692  44.663   6.464
 3248POPC   D2A42700  23.679  44.696   6.764
 3248POPC   C3A42701  23.750  44.641   7.064
 3248POPC   C4A42702  23.686  44.627   7.364
 3248POPC   C1B42703  23.715  44.903   6.464
 3248POPC   C2B42704  23.781  44.886   6.764
 3248POPC   C3B42705  23.796  44.870   7.064
 3248POPC   C4B42706  23.726  44.895   7.364
 3249POPC   NC342707  39.191  35.363   5.564
 3249POPC   PO442708  39.209  35.350   5.864
 3249POPC   GL142709  39.248  35.338   6.164
 3249POPC   GL242710  39.113  35.427   6.164
 3249POPC   C1A42711  39.184  35.400   6.464
 3249POPC   D2A42712  39.240  35.385   6.764
 3249POPC   C3A42713  39.183  35.374   7.064
 3249POPC   C4A42714  39.217  35.384   7.364
 3249POPC   C1B42715  39.053  35.427   6.464
 3249POPC   C2B42716  39.043  35.496   6.764
 3249POPC   C3B42717  39.014  35.471   7.064
 3249POPC   C4B42718  39.003  35.483   7.364
 3250POPC   NC342719  28.327  35.334   5.564
 3250POPC   PO442720  28.394  35.349   5.864
 3250POPC   GL142721  28.414  35.376   6.164
 3250POPC   GL242722  28.331  35.444   6.164
 3250POPC   C1A42723  28.349  35.340   6.464
 3250POPC   D2A42724  28.412  35.377   6.764
 3250POPC   C3A42725  28.338  35.333   7.064
 3250POPC   C4A42726  28.340  35.335   7.364
 3250POPC   C1B42727  28.433  35.554   6.464
 3250POPC   C2B42728  28.438  35.636   6.764
 3250POPC   C3B42729  28.408  35.585   7.064
 3250POPC   C4B42730  28.377  35.642   7.364
 3251POPC   NC342731  37.689  29.176   5.564
 3251POPC   PO442732  37.668  29.188   5.864
 3251POPC   GL142733  37.706  29.181   6.164
 3251POPC   GL242734  37.770  29.072   6.164
 3251POPC   C1A42735  37.721  29.194   6.464
 3251POPC   D2A42736  37.680  29.113   6.764
 3251POPC   C3A42737  37.701  29.099   7.064
 3251POPC   C4A42738  37.631  29.159   7.364
 3251POPC   C1B42739  37.890  29.078   6.464
 3251POPC   C2B42740  37.934  29.057   6.764
 3251POPC   C3B42741  37.923  29.046   7.064
 3251POPC   C4B42742  37.969  29.080   7.364
 3252POPC   NC342743  13.670  41.510   5.564
 3252POPC   PO442744  13.620  41.574   5.864
 3252POPC   GL142745  13.611  41.597   6.164
 3252POPC   GL242746  13.729  41.590   6.164
 3252POPC   C1A42747  13.628  41.533   6.464
 3252POPC   D2A42748  13.580  41.523   6.764
 3252POPC   C3A42749  13.639  41.601   7.064
 3252POPC   C4A42750  13.593  41.552   7.364
 3252POPC   C1B42751  13.871  41.653   6.464
 3252POPC   C2B42752  13.791  41.660   6.764
 3252POPC   C3B42753  13.833  41.748   7.064
 3252POPC   C4B42754  13.796  41.747   7.364
 3253POPC   NC342755  32.252  36.086   5.564
 3253POPC   PO442756  32.284  36.079   5.864
 3253POPC   GL142757  32.244  36.162   6.164
 3253POPC   GL242758  32.235  36.041   6.164
 3253POPC   C1A42759  32.275  36.099   6.464
 3253POPC   D2A42760  32.209  36.166   6.764
 3253POPC   C3A42761  32.240  36.100   7.064
 3253POPC   C4A42762  32.263  36.091   7.364
 3253POPC   C1B42763  32.176  35.939   6.464
 3253POPC   C2B42764  32.158  35.860   6.764
 3253POPC   C3B42765  32.146  35.907   7.064
 3253POPC   C4B42766  32.141  35.910   7.364
 3254POPC   NC342767   9.769  19.851   5.564
 3254POPC   PO442768   9.702  19.818   5.864
 3254POPC   GL142769   9.700  19.823   6.164
 3254POPC   GL242770   9.714  19.697   6.164
 3254POPC   C1A42771   9.713  19.811   6.464
 3254POPC   D2A42772   9.790  19.804   6.764
 3254POPC   C3A42773   9.746  19.813   7.064
 3254POPC   C4A42774   9.773  19.806   7.364
 3254POPC   C1B42775   9.622  19.673   6.464
 3254POPC   C2B42776   9.642  19.667   6.764
 3254POPC   C3B42777   9.616  19.665   7.064
 3254POPC   C4B42778   9.591  19.669   7.364
 3255POPC   NC342779   8.973  25.251   5.564
 3255POPC   PO442780   9.019  25.272   5.864
 3255POPC   GL142781   8.933  25.247   6.164
 3255POPC   GL242782   9.072  25.194   6.164
 3255POPC   C1A42783   8.953  25.299   6.464
 3255POPC   D2A42784   9.015  25.306   6.764
 3255POPC   C3A42785   8.966  25.244   7.064
 3255POPC   C4A42786   8.984  25.261   7.364
 3255POPC   C1B42787   9.225  25.117   6.464
 3255POPC   C2B42788   9.225  25.185   6.764
 3255POPC   C3B42789   9.181  25.176   7.064
 3255POPC   C4B42790   9.180  25.117   7.364
 3256POPC   NC342791  23.685  40.054   5.564
 3256POPC   PO442792  23.733  39.999   5.864
 3256POPC   GL142793  23.754  39.969   6.164
 3256POPC   GL242794  23.764  40.119   6.164
 3256POPC   C1A42795  23.690  40.045   6.464
 3256POPC   D2A42796  23.682  39.976   6.764
 3256POPC   C3A42797  23.680  39.999   7.064
 3256POPC   C4A42798  23.763  40.026   7.364
 3256POPC   C1B42799  23.677  40.208   6.464
 3256POPC   C2B42800  23.716  40.270   6.764
 3256POPC   C3B42801  23.736  40.290   7.064
 3256POPC   C4B42802  23.716  40.216   7.364
 3257POPC   NC342803  20.585  22.977   5.564
 3257POPC   PO442804  20.617  22.923   5.864
 3257POPC   GL142805  20.613  22.971   6.164
 3257POPC   GL242806  20.485  23.003   6.164
 3257POPC   C1A42807  20.619  22.923   6.464
 3257POPC   D2A42808  20.651  22.891   6.764
 3257POPC   C3A42809  20.566  22.953   7.064
 3257POPC   C4A42810  20.615  22.955   7.364
 3257POPC   C1B42811  20.410  23.087   6.464
 3257POPC   C2B42812  20.424  23.065   6.764
 3257POPC   C3B42813  20.449  23.126   7.064
 3257POPC   C4B42814  20.400  23.122   7.364
 3258POPC   NC342815  15.934  41.531   5.564
 3258POPC   PO442816  15.945  41.598   5.864
 3258POPC   GL142817  15.932  41.584   6.164
 3258POPC   GL242818  15.875  41.578   6.164
 3258POPC   C1A42819  15.964  41.607   6.464
 3258POPC   D2A42820  15.998  41.559   6.764
 3258POPC   C3A42821  15.917  41.597   7.064
 3258POPC   C4A42822  15.988  41.561   7.364
 3258POPC   C1B42823  15.730  41.592   6.464
 3258POPC   C2B42824  15.663  41.532   6.764
 3258POPC   C3B42825  15.695  41.532   7.064
 3258POPC   C4B42826  15.743  41.544   7.364
 3259POPC   NC342827  24.510  41.524   5.564
 3259POPC   PO442828  24.473  41.524   5.864
 3259POPC   GL142829  24.464  41.527   6.164
 3259POPC   GL242830  24.367  41.476   6.164
 3259POPC   C1A42831  24.473  41.576   6.464
 3259POPC   D2A42832  24.449  41.541   6.764
 3259POPC   C3A42833  24.495  41.596   7.064
 3259POPC   C4A42834  24.488  41.509   7.364
 3259POPC   C1B42835  24.304  41.450   6.464
 3259POPC   C2B42836  24.265  41.426   6.764
 3259POPC   C3B42837  24.261  41.389   7.064
 3259POPC   C4B42838  24.248  41.382   7.364
 3260POPC   NC342839   8.925  44.700   5.564
 3260POPC   PO442840   9.005  44.651   5.864
 3260POPC   GL142841   8.996  44.662   6.164
 3260POPC   GL242842   8.940  44.544   6.164
 3260POPC   C1A42843   8.923  44.634   6.464
 3260POPC   D2A42844   8.975  44.692   6.764
 3260POPC   C3A42845   8.955  44.693   7.064
 3260POPC   C4A42846   8.986  44.707   7.364
 3260POPC   C1B42847   9.028  44.452   6.464
 3260POPC   C2B42848   9.057  44.410   6.764
 3260POPC   C3B42849   9.041  44.365   7.064
 3260POPC   C4B42850   9.013  44.446   7.364
 3261POPC   NC342851  34.580  22.185   5.564
 3261POPC   PO442852  34.580  22.209   5.864
 3261POPC   GL142853  34.557  22.186   6.164
 3261POPC   GL242854  34.710  22.209   6.164
 3261POPC   C1A42855  34.589  22.211   6.464
 3261POPC   D2A42856  34.534  22.179   6.764
 3261POPC   C3A42857  34.533  22.153   7.064
 3261POPC   C4A42858  34.610  22.121   7.364
 3261POPC   C1B42859  34.859  22.246   6.464
 3261POPC   C2B42860  34.865  22.154   6.764
 3261POPC   C3B42861  34.840  22.201   7.064
 3261POPC   C4B42862  34.833  22.162   7.364
 3262POPC   NC342863  37.709  22.954   5.564
 3262POPC   PO442864  37.724  22.970   5.864
 3262POPC   GL142865  37.675  22.951   6.164
 3262POPC   GL242866  37.760  23.056   6.164
 3262POPC   C1A42867  37.665  22.977   6.464
 3262POPC   D2A42868  37.675  22.929   6.764
 3262POPC   C3A42869  37.703  22.963   7.064
 3262POPC   C4A42870  37.645  22.977   7.364
 3262POPC   C1B42871  37.793  23.089   6.464
 3262POPC   C2B42872  37.832  23.130   6.764
 3262POPC   C3B42873  37.884  23.107   7.064
 3262POPC   C4B42874  37.786  23.136   7.364
 3263POPC   NC342875  33.843  36.938   5.564
 3263POPC   PO442876  33.844  36.952   5.864
 3263POPC   GL142877  33.796  36.862   6.164
 3263POPC   GL242878  33.851  37.015   6.164
 3263POPC   C1A42879  33.824  36.919   6.464
 3263POPC   D2A42880  33.804  36.900   6.764
 3263POPC   C3A42881  33.819  36.868   7.064
 3263POPC   C4A42882  33.771  36.872   7.364
 3263POPC   C1B42883  33.981  37.073   6.464
 3263POPC   C2B42884  33.997  37.065   6.764
 3263POPC   C3B42885  34.035  37.108   7.064
 3263POPC   C4B42886  33.968  37.106   7.364
 3264POPC   NC342887   8.237  24.527   5.564
 3264POPC   PO442888   8.180  24.477   5.864
 3264POPC   GL142889   8.164  24.518   6.164
 3264POPC   GL242890   8.127  24.528   6.164
 3264POPC   C1A42891   8.152  24.537   6.464
 3264POPC   D2A42892   8.150  24.474   6.764
 3264POPC   C3A42893   8.245  24.466   7.064
 3264POPC   C4A42894   8.160  24.461   7.364
 3264POPC   C1B42895   7.961  24.647   6.464
 3264POPC   C2B42896   7.966  24.642   6.764
 3264POPC   C3B42897   8.018  24.602   7.064
 3264POPC   C4B42898   7.976  24.636   7.364
 3265POPC   NC342899  28.321  30.678   5.564
 3265POPC   PO442900  28.394  30.667   5.864
 3265POPC   GL142901  28.383  30.709   6.164
 3265POPC   GL242902  28.286  30.668   6.164
 3265POPC   C1A42903  28.412  30.696   6.464
 3265POPC   D2A42904  28.403  30.686   6.764
 3265POPC   C3A42905  28.356  30.683   7.064
 3265POPC   C4A42906  28.379  30.662   7.364
 3265POPC   C1B42907  28.094  30.735   6.464
 3265POPC   C2B42908  28.105  30.658   6.764
 3265POPC   C3B42909  28.122  30.735   7.064
 3265POPC   C4B42910  28.159  30.687   7.364
 3266POPC   NC342911   5.051   0.404   5.564
 3266POPC   PO442912   5.088   0.425   5.864
 3266POPC   GL142913   5.077   0.434   6.164
 3266POPC   GL242914   5.136   0.581   6.164
 3266POPC   C1A42915   5.126   0.397   6.464
 3266POPC   D2A42916   5.061   0.461   6.764
 3266POPC   C3A42917   5.131   0.476   7.064
 3266POPC   C4A42918   5.092   0.443   7.364
 3266POPC   C1B42919   5.181   0.652   6.464
 3266POPC   C2B42920   5.220   0.637   6.764
 3266POPC   C3B42921   5.159   0.640   7.064
 3266POPC   C4B42922   5.152   0.674   7.364
 3267POPC   NC342923  36.150  30.735   5.564
 3267POPC   PO442924  36.167  30.671   5.864
 3267POPC   GL142925  36.141  30.680   6.164
 3267POPC   GL242926  36.039  30.758   6.164
 3267POPC   C1A42927  36.153  30.729   6.464
 3267POPC   D2A42928  36.106  30.681   6.764
 3267POPC   C3A42929  36.173  30.711   7.064
 3267POPC   C4A42930  36.107  30.666   7.364
 3267POPC   C1B42931  35.910  30.761   6.464
 3267POPC   C2B42932  35.861  30.721   6.764
 3267POPC   C3B42933  35.831  30.722   7.064
 3267POPC   C4B42934  35.868  30.746   7.364
 3268POPC   NC342935  43.887   7.437   5.564
 3268POPC   PO442936  43.845   7.386   5.864
 3268POPC   GL142937  43.926   7.400   6.164
 3268POPC   GL242938  43.964   7.408   6.164
 3268POPC   C1A42939  43.864   7.423   6.464
 3268POPC   D2A42940  43.921   7.404   6.764
 3268POPC   C3A42941  43.857   7.453   7.064
 3268POPC   C4A42942  43.909   7.394   7.364
 3268POPC   C1B42943  44.161   7.437   6.464
 3268POPC   C2B42944  44.161   7.384   6.764
 3268POPC   C3B42945  44.122   7.421   7.064
 3268POPC   C4B42946  44.110   7.383   7.364
 3269POPC   NC342947   1.955  43.109   5.564
 3269POPC   PO442948   1.940  43.086   5.864
 3269POPC   GL142949   1.971  43.091   6.164
 3269POPC   GL242950   1.818  43.108   6.164
 3269POPC   C1A42951   1.995  43.146   6.464
 3269POPC   D2A42952   2.036  43.122   6.764
 3269POPC   C3A42953   1.983  43.083   7.064
 3269POPC   C4A42954   2.037  43.142   7.364
 3269POPC   C1B42955   1.718  43.120   6.464
 3269POPC   C2B42956   1.710  43.067   6.764
 3269POPC   C3B42957   1.691  43.094   7.064
 3269POPC   C4B42958   1.708  43.090   7.364
 3270POPC   NC342959   7.426  19.025   5.564
 3270POPC   PO442960   7.410  19.096   5.864
 3270POPC   GL142961   7.377  19.025   6.164
 3270POPC   GL242962   7.287  19.027   6.164
 3270POPC   C1A42963   7.376  19.044   6.464
 3270POPC   D2A42964   7.391  19.027   6.764
 3270POPC   C3A42965   7.436  19.036   7.064
 3270POPC   C4A42966   7.416  19.048   7.364
 3270POPC   C1B42967   7.218  19.044   6.464
 3270POPC   C2B42968   7.169  19.049   6.764
 3270POPC   C3B42969   7.129  19.019   7.064
 3270POPC   C4B42970   7.133  19.008   7.364
 3271POPC   NC342971  37.727   9.761   5.564
 3271POPC   PO442972  37.727   9.797   5.864
 3271POPC   GL142973  37.729   9.730   6.164
 3271POPC   GL242974  37.535   9.774   6.164
 3271POPC   C1A42975  37.724   9.763   6.464
 3271POPC   D2A42976  37.647   9.781   6.764
 3271POPC   C3A42977  37.669   9.745   7.064
 3271POPC   C4A42978  37.715   9.784   7.364
 3271POPC   C1B42979  37.457   9.716   6.464
 3271POPC   C2B42980  37.422   9.781   6.764
 3271POPC   C3B42981  37.452   9.790   7.064
 3271POPC   C4B42982  37.448   9.765   7.364
 3272POPC   NC342983  36.107  10.499   5.564
 3272POPC   PO442984  36.091  10.557   5.864
 3272POPC   GL142985  36.151  10.565   6.164
 3272POPC   GL242986  36.147  10.395   6.164
 3272POPC   C1A42987  36.125  10.512   6.464
 3272POPC   D2A42988  36.085  10.511   6.764
 3272POPC   C3A42989  36.173  10.542   7.064
 3272POPC   C4A42990  36.089  10.491   7.364
 3272POPC   C1B42991  36.236  10.302   6.464
 3272POPC   C2B42992  36.218  10.288   6.764
 3272POPC   C3B42993  36.269  10.356   7.064
 3272POPC   C4B42994  36.267  10.302   7.364
 3273POPC   NC342995  15.225  44.693   5.564
 3273POPC   PO442996  15.156  44.697   5.864
 3273POPC   GL142997  15.170  44.685   6.164
 3273POPC   GL242998  15.269  44.648   6.164
 3273POPC   C1A42999  15.216  44.694   6.464
 3273POPC   D2A43000  15.171  44.620   6.764
 3273POPC   C3A43001  15.217  44.683   7.064
 3273POPC   C4A43002  15.168  44.658   7.364
 3273POPC   C1B43003  15.360  44.544   6.464
 3273POPC   C2B43004  15.437  44.532   6.764
 3273POPC   C3B43005  15.374  44.558   7.064
 3273POPC   C4B43006  15.432  44.510   7.364
 3274POPC   NC343007  36.901   5.826   5.564
 3274POPC   PO443008  36.890   5.822   5.864
 3274POPC   GL143009  36.890   5.867   6.164
 3274POPC   GL243010  36.929   5.783   6.164
 3274POPC   C1A43011  36.934   5.820   6.464
 3274POPC   D2A43012  36.889   5.866   6.764
 3274POPC   C3A43013  36.904   5.906   7.064
 3274POPC   C4A43014  36.867   5.848   7.364
 3274POPC   C1B43015  36.896   5.641   6.464
 3274POPC   C2B43016  36.854   5.636   6.764
 3274POPC   C3B43017  36.845   5.607   7.064
 3274POPC   C4B43018  36.850   5.635   7.364
 3275POPC   NC343019  24.539  39.244   5.564
 3275POPC   PO443020  24.479  39.188   5.864
 3275POPC   GL143021  24.507  39.183   6.164
 3275POPC   GL243022  24.620  39.256   6.164
 3275POPC   C1A43023  24.495  39.242   6.464
 3275POPC   D2A43024  24.519  39.218   6.764
 3275POPC   C3A43025  24.500  39.213   7.064
 3275POPC   C4A43026  24.517  39.190   7.364
 3275POPC   C1B43027  24.748  39.379   6.464
 3275POPC   C2B43028  24.763  39.324   6.764
 3275POPC   C3B43029  24.698  39.367   7.064
 3275POPC   C4B43030  24.750  39.338   7.364
 3276POPC   NC343031  26.791  35.336   5.564
 3276POPC   PO443032  26.860  35.372   5.864
 3276POPC   GL143033  26.867  35.308   6.164
 3276POPC   GL243034  26.936  35.416   6.164
 3276POPC   C1A43035  26.835  35.354   6.464
 3276POPC   D2A43036  26.805  35.351   6.764
 3276POPC   C3A43037  26.810  35.354   7.064
 3276POPC   C4A43038  26.795  35.328   7.364
 3276POPC   C1B43039  27.065  35.487   6.464
 3276POPC   C2B43040  27.065  35.456   6.764
 3276POPC   C3B43041  27.084  35.420   7.064
 3276POPC   C4B43042  27.031  35.479   7.364
 3277POPC   NC343043  11.259  27.613   5.564
 3277POPC   PO443044  11.311  27.642   5.864
 3277POPC   GL143045  11.267  27.605   6.164
 3277POPC   GL243046  11.160  27.623   6.164
 3277POPC   C1A43047  11.292  27.594   6.464
 3277POPC   D2A43048  11.263  27.546   6.764
 3277POPC   C3A43049  11.333  27.604   7.064
 3277POPC   C4A43050  11.269  27.567   7.364
 3277POPC   C1B43051  11.049  27.652   6.464
 3277POPC   C2B43052  11.085  27.702   6.764
 3277POPC   C3B43053  11.041  27.687   7.064
 3277POPC   C4B43054  11.043  27.715   7.364
 3278POPC   NC343055  19.854  29.962   5.564
 3278POPC   PO443056  19.840  29.879   5.864
 3278POPC   GL143057  19.876  29.923   6.164
 3278POPC   GL243058  19.720  29.887   6.164
 3278POPC   C1A43059  19.825  29.871   6.464
 3278POPC   D2A43060  19.829  29.954   6.764
 3278POPC   C3A43061  19.805  29.880   7.064
 3278POPC   C4A43062  19.797  29.971   7.364
 3278POPC   C1B43063  19.621  29.781   6.464
 3278POPC   C2B43064  19.660  29.777   6.764
 3278POPC   C3B43065  19.638  29.812   7.064
 3278POPC   C4B43066  19.678  29.760   7.364
 3279POPC   NC343067  11.291  37.690   5.564
 3279POPC   PO443068  11.277  37.673   5.864
 3279POPC   GL143069  11.323  37.718   6.164
 3279POPC   GL243070  11.178  37.747   6.164
 3279POPC   C1A43071  11.269  37.726   6.464
 3279POPC   D2A43072  11.305  37.687   6.764
 3279POPC   C3A43073  11.254  37.643   7.064
 3279POPC   C4A43074  11.266  37.668   7.364
 3279POPC   C1B43075  11.139  37.815   6.464
 3279POPC   C2B43076  11.127  37.851   6.764
 3279POPC   C3B43077  11.156  37.821   7.064
 3279POPC   C4B43078  11.089  37.836   7.364
 3280POPC   NC343079  27.565   1.973   5.564
 3280POPC   PO443080  27.565   2.018   5.864
 3280POPC   GL143081  27.630   1.972   6.164
 3280POPC   GL243082  27.550   1.870   6.164
 3280POPC   C1A43083  27.571   2.010   6.464
 3280POPC   D2A43084  27.596   2.011   6.764
 3280POPC   C3A43085  27.592   2.028   7.064
 3280POPC   C4A43086  27.610   2.035   7.364
 3280POPC   C1B43087  27.582   1.741   6.464
 3280POPC   C2B43088  27.559   1.727   6.764
 3280POPC   C3B43089  27.620   1.722   7.064
 3280POPC   C4B43090  27.604   1.779   7.364
 3281POPC   NC343091  35.352   1.254   5.564
 3281POPC   PO443092  35.346   1.253   5.864
 3281POPC   GL143093  35.345   1.219   6.164
 3281POPC   GL243094  35.301   1.174   6.164
 3281POPC   C1A43095  35.308   1.213   6.464
 3281POPC   D2A43096  35.375   1.177   6.764
 3281POPC   C3A43097  35.351   1.196   7.064
 3281POPC   C4A43098  35.400   1.223   7.364
 3281POPC   C1B43099  35.139   0.997   6.464
 3281POPC   C2B43100  35.164   0.996   6.764
 3281POPC   C3B43101  35.154   1.037   7.064
 3281POPC   C4B43102  35.222   1.020   7.364
 3282POPC   NC343103  26.812  16.684   5.564
 3282POPC   PO443104  26.837  16.765   5.864
 3282POPC   GL143105  26.864  16.780   6.164
 3282POPC   GL243106  26.676  16.665   6.164
 3282POPC   C1A43107  26.863  16.764   6.464
 3282POPC   D2A43108  26.812  16.686   6.764
 3282POPC   C3A43109  26.849  16.684   7.064
 3282POPC   C4A43110  26.801  16.720   7.364
 3282POPC   C1B43111  26.542  16.664   6.464
 3282POPC   C2B43112  26.596  16.667   6.764
 3282POPC   C3B43113  26.542  16.688   7.064
 3282POPC   C4B43114  26.561  16.614   7.364
 3283POPC   NC343115   5.884  29.970   5.564
 3283POPC   PO443116   5.890  29.905   5.864
 3283POPC   GL143117   5.908  29.897   6.164
 3283POPC   GL243118   5.884  30.037   6.164
 3283POPC   C1A43119   5.885  29.955   6.464
 3283POPC   D2A43120   5.870  29.962   6.764
 3283POPC   C3A43121   5.860  29.902   7.064
 3283POPC   C4A43122   5.822  29.878   7.364
 3283POPC   C1B43123   5.793  30.128   6.464
 3283POPC   C2B43124   5.828  30.127   6.764
 3283POPC   C3B43125   5.773  30.188   7.064
 3283POPC   C4B43126   5.756  30.117   7.364
 3284POPC   NC343127   9.708  32.992   5.564
 3284POPC   PO443128   9.744  33.054   5.864
 3284POPC   GL143129   9.699  33.073   6.164
 3284POPC   GL243130   9.844  32.980   6.164
 3284POPC   C1A43131   9.792  33.059   6.464
 3284POPC   D2A43132   9.791  33.022   6.764
 3284POPC   C3A43133   9.719  32.999   7.064
 3284POPC   C4A43134   9.741  33.073   7.364
 3284POPC   C1B43135   9.976  32.969   6.464
 3284POPC   C2B43136   9.988  33.003   6.764
 3284POPC   C3B43137   9.970  32.993   7.064
 3284POPC   C4B43138   9.972  33.010   7.364
 3285POPC   NC343139  25.313  36.169   5.564
 3285POPC   PO443140  25.242  36.166   5.864
 3285POPC   GL143141  25.313  36.138   6.164
 3285POPC   GL243142  25.198  36.042   6.164
 3285POPC   C1A43143  25.256  36.105   6.464
 3285POPC   D2A43144  25.267  36.141   6.764
 3285POPC   C3A43145  25.285  36.177   7.064
 3285POPC   C4A43146  25.293  36.154   7.364
 3285POPC   C1B43147  25.072  36.004   6.464
 3285POPC   C2B43148  25.069  35.937   6.764
 3285POPC   C3B43149  25.045  35.931   7.064
 3285POPC   C4B43150  25.111  35.925   7.364
 3286POPC   NC343151  40.736  29.132   5.564
 3286POPC   PO443152  40.757  29.146   5.864
 3286POPC   GL143153  40.788  29.134   6.164
 3286POPC   GL243154  40.700  29.107   6.164
 3286POPC   C1A43155  40.799  29.137   6.464
 3286POPC   D2A43156  40.832  29.147   6.764
 3286POPC   C3A43157  40.765  29.183   7.064
 3286POPC   C4A43158  40.804  29.175   7.364
 3286POPC   C1B43159  40.526  29.041   6.464
 3286POPC   C2B43160  40.583  29.029   6.764
 3286POPC   C3B43161  40.553  29.039   7.064
 3286POPC   C4B43162  40.548  29.060   7.364
 3287POPC   NC343163  10.506  42.312   5.564
 3287POPC   PO443164  10.504  42.311   5.864
 3287POPC   GL143165  10.552  42.320   6.164
 3287POPC   GL243166  10.598  42.401   6.164
 3287POPC   C1A43167  10.569  42.307   6.464
 3287POPC   D2A43168  10.475  42.372   6.764
 3287POPC   C3A43169  10.504  42.331   7.064
 3287POPC   C4A43170  10.535  42.378   7.364
 3287POPC   C1B43171  10.703  42.464   6.464
 3287POPC   C2B43172  10.728  42.559   6.764
 3287POPC   C3B43173  10.660  42.548   7.064
 3287POPC   C4B43174  10.722  42.487   7.364
 3288POPC   NC343175   3.526  36.886   5.564
 3288POPC   PO443176   3.591  36.929   5.864
 3288POPC   GL143177   3.553  36.867   6.164
 3288POPC   GL243178   3.498  36.787   6.164
 3288POPC   C1A43179   3.590  36.944   6.464
 3288POPC   D2A43180   3.570  36.864   6.764
 3288POPC   C3A43181   3.529  36.906   7.064
 3288POPC   C4A43182   3.511  36.925   7.364
 3288POPC   C1B43183   3.365  36.673   6.464
 3288POPC   C2B43184   3.365  36.728   6.764
 3288POPC   C3B43185   3.336  36.754   7.064
 3288POPC   C4B43186   3.425  36.758   7.364
 3289POPC   NC343187  12.105  12.844   5.564
 3289POPC   PO443188  12.063  12.880   5.864
 3289POPC   GL143189  12.085  12.893   6.164
 3289POPC   GL243190  11.980  12.775   6.164
 3289POPC   C1A43191  12.048  12.871   6.464
 3289POPC   D2A43192  12.063  12.805   6.764
 3289POPC   C3A43193  12.070  12.880   7.064
 3289POPC   C4A43194  12.094  12.831   7.364
 3289POPC   C1B43195  11.953  12.623   6.464
 3289POPC   C2B43196  11.903  12.610   6.764
 3289POPC   C3B43197  11.924  12.624   7.064
 3289POPC   C4B43198  11.970  12.684   7.364
 3290POPC   NC343199   9.716   2.764   5.564
 3290POPC   PO443200   9.718   2.723   5.864
 3290POPC   GL143201   9.707   2.734   6.164
 3290POPC   GL243202   9.634   2.670   6.164
 3290POPC   C1A43203   9.707   2.800   6.464
 3290POPC   D2A43204   9.714   2.721   6.764
 3290POPC   C3A43205   9.710   2.809   7.064
 3290POPC   C4A43206   9.797   2.749   7.364
 3290POPC   C1B43207   9.587   2.636   6.464
 3290POPC   C2B43208   9.520   2.614   6.764
 3290POPC   C3B43209   9.586   2.626   7.064
 3290POPC   C4B43210   9.517   2.650   7.364
 3291POPC   NC343211   9.761  27.614   5.564
 3291POPC   PO443212   9.771  27.616   5.864
 3291POPC   GL143213   9.743  27.618   6.164
 3291POPC   GL243214   9.757  27.510   6.164
 3291POPC   C1A43215   9.724  27.579   6.464
 3291POPC   D2A43216   9.781  27.634   6.764
 3291POPC   C3A43217   9.725  27.615   7.064
 3291POPC   C4A43218   9.723  27.594   7.364
 3291POPC   C1B43219   9.876  27.364   6.464
 3291POPC   C2B43220   9.877  27.338   6.764
 3291POPC   C3B43221   9.887  27.323   7.064
 3291POPC   C4B43222   9.894  27.393   7.364
 3292POPC   NC343223  37.690  15.150   5.564
 3292POPC   PO443224  37.652  15.181   5.864
 3292POPC   GL143225  37.703  15.157   6.164
 3292POPC   GL243226  37.651  15.016   6.164
 3292POPC   C1A43227  37.668  15.220   6.464
 3292POPC   D2A43228  37.678  15.143   6.764
 3292POPC   C3A43229  37.711  15.136   7.064
 3292POPC   C4A43230  37.696  15.139   7.364
 3292POPC   C1B43231  37.686  14.972   6.464
 3292POPC   C2B43232  37.697  14.942   6.764
 3292POPC   C3B43233  37.740  14.903   7.064
 3292POPC   C4B43234  37.764  14.942   7.364
 3293POPC   NC343235  37.675   2.770   5.564
 3293POPC   PO443236  37.682   2.719   5.864
 3293POPC   GL143237  37.717   2.730   6.164
 3293POPC   GL243238  37.618   2.660   6.164
 3293POPC   C1A43239  37.660   2.780   6.464
 3293POPC   D2A43240  37.686   2.807   6.764
 3293POPC   C3A43241  37.702   2.811   7.064
 3293POPC   C4A43242  37.712   2.764   7.364
 3293POPC   C1B43243  37.537   2.633   6.464
 3293POPC   C2B43244  37.543   2.548   6.764
 3293POPC   C3B43245  37.451   2.642   7.064
 3293POPC   C4B43246  37.506   2.640   7.364
 3294POPC   NC343247  43.925  33.045   5.564
 3294POPC   PO443248  43.909  33.064   5.864
 3294POPC   GL143249  43.933  33.008   6.164
 3294POPC   GL243250  43.978  33.056   6.164
 3294POPC   C1A43251  43.871  33.066   6.464
 3294POPC   D2A43252  43.837  33.001   6.764
 3294POPC   C3A43253  43.906  33.043   7.064
 3294POPC   C4A43254  43.929  33.062   7.364
 3294POPC   C1B43255  44.094  33.198   6.464
 3294POPC   C2B43256  44.066  33.208   6.764
 3294POPC   C3B43257  44.088  33.175   7.064
 3294POPC   C4B43258  44.051  33.190   7.364
 3295POPC   NC343259   7.466  13.642   5.564
 3295POPC   PO443260   7.387  13.651   5.864
 3295POPC   GL143261   7.422  13.637   6.164
 3295POPC   GL243262   7.541  13.767   6.164
 3295POPC   C1A43263   7.426  13.642   6.464
 3295POPC   D2A43264   7.420  13.584   6.764
 3295POPC   C3A43265   7.446  13.668   7.064
 3295POPC   C4A43266   7.432  13.628   7.364
 3295POPC   C1B43267   7.616  13.811   6.464
 3295POPC   C2B43268   7.585  13.822   6.764
 3295POPC   C3B43269   7.599  13.796   7.064
 3295POPC   C4B43270   7.546  13.794   7.364
 3296POPC   NC343271  15.924   0.395   5.564
 3296POPC   PO443272  15.925   0.411   5.864
 3296POPC   GL143273  15.942   0.470   6.164
 3296POPC   GL243274  15.969   0.313   6.164
 3296POPC   C1A43275  16.004   0.479   6.464
 3296POPC   D2A43276  15.956   0.463   6.764
 3296POPC   C3A43277  15.961   0.481   7.064
 3296POPC   C4A43278  15.945   0.482   7.364
 3296POPC   C1B43279  15.922   0.172   6.464
 3296POPC   C2B43280  15.930   0.216   6.764
 3296POPC   C3B43281  15.951   0.180   7.064
 3296POPC   C4B43282  15.921   0.185   7.364
 3297POPC   NC343283   3.527  26.069   5.564
 3297POPC   PO443284   3.567  26.044   5.864
 3297POPC   GL143285   3.524  26.018   6.164
 3297POPC   GL243286   3.453  26.068   6.164
 3297POPC   C1A43287   3.591  26.061   6.464
 3297POPC   D2A43288   3.527  26.057   6.764
 3297POPC   C3A43289   3.500  26.088   7.064
 3297POPC   C4A43290   3.521  26.069   7.364
 3297POPC   C1B43291   3.381  26.209   6.464
 3297POPC   C2B43292   3.307  26.176   6.764
 3297POPC   C3B43293   3.293  26.197   7.064
 3297POPC   C4B43294   3.345  26.155   7.364
 3298POPC   NC343295  29.914   5.844   5.564
 3298POPC   PO443296  29.877   5.862   5.864
 3298POPC   GL143297  29.882   5.819   6.164
 3298POPC   GL243298  29.807   5.833   6.164
 3298POPC   C1A43299  29.937   5.864   6.464
 3298POPC   D2A43300  29.906   5.846   6.764
 3298POPC   C3A43301  29.882   5.836   7.064
 3298POPC   C4A43302  29.955   5.820   7.364
 3298POPC   C1B43303  29.663   5.838   6.464
 3298POPC   C2B43304  29.674   5.838   6.764
 3298POPC   C3B43305  29.638   5.866   7.064
 3298POPC   C4B43306  29.660   5.881   7.364
 3299POPC   NC343307   9.745  30.730   5.564
 3299POPC   PO443308   9.708  30.664   5.864
 3299POPC   GL143309   9.783  30.683   6.164
 3299POPC   GL243310   9.685  30.611   6.164
 3299POPC   C1A43311   9.747  30.690   6.464
 3299POPC   D2A43312   9.792  30.685   6.764
 3299POPC   C3A43313   9.701  30.734   7.064
 3299POPC   C4A43314   9.756  30.739   7.364
 3299POPC   C1B43315   9.705  30.444   6.464
 3299POPC   C2B43316   9.678  30.506   6.764
 3299POPC   C3B43317   9.666  30.443   7.064
 3299POPC   C4B43318   9.663  30.419   7.364
 3300POPC   NC343319  26.008  10.522   5.564
 3300POPC   PO443320  26.031  10.558   5.864
 3300POPC   GL143321  26.058  10.516   6.164
 3300POPC   GL243322  26.097  10.602   6.164
 3300POPC   C1A43323  26.050  10.574   6.464
 3300POPC   D2A43324  26.014  10.517   6.764
 3300POPC   C3A43325  26.072  10.568   7.064
 3300POPC   C4A43326  26.061  10.571   7.364
 3300POPC   C1B43327  26.170  10.734   6.464
 3300POPC   C2B43328  26.133  10.737   6.764
 3300POPC   C3B43329  26.139  10.755   7.064
 3300POPC   C4B43330  26.093  10.768   7.364
 3301POPC   NC343331  43.920   8.956   5.564
 3301POPC   PO443332  43.935   8.971   5.864
 3301POPC   GL143333  43.914   8.963   6.164
 3301POPC   GL243334  43.984   9.053   6.164
 3301POPC   C1A43335  43.852   8.991   6.464
 3301POPC   D2A43336  43.887   8.995   6.764
 3301POPC   C3A43337  43.935   8.943   7.064
 3301POPC   C4A43338  43.863   8.934   7.364
 3301POPC   C1B43339  44.009   9.246   6.464
 3301POPC   C2B43340  43.963   9.234   6.764
 3301POPC   C3B43341  44.038   9.247   7.064
 3301POPC   C4B43342  43.992   9.154   7.364
 3302POPC   NC343343  44.614   4.329   5.564
 3302POPC   PO443344  44.679   4.359   5.864
 3302POPC   GL143345  44.643   4.358   6.164
 3302POPC   GL243346  44.516   4.383   6.164
 3302POPC   C1A43347  44.664   4.349   6.464
 3302POPC   D2A43348  44.615   4.285   6.764
 3302POPC   C3A43349  44.679   4.321   7.064
 3302POPC   C4A43350  44.699   4.321   7.364
 3302POPC   C1B43351  44.468   4.367   6.464
 3302POPC   C2B43352  44.462   4.433   6.764
 3302POPC   C3B43353  44.409   4.375   7.064
 3302POPC   C4B43354  44.408   4.452   7.364
 3303POPC   NC343355  31.486  14.416   5.564
 3303POPC   PO443356  31.517  14.362   5.864
 3303POPC   GL143357  31.498  14.433   6.164
 3303POPC   GL243358  31.552  14.407   6.164
 3303POPC   C1A43359  31.514  14.421   6.464
 3303POPC   D2A43360  31.450  14.438   6.764
 3303POPC   C3A43361  31.505  14.433   7.064
 3303POPC   C4A43362  31.477  14.374   7.364
 3303POPC   C1B43363  31.727  14.354   6.464
 3303POPC   C2B43364  31.763  14.363   6.764
 3303POPC   C3B43365  31.697  14.371   7.064
 3303POPC   C4B43366  31.718  14.416   7.364
 3304POPC   NC343367   5.866  33.065   5.564
 3304POPC   PO443368   5.909  33.026   5.864
 3304POPC   GL143369   5.863  33.047   6.164
 3304POPC   GL243370   5.897  33.186   6.164
 3304POPC   C1A43371   5.874  33.008   6.464
 3304POPC   D2A43372   5.854  33.051   6.764
 3304POPC   C3A43373   5.880  33.008   7.064
 3304POPC   C4A43374   5.879  33.040   7.364
 3304POPC   C1B43375   5.915  33.291   6.464
 3304POPC   C2B43376   5.893  33.240   6.764
 3304POPC   C3B43377   5.850  33.319   7.064
 3304POPC   C4B43378   5.921  33.291   7.364
 3305POPC   NC343379  22.184  36.935   5.564
 3305POPC   PO443380  22.148  36.861   5.864
 3305POPC   GL143381  22.121  36.916   6.164
 3305POPC   GL243382  22.065  36.974   6.164
 3305POPC   C1A43383  22.167  36.950   6.464
 3305POPC   D2A43384  22.189  36.936   6.764
 3305POPC   C3A43385  22.204  36.948   7.064
 3305POPC   C4A43386  22.185  36.879   7.364
 3305POPC   C1B43387  22.004  37.080   6.464
 3305POPC   C2B43388  21.993  37.090   6.764
 3305POPC   C3B43389  22.045  37.133   7.064
 3305POPC   C4B43390  21.977  37.132   7.364
 3306POPC   NC343391  39.986  32.259   5.564
 3306POPC   PO443392  39.960  32.240   5.864
 3306POPC   GL143393  39.991  32.216   6.164
 3306POPC   GL243394  40.146  32.272   6.164
 3306POPC   C1A43395  40.006  32.298   6.464
 3306POPC   D2A43396  40.028  32.224   6.764
 3306POPC   C3A43397  40.024  32.280   7.064
 3306POPC   C4A43398  39.989  32.258   7.364
 3306POPC   C1B43399  40.183  32.346   6.464
 3306POPC   C2B43400  40.181  32.390   6.764
 3306POPC   C3B43401  40.238  32.312   7.064
 3306POPC   C4B43402  40.194  32.348   7.364
 3307POPC   NC343403  39.225  43.854   5.564
 3307POPC   PO443404  39.182  43.853   5.864
 3307POPC   GL143405  39.207  43.870   6.164
 3307POPC   GL243406  39.230  43.768   6.164
 3307POPC   C1A43407  39.208  43.928   6.464
 3307POPC   D2A43408  39.254  43.883   6.764
 3307POPC   C3A43409  39.183  43.883   7.064
 3307POPC   C4A43410  39.185  43.884   7.364
 3307POPC   C1B43411  39.242  43.635   6.464
 3307POPC   C2B43412  39.308  43.594   6.764
 3307POPC   C3B43413  39.232  43.682   7.064
 3307POPC   C4B43414  39.263  43.608   7.364
 3308POPC   NC343415  10.563   3.510   5.564
 3308POPC   PO443416  10.479   3.515   5.864
 3308POPC   GL143417  10.539   3.585   6.164
 3308POPC   GL243418  10.633   3.486   6.164
 3308POPC   C1A43419  10.560   3.512   6.464
 3308POPC   D2A43420  10.476   3.508   6.764
 3308POPC   C3A43421  10.503   3.559   7.064
 3308POPC   C4A43422  10.514   3.510   7.364
 3308POPC   C1B43423  10.788   3.571   6.464
 3308POPC   C2B43424  10.773   3.487   6.764
 3308POPC   C3B43425  10.814   3.500   7.064
 3308POPC   C4B43426  10.778   3.489   7.364
 3309POPC   NC343427  39.256  16.694   5.564
 3309POPC   PO443428  39.264  16.726   5.864
 3309POPC   GL143429  39.267  16.690   6.164
 3309POPC   GL243430  39.341  16.778   6.164
 3309POPC   C1A43431  39.228  16.748   6.464
 3309POPC   D2A43432  39.275  16.717   6.764
 3309POPC   C3A43433  39.221  16.694   7.064
 3309POPC   C4A43434  39.208  16.751   7.364
 3309POPC   C1B43435  39.486  16.780   6.464
 3309POPC   C2B43436  39.456  16.802   6.764
 3309POPC   C3B43437  39.511  16.730   7.064
 3309POPC   C4B43438  39.450  16.789   7.364
 3310POPC   NC343439  26.079  27.584   5.564
 3310POPC   PO443440  26.012  27.636   5.864
 3310POPC   GL143441  26.033  27.634   6.164
 3310POPC   GL243442  25.911  27.512   6.164
 3310POPC   C1A43443  26.049  27.609   6.464
 3310POPC   D2A43444  26.085  27.640   6.764
 3310POPC   C3A43445  26.022  27.580   7.064
 3310POPC   C4A43446  26.091  27.641   7.364
 3310POPC   C1B43447  25.851  27.432   6.464
 3310POPC   C2B43448  25.819  27.444   6.764
 3310POPC   C3B43449  25.815  27.401   7.064
 3310POPC   C4B43450  25.875  27.411   7.364
 3311POPC   NC343451  43.933  40.031   5.564
 3311POPC   PO443452  43.867  40.018   5.864
 3311POPC   GL143453  43.875  40.030   6.164
 3311POPC   GL243454  43.843  40.102   6.164
 3311POPC   C1A43455  43.872  39.969   6.464
 3311POPC   D2A43456  43.911  39.975   6.764
 3311POPC   C3A43457  43.921  40.042   7.064
 3311POPC   C4A43458  43.901  39.968   7.364
 3311POPC   C1B43459  43.825  40.260   6.464
 3311POPC   C2B43460  43.840  40.284   6.764
 3311POPC   C3B43461  43.779  40.239   7.064
 3311POPC   C4B43462  43.853  40.258   7.364
 3312POPC   NC343463  12.028  27.581   5.564
 3312POPC   PO443464  12.111  27.621   5.864
 3312POPC   GL143465  12.100  27.622   6.164
 3312POPC   GL243466  12.198  27.685   6.164
 3312POPC   C1A43467  12.066  27.639   6.464
 3312POPC   D2A43468  12.105  27.593   6.764
 3312POPC   C3A43469  12.068  27.605   7.064
 3312POPC   C4A43470  12.114  27.633   7.364
 3312POPC   C1B43471  12.262  27.793   6.464
 3312POPC   C2B43472  12.283  27.794   6.764
 3312POPC   C3B43473  12.321  27.773   7.064
 3312POPC   C4B43474  12.256  27.719   7.364
 3313POPC   NC343475  30.710  35.320   5.564
 3313POPC   PO443476  30.721  35.352   5.864
 3313POPC   GL143477  30.692  35.380   6.164
 3313POPC   GL243478  30.829  35.268   6.164
 3313POPC   C1A43479  30.678  35.400   6.464
 3313POPC   D2A43480  30.690  35.349   6.764
 3313POPC   C3A43481  30.714  35.353   7.064
 3313POPC   C4A43482  30.698  35.367   7.364
 3313POPC   C1B43483  30.893  35.141   6.464
 3313POPC   C2B43484  30.844  35.156   6.764
 3313POPC   C3B43485  30.874  35.205   7.064
 3313POPC   C4B43486  30.922  35.136   7.364
 3314POPC   NC343487  19.824  33.844   5.564
 3314POPC   PO443488  19.823  33.807   5.864
 3314POPC   GL143489  19.843  33.835   6.164
 3314POPC   GL243490  19.948  33.739   6.164
 3314POPC   C1A43491  19.839  33.755   6.464
 3314POPC   D2A43492  19.810  33.794   6.764
 3314POPC   C3A43493  19.848  33.792   7.064
 3314POPC   C4A43494  19.867  33.764   7.364
 3314POPC   C1B43495  19.990  33.602   6.464
 3314POPC   C2B43496  20.070  33.613   6.764
 3314POPC   C3B43497  20.057  33.639   7.064
 3314POPC   C4B43498  20.053  33.633   7.364
 3315POPC   NC343499  19.066  17.520   5.564
 3315POPC   PO443500  19.077  17.479   5.864
 3315POPC   GL143501  19.094  17.527   6.164
 3315POPC   GL243502  18.972  17.530   6.164
 3315POPC   C1A43503  19.062  17.556   6.464
 3315POPC   D2A43504  19.067  17.497   6.764
 3315POPC   C3A43505  19.031  17.486   7.064
 3315POPC   C4A43506  19.015  17.553   7.364
 3315POPC   C1B43507  18.829  17.420   6.464
 3315POPC   C2B43508  18.844  17.500   6.764
 3315POPC   C3B43509  18.796  17.471   7.064
 3315POPC   C4B43510  18.797  17.449   7.364
 3316POPC   NC343511  13.646   3.591   5.564
 3316POPC   PO443512  13.611   3.527   5.864
 3316POPC   GL143513  13.673   3.569   6.164
 3316POPC   GL243514  13.679   3.379   6.164
 3316POPC   C1A43515  13.585   3.538   6.464
 3316POPC   D2A43516  13.627   3.546   6.764
 3316POPC   C3A43517  13.589   3.496   7.064
 3316POPC   C4A43518  13.645   3.546   7.364
 3316POPC   C1B43519  13.642   3.245   6.464
 3316POPC   C2B43520  13.687   3.275   6.764
 3316POPC   C3B43521  13.681   3.250   7.064
 3316POPC   C4B43522  13.683   3.312   7.364
 3317POPC   NC343523  44.691  14.383   5.564
 3317POPC   PO443524  44.614  14.369   5.864
 3317POPC   GL143525  44.680  14.432   6.164
 3317POPC   GL243526  44.781  14.484   6.164
 3317POPC   C1A43527  44.651  14.421   6.464
 3317POPC   D2A43528  44.650  14.446   6.764
 3317POPC   C3A43529  44.700  14.355   7.064
 3317POPC   C4A43530  44.624  14.356   7.364
 3317POPC   C1B43531  44.834  14.650   6.464
 3317POPC   C2B43532  44.825  14.605   6.764
 3317POPC   C3B43533  44.787  14.610   7.064
 3317POPC   C4B43534  44.804  14.637   7.364
 3318POPC   NC343535  13.635  15.944   5.564
 3318POPC   PO443536  13.580  15.942   5.864
 3318POPC   GL143537  13.579  15.908   6.164
 3318POPC   GL243538  13.711  15.819   6.164
 3318POPC   C1A43539  13.651  15.949   6.464
 3318POPC   D2A43540  13.613  16.002   6.764
 3318POPC   C3A43541  13.640  16.004   7.064
 3318POPC   C4A43542  13.581  15.985   7.364
 3318POPC   C1B43543  13.825  15.728   6.464
 3318POPC   C2B43544  13.831  15.807   6.764
 3318POPC   C3B43545  13.770  15.790   7.064
 3318POPC   C4B43546  13.750  15.785   7.364
 3319POPC   NC343547  34.572  32.288   5.564
 3319POPC   PO443548  34.557  32.278   5.864
 3319POPC   GL143549  34.583  32.236   6.164
 3319POPC   GL243550  34.651  32.260   6.164
 3319POPC   C1A43551  34.625  32.228   6.464
 3319POPC   D2A43552  34.539  32.246   6.764
 3319POPC   C3A43553  34.558  32.292   7.064
 3319POPC   C4A43554  34.577  32.202   7.364
 3319POPC   C1B43555  34.774  32.372   6.464
 3319POPC   C2B43556  34.803  32.333   6.764
 3319POPC   C3B43557  34.855  32.362   7.064
 3319POPC   C4B43558  34.852  32.321   7.364
 3320POPC   NC343559  30.727  19.106   5.564
 3320POPC   PO443560  30.694  19.064   5.864
 3320POPC   GL143561  30.655  19.031   6.164
 3320POPC   GL243562  30.724  18.948   6.164
 3320POPC   C1A43563  30.711  19.036   6.464
 3320POPC   D2A43564  30.712  19.082   6.764
 3320POPC   C3A43565  30.668  19.053   7.064
 3320POPC   C4A43566  30.702  19.028   7.364
 3320POPC   C1B43567  30.643  18.778   6.464
 3320POPC   C2B43568  30.632  18.838   6.764
 3320POPC   C3B43569  30.678  18.778   7.064
 3320POPC   C4B43570  30.694  18.791   7.364
 3321POPC   NC343571  39.982  40.776   5.564
 3321POPC   PO443572  40.006  40.807   5.864
 3321POPC   GL143573  40.004  40.756   6.164
 3321POPC   GL243574  39.878  40.784   6.164
 3321POPC   C1A43575  40.007  40.763   6.464
 3321POPC   D2A43576  39.989  40.771   6.764
 3321POPC   C3A43577  40.048  40.802   7.064
 3321POPC   C4A43578  40.052  40.743   7.364
 3321POPC   C1B43579  39.739  40.734   6.464
 3321POPC   C2B43580  39.773  40.782   6.764
 3321POPC   C3B43581  39.770  40.749   7.064
 3321POPC   C4B43582  39.788  40.780   7.364
 3322POPC   NC343583  44.683   7.394   5.564
 3322POPC   PO443584  44.636   7.372   5.864
 3322POPC   GL143585  44.706   7.375   6.164
 3322POPC   GL243586  44.742   7.568   6.164
 3322POPC   C1A43587  44.640   7.376   6.464
 3322POPC   D2A43588  44.627   7.446   6.764
 3322POPC   C3A43589  44.656   7.464   7.064
 3322POPC   C4A43590  44.654   7.460   7.364
 3322POPC   C1B43591  44.836   7.590   6.464
 3322POPC   C2B43592  44.832   7.648   6.764
 3322POPC   C3B43593  44.835   7.654   7.064
 3322POPC   C4B43594  44.756   7.600   7.364
 3323POPC   NC343595  32.290   5.047   5.564
 3323POPC   PO443596  32.201   5.050   5.864
 3323POPC   GL143597  32.232   5.135   6.164
 3323POPC   GL243598  32.183   5.136   6.164
 3323POPC   C1A43599  32.270   5.097   6.464
 3323POPC   D2A43600  32.238   5.064   6.764
 3323POPC   C3A43601  32.251   5.056   7.064
 3323POPC   C4A43602  32.280   5.078   7.364
 3323POPC   C1B43603  32.059   5.182   6.464
 3323POPC   C2B43604  31.985   5.206   6.764
 3323POPC   C3B43605  32.053   5.169   7.064
 3323POPC   C4B43606  31.992   5.222   7.364
 3324POPC   NC343607  23.701  35.309   5.564
 3324POPC   PO443608  23.740  35.370   5.864
 3324POPC   GL143609  23.732  35.342   6.164
 3324POPC   GL243610  23.825  35.385   6.164
 3324POPC   C1A43611  23.716  35.372   6.464
 3324POPC   D2A43612  23.727  35.372   6.764
 3324POPC   C3A43613  23.686  35.337   7.064
 3324POPC   C4A43614  23.686  35.383   7.364
 3324POPC   C1B43615  23.943  35.514   6.464
 3324POPC   C2B43616  23.912  35.498   6.764
 3324POPC   C3B43617  23.953  35.466   7.064
 3324POPC   C4B43618  23.906  35.513   7.364
 3325POPC   NC343619  36.896  33.007   5.564
 3325POPC   PO443620  36.909  33.031   5.864
 3325POPC   GL143621  36.936  33.064   6.164
 3325POPC   GL243622  36.824  33.091   6.164
 3325POPC   C1A43623  36.943  33.049   6.464
 3325POPC   D2A43624  36.945  32.985   6.764
 3325POPC   C3A43625  36.882  33.045   7.064
 3325POPC   C4A43626  36.865  33.056   7.364
 3325POPC   C1B43627  36.732  33.228   6.464
 3325POPC   C2B43628  36.746  33.228   6.764
 3325POPC   C3B43629  36.731  33.172   7.064
 3325POPC   C4B43630  36.712  33.212   7.364
 3326POPC   NC343631  25.243  37.683   5.564
 3326POPC   PO443632  25.276  37.692   5.864
 3326POPC   GL143633  25.224  37.697   6.164
 3326POPC   GL243634  25.208  37.544   6.164
 3326POPC   C1A43635  25.285  37.719   6.464
 3326POPC   D2A43636  25.303  37.696   6.764
 3326POPC   C3A43637  25.264  37.709   7.064
 3326POPC   C4A43638  25.305  37.656   7.364
 3326POPC   C1B43639  25.077  37.528   6.464
 3326POPC   C2B43640  25.087  37.512   6.764
 3326POPC   C3B43641  25.059  37.493   7.064
 3326POPC   C4B43642  25.096  37.502   7.364
 3327POPC   NC343643  13.632  11.341   5.564
 3327POPC   PO443644  13.635  11.275   5.864
 3327POPC   GL143645  13.595  11.289   6.164
 3327POPC   GL243646  13.652  11.218   6.164
 3327POPC   C1A43647  13.676  11.344   6.464
 3327POPC   D2A43648  13.651  11.264   6.764
 3327POPC   C3A43649  13.609  11.272   7.064
 3327POPC   C4A43650  13.636  11.281   7.364
 3327POPC   C1B43651  13.559  11.071   6.464
 3327POPC   C2B43652  13.602  11.101   6.764
 3327POPC   C3B43653  13.558  11.009   7.064
 3327POPC   C4B43654  13.538  11.062   7.364
 3328POPC   NC343655   2.738  15.999   5.564
 3328POPC   PO443656   2.811  15.909   5.864
 3328POPC   GL143657   2.733  15.996   6.164
 3328POPC   GL243658   2.915  15.938   6.164
 3328POPC   C1A43659   2.745  15.954   6.464
 3328POPC   D2A43660   2.725  15.926   6.764
 3328POPC   C3A43661   2.741  15.994   7.064
 3328POPC   C4A43662   2.780  15.965   7.364
 3328POPC   C1B43663   2.947  15.887   6.464
 3328POPC   C2B43664   3.043  15.874   6.764
 3328POPC   C3B43665   3.039  15.884   7.064
 3328POPC   C4B43666   2.968  15.889   7.364
 3329POPC   NC343667  36.166  15.153   5.564
 3329POPC   PO443668  36.150  15.186   5.864
 3329POPC   GL143669  36.095  15.208   6.164
 3329POPC   GL243670  36.180  15.252   6.164
 3329POPC   C1A43671  36.176  15.212   6.464
 3329POPC   D2A43672  36.121  15.221   6.764
 3329POPC   C3A43673  36.157  15.139   7.064
 3329POPC   C4A43674  36.138  15.165   7.364
 3329POPC   C1B43675  36.248  15.408   6.464
 3329POPC   C2B43676  36.310  15.365   6.764
 3329POPC   C3B43677  36.257  15.370   7.064
 3329POPC   C4B43678  36.248  15.374   7.364
 3330POPC   NC343679  26.003  22.976   5.564
 3330POPC   PO443680  26.046  22.951   5.864
 3330POPC   GL143681  25.997  22.909   6.164
 3330POPC   GL243682  25.913  23.002   6.164
 3330POPC   C1A43683  26.021  22.984   6.464
 3330POPC   D2A43684  26.001  22.969   6.764
 3330POPC   C3A43685  26.029  22.942   7.064
 3330POPC   C4A43686  26.091  22.977   7.364
 3330POPC   C1B43687  25.774  23.017   6.464
 3330POPC   C2B43688  25.810  23.065   6.764
 3330POPC   C3B43689  25.836  23.008   7.064
 3330POPC   C4B43690  25.759  23.063   7.364
 3331POPC   NC343691  15.161  14.416   5.564
 3331POPC   PO443692  15.189  14.383   5.864
 3331POPC   GL143693  15.138  14.396   6.164
 3331POPC   GL243694  15.255  14.445   6.164
 3331POPC   C1A43695  15.139  14.413   6.464
 3331POPC   D2A43696  15.195  14.423   6.764
 3331POPC   C3A43697  15.203  14.406   7.064
 3331POPC   C4A43698  15.132  14.363   7.364
 3331POPC   C1B43699  15.434  14.402   6.464
 3331POPC   C2B43700  15.455  14.351   6.764
 3331POPC   C3B43701  15.386  14.416   7.064
 3331POPC   C4B43702  15.454  14.447   7.364
 3332POPC   NC343703  27.628  39.993   5.564
 3332POPC   PO443704  27.637  40.047   5.864
 3332POPC   GL143705  27.545  40.014   6.164
 3332POPC   GL243706  27.683  39.906   6.164
 3332POPC   C1A43707  27.613  40.047   6.464
 3332POPC   D2A43708  27.566  40.055   6.764
 3332POPC   C3A43709  27.638  40.009   7.064
 3332POPC   C4A43710  27.630  40.038   7.364
 3332POPC   C1B43711  27.738  39.801   6.464
 3332POPC   C2B43712  27.690  39.808   6.764
 3332POPC   C3B43713  27.734  39.831   7.064
 3332POPC   C4B43714  27.750  39.745   7.364
 3333POPC   NC343715  41.583  25.311   5.564
 3333POPC   PO443716  41.596  25.283   5.864
 3333POPC   GL143717  41.534  25.246   6.164
 3333POPC   GL243718  41.412  25.280   6.164
 3333POPC   C1A43719  41.543  25.241   6.464
 3333POPC   D2A43720  41.552  25.265   6.764
 3333POPC   C3A43721  41.593  25.285   7.064
 3333POPC   C4A43722  41.547  25.300   7.364
 3333POPC   C1B43723  41.334  25.201   6.464
 3333POPC   C2B43724  41.319  25.237   6.764
 3333POPC   C3B43725  41.362  25.203   7.064
 3333POPC   C4B43726  41.297  25.222   7.364
 3334POPC   NC343727  29.126   7.374   5.564
 3334POPC   PO443728  29.190   7.465   5.864
 3334POPC   GL143729  29.162   7.377   6.164
 3334POPC   GL243730  29.046   7.352   6.164
 3334POPC   C1A43731  29.151   7.387   6.464
 3334POPC   D2A43732  29.131   7.432   6.764
 3334POPC   C3A43733  29.163   7.454   7.064
 3334POPC   C4A43734  29.173   7.453   7.364
 3334POPC   C1B43735  28.918   7.419   6.464
 3334POPC   C2B43736  28.852   7.355   6.764
 3334POPC   C3B43737  28.929   7.363   7.064
 3334POPC   C4B43738  28.876   7.380   7.364
 3335POPC   NC343739  23.717  13.633   5.564
 3335POPC   PO443740  23.666  13.677   5.864
 3335POPC   GL143741  23.683  13.595   6.164
 3335POPC   GL243742  23.723  13.502   6.164
 3335POPC   C1A43743  23.699  13.676   6.464
 3335POPC   D2A43744  23.680  13.585   6.764
 3335POPC   C3A43745  23.706  13.579   7.064
 3335POPC   C4A43746  23.665  13.674   7.364
 3335POPC   C1B43747  23.849  13.408   6.464
 3335POPC   C2B43748  23.828  13.401   6.764
 3335POPC   C3B43749  23.854  13.426   7.064
 3335POPC   C4B43750  23.843  13.392   7.364
 3336POPC   NC343751  35.396   7.429   5.564
 3336POPC   PO443752  35.332   7.420   5.864
 3336POPC   GL143753  35.360   7.469   6.164
 3336POPC   GL243754  35.416   7.517   6.164
 3336POPC   C1A43755  35.335   7.422   6.464
 3336POPC   D2A43756  35.306   7.377   6.764
 3336POPC   C3A43757  35.345   7.376   7.064
 3336POPC   C4A43758  35.315   7.417   7.364
 3336POPC   C1B43759  35.488   7.597   6.464
 3336POPC   C2B43760  35.556   7.608   6.764
 3336POPC   C3B43761  35.515   7.632   7.064
 3336POPC   C4B43762  35.521   7.636   7.364
 3337POPC   NC343763   5.881  41.516   5.564
 3337POPC   PO443764   5.861  41.534   5.864
 3337POPC   GL143765   5.872  41.530   6.164
 3337POPC   GL243766   5.962  41.594   6.164
 3337POPC   C1A43767   5.829  41.544   6.464
 3337POPC   D2A43768   5.918  41.536   6.764
 3337POPC   C3A43769   5.861  41.525   7.064
 3337POPC   C4A43770   5.864  41.605   7.364
 3337POPC   C1B43771   6.126  41.618   6.464
 3337POPC   C2B43772   6.096  41.616   6.764
 3337POPC   C3B43773   6.145  41.711   7.064
 3337POPC   C4B43774   6.124  41.635   7.364
 3338POPC   NC343775  11.299   2.738   5.564
 3338POPC   PO443776  11.328   2.723   5.864
 3338POPC   GL143777  11.270   2.792   6.164
 3338POPC   GL243778  11.376   2.871   6.164
 3338POPC   C1A43779  11.316   2.785   6.464
 3338POPC   D2A43780  11.288   2.790   6.764
 3338POPC   C3A43781  11.263   2.815   7.064
 3338POPC   C4A43782  11.285   2.725   7.364
 3338POPC   C1B43783  11.522   2.988   6.464
 3338POPC   C2B43784  11.425   2.992   6.764
 3338POPC   C3B43785  11.429   2.912   7.064
 3338POPC   C4B43786  11.503   2.957   7.364
 3339POPC   NC343787  42.349  29.971   5.564
 3339POPC   PO443788  42.347  29.949   5.864
 3339POPC   GL143789  42.350  29.918   6.164
 3339POPC   GL243790  42.466  29.830   6.164
 3339POPC   C1A43791  42.308  29.927   6.464
 3339POPC   D2A43792  42.334  29.888   6.764
 3339POPC   C3A43793  42.366  29.919   7.064
 3339POPC   C4A43794  42.291  29.884   7.364
 3339POPC   C1B43795  42.588  29.816   6.464
 3339POPC   C2B43796  42.502  29.777   6.764
 3339POPC   C3B43797  42.551  29.759   7.064
 3339POPC   C4B43798  42.552  29.754   7.364
 3340POPC   NC343799  19.800  32.277   5.564
 3340POPC   PO443800  19.833  32.280   5.864
 3340POPC   GL143801  19.841  32.206   6.164
 3340POPC   GL243802  19.751  32.299   6.164
 3340POPC   C1A43803  19.828  32.223   6.464
 3340POPC   D2A43804  19.818  32.203   6.764
 3340POPC   C3A43805  19.819  32.260   7.064
 3340POPC   C4A43806  19.829  32.205   7.364
 3340POPC   C1B43807  19.616  32.348   6.464
 3340POPC   C2B43808  19.643  32.387   6.764
 3340POPC   C3B43809  19.624  32.397   7.064
 3340POPC   C4B43810  19.571  32.396   7.364
 3341POPC   NC343811  17.539   5.882   5.564
 3341POPC   PO443812  17.495   5.916   5.864
 3341POPC   GL143813  17.507   5.883   6.164
 3341POPC   GL243814  17.408   5.875   6.164
 3341POPC   C1A43815  17.480   5.880   6.464
 3341POPC   D2A43816  17.555   5.837   6.764
 3341POPC   C3A43817  17.483   5.880   7.064
 3341POPC   C4A43818  17.529   5.899   7.364
 3341POPC   C1B43819  17.282   5.923   6.464
 3341POPC   C2B43820  17.304   5.829   6.764
 3341POPC   C3B43821  17.303   5.872   7.064
 3341POPC   C4B43822  17.264   5.890   7.364
 3342POPC   NC343823  43.859   3.516   5.564
 3342POPC   PO443824  43.856   3.529   5.864
 3342POPC   GL143825  43.848   3.545   6.164
 3342POPC   GL243826  43.885   3.710   6.164
 3342POPC   C1A43827  43.842   3.529   6.464
 3342POPC   D2A43828  43.929   3.543   6.764
 3342POPC   C3A43829  43.846   3.561   7.064
 3342POPC   C4A43830  43.905   3.590   7.364
 3342POPC   C1B43831  43.863   3.818   6.464
 3342POPC   C2B43832  43.928   3.808   6.764
 3342POPC   C3B43833  43.928   3.783   7.064
 3342POPC   C4B43834  43.880   3.752   7.364
 3343POPC   NC343835  12.858  10.505   5.564
 3343POPC   PO443836  12.822  10.506   5.864
 3343POPC   GL143837  12.844  10.535   6.164
 3343POPC   GL243838  12.720  10.635   6.164
 3343POPC   C1A43839  12.825  10.559   6.464
 3343POPC   D2A43840  12.824  10.507   6.764
 3343POPC   C3A43841  12.822  10.515   7.064
 3343POPC   C4A43842  12.838  10.518   7.364
 3343POPC   C1B43843  12.671  10.626   6.464
 3343POPC   C2B43844  12.584  10.605   6.764
 3343POPC   C3B43845  12.642  10.622   7.064
 3343POPC   C4B43846  12.653  10.603   7.364
 3344POPC   NC343847  41.578  18.266   5.564
 3344POPC   PO443848  41.527  18.302   5.864
 3344POPC   GL143849  41.561  18.254   6.164
 3344POPC   GL243850  41.517  18.436   6.164
 3344POPC   C1A43851  41.596  18.328   6.464
 3344POPC   D2A43852  41.551  18.275   6.764
 3344POPC   C3A43853  41.578  18.262   7.064
 3344POPC   C4A43854  41.518  18.329   7.364
 3344POPC   C1B43855  41.398  18.499   6.464
 3344POPC   C2B43856  41.424  18.537   6.764
 3344POPC   C3B43857  41.420  18.548   7.064
 3344POPC   C4B43858  41.394  18.498   7.364
 3345POPC   NC343859  12.826  36.113   5.564
 3345POPC   PO443860  12.826  36.125   5.864
 3345POPC   GL143861  12.805  36.118   6.164
 3345POPC   GL243862  12.982  36.048   6.164
 3345POPC   C1A43863  12.813  36.133   6.464
 3345POPC   D2A43864  12.896  36.128   6.764
 3345POPC   C3A43865  12.814  36.154   7.064
 3345POPC   C4A43866  12.806  36.177   7.364
 3345POPC   C1B43867  13.091  35.995   6.464
 3345POPC   C2B43868  13.098  36.073   6.764
 3345POPC   C3B43869  13.099  35.988   7.064
 3345POPC   C4B43870  13.127  36.018   7.364
 3346POPC   NC343871  13.648  36.896   5.564
 3346POPC   PO443872  13.605  36.911   5.864
 3346POPC   GL143873  13.610  36.869   6.164
 3346POPC   GL243874  13.627  36.785   6.164
 3346POPC   C1A43875  13.619  36.873   6.464
 3346POPC   D2A43876  13.640  36.893   6.764
 3346POPC   C3A43877  13.589  36.920   7.064
 3346POPC   C4A43878  13.675  36.902   7.364
 3346POPC   C1B43879  13.660  36.695   6.464
 3346POPC   C2B43880  13.659  36.626   6.764
 3346POPC   C3B43881  13.577  36.680   7.064
 3346POPC   C4B43882  13.573  36.610   7.364
 3347POPC   NC343883  41.569  22.165   5.564
 3347POPC   PO443884  41.585  22.141   5.864
 3347POPC   GL143885  41.544  22.148   6.164
 3347POPC   GL243886  41.528  22.263   6.164
 3347POPC   C1A43887  41.537  22.203   6.464
 3347POPC   D2A43888  41.604  22.180   6.764
 3347POPC   C3A43889  41.522  22.170   7.064
 3347POPC   C4A43890  41.513  22.173   7.364
 3347POPC   C1B43891  41.570  22.448   6.464
 3347POPC   C2B43892  41.623  22.390   6.764
 3347POPC   C3B43893  41.608  22.448   7.064
 3347POPC   C4B43894  41.601  22.456   7.364
 3348POPC   NC343895   5.850  18.328   5.564
 3348POPC   PO443896   5.887  18.273   5.864
 3348POPC   GL143897   5.866  18.296   6.164
 3348POPC   GL243898   5.898  18.124   6.164
 3348POPC   C1A43899   5.915  18.289   6.464
 3348POPC   D2A43900   5.876  18.279   6.764
 3348POPC   C3A43901   5.919  18.285   7.064
 3348POPC   C4A43902   5.891  18.314   7.364
 3348POPC   C1B43903   5.821  18.036   6.464
 3348POPC   C2B43904   5.852  18.038   6.764
 3348POPC   C3B43905   5.896  18.003   7.064
 3348POPC   C4B43906   5.858  17.993   7.364
 3349POPC   NC343907  10.511  40.790   5.564
 3349POPC   PO443908  10.538  40.740   5.864
 3349POPC   GL143909  10.478  40.823   6.164
 3349POPC   GL243910  10.423  40.845   6.164
 3349POPC   C1A43911  10.571  40.764   6.464
 3349POPC   D2A43912  10.561  40.760   6.764
 3349POPC   C3A43913  10.510  40.771   7.064
 3349POPC   C4A43914  10.497  40.813   7.364
 3349POPC   C1B43915  10.277  40.901   6.464
 3349POPC   C2B43916  10.350  40.892   6.764
 3349POPC   C3B43917  10.321  40.922   7.064
 3349POPC   C4B43918  10.307  40.877   7.364
 3350POPC   NC343919  29.913  42.322   5.564
 3350POPC   PO443920  29.961  42.375   5.864
 3350POPC   GL143921  29.951  42.322   6.164
 3350POPC   GL243922  29.895  42.439   6.164
 3350POPC   C1A43923  29.898  42.356   6.464
 3350POPC   D2A43924  29.916  42.381   6.764
 3350POPC   C3A43925  29.893  42.328   7.064
 3350POPC   C4A43926  29.933  42.313   7.364
 3350POPC   C1B43927  29.852  42.620   6.464
 3350POPC   C2B43928  29.841  42.617   6.764
 3350POPC   C3B43929  29.815  42.533   7.064
 3350POPC   C4B43930  29.810  42.576   7.364
 3351POPC   NC343931  33.010  18.251   5.564
 3351POPC   PO443932  33.057  18.326   5.864
 3351POPC   GL143933  33.070  18.286   6.164
 3351POPC   GL243934  32.972  18.407   6.164
 3351POPC   C1A43935  33.051  18.325   6.464
 3351POPC   D2A43936  33.034  18.282   6.764
 3351POPC   C3A43937  33.016  18.331   7.064
 3351POPC   C4A43938  32.992  18.278   7.364
 3351POPC   C1B43939  32.954  18.546   6.464
 3351POPC   C2B43940  32.989  18.481   6.764
 3351POPC   C3B43941  32.951  18.565   7.064
 3351POPC   C4B43942  32.937  18.519   7.364
 3352POPC   NC343943   4.295  43.114   5.564
 3352POPC   PO443944   4.325  43.156   5.864
 3352POPC   GL143945   4.280  43.138   6.164
 3352POPC   GL243946   4.209  43.180   6.164
 3352POPC   C1A43947   4.321  43.099   6.464
 3352POPC   D2A43948   4.352  43.100   6.764
 3352POPC   C3A43949   4.291  43.090   7.064
 3352POPC   C4A43950   4.349  43.115   7.364
 3352POPC   C1B43951   4.197  43.262   6.464
 3352POPC   C2B43952   4.110  43.347   6.764
 3352POPC   C3B43953   4.154  43.341   7.064
 3352POPC   C4B43954   4.124  43.348   7.364
 3353POPC   NC343955  26.780   9.766   5.564
 3353POPC   PO443956  26.840   9.735   5.864
 3353POPC   GL143957  26.790   9.789   6.164
 3353POPC   GL243958  26.678   9.845   6.164
 3353POPC   C1A43959  26.831   9.755   6.464
 3353POPC   D2A43960  26.827   9.707   6.764
 3353POPC   C3A43961  26.842   9.748   7.064
 3353POPC   C4A43962  26.848   9.755   7.364
 3353POPC   C1B43963  26.557   9.899   6.464
 3353POPC   C2B43964  26.578   9.810   6.764
 3353POPC   C3B43965  26.546   9.895   7.064
 3353POPC   C4B43966  26.628   9.864   7.364
 3354POPC   NC343967  35.363  32.978   5.564
 3354POPC   PO443968  35.337  32.979   5.864
 3354POPC   GL143969  35.350  33.014   6.164
 3354POPC   GL243970  35.476  33.129   6.164
 3354POPC   C1A43971  35.371  33.055   6.464
 3354POPC   D2A43972  35.393  33.033   6.764
 3354POPC   C3A43973  35.362  33.024   7.064
 3354POPC   C4A43974  35.383  32.982   7.364
 3354POPC   C1B43975  35.543  33.230   6.464
 3354POPC   C2B43976  35.547  33.192   6.764
 3354POPC   C3B43977  35.505  33.234   7.064
 3354POPC   C4B43978  35.509  33.218   7.364
 3355POPC   NC343979  12.087  12.039   5.564
 3355POPC   PO443980  12.073  12.088   5.864
 3355POPC   GL143981  12.073  12.051   6.164
 3355POPC   GL243982  11.923  12.129   6.164
 3355POPC   C1A43983  12.062  12.108   6.464
 3355POPC   D2A43984  12.099  12.066   6.764
 3355POPC   C3A43985  12.062  12.033   7.064
 3355POPC   C4A43986  12.092  12.049   7.364
 3355POPC   C1B43987  11.819  12.074   6.464
 3355POPC   C2B43988  11.846  12.104   6.764
 3355POPC   C3B43989  11.833  12.098   7.064
 3355POPC   C4B43990  11.806  12.129   7.364
 3356POPC   NC343991  40.745  11.286   5.564
 3356POPC   PO443992  40.769  11.256   5.864
 3356POPC   GL143993  40.810  11.295   6.164
 3356POPC   GL243994  40.895  11.281   6.164
 3356POPC   C1A43995  40.797  11.336   6.464
 3356POPC   D2A43996  40.812  11.318   6.764
 3356POPC   C3A43997  40.777  11.347   7.064
 3356POPC   C4A43998  40.746  11.282   7.364
 3356POPC   C1B43999  41.015  11.309   6.464
 3356POPC   C2B44000  41.006  11.276   6.764
 3356POPC   C3B44001  41.001  11.335   7.064
 3356POPC   C4B44002  41.065  11.331   7.364
 3357POPC   NC344003  38.430  12.105   5.564
 3357POPC   PO444004  38.493  12.061   5.864
 3357POPC   GL144005  38.441  12.099   6.164
 3357POPC   GL244006  38.493  12.167   6.164
 3357POPC   C1A44007  38.462  12.099   6.464
 3357POPC   D2A44008  38.420  12.051   6.764
 3357POPC   C3A44009  38.496  12.071   7.064
 3357POPC   C4A44010  38.473  12.118   7.364
 3357POPC   C1B44011  38.425  12.358   6.464
 3357POPC   C2B44012  38.465  12.296   6.764
 3357POPC   C3B44013  38.457  12.329   7.064
 3357POPC   C4B44014  38.464  12.326   7.364
 3358POPC   NC344015  36.150  43.917   5.564
 3358POPC   PO444016  36.145  43.910   5.864
 3358POPC   GL144017  36.152  43.900   6.164
 3358POPC   GL244018  36.063  43.948   6.164
 3358POPC   C1A44019  36.106  43.854   6.464
 3358POPC   D2A44020  36.146  43.928   6.764
 3358POPC   C3A44021  36.080  43.877   7.064
 3358POPC   C4A44022  36.106  43.880   7.364
 3358POPC   C1B44023  35.926  44.007   6.464
 3358POPC   C2B44024  35.922  44.094   6.764
 3358POPC   C3B44025  35.965  44.005   7.064
 3358POPC   C4B44026  35.911  44.006   7.364
 3359POPC   NC344027  20.590   5.061   5.564
 3359POPC   PO444028  20.656   5.124   5.864
 3359POPC   GL144029  20.604   5.090   6.164
 3359POPC   GL244030  20.559   4.922   6.164
 3359POPC   C1A44031  20.596   5.102   6.464
 3359POPC   D2A44032  20.639   5.088   6.764
 3359POPC   C3A44033  20.586   5.051   7.064
 3359POPC   C4A44034  20.566   5.068   7.364
 3359POPC   C1B44035  20.571   4.829   6.464
 3359POPC   C2B44036  20.597   4.886   6.764
 3359POPC   C3B44037  20.573   4.857   7.064
 3359POPC   C4B44038  20.620   4.852   7.364
 3360POPC   NC344039  43.104  29.181   5.564
 3360POPC   PO444040  43.096  29.179   5.864
 3360POPC   GL144041  43.143  29.186   6.164
 3360POPC   GL244042  43.100  29.268   6.164
 3360POPC   C1A44043  43.135  29.185   6.464
 3360POPC   D2A44044  43.132  29.143   6.764
 3360POPC   C3A44045  43.135  29.130   7.064
 3360POPC   C4A44046  43.104  29.153   7.364
 3360POPC   C1B44047  43.116  29.407   6.464
 3360POPC   C2B44048  43.043  29.353   6.764
 3360POPC   C3B44049  43.060  29.377   7.064
 3360POPC   C4B44050  43.123  29.435   7.364
 3361POPC   NC344051   3.569   6.642   5.564
 3361POPC   PO444052   3.525   6.609   5.864
 3361POPC   GL144053   3.511   6.653   6.164
 3361POPC   GL244054   3.472   6.588   6.164
 3361POPC   C1A44055   3.548   6.633   6.464
 3361POPC   D2A44056   3.581   6.610   6.764
 3361POPC   C3A44057   3.508   6.622   7.064
 3361POPC   C4A44058   3.538   6.608   7.364
 3361POPC   C1B44059   3.360   6.499   6.464
 3361POPC   C2B44060   3.337   6.433   6.764
 3361POPC   C3B44061   3.360   6.460   7.064
 3361POPC   C4B44062   3.377   6.501   7.364
 3362POPC   NC344063  35.311  26.770   5.564
 3362POPC   PO444064  35.397  26.860   5.864
 3362POPC   GL144065  35.387  26.777   6.164
 3362POPC   GL244066  35.352  26.741   6.164
 3362POPC   C1A44067  35.340  26.791   6.464
 3362POPC   D2A44068  35.302  26.866   6.764
 3362POPC   C3A44069  35.374  26.780   7.064
 3362POPC   C4A44070  35.393  26.842   7.364
 3362POPC   C1B44071  35.352  26.573   6.464
 3362POPC   C2B44072  35.421  26.559   6.764
 3362POPC   C3B44073  35.375  26.539   7.064
 3362POPC   C4B44074  35.342  26.587   7.364
 3363POPC   NC344075  26.844  29.928   5.564
 3363POPC   PO444076  26.820  29.936   5.864
 3363POPC   GL144077  26.857  29.873   6.164
 3363POPC   GL244078  26.833  30.007   6.164
 3363POPC   C1A44079  26.863  29.894   6.464
 3363POPC   D2A44080  26.830  29.955   6.764
 3363POPC   C3A44081  26.854  29.872   7.064
 3363POPC   C4A44082  26.837  29.944   7.364
 3363POPC   C1B44083  26.776  30.167   6.464
 3363POPC   C2B44084  26.862  30.177   6.764
 3363POPC   C3B44085  26.848  30.162   7.064
 3363POPC   C4B44086  26.789  30.219   7.364
 3364POPC   NC344087  14.396  28.359   5.564
 3364POPC   PO444088  14.385  28.346   5.864
 3364POPC   GL144089  14.371  28.411   6.164
 3364POPC   GL244090  14.490  28.316   6.164
 3364POPC   C1A44091  14.385  28.395   6.464
 3364POPC   D2A44092  14.438  28.362   6.764
 3364POPC   C3A44093  14.418  28.362   7.064
 3364POPC   C4A44094  14.393  28.411   7.364
 3364POPC   C1B44095  14.665  28.280   6.464
 3364POPC   C2B44096  14.620  28.219   6.764
 3364POPC   C3B44097  14.673  28.228   7.064
 3364POPC   C4B44098  14.650  28.255   7.364
 3365POPC   NC344099  13.593  31.515   5.564
 3365POPC   PO444100  13.631  31.455   5.864
 3365POPC   GL144101  13.578  31.436   6.164
 3365POPC   GL244102  13.533  31.590   6.164
 3365POPC   C1A44103  13.611  31.500   6.464
 3365POPC   D2A44104  13.580  31.501   6.764
 3365POPC   C3A44105  13.613  31.518   7.064
 3365POPC   C4A44106  13.673  31.508   7.364
 3365POPC   C1B44107  13.562  31.727   6.464
 3365POPC   C2B44108  13.505  31.730   6.764
 3365POPC   C3B44109  13.491  31.744   7.064
 3365POPC   C4B44110  13.551  31.693   7.364
 3366POPC   NC344111  22.909  34.603   5.564
 3366POPC   PO444112  22.905  34.596   5.864
 3366POPC   GL144113  22.977  34.559   6.164
 3366POPC   GL244114  22.799  34.545   6.164
 3366POPC   C1A44115  22.963  34.620   6.464
 3366POPC   D2A44116  22.939  34.585   6.764
 3366POPC   C3A44117  22.954  34.527   7.064
 3366POPC   C4A44118  22.926  34.611   7.364
 3366POPC   C1B44119  22.666  34.576   6.464
 3366POPC   C2B44120  22.722  34.552   6.764
 3366POPC   C3B44121  22.664  34.536   7.064
 3366POPC   C4B44122  22.736  34.551   7.364
 3367POPC   NC344123  29.953  26.781   5.564
 3367POPC   PO444124  29.935  26.804   5.864
 3367POPC   GL144125  29.957  26.791   6.164
 3367POPC   GL244126  29.919  26.665   6.164
 3367POPC   C1A44127  29.942  26.853   6.464
 3367POPC   D2A44128  29.930  26.837   6.764
 3367POPC   C3A44129  29.891  26.865   7.064
 3367POPC   C4A44130  29.903  26.798   7.364
 3367POPC   C1B44131  29.869  26.529   6.464
 3367POPC   C2B44132  29.869  26.592   6.764
 3367POPC   C3B44133  29.869  26.523   7.064
 3367POPC   C4B44134  29.836  26.563   7.364
 3368POPC   NC344135   5.064  13.588   5.564
 3368POPC   PO444136   5.143  13.594   5.864
 3368POPC   GL144137   5.098  13.655   6.164
 3368POPC   GL244138   4.985  13.718   6.164
 3368POPC   C1A44139   5.075  13.666   6.464
 3368POPC   D2A44140   5.082  13.627   6.764
 3368POPC   C3A44141   5.110  13.595   7.064
 3368POPC   C4A44142   5.106  13.598   7.364
 3368POPC   C1B44143   4.923  13.781   6.464
 3368POPC   C2B44144   4.873  13.765   6.764
 3368POPC   C3B44145   4.892  13.721   7.064
 3368POPC   C4B44146   4.920  13.756   7.364
 3369POPC   NC344147   8.214  21.395   5.564
 3369POPC   PO444148   8.238  21.435   5.864
 3369POPC   GL144149   8.185  21.377   6.164
 3369POPC   GL244150   8.118  21.405   6.164
 3369POPC   C1A44151   8.231  21.357   6.464
 3369POPC   D2A44152   8.238  21.388   6.764
 3369POPC   C3A44153   8.185  21.354   7.064
 3369POPC   C4A44154   8.222  21.424   7.364
 3369POPC   C1B44155   7.904  21.348   6.464
 3369POPC   C2B44156   7.979  21.359   6.764
 3369POPC   C3B44157   7.977  21.346   7.064
 3369POPC   C4B44158   7.977  21.329   7.364
 3370POPC   NC344159  29.159  18.246   5.564
 3370POPC   PO444160  29.098  18.273   5.864
 3370POPC   GL144161  29.179  18.286   6.164
 3370POPC   GL244162  29.005  18.211   6.164
 3370POPC   C1A44163  29.184  18.266   6.464
 3370POPC   D2A44164  29.171  18.317   6.764
 3370POPC   C3A44165  29.149  18.272   7.064
 3370POPC   C4A44166  29.155  18.296   7.364
 3370POPC   C1B44167  28.919  18.083   6.464
 3370POPC   C2B44168  28.914  18.137   6.764
 3370POPC   C3B44169  28.971  18.104   7.064
 3370POPC   C4B44170  28.933  18.085   7.364
 3371POPC   NC344171  33.018  15.924   5.564
 3371POPC   PO444172  33.056  15.987   5.864
 3371POPC   GL144173  33.068  16.004   6.164
 3371POPC   GL244174  32.934  15.845   6.164
 3371POPC   C1A44175  32.997  15.917   6.464
 3371POPC   D2A44176  33.062  15.984   6.764
 3371POPC   C3A44177  32.983  15.997   7.064
 3371POPC   C4A44178  33.073  15.944   7.364
 3371POPC   C1B44179  32.919  15.728   6.464
 3371POPC   C2B44180  32.914  15.786   6.764
 3371POPC   C3B44181  32.883  15.785   7.064
 3371POPC   C4B44182  32.891  15.750   7.364
 3372POPC   NC344183  32.999   1.976   5.564
 3372POPC   PO444184  33.020   2.019   5.864
 3372POPC   GL144185  32.974   1.967   6.164
 3372POPC   GL244186  33.002   2.126   6.164
 3372POPC   C1A44187  33.025   2.032   6.464
 3372POPC   D2A44188  33.069   1.973   6.764
 3372POPC   C3A44189  33.033   1.947   7.064
 3372POPC   C4A44190  33.040   2.026   7.364
 3372POPC   C1B44191  32.916   2.177   6.464
 3372POPC   C2B44192  32.942   2.219   6.764
 3372POPC   C3B44193  32.962   2.211   7.064
 3372POPC   C4B44194  32.981   2.222   7.364
 3373POPC   NC344195   2.029  14.383   5.564
 3373POPC   PO444196   1.952  14.427   5.864
 3373POPC   GL144197   1.971  14.418   6.164
 3373POPC   GL244198   2.112  14.454   6.164
 3373POPC   C1A44199   1.948  14.375   6.464
 3373POPC   D2A44200   1.965  14.406   6.764
 3373POPC   C3A44201   2.012  14.420   7.064
 3373POPC   C4A44202   2.006  14.407   7.364
 3373POPC   C1B44203   2.202  14.615   6.464
 3373POPC   C2B44204   2.118  14.625   6.764
 3373POPC   C3B44205   2.127  14.578   7.064
 3373POPC   C4B44206   2.183  14.617   7.364
 3374POPC   NC344207  19.045  12.855   5.564
 3374POPC   PO444208  19.061  12.809   5.864
 3374POPC   GL144209  19.091  12.849   6.164
 3374POPC   GL244210  19.084  12.684   6.164
 3374POPC   C1A44211  19.064  12.839   6.464
 3374POPC   D2A44212  19.035  12.896   6.764
 3374POPC   C3A44213  19.055  12.843   7.064
 3374POPC   C4A44214  19.038  12.869   7.364
 3374POPC   C1B44215  19.104  12.615   6.464
 3374POPC   C2B44216  19.041  12.601   6.764
 3374POPC   C3B44217  19.118  12.638   7.064
 3374POPC   C4B44218  19.052  12.649   7.364
 3375POPC   NC344219  23.704   3.538   5.564
 3375POPC   PO444220  23.721   3.558   5.864
 3375POPC   GL144221  23.732   3.553   6.164
 3375POPC   GL244222  23.854   3.588   6.164
 3375POPC   C1A44223  23.696   3.517   6.464
 3375POPC   D2A44224  23.664   3.581   6.764
 3375POPC   C3A44225  23.670   3.543   7.064
 3375POPC   C4A44226  23.731   3.583   7.364
 3375POPC   C1B44227  23.912   3.619   6.464
 3375POPC   C2B44228  23.927   3.683   6.764
 3375POPC   C3B44229  23.901   3.704   7.064
 3375POPC   C4B44230  23.898   3.620   7.364
 3376POPC   NC344231  23.693  37.690   5.564
 3376POPC   PO444232  23.689  37.633   5.864
 3376POPC   GL144233  23.754  37.713   6.164
 3376POPC   GL244234  23.756  37.752   6.164
 3376POPC   C1A44235  23.704  37.649   6.464
 3376POPC   D2A44236  23.677  37.679   6.764
 3376POPC   C3A44237  23.746  37.671   7.064
 3376POPC   C4A44238  23.720  37.716   7.364
 3376POPC   C1B44239  23.876  37.851   6.464
 3376POPC   C2B44240  23.919  37.863   6.764
 3376POPC   C3B44241  23.902  37.908   7.064
 3376POPC   C4B44242  23.830  37.883   7.364
 3377POPC   NC344243   7.395  43.885   5.564
 3377POPC   PO444244   7.390  43.919   5.864
 3377POPC   GL144245   7.459  43.850   6.164
 3377POPC   GL244246   7.315  43.980   6.164
 3377POPC   C1A44247   7.433  43.845   6.464
 3377POPC   D2A44248   7.381  43.906   6.764
 3377POPC   C3A44249   7.455  43.896   7.064
 3377POPC   C4A44250   7.410  43.916   7.364
 3377POPC   C1B44251   7.230  44.015   6.464
 3377POPC   C2B44252   7.233  44.061   6.764
 3377POPC   C3B44253   7.186  44.016   7.064
 3377POPC   C4B44254   7.191  43.980   7.364
 3378POPC   NC344255   9.009  35.310   5.564
 3378POPC   PO444256   8.945  35.383   5.864
 3378POPC   GL144257   8.974  35.343   6.164
 3378POPC   GL244258   8.831  35.396   6.164
 3378POPC   C1A44259   8.986  35.398   6.464
 3378POPC   D2A44260   8.959  35.323   6.764
 3378POPC   C3A44261   8.946  35.346   7.064
 3378POPC   C4A44262   8.996  35.373   7.364
 3378POPC   C1B44263   8.701  35.395   6.464
 3378POPC   C2B44264   8.757  35.442   6.764
 3378POPC   C3B44265   8.730  35.418   7.064
 3378POPC   C4B44266   8.775  35.365   7.364
 3379POPC   NC344267   2.768  43.880   5.564
 3379POPC   PO444268   2.751  43.928   5.864
 3379POPC   GL144269   2.798  43.900   6.164
 3379POPC   GL244270   2.821  44.000   6.164
 3379POPC   C1A44271   2.760  43.871   6.464
 3379POPC   D2A44272   2.727  43.867   6.764
 3379POPC   C3A44273   2.789  43.851   7.064
 3379POPC   C4A44274   2.742  43.867   7.364
 3379POPC   C1B44275   2.904  44.041   6.464
 3379POPC   C2B44276   2.987  44.025   6.764
 3379POPC   C3B44277   2.909  44.075   7.064
 3379POPC   C4B44278   3.000  44.044   7.364
 3380POPC   NC344279   2.005   9.782   5.564
 3380POPC   PO444280   1.970   9.744   5.864
 3380POPC   GL144281   1.996   9.772   6.164
 3380POPC   GL244282   2.096   9.781   6.164
 3380POPC   C1A44283   1.991   9.736   6.464
 3380POPC   D2A44284   1.948   9.737   6.764
 3380POPC   C3A44285   2.002   9.709   7.064
 3380POPC   C4A44286   1.969   9.709   7.364
 3380POPC   C1B44287   2.258   9.733   6.464
 3380POPC   C2B44288   2.238   9.707   6.764
 3380POPC   C3B44289   2.270   9.742   7.064
 3380POPC   C4B44290   2.228   9.768   7.364
 3381POPC   NC344291  34.543  14.439   5.564
 3381POPC   PO444292  34.545  14.364   5.864
 3381POPC   GL144293  34.582  14.430   6.164
 3381POPC   GL244294  34.546  14.527   6.164
 3381POPC   C1A44295  34.601  14.427   6.464
 3381POPC   D2A44296  34.559  14.430   6.764
 3381POPC   C3A44297  34.527  14.383   7.064
 3381POPC   C4A44298  34.600  14.391   7.364
 3381POPC   C1B44299  34.542  14.635   6.464
 3381POPC   C2B44300  34.569  14.676   6.764
 3381POPC   C3B44301  34.502  14.669   7.064
 3381POPC   C4B44302  34.510  14.696   7.364
 3382POPC   NC344303   8.150  39.960   5.564
 3382POPC   PO444304   8.235  40.031   5.864
 3382POPC   GL144305   8.202  40.007   6.164
 3382POPC   GL244306   8.286  40.053   6.164
 3382POPC   C1A44307   8.185  40.017   6.464
 3382POPC   D2A44308   8.156  40.036   6.764
 3382POPC   C3A44309   8.205  40.015   7.064
 3382POPC   C4A44310   8.184  39.974   7.364
 3382POPC   C1B44311   8.347  40.164   6.464
 3382POPC   C2B44312   8.412  40.183   6.764
 3382POPC   C3B44313   8.399  40.197   7.064
 3382POPC   C4B44314   8.429  40.185   7.364
 3383POPC   NC344315   2.807  17.526   5.564
 3383POPC   PO444316   2.759  17.491   5.864
 3383POPC   GL144317   2.780  17.508   6.164
 3383POPC   GL244318   2.767  17.627   6.164
 3383POPC   C1A44319   2.797  17.494   6.464
 3383POPC   D2A44320   2.733  17.513   6.764
 3383POPC   C3A44321   2.809  17.507   7.064
 3383POPC   C4A44322   2.750  17.480   7.364
 3383POPC   C1B44323   2.626  17.775   6.464
 3383POPC   C2B44324   2.689  17.761   6.764
 3383POPC   C3B44325   2.703  17.751   7.064
 3383POPC   C4B44326   2.660  17.729   7.364
 3384POPC   NC344327  35.397   2.753   5.564
 3384POPC   PO444328  35.332   2.752   5.864
 3384POPC   GL144329  35.362   2.769   6.164
 3384POPC   GL244330  35.266   2.835   6.164
 3384POPC   C1A44331  35.309   2.777   6.464
 3384POPC   D2A44332  35.383   2.745   6.764
 3384POPC   C3A44333  35.396   2.754   7.064
 3384POPC   C4A44334  35.324   2.798   7.364
 3384POPC   C1B44335  35.152   2.908   6.464
 3384POPC   C2B44336  35.203   2.892   6.764
 3384POPC   C3B44337  35.142   2.919   7.064
 3384POPC   C4B44338  35.199   2.896   7.364
 3385POPC   NC344339   9.730   9.750   5.564
 3385POPC   PO444340   9.764   9.781   5.864
 3385POPC   GL144341   9.791   9.736   6.164
 3385POPC   GL244342   9.692   9.629   6.164
 3385POPC   C1A44343   9.796   9.776   6.464
 3385POPC   D2A44344   9.771   9.699   6.764
 3385POPC   C3A44345   9.725   9.760   7.064
 3385POPC   C4A44346   9.709   9.746   7.364
 3385POPC   C1B44347   9.730   9.458   6.464
 3385POPC   C2B44348   9.754   9.478   6.764
 3385POPC   C3B44349   9.744   9.466   7.064
 3385POPC   C4B44350   9.699   9.488   7.364
 3386POPC   NC344351  41.556  34.539   5.564
 3386POPC   PO444352  41.521  34.564   5.864
 3386POPC   GL144353  41.540  34.617   6.164
 3386POPC   GL244354  41.500  34.418   6.164
 3386POPC   C1A44355  41.513  34.544   6.464
 3386POPC   D2A44356  41.551  34.549   6.764
 3386POPC   C3A44357  41.593  34.556   7.064
 3386POPC   C4A44358  41.512  34.549   7.364
 3386POPC   C1B44359  41.548  34.344   6.464
 3386POPC   C2B44360  41.582  34.288   6.764
 3386POPC   C3B44361  41.501  34.295   7.064
 3386POPC   C4B44362  41.579  34.323   7.364
 3387POPC   NC344363  32.283  39.195   5.564
 3387POPC   PO444364  32.254  39.266   5.864
 3387POPC   GL144365  32.257  39.190   6.164
 3387POPC   GL244366  32.360  39.138   6.164
 3387POPC   C1A44367  32.284  39.278   6.464
 3387POPC   D2A44368  32.271  39.262   6.764
 3387POPC   C3A44369  32.220  39.200   7.064
 3387POPC   C4A44370  32.205  39.266   7.364
 3387POPC   C1B44371  32.367  39.048   6.464
 3387POPC   C2B44372  32.386  39.049   6.764
 3387POPC   C3B44373  32.396  39.063   7.064
 3387POPC   C4B44374  32.401  39.057   7.364
 3388POPC   NC344375  41.600  30.658   5.564
 3388POPC   PO444376  41.582  30.742   5.864
 3388POPC   GL144377  41.593  30.648   6.164
 3388POPC   GL244378  41.524  30.844   6.164
 3388POPC   C1A44379  41.561  30.722   6.464
 3388POPC   D2A44380  41.595  30.707   6.764
 3388POPC   C3A44381  41.538  30.680   7.064
 3388POPC   C4A44382  41.582  30.740   7.364
 3388POPC   C1B44383  41.427  30.957   6.464
 3388POPC   C2B44384  41.498  30.975   6.764
 3388POPC   C3B44385  41.486  30.966   7.064
 3388POPC   C4B44386  41.448  30.971   7.364
 3389POPC   NC344387   8.995  28.379   5.564
 3389POPC   PO444388   9.012  28.326   5.864
 3389POPC   GL144389   8.935  28.416   6.164
 3389POPC   GL244390   9.045  28.245   6.164
 3389POPC   C1A44391   8.957  28.378   6.464
 3389POPC   D2A44392   8.974  28.351   6.764
 3389POPC   C3A44393   8.989  28.329   7.064
 3389POPC   C4A44394   8.934  28.358   7.364
 3389POPC   C1B44395   9.048  28.118   6.464
 3389POPC   C2B44396   9.083  28.185   6.764
 3389POPC   C3B44397   9.048  28.124   7.064
 3389POPC   C4B44398   9.099  28.169   7.364
 3390POPC   NC344399  42.364  34.587   5.564
 3390POPC   PO444400  42.331  34.578   5.864
 3390POPC   GL144401  42.382  34.604   6.164
 3390POPC   GL244402  42.363  34.467   6.164
 3390POPC   C1A44403  42.369  34.601   6.464
 3390POPC   D2A44404  42.321  34.584   6.764
 3390POPC   C3A44405  42.340  34.590   7.064
 3390POPC   C4A44406  42.315  34.608   7.364
 3390POPC   C1B44407  42.334  34.362   6.464
 3390POPC   C2B44408  42.320  34.363   6.764
 3390POPC   C3B44409  42.353  34.287   7.064
 3390POPC   C4B44410  42.297  34.358   7.364
 3391POPC   NC344411   4.347  26.057   5.564
 3391POPC   PO444412   4.328  26.065   5.864
 3391POPC   GL144413   4.319  26.058   6.164
 3391POPC   GL244414   4.161  26.054   6.164
 3391POPC   C1A44415   4.351  25.996   6.464
 3391POPC   D2A44416   4.365  26.027   6.764
 3391POPC   C3A44417   4.328  26.080   7.064
 3391POPC   C4A44418   4.316  26.067   7.364
 3391POPC   C1B44419   4.086  26.008   6.464
 3391POPC   C2B44420   4.092  25.944   6.764
 3391POPC   C3B44421   4.069  25.991   7.064
 3391POPC   C4B44422   4.109  25.947   7.364
 3392POPC   NC344423  17.478   3.559   5.564
 3392POPC   PO444424  17.473   3.546   5.864
 3392POPC   GL144425  17.511   3.494   6.164
 3392POPC   GL244426  17.543   3.647   6.164
 3392POPC   C1A44427  17.527   3.570   6.464
 3392POPC   D2A44428  17.500   3.492   6.764
 3392POPC   C3A44429  17.509   3.519   7.064
 3392POPC   C4A44430  17.485   3.532   7.364
 3392POPC   C1B44431  17.638   3.788   6.464
 3392POPC   C2B44432  17.649   3.790   6.764
 3392POPC   C3B44433  17.635   3.713   7.064
 3392POPC   C4B44434  17.686   3.746   7.364
 3393POPC   NC344435   1.998  42.325   5.564
 3393POPC   PO444436   2.014  42.361   5.864
 3393POPC   GL144437   1.971  42.339   6.164
 3393POPC   GL244438   2.139  42.347   6.164
 3393POPC   C1A44439   2.013  42.323   6.464
 3393POPC   D2A44440   2.025  42.336   6.764
 3393POPC   C3A44441   1.994  42.361   7.064
 3393POPC   C4A44442   2.011  42.309   7.364
 3393POPC   C1B44443   2.244  42.365   6.464
 3393POPC   C2B44444   2.264  42.406   6.764
 3393POPC   C3B44445   2.262  42.384   7.064
 3393POPC   C4B44446   2.196  42.450   7.364
 3394POPC   NC344447  33.049  44.660   5.564
 3394POPC   PO444448  33.006  44.669   5.864
 3394POPC   GL144449  33.031  44.684   6.164
 3394POPC   GL244450  33.150  44.687   6.164
 3394POPC   C1A44451  33.033  44.690   6.464
 3394POPC   D2A44452  33.052  44.642   6.764
 3394POPC   C3A44453  33.023  44.692   7.064
 3394POPC   C4A44454  33.062  44.623   7.364
 3394POPC   C1B44455  33.291  44.650   6.464
 3394POPC   C2B44456  33.306  44.593   6.764
 3394POPC   C3B44457  33.274  44.657   7.064
 3394POPC   C4B44458  33.229  44.611   7.364
 3395POPC   NC344459  29.871  12.868   5.564
 3395POPC   PO444460  29.918  12.841   5.864
 3395POPC   GL144461  29.969  12.839   6.164
 3395POPC   GL244462  30.079  12.824   6.164
 3395POPC   C1A44463  29.947  12.891   6.464
 3395POPC   D2A44464  29.944  12.845   6.764
 3395POPC   C3A44465  29.898  12.872   7.064
 3395POPC   C4A44466  29.949  12.845   7.364
 3395POPC   C1B44467  30.201  12.759   6.464
 3395POPC   C2B44468  30.170  12.816   6.764
 3395POPC   C3B44469  30.149  12.831   7.064
 3395POPC   C4B44470  30.158  12.775   7.364
 3396POPC   NC344471   5.071  35.367   5.564
 3396POPC   PO444472   5.127  35.318   5.864
 3396POPC   GL144473   5.114  35.320   6.164
 3396POPC   GL244474   5.129  35.436   6.164
 3396POPC   C1A44475   5.117  35.350   6.464
 3396POPC   D2A44476   5.046  35.308   6.764
 3396POPC   C3A44477   5.115  35.368   7.064
 3396POPC   C4A44478   5.132  35.360   7.364
 3396POPC   C1B44479   5.261  35.581   6.464
 3396POPC   C2B44480   5.273  35.561   6.764
 3396POPC   C3B44481   5.258  35.562   7.064
 3396POPC   C4B44482   5.294  35.529   7.364
 3397POPC   NC344483  16.692  25.269   5.564
 3397POPC   PO444484  16.773  25.292   5.864
 3397POPC   GL144485  16.776  25.313   6.164
 3397POPC   GL244486  16.674  25.378   6.164
 3397POPC   C1A44487  16.696  25.313   6.464
 3397POPC   D2A44488  16.764  25.281   6.764
 3397POPC   C3A44489  16.740  25.224   7.064
 3397POPC   C4A44490  16.768  25.275   7.364
 3397POPC   C1B44491  16.529  25.364   6.464
 3397POPC   C2B44492  16.471  25.383   6.764
 3397POPC   C3B44493  16.508  25.376   7.064
 3397POPC   C4B44494  16.557  25.397   7.364
 3398POPC   NC344495  43.073  20.616   5.564
 3398POPC   PO444496  43.109  20.617   5.864
 3398POPC   GL144497  43.066  20.631   6.164
 3398POPC   GL244498  43.150  20.514   6.164
 3398POPC   C1A44499  43.160  20.576   6.464
 3398POPC   D2A44500  43.074  20.642   6.764
 3398POPC   C3A44501  43.148  20.565   7.064
 3398POPC   C4A44502  43.062  20.640   7.364
 3398POPC   C1B44503  43.109  20.404   6.464
 3398POPC   C2B44504  43.146  20.361   6.764
 3398POPC   C3B44505  43.167  20.339   7.064
 3398POPC   C4B44506  43.116  20.320   7.364
 3399POPC   NC344507  34.590  12.862   5.564
 3399POPC   PO444508  34.559  12.849   5.864
 3399POPC   GL144509  34.529  12.809   6.164
 3399POPC   GL244510  34.616  12.986   6.164
 3399POPC   C1A44511  34.573  12.879   6.464
 3399POPC   D2A44512  34.543  12.817   6.764
 3399POPC   C3A44513  34.562  12.880   7.064
 3399POPC   C4A44514  34.605  12.836   7.364
 3399POPC   C1B44515  34.628  13.067   6.464
 3399POPC   C2B44516  34.640  13.111   6.764
 3399POPC   C3B44517  34.656  13.068   7.064
 3399POPC   C4B44518  34.606  13.057   7.364
 3400POPC   NC344519   9.710  10.504   5.564
 3400POPC   PO444520   9.740  10.485   5.864
 3400POPC   GL144521   9.729  10.528   6.164
 3400POPC   GL244522   9.839  10.445   6.164
 3400POPC   C1A44523   9.734  10.544   6.464
 3400POPC   D2A44524   9.726  10.548   6.764
 3400POPC   C3A44525   9.699  10.495   7.064
 3400POPC   C4A44526   9.726  10.496   7.364
 3400POPC   C1B44527   9.945  10.427   6.464
 3400POPC   C2B44528   9.966  10.375   6.764
 3400POPC   C3B44529  10.002  10.389   7.064
 3400POPC   C4B44530   9.925  10.453   7.364
 3401POPC   NC344531  24.464  17.548   5.564
 3401POPC   PO444532  24.531  17.485   5.864
 3401POPC   GL144533  24.460  17.498   6.164
 3401POPC   GL244534  24.481  17.384   6.164
 3401POPC   C1A44535  24.508  17.494   6.464
 3401POPC   D2A44536  24.483  17.527   6.764
 3401POPC   C3A44537  24.522  17.482   7.064
 3401POPC   C4A44538  24.442  17.543   7.364
 3401POPC   C1B44539  24.491  17.251   6.464
 3401POPC   C2B44540  24.464  17.264   6.764
 3401POPC   C3B44541  24.468  17.227   7.064
 3401POPC   C4B44542  24.485  17.295   7.364
 3402POPC   NC344543   9.772   5.822   5.564
 3402POPC   PO444544   9.750   5.838   5.864
 3402POPC   GL144545   9.793   5.881   6.164
 3402POPC   GL244546   9.853   5.967   6.164
 3402POPC   C1A44547   9.762   5.843   6.464
 3402POPC   D2A44548   9.714   5.855   6.764
 3402POPC   C3A44549   9.790   5.882   7.064
 3402POPC   C4A44550   9.710   5.859   7.364
 3402POPC   C1B44551   9.876   6.071   6.464
 3402POPC   C2B44552   9.904   6.074   6.764
 3402POPC   C3B44553   9.877   6.044   7.064
 3402POPC   C4B44554   9.914   6.115   7.364
 3403POPC   NC344555  14.437  35.320   5.564
 3403POPC   PO444556  14.369  35.384   5.864
 3403POPC   GL144557  14.356  35.334   6.164
 3403POPC   GL244558  14.510  35.259   6.164
 3403POPC   C1A44559  14.374  35.339   6.464
 3403POPC   D2A44560  14.411  35.341   6.764
 3403POPC   C3A44561  14.439  35.347   7.064
 3403POPC   C4A44562  14.405  35.389   7.364
 3403POPC   C1B44563  14.544  35.146   6.464
 3403POPC   C2B44564  14.554  35.160   6.764
 3403POPC   C3B44565  14.558  35.162   7.064
 3403POPC   C4B44566  14.489  35.161   7.364
 3404POPC   NC344567  20.608  29.133   5.564
 3404POPC   PO444568  20.598  29.127   5.864
 3404POPC   GL144569  20.601  29.109   6.164
 3404POPC   GL244570  20.561  29.025   6.164
 3404POPC   C1A44571  20.645  29.167   6.464
 3404POPC   D2A44572  20.565  29.143   6.764
 3404POPC   C3A44573  20.656  29.163   7.064
 3404POPC   C4A44574  20.646  29.132   7.364
 3404POPC   C1B44575  20.501  28.912   6.464
 3404POPC   C2B44576  20.448  28.891   6.764
 3404POPC   C3B44577  20.496  28.966   7.064
 3404POPC   C4B44578  20.477  28.911   7.364
 3405POPC   NC344579  23.751  34.527   5.564
 3405POPC   PO444580  23.742  34.543   5.864
 3405POPC   GL144581  23.701  34.595   6.164
 3405POPC   GL244582  23.706  34.409   6.164
 3405POPC   C1A44583  23.756  34.561   6.464
 3405POPC   D2A44584  23.716  34.549   6.764
 3405POPC   C3A44585  23.690  34.622   7.064
 3405POPC   C4A44586  23.689  34.587   7.364
 3405POPC   C1B44587  23.730  34.352   6.464
 3405POPC   C2B44588  23.708  34.283   6.764
 3405POPC   C3B44589  23.706  34.295   7.064
 3405POPC   C4B44590  23.700  34.343   7.364
 3406POPC   NC344591  17.529  35.361   5.564
 3406POPC   PO444592  17.539  35.321   5.864
 3406POPC   GL144593  17.556  35.316   6.164
 3406POPC   GL244594  17.630  35.399   6.164
 3406POPC   C1A44595  17.499  35.312   6.464
 3406POPC   D2A44596  17.504  35.312   6.764
 3406POPC   C3A44597  17.485  35.355   7.064
 3406POPC   C4A44598  17.483  35.344   7.364
 3406POPC   C1B44599  17.670  35.489   6.464
 3406POPC   C2B44600  17.764  35.450   6.764
 3406POPC   C3B44601  17.737  35.462   7.064
 3406POPC   C4B44602  17.678  35.455   7.364
 3407POPC   NC344603   5.130  36.141   5.564
 3407POPC   PO444604   5.101  36.100   5.864
 3407POPC   GL144605   5.083  36.143   6.164
 3407POPC   GL244606   5.194  36.006   6.164
 3407POPC   C1A44607   5.067  36.175   6.464
 3407POPC   D2A44608   5.133  36.148   6.764
 3407POPC   C3A44609   5.133  36.163   7.064
 3407POPC   C4A44610   5.110  36.153   7.364
 3407POPC   C1B44611   5.234  35.947   6.464
 3407POPC   C2B44612   5.266  35.914   6.764
 3407POPC   C3B44613   5.257  35.966   7.064
 3407POPC   C4B44614   5.286  35.984   7.364
 3408POPC   NC344615  12.037  32.991   5.564
 3408POPC   PO444616  12.070  33.048   5.864
 3408POPC   GL144617  12.072  33.060   6.164
 3408POPC   GL244618  12.193  32.917   6.164
 3408POPC   C1A44619  12.064  33.024   6.464
 3408POPC   D2A44620  12.090  33.051   6.764
 3408POPC   C3A44621  12.069  33.016   7.064
 3408POPC   C4A44622  12.064  33.045   7.364
 3408POPC   C1B44623  12.244  32.818   6.464
 3408POPC   C2B44624  12.259  32.845   6.764
 3408POPC   C3B44625  12.216  32.873   7.064
 3408POPC   C4B44626  12.294  32.889   7.364
 3409POPC   NC344627   7.427  22.925   5.564
 3409POPC   PO444628   7.410  22.948   5.864
 3409POPC   GL144629   7.381  22.909   6.164
 3409POPC   GL244630   7.310  22.862   6.164
 3409POPC   C1A44631   7.376  22.917   6.464
 3409POPC   D2A44632   7.383  22.926   6.764
 3409POPC   C3A44633   7.397  22.916   7.064
 3409POPC   C4A44634   7.380  22.950   7.364
 3409POPC   C1B44635   7.294  22.747   6.464
 3409POPC   C2B44636   7.317  22.782   6.764
 3409POPC   C3B44637   7.284  22.788   7.064
 3409POPC   C4B44638   7.254  22.702   7.364
 3410POPC   NC344639  37.667   1.255   5.564
 3410POPC   PO444640  37.722   1.200   5.864
 3410POPC   GL144641  37.713   1.247   6.164
 3410POPC   GL244642  37.719   1.162   6.164
 3410POPC   C1A44643  37.663   1.261   6.464
 3410POPC   D2A44644  37.646   1.183   6.764
 3410POPC   C3A44645  37.665   1.229   7.064
 3410POPC   C4A44646  37.635   1.187   7.364
 3410POPC   C1B44647  37.808   0.989   6.464
 3410POPC   C2B44648  37.874   1.040   6.764
 3410POPC   C3B44649  37.839   1.067   7.064
 3410POPC   C4B44650  37.832   1.054   7.364
 3411POPC   NC344651   5.139  17.478   5.564
 3411POPC   PO444652   5.058  17.468   5.864
 3411POPC   GL144653   5.074  17.470   6.164
 3411POPC   GL244654   5.094  17.405   6.164
 3411POPC   C1A44655   5.059  17.514   6.464
 3411POPC   D2A44656   5.066  17.550   6.764
 3411POPC   C3A44657   5.076  17.546   7.064
 3411POPC   C4A44658   5.115  17.492   7.364
 3411POPC   C1B44659   5.069  17.304   6.464
 3411POPC   C2B44660   5.049  17.314   6.764
 3411POPC   C3B44661   5.027  17.246   7.064
 3411POPC   C4B44662   4.983  17.246   7.364
 3412POPC   NC344663  17.470  32.993   5.564
 3412POPC   PO444664  17.464  32.981   5.864
 3412POPC   GL144665  17.532  33.006   6.164
 3412POPC   GL244666  17.553  32.902   6.164
 3412POPC   C1A44667  17.518  33.034   6.464
 3412POPC   D2A44668  17.549  32.993   6.764
 3412POPC   C3A44669  17.513  33.070   7.064
 3412POPC   C4A44670  17.510  33.040   7.364
 3412POPC   C1B44671  17.573  32.818   6.464
 3412POPC   C2B44672  17.602  32.780   6.764
 3412POPC   C3B44673  17.537  32.765   7.064
 3412POPC   C4B44674  17.528  32.742   7.364
 3413POPC   NC344675  20.577  19.068   5.564
 3413POPC   PO444676  20.656  19.023   5.864
 3413POPC   GL144677  20.566  19.032   6.164
 3413POPC   GL244678  20.540  19.189   6.164
 3413POPC   C1A44679  20.646  19.103   6.464
 3413POPC   D2A44680  20.592  19.019   6.764
 3413POPC   C3A44681  20.585  19.107   7.064
 3413POPC   C4A44682  20.626  19.089   7.364
 3413POPC   C1B44683  20.407  19.282   6.464
 3413POPC   C2B44684  20.487  19.276   6.764
 3413POPC   C3B44685  20.412  19.231   7.064
 3413POPC   C4B44686  20.429  19.200   7.364
 3414POPC   NC344687  28.376  34.586   5.564
 3414POPC   PO444688  28.372  34.583   5.864
 3414POPC   GL144689  28.329  34.563   6.164
 3414POPC   GL244690  28.463  34.502   6.164
 3414POPC   C1A44691  28.345  34.530   6.464
 3414POPC   D2A44692  28.325  34.616   6.764
 3414POPC   C3A44693  28.323  34.575   7.064
 3414POPC   C4A44694  28.336  34.615   7.364
 3414POPC   C1B44695  28.592  34.425   6.464
 3414POPC   C2B44696  28.634  34.510   6.764
 3414POPC   C3B44697  28.548  34.453   7.064
 3414POPC   C4B44698  28.546  34.485   7.364
 3415POPC   NC344699  40.790  15.912   5.564
 3415POPC   PO444700  40.795  15.978   5.864
 3415POPC   GL144701  40.739  15.915   6.164
 3415POPC   GL244702  40.863  16.017   6.164
 3415POPC   C1A44703  40.809  15.957   6.464
 3415POPC   D2A44704  40.771  15.950   6.764
 3415POPC   C3A44705  40.756  15.914   7.064
 3415POPC   C4A44706  40.803  15.957   7.364
 3415POPC   C1B44707  40.931  16.211   6.464
 3415POPC   C2B44708  40.957  16.159   6.764
 3415POPC   C3B44709  40.912  16.196   7.064
 3415POPC   C4B44710  40.876  16.164   7.364
 3416POPC   NC344711  21.356  19.085   5.564
 3416POPC   PO444712  21.369  19.102   5.864
 3416POPC   GL144713  21.345  19.086   6.164
 3416POPC   GL244714  21.312  18.959   6.164
 3416POPC   C1A44715  21.362  19.091   6.464
 3416POPC   D2A44716  21.359  19.062   6.764
 3416POPC   C3A44717  21.432  19.014   7.064
 3416POPC   C4A44718  21.426  19.075   7.364
 3416POPC   C1B44719  21.145  18.876   6.464
 3416POPC   C2B44720  21.171  18.910   6.764
 3416POPC   C3B44721  21.204  18.862   7.064
 3416POPC   C4B44722  21.157  18.934   7.364
 3417POPC   NC344723   6.619   9.742   5.564
 3417POPC   PO444724   6.683   9.733   5.864
 3417POPC   GL144725   6.687   9.748   6.164
 3417POPC   GL244726   6.730   9.839   6.164
 3417POPC   C1A44727   6.598   9.769   6.464
 3417POPC   D2A44728   6.661   9.771   6.764
 3417POPC   C3A44729   6.654   9.780   7.064
 3417POPC   C4A44730   6.620   9.781   7.364
 3417POPC   C1B44731   6.837   9.929   6.464
 3417POPC   C2B44732   6.834   9.907   6.764
 3417POPC   C3B44733   6.801   9.905   7.064
 3417POPC   C4B44734   6.871   9.889   7.364
 3418POPC   NC344735  36.088  11.274   5.564
 3418POPC   PO444736  36.123  11.278   5.864
 3418POPC   GL144737  36.133  11.279   6.164
 3418POPC   GL244738  36.215  11.291   6.164
 3418POPC   C1A44739  36.158  11.257   6.464
 3418POPC   D2A44740  36.177  11.326   6.764
 3418POPC   C3A44741  36.144  11.283   7.064
 3418POPC   C4A44742  36.133  11.303   7.364
 3418POPC   C1B44743  36.349  11.175   6.464
 3418POPC   C2B44744  36.309  11.154   6.764
 3418POPC   C3B44745  36.385  11.180   7.064
 3418POPC   C4B44746  36.374  11.195   7.364
 3419POPC   NC344747   8.188  26.856   5.564
 3419POPC   PO444748   8.162  26.840   5.864
 3419POPC   GL144749   8.180  26.830   6.164
 3419POPC   GL244750   8.062  26.745   6.164
 3419POPC   C1A44751   8.199  26.817   6.464
 3419POPC   D2A44752   8.205  26.812   6.764
 3419POPC   C3A44753   8.215  26.800   7.064
 3419POPC   C4A44754   8.176  26.770   7.364
 3419POPC   C1B44755   7.969  26.712   6.464
 3419POPC   C2B44756   7.944  26.685   6.764
 3419POPC   C3B44757   8.009  26.688   7.064
 3419POPC   C4B44758   7.942  26.685   7.364
 3420POPC   NC344759  17.474  42.289   5.564
 3420POPC   PO444760  17.518  42.318   5.864
 3420POPC   GL144761  17.490  42.342   6.164
 3420POPC   GL244762  17.626  42.393   6.164
 3420POPC   C1A44763  17.500  42.314   6.464
 3420POPC   D2A44764  17.497  42.313   6.764
 3420POPC   C3A44765  17.516  42.296   7.064
 3420POPC   C4A44766  17.474  42.379   7.364
 3420POPC   C1B44767  17.701  42.406   6.464
 3420POPC   C2B44768  17.727  42.414   6.764
 3420POPC   C3B44769  17.791  42.405   7.064
 3420POPC   C4B44770  17.736  42.415   7.364
 3421POPC   NC344771  21.374  30.704   5.564
 3421POPC   PO444772  21.400  30.714   5.864
 3421POPC   GL144773  21.338  30.691   6.164
 3421POPC   GL244774  21.285  30.632   6.164
 3421POPC   C1A44775  21.419  30.735   6.464
 3421POPC   D2A44776  21.395  30.648   6.764
 3421POPC   C3A44777  21.401  30.655   7.064
 3421POPC   C4A44778  21.360  30.734   7.364
 3421POPC   C1B44779  21.258  30.457   6.464
 3421POPC   C2B44780  21.250  30.438   6.764
 3421POPC   C3B44781  21.255  30.501   7.064
 3421POPC   C4B44782  21.260  30.527   7.364
 3422POPC   NC344783  29.899   9.711   5.564
 3422POPC   PO444784  29.898   9.724   5.864
 3422POPC   GL144785  29.903   9.774   6.164
 3422POPC   GL244786  30.034   9.648   6.164
 3422POPC   C1A44787  29.931   9.786   6.464
 3422POPC   D2A44788  29.928   9.740   6.764
 3422POPC   C3A44789  29.910   9.734   7.064
 3422POPC   C4A44790  29.921   9.785   7.364
 3422POPC   C1B44791  30.065   9.580   6.464
 3422POPC   C2B44792  30.119   9.553   6.764
 3422POPC   C3B44793  30.098   9.612   7.064
 3422POPC   C4B44794  30.062   9.548   7.364
 3423POPC   NC344795   2.790   6.689   5.564
 3423POPC   PO444796   2.808   6.670   5.864
 3423POPC   GL144797   2.719   6.628   6.164
 3423POPC   GL244798   2.868   6.560   6.164
 3423POPC   C1A44799   2.803   6.616   6.464
 3423POPC   D2A44800   2.771   6.689   6.764
 3423POPC   C3A44801   2.726   6.620   7.064
 3423POPC   C4A44802   2.815   6.663   7.364
 3423POPC   C1B44803   2.835   6.457   6.464
 3423POPC   C2B44804   2.893   6.397   6.764
 3423POPC   C3B44805   2.905   6.414   7.064
 3423POPC   C4B44806   2.902   6.394   7.364
 3424POPC   NC344807  40.751  28.378   5.564
 3424POPC   PO444808  40.794  28.382   5.864
 3424POPC   GL144809  40.743  28.323   6.164
 3424POPC   GL244810  40.930  28.361   6.164
 3424POPC   C1A44811  40.814  28.324   6.464
 3424POPC   D2A44812  40.788  28.325   6.764
 3424POPC   C3A44813  40.750  28.404   7.064
 3424POPC   C4A44814  40.788  28.323   7.364
 3424POPC   C1B44815  41.000  28.343   6.464
 3424POPC   C2B44816  41.065  28.350   6.764
 3424POPC   C3B44817  41.036  28.399   7.064
 3424POPC   C4B44818  40.984  28.425   7.364
 3425POPC   NC344819  35.340   5.849   5.564
 3425POPC   PO444820  35.378   5.886   5.864
 3425POPC   GL144821  35.380   5.900   6.164
 3425POPC   GL244822  35.335   5.756   6.164
 3425POPC   C1A44823  35.383   5.825   6.464
 3425POPC   D2A44824  35.324   5.873   6.764
 3425POPC   C3A44825  35.365   5.842   7.064
 3425POPC   C4A44826  35.306   5.847   7.364
 3425POPC   C1B44827  35.371   5.619   6.464
 3425POPC   C2B44828  35.358   5.616   6.764
 3425POPC   C3B44829  35.398   5.640   7.064
 3425POPC   C4B44830  35.318   5.652   7.364
 3426POPC   NC344831  19.835  42.338   5.564
 3426POPC   PO444832  19.792  42.300   5.864
 3426POPC   GL144833  19.819  42.285   6.164
 3426POPC   GL244834  19.716  42.323   6.164
 3426POPC   C1A44835  19.821  42.293   6.464
 3426POPC   D2A44836  19.860  42.304   6.764
 3426POPC   C3A44837  19.847  42.359   7.064
 3426POPC   C4A44838  19.823  42.371   7.364
 3426POPC   C1B44839  19.621  42.239   6.464
 3426POPC   C2B44840  19.597  42.276   6.764
 3426POPC   C3B44841  19.563  42.197   7.064
 3426POPC   C4B44842  19.552  42.247   7.364
 3427POPC   NC344843   6.687  23.668   5.564
 3427POPC   PO444844   6.689  23.738   5.864
 3427POPC   GL144845   6.689  23.687   6.164
 3427POPC   GL244846   6.786  23.666   6.164
 3427POPC   C1A44847   6.678  23.733   6.464
 3427POPC   D2A44848   6.621  23.680   6.764
 3427POPC   C3A44849   6.637  23.760   7.064
 3427POPC   C4A44850   6.670  23.700   7.364
 3427POPC   C1B44851   6.891  23.631   6.464
 3427POPC   C2B44852   6.861  23.612   6.764
 3427POPC   C3B44853   6.837  23.643   7.064
 3427POPC   C4B44854   6.897  23.652   7.364
 3428POPC   NC344855  13.581  20.573   5.564
 3428POPC   PO444856  13.627  20.650   5.864
 3428POPC   GL144857  13.626  20.568   6.164
 3428POPC   GL244858  13.749  20.678   6.164
 3428POPC   C1A44859  13.671  20.636   6.464
 3428POPC   D2A44860  13.613  20.657   6.764
 3428POPC   C3A44861  13.672  20.570   7.064
 3428POPC   C4A44862  13.628  20.613   7.364
 3428POPC   C1B44863  13.858  20.785   6.464
 3428POPC   C2B44864  13.864  20.774   6.764
 3428POPC   C3B44865  13.796  20.726   7.064
 3428POPC   C4B44866  13.815  20.758   7.364
 3429POPC   NC344867  38.454   5.915   5.564
 3429POPC   PO444868  38.409   5.851   5.864
 3429POPC   GL144869  38.453   5.883   6.164
 3429POPC   GL244870  38.578   5.815   6.164
 3429POPC   C1A44871  38.419   5.897   6.464
 3429POPC   D2A44872  38.422   5.846   6.764
 3429POPC   C3A44873  38.501   5.871   7.064
 3429POPC   C4A44874  38.504   5.904   7.364
 3429POPC   C1B44875  38.704   5.739   6.464
 3429POPC   C2B44876  38.677   5.701   6.764
 3429POPC   C3B44877  38.623   5.736   7.064
 3429POPC   C4B44878  38.697   5.752   7.364
 3430POPC   NC344879  40.773   9.713   5.564
 3430POPC   PO444880  40.790   9.752   5.864
 3430POPC   GL144881  40.819   9.756   6.164
 3430POPC   GL244882  40.771   9.923   6.164
 3430POPC   C1A44883  40.805   9.709   6.464
 3430POPC   D2A44884  40.810   9.734   6.764
 3430POPC   C3A44885  40.826   9.730   7.064
 3430POPC   C4A44886  40.733   9.737   7.364
 3430POPC   C1B44887  40.746  10.042   6.464
 3430POPC   C2B44888  40.793   9.969   6.764
 3430POPC   C3B44889  40.794   9.968   7.064
 3430POPC   C4B44890  40.796   9.990   7.364
 3431POPC   NC344891  23.713  36.083   5.564
 3431POPC   PO444892  23.677  36.158   5.864
 3431POPC   GL144893  23.706  36.086   6.164
 3431POPC   GL244894  23.768  36.082   6.164
 3431POPC   C1A44895  23.699  36.135   6.464
 3431POPC   D2A44896  23.677  36.149   6.764
 3431POPC   C3A44897  23.711  36.135   7.064
 3431POPC   C4A44898  23.707  36.130   7.364
 3431POPC   C1B44899  23.902  35.899   6.464
 3431POPC   C2B44900  23.860  35.913   6.764
 3431POPC   C3B44901  23.937  35.908   7.064
 3431POPC   C4B44902  23.886  35.954   7.364
 3432POPC   NC344903  29.959   3.554   5.564
 3432POPC   PO444904  29.883   3.502   5.864
 3432POPC   GL144905  29.884   3.511   6.164
 3432POPC   GL244906  29.814   3.612   6.164
 3432POPC   C1A44907  29.916   3.552   6.464
 3432POPC   D2A44908  29.902   3.577   6.764
 3432POPC   C3A44909  29.906   3.572   7.064
 3432POPC   C4A44910  29.934   3.567   7.364
 3432POPC   C1B44911  29.772   3.739   6.464
 3432POPC   C2B44912  29.737   3.750   6.764
 3432POPC   C3B44913  29.751   3.702   7.064
 3432POPC   C4B44914  29.768   3.770   7.364
 3433POPC   NC344915  35.392  41.533   5.564
 3433POPC   PO444916  35.314  41.541   5.864
 3433POPC   GL144917  35.380  41.593   6.164
 3433POPC   GL244918  35.423  41.637   6.164
 3433POPC   C1A44919  35.382  41.532   6.464
 3433POPC   D2A44920  35.336  41.565   6.764
 3433POPC   C3A44921  35.365  41.527   7.064
 3433POPC   C4A44922  35.308  41.579   7.364
 3433POPC   C1B44923  35.548  41.738   6.464
 3433POPC   C2B44924  35.584  41.660   6.764
 3433POPC   C3B44925  35.560  41.661   7.064
 3433POPC   C4B44926  35.541  41.687   7.364
 3434POPC   NC344927  22.904   8.945   5.564
 3434POPC   PO444928  22.948   8.943   5.864
 3434POPC   GL144929  22.893   8.954   6.164
 3434POPC   GL244930  23.046   9.099   6.164
 3434POPC   C1A44931  22.944   8.992   6.464
 3434POPC   D2A44932  22.946   8.956   6.764
 3434POPC   C3A44933  22.922   9.004   7.064
 3434POPC   C4A44934  22.970   8.976   7.364
 3434POPC   C1B44935  23.124   9.195   6.464
 3434POPC   C2B44936  23.135   9.138   6.764
 3434POPC   C3B44937  23.076   9.131   7.064
 3434POPC   C4B44938  23.097   9.155   7.364
 3435POPC   NC344939  17.470  17.478   5.564
 3435POPC   PO444940  17.486  17.481   5.864
 3435POPC   GL144941  17.520  17.504   6.164
 3435POPC   GL244942  17.429  17.424   6.164
 3435POPC   C1A44943  17.519  17.543   6.464
 3435POPC   D2A44944  17.474  17.497   6.764
 3435POPC   C3A44945  17.536  17.467   7.064
 3435POPC   C4A44946  17.553  17.496   7.364
 3435POPC   C1B44947  17.395  17.293   6.464
 3435POPC   C2B44948  17.351  17.311   6.764
 3435POPC   C3B44949  17.361  17.309   7.064
 3435POPC   C4B44950  17.398  17.340   7.364
 3436POPC   NC344951  40.031   6.680   5.564
 3436POPC   PO444952  40.011   6.600   5.864
 3436POPC   GL144953  39.991   6.604   6.164
 3436POPC   GL244954  39.900   6.722   6.164
 3436POPC   C1A44955  40.018   6.679   6.464
 3436POPC   D2A44956  39.962   6.619   6.764
 3436POPC   C3A44957  39.977   6.661   7.064
 3436POPC   C4A44958  40.044   6.658   7.364
 3436POPC   C1B44959  39.817   6.854   6.464
 3436POPC   C2B44960  39.885   6.878   6.764
 3436POPC   C3B44961  39.824   6.841   7.064
 3436POPC   C4B44962  39.887   6.896   7.364
 3437POPC   NC344963   2.793  24.498   5.564
 3437POPC   PO444964   2.733  24.474   5.864
 3437POPC   GL144965   2.716  24.485   6.164
 3437POPC   GL244966   2.749  24.417   6.164
 3437POPC   C1A44967   2.789  24.444   6.464
 3437POPC   D2A44968   2.724  24.447   6.764
 3437POPC   C3A44969   2.719  24.468   7.064
 3437POPC   C4A44970   2.729  24.519   7.364
 3437POPC   C1B44971   2.670  24.225   6.464
 3437POPC   C2B44972   2.654  24.237   6.764
 3437POPC   C3B44973   2.662  24.302   7.064
 3437POPC   C4B44974   2.646  24.293   7.364
 3438POPC   NC344975  12.119  37.714   5.564
 3438POPC   PO444976  12.061  37.633   5.864
 3438POPC   GL144977  12.100  37.697   6.164
 3438POPC   GL244978  11.995  37.700   6.164
 3438POPC   C1A44979  12.075  37.638   6.464
 3438POPC   D2A44980  12.053  37.706   6.764
 3438POPC   C3A44981  12.072  37.653   7.064
 3438POPC   C4A44982  12.081  37.716   7.364
 3438POPC   C1B44983  11.810  37.727   6.464
 3438POPC   C2B44984  11.820  37.732   6.764
 3438POPC   C3B44985  11.825  37.698   7.064
 3438POPC   C4B44986  11.811  37.682   7.364
 3439POPC   NC344987  28.358  16.688   5.564
 3439POPC   PO444988  28.400  16.697   5.864
 3439POPC   GL144989  28.395  16.742   6.164
 3439POPC   GL244990  28.220  16.665   6.164
 3439POPC   C1A44991  28.387  16.776   6.464
 3439POPC   D2A44992  28.349  16.683   6.764
 3439POPC   C3A44993  28.336  16.698   7.064
 3439POPC   C4A44994  28.419  16.706   7.364
 3439POPC   C1B44995  28.127  16.646   6.464
 3439POPC   C2B44996  28.078  16.703   6.764
 3439POPC   C3B44997  28.105  16.680   7.064
 3439POPC   C4B44998  28.168  16.719   7.364
 3440POPC   NC344999  25.254  43.872   5.564
 3440POPC   PO445000  25.259  43.871   5.864
 3440POPC   GL145001  25.266  43.894   6.164
 3440POPC   GL245002  25.263  44.040   6.164
 3440POPC   C1A45003  25.291  43.879   6.464
 3440POPC   D2A45004  25.242  43.889   6.764
 3440POPC   C3A45005  25.277  43.839   7.064
 3440POPC   C4A45006  25.261  43.929   7.364
 3440POPC   C1B45007  25.298  44.164   6.464
 3440POPC   C2B45008  25.314  44.081   6.764
 3440POPC   C3B45009  25.332  44.084   7.064
 3440POPC   C4B45010  25.322  44.163   7.364
 3441POPC   NC345011   7.470  39.187   5.564
 3441POPC   PO445012   7.408  39.220   5.864
 3441POPC   GL145013   7.389  39.212   6.164
 3441POPC   GL245014   7.579  39.161   6.164
 3441POPC   C1A45015   7.380  39.278   6.464
 3441POPC   D2A45016   7.389  39.278   6.764
 3441POPC   C3A45017   7.377  39.188   7.064
 3441POPC   C4A45018   7.461  39.226   7.364
 3441POPC   C1B45019   7.687  39.164   6.464
 3441POPC   C2B45020   7.666  39.233   6.764
 3441POPC   C3B45021   7.620  39.193   7.064
 3441POPC   C4B45022   7.709  39.223   7.364
 3442POPC   NC345023  21.343  18.237   5.564
 3442POPC   PO445024  21.407  18.302   5.864
 3442POPC   GL145025  21.414  18.238   6.164
 3442POPC   GL245026  21.503  18.294   6.164
 3442POPC   C1A45027  21.404  18.247   6.464
 3442POPC   D2A45028  21.436  18.249   6.764
 3442POPC   C3A45029  21.353  18.290   7.064
 3442POPC   C4A45030  21.435  18.326   7.364
 3442POPC   C1B45031  21.682  18.253   6.464
 3442POPC   C2B45032  21.629  18.307   6.764
 3442POPC   C3B45033  21.601  18.292   7.064
 3442POPC   C4B45034  21.672  18.298   7.364
 3443POPC   NC345035  43.852  39.194   5.564
 3443POPC   PO445036  43.845  39.228   5.864
 3443POPC   GL145037  43.855  39.202   6.164
 3443POPC   GL245038  43.946  39.117   6.164
 3443POPC   C1A45039  43.857  39.233   6.464
 3443POPC   D2A45040  43.902  39.208   6.764
 3443POPC   C3A45041  43.891  39.184   7.064
 3443POPC   C4A45042  43.934  39.231   7.364
 3443POPC   C1B45043  44.026  38.990   6.464
 3443POPC   C2B45044  44.028  39.005   6.764
 3443POPC   C3B45045  44.026  38.996   7.064
 3443POPC   C4B45046  44.075  38.998   7.364
 3444POPC   NC345047  35.369  11.283   5.564
 3444POPC   PO445048  35.362  11.324   5.864
 3444POPC   GL145049  35.319  11.325   6.164
 3444POPC   GL245050  35.282  11.393   6.164
 3444POPC   C1A45051  35.387  11.330   6.464
 3444POPC   D2A45052  35.313  11.294   6.764
 3444POPC   C3A45053  35.304  11.278   7.064
 3444POPC   C4A45054  35.343  11.301   7.364
 3444POPC   C1B45055  35.273  11.584   6.464
 3444POPC   C2B45056  35.263  11.508   6.764
 3444POPC   C3B45057  35.294  11.554   7.064
 3444POPC   C4B45058  35.277  11.511   7.364
 3445POPC   NC345059  13.658  12.860   5.564
 3445POPC   PO445060  13.675  12.887   5.864
 3445POPC   GL145061  13.614  12.825   6.164
 3445POPC   GL245062  13.721  12.734   6.164
 3445POPC   C1A45063  13.593  12.893   6.464
 3445POPC   D2A45064  13.580  12.897   6.764
 3445POPC   C3A45065  13.588  12.897   7.064
 3445POPC   C4A45066  13.580  12.889   7.364
 3445POPC   C1B45067  13.822  12.648   6.464
 3445POPC   C2B45068  13.810  12.648   6.764
 3445POPC   C3B45069  13.777  12.668   7.064
 3445POPC   C4B45070  13.784  12.639   7.364
 3446POPC   NC345071  38.423  44.706   5.564
 3446POPC   PO445072  38.421  44.676   5.864
 3446POPC   GL145073  38.501  44.648   6.164
 3446POPC   GL245074  38.450  44.582   6.164
 3446POPC   C1A45075  38.502  44.638   6.464
 3446POPC   D2A45076  38.468  44.683   6.764
 3446POPC   C3A45077  38.479  44.636   7.064
 3446POPC   C4A45078  38.418  44.683   7.364
 3446POPC   C1B45079  38.476  44.441   6.464
 3446POPC   C2B45080  38.466  44.373   6.764
 3446POPC   C3B45081  38.455  44.366   7.064
 3446POPC   C4B45082  38.508  44.436   7.364
 3447POPC   NC345083  29.194  27.619   5.564
 3447POPC   PO445084  29.117  27.590   5.864
 3447POPC   GL145085  29.192  27.569   6.164
 3447POPC   GL245086  29.041  27.736   6.164
 3447POPC   C1A45087  29.144  27.641   6.464
 3447POPC   D2A45088  29.169  27.585   6.764
 3447POPC   C3A45089  29.125  27.593   7.064
 3447POPC   C4A45090  29.111  27.632   7.364
 3447POPC   C1B45091  29.028  27.788   6.464
 3447POPC   C2B45092  28.993  27.802   6.764
 3447POPC   C3B45093  28.988  27.799   7.064
 3447POPC   C4B45094  28.994  27.790   7.364
 3448POPC   NC345095  29.104   3.513   5.564
 3448POPC   PO445096  29.165   3.495   5.864
 3448POPC   GL145097  29.148   3.549   6.164
 3448POPC   GL245098  29.315   3.544   6.164
 3448POPC   C1A45099  29.096   3.509   6.464
 3448POPC   D2A45100  29.146   3.524   6.764
 3448POPC   C3A45101  29.158   3.535   7.064
 3448POPC   C4A45102  29.159   3.514   7.364
 3448POPC   C1B45103  29.381   3.534   6.464
 3448POPC   C2B45104  29.382   3.534   6.764
 3448POPC   C3B45105  29.398   3.522   7.064
 3448POPC   C4B45106  29.402   3.471   7.364
 3449POPC   NC345107  15.211  33.834   5.564
 3449POPC   PO445108  15.190  33.781   5.864
 3449POPC   GL145109  15.184  33.779   6.164
 3449POPC   GL245110  15.074  33.874   6.164
 3449POPC   C1A45111  15.186  33.827   6.464
 3449POPC   D2A45112  15.190  33.772   6.764
 3449POPC   C3A45113  15.142  33.753   7.064
 3449POPC   C4A45114  15.186  33.780   7.364
 3449POPC   C1B45115  14.987  33.943   6.464
 3449POPC   C2B45116  14.986  33.955   6.764
 3449POPC   C3B45117  14.976  33.903   7.064
 3449POPC   C4B45118  15.005  33.990   7.364
 3450POPC   NC345119  19.834  34.581   5.564
 3450POPC   PO445120  19.847  34.589   5.864
 3450POPC   GL145121  19.830  34.544   6.164
 3450POPC   GL245122  19.680  34.571   6.164
 3450POPC   C1A45123  19.845  34.564   6.464
 3450POPC   D2A45124  19.795  34.563   6.764
 3450POPC   C3A45125  19.824  34.614   7.064
 3450POPC   C4A45126  19.882  34.580   7.364
 3450POPC   C1B45127  19.547  34.612   6.464
 3450POPC   C2B45128  19.539  34.540   6.764
 3450POPC   C3B45129  19.623  34.532   7.064
 3450POPC   C4B45130  19.550  34.570   7.364
 3451POPC   NC345131  14.405  44.660   5.564
 3451POPC   PO445132  14.370  44.623   5.864
 3451POPC   GL145133  14.361  44.625   6.164
 3451POPC   GL245134  14.289  44.771   6.164
 3451POPC   C1A45135  14.450  44.654   6.464
 3451POPC   D2A45136  14.359  44.625   6.764
 3451POPC   C3A45137  14.378  44.652   7.064
 3451POPC   C4A45138  14.367  44.665   7.364
 3451POPC   C1B45139  14.252  44.811   6.464
 3451POPC   C2B45140  14.212  44.877   6.764
 3451POPC   C3B45141  14.238  44.831   7.064
 3451POPC   C4B45142  14.232  44.794   7.364
 3452POPC   NC345143  26.785  39.280   5.564
 3452POPC   PO445144  26.836  39.257   5.864
 3452POPC   GL145145  26.817  39.267   6.164
 3452POPC   GL245146  26.830  39.313   6.164
 3452POPC   C1A45147  26.768  39.270   6.464
 3452POPC   D2A45148  26.828  39.198   6.764
 3452POPC   C3A45149  26.788  39.215   7.064
 3452POPC   C4A45150  26.806  39.233   7.364
 3452POPC   C1B45151  26.921  39.496   6.464
 3452POPC   C2B45152  26.886  39.490   6.764
 3452POPC   C3B45153  26.848  39.435   7.064
 3452POPC   C4B45154  26.859  39.481   7.364
 3453POPC   NC345155  10.543  15.152   5.564
 3453POPC   PO445156  10.495  15.170   5.864
 3453POPC   GL145157  10.521  15.130   6.164
 3453POPC   GL245158  10.674  15.093   6.164
 3453POPC   C1A45159  10.477  15.160   6.464
 3453POPC   D2A45160  10.486  15.183   6.764
 3453POPC   C3A45161  10.526  15.180   7.064
 3453POPC   C4A45162  10.520  15.130   7.364
 3453POPC   C1B45163  10.739  15.117   6.464
 3453POPC   C2B45164  10.780  15.105   6.764
 3453POPC   C3B45165  10.785  15.106   7.064
 3453POPC   C4B45166  10.721  15.082   7.364
 3454POPC   NC345167  14.388  40.003   5.564
 3454POPC   PO445168  14.421  40.044   5.864
 3454POPC   GL145169  14.377  40.007   6.164
 3454POPC   GL245170  14.455  40.099   6.164
 3454POPC   C1A45171  14.452  40.017   6.464
 3454POPC   D2A45172  14.432  39.989   6.764
 3454POPC   C3A45173  14.370  39.968   7.064
 3454POPC   C4A45174  14.414  40.018   7.364
 3454POPC   C1B45175  14.446  40.209   6.464
 3454POPC   C2B45176  14.522  40.279   6.764
 3454POPC   C3B45177  14.501  40.241   7.064
 3454POPC   C4B45178  14.457  40.276   7.364
 3455POPC   NC345179  17.499  12.033   5.564
 3455POPC   PO445180  17.491  12.080   5.864
 3455POPC   GL145181  17.549  12.073   6.164
 3455POPC   GL245182  17.430  12.145   6.164
 3455POPC   C1A45183  17.489  12.091   6.464
 3455POPC   D2A45184  17.500  12.125   6.764
 3455POPC   C3A45185  17.476  12.101   7.064
 3455POPC   C4A45186  17.490  12.123   7.364
 3455POPC   C1B45187  17.284  12.137   6.464
 3455POPC   C2B45188  17.250  12.139   6.764
 3455POPC   C3B45189  17.230  12.134   7.064
 3455POPC   C4B45190  17.233  12.130   7.364
 3456POPC   NC345191  13.649  16.692   5.564
 3456POPC   PO445192  13.582  16.691   5.864
 3456POPC   GL145193  13.669  16.730   6.164
 3456POPC   GL245194  13.623  16.633   6.164
 3456POPC   C1A45195  13.586  16.776   6.464
 3456POPC   D2A45196  13.633  16.685   6.764
 3456POPC   C3A45197  13.650  16.757   7.064
 3456POPC   C4A45198  13.616  16.757   7.364
 3456POPC   C1B45199  13.546  16.501   6.464
 3456POPC   C2B45200  13.604  16.464   6.764
 3456POPC   C3B45201  13.608  16.526   7.064
 3456POPC   C4B45202  13.570  16.468   7.364
 3457POPC   NC345203  43.157  29.969   5.564
 3457POPC   PO445204  43.076  29.915   5.864
 3457POPC   GL145205  43.130  29.886   6.164
 3457POPC   GL245206  43.075  30.042   6.164
 3457POPC   C1A45207  43.080  29.941   6.464
 3457POPC   D2A45208  43.130  29.895   6.764
 3457POPC   C3A45209  43.084  29.919   7.064
 3457POPC   C4A45210  43.062  29.959   7.364
 3457POPC   C1B45211  42.983  30.135   6.464
 3457POPC   C2B45212  42.942  30.080   6.764
 3457POPC   C3B45213  42.965  30.107   7.064
 3457POPC   C4B45214  42.998  30.171   7.364
 3458POPC   NC345215  36.860  40.791   5.564
 3458POPC   PO445216  36.950  40.797   5.864
 3458POPC   GL145217  36.921  40.791   6.164
 3458POPC   GL245218  37.045  40.846   6.164
 3458POPC   C1A45219  36.921  40.803   6.464
 3458POPC   D2A45220  36.873  40.741   6.764
 3458POPC   C3A45221  36.933  40.737   7.064
 3458POPC   C4A45222  36.895  40.811   7.364
 3458POPC   C1B45223  37.168  40.919   6.464
 3458POPC   C2B45224  37.141  40.918   6.764
 3458POPC   C3B45225  37.143  40.923   7.064
 3458POPC   C4B45226  37.178  40.913   7.364
 3459POPC   NC345227  28.396  36.117   5.564
 3459POPC   PO445228  28.373  36.106   5.864
 3459POPC   GL145229  28.320  36.123   6.164
 3459POPC   GL245230  28.260  36.131   6.164
 3459POPC   C1A45231  28.332  36.101   6.464
 3459POPC   D2A45232  28.333  36.082   6.764
 3459POPC   C3A45233  28.400  36.116   7.064
 3459POPC   C4A45234  28.321  36.143   7.364
 3459POPC   C1B45235  28.135  36.126   6.464
 3459POPC   C2B45236  28.147  36.133   6.764
 3459POPC   C3B45237  28.099  36.160   7.064
 3459POPC   C4B45238  28.131  36.163   7.364
 3460POPC   NC345239  41.518  26.059   5.564
 3460POPC   PO445240  41.562  25.993   5.864
 3460POPC   GL145241  41.577  26.016   6.164
 3460POPC   GL245242  41.678  26.111   6.164
 3460POPC   C1A45243  41.565  26.015   6.464
 3460POPC   D2A45244  41.606  26.007   6.764
 3460POPC   C3A45245  41.522  26.008   7.064
 3460POPC   C4A45246  41.593  26.032   7.364
 3460POPC   C1B45247  41.714  26.167   6.464
 3460POPC   C2B45248  41.734  26.162   6.764
 3460POPC   C3B45249  41.713  26.177   7.064
 3460POPC   C4B45250  41.710  26.184   7.364
 3461POPC   NC345251  15.956  33.011   5.564
 3461POPC   PO445252  15.919  33.016   5.864
 3461POPC   GL145253  15.959  33.067   6.164
 3461POPC   GL245254  15.844  33.039   6.164
 3461POPC   C1A45255  15.986  33.041   6.464
 3461POPC   D2A45256  15.994  33.044   6.764
 3461POPC   C3A45257  15.996  32.994   7.064
 3461POPC   C4A45258  15.999  33.026   7.364
 3461POPC   C1B45259  15.731  33.028   6.464
 3461POPC   C2B45260  15.718  32.998   6.764
 3461POPC   C3B45261  15.676  33.037   7.064
 3461POPC   C4B45262  15.750  32.954   7.364
 3462POPC   NC345263  33.015  16.708   5.564
 3462POPC   PO445264  32.982  16.759   5.864
 3462POPC   GL145265  32.983  16.716   6.164
 3462POPC   GL245266  32.952  16.668   6.164
 3462POPC   C1A45267  33.011  16.684   6.464
 3462POPC   D2A45268  33.033  16.763   6.764
 3462POPC   C3A45269  33.004  16.751   7.064
 3462POPC   C4A45270  33.073  16.682   7.364
 3462POPC   C1B45271  32.836  16.506   6.464
 3462POPC   C2B45272  32.842  16.500   6.764
 3462POPC   C3B45273  32.899  16.496   7.064
 3462POPC   C4B45274  32.875  16.508   7.364
 3463POPC   NC345275  43.876  44.685   5.564
 3463POPC   PO445276  43.897  44.672   5.864
 3463POPC   GL145277  43.874  44.710   6.164
 3463POPC   GL245278  43.876  44.776   6.164
 3463POPC   C1A45279  43.868  44.645   6.464
 3463POPC   D2A45280  43.879  44.615   6.764
 3463POPC   C3A45281  43.924  44.622   7.064
 3463POPC   C4A45282  43.927  44.687   7.364
 3463POPC   C1B45283  43.919  44.946   6.464
 3463POPC   C2B45284  43.948  44.943   6.764
 3463POPC   C3B45285  43.925  44.904   7.064
 3463POPC   C4B45286  43.927  44.869   7.364
 3464POPC   NC345287  17.553   1.180   5.564
 3464POPC   PO445288  17.474   1.194   5.864
 3464POPC   GL145289  17.524   1.249   6.164
 3464POPC   GL245290  17.596   1.210   6.164
 3464POPC   C1A45291  17.488   1.173   6.464
 3464POPC   D2A45292  17.475   1.251   6.764
 3464POPC   C3A45293  17.489   1.260   7.064
 3464POPC   C4A45294  17.533   1.184   7.364
 3464POPC   C1B45295  17.711   1.149   6.464
 3464POPC   C2B45296  17.794   1.144   6.764
 3464POPC   C3B45297  17.707   1.170   7.064
 3464POPC   C4B45298  17.703   1.134   7.364
 3465POPC   NC345299  32.209  26.833   5.564
 3465POPC   PO445300  32.252  26.857   5.864
 3465POPC   GL145301  32.275  26.814   6.164
 3465POPC   GL245302  32.251  26.728   6.164
 3465POPC   C1A45303  32.244  26.790   6.464
 3465POPC   D2A45304  32.259  26.860   6.764
 3465POPC   C3A45305  32.237  26.840   7.064
 3465POPC   C4A45306  32.249  26.800   7.364
 3465POPC   C1B45307  32.145  26.570   6.464
 3465POPC   C2B45308  32.203  26.612   6.764
 3465POPC   C3B45309  32.142  26.576   7.064
 3465POPC   C4B45310  32.198  26.543   7.364
 3466POPC   NC345311  34.530   2.718   5.564
 3466POPC   PO445312  34.615   2.734   5.864
 3466POPC   GL145313  34.552   2.807   6.164
 3466POPC   GL245314  34.444   2.866   6.164
 3466POPC   C1A45315  34.609   2.726   6.464
 3466POPC   D2A45316  34.620   2.791   6.764
 3466POPC   C3A45317  34.613   2.787   7.064
 3466POPC   C4A45318  34.625   2.765   7.364
 3466POPC   C1B45319  34.366   2.896   6.464
 3466POPC   C2B45320  34.356   2.875   6.764
 3466POPC   C3B45321  34.320   2.910   7.064
 3466POPC   C4B45322  34.303   2.889   7.364
 3467POPC   NC345323  27.576  41.597   5.564
 3467POPC   PO445324  27.567  41.598   5.864
 3467POPC   GL145325  27.640  41.526   6.164
 3467POPC   GL245326  27.662  41.679   6.164
 3467POPC   C1A45327  27.563  41.527   6.464
 3467POPC   D2A45328  27.635  41.531   6.764
 3467POPC   C3A45329  27.633  41.542   7.064
 3467POPC   C4A45330  27.596  41.597   7.364
 3467POPC   C1B45331  27.708  41.737   6.464
 3467POPC   C2B45332  27.673  41.737   6.764
 3467POPC   C3B45333  27.665  41.801   7.064
 3467POPC   C4B45334  27.751  41.797   7.364
 3468POPC   NC345335  16.685   7.457   5.564
 3468POPC   PO445336  16.758   7.406   5.864
 3468POPC   GL145337  16.749   7.389   6.164
 3468POPC   GL245338  16.776   7.295   6.164
 3468POPC   C1A45339  16.742   7.457   6.464
 3468POPC   D2A45340  16.774   7.470   6.764
 3468POPC   C3A45341  16.732   7.450   7.064
 3468POPC   C4A45342  16.740   7.401   7.364
 3468POPC   C1B45343  16.899   7.202   6.464
 3468POPC   C2B45344  16.914   7.214   6.764
 3468POPC   C3B45345  16.902   7.243   7.064
 3468POPC   C4B45346  16.926   7.227   7.364
 3469POPC   NC345347  44.648   8.166   5.564
 3469POPC   PO445348  44.670   8.153   5.864
 3469POPC   GL145349  44.620   8.230   6.164
 3469POPC   GL245350  44.522   8.282   6.164
 3469POPC   C1A45351  44.634   8.230   6.464
 3469POPC   D2A45352  44.691   8.180   6.764
 3469POPC   C3A45353  44.660   8.240   7.064
 3469POPC   C4A45354  44.695   8.173   7.364
 3469POPC   C1B45355  44.458   8.336   6.464
 3469POPC   C2B45356  44.435   8.291   6.764
 3469POPC   C3B45357  44.420   8.303   7.064
 3469POPC   C4B45358  44.432   8.296   7.364
 3470POPC   NC345359  27.556  17.485   5.564
 3470POPC   PO445360  27.603  17.507   5.864
 3470POPC   GL145361  27.613  17.477   6.164
 3470POPC   GL245362  27.691  17.491   6.164
 3470POPC   C1A45363  27.549  17.535   6.464
 3470POPC   D2A45364  27.583  17.496   6.764
 3470POPC   C3A45365  27.601  17.514   7.064
 3470POPC   C4A45366  27.602  17.514   7.364
 3470POPC   C1B45367  27.798  17.429   6.464
 3470POPC   C2B45368  27.846  17.374   6.764
 3470POPC   C3B45369  27.864  17.433   7.064
 3470POPC   C4B45370  27.799  17.385   7.364
 3471POPC   NC345371  32.252  18.253   5.564
 3471POPC   PO445372  32.296  18.269   5.864
 3471POPC   GL145373  32.256  18.295   6.164
 3471POPC   GL245374  32.142  18.401   6.164
 3471POPC   C1A45375  32.278  18.236   6.464
 3471POPC   D2A45376  32.278  18.253   6.764
 3471POPC   C3A45377  32.275  18.325   7.064
 3471POPC   C4A45378  32.206  18.312   7.364
 3471POPC   C1B45379  32.118  18.427   6.464
 3471POPC   C2B45380  32.040  18.482   6.764
 3471POPC   C3B45381  32.127  18.468   7.064
 3471POPC   C4B45382  32.105  18.451   7.364
 3472POPC   NC345383  21.422  27.551   5.564
 3472POPC   PO445384  21.425  27.630   5.864
 3472POPC   GL145385  21.399  27.591   6.164
 3472POPC   GL245386  21.392  27.672   6.164
 3472POPC   C1A45387  21.405  27.631   6.464
 3472POPC   D2A45388  21.358  27.590   6.764
 3472POPC   C3A45389  21.348  27.602   7.064
 3472POPC   C4A45390  21.408  27.584   7.364
 3472POPC   C1B45391  21.333  27.859   6.464
 3472POPC   C2B45392  21.338  27.845   6.764
 3472POPC   C3B45393  21.368  27.885   7.064
 3472POPC   C4B45394  21.303  27.843   7.364
 3473POPC   NC345395  38.435   8.949   5.564
 3473POPC   PO445396  38.495   9.011   5.864
 3473POPC   GL145397  38.447   8.964   6.164
 3473POPC   GL245398  38.579   9.046   6.164
 3473POPC   C1A45399  38.434   8.981   6.464
 3473POPC   D2A45400  38.446   9.009   6.764
 3473POPC   C3A45401  38.426   9.013   7.064
 3473POPC   C4A45402  38.424   8.953   7.364
 3473POPC   C1B45403  38.663   9.141   6.464
 3473POPC   C2B45404  38.651   9.102   6.764
 3473POPC   C3B45405  38.669   9.131   7.064
 3473POPC   C4B45406  38.656   9.049   7.364
 3474POPC   NC345407   1.972  17.536   5.564
 3474POPC   PO445408   2.029  17.458   5.864
 3474POPC   GL145409   2.028  17.498   6.164
 3474POPC   GL245410   1.981  17.391   6.164
 3474POPC   C1A45411   1.998  17.551   6.464
 3474POPC   D2A45412   2.036  17.465   6.764
 3474POPC   C3A45413   2.020  17.538   7.064
 3474POPC   C4A45414   1.966  17.505   7.364
 3474POPC   C1B45415   2.090  17.277   6.464
 3474POPC   C2B45416   2.041  17.277   6.764
 3474POPC   C3B45417   2.065  17.255   7.064
 3474POPC   C4B45418   2.068  17.292   7.364
 3475POPC   NC345419  31.519  29.896   5.564
 3475POPC   PO445420  31.486  29.969   5.864
 3475POPC   GL145421  31.431  29.874   6.164
 3475POPC   GL245422  31.360  29.915   6.164
 3475POPC   C1A45423  31.458  29.891   6.464
 3475POPC   D2A45424  31.442  29.908   6.764
 3475POPC   C3A45425  31.432  29.904   7.064
 3475POPC   C4A45426  31.506  29.955   7.364
 3475POPC   C1B45427  31.202  30.031   6.464
 3475POPC   C2B45428  31.195  29.962   6.764
 3475POPC   C3B45429  31.203  30.011   7.064
 3475POPC   C4B45430  31.267  30.047   7.364
 3476POPC   NC345431  15.158  15.967   5.564
 3476POPC   PO445432  15.166  15.926   5.864
 3476POPC   GL145433  15.133  15.939   6.164
 3476POPC   GL245434  15.049  15.993   6.164
 3476POPC   C1A45435  15.154  15.996   6.464
 3476POPC   D2A45436  15.201  15.933   6.764
 3476POPC   C3A45437  15.201  15.916   7.064
 3476POPC   C4A45438  15.175  15.977   7.364
 3476POPC   C1B45439  14.945  16.036   6.464
 3476POPC   C2B45440  14.904  16.079   6.764
 3476POPC   C3B45441  14.900  16.061   7.064
 3476POPC   C4B45442  14.928  16.018   7.364
 3477POPC   NC345443   5.078  19.802   5.564
 3477POPC   PO445444   5.132  19.856   5.864
 3477POPC   GL145445   5.112  19.803   6.164
 3477POPC   GL245446   4.951  19.814   6.164
 3477POPC   C1A45447   5.046  19.844   6.464
 3477POPC   D2A45448   5.127  19.882   6.764
 3477POPC   C3A45449   5.077  19.881   7.064
 3477POPC   C4A45450   5.096  19.817   7.364
 3477POPC   C1B45451   4.827  19.873   6.464
 3477POPC   C2B45452   4.883  19.874   6.764
 3477POPC   C3B45453   4.820  19.896   7.064
 3477POPC   C4B45454   4.881  19.848   7.364
 3478POPC   NC345455  19.012  34.611   5.564
 3478POPC   PO445456  19.101  34.590   5.864
 3478POPC   GL145457  19.092  34.591   6.164
 3478POPC   GL245458  19.045  34.677   6.164
 3478POPC   C1A45459  19.040  34.611   6.464
 3478POPC   D2A45460  19.022  34.543   6.764
 3478POPC   C3A45461  19.022  34.569   7.064
 3478POPC   C4A45462  19.076  34.615   7.364
 3478POPC   C1B45463  19.012  34.809   6.464
 3478POPC   C2B45464  19.001  34.874   6.764
 3478POPC   C3B45465  19.030  34.833   7.064
 3478POPC   C4B45466  19.097  34.812   7.364
 3479POPC   NC345467  11.272  26.787   5.564
 3479POPC   PO445468  11.266  26.803   5.864
 3479POPC   GL145469  11.289  26.805   6.164
 3479POPC   GL245470  11.290  26.752   6.164
 3479POPC   C1A45471  11.334  26.824   6.464
 3479POPC   D2A45472  11.323  26.846   6.764
 3479POPC   C3A45473  11.316  26.783   7.064
 3479POPC   C4A45474  11.308  26.807   7.364
 3479POPC   C1B45475  11.198  26.554   6.464
 3479POPC   C2B45476  11.224  26.627   6.764
 3479POPC   C3B45477  11.208  26.621   7.064
 3479POPC   C4B45478  11.200  26.601   7.364
 3480POPC   NC345479  31.442  39.219   5.564
 3480POPC   PO445480  31.460  39.237   5.864
 3480POPC   GL145481  31.510  39.280   6.164
 3480POPC   GL245482  31.602  39.294   6.164
 3480POPC   C1A45483  31.449  39.247   6.464
 3480POPC   D2A45484  31.482  39.258   6.764
 3480POPC   C3A45485  31.520  39.206   7.064
 3480POPC   C4A45486  31.472  39.215   7.364
 3480POPC   C1B45487  31.752  39.346   6.464
 3480POPC   C2B45488  31.712  39.343   6.764
 3480POPC   C3B45489  31.663  39.271   7.064
 3480POPC   C4B45490  31.732  39.277   7.364
 3481POPC   NC345491  32.241   6.688   5.564
 3481POPC   PO445492  32.295   6.660   5.864
 3481POPC   GL145493  32.223   6.692   6.164
 3481POPC   GL245494  32.205   6.711   6.164
 3481POPC   C1A45495  32.211   6.595   6.464
 3481POPC   D2A45496  32.279   6.676   6.764
 3481POPC   C3A45497  32.241   6.669   7.064
 3481POPC   C4A45498  32.236   6.624   7.364
 3481POPC   C1B45499  32.122   6.915   6.464
 3481POPC   C2B45500  32.162   6.850   6.764
 3481POPC   C3B45501  32.121   6.847   7.064
 3481POPC   C4B45502  32.118   6.910   7.364
 3482POPC   NC345503  32.226   7.375   5.564
 3482POPC   PO445504  32.246   7.431   5.864
 3482POPC   GL145505  32.285   7.385   6.164
 3482POPC   GL245506  32.310   7.328   6.164
 3482POPC   C1A45507  32.230   7.470   6.464
 3482POPC   D2A45508  32.209   7.379   6.764
 3482POPC   C3A45509  32.284   7.406   7.064
 3482POPC   C4A45510  32.253   7.439   7.364
 3482POPC   C1B45511  32.416   7.185   6.464
 3482POPC   C2B45512  32.336   7.186   6.764
 3482POPC   C3B45513  32.332   7.165   7.064
 3482POPC   C4B45514  32.353   7.250   7.364
 3483POPC   NC345515  34.556   0.434   5.564
 3483POPC   PO445516  34.528   0.467   5.864
 3483POPC   GL145517  34.620   0.415   6.164
 3483POPC   GL245518  34.673   0.518   6.164
 3483POPC   C1A45519  34.545   0.475   6.464
 3483POPC   D2A45520  34.563   0.461   6.764
 3483POPC   C3A45521  34.545   0.425   7.064
 3483POPC   C4A45522  34.622   0.414   7.364
 3483POPC   C1B45523  34.740   0.554   6.464
 3483POPC   C2B45524  34.741   0.577   6.764
 3483POPC   C3B45525  34.764   0.602   7.064
 3483POPC   C4B45526  34.742   0.608   7.364
 3484POPC   NC345527   2.001  21.356   5.564
 3484POPC   PO445528   1.961  21.390   5.864
 3484POPC   GL145529   1.961  21.354   6.164
 3484POPC   GL245530   1.938  21.307   6.164
 3484POPC   C1A45531   1.985  21.417   6.464
 3484POPC   D2A45532   2.009  21.429   6.764
 3484POPC   C3A45533   1.962  21.394   7.064
 3484POPC   C4A45534   1.985  21.405   7.364
 3484POPC   C1B45535   1.948  21.181   6.464
 3484POPC   C2B45536   1.868  21.122   6.764
 3484POPC   C3B45537   1.914  21.129   7.064
 3484POPC   C4B45538   1.862  21.166   7.364
 3485POPC   NC345539  26.796  36.111   5.564
 3485POPC   PO445540  26.796  36.095   5.864
 3485POPC   GL145541  26.806  36.123   6.164
 3485POPC   GL245542  26.773  36.245   6.164
 3485POPC   C1A45543  26.769  36.090   6.464
 3485POPC   D2A45544  26.846  36.158   6.764
 3485POPC   C3A45545  26.858  36.177   7.064
 3485POPC   C4A45546  26.846  36.142   7.364
 3485POPC   C1B45547  26.724  36.400   6.464
 3485POPC   C2B45548  26.710  36.364   6.764
 3485POPC   C3B45549  26.752  36.371   7.064
 3485POPC   C4B45550  26.744  36.317   7.364
 3486POPC   NC345551  33.768   2.774   5.564
 3486POPC   PO445552  33.800   2.771   5.864
 3486POPC   GL145553  33.805   2.774   6.164
 3486POPC   GL245554  33.698   2.731   6.164
 3486POPC   C1A45555  33.841   2.804   6.464
 3486POPC   D2A45556  33.754   2.770   6.764
 3486POPC   C3A45557  33.757   2.765   7.064
 3486POPC   C4A45558  33.802   2.785   7.364
 3486POPC   C1B45559  33.590   2.742   6.464
 3486POPC   C2B45560  33.595   2.734   6.764
 3486POPC   C3B45561  33.588   2.738   7.064
 3486POPC   C4B45562  33.514   2.715   7.364
 3487POPC   NC345563  19.097  30.666   5.564
 3487POPC   PO445564  19.080  30.710   5.864
 3487POPC   GL145565  19.050  30.677   6.164
 3487POPC   GL245566  19.086  30.761   6.164
 3487POPC   C1A45567  19.069  30.650   6.464
 3487POPC   D2A45568  19.013  30.721   6.764
 3487POPC   C3A45569  19.075  30.661   7.064
 3487POPC   C4A45570  19.050  30.656   7.364
 3487POPC   C1B45571  19.141  30.944   6.464
 3487POPC   C2B45572  19.217  30.869   6.764
 3487POPC   C3B45573  19.199  30.868   7.064
 3487POPC   C4B45574  19.140  30.944   7.364
 3488POPC   NC345575  24.463   5.133   5.564
 3488POPC   PO445576  24.500   5.074   5.864
 3488POPC   GL145577  24.513   5.112   6.164
 3488POPC   GL245578  24.337   5.123   6.164
 3488POPC   C1A45579  24.524   5.118   6.464
 3488POPC   D2A45580  24.540   5.070   6.764
 3488POPC   C3A45581  24.479   5.101   7.064
 3488POPC   C4A45582  24.466   5.048   7.364
 3488POPC   C1B45583  24.272   5.054   6.464
 3488POPC   C2B45584  24.227   5.028   6.764
 3488POPC   C3B45585  24.245   5.080   7.064
 3488POPC   C4B45586  24.229   5.038   7.364
 3489POPC   NC345587  36.097  19.011   5.564
 3489POPC   PO445588  36.135  19.106   5.864
 3489POPC   GL145589  36.165  19.032   6.164
 3489POPC   GL245590  36.258  19.139   6.164
 3489POPC   C1A45591  36.144  19.059   6.464
 3489POPC   D2A45592  36.137  19.041   6.764
 3489POPC   C3A45593  36.157  19.084   7.064
 3489POPC   C4A45594  36.175  19.077   7.364
 3489POPC   C1B45595  36.355  19.184   6.464
 3489POPC   C2B45596  36.377  19.130   6.764
 3489POPC   C3B45597  36.355  19.187   7.064
 3489POPC   C4B45598  36.348  19.158   7.364
 3490POPC   NC345599   8.934  39.247   5.564
 3490POPC   PO445600   8.923  39.266   5.864
 3490POPC   GL145601   8.949  39.257   6.164
 3490POPC   GL245602   8.833  39.273   6.164
 3490POPC   C1A45603   8.977  39.234   6.464
 3490POPC   D2A45604   8.996  39.270   6.764
 3490POPC   C3A45605   8.928  39.191   7.064
 3490POPC   C4A45606   8.951  39.204   7.364
 3490POPC   C1B45607   8.791  39.352   6.464
 3490POPC   C2B45608   8.766  39.380   6.764
 3490POPC   C3B45609   8.720  39.387   7.064
 3490POPC   C4B45610   8.761  39.386   7.364
 3491POPC   NC345611   5.060  41.528   5.564
 3491POPC   PO445612   5.121  41.587   5.864
 3491POPC   GL145613   5.127  41.531   6.164
 3491POPC   GL245614   5.212  41.453   6.164
 3491POPC   C1A45615   5.097  41.554   6.464
 3491POPC   D2A45616   5.055  41.540   6.764
 3491POPC   C3A45617   5.126  41.521   7.064
 3491POPC   C4A45618   5.088  41.579   7.364
 3491POPC   C1B45619   5.207  41.375   6.464
 3491POPC   C2B45620   5.205  41.363   6.764
 3491POPC   C3B45621   5.251  41.351   7.064
 3491POPC   C4B45622   5.277  41.378   7.364
 3492POPC   NC345623   5.120   4.349   5.564
 3492POPC   PO445624   5.095   4.347   5.864
 3492POPC   GL145625   5.131   4.367   6.164
 3492POPC   GL245626   5.017   4.393   6.164
 3492POPC   C1A45627   5.091   4.347   6.464
 3492POPC   D2A45628   5.127   4.269   6.764
 3492POPC   C3A45629   5.116   4.279   7.064
 3492POPC   C4A45630   5.065   4.299   7.364
 3492POPC   C1B45631   4.869   4.477   6.464
 3492POPC   C2B45632   4.950   4.428   6.764
 3492POPC   C3B45633   4.943   4.431   7.064
 3492POPC   C4B45634   4.881   4.494   7.364
 3493POPC   NC345635  12.106  34.619   5.564
 3493POPC   PO445636  12.038  34.529   5.864
 3493POPC   GL145637  12.049  34.549   6.164
 3493POPC   GL245638  11.960  34.667   6.164
 3493POPC   C1A45639  12.081  34.540   6.464
 3493POPC   D2A45640  12.076  34.564   6.764
 3493POPC   C3A45641  12.105  34.572   7.064
 3493POPC   C4A45642  12.033  34.593   7.364
 3493POPC   C1B45643  11.934  34.721   6.464
 3493POPC   C2B45644  11.896  34.767   6.764
 3493POPC   C3B45645  11.929  34.795   7.064
 3493POPC   C4B45646  11.927  34.800   7.364
 3494POPC   NC345647  19.880  29.112   5.564
 3494POPC   PO445648  19.848  29.127   5.864
 3494POPC   GL145649  19.875  29.144   6.164
 3494POPC   GL245650  19.749  29.237   6.164
 3494POPC   C1A45651  19.793  29.192   6.464
 3494POPC   D2A45652  19.866  29.116   6.764
 3494POPC   C3A45653  19.836  29.156   7.064
 3494POPC   C4A45654  19.830  29.160   7.364
 3494POPC   C1B45655  19.678  29.341   6.464
 3494POPC   C2B45656  19.621  29.334   6.764
 3494POPC   C3B45657  19.633  29.364   7.064
 3494POPC   C4B45658  19.653  29.345   7.364
 3495POPC   NC345659   6.689  20.657   5.564
 3495POPC   PO445660   6.605  20.623   5.864
 3495POPC   GL145661   6.694  20.626   6.164
 3495POPC   GL245662   6.556  20.679   6.164
 3495POPC   C1A45663   6.603  20.630   6.464
 3495POPC   D2A45664   6.683  20.602   6.764
 3495POPC   C3A45665   6.683  20.624   7.064
 3495POPC   C4A45666   6.603  20.600   7.364
 3495POPC   C1B45667   6.538  20.862   6.464
 3495POPC   C2B45668   6.544  20.872   6.764
 3495POPC   C3B45669   6.549  20.848   7.064
 3495POPC   C4B45670   6.498  20.831   7.364
 3496POPC   NC345671  23.739  36.924   5.564
 3496POPC   PO445672  23.696  36.928   5.864
 3496POPC   GL145673  23.691  36.881   6.164
 3496POPC   GL245674  23.594  36.813   6.164
 3496POPC   C1A45675  23.740  36.941   6.464
 3496POPC   D2A45676  23.675  36.864   6.764
 3496POPC   C3A45677  23.755  36.863   7.064
 3496POPC   C4A45678  23.685  36.868   7.364
 3496POPC   C1B45679  23.572  36.698   6.464
 3496POPC   C2B45680  23.553  36.711   6.764
 3496POPC   C3B45681  23.521  36.654   7.064
 3496POPC   C4B45682  23.535  36.658   7.364
 3497POPC   NC345683  30.677  34.569   5.564
 3497POPC   PO445684  30.714  34.557   5.864
 3497POPC   GL145685  30.666  34.576   6.164
 3497POPC   GL245686  30.678  34.476   6.164
 3497POPC   C1A45687  30.682  34.609   6.464
 3497POPC   D2A45688  30.709  34.530   6.764
 3497POPC   C3A45689  30.683  34.613   7.064
 3497POPC   C4A45690  30.704  34.599   7.364
 3497POPC   C1B45691  30.630  34.294   6.464
 3497POPC   C2B45692  30.691  34.322   6.764
 3497POPC   C3B45693  30.608  34.333   7.064
 3497POPC   C4B45694  30.596  34.358   7.364
 3498POPC   NC345695  39.213  18.233   5.564
 3498POPC   PO445696  39.183  18.246   5.864
 3498POPC   GL145697  39.262  18.313   6.164
 3498POPC   GL245698  39.319  18.347   6.164
 3498POPC   C1A45699  39.263  18.294   6.464
 3498POPC   D2A45700  39.237  18.299   6.764
 3498POPC   C3A45701  39.229  18.330   7.064
 3498POPC   C4A45702  39.201  18.270   7.364
 3498POPC   C1B45703  39.366  18.461   6.464
 3498POPC   C2B45704  39.378  18.466   6.764
 3498POPC   C3B45705  39.306  18.469   7.064
 3498POPC   C4B45706  39.309  18.548   7.364
 3499POPC   NC345707  40.026  18.310   5.564
 3499POPC   PO445708  40.055  18.287   5.864
 3499POPC   GL145709  40.047  18.329   6.164
 3499POPC   GL245710  40.079  18.273   6.164
 3499POPC   C1A45711  40.005  18.270   6.464
 3499POPC   D2A45712  39.970  18.271   6.764
 3499POPC   C3A45713  40.036  18.290   7.064
 3499POPC   C4A45714  39.969  18.310   7.364
 3499POPC   C1B45715  40.284  18.212   6.464
 3499POPC   C2B45716  40.280  18.218   6.764
 3499POPC   C3B45717  40.206  18.177   7.064
 3499POPC   C4B45718  40.215  18.207   7.364
 3500POPC   NC345719  36.940  14.392   5.564
 3500POPC   PO445720  36.951  14.419   5.864
 3500POPC   GL145721  36.936  14.450   6.164
 3500POPC   GL245722  36.934  14.326   6.164
 3500POPC   C1A45723  36.893  14.375   6.464
 3500POPC   D2A45724  36.915  14.396   6.764
 3500POPC   C3A45725  36.952  14.389   7.064
 3500POPC   C4A45726  36.907  14.368   7.364
 3500POPC   C1B45727  36.866  14.186   6.464
 3500POPC   C2B45728  36.912  14.173   6.764
 3500POPC   C3B45729  36.955  14.153   7.064
 3500POPC   C4B45730  36.866  14.130   7.364
 3501POPC   NC345731  34.557  12.062   5.564
 3501POPC   PO445732  34.537  12.090   5.864
 3501POPC   GL145733  34.552  12.090   6.164
 3501POPC   GL245734  34.644  11.999   6.164
 3501POPC   C1A45735  34.579  12.124   6.464
 3501POPC   D2A45736  34.578  12.040   6.764
 3501POPC   C3A45737  34.559  12.121   7.064
 3501POPC   C4A45738  34.619  12.121   7.364
 3501POPC   C1B45739  34.788  11.965   6.464
 3501POPC   C2B45740  34.735  11.954   6.764
 3501POPC   C3B45741  34.805  11.921   7.064
 3501POPC   C4B45742  34.796  11.971   7.364
 3502POPC   NC345743  14.451  22.953   5.564
 3502POPC   PO445744  14.367  22.912   5.864
 3502POPC   GL145745  14.438  22.910   6.164
 3502POPC   GL245746  14.379  22.833   6.164
 3502POPC   C1A45747  14.383  22.929   6.464
 3502POPC   D2A45748  14.372  22.895   6.764
 3502POPC   C3A45749  14.393  22.951   7.064
 3502POPC   C4A45750  14.379  22.892   7.364
 3502POPC   C1B45751  14.404  22.651   6.464
 3502POPC   C2B45752  14.389  22.726   6.764
 3502POPC   C3B45753  14.378  22.654   7.064
 3502POPC   C4B45754  14.417  22.647   7.364
 3503POPC   NC345755  21.434  36.146   5.564
 3503POPC   PO445756  21.426  36.099   5.864
 3503POPC   GL145757  21.405  36.093   6.164
 3503POPC   GL245758  21.305  36.203   6.164
 3503POPC   C1A45759  21.359  36.109   6.464
 3503POPC   D2A45760  21.436  36.113   6.764
 3503POPC   C3A45761  21.347  36.139   7.064
 3503POPC   C4A45762  21.373  36.120   7.364
 3503POPC   C1B45763  21.239  36.298   6.464
 3503POPC   C2B45764  21.200  36.347   6.764
 3503POPC   C3B45765  21.195  36.364   7.064
 3503POPC   C4B45766  21.219  36.330   7.364
 3504POPC   NC345767  26.837  22.167   5.564
 3504POPC   PO445768  26.778  22.174   5.864
 3504POPC   GL145769  26.797  22.131   6.164
 3504POPC   GL245770  26.702  22.092   6.164
 3504POPC   C1A45771  26.768  22.204   6.464
 3504POPC   D2A45772  26.817  22.199   6.764
 3504POPC   C3A45773  26.842  22.183   7.064
 3504POPC   C4A45774  26.820  22.163   7.364
 3504POPC   C1B45775  26.681  22.013   6.464
 3504POPC   C2B45776  26.682  22.002   6.764
 3504POPC   C3B45777  26.682  21.958   7.064
 3504POPC   C4B45778  26.662  22.005   7.364
 3505POPC   NC345779  33.001  38.415   5.564
 3505POPC   PO445780  33.065  38.415   5.864
 3505POPC   GL145781  33.069  38.486   6.164
 3505POPC   GL245782  32.925  38.470   6.164
 3505POPC   C1A45783  33.036  38.465   6.464
 3505POPC   D2A45784  33.000  38.413   6.764
 3505POPC   C3A45785  32.986  38.501   7.064
 3505POPC   C4A45786  32.978  38.484   7.364
 3505POPC   C1B45787  32.773  38.519   6.464
 3505POPC   C2B45788  32.747  38.483   6.764
 3505POPC   C3B45789  32.806  38.504   7.064
 3505POPC   C4B45790  32.797  38.453   7.364
 3506POPC   NC345791  35.318  23.752   5.564
 3506POPC   PO445792  35.339  23.670   5.864
 3506POPC   GL145793  35.386  23.698   6.164
 3506POPC   GL245794  35.352  23.597   6.164
 3506POPC   C1A45795  35.354  23.738   6.464
 3506POPC   D2A45796  35.390  23.746   6.764
 3506POPC   C3A45797  35.372  23.744   7.064
 3506POPC   C4A45798  35.368  23.712   7.364
 3506POPC   C1B45799  35.437  23.498   6.464
 3506POPC   C2B45800  35.377  23.443   6.764
 3506POPC   C3B45801  35.383  23.506   7.064
 3506POPC   C4B45802  35.448  23.439   7.364
 3507POPC   NC345803  22.188  28.366   5.564
 3507POPC   PO445804  22.166  28.338   5.864
 3507POPC   GL145805  22.165  28.352   6.164
 3507POPC   GL245806  21.996  28.338   6.164
 3507POPC   C1A45807  22.173  28.365   6.464
 3507POPC   D2A45808  22.205  28.332   6.764
 3507POPC   C3A45809  22.150  28.367   7.064
 3507POPC   C4A45810  22.136  28.343   7.364
 3507POPC   C1B45811  21.870  28.412   6.464
 3507POPC   C2B45812  21.884  28.393   6.764
 3507POPC   C3B45813  21.868  28.396   7.064
 3507POPC   C4B45814  21.933  28.418   7.364
 3508POPC   NC345815   8.228   7.384   5.564
 3508POPC   PO445816   8.186   7.403   5.864
 3508POPC   GL145817   8.162   7.451   6.164
 3508POPC   GL245818   8.091   7.320   6.164
 3508POPC   C1A45819   8.181   7.415   6.464
 3508POPC   D2A45820   8.157   7.467   6.764
 3508POPC   C3A45821   8.167   7.382   7.064
 3508POPC   C4A45822   8.186   7.438   7.364
 3508POPC   C1B45823   7.999   7.233   6.464
 3508POPC   C2B45824   7.991   7.263   6.764
 3508POPC   C3B45825   8.070   7.246   7.064
 3508POPC   C4B45826   7.988   7.195   7.364
 3509POPC   NC345827  29.940  28.414   5.564
 3509POPC   PO445828  29.878  28.391   5.864
 3509POPC   GL145829  29.872  28.412   6.164
 3509POPC   GL245830  29.886  28.262   6.164
 3509POPC   C1A45831  29.941  28.325   6.464
 3509POPC   D2A45832  29.945  28.410   6.764
 3509POPC   C3A45833  29.919  28.332   7.064
 3509POPC   C4A45834  29.939  28.348   7.364
 3509POPC   C1B45835  29.846  28.124   6.464
 3509POPC   C2B45836  29.860  28.134   6.764
 3509POPC   C3B45837  29.893  28.129   7.064
 3509POPC   C4B45838  29.846  28.166   7.364
 3510POPC   NC345839  14.364  39.187   5.564
 3510POPC   PO445840  14.368  39.247   5.864
 3510POPC   GL145841  14.395  39.228   6.164
 3510POPC   GL245842  14.502  39.346   6.164
 3510POPC   C1A45843  14.403  39.197   6.464
 3510POPC   D2A45844  14.391  39.232   6.764
 3510POPC   C3A45845  14.438  39.222   7.064
 3510POPC   C4A45846  14.439  39.198   7.364
 3510POPC   C1B45847  14.614  39.394   6.464
 3510POPC   C2B45848  14.616  39.453   6.764
 3510POPC   C3B45849  14.534  39.455   7.064
 3510POPC   C4B45850  14.569  39.406   7.364
 3511POPC   NC345851  35.389  12.864   5.564
 3511POPC   PO445852  35.365  12.885   5.864
 3511POPC   GL145853  35.389  12.830   6.164
 3511POPC   GL245854  35.487  12.847   6.164
 3511POPC   C1A45855  35.359  12.902   6.464
 3511POPC   D2A45856  35.352  12.900   6.764
 3511POPC   C3A45857  35.398  12.807   7.064
 3511POPC   C4A45858  35.393  12.818   7.364
 3511POPC   C1B45859  35.601  12.822   6.464
 3511POPC   C2B45860  35.626  12.782   6.764
 3511POPC   C3B45861  35.587  12.780   7.064
 3511POPC   C4B45862  35.591  12.837   7.364
 3512POPC   NC345863   2.022  20.637   5.564
 3512POPC   PO445864   2.031  20.583   5.864
 3512POPC   GL145865   1.975  20.582   6.164
 3512POPC   GL245866   2.015  20.506   6.164
 3512POPC   C1A45867   1.958  20.621   6.464
 3512POPC   D2A45868   2.037  20.620   6.764
 3512POPC   C3A45869   1.981  20.637   7.064
 3512POPC   C4A45870   2.036  20.582   7.364
 3512POPC   C1B45871   2.099  20.378   6.464
 3512POPC   C2B45872   2.109  20.367   6.764
 3512POPC   C3B45873   2.035  20.403   7.064
 3512POPC   C4B45874   2.075  20.366   7.364
 3513POPC   NC345875  41.562  12.034   5.564
 3513POPC   PO445876  41.608  12.055   5.864
 3513POPC   GL145877  41.545  12.080   6.164
 3513POPC   GL245878  41.710  12.052   6.164
 3513POPC   C1A45879  41.597  12.028   6.464
 3513POPC   D2A45880  41.536  12.090   6.764
 3513POPC   C3A45881  41.593  12.066   7.064
 3513POPC   C4A45882  41.594  12.099   7.364
 3513POPC   C1B45883  41.778  12.127   6.464
 3513POPC   C2B45884  41.801  12.097   6.764
 3513POPC   C3B45885  41.760  12.132   7.064
 3513POPC   C4B45886  41.764  12.069   7.364
 3514POPC   NC345887  36.896   5.049   5.564
 3514POPC   PO445888  36.939   5.117   5.864
 3514POPC   GL145889  36.923   5.057   6.164
 3514POPC   GL245890  36.838   5.030   6.164
 3514POPC   C1A45891  36.923   5.043   6.464
 3514POPC   D2A45892  36.866   5.117   6.764
 3514POPC   C3A45893  36.887   5.074   7.064
 3514POPC   C4A45894  36.926   5.122   7.364
 3514POPC   C1B45895  36.708   4.886   6.464
 3514POPC   C2B45896  36.730   4.870   6.764
 3514POPC   C3B45897  36.741   4.893   7.064
 3514POPC   C4B45898  36.727   4.887   7.364
 3515POPC   NC345899  41.594  42.362   5.564
 3515POPC   PO445900  41.511  42.360   5.864
 3515POPC   GL145901  41.546  42.296   6.164
 3515POPC   GL245902  41.475  42.425   6.164
 3515POPC   C1A45903  41.584  42.378   6.464
 3515POPC   D2A45904  41.516  42.304   6.764
 3515POPC   C3A45905  41.529  42.287   7.064
 3515POPC   C4A45906  41.544  42.332   7.364
 3515POPC   C1B45907  41.406  42.544   6.464
 3515POPC   C2B45908  41.444  42.592   6.764
 3515POPC   C3B45909  41.389  42.562   7.064
 3515POPC   C4B45910  41.379  42.594   7.364
 3516POPC   NC345911  38.483  16.694   5.564
 3516POPC   PO445912  38.469  16.753   5.864
 3516POPC   GL145913  38.426  16.773   6.164
 3516POPC   GL245914  38.424  16.839   6.164
 3516POPC   C1A45915  38.454  16.687   6.464
 3516POPC   D2A45916  38.449  16.690   6.764
 3516POPC   C3A45917  38.420  16.685   7.064
 3516POPC   C4A45918  38.501  16.737   7.364
 3516POPC   C1B45919  38.338  16.972   6.464
 3516POPC   C2B45920  38.328  16.940   6.764
 3516POPC   C3B45921  38.326  16.899   7.064
 3516POPC   C4B45922  38.297  16.979   7.364
 3517POPC   NC345923  30.739   8.228   5.564
 3517POPC   PO445924  30.711   8.235   5.864
 3517POPC   GL145925  30.665   8.242   6.164
 3517POPC   GL245926  30.795   8.307   6.164
 3517POPC   C1A45927  30.650   8.210   6.464
 3517POPC   D2A45928  30.728   8.217   6.764
 3517POPC   C3A45929  30.648   8.209   7.064
 3517POPC   C4A45930  30.710   8.234   7.364
 3517POPC   C1B45931  30.941   8.303   6.464
 3517POPC   C2B45932  30.914   8.338   6.764
 3517POPC   C3B45933  30.939   8.304   7.064
 3517POPC   C4B45934  30.916   8.296   7.364
 3518POPC   NC345935  23.707  43.095   5.564
 3518POPC   PO445936  23.716  43.114   5.864
 3518POPC   GL145937  23.715  43.062   6.164
 3518POPC   GL245938  23.597  43.201   6.164
 3518POPC   C1A45939  23.674  43.073   6.464
 3518POPC   D2A45940  23.717  43.075   6.764
 3518POPC   C3A45941  23.721  43.096   7.064
 3518POPC   C4A45942  23.698  43.160   7.364
 3518POPC   C1B45943  23.564  43.324   6.464
 3518POPC   C2B45944  23.625  43.349   6.764
 3518POPC   C3B45945  23.585  43.284   7.064
 3518POPC   C4B45946  23.567  43.353   7.364
 3519POPC   NC345947  14.395  10.493   5.564
 3519POPC   PO445948  14.451  10.551   5.864
 3519POPC   GL145949  14.426  10.557   6.164
 3519POPC   GL245950  14.494  10.393   6.164
 3519POPC   C1A45951  14.407  10.567   6.464
 3519POPC   D2A45952  14.404  10.514   6.764
 3519POPC   C3A45953  14.448  10.517   7.064
 3519POPC   C4A45954  14.359  10.518   7.364
 3519POPC   C1B45955  14.578  10.338   6.464
 3519POPC   C2B45956  14.500  10.286   6.764
 3519POPC   C3B45957  14.528  10.313   7.064
 3519POPC   C4B45958  14.544  10.279   7.364
 3520POPC   NC345959  11.347  44.682   5.564
 3520POPC   PO445960  11.268  44.631   5.864
 3520POPC   GL145961  11.300  44.664   6.164
 3520POPC   GL245962  11.400  44.714   6.164
 3520POPC   C1A45963  11.323  44.615   6.464
 3520POPC   D2A45964  11.294  44.632   6.764
 3520POPC   C3A45965  11.330  44.669   7.064
 3520POPC   C4A45966  11.333  44.670   7.364
 3520POPC   C1B45967  11.425  44.899   6.464
 3520POPC   C2B45968  11.424  44.858   6.764
 3520POPC   C3B45969  11.407  44.841   7.064
 3520POPC   C4B45970  11.416  44.891   7.364
 3521POPC   NC345971  10.535  29.877   5.564
 3521POPC   PO445972  10.550  29.923   5.864
 3521POPC   GL145973  10.569  29.872   6.164
 3521POPC   GL245974  10.616  29.862   6.164
 3521POPC   C1A45975  10.509  29.965   6.464
 3521POPC   D2A45976  10.569  29.961   6.764
 3521POPC   C3A45977  10.478  29.939   7.064
 3521POPC   C4A45978  10.530  29.936   7.364
 3521POPC   C1B45979  10.695  29.698   6.464
 3521POPC   C2B45980  10.694  29.693   6.764
 3521POPC   C3B45981  10.613  29.754   7.064
 3521POPC   C4B45982  10.613  29.742   7.364
 3522POPC   NC345983  40.735  44.653   5.564
 3522POPC   PO445984  40.762  44.711   5.864
 3522POPC   GL145985  40.821  44.655   6.164
 3522POPC   GL245986  40.894  44.510   6.164
 3522POPC   C1A45987  40.757  44.659   6.464
 3522POPC   D2A45988  40.763  44.621   6.764
 3522POPC   C3A45989  40.756  44.645   7.064
 3522POPC   C4A45990  40.794  44.688   7.364
 3522POPC   C1B45991  40.883  44.409   6.464
 3522POPC   C2B45992  40.880  44.396   6.764
 3522POPC   C3B45993  40.950  44.425   7.064
 3522POPC   C4B45994  40.890  44.398   7.364
 3523POPC   NC345995  38.491   4.284   5.564
 3523POPC   PO445996  38.466   4.283   5.864
 3523POPC   GL145997  38.444   4.366   6.164
 3523POPC   GL245998  38.544   4.259   6.164
 3523POPC   C1A45999  38.440   4.332   6.464
 3523POPC   D2A46000  38.490   4.292   6.764
 3523POPC   C3A46001  38.416   4.289   7.064
 3523POPC   C4A46002  38.432   4.296   7.364
 3523POPC   C1B46003  38.679   4.177   6.464
 3523POPC   C2B46004  38.679   4.179   6.764
 3523POPC   C3B46005  38.633   4.153   7.064
 3523POPC   C4B46006  38.658   4.118   7.364
 3524POPC   NC346007  44.710  27.556   5.564
 3524POPC   PO446008  44.622  27.612   5.864
 3524POPC   GL146009  44.666  27.632   6.164
 3524POPC   GL246010  44.819  27.584   6.164
 3524POPC   C1A46011  44.660  27.621   6.464
 3524POPC   D2A46012  44.704  27.636   6.764
 3524POPC   C3A46013  44.664  27.591   7.064
 3524POPC   C4A46014  44.701  27.634   7.364
 3524POPC   C1B46015  44.884  27.611   6.464
 3524POPC   C2B46016  44.911  27.637   6.764
 3524POPC   C3B46017  44.958  27.599   7.064
 3524POPC   C4B46018  44.954  27.585   7.364
 3525POPC   NC346019  26.812  25.221   5.564
 3525POPC   PO446020  26.781  25.284   5.864
 3525POPC   GL146021  26.839  25.314   6.164
 3525POPC   GL246022  26.919  25.290   6.164
 3525POPC   C1A46023  26.833  25.281   6.464
 3525POPC   D2A46024  26.853  25.268   6.764
 3525POPC   C3A46025  26.781  25.273   7.064
 3525POPC   C4A46026  26.777  25.241   7.364
 3525POPC   C1B46027  27.073  25.286   6.464
 3525POPC   C2B46028  27.114  25.285   6.764
 3525POPC   C3B46029  27.062  25.253   7.064
 3525POPC   C4B46030  27.089  25.285   7.364
 3526POPC   NC346031   7.377  40.778   5.564
 3526POPC   PO446032   7.465  40.752   5.864
 3526POPC   GL146033   7.434  40.739   6.164
 3526POPC   GL246034   7.460  40.905   6.164
 3526POPC   C1A46035   7.447  40.761   6.464
 3526POPC   D2A46036   7.412  40.828   6.764
 3526POPC   C3A46037   7.373  40.801   7.064
 3526POPC   C4A46038   7.457  40.763   7.364
 3526POPC   C1B46039   7.499  41.052   6.464
 3526POPC   C2B46040   7.478  41.051   6.764
 3526POPC   C3B46041   7.500  40.977   7.064
 3526POPC   C4B46042   7.499  41.058   7.364
 3527POPC   NC346043  22.908  27.594   5.564
 3527POPC   PO446044  22.934  27.600   5.864
 3527POPC   GL146045  22.970  27.565   6.164
 3527POPC   GL246046  22.961  27.498   6.164
 3527POPC   C1A46047  22.979  27.598   6.464
 3527POPC   D2A46048  22.902  27.632   6.764
 3527POPC   C3A46049  22.908  27.561   7.064
 3527POPC   C4A46050  22.979  27.593   7.364
 3527POPC   C1B46051  23.047  27.314   6.464
 3527POPC   C2B46052  22.997  27.322   6.764
 3527POPC   C3B46053  22.967  27.400   7.064
 3527POPC   C4B46054  23.028  27.374   7.364
 3528POPC   NC346055  36.091  31.511   5.564
 3528POPC   PO446056  36.157  31.457   5.864
 3528POPC   GL146057  36.150  31.427   6.164
 3528POPC   GL246058  36.053  31.382   6.164
 3528POPC   C1A46059  36.129  31.511   6.464
 3528POPC   D2A46060  36.103  31.470   6.764
 3528POPC   C3A46061  36.119  31.504   7.064
 3528POPC   C4A46062  36.128  31.453   7.364
 3528POPC   C1B46063  35.953  31.298   6.464
 3528POPC   C2B46064  35.884  31.291   6.764
 3528POPC   C3B46065  35.883  31.304   7.064
 3528POPC   C4B46066  35.968  31.365   7.364
 3529POPC   NC346067  27.599  11.330   5.564
 3529POPC   PO446068  27.601  11.300   5.864
 3529POPC   GL146069  27.643  11.321   6.164
 3529POPC   GL246070  27.582  11.401   6.164
 3529POPC   C1A46071  27.636  11.332   6.464
 3529POPC   D2A46072  27.626  11.264   6.764
 3529POPC   C3A46073  27.544  11.311   7.064
 3529POPC   C4A46074  27.581  11.291   7.364
 3529POPC   C1B46075  27.463  11.562   6.464
 3529POPC   C2B46076  27.493  11.484   6.764
 3529POPC   C3B46077  27.507  11.532   7.064
 3529POPC   C4B46078  27.463  11.561   7.364
 3530POPC   NC346079  26.039  26.803   5.564
 3530POPC   PO446080  26.040  26.791   5.864
 3530POPC   GL146081  26.079  26.792   6.164
 3530POPC   GL246082  26.144  26.785   6.164
 3530POPC   C1A46083  26.086  26.816   6.464
 3530POPC   D2A46084  26.029  26.809   6.764
 3530POPC   C3A46085  26.068  26.799   7.064
 3530POPC   C4A46086  26.002  26.822   7.364
 3530POPC   C1B46087  26.287  26.643   6.464
 3530POPC   C2B46088  26.230  26.651   6.764
 3530POPC   C3B46089  26.266  26.729   7.064
 3530POPC   C4B46090  26.209  26.658   7.364
 3531POPC   NC346091  15.193  25.216   5.564
 3531POPC   PO446092  15.154  25.239   5.864
 3531POPC   GL146093  15.195  25.278   6.164
 3531POPC   GL246094  15.113  25.160   6.164
 3531POPC   C1A46095  15.133  25.247   6.464
 3531POPC   D2A46096  15.196  25.216   6.764
 3531POPC   C3A46097  15.162  25.231   7.064
 3531POPC   C4A46098  15.182  25.277   7.364
 3531POPC   C1B46099  14.947  25.112   6.464
 3531POPC   C2B46100  14.933  25.182   6.764
 3531POPC   C3B46101  14.928  25.178   7.064
 3531POPC   C4B46102  14.999  25.185   7.364
 3532POPC   NC346103  30.690  22.922   5.564
 3532POPC   PO446104  30.744  22.920   5.864
 3532POPC   GL146105  30.671  22.895   6.164
 3532POPC   GL246106  30.830  22.983   6.164
 3532POPC   C1A46107  30.712  22.963   6.464
 3532POPC   D2A46108  30.676  22.912   6.764
 3532POPC   C3A46109  30.687  22.952   7.064
 3532POPC   C4A46110  30.688  22.906   7.364
 3532POPC   C1B46111  30.882  23.125   6.464
 3532POPC   C2B46112  30.846  23.056   6.764
 3532POPC   C3B46113  30.873  23.050   7.064
 3532POPC   C4B46114  30.866  23.130   7.364
 3533POPC   NC346115   6.683  34.564   5.564
 3533POPC   PO446116   6.653  34.578   5.864
 3533POPC   GL146117   6.649  34.558   6.164
 3533POPC   GL246118   6.651  34.750   6.164
 3533POPC   C1A46119   6.599  34.612   6.464
 3533POPC   D2A46120   6.644  34.622   6.764
 3533POPC   C3A46121   6.630  34.569   7.064
 3533POPC   C4A46122   6.659  34.557   7.364
 3533POPC   C1B46123   6.672  34.801   6.464
 3533POPC   C2B46124   6.636  34.787   6.764
 3533POPC   C3B46125   6.669  34.839   7.064
 3533POPC   C4B46126   6.655  34.781   7.364
 3534POPC   NC346127  36.104  39.247   5.564
 3534POPC   PO446128  36.139  39.252   5.864
 3534POPC   GL146129  36.127  39.212   6.164
 3534POPC   GL246130  36.135  39.351   6.164
 3534POPC   C1A46131  36.137  39.249   6.464
 3534POPC   D2A46132  36.176  39.247   6.764
 3534POPC   C3A46133  36.116  39.247   7.064
 3534POPC   C4A46134  36.129  39.228   7.364
 3534POPC   C1B46135  36.085  39.493   6.464
 3534POPC   C2B46136  36.014  39.487   6.764
 3534POPC   C3B46137  36.074  39.427   7.064
 3534POPC   C4B46138  36.046  39.482   7.364
 3535POPC   NC346139   5.043  23.737   5.564
 3535POPC   PO446140   5.047  23.702   5.864
 3535POPC   GL146141   5.093  23.749   6.164
 3535POPC   GL246142   5.030  23.763   6.164
 3535POPC   C1A46143   5.117  23.731   6.464
 3535POPC   D2A46144   5.113  23.723   6.764
 3535POPC   C3A46145   5.107  23.704   7.064
 3535POPC   C4A46146   5.115  23.722   7.364
 3535POPC   C1B46147   4.869  23.792   6.464
 3535POPC   C2B46148   4.853  23.824   6.764
 3535POPC   C3B46149   4.846  23.792   7.064
 3535POPC   C4B46150   4.834  23.838   7.364
 3536POPC   NC346151  28.359   1.958   5.564
 3536POPC   PO446152  28.353   2.021   5.864
 3536POPC   GL146153  28.333   1.964   6.164
 3536POPC   GL246154  28.232   2.055   6.164
 3536POPC   C1A46155  28.367   1.949   6.464
 3536POPC   D2A46156  28.341   1.970   6.764
 3536POPC   C3A46157  28.356   1.990   7.064
 3536POPC   C4A46158  28.328   2.026   7.364
 3536POPC   C1B46159  28.153   2.118   6.464
 3536POPC   C2B46160  28.123   2.164   6.764
 3536POPC   C3B46161  28.207   2.085   7.064
 3536POPC   C4B46162  28.199   2.107   7.364
 3537POPC   NC346163   5.052  43.109   5.564
 3537POPC   PO446164   5.139  43.152   5.864
 3537POPC   GL146165   5.104  43.153   6.164
 3537POPC   GL246166   5.199  43.089   6.164
 3537POPC   C1A46167   5.139  43.139   6.464
 3537POPC   D2A46168   5.109  43.157   6.764
 3537POPC   C3A46169   5.095  43.158   7.064
 3537POPC   C4A46170   5.054  43.157   7.364
 3537POPC   C1B46171   5.328  43.111   6.464
 3537POPC   C2B46172   5.367  43.123   6.764
 3537POPC   C3B46173   5.350  43.104   7.064
 3537POPC   C4B46174   5.386  43.133   7.364
 3538POPC   NC346175  29.902  44.676   5.564
 3538POPC   PO446176  29.875  44.672   5.864
 3538POPC   GL146177  29.901  44.674   6.164
 3538POPC   GL246178  30.085  44.657   6.164
 3538POPC   C1A46179  29.951  44.645   6.464
 3538POPC   D2A46180  29.904  44.689   6.764
 3538POPC   C3A46181  29.889  44.685   7.064
 3538POPC   C4A46182  29.899  44.679   7.364
 3538POPC   C1B46183  30.143  44.547   6.464
 3538POPC   C2B46184  30.174  44.598   6.764
 3538POPC   C3B46185  30.127  44.566   7.064
 3538POPC   C4B46186  30.153  44.542   7.364
 3539POPC   NC346187  42.289   6.611   5.564
 3539POPC   PO446188  42.357   6.648   5.864
 3539POPC   GL146189  42.297   6.644   6.164
 3539POPC   GL246190  42.160   6.636   6.164
 3539POPC   C1A46191  42.341   6.681   6.464
 3539POPC   D2A46192  42.357   6.659   6.764
 3539POPC   C3A46193  42.366   6.634   7.064
 3539POPC   C4A46194  42.382   6.620   7.364
 3539POPC   C1B46195  42.096   6.587   6.464
 3539POPC   C2B46196  42.072   6.659   6.764
 3539POPC   C3B46197  42.096   6.649   7.064
 3539POPC   C4B46198  42.087   6.584   7.364
 3540POPC   NC346199   7.438  29.930   5.564
 3540POPC   PO446200   7.435  29.925   5.864
 3540POPC   GL146201   7.471  29.873   6.164
 3540POPC   GL246202   7.415  30.083   6.164
 3540POPC   C1A46203   7.454  29.961   6.464
 3540POPC   D2A46204   7.410  29.932   6.764
 3540POPC   C3A46205   7.439  29.937   7.064
 3540POPC   C4A46206   7.385  29.894   7.364
 3540POPC   C1B46207   7.501  30.143   6.464
 3540POPC   C2B46208   7.514  30.151   6.764
 3540POPC   C3B46209   7.506  30.114   7.064
 3540POPC   C4B46210   7.515  30.162   7.364
 3541POPC   NC346211   1.249  15.940   5.564
 3541POPC   PO446212   1.168  15.952   5.864
 3541POPC   GL146213   1.213  15.929   6.164
 3541POPC   GL246214   1.335  15.959   6.164
 3541POPC   C1A46215   1.196  15.971   6.464
 3541POPC   D2A46216   1.242  15.907   6.764
 3541POPC   C3A46217   1.219  15.969   7.064
 3541POPC   C4A46218   1.248  15.926   7.364
 3541POPC   C1B46219   1.484  15.934   6.464
 3541POPC   C2B46220   1.492  15.955   6.764
 3541POPC   C3B46221   1.472  15.944   7.064
 3541POPC   C4B46222   1.462  16.006   7.364
 3542POPC   NC346223  23.744  22.952   5.564
 3542POPC   PO446224  23.722  22.931   5.864
 3542POPC   GL146225  23.720  22.987   6.164
 3542POPC   GL246226  23.662  22.791   6.164
 3542POPC   C1A46227  23.748  22.912   6.464
 3542POPC   D2A46228  23.752  22.894   6.764
 3542POPC   C3A46229  23.713  22.973   7.064
 3542POPC   C4A46230  23.708  22.916   7.364
 3542POPC   C1B46231  23.689  22.642   6.464
 3542POPC   C2B46232  23.730  22.738   6.764
 3542POPC   C3B46233  23.701  22.685   7.064
 3542POPC   C4B46234  23.733  22.731   7.364
 3543POPC   NC346235  41.528  36.922   5.564
 3543POPC   PO446236  41.543  36.875   5.864
 3543POPC   GL146237  41.528  36.904   6.164
 3543POPC   GL246238  41.592  36.741   6.164
 3543POPC   C1A46239  41.569  36.949   6.464
 3543POPC   D2A46240  41.577  36.897   6.764
 3543POPC   C3A46241  41.568  36.895   7.064
 3543POPC   C4A46242  41.607  36.917   7.364
 3543POPC   C1B46243  41.585  36.669   6.464
 3543POPC   C2B46244  41.556  36.662   6.764
 3543POPC   C3B46245  41.568  36.698   7.064
 3543POPC   C4B46246  41.566  36.637   7.364
 3544POPC   NC346247  43.864  19.834   5.564
 3544POPC   PO446248  43.931  19.813   5.864
 3544POPC   GL146249  43.852  19.823   6.164
 3544POPC   GL246250  43.881  19.756   6.164
 3544POPC   C1A46251  43.923  19.820   6.464
 3544POPC   D2A46252  43.898  19.787   6.764
 3544POPC   C3A46253  43.915  19.808   7.064
 3544POPC   C4A46254  43.919  19.845   7.364
 3544POPC   C1B46255  43.910  19.583   6.464
 3544POPC   C2B46256  43.882  19.622   6.764
 3544POPC   C3B46257  43.895  19.620   7.064
 3544POPC   C4B46258  43.919  19.587   7.364
 3545POPC   NC346259  40.798  14.383   5.564
 3545POPC   PO446260  40.814  14.437   5.864
 3545POPC   GL146261  40.738  14.373   6.164
 3545POPC   GL246262  40.866  14.516   6.164
 3545POPC   C1A46263  40.821  14.443   6.464
 3545POPC   D2A46264  40.795  14.391   6.764
 3545POPC   C3A46265  40.743  14.398   7.064
 3545POPC   C4A46266  40.795  14.394   7.364
 3545POPC   C1B46267  40.814  14.622   6.464
 3545POPC   C2B46268  40.883  14.602   6.764
 3545POPC   C3B46269  40.816  14.655   7.064
 3545POPC   C4B46270  40.840  14.597   7.364
 3546POPC   NC346271   1.948  39.225   5.564
 3546POPC   PO446272   2.038  39.203   5.864
 3546POPC   GL146273   1.952  39.200   6.164
 3546POPC   GL246274   2.073  39.285   6.164
 3546POPC   C1A46275   2.011  39.247   6.464
 3546POPC   D2A46276   1.940  39.241   6.764
 3546POPC   C3A46277   1.943  39.280   7.064
 3546POPC   C4A46278   2.013  39.202   7.364
 3546POPC   C1B46279   2.255  39.366   6.464
 3546POPC   C2B46280   2.206  39.323   6.764
 3546POPC   C3B46281   2.241  39.375   7.064
 3546POPC   C4B46282   2.256  39.324   7.364
 3547POPC   NC346283  26.798   1.253   5.564
 3547POPC   PO446284  26.820   1.255   5.864
 3547POPC   GL146285  26.838   1.226   6.164
 3547POPC   GL246286  26.672   1.243   6.164
 3547POPC   C1A46287  26.801   1.232   6.464
 3547POPC   D2A46288  26.819   1.260   6.764
 3547POPC   C3A46289  26.835   1.232   7.064
 3547POPC   C4A46290  26.780   1.184   7.364
 3547POPC   C1B46291  26.529   1.221   6.464
 3547POPC   C2B46292  26.549   1.219   6.764
 3547POPC   C3B46293  26.607   1.204   7.064
 3547POPC   C4B46294  26.522   1.209   7.364
 3548POPC   NC346295   7.412   5.105   5.564
 3548POPC   PO446296   7.401   5.097   5.864
 3548POPC   GL146297   7.376   5.054   6.164
 3548POPC   GL246298   7.440   5.022   6.164
 3548POPC   C1A46299   7.442   5.118   6.464
 3548POPC   D2A46300   7.372   5.104   6.764
 3548POPC   C3A46301   7.454   5.078   7.064
 3548POPC   C4A46302   7.416   5.052   7.364
 3548POPC   C1B46303   7.552   4.917   6.464
 3548POPC   C2B46304   7.576   4.867   6.764
 3548POPC   C3B46305   7.556   4.848   7.064
 3548POPC   C4B46306   7.570   4.903   7.364
 3549POPC   NC346307  21.405  15.985   5.564
 3549POPC   PO446308  21.385  15.990   5.864
 3549POPC   GL146309  21.393  15.972   6.164
 3549POPC   GL246310  21.440  15.845   6.164
 3549POPC   C1A46311  21.357  15.931   6.464
 3549POPC   D2A46312  21.427  15.990   6.764
 3549POPC   C3A46313  21.340  15.957   7.064
 3549POPC   C4A46314  21.356  15.964   7.364
 3549POPC   C1B46315  21.524  15.745   6.464
 3549POPC   C2B46316  21.498  15.727   6.764
 3549POPC   C3B46317  21.544  15.732   7.064
 3549POPC   C4B46318  21.509  15.792   7.364
 3550POPC   NC346319  33.780   3.570   5.564
 3550POPC   PO446320  33.755   3.576   5.864
 3550POPC   GL146321  33.844   3.584   6.164
 3550POPC   GL246322  33.921   3.673   6.164
 3550POPC   C1A46323  33.826   3.576   6.464
 3550POPC   D2A46324  33.781   3.493   6.764
 3550POPC   C3A46325  33.845   3.569   7.064
 3550POPC   C4A46326  33.825   3.551   7.364
 3550POPC   C1B46327  33.932   3.742   6.464
 3550POPC   C2B46328  33.994   3.750   6.764
 3550POPC   C3B46329  33.971   3.715   7.064
 3550POPC   C4B46330  33.972   3.706   7.364
 3551POPC   NC346331   2.809  36.884   5.564
 3551POPC   PO446332   2.781  36.908   5.864
 3551POPC   GL146333   2.764  36.856   6.164
 3551POPC   GL246334   2.756  37.063   6.164
 3551POPC   C1A46335   2.737  36.864   6.464
 3551POPC   D2A46336   2.721  36.908   6.764
 3551POPC   C3A46337   2.779  36.877   7.064
 3551POPC   C4A46338   2.813  36.914   7.364
 3551POPC   C1B46339   2.683  37.173   6.464
 3551POPC   C2B46340   2.761  37.190   6.764
 3551POPC   C3B46341   2.671  37.142   7.064
 3551POPC   C4B46342   2.724  37.160   7.364
 3552POPC   NC346343  17.556  36.945   5.564
 3552POPC   PO446344  17.504  36.942   5.864
 3552POPC   GL146345  17.484  36.920   6.164
 3552POPC   GL246346  17.477  37.050   6.164
 3552POPC   C1A46347  17.474  36.950   6.464
 3552POPC   D2A46348  17.459  36.915   6.764
 3552POPC   C3A46349  17.530  36.953   7.064
 3552POPC   C4A46350  17.463  36.914   7.364
 3552POPC   C1B46351  17.444  37.094   6.464
 3552POPC   C2B46352  17.397  37.127   6.764
 3552POPC   C3B46353  17.377  37.118   7.064
 3552POPC   C4B46354  17.471  37.161   7.364
 3553POPC   NC346355  31.437   8.961   5.564
 3553POPC   PO446356  31.520   9.005   5.864
 3553POPC   GL146357  31.486   8.999   6.164
 3553POPC   GL246358  31.624   8.901   6.164
 3553POPC   C1A46359  31.472   8.986   6.464
 3553POPC   D2A46360  31.514   8.936   6.764
 3553POPC   C3A46361  31.455   8.994   7.064
 3553POPC   C4A46362  31.444   8.976   7.364
 3553POPC   C1B46363  31.734   8.884   6.464
 3553POPC   C2B46364  31.713   8.910   6.764
 3553POPC   C3B46365  31.740   8.924   7.064
 3553POPC   C4B46366  31.672   8.917   7.364
 3554POPC   NC346367   8.180  11.285   5.564
 3554POPC   PO446368   8.245  11.254   5.864
 3554POPC   GL146369   8.234  11.335   6.164
 3554POPC   GL246370   8.148  11.383   6.164
 3554POPC   C1A46371   8.174  11.261   6.464
 3554POPC   D2A46372   8.203  11.264   6.764
 3554POPC   C3A46373   8.211  11.318   7.064
 3554POPC   C4A46374   8.220  11.295   7.364
 3554POPC   C1B46375   8.117  11.533   6.464
 3554POPC   C2B46376   8.154  11.537   6.764
 3554POPC   C3B46377   8.162  11.487   7.064
 3554POPC   C4B46378   8.112  11.505   7.364
 3555POPC   NC346379   1.169   3.535   5.564
 3555POPC   PO446380   1.188   3.589   5.864
 3555POPC   GL146381   1.167   3.523   6.164
 3555POPC   GL246382   1.139   3.490   6.164
 3555POPC   C1A46383   1.182   3.548   6.464
 3555POPC   D2A46384   1.199   3.511   6.764
 3555POPC   C3A46385   1.196   3.565   7.064
 3555POPC   C4A46386   1.228   3.567   7.364
 3555POPC   C1B46387   0.995   3.377   6.464
 3555POPC   C2B46388   1.031   3.396   6.764
 3555POPC   C3B46389   1.018   3.360   7.064
 3555POPC   C4B46390   1.024   3.366   7.364
 3556POPC   NC346391   8.227  19.787   5.564
 3556POPC   PO446392   8.209  19.818   5.864
 3556POPC   GL146393   8.171  19.855   6.164
 3556POPC   GL246394   8.134  19.745   6.164
 3556POPC   C1A46395   8.179  19.881   6.464
 3556POPC   D2A46396   8.210  19.828   6.764
 3556POPC   C3A46397   8.183  19.785   7.064
 3556POPC   C4A46398   8.210  19.866   7.364
 3556POPC   C1B46399   8.070  19.614   6.464
 3556POPC   C2B46400   7.998  19.659   6.764
 3556POPC   C3B46401   8.029  19.597   7.064
 3556POPC   C4B46402   8.006  19.638   7.364
 3557POPC   NC346403  34.568   4.289   5.564
 3557POPC   PO446404  34.552   4.354   5.864
 3557POPC   GL146405  34.581   4.290   6.164
 3557POPC   GL246406  34.515   4.406   6.164
 3557POPC   C1A46407  34.568   4.333   6.464
 3557POPC   D2A46408  34.566   4.292   6.764
 3557POPC   C3A46409  34.590   4.312   7.064
 3557POPC   C4A46410  34.546   4.268   7.364
 3557POPC   C1B46411  34.583   4.550   6.464
 3557POPC   C2B46412  34.543   4.606   6.764
 3557POPC   C3B46413  34.552   4.613   7.064
 3557POPC   C4B46414  34.513   4.529   7.364
 3558POPC   NC346415  36.860  20.567   5.564
 3558POPC   PO446416  36.939  20.653   5.864
 3558POPC   GL146417  36.858  20.562   6.164
 3558POPC   GL246418  36.929  20.456   6.164
 3558POPC   C1A46419  36.879  20.610   6.464
 3558POPC   D2A46420  36.953  20.627   6.764
 3558POPC   C3A46421  36.927  20.567   7.064
 3558POPC   C4A46422  36.880  20.602   7.364
 3558POPC   C1B46423  36.991  20.342   6.464
 3558POPC   C2B46424  36.967  20.363   6.764
 3558POPC   C3B46425  37.029  20.400   7.064
 3558POPC   C4B46426  37.030  20.405   7.364
 3559POPC   NC346427  29.101  21.423   5.564
 3559POPC   PO446428  29.112  21.404   5.864
 3559POPC   GL146429  29.175  21.402   6.164
 3559POPC   GL246430  29.243  21.335   6.164
 3559POPC   C1A46431  29.184  21.396   6.464
 3559POPC   D2A46432  29.154  21.419   6.764
 3559POPC   C3A46433  29.095  21.373   7.064
 3559POPC   C4A46434  29.186  21.431   7.364
 3559POPC   C1B46435  29.371  21.224   6.464
 3559POPC   C2B46436  29.376  21.262   6.764
 3559POPC   C3B46437  29.301  21.248   7.064
 3559POPC   C4B46438  29.334  21.244   7.364
 3560POPC   NC346439  42.317  19.035   5.564
 3560POPC   PO446440  42.374  19.016   5.864
 3560POPC   GL146441  42.348  19.107   6.164
 3560POPC   GL246442  42.449  19.087   6.164
 3560POPC   C1A46443  42.342  19.096   6.464
 3560POPC   D2A46444  42.335  19.064   6.764
 3560POPC   C3A46445  42.285  19.078   7.064
 3560POPC   C4A46446  42.323  19.095   7.364
 3560POPC   C1B46447  42.591  19.130   6.464
 3560POPC   C2B46448  42.582  19.103   6.764
 3560POPC   C3B46449  42.562  19.093   7.064
 3560POPC   C4B46450  42.628  19.041   7.364
 3561POPC   NC346451  39.214  11.281   5.564
 3561POPC   PO446452  39.262  11.311   5.864
 3561POPC   GL146453  39.212  11.270   6.164
 3561POPC   GL246454  39.280  11.401   6.164
 3561POPC   C1A46455  39.240  11.343   6.464
 3561POPC   D2A46456  39.209  11.335   6.764
 3561POPC   C3A46457  39.239  11.337   7.064
 3561POPC   C4A46458  39.202  11.255   7.364
 3561POPC   C1B46459  39.266  11.521   6.464
 3561POPC   C2B46460  39.310  11.571   6.764
 3561POPC   C3B46461  39.322  11.530   7.064
 3561POPC   C4B46462  39.310  11.582   7.364
 3562POPC   NC346463  36.102  42.294   5.564
 3562POPC   PO446464  36.137  42.287   5.864
 3562POPC   GL146465  36.161  42.361   6.164
 3562POPC   GL246466  35.983  42.348   6.164
 3562POPC   C1A46467  36.148  42.351   6.464
 3562POPC   D2A46468  36.137  42.341   6.764
 3562POPC   C3A46469  36.160  42.378   7.064
 3562POPC   C4A46470  36.173  42.311   7.364
 3562POPC   C1B46471  35.920  42.413   6.464
 3562POPC   C2B46472  35.908  42.471   6.764
 3562POPC   C3B46473  35.857  42.476   7.064
 3562POPC   C4B46474  35.926  42.440   7.364
 3563POPC   NC346475  21.364  36.925   5.564
 3563POPC   PO446476  21.379  36.945   5.864
 3563POPC   GL146477  21.394  36.926   6.164
 3563POPC   GL246478  21.373  36.993   6.164
 3563POPC   C1A46479  21.402  36.921   6.464
 3563POPC   D2A46480  21.340  36.907   6.764
 3563POPC   C3A46481  21.371  36.934   7.064
 3563POPC   C4A46482  21.391  36.880   7.364
 3563POPC   C1B46483  21.426  37.136   6.464
 3563POPC   C2B46484  21.466  37.184   6.764
 3563POPC   C3B46485  21.442  37.181   7.064
 3563POPC   C4B46486  21.460  37.155   7.364
 3564POPC   NC346487  25.285  24.467   5.564
 3564POPC   PO446488  25.299  24.452   5.864
 3564POPC   GL146489  25.234  24.516   6.164
 3564POPC   GL246490  25.166  24.396   6.164
 3564POPC   C1A46491  25.266  24.482   6.464
 3564POPC   D2A46492  25.250  24.521   6.764
 3564POPC   C3A46493  25.302  24.449   7.064
 3564POPC   C4A46494  25.253  24.507   7.364
 3564POPC   C1B46495  25.118  24.244   6.464
 3564POPC   C2B46496  25.073  24.333   6.764
 3564POPC   C3B46497  25.134  24.250   7.064
 3564POPC   C4B46498  25.089  24.255   7.364
 3565POPC   NC346499  13.655  29.105   5.564
 3565POPC   PO446500  13.661  29.189   5.864
 3565POPC   GL146501  13.634  29.100   6.164
 3565POPC   GL246502  13.678  29.246   6.164
 3565POPC   C1A46503  13.628  29.155   6.464
 3565POPC   D2A46504  13.606  29.132   6.764
 3565POPC   C3A46505  13.636  29.101   7.064
 3565POPC   C4A46506  13.589  29.186   7.364
 3565POPC   C1B46507  13.669  29.418   6.464
 3565POPC   C2B46508  13.612  29.365   6.764
 3565POPC   C3B46509  13.619  29.347   7.064
 3565POPC   C4B46510  13.694  29.355   7.364
 3566POPC   NC346511   6.686  19.860   5.564
 3566POPC   PO446512   6.689  19.826   5.864
 3566POPC   GL146513   6.657  19.792   6.164
 3566POPC   GL246514   6.718  19.981   6.164
 3566POPC   C1A46515   6.656  19.883   6.464
 3566POPC   D2A46516   6.670  19.786   6.764
 3566POPC   C3A46517   6.619  19.833   7.064
 3566POPC   C4A46518   6.632  19.875   7.364
 3566POPC   C1B46519   6.796  20.003   6.464
 3566POPC   C2B46520   6.820  20.042   6.764
 3566POPC   C3B46521   6.751  20.070   7.064
 3566POPC   C4B46522   6.824  20.013   7.364
 3567POPC   NC346523   0.482   1.179   5.564
 3567POPC   PO446524   0.479   1.176   5.864
 3567POPC   GL146525   0.440   1.207   6.164
 3567POPC   GL246526   0.500   1.327   6.164
 3567POPC   C1A46527   0.410   1.218   6.464
 3567POPC   D2A46528   0.434   1.179   6.764
 3567POPC   C3A46529   0.445   1.235   7.064
 3567POPC   C4A46530   0.390   1.248   7.364
 3567POPC   C1B46531   0.560   1.459   6.464
 3567POPC   C2B46532   0.559   1.427   6.764
 3567POPC   C3B46533   0.505   1.433   7.064
 3567POPC   C4B46534   0.527   1.483   7.364
 3568POPC   NC346535  44.670   5.831   5.564
 3568POPC   PO446536  44.708   5.888   5.864
 3568POPC   GL146537  44.710   5.839   6.164
 3568POPC   GL246538  44.788   5.833   6.164
 3568POPC   C1A46539  44.634   5.869   6.464
 3568POPC   D2A46540  44.691   5.838   6.764
 3568POPC   C3A46541  44.620   5.833   7.064
 3568POPC   C4A46542  44.674   5.899   7.364
 3568POPC   C1B46543  44.928   5.813   6.464
 3568POPC   C2B46544  44.885   5.817   6.764
 3568POPC   C3B46545  44.941   5.865   7.064
 3568POPC   C4B46546  44.908   5.829   7.364
 3569POPC   NC346547  15.212  19.086   5.564
 3569POPC   PO446548  15.212  19.104   5.864
 3569POPC   GL146549  15.197  19.107   6.164
 3569POPC   GL246550  15.070  18.979   6.164
 3569POPC   C1A46551  15.198  19.019   6.464
 3569POPC   D2A46552  15.154  19.076   6.764
 3569POPC   C3A46553  15.227  19.082   7.064
 3569POPC   C4A46554  15.161  19.066   7.364
 3569POPC   C1B46555  14.906  18.929   6.464
 3569POPC   C2B46556  14.942  18.995   6.764
 3569POPC   C3B46557  14.933  18.965   7.064
 3569POPC   C4B46558  14.956  18.926   7.364
 3570POPC   NC346559   2.811  13.623   5.564
 3570POPC   PO446560   2.757  13.588   5.864
 3570POPC   GL146561   2.799  13.626   6.164
 3570POPC   GL246562   2.681  13.782   6.164
 3570POPC   C1A46563   2.803  13.604   6.464
 3570POPC   D2A46564   2.779  13.616   6.764
 3570POPC   C3A46565   2.727  13.603   7.064
 3570POPC   C4A46566   2.759  13.646   7.364
 3570POPC   C1B46567   2.661  13.853   6.464
 3570POPC   C2B46568   2.613  13.811   6.764
 3570POPC   C3B46569   2.670  13.858   7.064
 3570POPC   C4B46570   2.612  13.821   7.364
 3571POPC   NC346571  43.140  41.554   5.564
 3571POPC   PO446572  43.140  41.599   5.864
 3571POPC   GL146573  43.101  41.587   6.164
 3571POPC   GL246574  43.176  41.423   6.164
 3571POPC   C1A46575  43.137  41.554   6.464
 3571POPC   D2A46576  43.118  41.562   6.764
 3571POPC   C3A46577  43.065  41.509   7.064
 3571POPC   C4A46578  43.081  41.600   7.364
 3571POPC   C1B46579  43.256  41.331   6.464
 3571POPC   C2B46580  43.242  41.359   6.764
 3571POPC   C3B46581  43.221  41.316   7.064
 3571POPC   C4B46582  43.263  41.308   7.364
 3572POPC   NC346583   2.783  22.911   5.564
 3572POPC   PO446584   2.722  22.891   5.864
 3572POPC   GL146585   2.764  22.912   6.164
 3572POPC   GL246586   2.814  22.900   6.164
 3572POPC   C1A46587   2.744  22.929   6.464
 3572POPC   D2A46588   2.731  22.952   6.764
 3572POPC   C3A46589   2.745  22.943   7.064
 3572POPC   C4A46590   2.783  22.940   7.364
 3572POPC   C1B46591   2.929  22.781   6.464
 3572POPC   C2B46592   2.990  22.802   6.764
 3572POPC   C3B46593   3.002  22.807   7.064
 3572POPC   C4B46594   2.909  22.803   7.364
 3573POPC   NC346595  23.711  39.201   5.564
 3573POPC   PO446596  23.691  39.244   5.864
 3573POPC   GL146597  23.751  39.274   6.164
 3573POPC   GL246598  23.701  39.384   6.164
 3573POPC   C1A46599  23.761  39.239   6.464
 3573POPC   D2A46600  23.729  39.241   6.764
 3573POPC   C3A46601  23.724  39.269   7.064
 3573POPC   C4A46602  23.685  39.204   7.364
 3573POPC   C1B46603  23.731  39.441   6.464
 3573POPC   C2B46604  23.744  39.514   6.764
 3573POPC   C3B46605  23.791  39.465   7.064
 3573POPC   C4B46606  23.812  39.477   7.364
 3574POPC   NC346607  17.470  12.889   5.564
 3574POPC   PO446608  17.486  12.879   5.864
 3574POPC   GL146609  17.542  12.870   6.164
 3574POPC   GL246610  17.594  12.809   6.164
 3574POPC   C1A46611  17.524  12.874   6.464
 3574POPC   D2A46612  17.502  12.855   6.764
 3574POPC   C3A46613  17.544  12.892   7.064
 3574POPC   C4A46614  17.514  12.805   7.364
 3574POPC   C1B46615  17.749  12.799   6.464
 3574POPC   C2B46616  17.764  12.808   6.764
 3574POPC   C3B46617  17.755  12.846   7.064
 3574POPC   C4B46618  17.749  12.781   7.364
 3575POPC   NC346619  33.036  17.526   5.564
 3575POPC   PO446620  32.979  17.534   5.864
 3575POPC   GL146621  33.038  17.536   6.164
 3575POPC   GL246622  32.979  17.430   6.164
 3575POPC   C1A46623  33.041  17.534   6.464
 3575POPC   D2A46624  33.008  17.501   6.764
 3575POPC   C3A46625  33.063  17.487   7.064
 3575POPC   C4A46626  33.052  17.545   7.364
 3575POPC   C1B46627  33.006  17.267   6.464
 3575POPC   C2B46628  32.971  17.279   6.764
 3575POPC   C3B46629  33.050  17.271   7.064
 3575POPC   C4B46630  33.032  17.292   7.364
 3576POPC   NC346631  29.889  15.965   5.564
 3576POPC   PO446632  29.945  15.915   5.864
 3576POPC   GL146633  29.890  15.999   6.164
 3576POPC   GL246634  30.056  15.973   6.164
 3576POPC   C1A46635  29.901  15.925   6.464
 3576POPC   D2A46636  29.953  15.975   6.764
 3576POPC   C3A46637  29.946  15.955   7.064
 3576POPC   C4A46638  29.882  15.975   7.364
 3576POPC   C1B46639  30.197  16.016   6.464
 3576POPC   C2B46640  30.207  15.983   6.764
 3576POPC   C3B46641  30.208  15.980   7.064
 3576POPC   C4B46642  30.204  16.012   7.364
 3577POPC   NC346643   2.731  30.729   5.564
 3577POPC   PO446644   2.747  30.708   5.864
 3577POPC   GL146645   2.770  30.681   6.164
 3577POPC   GL246646   2.822  30.850   6.164
 3577POPC   C1A46647   2.738  30.742   6.464
 3577POPC   D2A46648   2.749  30.736   6.764
 3577POPC   C3A46649   2.749  30.657   7.064
 3577POPC   C4A46650   2.782  30.678   7.364
 3577POPC   C1B46651   2.844  30.913   6.464
 3577POPC   C2B46652   2.803  30.924   6.764
 3577POPC   C3B46653   2.851  30.932   7.064
 3577POPC   C4B46654   2.829  30.983   7.364
 3578POPC   NC346655  18.302  35.380   5.564
 3578POPC   PO446656  18.240  35.344   5.864
 3578POPC   GL146657  18.285  35.333   6.164
 3578POPC   GL246658  18.376  35.396   6.164
 3578POPC   C1A46659  18.290  35.329   6.464
 3578POPC   D2A46660  18.272  35.338   6.764
 3578POPC   C3A46661  18.255  35.401   7.064
 3578POPC   C4A46662  18.316  35.349   7.364
 3578POPC   C1B46663  18.509  35.472   6.464
 3578POPC   C2B46664  18.487  35.487   6.764
 3578POPC   C3B46665  18.528  35.446   7.064
 3578POPC   C4B46666  18.458  35.509   7.364
 3579POPC   NC346667  22.900  12.882   5.564
 3579POPC   PO446668  22.956  12.832   5.864
 3579POPC   GL146669  22.983  12.863   6.164
 3579POPC   GL246670  22.822  12.852   6.164
 3579POPC   C1A46671  22.968  12.830   6.464
 3579POPC   D2A46672  22.933  12.811   6.764
 3579POPC   C3A46673  22.979  12.873   7.064
 3579POPC   C4A46674  22.898  12.848   7.364
 3579POPC   C1B46675  22.731  12.861   6.464
 3579POPC   C2B46676  22.678  12.861   6.764
 3579POPC   C3B46677  22.718  12.853   7.064
 3579POPC   C4B46678  22.638  12.887   7.364
 3580POPC   NC346679  25.222  31.522   5.564
 3580POPC   PO446680  25.306  31.470   5.864
 3580POPC   GL146681  25.281  31.428   6.164
 3580POPC   GL246682  25.349  31.350   6.164
 3580POPC   C1A46683  25.278  31.475   6.464
 3580POPC   D2A46684  25.307  31.429   6.764
 3580POPC   C3A46685  25.239  31.500   7.064
 3580POPC   C4A46686  25.267  31.518   7.364
 3580POPC   C1B46687  25.384  31.220   6.464
 3580POPC   C2B46688  25.381  31.239   6.764
 3580POPC   C3B46689  25.356  31.287   7.064
 3580POPC   C4B46690  25.395  31.230   7.364
 3581POPC   NC346691  21.392  13.641   5.564
 3581POPC   PO446692  21.415  13.587   5.864
 3581POPC   GL146693  21.402  13.605   6.164
 3581POPC   GL246694  21.448  13.772   6.164
 3581POPC   C1A46695  21.341  13.667   6.464
 3581POPC   D2A46696  21.376  13.662   6.764
 3581POPC   C3A46697  21.435  13.588   7.064
 3581POPC   C4A46698  21.353  13.662   7.364
 3581POPC   C1B46699  21.461  13.863   6.464
 3581POPC   C2B46700  21.456  13.885   6.764
 3581POPC   C3B46701  21.445  13.885   7.064
 3581POPC   C4B46702  21.445  13.834   7.364
 3582POPC   NC346703  12.897   5.044   5.564
 3582POPC   PO446704  12.846   5.053   5.864
 3582POPC   GL146705  12.880   5.084   6.164
 3582POPC   GL246706  12.865   5.222   6.164
 3582POPC   C1A46707  12.869   5.075   6.464
 3582POPC   D2A46708  12.895   5.120   6.764
 3582POPC   C3A46709  12.825   5.064   7.064
 3582POPC   C4A46710  12.802   5.107   7.364
 3582POPC   C1B46711  12.885   5.354   6.464
 3582POPC   C2B46712  12.966   5.355   6.764
 3582POPC   C3B46713  12.970   5.374   7.064
 3582POPC   C4B46714  12.886   5.338   7.364
 3583POPC   NC346715  44.648  17.464   5.564
 3583POPC   PO446716  44.712  17.480   5.864
 3583POPC   GL146717  44.688  17.546   6.164
 3583POPC   GL246718  44.804  17.509   6.164
 3583POPC   C1A46719  44.636  17.476   6.464
 3583POPC   D2A46720  44.672  17.490   6.764
 3583POPC   C3A46721  44.702  17.462   7.064
 3583POPC   C4A46722  44.651  17.482   7.364
 3583POPC   C1B46723  44.917  17.486   6.464
 3583POPC   C2B46724  44.901  17.504   6.764
 3583POPC   C3B46725  44.933  17.551   7.064
 3583POPC   C4B46726  44.872  17.555   7.364
 3584POPC   NC346727  22.964  26.794   5.564
 3584POPC   PO446728  22.922  26.828   5.864
 3584POPC   GL146729  22.906  26.847   6.164
 3584POPC   GL246730  22.826  26.892   6.164
 3584POPC   C1A46731  22.945  26.811   6.464
 3584POPC   D2A46732  22.960  26.857   6.764
 3584POPC   C3A46733  22.954  26.829   7.064
 3584POPC   C4A46734  22.945  26.843   7.364
 3584POPC   C1B46735  22.726  26.971   6.464
 3584POPC   C2B46736  22.685  26.957   6.764
 3584POPC   C3B46737  22.706  26.955   7.064
 3584POPC   C4B46738  22.740  26.975   7.364
 3585POPC   NC346739  27.609  16.696   5.564
 3585POPC   PO446740  27.633  16.759   5.864
 3585POPC   GL146741  27.618  16.762   6.164
 3585POPC   GL246742  27.476  16.831   6.164
 3585POPC   C1A46743  27.611  16.690   6.464
 3585POPC   D2A46744  27.629  16.761   6.764
 3585POPC   C3A46745  27.639  16.752   7.064
 3585POPC   C4A46746  27.643  16.739   7.364
 3585POPC   C1B46747  27.432  16.854   6.464
 3585POPC   C2B46748  27.390  16.930   6.764
 3585POPC   C3B46749  27.410  16.936   7.064
 3585POPC   C4B46750  27.434  16.885   7.364
 3586POPC   NC346751  17.544  32.225   5.564
 3586POPC   PO446752  17.458  32.219   5.864
 3586POPC   GL146753  17.499  32.293   6.164
 3586POPC   GL246754  17.635  32.264   6.164
 3586POPC   C1A46755  17.497  32.263   6.464
 3586POPC   D2A46756  17.489  32.225   6.764
 3586POPC   C3A46757  17.497  32.252   7.064
 3586POPC   C4A46758  17.475  32.216   7.364
 3586POPC   C1B46759  17.745  32.340   6.464
 3586POPC   C2B46760  17.703  32.389   6.764
 3586POPC   C3B46761  17.691  32.401   7.064
 3586POPC   C4B46762  17.737  32.399   7.364
 3587POPC   NC346763   2.769  19.884   5.564
 3587POPC   PO446764   2.776  19.864   5.864
 3587POPC   GL146765   2.789  19.816   6.164
 3587POPC   GL246766   2.808  19.947   6.164
 3587POPC   C1A46767   2.744  19.801   6.464
 3587POPC   D2A46768   2.762  19.862   6.764
 3587POPC   C3A46769   2.769  19.834   7.064
 3587POPC   C4A46770   2.761  19.830   7.364
 3587POPC   C1B46771   2.859  20.054   6.464
 3587POPC   C2B46772   2.850  20.115   6.764
 3587POPC   C3B46773   2.820  20.048   7.064
 3587POPC   C4B46774   2.882  20.076   7.364
 3588POPC   NC346775  23.703  33.072   5.564
 3588POPC   PO446776  23.687  33.021   5.864
 3588POPC   GL146777  23.742  33.066   6.164
 3588POPC   GL246778  23.817  33.078   6.164
 3588POPC   C1A46779  23.679  33.046   6.464
 3588POPC   D2A46780  23.735  33.066   6.764
 3588POPC   C3A46781  23.746  33.029   7.064
 3588POPC   C4A46782  23.691  32.987   7.364
 3588POPC   C1B46783  23.885  33.175   6.464
 3588POPC   C2B46784  23.872  33.135   6.764
 3588POPC   C3B46785  23.949  33.167   7.064
 3588POPC   C4B46786  23.926  33.147   7.364
 3589POPC   NC346787  21.344   8.241   5.564
 3589POPC   PO446788  21.355   8.190   5.864
 3589POPC   GL146789  21.363   8.230   6.164
 3589POPC   GL246790  21.380   8.365   6.164
 3589POPC   C1A46791  21.373   8.155   6.464
 3589POPC   D2A46792  21.356   8.214   6.764
 3589POPC   C3A46793  21.424   8.191   7.064
 3589POPC   C4A46794  21.407   8.178   7.364
 3589POPC   C1B46795  21.472   8.436   6.464
 3589POPC   C2B46796  21.390   8.451   6.764
 3589POPC   C3B46797  21.452   8.462   7.064
 3589POPC   C4B46798  21.485   8.470   7.364
 3590POPC   NC346799  21.433  39.973   5.564
 3590POPC   PO446800  21.344  40.039   5.864
 3590POPC   GL146801  21.357  39.981   6.164
 3590POPC   GL246802  21.537  39.959   6.164
 3590POPC   C1A46803  21.390  39.963   6.464
 3590POPC   D2A46804  21.420  39.981   6.764
 3590POPC   C3A46805  21.387  39.971   7.064
 3590POPC   C4A46806  21.406  39.975   7.364
 3590POPC   C1B46807  21.567  39.917   6.464
 3590POPC   C2B46808  21.640  39.899   6.764
 3590POPC   C3B46809  21.658  39.856   7.064
 3590POPC   C4B46810  21.628  39.879   7.364
 3591POPC   NC346811  35.303  17.497   5.564
 3591POPC   PO446812  35.320  17.493   5.864
 3591POPC   GL146813  35.397  17.481   6.164
 3591POPC   GL246814  35.212  17.435   6.164
 3591POPC   C1A46815  35.309  17.545   6.464
 3591POPC   D2A46816  35.357  17.550   6.764
 3591POPC   C3A46817  35.311  17.506   7.064
 3591POPC   C4A46818  35.322  17.515   7.364
 3591POPC   C1B46819  35.101  17.323   6.464
 3591POPC   C2B46820  35.158  17.392   6.764
 3591POPC   C3B46821  35.133  17.387   7.064
 3591POPC   C4B46822  35.098  17.340   7.364
 3592POPC   NC346823  15.992  44.699   5.564
 3592POPC   PO446824  16.002  44.685   5.864
 3592POPC   GL146825  15.941  44.685   6.164
 3592POPC   GL246826  15.966  44.770   6.164
 3592POPC   C1A46827  15.974  44.705   6.464
 3592POPC   D2A46828  15.958  44.636   6.764
 3592POPC   C3A46829  15.978  44.623   7.064
 3592POPC   C4A46830  15.994  44.684   7.364
 3592POPC   C1B46831  15.880  44.903   6.464
 3592POPC   C2B46832  15.941  44.900   6.764
 3592POPC   C3B46833  15.878  44.890   7.064
 3592POPC   C4B46834  15.913  44.930   7.364
 3593POPC   NC346835  14.364  40.822   5.564
 3593POPC   PO446836  14.421  40.748   5.864
 3593POPC   GL146837  14.435  40.783   6.164
 3593POPC   GL246838  14.317  40.893   6.164
 3593POPC   C1A46839  14.444  40.752   6.464
 3593POPC   D2A46840  14.446  40.807   6.764
 3593POPC   C3A46841  14.387  40.770   7.064
 3593POPC   C4A46842  14.365  40.767   7.364
 3593POPC   C1B46843  14.289  40.979   6.464
 3593POPC   C2B46844  14.271  41.056   6.764
 3593POPC   C3B46845  14.276  40.979   7.064
 3593POPC   C4B46846  14.245  41.051   7.364
 3594POPC   NC346847  15.974  24.494   5.564
 3594POPC   PO446848  15.970  24.513   5.864
 3594POPC   GL146849  15.945  24.473   6.164
 3594POPC   GL246850  16.001  24.332   6.164
 3594POPC   C1A46851  15.972  24.517   6.464
 3594POPC   D2A46852  15.997  24.442   6.764
 3594POPC   C3A46853  15.958  24.518   7.064
 3594POPC   C4A46854  15.978  24.457   7.364
 3594POPC   C1B46855  16.007  24.266   6.464
 3594POPC   C2B46856  16.052  24.292   6.764
 3594POPC   C3B46857  15.981  24.277   7.064
 3594POPC   C4B46858  15.997  24.200   7.364
 3595POPC   NC346859  40.047  33.778   5.564
 3595POPC   PO446860  40.026  33.809   5.864
 3595POPC   GL146861  39.996  33.820   6.164
 3595POPC   GL246862  39.905  33.835   6.164
 3595POPC   C1A46863  39.990  33.789   6.464
 3595POPC   D2A46864  39.986  33.816   6.764
 3595POPC   C3A46865  40.004  33.819   7.064
 3595POPC   C4A46866  40.040  33.773   7.364
 3595POPC   C1B46867  39.778  33.763   6.464
 3595POPC   C2B46868  39.731  33.801   6.764
 3595POPC   C3B46869  39.729  33.752   7.064
 3595POPC   C4B46870  39.762  33.809   7.364
 3596POPC   NC346871  29.942  41.537   5.564
 3596POPC   PO446872  29.893  41.544   5.864
 3596POPC   GL146873  29.871  41.542   6.164
 3596POPC   GL246874  29.802  41.490   6.164
 3596POPC   C1A46875  29.933  41.513   6.464
 3596POPC   D2A46876  29.965  41.544   6.764
 3596POPC   C3A46877  29.899  41.592   7.064
 3596POPC   C4A46878  29.914  41.575   7.364
 3596POPC   C1B46879  29.655  41.488   6.464
 3596POPC   C2B46880  29.706  41.440   6.764
 3596POPC   C3B46881  29.731  41.459   7.064
 3596POPC   C4B46882  29.690  41.455   7.364
 3597POPC   NC346883  27.606  26.068   5.564
 3597POPC   PO446884  27.625  25.999   5.864
 3597POPC   GL146885  27.640  26.090   6.164
 3597POPC   GL246886  27.616  26.167   6.164
 3597POPC   C1A46887  27.625  25.991   6.464
 3597POPC   D2A46888  27.579  26.024   6.764
 3597POPC   C3A46889  27.548  26.054   7.064
 3597POPC   C4A46890  27.544  26.058   7.364
 3597POPC   C1B46891  27.740  26.284   6.464
 3597POPC   C2B46892  27.728  26.283   6.764
 3597POPC   C3B46893  27.706  26.288   7.064
 3597POPC   C4B46894  27.708  26.216   7.364
 3598POPC   NC346895   9.737  43.136   5.564
 3598POPC   PO446896   9.796  43.111   5.864
 3598POPC   GL146897   9.794  43.079   6.164
 3598POPC   GL246898   9.697  43.030   6.164
 3598POPC   C1A46899   9.719  43.095   6.464
 3598POPC   D2A46900   9.753  43.083   6.764
 3598POPC   C3A46901   9.736  43.113   7.064
 3598POPC   C4A46902   9.721  43.099   7.364
 3598POPC   C1B46903   9.594  42.916   6.464
 3598POPC   C2B46904   9.610  42.934   6.764
 3598POPC   C3B46905   9.677  42.859   7.064
 3598POPC   C4B46906   9.685  42.896   7.364
 3599POPC   NC346907   5.089  24.527   5.564
 3599POPC   PO446908   5.089  24.536   5.864
 3599POPC   GL146909   5.083  24.447   6.164
 3599POPC   GL246910   5.239  24.416   6.164
 3599POPC   C1A46911   5.095  24.443   6.464
 3599POPC   D2A46912   5.050  24.495   6.764
 3599POPC   C3A46913   5.129  24.470   7.064
 3599POPC   C4A46914   5.055  24.475   7.364
 3599POPC   C1B46915   5.331  24.431   6.464
 3599POPC   C2B46916   5.323  24.404   6.764
 3599POPC   C3B46917   5.354  24.432   7.064
 3599POPC   C4B46918   5.327  24.419   7.364
 3600POPC   NC346919  23.739  16.688   5.564
 3600POPC   PO446920  23.741  16.760   5.864
 3600POPC   GL146921  23.674  16.729   6.164
 3600POPC   GL246922  23.793  16.734   6.164
 3600POPC   C1A46923  23.718  16.768   6.464
 3600POPC   D2A46924  23.686  16.690   6.764
 3600POPC   C3A46925  23.670  16.753   7.064
 3600POPC   C4A46926  23.709  16.701   7.364
 3600POPC   C1B46927  23.895  16.794   6.464
 3600POPC   C2B46928  23.987  16.796   6.764
 3600POPC   C3B46929  23.978  16.817   7.064
 3600POPC   C4B46930  23.916  16.858   7.364
 3601POPC   NC346931  14.446  11.298   5.564
 3601POPC   PO446932  14.364  11.252   5.864
 3601POPC   GL146933  14.408  11.301   6.164
 3601POPC   GL246934  14.515  11.404   6.164
 3601POPC   C1A46935  14.411  11.277   6.464
 3601POPC   D2A46936  14.360  11.333   6.764
 3601POPC   C3A46937  14.412  11.337   7.064
 3601POPC   C4A46938  14.450  11.280   7.364
 3601POPC   C1B46939  14.609  11.497   6.464
 3601POPC   C2B46940  14.590  11.463   6.764
 3601POPC   C3B46941  14.625  11.437   7.064
 3601POPC   C4B46942  14.549  11.458   7.364
 3602POPC   NC346943  24.535  19.029   5.564
 3602POPC   PO446944  24.536  19.077   5.864
 3602POPC   GL146945  24.528  19.055   6.164
 3602POPC   GL246946  24.433  19.133   6.164
 3602POPC   C1A46947  24.469  19.023   6.464
 3602POPC   D2A46948  24.521  19.064   6.764
 3602POPC   C3A46949  24.511  19.068   7.064
 3602POPC   C4A46950  24.458  19.017   7.364
 3602POPC   C1B46951  24.241  19.142   6.464
 3602POPC   C2B46952  24.300  19.149   6.764
 3602POPC   C3B46953  24.231  19.217   7.064
 3602POPC   C4B46954  24.309  19.149   7.364
 3603POPC   NC346955  31.512  19.023   5.564
 3603POPC   PO446956  31.447  19.044   5.864
 3603POPC   GL146957  31.435  19.065   6.164
 3603POPC   GL246958  31.523  18.903   6.164
 3603POPC   C1A46959  31.468  19.033   6.464
 3603POPC   D2A46960  31.514  19.033   6.764
 3603POPC   C3A46961  31.448  19.095   7.064
 3603POPC   C4A46962  31.439  19.057   7.364
 3603POPC   C1B46963  31.528  18.784   6.464
 3603POPC   C2B46964  31.546  18.842   6.764
 3603POPC   C3B46965  31.513  18.858   7.064
 3603POPC   C4B46966  31.491  18.772   7.364
 3604POPC   NC346967   2.024  41.547   5.564
 3604POPC   PO446968   2.018  41.510   5.864
 3604POPC   GL146969   1.941  41.533   6.164
 3604POPC   GL246970   2.071  41.487   6.164
 3604POPC   C1A46971   1.967  41.543   6.464
 3604POPC   D2A46972   2.001  41.587   6.764
 3604POPC   C3A46973   2.025  41.522   7.064
 3604POPC   C4A46974   1.995  41.571   7.364
 3604POPC   C1B46975   2.095  41.309   6.464
 3604POPC   C2B46976   2.106  41.370   6.764
 3604POPC   C3B46977   2.167  41.391   7.064
 3604POPC   C4B46978   2.094  41.298   7.364
 3605POPC   NC346979   9.749   0.480   5.564
 3605POPC   PO446980   9.718   0.443   5.864
 3605POPC   GL146981   9.776   0.401   6.164
 3605POPC   GL246982   9.614   0.474   6.164
 3605POPC   C1A46983   9.795   0.418   6.464
 3605POPC   D2A46984   9.790   0.428   6.764
 3605POPC   C3A46985   9.698   0.406   7.064
 3605POPC   C4A46986   9.796   0.399   7.364
 3605POPC   C1B46987   9.565   0.615   6.464
 3605POPC   C2B46988   9.549   0.574   6.764
 3605POPC   C3B46989   9.591   0.543   7.064
 3605POPC   C4B46990   9.527   0.566   7.364
 3606POPC   NC346991  33.847   1.962   5.564
 3606POPC   PO446992  33.772   1.982   5.864
 3606POPC   GL146993  33.810   2.005   6.164
 3606POPC   GL246994  33.913   1.839   6.164
 3606POPC   C1A46995  33.839   1.941   6.464
 3606POPC   D2A46996  33.823   2.028   6.764
 3606POPC   C3A46997  33.827   1.974   7.064
 3606POPC   C4A46998  33.793   1.955   7.364
 3606POPC   C1B46999  33.900   1.834   6.464
 3606POPC   C2B47000  33.949   1.787   6.764
 3606POPC   C3B47001  33.927   1.764   7.064
 3606POPC   C4B47002  33.906   1.742   7.364
 3607POPC   NC347003  23.742  26.049   5.564
 3607POPC   PO447004  23.677  26.039   5.864
 3607POPC   GL147005  23.666  26.082   6.164
 3607POPC   GL247006  23.650  26.135   6.164
 3607POPC   C1A47007  23.664  26.088   6.464
 3607POPC   D2A47008  23.707  25.994   6.764
 3607POPC   C3A47009  23.678  26.037   7.064
 3607POPC   C4A47010  23.693  26.067   7.364
 3607POPC   C1B47011  23.551  26.273   6.464
 3607POPC   C2B47012  23.622  26.233   6.764
 3607POPC   C3B47013  23.540  26.276   7.064
 3607POPC   C4B47014  23.584  26.274   7.364
 3608POPC   NC347015  12.060  22.941   5.564
 3608POPC   PO447016  12.078  22.974   5.864
 3608POPC   GL147017  12.087  22.888   6.164
 3608POPC   GL247018  12.007  22.795   6.164
 3608POPC   C1A47019  12.056  22.897   6.464
 3608POPC   D2A47020  12.048  22.935   6.764
 3608POPC   C3A47021  12.124  22.940   7.064
 3608POPC   C4A47022  12.109  22.943   7.364
 3608POPC   C1B47023  11.982  22.660   6.464
 3608POPC   C2B47024  12.013  22.673   6.764
 3608POPC   C3B47025  11.965  22.691   7.064
 3608POPC   C4B47026  11.956  22.721   7.364
 3609POPC   NC347027   4.307   8.237   5.564
 3609POPC   PO447028   4.353   8.176   5.864
 3609POPC   GL147029   4.297   8.168   6.164
 3609POPC   GL247030   4.242   8.095   6.164
 3609POPC   C1A47031   4.326   8.242   6.464
 3609POPC   D2A47032   4.277   8.214   6.764
 3609POPC   C3A47033   4.330   8.159   7.064
 3609POPC   C4A47034   4.312   8.150   7.364
 3609POPC   C1B47035   4.218   7.959   6.464
 3609POPC   C2B47036   4.245   7.987   6.764
 3609POPC   C3B47037   4.193   7.934   7.064
 3609POPC   C4B47038   4.154   8.013   7.364
 3610POPC   NC347039  33.014  23.745   5.564
 3610POPC   PO447040  33.011  23.712   5.864
 3610POPC   GL147041  33.035  23.739   6.164
 3610POPC   GL247042  33.102  23.630   6.164
 3610POPC   C1A47043  33.022  23.711   6.464
 3610POPC   D2A47044  33.036  23.722   6.764
 3610POPC   C3A47045  32.979  23.725   7.064
 3610POPC   C4A47046  32.976  23.676   7.364
 3610POPC   C1B47047  33.098  23.544   6.464
 3610POPC   C2B47048  33.183  23.517   6.764
 3610POPC   C3B47049  33.116  23.518   7.064
 3610POPC   C4B47050  33.143  23.522   7.364
 3611POPC   NC347051  13.610  35.336   5.564
 3611POPC   PO447052  13.584  35.313   5.864
 3611POPC   GL147053  13.655  35.388   6.164
 3611POPC   GL247054  13.547  35.224   6.164
 3611POPC   C1A47055  13.587  35.373   6.464
 3611POPC   D2A47056  13.593  35.382   6.764
 3611POPC   C3A47057  13.650  35.319   7.064
 3611POPC   C4A47058  13.616  35.356   7.364
 3611POPC   C1B47059  13.473  35.150   6.464
 3611POPC   C2B47060  13.402  35.156   6.764
 3611POPC   C3B47061  13.485  35.201   7.064
 3611POPC   C4B47062  13.451  35.167   7.364
 3612POPC   NC347063  12.821  11.290   5.564
 3612POPC   PO447064  12.864  11.271   5.864
 3612POPC   GL147065  12.848  11.258   6.164
 3612POPC   GL247066  12.935  11.408   6.164
 3612POPC   C1A47067  12.866  11.302   6.464
 3612POPC   D2A47068  12.895  11.286   6.764
 3612POPC   C3A47069  12.870  11.282   7.064
 3612POPC   C4A47070  12.844  11.341   7.364
 3612POPC   C1B47071  12.894  11.563   6.464
 3612POPC   C2B47072  12.920  11.577   6.764
 3612POPC   C3B47073  12.941  11.563   7.064
 3612POPC   C4B47074  12.892  11.563   7.364
 3613POPC   NC347075  43.084  26.780   5.564
 3613POPC   PO447076  43.109  26.782   5.864
 3613POPC   GL147077  43.076  26.798   6.164
 3613POPC   GL247078  43.139  26.952   6.164
 3613POPC   C1A47079  43.108  26.820   6.464
 3613POPC   D2A47080  43.061  26.833   6.764
 3613POPC   C3A47081  43.082  26.790   7.064
 3613POPC   C4A47082  43.151  26.776   7.364
 3613POPC   C1B47083  43.229  27.059   6.464
 3613POPC   C2B47084  43.255  26.985   6.764
 3613POPC   C3B47085  43.290  27.030   7.064
 3613POPC   C4B47086  43.288  27.071   7.364
 3614POPC   NC347087  19.068  31.476   5.564
 3614POPC   PO447088  19.043  31.510   5.864
 3614POPC   GL147089  19.095  31.462   6.164
 3614POPC   GL247090  18.960  31.408   6.164
 3614POPC   C1A47091  19.076  31.428   6.464
 3614POPC   D2A47092  19.054  31.463   6.764
 3614POPC   C3A47093  19.035  31.482   7.064
 3614POPC   C4A47094  19.015  31.439   7.364
 3614POPC   C1B47095  18.958  31.308   6.464
 3614POPC   C2B47096  18.906  31.272   6.764
 3614POPC   C3B47097  18.866  31.254   7.064
 3614POPC   C4B47098  18.918  31.282   7.364
 3615POPC   NC347099  19.869   2.785   5.564
 3615POPC   PO447100  19.834   2.814   5.864
 3615POPC   GL147101  19.846   2.754   6.164
 3615POPC   GL247102  19.801   2.639   6.164
 3615POPC   C1A47103  19.804   2.795   6.464
 3615POPC   D2A47104  19.794   2.724   6.764
 3615POPC   C3A47105  19.863   2.789   7.064
 3615POPC   C4A47106  19.815   2.733   7.364
 3615POPC   C1B47107  19.878   2.541   6.464
 3615POPC   C2B47108  19.801   2.503   6.764
 3615POPC   C3B47109  19.866   2.521   7.064
 3615POPC   C4B47110  19.843   2.468   7.364
 3616POPC   NC347111   9.777  39.978   5.564
 3616POPC   PO447112   9.757  40.025   5.864
 3616POPC   GL147113   9.781  39.979   6.164
 3616POPC   GL247114   9.701  40.151   6.164
 3616POPC   C1A47115   9.747  40.040   6.464
 3616POPC   D2A47116   9.774  39.968   6.764
 3616POPC   C3A47117   9.729  40.027   7.064
 3616POPC   C4A47118   9.702  40.007   7.364
 3616POPC   C1B47119   9.699  40.236   6.464
 3616POPC   C2B47120   9.719  40.287   6.764
 3616POPC   C3B47121   9.707  40.204   7.064
 3616POPC   C4B47122   9.694  40.276   7.364
 3617POPC   NC347123  22.895   4.312   5.564
 3617POPC   PO447124  22.982   4.345   5.864
 3617POPC   GL147125  22.979   4.275   6.164
 3617POPC   GL247126  22.918   4.485   6.164
 3617POPC   C1A47127  22.937   4.336   6.464
 3617POPC   D2A47128  22.930   4.321   6.764
 3617POPC   C3A47129  22.931   4.343   7.064
 3617POPC   C4A47130  22.899   4.350   7.364
 3617POPC   C1B47131  22.938   4.601   6.464
 3617POPC   C2B47132  22.958   4.543   6.764
 3617POPC   C3B47133  22.916   4.569   7.064
 3617POPC   C4B47134  22.925   4.607   7.364
 3618POPC   NC347135   8.236  16.705   5.564
 3618POPC   PO447136   8.208  16.682   5.864
 3618POPC   GL147137   8.187  16.718   6.164
 3618POPC   GL247138   8.150  16.644   6.164
 3618POPC   C1A47139   8.156  16.681   6.464
 3618POPC   D2A47140   8.179  16.707   6.764
 3618POPC   C3A47141   8.244  16.690   7.064
 3618POPC   C4A47142   8.243  16.700   7.364
 3618POPC   C1B47143   8.112  16.534   6.464
 3618POPC   C2B47144   8.053  16.534   6.764
 3618POPC   C3B47145   8.059  16.522   7.064
 3618POPC   C4B47146   8.044  16.501   7.364
 3619POPC   NC347147  40.762   4.291   5.564
 3619POPC   PO447148  40.781   4.317   5.864
 3619POPC   GL147149  40.751   4.316   6.164
 3619POPC   GL247150  40.860   4.248   6.164
 3619POPC   C1A47151  40.792   4.308   6.464
 3619POPC   D2A47152  40.769   4.281   6.764
 3619POPC   C3A47153  40.737   4.303   7.064
 3619POPC   C4A47154  40.749   4.280   7.364
 3619POPC   C1B47155  40.999   4.254   6.464
 3619POPC   C2B47156  41.057   4.200   6.764
 3619POPC   C3B47157  41.039   4.252   7.064
 3619POPC   C4B47158  41.012   4.204   7.364
 3620POPC   NC347159  31.438   7.398   5.564
 3620POPC   PO447160  31.491   7.432   5.864
 3620POPC   GL147161  31.453   7.377   6.164
 3620POPC   GL247162  31.380   7.359   6.164
 3620POPC   C1A47163  31.514   7.389   6.464
 3620POPC   D2A47164  31.462   7.376   6.764
 3620POPC   C3A47165  31.465   7.379   7.064
 3620POPC   C4A47166  31.460   7.375   7.364
 3620POPC   C1B47167  31.263   7.400   6.464
 3620POPC   C2B47168  31.243   7.380   6.764
 3620POPC   C3B47169  31.217   7.345   7.064
 3620POPC   C4B47170  31.235   7.372   7.364
 3621POPC   NC347171  22.899  13.657   5.564
 3621POPC   PO447172  22.978  13.670   5.864
 3621POPC   GL147173  22.950  13.653   6.164
 3621POPC   GL247174  22.938  13.747   6.164
 3621POPC   C1A47175  22.964  13.596   6.464
 3621POPC   D2A47176  22.968  13.636   6.764
 3621POPC   C3A47177  22.962  13.642   7.064
 3621POPC   C4A47178  22.932  13.605   7.364
 3621POPC   C1B47179  22.966  13.844   6.464
 3621POPC   C2B47180  23.006  13.910   6.764
 3621POPC   C3B47181  23.020  13.827   7.064
 3621POPC   C4B47182  23.030  13.890   7.364
 3622POPC   NC347183   8.936  11.265   5.564
 3622POPC   PO447184   8.993  11.347   5.864
 3622POPC   GL147185   8.936  11.338   6.164
 3622POPC   GL247186   8.967  11.453   6.164
 3622POPC   C1A47187   8.937  11.336   6.464
 3622POPC   D2A47188   8.939  11.305   6.764
 3622POPC   C3A47189   8.954  11.300   7.064
 3622POPC   C4A47190   8.956  11.315   7.364
 3622POPC   C1B47191   9.029  11.540   6.464
 3622POPC   C2B47192   9.013  11.540   6.764
 3622POPC   C3B47193   9.006  11.526   7.064
 3622POPC   C4B47194   9.007  11.564   7.364
 3623POPC   NC347195  13.635  27.585   5.564
 3623POPC   PO447196  13.643  27.585   5.864
 3623POPC   GL147197  13.646  27.625   6.164
 3623POPC   GL247198  13.635  27.462   6.164
 3623POPC   C1A47199  13.639  27.598   6.464
 3623POPC   D2A47200  13.618  27.591   6.764
 3623POPC   C3A47201  13.631  27.547   7.064
 3623POPC   C4A47202  13.620  27.585   7.364
 3623POPC   C1B47203  13.737  27.379   6.464
 3623POPC   C2B47204  13.754  27.357   6.764
 3623POPC   C3B47205  13.688  27.379   7.064
 3623POPC   C4B47206  13.751  27.336   7.364
 3624POPC   NC347207  19.880  15.929   5.564
 3624POPC   PO447208  19.809  15.955   5.864
 3624POPC   GL147209  19.839  15.999   6.164
 3624POPC   GL247210  20.000  16.044   6.164
 3624POPC   C1A47211  19.882  15.985   6.464
 3624POPC   D2A47212  19.802  15.993   6.764
 3624POPC   C3A47213  19.827  15.975   7.064
 3624POPC   C4A47214  19.809  15.921   7.364
 3624POPC   C1B47215  20.058  16.013   6.464
 3624POPC   C2B47216  20.106  16.017   6.764
 3624POPC   C3B47217  20.045  16.016   7.064
 3624POPC   C4B47218  20.041  16.003   7.364
 3625POPC   NC347219  12.891  29.912   5.564
 3625POPC   PO447220  12.882  29.898   5.864
 3625POPC   GL147221  12.821  29.911   6.164
 3625POPC   GL247222  12.812  29.829   6.164
 3625POPC   C1A47223  12.822  29.925   6.464
 3625POPC   D2A47224  12.877  29.952   6.764
 3625POPC   C3A47225  12.816  29.923   7.064
 3625POPC   C4A47226  12.842  29.909   7.364
 3625POPC   C1B47227  12.727  29.660   6.464
 3625POPC   C2B47228  12.771  29.714   6.764
 3625POPC   C3B47229  12.753  29.682   7.064
 3625POPC   C4B47230  12.677  29.659   7.364
 3626POPC   NC347231  40.783  32.216   5.564
 3626POPC   PO447232  40.826  32.234   5.864
 3626POPC   GL147233  40.746  32.260   6.164
 3626POPC   GL247234  40.663  32.347   6.164
 3626POPC   C1A47235  40.795  32.212   6.464
 3626POPC   D2A47236  40.785  32.200   6.764
 3626POPC   C3A47237  40.783  32.295   7.064
 3626POPC   C4A47238  40.734  32.242   7.364
 3626POPC   C1B47239  40.626  32.433   6.464
 3626POPC   C2B47240  40.633  32.401   6.764
 3626POPC   C3B47241  40.624  32.400   7.064
 3626POPC   C4B47242  40.634  32.445   7.364
 3627POPC   NC347243  25.236  38.462   5.564
 3627POPC   PO447244  25.315  38.495   5.864
 3627POPC   GL147245  25.298  38.412   6.164
 3627POPC   GL247246  25.130  38.568   6.164
 3627POPC   C1A47247  25.225  38.457   6.464
 3627POPC   D2A47248  25.286  38.483   6.764
 3627POPC   C3A47249  25.304  38.436   7.064
 3627POPC   C4A47250  25.289  38.491   7.364
 3627POPC   C1B47251  25.093  38.578   6.464
 3627POPC   C2B47252  25.096  38.593   6.764
 3627POPC   C3B47253  25.017  38.574   7.064
 3627POPC   C4B47254  25.071  38.565   7.364
 3628POPC   NC347255  25.307  34.618   5.564
 3628POPC   PO447256  25.254  34.548   5.864
 3628POPC   GL147257  25.294  34.597   6.164
 3628POPC   GL247258  25.195  34.406   6.164
 3628POPC   C1A47259  25.286  34.583   6.464
 3628POPC   D2A47260  25.273  34.551   6.764
 3628POPC   C3A47261  25.221  34.568   7.064
 3628POPC   C4A47262  25.241  34.625   7.364
 3628POPC   C1B47263  25.208  34.330   6.464
 3628POPC   C2B47264  25.176  34.335   6.764
 3628POPC   C3B47265  25.236  34.345   7.064
 3628POPC   C4B47266  25.267  34.365   7.364
 3629POPC   NC347267   1.176  37.713   5.564
 3629POPC   PO447268   1.224  37.637   5.864
 3629POPC   GL147269   1.195  37.666   6.164
 3629POPC   GL247270   1.198  37.795   6.164
 3629POPC   C1A47271   1.210  37.640   6.464
 3629POPC   D2A47272   1.231  37.722   6.764
 3629POPC   C3A47273   1.165  37.648   7.064
 3629POPC   C4A47274   1.251  37.641   7.364
 3629POPC   C1B47275   1.216  37.970   6.464
 3629POPC   C2B47276   1.180  37.958   6.764
 3629POPC   C3B47277   1.171  37.897   7.064
 3629POPC   C4B47278   1.222  37.928   7.364
 3630POPC   NC347279  10.484  22.141   5.564
 3630POPC   PO447280  10.502  22.148   5.864
 3630POPC   GL147281  10.480  22.191   6.164
 3630POPC   GL247282  10.689  22.173   6.164
 3630POPC   C1A47283  10.487  22.129   6.464
 3630POPC   D2A47284  10.544  22.174   6.764
 3630POPC   C3A47285  10.551  22.200   7.064
 3630POPC   C4A47286  10.488  22.168   7.364
 3630POPC   C1B47287  10.804  22.133   6.464
 3630POPC   C2B47288  10.803  22.092   6.764
 3630POPC   C3B47289  10.810  22.072   7.064
 3630POPC   C4B47290  10.768  22.099   7.364
 3631POPC   NC347291  22.890   8.181   5.564
 3631POPC   PO447292  22.911   8.170   5.864
 3631POPC   GL147293  22.903   8.241   6.164
 3631POPC   GL247294  23.105   8.209   6.164
 3631POPC   C1A47295  22.948   8.241   6.464
 3631POPC   D2A47296  22.903   8.245   6.764
 3631POPC   C3A47297  22.949   8.174   7.064
 3631POPC   C4A47298  22.932   8.209   7.364
 3631POPC   C1B47299  23.230   8.174   6.464
 3631POPC   C2B47300  23.165   8.189   6.764
 3631POPC   C3B47301  23.147   8.142   7.064
 3631POPC   C4B47302  23.220   8.196   7.364
 3632POPC   NC347303  22.212  13.622   5.564
 3632POPC   PO447304  22.140  13.644   5.864
 3632POPC   GL147305  22.162  13.598   6.164
 3632POPC   GL247306  22.087  13.525   6.164
 3632POPC   C1A47307  22.118  13.581   6.464
 3632POPC   D2A47308  22.148  13.599   6.764
 3632POPC   C3A47309  22.141  13.670   7.064
 3632POPC   C4A47310  22.122  13.643   7.364
 3632POPC   C1B47311  21.931  13.499   6.464
 3632POPC   C2B47312  21.947  13.457   6.764
 3632POPC   C3B47313  21.992  13.495   7.064
 3632POPC   C4B47314  22.003  13.508   7.364
 3633POPC   NC347315   6.598  39.211   5.564
 3633POPC   PO447316   6.661  39.259   5.864
 3633POPC   GL147317   6.620  39.195   6.164
 3633POPC   GL247318   6.531  39.381   6.164
 3633POPC   C1A47319   6.661  39.259   6.464
 3633POPC   D2A47320   6.653  39.196   6.764
 3633POPC   C3A47321   6.664  39.279   7.064
 3633POPC   C4A47322   6.647  39.238   7.364
 3633POPC   C1B47323   6.516  39.485   6.464
 3633POPC   C2B47324   6.505  39.440   6.764
 3633POPC   C3B47325   6.454  39.404   7.064
 3633POPC   C4B47326   6.531  39.455   7.364
 3634POPC   NC347327   5.127  30.653   5.564
 3634POPC   PO447328   5.050  30.654   5.864
 3634POPC   GL147329   5.044  30.705   6.164
 3634POPC   GL247330   5.039  30.556   6.164
 3634POPC   C1A47331   5.094  30.724   6.464
 3634POPC   D2A47332   5.117  30.675   6.764
 3634POPC   C3A47333   5.093  30.671   7.064
 3634POPC   C4A47334   5.069  30.690   7.364
 3634POPC   C1B47335   5.036  30.501   6.464
 3634POPC   C2B47336   5.044  30.439   6.764
 3634POPC   C3B47337   5.039  30.500   7.064
 3634POPC   C4B47338   5.011  30.502   7.364
 3635POPC   NC347339  36.156  16.755   5.564
 3635POPC   PO447340  36.126  16.709   5.864
 3635POPC   GL147341  36.144  16.684   6.164
 3635POPC   GL247342  36.097  16.595   6.164
 3635POPC   C1A47343  36.148  16.748   6.464
 3635POPC   D2A47344  36.155  16.713   6.764
 3635POPC   C3A47345  36.123  16.728   7.064
 3635POPC   C4A47346  36.169  16.698   7.364
 3635POPC   C1B47347  36.130  16.521   6.464
 3635POPC   C2B47348  36.181  16.512   6.764
 3635POPC   C3B47349  36.171  16.521   7.064
 3635POPC   C4B47350  36.146  16.514   7.364
 3636POPC   NC347351  29.958  27.547   5.564
 3636POPC   PO447352  29.909  27.553   5.864
 3636POPC   GL147353  29.920  27.609   6.164
 3636POPC   GL247354  30.057  27.643   6.164
 3636POPC   C1A47355  29.936  27.611   6.464
 3636POPC   D2A47356  29.880  27.606   6.764
 3636POPC   C3A47357  29.945  27.571   7.064
 3636POPC   C4A47358  29.893  27.550   7.364
 3636POPC   C1B47359  30.147  27.634   6.464
 3636POPC   C2B47360  30.136  27.665   6.764
 3636POPC   C3B47361  30.145  27.644   7.064
 3636POPC   C4B47362  30.175  27.619   7.364
 3637POPC   NC347363   8.942  33.021   5.564
 3637POPC   PO447364   8.933  33.004   5.864
 3637POPC   GL147365   8.987  32.998   6.164
 3637POPC   GL247366   8.894  32.966   6.164
 3637POPC   C1A47367   8.957  33.073   6.464
 3637POPC   D2A47368   8.937  32.985   6.764
 3637POPC   C3A47369   8.957  33.028   7.064
 3637POPC   C4A47370   8.991  33.023   7.364
 3637POPC   C1B47371   8.819  32.844   6.464
 3637POPC   C2B47372   8.765  32.816   6.764
 3637POPC   C3B47373   8.846  32.843   7.064
 3637POPC   C4B47374   8.848  32.827   7.364
 3638POPC   NC347375  22.919  38.498   5.564
 3638POPC   PO447376  22.927  38.409   5.864
 3638POPC   GL147377  22.909  38.416   6.164
 3638POPC   GL247378  22.832  38.537   6.164
 3638POPC   C1A47379  22.902  38.441   6.464
 3638POPC   D2A47380  22.960  38.432   6.764
 3638POPC   C3A47381  22.902  38.427   7.064
 3638POPC   C4A47382  22.947  38.493   7.364
 3638POPC   C1B47383  22.703  38.648   6.464
 3638POPC   C2B47384  22.749  38.579   6.764
 3638POPC   C3B47385  22.738  38.600   7.064
 3638POPC   C4B47386  22.729  38.626   7.364
 3639POPC   NC347387  34.562  33.816   5.564
 3639POPC   PO447388  34.620  33.784   5.864
 3639POPC   GL147389  34.534  33.834   6.164
 3639POPC   GL247390  34.499  33.680   6.164
 3639POPC   C1A47391  34.581  33.830   6.464
 3639POPC   D2A47392  34.589  33.782   6.764
 3639POPC   C3A47393  34.541  33.764   7.064
 3639POPC   C4A47394  34.625  33.830   7.364
 3639POPC   C1B47395  34.528  33.586   6.464
 3639POPC   C2B47396  34.460  33.564   6.764
 3639POPC   C3B47397  34.476  33.534   7.064
 3639POPC   C4B47398  34.465  33.566   7.364
 3640POPC   NC347399  33.801  43.910   5.564
 3640POPC   PO447400  33.823  43.861   5.864
 3640POPC   GL147401  33.807  43.932   6.164
 3640POPC   GL247402  33.757  43.819   6.164
 3640POPC   C1A47403  33.816  43.861   6.464
 3640POPC   D2A47404  33.777  43.867   6.764
 3640POPC   C3A47405  33.799  43.853   7.064
 3640POPC   C4A47406  33.779  43.912   7.364
 3640POPC   C1B47407  33.669  43.662   6.464
 3640POPC   C2B47408  33.751  43.657   6.764
 3640POPC   C3B47409  33.718  43.644   7.064
 3640POPC   C4B47410  33.732  43.633   7.364
 3641POPC   NC347411   3.548  28.383   5.564
 3641POPC   PO447412   3.581  28.334   5.864
 3641POPC   GL147413   3.546  28.405   6.164
 3641POPC   GL247414   3.405  28.253   6.164
 3641POPC   C1A47415   3.590  28.343   6.464
 3641POPC   D2A47416   3.493  28.366   6.764
 3641POPC   C3A47417   3.586  28.355   7.064
 3641POPC   C4A47418   3.572  28.384   7.364
 3641POPC   C1B47419   3.336  28.166   6.464
 3641POPC   C2B47420   3.359  28.204   6.764
 3641POPC   C3B47421   3.385  28.171   7.064
 3641POPC   C4B47422   3.408  28.209   7.364
 3642POPC   NC347423  26.075  19.082   5.564
 3642POPC   PO447424  26.074  19.067   5.864
 3642POPC   GL147425  26.042  19.071   6.164
 3642POPC   GL247426  25.973  19.160   6.164
 3642POPC   C1A47427  26.083  19.086   6.464
 3642POPC   D2A47428  26.065  19.060   6.764
 3642POPC   C3A47429  26.001  19.010   7.064
 3642POPC   C4A47430  25.993  19.097   7.364
 3642POPC   C1B47431  25.897  19.277   6.464
 3642POPC   C2B47432  25.876  19.248   6.764
 3642POPC   C3B47433  25.888  19.298   7.064
 3642POPC   C4B47434  25.935  19.272   7.364
 3643POPC   NC347435   0.452  29.874   5.564
 3643POPC   PO447436   0.487  29.956   5.864
 3643POPC   GL147437   0.415  29.944   6.164
 3643POPC   GL247438   0.366  29.879   6.164
 3643POPC   C1A47439   0.392  29.926   6.464
 3643POPC   D2A47440   0.468  29.890   6.764
 3643POPC   C3A47441   0.405  29.937   7.064
 3643POPC   C4A47442   0.462  29.874   7.364
 3643POPC   C1B47443   0.189  29.820   6.464
 3643POPC   C2B47444   0.255  29.840   6.764
 3643POPC   C3B47445   0.206  29.782   7.064
 3643POPC   C4B47446   0.245  29.822   7.364
 3644POPC   NC347447  39.984  12.834   5.564
 3644POPC   PO447448  40.007  12.899   5.864
 3644POPC   GL147449  39.996  12.816   6.164
 3644POPC   GL247450  39.877  12.800   6.164
 3644POPC   C1A47451  40.031  12.849   6.464
 3644POPC   D2A47452  40.019  12.804   6.764
 3644POPC   C3A47453  39.991  12.836   7.064
 3644POPC   C4A47454  39.990  12.887   7.364
 3644POPC   C1B47455  39.745  12.839   6.464
 3644POPC   C2B47456  39.752  12.835   6.764
 3644POPC   C3B47457  39.801  12.822   7.064
 3644POPC   C4B47458  39.757  12.838   7.364
 3645POPC   NC347459  19.027  16.753   5.564
 3645POPC   PO447460  19.024  16.753   5.864
 3645POPC   GL147461  19.029  16.684   6.164
 3645POPC   GL247462  19.153  16.755   6.164
 3645POPC   C1A47463  19.042  16.777   6.464
 3645POPC   D2A47464  19.021  16.746   6.764
 3645POPC   C3A47465  19.088  16.729   7.064
 3645POPC   C4A47466  19.071  16.686   7.364
 3645POPC   C1B47467  19.305  16.877   6.464
 3645POPC   C2B47468  19.299  16.838   6.764
 3645POPC   C3B47469  19.261  16.840   7.064
 3645POPC   C4B47470  19.234  16.836   7.364
 3646POPC   NC347471   3.570  17.490   5.564
 3646POPC   PO447472   3.519  17.516   5.864
 3646POPC   GL147473   3.578  17.463   6.164
 3646POPC   GL247474   3.398  17.488   6.164
 3646POPC   C1A47475   3.575  17.515   6.464
 3646POPC   D2A47476   3.577  17.519   6.764
 3646POPC   C3A47477   3.575  17.542   7.064
 3646POPC   C4A47478   3.534  17.463   7.364
 3646POPC   C1B47479   3.320  17.391   6.464
 3646POPC   C2B47480   3.311  17.360   6.764
 3646POPC   C3B47481   3.360  17.446   7.064
 3646POPC   C4B47482   3.317  17.431   7.364
 3647POPC   NC347483  11.298  34.583   5.564
 3647POPC   PO447484  11.328  34.604   5.864
 3647POPC   GL147485  11.328  34.583   6.164
 3647POPC   GL247486  11.179  34.536   6.164
 3647POPC   C1A47487  11.261  34.595   6.464
 3647POPC   D2A47488  11.295  34.547   6.764
 3647POPC   C3A47489  11.320  34.559   7.064
 3647POPC   C4A47490  11.250  34.595   7.364
 3647POPC   C1B47491  11.109  34.464   6.464
 3647POPC   C2B47492  11.097  34.497   6.764
 3647POPC   C3B47493  11.030  34.496   7.064
 3647POPC   C4B47494  11.063  34.447   7.364
 3648POPC   NC347495  31.423   5.072   5.564
 3648POPC   PO447496  31.474   5.117   5.864
 3648POPC   GL147497  31.429   5.080   6.164
 3648POPC   GL247498  31.427   5.214   6.164
 3648POPC   C1A47499  31.462   5.118   6.464
 3648POPC   D2A47500  31.466   5.117   6.764
 3648POPC   C3A47501  31.507   5.100   7.064
 3648POPC   C4A47502  31.488   5.142   7.364
 3648POPC   C1B47503  31.490   5.298   6.464
 3648POPC   C2B47504  31.454   5.340   6.764
 3648POPC   C3B47505  31.520   5.297   7.064
 3648POPC   C4B47506  31.432   5.377   7.364
 3649POPC   NC347507  24.506  40.823   5.564
 3649POPC   PO447508  24.471  40.734   5.864
 3649POPC   GL147509  24.530  40.795   6.164
 3649POPC   GL247510  24.419  40.892   6.164
 3649POPC   C1A47511  24.534  40.807   6.464
 3649POPC   D2A47512  24.490  40.754   6.764
 3649POPC   C3A47513  24.497  40.831   7.064
 3649POPC   C4A47514  24.530  40.816   7.364
 3649POPC   C1B47515  24.436  41.026   6.464
 3649POPC   C2B47516  24.411  41.008   6.764
 3649POPC   C3B47517  24.416  41.040   7.064
 3649POPC   C4B47518  24.367  41.048   7.364
 3650POPC   NC347519   3.553  18.332   5.564
 3650POPC   PO447520   3.591  18.277   5.864
 3650POPC   GL147521   3.522  18.270   6.164
 3650POPC   GL247522   3.650  18.338   6.164
 3650POPC   C1A47523   3.532  18.303   6.464
 3650POPC   D2A47524   3.557  18.325   6.764
 3650POPC   C3A47525   3.528  18.327   7.064
 3650POPC   C4A47526   3.509  18.287   7.364
 3650POPC   C1B47527   3.756  18.416   6.464
 3650POPC   C2B47528   3.713  18.456   6.764
 3650POPC   C3B47529   3.719  18.450   7.064
 3650POPC   C4B47530   3.760  18.453   7.364
 3651POPC   NC347531  19.027  22.921   5.564
 3651POPC   PO447532  19.068  22.916   5.864
 3651POPC   GL147533  19.052  22.939   6.164
 3651POPC   GL247534  18.917  22.938   6.164
 3651POPC   C1A47535  19.091  22.896   6.464
 3651POPC   D2A47536  19.075  22.985   6.764
 3651POPC   C3A47537  19.061  22.900   7.064
 3651POPC   C4A47538  19.044  22.920   7.364
 3651POPC   C1B47539  18.834  23.010   6.464
 3651POPC   C2B47540  18.859  22.951   6.764
 3651POPC   C3B47541  18.801  22.962   7.064
 3651POPC   C4B47542  18.781  23.022   7.364
 3652POPC   NC347543  29.942  22.186   5.564
 3652POPC   PO447544  29.902  22.116   5.864
 3652POPC   GL147545  29.934  22.178   6.164
 3652POPC   GL247546  29.831  22.197   6.164
 3652POPC   C1A47547  29.878  22.174   6.464
 3652POPC   D2A47548  29.951  22.200   6.764
 3652POPC   C3A47549  29.908  22.112   7.064
 3652POPC   C4A47550  29.907  22.150   7.364
 3652POPC   C1B47551  29.671  22.206   6.464
 3652POPC   C2B47552  29.708  22.205   6.764
 3652POPC   C3B47553  29.652  22.200   7.064
 3652POPC   C4B47554  29.667  22.160   7.364
 3653POPC   NC347555  37.674  19.063   5.564
 3653POPC   PO447556  37.634  19.019   5.864
 3653POPC   GL147557  37.679  19.102   6.164
 3653POPC   GL247558  37.754  19.168   6.164
 3653POPC   C1A47559  37.707  19.081   6.464
 3653POPC   D2A47560  37.688  19.097   6.764
 3653POPC   C3A47561  37.685  19.056   7.064
 3653POPC   C4A47562  37.643  19.046   7.364
 3653POPC   C1B47563  37.800  19.287   6.464
 3653POPC   C2B47564  37.767  19.320   6.764
 3653POPC   C3B47565  37.811  19.302   7.064
 3653POPC   C4B47566  37.770  19.256   7.364
 3654POPC   NC347567  21.431   3.553   5.564
 3654POPC   PO447568  21.412   3.526   5.864
 3654POPC   GL147569  21.409   3.555   6.164
 3654POPC   GL247570  21.442   3.668   6.164
 3654POPC   C1A47571  21.432   3.528   6.464
 3654POPC   D2A47572  21.375   3.523   6.764
 3654POPC   C3A47573  21.409   3.531   7.064
 3654POPC   C4A47574  21.362   3.585   7.364
 3654POPC   C1B47575  21.474   3.755   6.464
 3654POPC   C2B47576  21.534   3.743   6.764
 3654POPC   C3B47577  21.522   3.814   7.064
 3654POPC   C4B47578  21.507   3.736   7.364
 3655POPC   NC347579  24.463   7.432   5.564
 3655POPC   PO447580  24.512   7.466   5.864
 3655POPC   GL147581  24.442   7.441   6.164
 3655POPC   GL247582  24.550   7.531   6.164
 3655POPC   C1A47583  24.527   7.378   6.464
 3655POPC   D2A47584  24.473   7.375   6.764
 3655POPC   C3A47585  24.511   7.429   7.064
 3655POPC   C4A47586  24.450   7.468   7.364
 3655POPC   C1B47587  24.652   7.632   6.464
 3655POPC   C2B47588  24.688   7.656   6.764
 3655POPC   C3B47589  24.637   7.633   7.064
 3655POPC   C4B47590  24.697   7.616   7.364
 3656POPC   NC347591  41.559  12.860   5.564
 3656POPC   PO447592  41.558  12.849   5.864
 3656POPC   GL147593  41.563  12.812   6.164
 3656POPC   GL247594  41.486  12.718   6.164
 3656POPC   C1A47595  41.577  12.818   6.464
 3656POPC   D2A47596  41.512  12.847   6.764
 3656POPC   C3A47597  41.606  12.834   7.064
 3656POPC   C4A47598  41.590  12.827   7.364
 3656POPC   C1B47599  41.470  12.622   6.464
 3656POPC   C2B47600  41.409  12.625   6.764
 3656POPC   C3B47601  41.461  12.659   7.064
 3656POPC   C4B47602  41.448  12.666   7.364
 3657POPC   NC347603  26.851  40.787   5.564
 3657POPC   PO447604  26.784  40.778   5.864
 3657POPC   GL147605  26.866  40.783   6.164
 3657POPC   GL247606  26.927  40.833   6.164
 3657POPC   C1A47607  26.794  40.823   6.464
 3657POPC   D2A47608  26.822  40.774   6.764
 3657POPC   C3A47609  26.864  40.776   7.064
 3657POPC   C4A47610  26.841  40.755   7.364
 3657POPC   C1B47611  27.058  40.918   6.464
 3657POPC   C2B47612  27.008  40.846   6.764
 3657POPC   C3B47613  27.070  40.934   7.064
 3657POPC   C4B47614  27.012  40.900   7.364
 3658POPC   NC347615  31.519   4.305   5.564
 3658POPC   PO447616  31.490   4.309   5.864
 3658POPC   GL147617  31.423   4.362   6.164
 3658POPC   GL247618  31.597   4.274   6.164
 3658POPC   C1A47619  31.457   4.360   6.464
 3658POPC   D2A47620  31.467   4.333   6.764
 3658POPC   C3A47621  31.430   4.339   7.064
 3658POPC   C4A47622  31.476   4.324   7.364
 3658POPC   C1B47623  31.728   4.160   6.464
 3658POPC   C2B47624  31.660   4.227   6.764
 3658POPC   C3B47625  31.659   4.172   7.064
 3658POPC   C4B47626  31.676   4.162   7.364
 3659POPC   NC347627   2.785   7.437   5.564
 3659POPC   PO447628   2.740   7.385   5.864
 3659POPC   GL147629   2.742   7.409   6.164
 3659POPC   GL247630   2.744   7.270   6.164
 3659POPC   C1A47631   2.775   7.420   6.464
 3659POPC   D2A47632   2.745   7.375   6.764
 3659POPC   C3A47633   2.812   7.399   7.064
 3659POPC   C4A47634   2.726   7.428   7.364
 3659POPC   C1B47635   2.771   7.201   6.464
 3659POPC   C2B47636   2.794   7.199   6.764
 3659POPC   C3B47637   2.817   7.211   7.064
 3659POPC   C4B47638   2.789   7.137   7.364
 3660POPC   NC347639  36.870  37.714   5.564
 3660POPC   PO447640  36.860  37.653   5.864
 3660POPC   GL147641  36.904  37.672   6.164
 3660POPC   GL247642  36.922  37.529   6.164
 3660POPC   C1A47643  36.937  37.644   6.464
 3660POPC   D2A47644  36.901  37.728   6.764
 3660POPC   C3A47645  36.887  37.661   7.064
 3660POPC   C4A47646  36.900  37.656   7.364
 3660POPC   C1B47647  36.996  37.430   6.464
 3660POPC   C2B47648  37.008  37.427   6.764
 3660POPC   C3B47649  37.030  37.478   7.064
 3660POPC   C4B47650  37.054  37.506   7.364
 3661POPC   NC347651   3.563  25.304   5.564
 3661POPC   PO447652   3.573  25.244   5.864
 3661POPC   GL147653   3.525  25.307   6.164
 3661POPC   GL247654   3.529  25.182   6.164
 3661POPC   C1A47655   3.501  25.315   6.464
 3661POPC   D2A47656   3.559  25.285   6.764
 3661POPC   C3A47657   3.513  25.255   7.064
 3661POPC   C4A47658   3.585  25.295   7.364
 3661POPC   C1B47659   3.443  25.065   6.464
 3661POPC   C2B47660   3.491  25.055   6.764
 3661POPC   C3B47661   3.487  24.985   7.064
 3661POPC   C4B47662   3.468  24.986   7.364
 3662POPC   NC347663  29.957  19.817   5.564
 3662POPC   PO447664  29.878  19.795   5.864
 3662POPC   GL147665  29.905  19.823   6.164
 3662POPC   GL247666  29.933  19.972   6.164
 3662POPC   C1A47667  29.927  19.882   6.464
 3662POPC   D2A47668  29.922  19.797   6.764
 3662POPC   C3A47669  29.934  19.878   7.064
 3662POPC   C4A47670  29.883  19.827   7.364
 3662POPC   C1B47671  29.868  20.030   6.464
 3662POPC   C2B47672  29.865  20.053   6.764
 3662POPC   C3B47673  29.861  20.073   7.064
 3662POPC   C4B47674  29.852  20.098   7.364
 3663POPC   NC347675  43.894   2.026   5.564
 3663POPC   PO447676  43.867   2.027   5.864
 3663POPC   GL147677  43.881   1.962   6.164
 3663POPC   GL247678  43.937   2.093   6.164
 3663POPC   C1A47679  43.889   1.979   6.464
 3663POPC   D2A47680  43.929   2.039   6.764
 3663POPC   C3A47681  43.899   2.039   7.064
 3663POPC   C4A47682  43.884   1.953   7.364
 3663POPC   C1B47683  43.868   2.204   6.464
 3663POPC   C2B47684  43.903   2.246   6.764
 3663POPC   C3B47685  43.911   2.243   7.064
 3663POPC   C4B47686  43.934   2.280   7.364
 3664POPC   NC347687  21.393  43.146   5.564
 3664POPC   PO447688  21.356  43.134   5.864
 3664POPC   GL147689  21.396  43.067   6.164
 3664POPC   GL247690  21.521  43.017   6.164
 3664POPC   C1A47691  21.366  43.077   6.464
 3664POPC   D2A47692  21.407  43.129   6.764
 3664POPC   C3A47693  21.387  43.130   7.064
 3664POPC   C4A47694  21.433  43.137   7.364
 3664POPC   C1B47695  21.550  42.920   6.464
 3664POPC   C2B47696  21.606  42.938   6.764
 3664POPC   C3B47697  21.538  42.964   7.064
 3664POPC   C4B47698  21.604  42.936   7.364
 3665POPC   NC347699  33.007  29.144   5.564
 3665POPC   PO447700  33.011  29.143   5.864
 3665POPC   GL147701  33.017  29.105   6.164
 3665POPC   GL247702  32.961  28.977   6.164
 3665POPC   C1A47703  33.064  29.111   6.464
 3665POPC   D2A47704  33.017  29.130   6.764
 3665POPC   C3A47705  33.004  29.156   7.064
 3665POPC   C4A47706  33.023  29.118   7.364
 3665POPC   C1B47707  32.944  28.865   6.464
 3665POPC   C2B47708  33.032  28.863   6.764
 3665POPC   C3B47709  32.973  28.873   7.064
 3665POPC   C4B47710  33.004  28.882   7.364
 3666POPC   NC347711   5.851  36.888   5.564
 3666POPC   PO447712   5.873  36.891   5.864
 3666POPC   GL147713   5.862  36.925   6.164
 3666POPC   GL247714   5.984  36.915   6.164
 3666POPC   C1A47715   5.915  36.883   6.464
 3666POPC   D2A47716   5.827  36.937   6.764
 3666POPC   C3A47717   5.836  36.870   7.064
 3666POPC   C4A47718   5.894  36.865   7.364
 3666POPC   C1B47719   6.106  37.040   6.464
 3666POPC   C2B47720   6.088  37.047   6.764
 3666POPC   C3B47721   6.110  37.012   7.064
 3666POPC   C4B47722   6.083  37.057   7.364
 3667POPC   NC347723   2.795  32.251   5.564
 3667POPC   PO447724   2.736  32.253   5.864
 3667POPC   GL147725   2.741  32.264   6.164
 3667POPC   GL247726   2.757  32.359   6.164
 3667POPC   C1A47727   2.788  32.288   6.464
 3667POPC   D2A47728   2.734  32.224   6.764
 3667POPC   C3A47729   2.791  32.201   7.064
 3667POPC   C4A47730   2.743  32.250   7.364
 3667POPC   C1B47731   2.691  32.478   6.464
 3667POPC   C2B47732   2.689  32.457   6.764
 3667POPC   C3B47733   2.771  32.492   7.064
 3667POPC   C4B47734   2.734  32.506   7.364
 3668POPC   NC347735  36.910  21.392   5.564
 3668POPC   PO447736  36.946  21.435   5.864
 3668POPC   GL147737  36.862  21.406   6.164
 3668POPC   GL247738  36.865  21.219   6.164
 3668POPC   C1A47739  36.945  21.395   6.464
 3668POPC   D2A47740  36.859  21.372   6.764
 3668POPC   C3A47741  36.901  21.388   7.064
 3668POPC   C4A47742  36.867  21.377   7.364
 3668POPC   C1B47743  36.873  21.131   6.464
 3668POPC   C2B47744  36.921  21.185   6.764
 3668POPC   C3B47745  36.858  21.097   7.064
 3668POPC   C4B47746  36.915  21.148   7.364
 3669POPC   NC347747  42.320  20.581   5.564
 3669POPC   PO447748  42.354  20.616   5.864
 3669POPC   GL147749  42.307  20.569   6.164
 3669POPC   GL247750  42.318  20.527   6.164
 3669POPC   C1A47751  42.318  20.630   6.464
 3669POPC   D2A47752  42.381  20.566   6.764
 3669POPC   C3A47753  42.369  20.640   7.064
 3669POPC   C4A47754  42.373  20.566   7.364
 3669POPC   C1B47755  42.307  20.370   6.464
 3669POPC   C2B47756  42.272  20.398   6.764
 3669POPC   C3B47757  42.334  20.347   7.064
 3669POPC   C4B47758  42.290  20.386   7.364
 3670POPC   NC347759   1.945  16.780   5.564
 3670POPC   PO447760   1.992  16.721   5.864
 3670POPC   GL147761   2.002  16.749   6.164
 3670POPC   GL247762   1.981  16.594   6.164
 3670POPC   C1A47763   1.975  16.698   6.464
 3670POPC   D2A47764   2.013  16.727   6.764
 3670POPC   C3A47765   2.036  16.726   7.064
 3670POPC   C4A47766   2.010  16.710   7.364
 3670POPC   C1B47767   2.067  16.450   6.464
 3670POPC   C2B47768   1.977  16.532   6.764
 3670POPC   C3B47769   2.040  16.498   7.064
 3670POPC   C4B47770   2.003  16.496   7.364
 3671POPC   NC347771  16.746  42.373   5.564
 3671POPC   PO447772  16.735  42.308   5.864
 3671POPC   GL147773  16.778  42.367   6.164
 3671POPC   GL247774  16.814  42.248   6.164
 3671POPC   C1A47775  16.757  42.311   6.464
 3671POPC   D2A47776  16.704  42.350   6.764
 3671POPC   C3A47777  16.703  42.295   7.064
 3671POPC   C4A47778  16.744  42.339   7.364
 3671POPC   C1B47779  16.852  42.116   6.464
 3671POPC   C2B47780  16.836  42.074   6.764
 3671POPC   C3B47781  16.797  42.120   7.064
 3671POPC   C4B47782  16.865  42.116   7.364
 3672POPC   NC347783   1.213  12.896   5.564
 3672POPC   PO447784   1.197  12.830   5.864
 3672POPC   GL147785   1.212  12.861   6.164
 3672POPC   GL247786   1.072  12.844   6.164
 3672POPC   C1A47787   1.214  12.873   6.464
 3672POPC   D2A47788   1.199  12.824   6.764
 3672POPC   C3A47789   1.257  12.889   7.064
 3672POPC   C4A47790   1.182  12.896   7.364
 3672POPC   C1B47791   0.991  12.899   6.464
 3672POPC   C2B47792   0.984  12.946   6.764
 3672POPC   C3B47793   0.971  12.939   7.064
 3672POPC   C4B47794   0.938  12.858   7.364
 3673POPC   NC347795  24.464  27.571   5.564
 3673POPC   PO447796  24.510  27.605   5.864
 3673POPC   GL147797  24.488  27.549   6.164
 3673POPC   GL247798  24.377  27.569   6.164
 3673POPC   C1A47799  24.502  27.596   6.464
 3673POPC   D2A47800  24.482  27.579   6.764
 3673POPC   C3A47801  24.488  27.613   7.064
 3673POPC   C4A47802  24.450  27.575   7.364
 3673POPC   C1B47803  24.273  27.567   6.464
 3673POPC   C2B47804  24.265  27.512   6.764
 3673POPC   C3B47805  24.244  27.487   7.064
 3673POPC   C4B47806  24.287  27.539   7.364
 3674POPC   NC347807   5.837  22.895   5.564
 3674POPC   PO447808   5.843  22.951   5.864
 3674POPC   GL147809   5.820  22.932   6.164
 3674POPC   GL247810   5.997  22.878   6.164
 3674POPC   C1A47811   5.908  22.961   6.464
 3674POPC   D2A47812   5.856  22.904   6.764
 3674POPC   C3A47813   5.857  22.904   7.064
 3674POPC   C4A47814   5.884  22.925   7.364
 3674POPC   C1B47815   6.131  22.786   6.464
 3674POPC   C2B47816   6.074  22.806   6.764
 3674POPC   C3B47817   6.144  22.881   7.064
 3674POPC   C4B47818   6.134  22.863   7.364
 3675POPC   NC347819  24.441  15.958   5.564
 3675POPC   PO447820  24.473  15.988   5.864
 3675POPC   GL147821  24.467  15.978   6.164
 3675POPC   GL247822  24.372  16.048   6.164
 3675POPC   C1A47823  24.535  15.945   6.464
 3675POPC   D2A47824  24.473  16.004   6.764
 3675POPC   C3A47825  24.501  15.974   7.064
 3675POPC   C4A47826  24.520  15.971   7.364
 3675POPC   C1B47827  24.258  16.150   6.464
 3675POPC   C2B47828  24.290  16.168   6.764
 3675POPC   C3B47829  24.255  16.103   7.064
 3675POPC   C4B47830  24.297  16.166   7.364
 3676POPC   NC347831  35.348  30.678   5.564
 3676POPC   PO447832  35.334  30.647   5.864
 3676POPC   GL147833  35.379  30.653   6.164
 3676POPC   GL247834  35.390  30.586   6.164
 3676POPC   C1A47835  35.340  30.693   6.464
 3676POPC   D2A47836  35.348  30.659   6.764
 3676POPC   C3A47837  35.358  30.730   7.064
 3676POPC   C4A47838  35.393  30.732   7.364
 3676POPC   C1B47839  35.370  30.411   6.464
 3676POPC   C2B47840  35.374  30.402   6.764
 3676POPC   C3B47841  35.390  30.428   7.064
 3676POPC   C4B47842  35.360  30.417   7.364
 3677POPC   NC347843  32.988  33.846   5.564
 3677POPC   PO447844  33.012  33.756   5.864
 3677POPC   GL147845  33.060  33.836   6.164
 3677POPC   GL247846  32.977  33.929   6.164
 3677POPC   C1A47847  32.975  33.753   6.464
 3677POPC   D2A47848  33.034  33.781   6.764
 3677POPC   C3A47849  32.981  33.754   7.064
 3677POPC   C4A47850  33.067  33.790   7.364
 3677POPC   C1B47851  32.868  33.977   6.464
 3677POPC   C2B47852  32.938  34.045   6.764
 3677POPC   C3B47853  32.898  34.014   7.064
 3677POPC   C4B47854  32.904  34.007   7.364
 3678POPC   NC347855   5.120  39.985   5.564
 3678POPC   PO447856   5.094  40.029   5.864
 3678POPC   GL147857   5.061  40.035   6.164
 3678POPC   GL247858   5.261  40.035   6.164
 3678POPC   C1A47859   5.069  39.960   6.464
 3678POPC   D2A47860   5.135  39.982   6.764
 3678POPC   C3A47861   5.044  40.054   7.064
 3678POPC   C4A47862   5.121  39.966   7.364
 3678POPC   C1B47863   5.323  40.063   6.464
 3678POPC   C2B47864   5.387  40.067   6.764
 3678POPC   C3B47865   5.348  40.030   7.064
 3678POPC   C4B47866   5.349  40.086   7.364
 3679POPC   NC347867   7.469  24.470   5.564
 3679POPC   PO447868   7.411  24.521   5.864
 3679POPC   GL147869   7.421  24.451   6.164
 3679POPC   GL247870   7.548  24.560   6.164
 3679POPC   C1A47871   7.382  24.484   6.464
 3679POPC   D2A47872   7.418  24.489   6.764
 3679POPC   C3A47873   7.421  24.538   7.064
 3679POPC   C4A47874   7.390  24.460   7.364
 3679POPC   C1B47875   7.668  24.591   6.464
 3679POPC   C2B47876   7.700  24.553   6.764
 3679POPC   C3B47877   7.686  24.528   7.064
 3679POPC   C4B47878   7.697  24.522   7.364
 3680POPC   NC347879   4.355  25.249   5.564
 3680POPC   PO447880   4.352  25.302   5.864
 3680POPC   GL147881   4.352  25.243   6.164
 3680POPC   GL247882   4.268  25.134   6.164
 3680POPC   C1A47883   4.304  25.269   6.464
 3680POPC   D2A47884   4.309  25.236   6.764
 3680POPC   C3A47885   4.310  25.298   7.064
 3680POPC   C4A47886   4.310  25.288   7.364
 3680POPC   C1B47887   4.164  25.124   6.464
 3680POPC   C2B47888   4.175  25.111   6.764
 3680POPC   C3B47889   4.152  25.126   7.064
 3680POPC   C4B47890   4.111  25.087   7.364
 3681POPC   NC347891  16.723  41.602   5.564
 3681POPC   PO447892  16.741  41.514   5.864
 3681POPC   GL147893  16.695  41.560   6.164
 3681POPC   GL247894  16.774  41.430   6.164
 3681POPC   C1A47895  16.708  41.511   6.464
 3681POPC   D2A47896  16.758  41.605   6.764
 3681POPC   C3A47897  16.778  41.553   7.064
 3681POPC   C4A47898  16.727  41.567   7.364
 3681POPC   C1B47899  16.737  41.306   6.464
 3681POPC   C2B47900  16.746  41.304   6.764
 3681POPC   C3B47901  16.794  41.297   7.064
 3681POPC   C4B47902  16.807  41.317   7.364
 3682POPC   NC347903   4.301  42.375   5.564
 3682POPC   PO447904   4.341  42.347   5.864
 3682POPC   GL147905   4.335  42.288   6.164
 3682POPC   GL247906   4.405  42.430   6.164
 3682POPC   C1A47907   4.287  42.350   6.464
 3682POPC   D2A47908   4.342  42.316   6.764
 3682POPC   C3A47909   4.320  42.298   7.064
 3682POPC   C4A47910   4.305  42.315   7.364
 3682POPC   C1B47911   4.366  42.546   6.464
 3682POPC   C2B47912   4.360  42.549   6.764
 3682POPC   C3B47913   4.403  42.600   7.064
 3682POPC   C4B47914   4.447  42.590   7.364
 3683POPC   NC347915  38.485  43.926   5.564
 3683POPC   PO447916  38.460  43.864   5.864
 3683POPC   GL147917  38.442  43.842   6.164
 3683POPC   GL247918  38.494  43.739   6.164
 3683POPC   C1A47919  38.480  43.907   6.464
 3683POPC   D2A47920  38.454  43.933   6.764
 3683POPC   C3A47921  38.437  43.919   7.064
 3683POPC   C4A47922  38.449  43.928   7.364
 3683POPC   C1B47923  38.501  43.607   6.464
 3683POPC   C2B47924  38.450  43.639   6.764
 3683POPC   C3B47925  38.471  43.632   7.064
 3683POPC   C4B47926  38.506  43.681   7.364
 3684POPC   NC347927   7.464  27.631   5.564
 3684POPC   PO447928   7.457  27.606   5.864
 3684POPC   GL147929   7.404  27.571   6.164
 3684POPC   GL247930   7.337  27.724   6.164
 3684POPC   C1A47931   7.412  27.567   6.464
 3684POPC   D2A47932   7.434  27.635   6.764
 3684POPC   C3A47933   7.467  27.587   7.064
 3684POPC   C4A47934   7.456  27.583   7.364
 3684POPC   C1B47935   7.244  27.734   6.464
 3684POPC   C2B47936   7.304  27.774   6.764
 3684POPC   C3B47937   7.247  27.768   7.064
 3684POPC   C4B47938   7.246  27.766   7.364
 3685POPC   NC347939  22.192   3.521   5.564
 3685POPC   PO447940  22.178   3.556   5.864
 3685POPC   GL147941  22.210   3.540   6.164
 3685POPC   GL247942  22.274   3.496   6.164
 3685POPC   C1A47943  22.166   3.582   6.464
 3685POPC   D2A47944  22.140   3.502   6.764
 3685POPC   C3A47945  22.188   3.561   7.064
 3685POPC   C4A47946  22.148   3.541   7.364
 3685POPC   C1B47947  22.375   3.503   6.464
 3685POPC   C2B47948  22.395   3.458   6.764
 3685POPC   C3B47949  22.378   3.506   7.064
 3685POPC   C4B47950  22.424   3.430   7.364
 3686POPC   NC347951  36.855  29.909   5.564
 3686POPC   PO447952  36.873  29.899   5.864
 3686POPC   GL147953  36.860  29.946   6.164
 3686POPC   GL247954  36.982  30.054   6.164
 3686POPC   C1A47955  36.886  29.961   6.464
 3686POPC   D2A47956  36.930  29.944   6.764
 3686POPC   C3A47957  36.942  29.889   7.064
 3686POPC   C4A47958  36.889  29.963   7.364
 3686POPC   C1B47959  37.023  30.147   6.464
 3686POPC   C2B47960  37.071  30.127   6.764
 3686POPC   C3B47961  37.081  30.132   7.064
 3686POPC   C4B47962  37.103  30.069   7.364
 3687POPC   NC347963  42.336  40.820   5.564
 3687POPC   PO447964  42.300  40.820   5.864
 3687POPC   GL147965  42.376  40.799   6.164
 3687POPC   GL247966  42.438  40.845   6.164
 3687POPC   C1A47967  42.332  40.734   6.464
 3687POPC   D2A47968  42.377  40.802   6.764
 3687POPC   C3A47969  42.299  40.763   7.064
 3687POPC   C4A47970  42.309  40.782   7.364
 3687POPC   C1B47971  42.575  40.874   6.464
 3687POPC   C2B47972  42.563  40.847   6.764
 3687POPC   C3B47973  42.552  40.797   7.064
 3687POPC   C4B47974  42.622  40.873   7.364
 3688POPC   NC347975   5.837   2.774   5.564
 3688POPC   PO447976   5.919   2.784   5.864
 3688POPC   GL147977   5.887   2.719   6.164
 3688POPC   GL247978   5.779   2.748   6.164
 3688POPC   C1A47979   5.882   2.717   6.464
 3688POPC   D2A47980   5.831   2.745   6.764
 3688POPC   C3A47981   5.872   2.729   7.064
 3688POPC   C4A47982   5.839   2.802   7.364
 3688POPC   C1B47983   5.631   2.786   6.464
 3688POPC   C2B47984   5.602   2.839   6.764
 3688POPC   C3B47985   5.642   2.838   7.064
 3688POPC   C4B47986   5.612   2.768   7.364
 3689POPC   NC347987  15.148  11.326   5.564
 3689POPC   PO447988  15.178  11.275   5.864
 3689POPC   GL147989  15.139  11.295   6.164
 3689POPC   GL247990  15.319  11.381   6.164
 3689POPC   C1A47991  15.229  11.280   6.464
 3689POPC   D2A47992  15.191  11.299   6.764
 3689POPC   C3A47993  15.176  11.321   7.064
 3689POPC   C4A47994  15.131  11.252   7.364
 3689POPC   C1B47995  15.353  11.415   6.464
 3689POPC   C2B47996  15.416  11.417   6.764
 3689POPC   C3B47997  15.411  11.496   7.064
 3689POPC   C4B47998  15.377  11.498   7.364
 3690POPC   NC347999  19.009  42.303   5.564
 3690POPC   PO448000  19.084  42.364   5.864
 3690POPC   GL148001  19.103  42.318   6.164
 3690POPC   GL248002  18.952  42.318   6.164
 3690POPC   C1A48003  19.046  42.304   6.464
 3690POPC   D2A48004  19.034  42.311   6.764
 3690POPC   C3A48005  19.104  42.308   7.064
 3690POPC   C4A48006  19.028  42.296   7.364
 3690POPC   C1B48007  18.855  42.301   6.464
 3690POPC   C2B48008  18.798  42.325   6.764
 3690POPC   C3B48009  18.773  42.267   7.064
 3690POPC   C4B48010  18.762  42.280   7.364
 3691POPC   NC348011  18.320  29.166   5.564
 3691POPC   PO448012  18.242  29.139   5.864
 3691POPC   GL148013  18.241  29.107   6.164
 3691POPC   GL248014  18.221  29.214   6.164
 3691POPC   C1A48015  18.314  29.173   6.464
 3691POPC   D2A48016  18.276  29.115   6.764
 3691POPC   C3A48017  18.291  29.111   7.064
 3691POPC   C4A48018  18.320  29.100   7.364
 3691POPC   C1B48019  18.116  29.344   6.464
 3691POPC   C2B48020  18.174  29.360   6.764
 3691POPC   C3B48021  18.135  29.397   7.064
 3691POPC   C4B48022  18.202  29.323   7.364
 3692POPC   NC348023  12.820  15.934   5.564
 3692POPC   PO448024  12.875  15.940   5.864
 3692POPC   GL148025  12.822  15.994   6.164
 3692POPC   GL248026  12.882  15.791   6.164
 3692POPC   C1A48027  12.869  15.941   6.464
 3692POPC   D2A48028  12.830  15.997   6.764
 3692POPC   C3A48029  12.864  15.970   7.064
 3692POPC   C4A48030  12.896  15.973   7.364
 3692POPC   C1B48031  12.848  15.674   6.464
 3692POPC   C2B48032  12.790  15.716   6.764
 3692POPC   C3B48033  12.809  15.735   7.064
 3692POPC   C4B48034  12.802  15.692   7.364
 3693POPC   NC348035  15.933   2.770   5.564
 3693POPC   PO448036  15.954   2.761   5.864
 3693POPC   GL148037  15.960   2.773   6.164
 3693POPC   GL248038  16.122   2.728   6.164
 3693POPC   C1A48039  15.993   2.736   6.464
 3693POPC   D2A48040  15.932   2.780   6.764
 3693POPC   C3A48041  15.987   2.777   7.064
 3693POPC   C4A48042  15.929   2.720   7.364
 3693POPC   C1B48043  16.159   2.710   6.464
 3693POPC   C2B48044  16.222   2.766   6.764
 3693POPC   C3B48045  16.202   2.764   7.064
 3693POPC   C4B48046  16.190   2.769   7.364
 3694POPC   NC348047   5.082  37.670   5.564
 3694POPC   PO448048   5.089  37.662   5.864
 3694POPC   GL148049   5.084  37.693   6.164
 3694POPC   GL248050   5.063  37.559   6.164
 3694POPC   C1A48051   5.122  37.685   6.464
 3694POPC   D2A48052   5.064  37.722   6.764
 3694POPC   C3A48053   5.072  37.630   7.064
 3694POPC   C4A48054   5.097  37.686   7.364
 3694POPC   C1B48055   4.993  37.441   6.464
 3694POPC   C2B48056   4.929  37.409   6.764
 3694POPC   C3B48057   5.012  37.484   7.064
 3694POPC   C4B48058   4.971  37.497   7.364
 3695POPC   NC348059   1.220  43.906   5.564
 3695POPC   PO448060   1.261  43.852   5.864
 3695POPC   GL148061   1.225  43.914   6.164
 3695POPC   GL248062   1.325  43.827   6.164
 3695POPC   C1A48063   1.210  43.907   6.464
 3695POPC   D2A48064   1.259  43.860   6.764
 3695POPC   C3A48065   1.249  43.841   7.064
 3695POPC   C4A48066   1.234  43.876   7.364
 3695POPC   C1B48067   1.392  43.748   6.464
 3695POPC   C2B48068   1.437  43.752   6.764
 3695POPC   C3B48069   1.480  43.770   7.064
 3695POPC   C4B48070   1.484  43.820   7.364
 3696POPC   NC348071   0.485  22.210   5.564
 3696POPC   PO448072   0.411  22.206   5.864
 3696POPC   GL148073   0.455  22.210   6.164
 3696POPC   GL248074   0.309  22.111   6.164
 3696POPC   C1A48075   0.452  22.171   6.464
 3696POPC   D2A48076   0.433  22.190   6.764
 3696POPC   C3A48077   0.455  22.211   7.064
 3696POPC   C4A48078   0.442  22.200   7.364
 3696POPC   C1B48079   0.194  22.155   6.464
 3696POPC   C2B48080   0.241  22.083   6.764
 3696POPC   C3B48081   0.199  22.066   7.064
 3696POPC   C4B48082   0.180  22.086   7.364
 3697POPC   NC348083  40.789  35.374   5.564
 3697POPC   PO448084  40.810  35.396   5.864
 3697POPC   GL148085  40.790  35.355   6.164
 3697POPC   GL248086  40.811  35.284   6.164
 3697POPC   C1A48087  40.734  35.303   6.464
 3697POPC   D2A48088  40.747  35.329   6.764
 3697POPC   C3A48089  40.791  35.363   7.064
 3697POPC   C4A48090  40.734  35.320   7.364
 3697POPC   C1B48091  40.898  35.129   6.464
 3697POPC   C2B48092  40.963  35.170   6.764
 3697POPC   C3B48093  40.980  35.191   7.064
 3697POPC   C4B48094  40.943  35.142   7.364
 3698POPC   NC348095  19.825  41.550   5.564
 3698POPC   PO448096  19.867  41.602   5.864
 3698POPC   GL148097  19.803  41.576   6.164
 3698POPC   GL248098  19.916  41.568   6.164
 3698POPC   C1A48099  19.836  41.543   6.464
 3698POPC   D2A48100  19.838  41.600   6.764
 3698POPC   C3A48101  19.845  41.509   7.064
 3698POPC   C4A48102  19.818  41.607   7.364
 3698POPC   C1B48103  20.033  41.643   6.464
 3698POPC   C2B48104  20.063  41.632   6.764
 3698POPC   C3B48105  20.119  41.584   7.064
 3698POPC   C4B48106  20.042  41.654   7.364
 3699POPC   NC348107  25.224  42.354   5.564
 3699POPC   PO448108  25.259  42.299   5.864
 3699POPC   GL148109  25.264  42.339   6.164
 3699POPC   GL248110  25.285  42.222   6.164
 3699POPC   C1A48111  25.248  42.300   6.464
 3699POPC   D2A48112  25.294  42.383   6.764
 3699POPC   C3A48113  25.305  42.375   7.064
 3699POPC   C4A48114  25.227  42.316   7.364
 3699POPC   C1B48115  25.372  42.133   6.464
 3699POPC   C2B48116  25.391  42.082   6.764
 3699POPC   C3B48117  25.389  42.084   7.064
 3699POPC   C4B48118  25.365  42.087   7.364
 3700POPC   NC348119   5.847  13.664   5.564
 3700POPC   PO448120   5.877  13.653   5.864
 3700POPC   GL148121   5.850  13.616   6.164
 3700POPC   GL248122   5.962  13.764   6.164
 3700POPC   C1A48123   5.914  13.630   6.464
 3700POPC   D2A48124   5.822  13.643   6.764
 3700POPC   C3A48125   5.890  13.674   7.064
 3700POPC   C4A48126   5.879  13.604   7.364
 3700POPC   C1B48127   6.040  13.839   6.464
 3700POPC   C2B48128   6.017  13.815   6.764
 3700POPC   C3B48129   6.001  13.873   7.064
 3700POPC   C4B48130   6.039  13.796   7.364
 3701POPC   NC348131  29.185  39.979   5.564
 3701POPC   PO448132  29.185  39.966   5.864
 3701POPC   GL148133  29.175  40.053   6.164
 3701POPC   GL248134  29.008  40.009   6.164
 3701POPC   C1A48135  29.185  39.981   6.464
 3701POPC   D2A48136  29.137  40.054   6.764
 3701POPC   C3A48137  29.104  40.042   7.064
 3701POPC   C4A48138  29.163  40.033   7.364
 3701POPC   C1B48139  28.878  39.988   6.464
 3701POPC   C2B48140  28.877  40.003   6.764
 3701POPC   C3B48141  28.887  40.019   7.064
 3701POPC   C4B48142  28.849  39.963   7.364
 3702POPC   NC348143  11.327   1.219   5.564
 3702POPC   PO448144  11.323   1.209   5.864
 3702POPC   GL148145  11.297   1.223   6.164
 3702POPC   GL248146  11.415   1.150   6.164
 3702POPC   C1A48147  11.317   1.231   6.464
 3702POPC   D2A48148  11.313   1.225   6.764
 3702POPC   C3A48149  11.255   1.192   7.064
 3702POPC   C4A48150  11.296   1.186   7.364
 3702POPC   C1B48151  11.497   1.036   6.464
 3702POPC   C2B48152  11.506   1.048   6.764
 3702POPC   C3B48153  11.480   1.094   7.064
 3702POPC   C4B48154  11.473   1.096   7.364
 3703POPC   NC348155   8.162   8.188   5.564
 3703POPC   PO448156   8.149   8.156   5.864
 3703POPC   GL148157   8.207   8.208   6.164
 3703POPC   GL248158   8.256   8.040   6.164
 3703POPC   C1A48159   8.189   8.153   6.464
 3703POPC   D2A48160   8.246   8.216   6.764
 3703POPC   C3A48161   8.236   8.215   7.064
 3703POPC   C4A48162   8.182   8.159   7.364
 3703POPC   C1B48163   8.269   7.960   6.464
 3703POPC   C2B48164   8.289   8.011   6.764
 3703POPC   C3B48165   8.318   7.980   7.064
 3703POPC   C4B48166   8.347   7.984   7.364
 3704POPC   NC348167  26.077   9.719   5.564
 3704POPC   PO448168  26.041   9.779   5.864
 3704POPC   GL148169  26.071   9.779   6.164
 3704POPC   GL248170  26.008   9.858   6.164
 3704POPC   C1A48171  26.068   9.745   6.464
 3704POPC   D2A48172  26.050   9.743   6.764
 3704POPC   C3A48173  26.002   9.759   7.064
 3704POPC   C4A48174  26.010   9.708   7.364
 3704POPC   C1B48175  25.875   9.946   6.464
 3704POPC   C2B48176  25.890   9.985   6.764
 3704POPC   C3B48177  25.914   9.932   7.064
 3704POPC   C4B48178  25.931   9.982   7.364
 3705POPC   NC348179  32.262   9.713   5.564
 3705POPC   PO448180  32.242   9.745   5.864
 3705POPC   GL148181  32.297   9.717   6.164
 3705POPC   GL248182  32.208   9.631   6.164
 3705POPC   C1A48183  32.252   9.766   6.464
 3705POPC   D2A48184  32.272   9.746   6.764
 3705POPC   C3A48185  32.287   9.710   7.064
 3705POPC   C4A48186  32.276   9.713   7.364
 3705POPC   C1B48187  32.133   9.555   6.464
 3705POPC   C2B48188  32.104   9.553   6.764
 3705POPC   C3B48189  32.055   9.505   7.064
 3705POPC   C4B48190  32.059   9.550   7.364
 3706POPC   NC348191  10.563  23.666   5.564
 3706POPC   PO448192  10.523  23.682   5.864
 3706POPC   GL148193  10.530  23.761   6.164
 3706POPC   GL248194  10.547  23.573   6.164
 3706POPC   C1A48195  10.500  23.739   6.464
 3706POPC   D2A48196  10.494  23.674   6.764
 3706POPC   C3A48197  10.540  23.668   7.064
 3706POPC   C4A48198  10.529  23.671   7.364
 3706POPC   C1B48199  10.618  23.471   6.464
 3706POPC   C2B48200  10.697  23.528   6.764
 3706POPC   C3B48201  10.640  23.492   7.064
 3706POPC   C4B48202  10.675  23.534   7.364
 3707POPC   NC348203  20.568  27.634   5.564
 3707POPC   PO448204  20.590  27.587   5.864
 3707POPC   GL148205  20.615  27.557   6.164
 3707POPC   GL248206  20.618  27.702   6.164
 3707POPC   C1A48207  20.601  27.561   6.464
 3707POPC   D2A48208  20.591  27.603   6.764
 3707POPC   C3A48209  20.658  27.556   7.064
 3707POPC   C4A48210  20.594  27.610   7.364
 3707POPC   C1B48211  20.637  27.793   6.464
 3707POPC   C2B48212  20.617  27.792   6.764
 3707POPC   C3B48213  20.648  27.858   7.064
 3707POPC   C4B48214  20.650  27.857   7.364
 3708POPC   NC348215   7.450  39.994   5.564
 3708POPC   PO448216   7.384  40.015   5.864
 3708POPC   GL148217   7.385  39.983   6.164
 3708POPC   GL248218   7.372  40.096   6.164
 3708POPC   C1A48219   7.404  40.055   6.464
 3708POPC   D2A48220   7.415  40.036   6.764
 3708POPC   C3A48221   7.441  39.985   7.064
 3708POPC   C4A48222   7.396  40.046   7.364
 3708POPC   C1B48223   7.265  40.222   6.464
 3708POPC   C2B48224   7.222  40.178   6.764
 3708POPC   C3B48225   7.252  40.229   7.064
 3708POPC   C4B48226   7.284  40.189   7.364
 3709POPC   NC348227  11.327  23.760   5.564
 3709POPC   PO448228  11.333  23.750   5.864
 3709POPC   GL148229  11.262  23.711   6.164
 3709POPC   GL248230  11.234  23.607   6.164
 3709POPC   C1A48231  11.299  23.720   6.464
 3709POPC   D2A48232  11.272  23.671   6.764
 3709POPC   C3A48233  11.299  23.741   7.064
 3709POPC   C4A48234  11.307  23.686   7.364
 3709POPC   C1B48235  11.189  23.516   6.464
 3709POPC   C2B48236  11.242  23.525   6.764
 3709POPC   C3B48237  11.241  23.460   7.064
 3709POPC   C4B48238  11.260  23.428   7.364
 3710POPC   NC348239   2.737  40.051   5.564
 3710POPC   PO448240   2.793  40.032   5.864
 3710POPC   GL148241   2.771  40.054   6.164
 3710POPC   GL248242   2.695  40.084   6.164
 3710POPC   C1A48243   2.800  40.052   6.464
 3710POPC   D2A48244   2.799  40.054   6.764
 3710POPC   C3A48245   2.735  40.046   7.064
 3710POPC   C4A48246   2.808  40.025   7.364
 3710POPC   C1B48247   2.568  40.028   6.464
 3710POPC   C2B48248   2.498  40.109   6.764
 3710POPC   C3B48249   2.517  40.112   7.064
 3710POPC   C4B48250   2.495  40.098   7.364
 3711POPC   NC348251  41.575  14.387   5.564
 3711POPC   PO448252  41.552  14.361   5.864
 3711POPC   GL148253  41.514  14.405   6.164
 3711POPC   GL248254  41.606  14.277   6.164
 3711POPC   C1A48255  41.525  14.374   6.464
 3711POPC   D2A48256  41.530  14.416   6.764
 3711POPC   C3A48257  41.572  14.426   7.064
 3711POPC   C4A48258  41.510  14.378   7.364
 3711POPC   C1B48259  41.752  14.228   6.464
 3711POPC   C2B48260  41.779  14.200   6.764
 3711POPC   C3B48261  41.723  14.247   7.064
 3711POPC   C4B48262  41.724  14.221   7.364
 3712POPC   NC348263  22.900  15.220   5.564
 3712POPC   PO448264  22.900  15.158   5.864
 3712POPC   GL148265  22.924  15.182   6.164
 3712POPC   GL248266  22.807  15.162   6.164
 3712POPC   C1A48267  22.906  15.135   6.464
 3712POPC   D2A48268  22.929  15.211   6.764
 3712POPC   C3A48269  22.909  15.161   7.064
 3712POPC   C4A48270  22.947  15.137   7.364
 3712POPC   C1B48271  22.676  15.111   6.464
 3712POPC   C2B48272  22.673  15.049   6.764
 3712POPC   C3B48273  22.702  15.064   7.064
 3712POPC   C4B48274  22.731  15.082   7.364
 3713POPC   NC348275  22.127   2.004   5.564
 3713POPC   PO448276  22.137   2.022   5.864
 3713POPC   GL148277  22.201   1.949   6.164
 3713POPC   GL248278  22.231   2.101   6.164
 3713POPC   C1A48279  22.120   2.007   6.464
 3713POPC   D2A48280  22.162   1.974   6.764
 3713POPC   C3A48281  22.171   1.962   7.064
 3713POPC   C4A48282  22.133   2.004   7.364
 3713POPC   C1B48283  22.221   2.239   6.464
 3713POPC   C2B48284  22.234   2.242   6.764
 3713POPC   C3B48285  22.209   2.277   7.064
 3713POPC   C4B48286  22.242   2.251   7.364
 3714POPC   NC348287  23.698   9.797   5.564
 3714POPC   PO448288  23.676   9.746   5.864
 3714POPC   GL148289  23.727   9.750   6.164
 3714POPC   GL248290  23.709   9.886   6.164
 3714POPC   C1A48291  23.676   9.710   6.464
 3714POPC   D2A48292  23.736   9.734   6.764
 3714POPC   C3A48293  23.690   9.707   7.064
 3714POPC   C4A48294  23.738   9.744   7.364
 3714POPC   C1B48295  23.693   9.999   6.464
 3714POPC   C2B48296  23.664  10.012   6.764
 3714POPC   C3B48297  23.679  10.044   7.064
 3714POPC   C4B48298  23.681  10.041   7.364
 3715POPC   NC348299  32.254  16.706   5.564
 3715POPC   PO448300  32.248  16.755   5.864
 3715POPC   GL148301  32.229  16.683   6.164
 3715POPC   GL248302  32.280  16.630   6.164
 3715POPC   C1A48303  32.217  16.752   6.464
 3715POPC   D2A48304  32.275  16.772   6.764
 3715POPC   C3A48305  32.283  16.724   7.064
 3715POPC   C4A48306  32.281  16.764   7.364
 3715POPC   C1B48307  32.393  16.512   6.464
 3715POPC   C2B48308  32.378  16.569   6.764
 3715POPC   C3B48309  32.369  16.501   7.064
 3715POPC   C4B48310  32.407  16.495   7.364
 3716POPC   NC348311  11.278  15.136   5.564
 3716POPC   PO448312  11.338  15.154   5.864
 3716POPC   GL148313  11.255  15.136   6.164
 3716POPC   GL248314  11.304  15.011   6.164
 3716POPC   C1A48315  11.259  15.208   6.464
 3716POPC   D2A48316  11.289  15.164   6.764
 3716POPC   C3A48317  11.297  15.147   7.064
 3716POPC   C4A48318  11.324  15.174   7.364
 3716POPC   C1B48319  11.335  14.963   6.464
 3716POPC   C2B48320  11.299  14.927   6.764
 3716POPC   C3B48321  11.349  14.970   7.064
 3716POPC   C4B48322  11.319  14.913   7.364
 3717POPC   NC348323  17.523  18.265   5.564
 3717POPC   PO448324  17.552  18.325   5.864
 3717POPC   GL148325  17.494  18.257   6.164
 3717POPC   GL248326  17.388  18.261   6.164
 3717POPC   C1A48327  17.507  18.290   6.464
 3717POPC   D2A48328  17.461  18.276   6.764
 3717POPC   C3A48329  17.508  18.327   7.064
 3717POPC   C4A48330  17.494  18.319   7.364
 3717POPC   C1B48331  17.315  18.158   6.464
 3717POPC   C2B48332  17.313  18.173   6.764
 3717POPC   C3B48333  17.338  18.105   7.064
 3717POPC   C4B48334  17.332  18.146   7.364
 3718POPC   NC348335   5.080   5.838   5.564
 3718POPC   PO448336   5.108   5.836   5.864
 3718POPC   GL148337   5.132   5.865   6.164
 3718POPC   GL248338   5.025   5.768   6.164
 3718POPC   C1A48339   5.134   5.918   6.464
 3718POPC   D2A48340   5.115   5.846   6.764
 3718POPC   C3A48341   5.072   5.895   7.064
 3718POPC   C4A48342   5.061   5.847   7.364
 3718POPC   C1B48343   5.052   5.633   6.464
 3718POPC   C2B48344   5.011   5.683   6.764
 3718POPC   C3B48345   4.977   5.605   7.064
 3718POPC   C4B48346   5.038   5.593   7.364
 3719POPC   NC348347  21.376   2.029   5.564
 3719POPC   PO448348  21.435   2.038   5.864
 3719POPC   GL148349  21.387   2.025   6.164
 3719POPC   GL248350  21.277   2.000   6.164
 3719POPC   C1A48351  21.403   2.002   6.464
 3719POPC   D2A48352  21.344   2.038   6.764
 3719POPC   C3A48353  21.359   1.984   7.064
 3719POPC   C4A48354  21.376   2.034   7.364
 3719POPC   C1B48355  21.170   2.058   6.464
 3719POPC   C2B48356  21.106   2.058   6.764
 3719POPC   C3B48357  21.092   1.976   7.064
 3719POPC   C4B48358  21.138   1.989   7.364
 3720POPC   NC348359  39.213   7.460   5.564
 3720POPC   PO448360  39.216   7.378   5.864
 3720POPC   GL148361  39.187   7.372   6.164
 3720POPC   GL248362  39.120   7.409   6.164
 3720POPC   C1A48363  39.200   7.469   6.464
 3720POPC   D2A48364  39.275   7.433   6.764
 3720POPC   C3A48365  39.213   7.445   7.064
 3720POPC   C4A48366  39.200   7.462   7.364
 3720POPC   C1B48367  38.987   7.315   6.464
 3720POPC   C2B48368  39.039   7.348   6.764
 3720POPC   C3B48369  39.041   7.342   7.064
 3720POPC   C4B48370  39.004   7.380   7.364
 3721POPC   NC348371   2.717  21.397   5.564
 3721POPC   PO448372   2.759  21.420   5.864
 3721POPC   GL148373   2.812  21.385   6.164
 3721POPC   GL248374   2.659  21.378   6.164
 3721POPC   C1A48375   2.780  21.356   6.464
 3721POPC   D2A48376   2.801  21.383   6.764
 3721POPC   C3A48377   2.781  21.389   7.064
 3721POPC   C4A48378   2.749  21.402   7.364
 3721POPC   C1B48379   2.482  21.406   6.464
 3721POPC   C2B48380   2.540  21.435   6.764
 3721POPC   C3B48381   2.498  21.492   7.064
 3721POPC   C4B48382   2.506  21.428   7.364
 3722POPC   NC348383  14.381  24.482   5.564
 3722POPC   PO448384  14.382  24.462   5.864
 3722POPC   GL148385  14.420  24.469   6.164
 3722POPC   GL248386  14.369  24.349   6.164
 3722POPC   C1A48387  14.403  24.470   6.464
 3722POPC   D2A48388  14.396  24.514   6.764
 3722POPC   C3A48389  14.385  24.530   7.064
 3722POPC   C4A48390  14.438  24.480   7.364
 3722POPC   C1B48391  14.416  24.245   6.464
 3722POPC   C2B48392  14.401  24.191   6.764
 3722POPC   C3B48393  14.363  24.202   7.064
 3722POPC   C4B48394  14.430  24.262   7.364
 3723POPC   NC348395   6.627  16.761   5.564
 3723POPC   PO448396   6.651  16.751   5.864
 3723POPC   GL148397   6.655  16.696   6.164
 3723POPC   GL248398   6.584  16.853   6.164
 3723POPC   C1A48399   6.669  16.744   6.464
 3723POPC   D2A48400   6.605  16.721   6.764
 3723POPC   C3A48401   6.689  16.710   7.064
 3723POPC   C4A48402   6.604  16.773   7.364
 3723POPC   C1B48403   6.535  16.960   6.464
 3723POPC   C2B48404   6.593  17.000   6.764
 3723POPC   C3B48405   6.560  16.986   7.064
 3723POPC   C4B48406   6.530  16.935   7.364
 3724POPC   NC348407  12.859  30.740   5.564
 3724POPC   PO448408  12.892  30.674   5.864
 3724POPC   GL148409  12.829  30.659   6.164
 3724POPC   GL248410  12.931  30.629   6.164
 3724POPC   C1A48411  12.827  30.737   6.464
 3724POPC   D2A48412  12.809  30.743   6.764
 3724POPC   C3A48413  12.806  30.665   7.064
 3724POPC   C4A48414  12.809  30.718   7.364
 3724POPC   C1B48415  13.025  30.537   6.464
 3724POPC   C2B48416  13.008  30.469   6.764
 3724POPC   C3B48417  13.023  30.497   7.064
 3724POPC   C4B48418  13.031  30.525   7.364
 3725POPC   NC348419   5.132   7.427   5.564
 3725POPC   PO448420   5.128   7.454   5.864
 3725POPC   GL148421   5.100   7.406   6.164
 3725POPC   GL248422   5.032   7.365   6.164
 3725POPC   C1A48423   5.115   7.412   6.464
 3725POPC   D2A48424   5.141   7.464   6.764
 3725POPC   C3A48425   5.088   7.380   7.064
 3725POPC   C4A48426   5.119   7.403   7.364
 3725POPC   C1B48427   4.904   7.270   6.464
 3725POPC   C2B48428   4.892   7.215   6.764
 3725POPC   C3B48429   4.940   7.196   7.064
 3725POPC   C4B48430   4.949   7.208   7.364
 3726POPC   NC348431  16.751  34.558   5.564
 3726POPC   PO448432  16.770  34.605   5.864
 3726POPC   GL148433  16.752  34.611   6.164
 3726POPC   GL248434  16.668  34.484   6.164
 3726POPC   C1A48435  16.708  34.579   6.464
 3726POPC   D2A48436  16.714  34.575   6.764
 3726POPC   C3A48437  16.761  34.588   7.064
 3726POPC   C4A48438  16.737  34.568   7.364
 3726POPC   C1B48439  16.630  34.381   6.464
 3726POPC   C2B48440  16.597  34.384   6.764
 3726POPC   C3B48441  16.675  34.375   7.064
 3726POPC   C4B48442  16.644  34.374   7.364
 3727POPC   NC348443  36.950   9.778   5.564
 3727POPC   PO448444  36.871   9.737   5.864
 3727POPC   GL148445  36.941   9.797   6.164
 3727POPC   GL248446  36.954   9.851   6.164
 3727POPC   C1A48447  36.890   9.741   6.464
 3727POPC   D2A48448  36.898   9.797   6.764
 3727POPC   C3A48449  36.902   9.785   7.064
 3727POPC   C4A48450  36.910   9.789   7.364
 3727POPC   C1B48451  37.037   9.932   6.464
 3727POPC   C2B48452  36.993   9.974   6.764
 3727POPC   C3B48453  37.027   9.968   7.064
 3727POPC   C4B48454  36.951   9.965   7.364
 3728POPC   NC348455  11.286  22.162   5.564
 3728POPC   PO448456  11.315  22.155   5.864
 3728POPC   GL148457  11.348  22.184   6.164
 3728POPC   GL248458  11.425  22.252   6.164
 3728POPC   C1A48459  11.264  22.151   6.464
 3728POPC   D2A48460  11.281  22.135   6.764
 3728POPC   C3A48461  11.277  22.203   7.064
 3728POPC   C4A48462  11.320  22.178   7.364
 3728POPC   C1B48463  11.464  22.377   6.464
 3728POPC   C2B48464  11.437  22.370   6.764
 3728POPC   C3B48465  11.439  22.355   7.064
 3728POPC   C4B48466  11.505  22.355   7.364
 3729POPC   NC348467  12.110  36.893   5.564
 3729POPC   PO448468  12.064  36.934   5.864
 3729POPC   GL148469  12.054  36.885   6.164
 3729POPC   GL248470  11.992  36.902   6.164
 3729POPC   C1A48471  12.122  36.942   6.464
 3729POPC   D2A48472  12.078  36.931   6.764
 3729POPC   C3A48473  12.119  36.898   7.064
 3729POPC   C4A48474  12.102  36.927   7.364
 3729POPC   C1B48475  11.831  36.819   6.464
 3729POPC   C2B48476  11.841  36.791   6.764
 3729POPC   C3B48477  11.860  36.773   7.064
 3729POPC   C4B48478  11.860  36.848   7.364
 3730POPC   NC348479   5.872  20.659   5.564
 3730POPC   PO448480   5.823  20.602   5.864
 3730POPC   GL148481   5.879  20.652   6.164
 3730POPC   GL248482   6.042  20.634   6.164
 3730POPC   C1A48483   5.826  20.609   6.464
 3730POPC   D2A48484   5.820  20.601   6.764
 3730POPC   C3A48485   5.844  20.598   7.064
 3730POPC   C4A48486   5.902  20.657   7.364
 3730POPC   C1B48487   6.073  20.579   6.464
 3730POPC   C2B48488   6.093  20.541   6.764
 3730POPC   C3B48489   6.144  20.617   7.064
 3730POPC   C4B48490   6.129  20.574   7.364
 3731POPC   NC348491  22.198  40.807   5.564
 3731POPC   PO448492  22.126  40.800   5.864
 3731POPC   GL148493  22.127  40.794   6.164
 3731POPC   GL248494  22.167  40.951   6.164
 3731POPC   C1A48495  22.168  40.767   6.464
 3731POPC   D2A48496  22.127  40.738   6.764
 3731POPC   C3A48497  22.150  40.769   7.064
 3731POPC   C4A48498  22.133  40.772   7.364
 3731POPC   C1B48499  22.196  41.025   6.464
 3731POPC   C2B48500  22.140  41.055   6.764
 3731POPC   C3B48501  22.198  41.023   7.064
 3731POPC   C4B48502  22.210  41.022   7.364
 3732POPC   NC348503  24.473   3.517   5.564
 3732POPC   PO448504  24.510   3.544   5.864
 3732POPC   GL148505  24.531   3.550   6.164
 3732POPC   GL248506  24.414   3.657   6.164
 3732POPC   C1A48507  24.452   3.561   6.464
 3732POPC   D2A48508  24.530   3.523   6.764
 3732POPC   C3A48509  24.442   3.565   7.064
 3732POPC   C4A48510  24.461   3.511   7.364
 3732POPC   C1B48511  24.349   3.730   6.464
 3732POPC   C2B48512  24.315   3.735   6.764
 3732POPC   C3B48513  24.310   3.707   7.064
 3732POPC   C4B48514  24.331   3.683   7.364
 3733POPC   NC348515  22.206  16.767   5.564
 3733POPC   PO448516  22.141  16.689   5.864
 3733POPC   GL148517  22.169  16.781   6.164
 3733POPC   GL248518  22.019  16.713   6.164
 3733POPC   C1A48519  22.115  16.766   6.464
 3733POPC   D2A48520  22.168  16.734   6.764
 3733POPC   C3A48521  22.166  16.696   7.064
 3733POPC   C4A48522  22.210  16.753   7.364
 3733POPC   C1B48523  21.901  16.579   6.464
 3733POPC   C2B48524  21.900  16.651   6.764
 3733POPC   C3B48525  21.938  16.567   7.064
 3733POPC   C4B48526  21.948  16.570   7.364
 3734POPC   NC348527  43.874  13.624   5.564
 3734POPC   PO448528  43.863  13.578   5.864
 3734POPC   GL148529  43.874  13.591   6.164
 3734POPC   GL248530  43.850  13.784   6.164
 3734POPC   C1A48531  43.848  13.610   6.464
 3734POPC   D2A48532  43.857  13.635   6.764
 3734POPC   C3A48533  43.856  13.612   7.064
 3734POPC   C4A48534  43.908  13.652   7.364
 3734POPC   C1B48535  43.882  13.865   6.464
 3734POPC   C2B48536  43.860  13.891   6.764
 3734POPC   C3B48537  43.860  13.881   7.064
 3734POPC   C4B48538  43.816  13.844   7.364
 3735POPC   NC348539  42.321   5.839   5.564
 3735POPC   PO448540  42.354   5.826   5.864
 3735POPC   GL148541  42.306   5.854   6.164
 3735POPC   GL248542  42.279   5.805   6.164
 3735POPC   C1A48543  42.340   5.849   6.464
 3735POPC   D2A48544  42.354   5.887   6.764
 3735POPC   C3A48545  42.360   5.836   7.064
 3735POPC   C4A48546  42.340   5.852   7.364
 3735POPC   C1B48547  42.119   5.707   6.464
 3735POPC   C2B48548  42.177   5.655   6.764
 3735POPC   C3B48549  42.153   5.685   7.064
 3735POPC   C4B48550  42.117   5.681   7.364
 3736POPC   NC348551  37.657  36.128   5.564
 3736POPC   PO448552  37.704  36.132   5.864
 3736POPC   GL148553  37.671  36.144   6.164
 3736POPC   GL248554  37.757  36.279   6.164
 3736POPC   C1A48555  37.716  36.111   6.464
 3736POPC   D2A48556  37.682  36.166   6.764
 3736POPC   C3A48557  37.724  36.173   7.064
 3736POPC   C4A48558  37.713  36.149   7.364
 3736POPC   C1B48559  37.784  36.301   6.464
 3736POPC   C2B48560  37.837  36.375   6.764
 3736POPC   C3B48561  37.763  36.390   7.064
 3736POPC   C4B48562  37.845  36.363   7.364
 3737POPC   NC348563   6.643  10.499   5.564
 3737POPC   PO448564   6.678  10.568   5.864
 3737POPC   GL148565   6.629  10.486   6.164
 3737POPC   GL248566   6.773  10.478   6.164
 3737POPC   C1A48567   6.674  10.490   6.464
 3737POPC   D2A48568   6.597  10.499   6.764
 3737POPC   C3A48569   6.667  10.476   7.064
 3737POPC   C4A48570   6.652  10.486   7.364
 3737POPC   C1B48571   6.862  10.465   6.464
 3737POPC   C2B48572   6.904  10.451   6.764
 3737POPC   C3B48573   6.870  10.380   7.064
 3737POPC   C4B48574   6.915  10.391   7.364
 3738POPC   NC348575  34.557  42.304   5.564
 3738POPC   PO448576  34.609  42.306   5.864
 3738POPC   GL148577  34.587  42.358   6.164
 3738POPC   GL248578  34.486  42.394   6.164
 3738POPC   C1A48579  34.569  42.301   6.464
 3738POPC   D2A48580  34.574  42.325   6.764
 3738POPC   C3A48581  34.611  42.295   7.064
 3738POPC   C4A48582  34.606  42.330   7.364
 3738POPC   C1B48583  34.403  42.518   6.464
 3738POPC   C2B48584  34.392  42.460   6.764
 3738POPC   C3B48585  34.354  42.489   7.064
 3738POPC   C4B48586  34.407  42.502   7.364
 3739POPC   NC348587  41.606  36.117   5.564
 3739POPC   PO448588  41.530  36.105   5.864
 3739POPC   GL148589  41.533  36.168   6.164
 3739POPC   GL248590  41.531  36.268   6.164
 3739POPC   C1A48591  41.557  36.130   6.464
 3739POPC   D2A48592  41.513  36.176   6.764
 3739POPC   C3A48593  41.591  36.121   7.064
 3739POPC   C4A48594  41.553  36.161   7.364
 3739POPC   C1B48595  41.422  36.359   6.464
 3739POPC   C2B48596  41.432  36.385   6.764
 3739POPC   C3B48597  41.480  36.313   7.064
 3739POPC   C4B48598  41.479  36.381   7.364
 3740POPC   NC348599   1.216  13.642   5.564
 3740POPC   PO448600   1.166  13.605   5.864
 3740POPC   GL148601   1.213  13.671   6.164
 3740POPC   GL248602   1.128  13.659   6.164
 3740POPC   C1A48603   1.233  13.624   6.464
 3740POPC   D2A48604   1.234  13.585   6.764
 3740POPC   C3A48605   1.243  13.586   7.064
 3740POPC   C4A48606   1.248  13.630   7.364
 3740POPC   C1B48607   0.990  13.612   6.464
 3740POPC   C2B48608   0.917  13.623   6.764
 3740POPC   C3B48609   0.935  13.612   7.064
 3740POPC   C4B48610   0.927  13.564   7.364
 3741POPC   NC348611  19.882  43.846   5.564
 3741POPC   PO448612  19.861  43.849   5.864
 3741POPC   GL148613  19.826  43.857   6.164
 3741POPC   GL248614  19.851  43.959   6.164
 3741POPC   C1A48615  19.787  43.935   6.464
 3741POPC   D2A48616  19.870  43.900   6.764
 3741POPC   C3A48617  19.833  43.915   7.064
 3741POPC   C4A48618  19.840  43.867   7.364
 3741POPC   C1B48619  19.885  44.099   6.464
 3741POPC   C2B48620  19.907  44.159   6.764
 3741POPC   C3B48621  19.927  44.144   7.064
 3741POPC   C4B48622  19.956  44.107   7.364
 3742POPC   NC348623  16.684  14.399   5.564
 3742POPC   PO448624  16.762  14.423   5.864
 3742POPC   GL148625  16.776  14.433   6.164
 3742POPC   GL248626  16.829  14.329   6.164
 3742POPC   C1A48627  16.759  14.417   6.464
 3742POPC   D2A48628  16.765  14.425   6.764
 3742POPC   C3A48629  16.760  14.412   7.064
 3742POPC   C4A48630  16.707  14.368   7.364
 3742POPC   C1B48631  16.871  14.184   6.464
 3742POPC   C2B48632  16.824  14.177   6.764
 3742POPC   C3B48633  16.815  14.222   7.064
 3742POPC   C4B48634  16.877  14.139   7.364
 3743POPC   NC348635  15.139  37.706   5.564
 3743POPC   PO448636  15.166  37.699   5.864
 3743POPC   GL148637  15.154  37.636   6.164
 3743POPC   GL248638  15.234  37.743   6.164
 3743POPC   C1A48639  15.211  37.637   6.464
 3743POPC   D2A48640  15.159  37.655   6.764
 3743POPC   C3A48641  15.202  37.681   7.064
 3743POPC   C4A48642  15.176  37.655   7.364
 3743POPC   C1B48643  15.317  37.865   6.464
 3743POPC   C2B48644  15.343  37.842   6.764
 3743POPC   C3B48645  15.346  37.847   7.064
 3743POPC   C4B48646  15.292  37.827   7.364
 3744POPC   NC348647   4.285  11.252   5.564
 3744POPC   PO448648   4.357  11.271   5.864
 3744POPC   GL148649   4.313  11.313   6.164
 3744POPC   GL248650   4.423  11.251   6.164
 3744POPC   C1A48651   4.288  11.331   6.464
 3744POPC   D2A48652   4.272  11.310   6.764
 3744POPC   C3A48653   4.322  11.310   7.064
 3744POPC   C4A48654   4.361  11.342   7.364
 3744POPC   C1B48655   4.526  11.160   6.464
 3744POPC   C2B48656   4.480  11.120   6.764
 3744POPC   C3B48657   4.490  11.083   7.064
 3744POPC   C4B48658   4.441  11.140   7.364
 3745POPC   NC348659  22.162  29.145   5.564
 3745POPC   PO448660  22.198  29.167   5.864
 3745POPC   GL148661  22.176  29.177   6.164
 3745POPC   GL248662  22.154  29.052   6.164
 3745POPC   C1A48663  22.157  29.170   6.464
 3745POPC   D2A48664  22.208  29.133   6.764
 3745POPC   C3A48665  22.153  29.142   7.064
 3745POPC   C4A48666  22.192  29.131   7.364
 3745POPC   C1B48667  22.225  28.904   6.464
 3745POPC   C2B48668  22.184  28.935   6.764
 3745POPC   C3B48669  22.225  28.871   7.064
 3745POPC   C4B48670  22.231  28.877   7.364
 3746POPC   NC348671  34.544  23.687   5.564
 3746POPC   PO448672  34.537  23.689   5.864
 3746POPC   GL148673  34.609  23.727   6.164
 3746POPC   GL248674  34.563  23.624   6.164
 3746POPC   C1A48675  34.551  23.691   6.464
 3746POPC   D2A48676  34.598  23.689   6.764
 3746POPC   C3A48677  34.572  23.753   7.064
 3746POPC   C4A48678  34.548  23.685   7.364
 3746POPC   C1B48679  34.535  23.443   6.464
 3746POPC   C2B48680  34.456  23.528   6.764
 3746POPC   C3B48681  34.501  23.446   7.064
 3746POPC   C4B48682  34.507  23.468   7.364
 3747POPC   NC348683  37.654  17.502   5.564
 3747POPC   PO448684  37.643  17.510   5.864
 3747POPC   GL148685  37.681  17.537   6.164
 3747POPC   GL248686  37.701  17.663   6.164
 3747POPC   C1A48687  37.676  17.545   6.464
 3747POPC   D2A48688  37.649  17.544   6.764
 3747POPC   C3A48689  37.684  17.503   7.064
 3747POPC   C4A48690  37.678  17.485   7.364
 3747POPC   C1B48691  37.718  17.707   6.464
 3747POPC   C2B48692  37.769  17.736   6.764
 3747POPC   C3B48693  37.801  17.698   7.064
 3747POPC   C4B48694  37.773  17.747   7.364
 3748POPC   NC348695  39.208   6.687   5.564
 3748POPC   PO448696  39.251   6.681   5.864
 3748POPC   GL148697  39.279   6.694   6.164
 3748POPC   GL248698  39.188   6.538   6.164
 3748POPC   C1A48699  39.239   6.602   6.464
 3748POPC   D2A48700  39.209   6.672   6.764
 3748POPC   C3A48701  39.193   6.669   7.064
 3748POPC   C4A48702  39.184   6.606   7.364
 3748POPC   C1B48703  39.013   6.443   6.464
 3748POPC   C2B48704  39.099   6.513   6.764
 3748POPC   C3B48705  39.095   6.495   7.064
 3748POPC   C4B48706  39.021   6.501   7.364
 3749POPC   NC348707  15.227  31.497   5.564
 3749POPC   PO448708  15.186  31.427   5.864
 3749POPC   GL148709  15.158  31.522   6.164
 3749POPC   GL248710  15.309  31.514   6.164
 3749POPC   C1A48711  15.218  31.490   6.464
 3749POPC   D2A48712  15.202  31.502   6.764
 3749POPC   C3A48713  15.209  31.459   7.064
 3749POPC   C4A48714  15.192  31.477   7.364
 3749POPC   C1B48715  15.458  31.538   6.464
 3749POPC   C2B48716  15.445  31.594   6.764
 3749POPC   C3B48717  15.378  31.528   7.064
 3749POPC   C4B48718  15.431  31.569   7.364
 3750POPC   NC348719   9.729  38.477   5.564
 3750POPC   PO448720   9.705  38.460   5.864
 3750POPC   GL148721   9.700  38.421   6.164
 3750POPC   GL248722   9.661  38.446   6.164
 3750POPC   C1A48723   9.761  38.474   6.464
 3750POPC   D2A48724   9.763  38.474   6.764
 3750POPC   C3A48725   9.722  38.470   7.064
 3750POPC   C4A48726   9.733  38.489   7.364
 3750POPC   C1B48727   9.539  38.394   6.464
 3750POPC   C2B48728   9.538  38.427   6.764
 3750POPC   C3B48729   9.473  38.448   7.064
 3750POPC   C4B48730   9.518  38.392   7.364
 3751POPC   NC348731  42.354  39.961   5.564
 3751POPC   PO448732  42.380  40.046   5.864
 3751POPC   GL148733  42.332  39.963   6.164
 3751POPC   GL248734  42.292  39.913   6.164
 3751POPC   C1A48735  42.291  40.015   6.464
 3751POPC   D2A48736  42.338  40.055   6.764
 3751POPC   C3A48737  42.352  40.028   7.064
 3751POPC   C4A48738  42.305  40.053   7.364
 3751POPC   C1B48739  42.201  39.807   6.464
 3751POPC   C2B48740  42.202  39.766   6.764
 3751POPC   C3B48741  42.137  39.814   7.064
 3751POPC   C4B48742  42.172  39.772   7.364
 3752POPC   NC348743  22.934  33.765   5.564
 3752POPC   PO448744  22.946  33.843   5.864
 3752POPC   GL148745  22.919  33.825   6.164
 3752POPC   GL248746  22.987  33.879   6.164
 3752POPC   C1A48747  22.934  33.770   6.464
 3752POPC   D2A48748  22.952  33.822   6.764
 3752POPC   C3A48749  22.888  33.827   7.064
 3752POPC   C4A48750  22.972  33.818   7.364
 3752POPC   C1B48751  23.107  33.997   6.464
 3752POPC   C2B48752  23.086  34.054   6.764
 3752POPC   C3B48753  23.046  34.013   7.064
 3752POPC   C4B48754  23.064  34.003   7.364
 3753POPC   NC348755  14.431   2.006   5.564
 3753POPC   PO448756  14.371   1.941   5.864
 3753POPC   GL148757  14.354   2.017   6.164
 3753POPC   GL248758  14.313   2.084   6.164
 3753POPC   C1A48759  14.388   2.023   6.464
 3753POPC   D2A48760  14.403   2.023   6.764
 3753POPC   C3A48761  14.450   2.016   7.064
 3753POPC   C4A48762  14.415   1.965   7.364
 3753POPC   C1B48763  14.302   2.227   6.464
 3753POPC   C2B48764  14.260   2.144   6.764
 3753POPC   C3B48765  14.241   2.164   7.064
 3753POPC   C4B48766  14.281   2.228   7.364
 3754POPC   NC348767  28.399  19.878   5.564
 3754POPC   PO448768  28.346  19.835   5.864
 3754POPC   GL148769  28.366  19.798   6.164
 3754POPC   GL248770  28.455  19.808   6.164
 3754POPC   C1A48771  28.351  19.798   6.464
 3754POPC   D2A48772  28.404  19.836   6.764
 3754POPC   C3A48773  28.403  19.812   7.064
 3754POPC   C4A48774  28.360  19.786   7.364
 3754POPC   C1B48775  28.600  19.880   6.464
 3754POPC   C2B48776  28.584  19.881   6.764
 3754POPC   C3B48777  28.652  19.875   7.064
 3754POPC   C4B48778  28.606  19.882   7.364
 3755POPC   NC348779   1.955   2.782   5.564
 3755POPC   PO448780   2.001   2.790   5.864
 3755POPC   GL148781   2.032   2.728   6.164
 3755POPC   GL248782   1.883   2.704   6.164
 3755POPC   C1A48783   1.991   2.757   6.464
 3755POPC   D2A48784   1.982   2.777   6.764
 3755POPC   C3A48785   2.010   2.719   7.064
 3755POPC   C4A48786   1.944   2.721   7.364
 3755POPC   C1B48787   1.863   2.599   6.464
 3755POPC   C2B48788   1.860   2.548   6.764
 3755POPC   C3B48789   1.810   2.595   7.064
 3755POPC   C4B48790   1.863   2.587   7.364
 3756POPC   NC348791  27.577  42.373   5.564
 3756POPC   PO448792  27.576  42.383   5.864
 3756POPC   GL148793  27.604  42.334   6.164
 3756POPC   GL248794  27.589  42.470   6.164
 3756POPC   C1A48795  27.620  42.309   6.464
 3756POPC   D2A48796  27.559  42.322   6.764
 3756POPC   C3A48797  27.617  42.310   7.064
 3756POPC   C4A48798  27.582  42.286   7.364
 3756POPC   C1B48799  27.560  42.627   6.464
 3756POPC   C2B48800  27.646  42.605   6.764
 3756POPC   C3B48801  27.593  42.541   7.064
 3756POPC   C4B48802  27.601  42.543   7.364
 3757POPC   NC348803  12.862  28.392   5.564
 3757POPC   PO448804  12.899  28.416   5.864
 3757POPC   GL148805  12.818  28.342   6.164
 3757POPC   GL248806  12.748  28.471   6.164
 3757POPC   C1A48807  12.833  28.386   6.464
 3757POPC   D2A48808  12.895  28.346   6.764
 3757POPC   C3A48809  12.834  28.325   7.064
 3757POPC   C4A48810  12.803  28.366   7.364
 3757POPC   C1B48811  12.672  28.562   6.464
 3757POPC   C2B48812  12.705  28.566   6.764
 3757POPC   C3B48813  12.692  28.576   7.064
 3757POPC   C4B48814  12.653  28.581   7.364
 3758POPC   NC348815  36.905   4.288   5.564
 3758POPC   PO448816  36.891   4.279   5.864
 3758POPC   GL148817  36.953   4.354   6.164
 3758POPC   GL248818  36.925   4.240   6.164
 3758POPC   C1A48819  36.887   4.271   6.464
 3758POPC   D2A48820  36.887   4.324   6.764
 3758POPC   C3A48821  36.881   4.319   7.064
 3758POPC   C4A48822  36.872   4.330   7.364
 3758POPC   C1B48823  36.986   4.097   6.464
 3758POPC   C2B48824  36.994   4.069   6.764
 3758POPC   C3B48825  36.961   4.038   7.064
 3758POPC   C4B48826  36.929   4.080   7.364
 3759POPC   NC348827  16.742  11.260   5.564
 3759POPC   PO448828  16.694  11.291   5.864
 3759POPC   GL148829  16.694  11.297   6.164
 3759POPC   GL248830  16.677  11.455   6.164
 3759POPC   C1A48831  16.702  11.253   6.464
 3759POPC   D2A48832  16.729  11.324   6.764
 3759POPC   C3A48833  16.727  11.281   7.064
 3759POPC   C4A48834  16.731  11.306   7.364
 3759POPC   C1B48835  16.679  11.516   6.464
 3759POPC   C2B48836  16.626  11.525   6.764
 3759POPC   C3B48837  16.702  11.543   7.064
 3759POPC   C4B48838  16.645  11.544   7.364
 3760POPC   NC348839  26.078  40.055   5.564
 3760POPC   PO448840  26.062  40.052   5.864
 3760POPC   GL148841  26.033  40.015   6.164
 3760POPC   GL248842  26.131  40.101   6.164
 3760POPC   C1A48843  26.082  40.044   6.464
 3760POPC   D2A48844  26.085  40.045   6.764
 3760POPC   C3A48845  26.052  40.000   7.064
 3760POPC   C4A48846  26.072  40.037   7.364
 3760POPC   C1B48847  26.173  40.182   6.464
 3760POPC   C2B48848  26.160  40.181   6.764
 3760POPC   C3B48849  26.175  40.199   7.064
 3760POPC   C4B48850  26.223  40.235   7.364
 3761POPC   NC348851   5.823  12.125   5.564
 3761POPC   PO448852   5.840  12.045   5.864
 3761POPC   GL148853   5.879  12.068   6.164
 3761POPC   GL248854   5.982  12.068   6.164
 3761POPC   C1A48855   5.850  12.062   6.464
 3761POPC   D2A48856   5.909  12.121   6.764
 3761POPC   C3A48857   5.910  12.098   7.064
 3761POPC   C4A48858   5.842  12.086   7.364
 3761POPC   C1B48859   6.143  12.148   6.464
 3761POPC   C2B48860   6.105  12.127   6.764
 3761POPC   C3B48861   6.106  12.069   7.064
 3761POPC   C4B48862   6.139  12.151   7.364
 3762POPC   NC348863  38.473   3.540   5.564
 3762POPC   PO448864  38.445   3.545   5.864
 3762POPC   GL148865  38.484   3.574   6.164
 3762POPC   GL248866  38.318   3.494   6.164
 3762POPC   C1A48867  38.433   3.576   6.464
 3762POPC   D2A48868  38.416   3.569   6.764
 3762POPC   C3A48869  38.429   3.509   7.064
 3762POPC   C4A48870  38.478   3.512   7.364
 3762POPC   C1B48871  38.156   3.507   6.464
 3762POPC   C2B48872  38.239   3.556   6.764
 3762POPC   C3B48873  38.203   3.526   7.064
 3762POPC   C4B48874  38.187   3.557   7.364
 3763POPC   NC348875  15.165   1.177   5.564
 3763POPC   PO448876  15.170   1.260   5.864
 3763POPC   GL148877  15.132   1.242   6.164
 3763POPC   GL248878  15.224   1.094   6.164
 3763POPC   C1A48879  15.151   1.251   6.464
 3763POPC   D2A48880  15.215   1.210   6.764
 3763POPC   C3A48881  15.171   1.180   7.064
 3763POPC   C4A48882  15.193   1.229   7.364
 3763POPC   C1B48883  15.272   0.950   6.464
 3763POPC   C2B48884  15.238   0.966   6.764
 3763POPC   C3B48885  15.262   0.988   7.064
 3763POPC   C4B48886  15.264   0.965   7.364
 3764POPC   NC348887  21.379  33.063   5.564
 3764POPC   PO448888  21.350  32.995   5.864
 3764POPC   GL148889  21.396  33.059   6.164
 3764POPC   GL248890  21.528  33.039   6.164
 3764POPC   C1A48891  21.337  33.058   6.464
 3764POPC   D2A48892  21.369  32.999   6.764
 3764POPC   C3A48893  21.363  33.036   7.064
 3764POPC   C4A48894  21.394  33.013   7.364
 3764POPC   C1B48895  21.623  32.950   6.464
 3764POPC   C2B48896  21.610  32.935   6.764
 3764POPC   C3B48897  21.618  32.936   7.064
 3764POPC   C4B48898  21.675  32.935   7.364
 3765POPC   NC348899  41.557  33.765   5.564
 3765POPC   PO448900  41.600  33.778   5.864
 3765POPC   GL148901  41.596  33.775   6.164
 3765POPC   GL248902  41.500  33.882   6.164
 3765POPC   C1A48903  41.513  33.846   6.464
 3765POPC   D2A48904  41.580  33.825   6.764
 3765POPC   C3A48905  41.567  33.757   7.064
 3765POPC   C4A48906  41.548  33.803   7.364
 3765POPC   C1B48907  41.482  34.016   6.464
 3765POPC   C2B48908  41.563  34.021   6.764
 3765POPC   C3B48909  41.554  34.016   7.064
 3765POPC   C4B48910  41.483  34.091   7.364
 3766POPC   NC348911   3.506  42.382   5.564
 3766POPC   PO448912   3.527  42.360   5.864
 3766POPC   GL148913   3.514  42.336   6.164
 3766POPC   GL248914   3.666  42.267   6.164
 3766POPC   C1A48915   3.525  42.317   6.464
 3766POPC   D2A48916   3.573  42.302   6.764
 3766POPC   C3A48917   3.551  42.322   7.064
 3766POPC   C4A48918   3.559  42.293   7.364
 3766POPC   C1B48919   3.730  42.129   6.464
 3766POPC   C2B48920   3.728  42.127   6.764
 3766POPC   C3B48921   3.756  42.175   7.064
 3766POPC   C4B48922   3.712  42.116   7.364
 3767POPC   NC348923  30.653   5.127   5.564
 3767POPC   PO448924  30.657   5.094   5.864
 3767POPC   GL148925  30.719   5.109   6.164
 3767POPC   GL248926  30.677   4.950   6.164
 3767POPC   C1A48927  30.696   5.130   6.464
 3767POPC   D2A48928  30.723   5.112   6.764
 3767POPC   C3A48929  30.735   5.067   7.064
 3767POPC   C4A48930  30.647   5.104   7.364
 3767POPC   C1B48931  30.576   4.880   6.464
 3767POPC   C2B48932  30.622   4.828   6.764
 3767POPC   C3B48933  30.552   4.841   7.064
 3767POPC   C4B48934  30.624   4.883   7.364
 3768POPC   NC348935  30.704  40.812   5.564
 3768POPC   PO448936  30.695  40.782   5.864
 3768POPC   GL148937  30.691  40.800   6.164
 3768POPC   GL248938  30.785  40.836   6.164
 3768POPC   C1A48939  30.670  40.820   6.464
 3768POPC   D2A48940  30.694  40.751   6.764
 3768POPC   C3A48941  30.655  40.830   7.064
 3768POPC   C4A48942  30.722  40.829   7.364
 3768POPC   C1B48943  30.903  40.981   6.464
 3768POPC   C2B48944  30.852  40.940   6.764
 3768POPC   C3B48945  30.865  40.962   7.064
 3768POPC   C4B48946  30.840  40.953   7.364
 3769POPC   NC348947  33.831  34.590   5.564
 3769POPC   PO448948  33.824  34.625   5.864
 3769POPC   GL148949  33.821  34.596   6.164
 3769POPC   GL248950  33.875  34.457   6.164
 3769POPC   C1A48951  33.756  34.591   6.464
 3769POPC   D2A48952  33.819  34.549   6.764
 3769POPC   C3A48953  33.758  34.566   7.064
 3769POPC   C4A48954  33.809  34.535   7.364
 3769POPC   C1B48955  33.847  34.380   6.464
 3769POPC   C2B48956  33.905  34.369   6.764
 3769POPC   C3B48957  33.832  34.358   7.064
 3769POPC   C4B48958  33.883  34.328   7.364
 3770POPC   NC348959   9.790   6.654   5.564
 3770POPC   PO448960   9.786   6.634   5.864
 3770POPC   GL148961   9.732   6.619   6.164
 3770POPC   GL248962   9.709   6.721   6.164
 3770POPC   C1A48963   9.729   6.680   6.464
 3770POPC   D2A48964   9.710   6.641   6.764
 3770POPC   C3A48965   9.752   6.597   7.064
 3770POPC   C4A48966   9.715   6.598   7.364
 3770POPC   C1B48967   9.655   6.850   6.464
 3770POPC   C2B48968   9.649   6.848   6.764
 3770POPC   C3B48969   9.624   6.920   7.064
 3770POPC   C4B48970   9.611   6.913   7.364
 3771POPC   NC348971  19.055  36.172   5.564
 3771POPC   PO448972  19.071  36.153   5.864
 3771POPC   GL148973  19.012  36.091   6.164
 3771POPC   GL248974  19.119  36.262   6.164
 3771POPC   C1A48975  19.108  36.170   6.464
 3771POPC   D2A48976  19.044  36.123   6.764
 3771POPC   C3A48977  19.029  36.153   7.064
 3771POPC   C4A48978  19.049  36.115   7.364
 3771POPC   C1B48979  19.257  36.266   6.464
 3771POPC   C2B48980  19.271  36.283   6.764
 3771POPC   C3B48981  19.203  36.278   7.064
 3771POPC   C4B48982  19.217  36.274   7.364
 3772POPC   NC348983  24.441   4.303   5.564
 3772POPC   PO448984  24.516   4.342   5.864
 3772POPC   GL148985  24.442   4.279   6.164
 3772POPC   GL248986  24.435   4.357   6.164
 3772POPC   C1A48987  24.469   4.333   6.464
 3772POPC   D2A48988  24.490   4.273   6.764
 3772POPC   C3A48989  24.496   4.348   7.064
 3772POPC   C4A48990  24.502   4.334   7.364
 3772POPC   C1B48991  24.308   4.523   6.464
 3772POPC   C2B48992  24.345   4.538   6.764
 3772POPC   C3B48993  24.287   4.509   7.064
 3772POPC   C4B48994  24.314   4.510   7.364
 3773POPC   NC348995  34.606  43.133   5.564
 3773POPC   PO448996  34.566  43.098   5.864
 3773POPC   GL148997  34.600  43.105   6.164
 3773POPC   GL248998  34.655  43.241   6.164
 3773POPC   C1A48999  34.547  43.099   6.464
 3773POPC   D2A49000  34.583  43.142   6.764
 3773POPC   C3A49001  34.538  43.158   7.064
 3773POPC   C4A49002  34.542  43.115   7.364
 3773POPC   C1B49003  34.723  43.359   6.464
 3773POPC   C2B49004  34.728  43.285   6.764
 3773POPC   C3B49005  34.705  43.319   7.064
 3773POPC   C4B49006  34.697  43.303   7.364
 3774POPC   NC349007  40.752  34.554   5.564
 3774POPC   PO449008  40.762  34.543   5.864
 3774POPC   GL149009  40.744  34.597   6.164
 3774POPC   GL249010  40.815  34.699   6.164
 3774POPC   C1A49011  40.776  34.578   6.464
 3774POPC   D2A49012  40.830  34.542   6.764
 3774POPC   C3A49013  40.781  34.595   7.064
 3774POPC   C4A49014  40.811  34.615   7.364
 3774POPC   C1B49015  40.953  34.778   6.464
 3774POPC   C2B49016  40.917  34.729   6.764
 3774POPC   C3B49017  40.964  34.764   7.064
 3774POPC   C4B49018  40.982  34.733   7.364
 3775POPC   NC349019  20.585  32.273   5.564
 3775POPC   PO449020  20.637  32.257   5.864
 3775POPC   GL149021  20.587  32.287   6.164
 3775POPC   GL249022  20.603  32.094   6.164
 3775POPC   C1A49023  20.632  32.222   6.464
 3775POPC   D2A49024  20.568  32.245   6.764
 3775POPC   C3A49025  20.589  32.297   7.064
 3775POPC   C4A49026  20.572  32.222   7.364
 3775POPC   C1B49027  20.642  32.035   6.464
 3775POPC   C2B49028  20.678  31.969   6.764
 3775POPC   C3B49029  20.668  32.004   7.064
 3775POPC   C4B49030  20.648  31.958   7.364
 3776POPC   NC349031  39.184  29.163   5.564
 3776POPC   PO449032  39.244  29.150   5.864
 3776POPC   GL149033  39.260  29.157   6.164
 3776POPC   GL249034  39.270  29.282   6.164
 3776POPC   C1A49035  39.210  29.194   6.464
 3776POPC   D2A49036  39.222  29.194   6.764
 3776POPC   C3A49037  39.251  29.185   7.064
 3776POPC   C4A49038  39.233  29.136   7.364
 3776POPC   C1B49039  39.250  29.382   6.464
 3776POPC   C2B49040  39.202  29.420   6.764
 3776POPC   C3B49041  39.225  29.405   7.064
 3776POPC   C4B49042  39.269  29.353   7.364
 3777POPC   NC349043  12.859   8.228   5.564
 3777POPC   PO449044  12.803   8.154   5.864
 3777POPC   GL149045  12.815   8.206   6.164
 3777POPC   GL249046  12.873   8.112   6.164
 3777POPC   C1A49047  12.901   8.193   6.464
 3777POPC   D2A49048  12.887   8.227   6.764
 3777POPC   C3A49049  12.835   8.152   7.064
 3777POPC   C4A49050  12.862   8.190   7.364
 3777POPC   C1B49051  12.891   7.973   6.464
 3777POPC   C2B49052  12.887   7.906   6.764
 3777POPC   C3B49053  12.925   7.980   7.064
 3777POPC   C4B49054  12.932   7.988   7.364
 3778POPC   NC349055  29.912  19.017   5.564
 3778POPC   PO449056  29.882  19.016   5.864
 3778POPC   GL149057  29.915  19.065   6.164
 3778POPC   GL249058  30.040  19.166   6.164
 3778POPC   C1A49059  29.896  19.107   6.464
 3778POPC   D2A49060  29.938  19.057   6.764
 3778POPC   C3A49061  29.939  19.072   7.064
 3778POPC   C4A49062  29.926  19.102   7.364
 3778POPC   C1B49063  30.155  19.158   6.464
 3778POPC   C2B49064  30.126  19.221   6.764
 3778POPC   C3B49065  30.184  19.149   7.064
 3778POPC   C4B49066  30.097  19.207   7.364
 3779POPC   NC349067  35.348  38.409   5.564
 3779POPC   PO449068  35.393  38.422   5.864
 3779POPC   GL149069  35.349  38.475   6.164
 3779POPC   GL249070  35.335  38.348   6.164
 3779POPC   C1A49071  35.302  38.429   6.464
 3779POPC   D2A49072  35.393  38.472   6.764
 3779POPC   C3A49073  35.322  38.499   7.064
 3779POPC   C4A49074  35.390  38.407   7.364
 3779POPC   C1B49075  35.197  38.233   6.464
 3779POPC   C2B49076  35.217  38.220   6.764
 3779POPC   C3B49077  35.277  38.262   7.064
 3779POPC   C4B49078  35.229  38.194   7.364
 3780POPC   NC349079   7.411  22.113   5.564
 3780POPC   PO449080   7.382  22.209   5.864
 3780POPC   GL149081   7.425  22.151   6.164
 3780POPC   GL249082   7.432  22.320   6.164
 3780POPC   C1A49083   7.437  22.161   6.464
 3780POPC   D2A49084   7.432  22.177   6.764
 3780POPC   C3A49085   7.424  22.183   7.064
 3780POPC   C4A49086   7.425  22.189   7.364
 3780POPC   C1B49087   7.517  22.429   6.464
 3780POPC   C2B49088   7.571  22.431   6.764
 3780POPC   C3B49089   7.572  22.364   7.064
 3780POPC   C4B49090   7.506  22.353   7.364
 3781POPC   NC349091  31.497  15.955   5.564
 3781POPC   PO449092  31.463  15.939   5.864
 3781POPC   GL149093  31.434  15.922   6.164
 3781POPC   GL249094  31.523  16.027   6.164
 3781POPC   C1A49095  31.449  15.924   6.464
 3781POPC   D2A49096  31.434  16.003   6.764
 3781POPC   C3A49097  31.472  15.926   7.064
 3781POPC   C4A49098  31.509  15.913   7.364
 3781POPC   C1B49099  31.530  16.232   6.464
 3781POPC   C2B49100  31.570  16.227   6.764
 3781POPC   C3B49101  31.586  16.199   7.064
 3781POPC   C4B49102  31.572  16.235   7.364
 3782POPC   NC349103   9.725  21.374   5.564
 3782POPC   PO449104   9.749  21.361   5.864
 3782POPC   GL149105   9.702  21.398   6.164
 3782POPC   GL249106   9.613  21.392   6.164
 3782POPC   C1A49107   9.773  21.365   6.464
 3782POPC   D2A49108   9.731  21.373   6.764
 3782POPC   C3A49109   9.716  21.403   7.064
 3782POPC   C4A49110   9.701  21.354   7.364
 3782POPC   C1B49111   9.477  21.357   6.464
 3782POPC   C2B49112   9.473  21.384   6.764
 3782POPC   C3B49113   9.496  21.432   7.064
 3782POPC   C4B49114   9.452  21.393   7.364
 3783POPC   NC349115  17.488   0.435   5.564
 3783POPC   PO449116  17.527   0.403   5.864
 3783POPC   GL149117  17.472   0.474   6.164
 3783POPC   GL249118  17.553   0.512   6.164
 3783POPC   C1A49119  17.517   0.476   6.464
 3783POPC   D2A49120  17.492   0.415   6.764
 3783POPC   C3A49121  17.493   0.446   7.064
 3783POPC   C4A49122  17.517   0.469   7.364
 3783POPC   C1B49123  17.664   0.617   6.464
 3783POPC   C2B49124  17.610   0.693   6.764
 3783POPC   C3B49125  17.657   0.689   7.064
 3783POPC   C4B49126  17.579   0.665   7.364
 3784POPC   NC349127  42.289  22.143   5.564
 3784POPC   PO449128  42.346  22.167   5.864
 3784POPC   GL149129  42.315  22.142   6.164
 3784POPC   GL249130  42.268  22.296   6.164
 3784POPC   C1A49131  42.321  22.178   6.464
 3784POPC   D2A49132  42.337  22.117   6.764
 3784POPC   C3A49133  42.355  22.184   7.064
 3784POPC   C4A49134  42.319  22.116   7.364
 3784POPC   C1B49135  42.196  22.402   6.464
 3784POPC   C2B49136  42.288  22.346   6.764
 3784POPC   C3B49137  42.262  22.384   7.064
 3784POPC   C4B49138  42.285  22.409   7.364
 3785POPC   NC349139  24.453  10.496   5.564
 3785POPC   PO449140  24.440  10.573   5.864
 3785POPC   GL149141  24.443  10.534   6.164
 3785POPC   GL249142  24.554  10.632   6.164
 3785POPC   C1A49143  24.494  10.511   6.464
 3785POPC   D2A49144  24.478  10.516   6.764
 3785POPC   C3A49145  24.532  10.523   7.064
 3785POPC   C4A49146  24.475  10.476   7.364
 3785POPC   C1B49147  24.562  10.789   6.464
 3785POPC   C2B49148  24.552  10.783   6.764
 3785POPC   C3B49149  24.567  10.737   7.064
 3785POPC   C4B49150  24.598  10.717   7.364
 3786POPC   NC349151  26.004   8.989   5.564
 3786POPC   PO449152  26.003   8.967   5.864
 3786POPC   GL149153  26.068   8.951   6.164
 3786POPC   GL249154  26.129   8.961   6.164
 3786POPC   C1A49155  26.017   8.956   6.464
 3786POPC   D2A49156  26.081   9.000   6.764
 3786POPC   C3A49157  26.011   8.967   7.064
 3786POPC   C4A49158  26.072   8.958   7.364
 3786POPC   C1B49159  26.299   8.884   6.464
 3786POPC   C2B49160  26.220   8.878   6.764
 3786POPC   C3B49161  26.217   8.883   7.064
 3786POPC   C4B49162  26.222   8.833   7.364
 3787POPC   NC349163   5.853  21.343   5.564
 3787POPC   PO449164   5.887  21.396   5.864
 3787POPC   GL149165   5.884  21.419   6.164
 3787POPC   GL249166   5.815  21.324   6.164
 3787POPC   C1A49167   5.821  21.339   6.464
 3787POPC   D2A49168   5.867  21.355   6.764
 3787POPC   C3A49169   5.878  21.432   7.064
 3787POPC   C4A49170   5.881  21.387   7.364
 3787POPC   C1B49171   5.620  21.251   6.464
 3787POPC   C2B49172   5.627  21.289   6.764
 3787POPC   C3B49173   5.714  21.288   7.064
 3787POPC   C4B49174   5.709  21.267   7.364
 3788POPC   NC349175  18.279  16.780   5.564
 3788POPC   PO449176  18.243  16.750   5.864
 3788POPC   GL149177  18.258  16.737   6.164
 3788POPC   GL249178  18.156  16.813   6.164
 3788POPC   C1A49179  18.329  16.690   6.464
 3788POPC   D2A49180  18.310  16.710   6.764
 3788POPC   C3A49181  18.264  16.748   7.064
 3788POPC   C4A49182  18.235  16.693   7.364
 3788POPC   C1B49183  18.059  16.882   6.464
 3788POPC   C2B49184  18.081  16.888   6.764
 3788POPC   C3B49185  18.070  16.860   7.064
 3788POPC   C4B49186  18.055  16.855   7.364
 3789POPC   NC349187   5.825  17.465   5.564
 3789POPC   PO449188   5.838  17.508   5.864
 3789POPC   GL149189   5.836  17.506   6.164
 3789POPC   GL249190   5.979  17.427   6.164
 3789POPC   C1A49191   5.885  17.529   6.464
 3789POPC   D2A49192   5.896  17.537   6.764
 3789POPC   C3A49193   5.893  17.530   7.064
 3789POPC   C4A49194   5.890  17.555   7.364
 3789POPC   C1B49195   6.128  17.401   6.464
 3789POPC   C2B49196   6.144  17.423   6.764
 3789POPC   C3B49197   6.087  17.466   7.064
 3789POPC   C4B49198   6.133  17.433   7.364
 3790POPC   NC349199   8.977  14.375   5.564
 3790POPC   PO449200   9.014  14.438   5.864
 3790POPC   GL149201   8.932  14.417   6.164
 3790POPC   GL249202   8.871  14.344   6.164
 3790POPC   C1A49203   8.970  14.383   6.464
 3790POPC   D2A49204   8.942  14.401   6.764
 3790POPC   C3A49205   8.998  14.428   7.064
 3790POPC   C4A49206   8.983  14.397   7.364
 3790POPC   C1B49207   8.765  14.255   6.464
 3790POPC   C2B49208   8.753  14.310   6.764
 3790POPC   C3B49209   8.788  14.262   7.064
 3790POPC   C4B49210   8.777  14.308   7.364
 3791POPC   NC349211  25.309  39.999   5.564
 3791POPC   PO449212  25.275  39.998   5.864
 3791POPC   GL149213  25.283  40.021   6.164
 3791POPC   GL249214  25.415  40.034   6.164
 3791POPC   C1A49215  25.261  40.039   6.464
 3791POPC   D2A49216  25.227  40.052   6.764
 3791POPC   C3A49217  25.287  40.043   7.064
 3791POPC   C4A49218  25.228  39.957   7.364
 3791POPC   C1B49219  25.503  40.154   6.464
 3791POPC   C2B49220  25.519  40.082   6.764
 3791POPC   C3B49221  25.471  40.109   7.064
 3791POPC   C4B49222  25.529  40.147   7.364
 3792POPC   NC349223  10.510  12.897   5.564
 3792POPC   PO449224  10.534  12.870   5.864
 3792POPC   GL149225  10.510  12.802   6.164
 3792POPC   GL249226  10.497  12.782   6.164
 3792POPC   C1A49227  10.552  12.854   6.464
 3792POPC   D2A49228  10.501  12.891   6.764
 3792POPC   C3A49229  10.559  12.805   7.064
 3792POPC   C4A49230  10.558  12.827   7.364
 3792POPC   C1B49231  10.448  12.630   6.464
 3792POPC   C2B49232  10.430  12.644   6.764
 3792POPC   C3B49233  10.408  12.664   7.064
 3792POPC   C4B49234  10.371  12.598   7.364
 3793POPC   NC349235  27.626  35.372   5.564
 3793POPC   PO449236  27.579  35.306   5.864
 3793POPC   GL149237  27.587  35.373   6.164
 3793POPC   GL249238  27.533  35.245   6.164
 3793POPC   C1A49239  27.628  35.310   6.464
 3793POPC   D2A49240  27.626  35.328   6.764
 3793POPC   C3A49241  27.642  35.378   7.064
 3793POPC   C4A49242  27.607  35.378   7.364
 3793POPC   C1B49243  27.565  35.148   6.464
 3793POPC   C2B49244  27.547  35.079   6.764
 3793POPC   C3B49245  27.559  35.142   7.064
 3793POPC   C4B49246  27.549  35.102   7.364
 3794POPC   NC349247  15.217  40.810   5.564
 3794POPC   PO449248  15.153  40.814   5.864
 3794POPC   GL149249  15.211  40.827   6.164
 3794POPC   GL249250  15.086  40.665   6.164
 3794POPC   C1A49251  15.166  40.764   6.464
 3794POPC   D2A49252  15.168  40.753   6.764
 3794POPC   C3A49253  15.150  40.751   7.064
 3794POPC   C4A49254  15.132  40.796   7.364
 3794POPC   C1B49255  14.958  40.617   6.464
 3794POPC   C2B49256  14.958  40.615   6.764
 3794POPC   C3B49257  15.019  40.608   7.064
 3794POPC   C4B49258  14.983  40.627   7.364
 3795POPC   NC349259  13.604   8.954   5.564
 3795POPC   PO449260  13.638   9.014   5.864
 3795POPC   GL149261  13.631   8.964   6.164
 3795POPC   GL249262  13.573   9.079   6.164
 3795POPC   C1A49263  13.602   8.985   6.464
 3795POPC   D2A49264  13.596   8.993   6.764
 3795POPC   C3A49265  13.605   8.981   7.064
 3795POPC   C4A49266  13.668   8.961   7.364
 3795POPC   C1B49267  13.640   9.171   6.464
 3795POPC   C2B49268  13.577   9.227   6.764
 3795POPC   C3B49269  13.635   9.248   7.064
 3795POPC   C4B49270  13.645   9.222   7.364
 3796POPC   NC349271  36.888  32.240   5.564
 3796POPC   PO449272  36.909  32.228   5.864
 3796POPC   GL149273  36.949  32.263   6.164
 3796POPC   GL249274  36.961  32.318   6.164
 3796POPC   C1A49275  36.901  32.219   6.464
 3796POPC   D2A49276  36.900  32.264   6.764
 3796POPC   C3A49277  36.896  32.246   7.064
 3796POPC   C4A49278  36.885  32.217   7.364
 3796POPC   C1B49279  37.031  32.440   6.464
 3796POPC   C2B49280  37.023  32.475   6.764
 3796POPC   C3B49281  36.956  32.444   7.064
 3796POPC   C4B49282  36.953  32.502   7.364
 3797POPC   NC349283  14.357  33.006   5.564
 3797POPC   PO449284  14.386  33.061   5.864
 3797POPC   GL149285  14.442  33.066   6.164
 3797POPC   GL249286  14.396  33.133   6.164
 3797POPC   C1A49287  14.368  33.063   6.464
 3797POPC   D2A49288  14.442  33.070   6.764
 3797POPC   C3A49289  14.450  33.030   7.064
 3797POPC   C4A49290  14.374  33.023   7.364
 3797POPC   C1B49291  14.462  33.241   6.464
 3797POPC   C2B49292  14.462  33.272   6.764
 3797POPC   C3B49293  14.508  33.270   7.064
 3797POPC   C4B49294  14.455  33.298   7.364
 3798POPC   NC349295   4.286  14.415   5.564
 3798POPC   PO449296   4.347  14.389   5.864
 3798POPC   GL149297   4.304  14.380   6.164
 3798POPC   GL249298   4.260  14.543   6.164
 3798POPC   C1A49299   4.359  14.398   6.464
 3798POPC   D2A49300   4.365  14.416   6.764
 3798POPC   C3A49301   4.358  14.358   7.064
 3798POPC   C4A49302   4.352  14.368   7.364
 3798POPC   C1B49303   4.211  14.615   6.464
 3798POPC   C2B49304   4.259  14.583   6.764
 3798POPC   C3B49305   4.262  14.608   7.064
 3798POPC   C4B49306   4.227  14.603   7.364
 3799POPC   NC349307   5.891  31.500   5.564
 3799POPC   PO449308   5.906  31.427   5.864
 3799POPC   GL149309   5.899  31.458   6.164
 3799POPC   GL249310   5.719  31.483   6.164
 3799POPC   C1A49311   5.866  31.504   6.464
 3799POPC   D2A49312   5.848  31.475   6.764
 3799POPC   C3A49313   5.855  31.461   7.064
 3799POPC   C4A49314   5.919  31.458   7.364
 3799POPC   C1B49315   5.672  31.438   6.464
 3799POPC   C2B49316   5.628  31.391   6.764
 3799POPC   C3B49317   5.645  31.461   7.064
 3799POPC   C4B49318   5.674  31.386   7.364
 3800POPC   NC349319  29.872  13.588   5.564
 3800POPC   PO449320  29.939  13.655   5.864
 3800POPC   GL149321  29.879  13.582   6.164
 3800POPC   GL249322  29.966  13.733   6.164
 3800POPC   C1A49323  29.922  13.661   6.464
 3800POPC   D2A49324  29.883  13.616   6.764
 3800POPC   C3A49325  29.915  13.623   7.064
 3800POPC   C4A49326  29.934  13.659   7.364
 3800POPC   C1B49327  30.036  13.837   6.464
 3800POPC   C2B49328  30.070  13.779   6.764
 3800POPC   C3B49329  30.039  13.816   7.064
 3800POPC   C4B49330  30.029  13.861   7.364
 3801POPC   NC349331  17.474  23.732   5.564
 3801POPC   PO449332  17.502  23.669   5.864
 3801POPC   GL149333  17.517  23.696   6.164
 3801POPC   GL249334  17.364  23.720   6.164
 3801POPC   C1A49335  17.462  23.670   6.464
 3801POPC   D2A49336  17.482  23.730   6.764
 3801POPC   C3A49337  17.479  23.702   7.064
 3801POPC   C4A49338  17.488  23.724   7.364
 3801POPC   C1B49339  17.298  23.656   6.464
 3801POPC   C2B49340  17.290  23.687   6.764
 3801POPC   C3B49341  17.287  23.637   7.064
 3801POPC   C4B49342  17.265  23.673   7.364
 3802POPC   NC349343  38.459  15.953   5.564
 3802POPC   PO449344  38.485  15.937   5.864
 3802POPC   GL149345  38.414  15.919   6.164
 3802POPC   GL249346  38.350  15.818   6.164
 3802POPC   C1A49347  38.502  15.909   6.464
 3802POPC   D2A49348  38.503  15.948   6.764
 3802POPC   C3A49349  38.485  15.922   7.064
 3802POPC   C4A49350  38.459  15.973   7.364
 3802POPC   C1B49351  38.388  15.732   6.464
 3802POPC   C2B49352  38.295  15.755   6.764
 3802POPC   C3B49353  38.334  15.686   7.064
 3802POPC   C4B49354  38.322  15.748   7.364
 3803POPC   NC349355  39.257   4.288   5.564
 3803POPC   PO449356  39.226   4.347   5.864
 3803POPC   GL149357  39.194   4.287   6.164
 3803POPC   GL249358  39.313   4.366   6.164
 3803POPC   C1A49359  39.273   4.307   6.464
 3803POPC   D2A49360  39.211   4.344   6.764
 3803POPC   C3A49361  39.229   4.335   7.064
 3803POPC   C4A49362  39.264   4.367   7.364
 3803POPC   C1B49363  39.414   4.488   6.464
 3803POPC   C2B49364  39.397   4.491   6.764
 3803POPC   C3B49365  39.448   4.450   7.064
 3803POPC   C4B49366  39.376   4.455   7.364
 3804POPC   NC349367  18.320  33.753   5.564
 3804POPC   PO449368  18.249  33.751   5.864
 3804POPC   GL149369  18.290  33.837   6.164
 3804POPC   GL249370  18.110  33.775   6.164
 3804POPC   C1A49371  18.246  33.783   6.464
 3804POPC   D2A49372  18.246  33.752   6.764
 3804POPC   C3A49373  18.257  33.760   7.064
 3804POPC   C4A49374  18.327  33.843   7.364
 3804POPC   C1B49375  18.018  33.775   6.464
 3804POPC   C2B49376  18.006  33.794   6.764
 3804POPC   C3B49377  18.083  33.758   7.064
 3804POPC   C4B49378  18.011  33.746   7.364
 3805POPC   NC349379  13.580   9.758   5.564
 3805POPC   PO449380  13.609   9.723   5.864
 3805POPC   GL149381  13.601   9.769   6.164
 3805POPC   GL249382  13.652   9.645   6.164
 3805POPC   C1A49383  13.585   9.703   6.464
 3805POPC   D2A49384  13.642   9.711   6.764
 3805POPC   C3A49385  13.624   9.702   7.064
 3805POPC   C4A49386  13.668   9.760   7.364
 3805POPC   C1B49387  13.705   9.508   6.464
 3805POPC   C2B49388  13.687   9.473   6.764
 3805POPC   C3B49389  13.686   9.484   7.064
 3805POPC   C4B49390  13.696   9.466   7.364
 3806POPC   NC349391   1.227  27.562   5.564
 3806POPC   PO449392   1.262  27.638   5.864
 3806POPC   GL149393   1.221  27.600   6.164
 3806POPC   GL249394   1.118  27.640   6.164
 3806POPC   C1A49395   1.195  27.572   6.464
 3806POPC   D2A49396   1.166  27.637   6.764
 3806POPC   C3A49397   1.199  27.609   7.064
 3806POPC   C4A49398   1.183  27.578   7.364
 3806POPC   C1B49399   1.005  27.677   6.464
 3806POPC   C2B49400   0.993  27.662   6.764
 3806POPC   C3B49401   0.977  27.664   7.064
 3806POPC   C4B49402   0.991  27.665   7.364
 3807POPC   NC349403  40.025  15.155   5.564
 3807POPC   PO449404  40.043  15.199   5.864
 3807POPC   GL149405  39.973  15.194   6.164
 3807POPC   GL249406  39.924  15.256   6.164
 3807POPC   C1A49407  40.051  15.186   6.464
 3807POPC   D2A49408  40.009  15.184   6.764
 3807POPC   C3A49409  40.028  15.150   7.064
 3807POPC   C4A49410  40.002  15.201   7.364
 3807POPC   C1B49411  39.877  15.356   6.464
 3807POPC   C2B49412  39.912  15.356   6.764
 3807POPC   C3B49413  39.885  15.396   7.064
 3807POPC   C4B49414  39.884  15.393   7.364
 3808POPC   NC349415  42.300  29.152   5.564
 3808POPC   PO449416  42.328  29.145   5.864
 3808POPC   GL149417  42.381  29.151   6.164
 3808POPC   GL249418  42.279  28.990   6.164
 3808POPC   C1A49419  42.347  29.142   6.464
 3808POPC   D2A49420  42.370  29.141   6.764
 3808POPC   C3A49421  42.328  29.141   7.064
 3808POPC   C4A49422  42.312  29.164   7.364
 3808POPC   C1B49423  42.226  28.939   6.464
 3808POPC   C2B49424  42.185  28.943   6.764
 3808POPC   C3B49425  42.190  28.974   7.064
 3808POPC   C4B49426  42.184  28.961   7.364
 3809POPC   NC349427  43.875  22.967   5.564
 3809POPC   PO449428  43.884  22.977   5.864
 3809POPC   GL149429  43.915  22.958   6.164
 3809POPC   GL249430  43.832  22.772   6.164
 3809POPC   C1A49431  43.841  22.979   6.464
 3809POPC   D2A49432  43.935  22.935   6.764
 3809POPC   C3A49433  43.914  22.964   7.064
 3809POPC   C4A49434  43.869  22.956   7.364
 3809POPC   C1B49435  43.806  22.718   6.464
 3809POPC   C2B49436  43.841  22.714   6.764
 3809POPC   C3B49437  43.788  22.665   7.064
 3809POPC   C4B49438  43.848  22.698   7.364
 3810POPC   NC349439  33.072  35.318   5.564
 3810POPC   PO449440  33.023  35.392   5.864
 3810POPC   GL149441  33.000  35.399   6.164
 3810POPC   GL249442  33.045  35.483   6.164
 3810POPC   C1A49443  33.053  35.389   6.464
 3810POPC   D2A49444  33.046  35.332   6.764
 3810POPC   C3A49445  32.985  35.356   7.064
 3810POPC   C4A49446  33.031  35.373   7.364
 3810POPC   C1B49447  33.172  35.524   6.464
 3810POPC   C2B49448  33.158  35.541   6.764
 3810POPC   C3B49449  33.116  35.549   7.064
 3810POPC   C4B49450  33.110  35.553   7.364
 3811POPC   NC349451  10.561   7.439   5.564
 3811POPC   PO449452  10.522   7.453   5.864
 3811POPC   GL149453  10.526   7.400   6.164
 3811POPC   GL249454  10.421   7.531   6.164
 3811POPC   C1A49455  10.538   7.428   6.464
 3811POPC   D2A49456  10.489   7.462   6.764
 3811POPC   C3A49457  10.538   7.423   7.064
 3811POPC   C4A49458  10.522   7.422   7.364
 3811POPC   C1B49459  10.302   7.565   6.464
 3811POPC   C2B49460  10.332   7.552   6.764
 3811POPC   C3B49461  10.308   7.554   7.064
 3811POPC   C4B49462  10.274   7.527   7.364
 3812POPC   NC349463  34.562   7.393   5.564
 3812POPC   PO449464  34.579   7.452   5.864
 3812POPC   GL149465  34.558   7.395   6.164
 3812POPC   GL249466  34.617   7.524   6.164
 3812POPC   C1A49467  34.534   7.383   6.464
 3812POPC   D2A49468  34.599   7.429   6.764
 3812POPC   C3A49469  34.580   7.466   7.064
 3812POPC   C4A49470  34.568   7.388   7.364
 3812POPC   C1B49471  34.618   7.655   6.464
 3812POPC   C2B49472  34.605   7.701   6.764
 3812POPC   C3B49473  34.601   7.685   7.064
 3812POPC   C4B49474  34.558   7.662   7.364
 3813POPC   NC349475  36.868  27.591   5.564
 3813POPC   PO449476  36.854  27.616   5.864
 3813POPC   GL149477  36.860  27.642   6.164
 3813POPC   GL249478  36.975  27.477   6.164
 3813POPC   C1A49479  36.867  27.552   6.464
 3813POPC   D2A49480  36.908  27.631   6.764
 3813POPC   C3A49481  36.895  27.611   7.064
 3813POPC   C4A49482  36.947  27.603   7.364
 3813POPC   C1B49483  37.135  27.499   6.464
 3813POPC   C2B49484  37.107  27.414   6.764
 3813POPC   C3B49485  37.159  27.424   7.064
 3813POPC   C4B49486  37.069  27.474   7.364
 3814POPC   NC349487  10.519  25.293   5.564
 3814POPC   PO449488  10.559  25.242   5.864
 3814POPC   GL149489  10.474  25.315   6.164
 3814POPC   GL249490  10.658  25.331   6.164
 3814POPC   C1A49491  10.557  25.307   6.464
 3814POPC   D2A49492  10.505  25.309   6.764
 3814POPC   C3A49493  10.520  25.241   7.064
 3814POPC   C4A49494  10.556  25.247   7.364
 3814POPC   C1B49495  10.723  25.385   6.464
 3814POPC   C2B49496  10.763  25.398   6.764
 3814POPC   C3B49497  10.798  25.341   7.064
 3814POPC   C4B49498  10.710  25.375   7.364
 3815POPC   NC349499  41.567  19.841   5.564
 3815POPC   PO449500  41.600  19.820   5.864
 3815POPC   GL149501  41.541  19.829   6.164
 3815POPC   GL249502  41.520  19.685   6.164
 3815POPC   C1A49503  41.575  19.854   6.464
 3815POPC   D2A49504  41.587  19.788   6.764
 3815POPC   C3A49505  41.571  19.792   7.064
 3815POPC   C4A49506  41.523  19.881   7.364
 3815POPC   C1B49507  41.534  19.573   6.464
 3815POPC   C2B49508  41.588  19.566   6.764
 3815POPC   C3B49509  41.555  19.624   7.064
 3815POPC   C4B49510  41.519  19.536   7.364
 3816POPC   NC349511  27.547  10.560   5.564
 3816POPC   PO449512  27.621  10.505   5.864
 3816POPC   GL149513  27.576  10.474   6.164
 3816POPC   GL249514  27.635  10.423   6.164
 3816POPC   C1A49515  27.630  10.552   6.464
 3816POPC   D2A49516  27.595  10.502   6.764
 3816POPC   C3A49517  27.553  10.489   7.064
 3816POPC   C4A49518  27.627  10.568   7.364
 3816POPC   C1B49519  27.745  10.267   6.464
 3816POPC   C2B49520  27.684  10.352   6.764
 3816POPC   C3B49521  27.690  10.352   7.064
 3816POPC   C4B49522  27.735  10.261   7.364
 3817POPC   NC349523  27.567  38.406   5.564
 3817POPC   PO449524  27.595  38.462   5.864
 3817POPC   GL149525  27.592  38.483   6.164
 3817POPC   GL249526  27.520  38.336   6.164
 3817POPC   C1A49527  27.583  38.503   6.464
 3817POPC   D2A49528  27.635  38.494   6.764
 3817POPC   C3A49529  27.615  38.486   7.064
 3817POPC   C4A49530  27.545  38.490   7.364
 3817POPC   C1B49531  27.362  38.298   6.464
 3817POPC   C2B49532  27.399  38.262   6.764
 3817POPC   C3B49533  27.367  38.288   7.064
 3817POPC   C4B49534  27.418  38.316   7.364
 3818POPC   NC349535   2.750  33.058   5.564
 3818POPC   PO449536   2.719  33.002   5.864
 3818POPC   GL149537   2.760  33.055   6.164
 3818POPC   GL249538   2.813  32.932   6.164
 3818POPC   C1A49539   2.775  33.058   6.464
 3818POPC   D2A49540   2.762  33.028   6.764
 3818POPC   C3A49541   2.747  33.074   7.064
 3818POPC   C4A49542   2.786  33.005   7.364
 3818POPC   C1B49543   2.863  32.789   6.464
 3818POPC   C2B49544   2.898  32.839   6.764
 3818POPC   C3B49545   2.939  32.852   7.064
 3818POPC   C4B49546   2.887  32.812   7.364
 3819POPC   NC349547   4.357  18.330   5.564
 3819POPC   PO449548   4.345  18.277   5.864
 3819POPC   GL149549   4.323  18.311   6.164
 3819POPC   GL249550   4.330  18.430   6.164
 3819POPC   C1A49551   4.361  18.331   6.464
 3819POPC   D2A49552   4.338  18.246   6.764
 3819POPC   C3A49553   4.343  18.294   7.064
 3819POPC   C4A49554   4.366  18.318   7.364
 3819POPC   C1B49555   4.336  18.582   6.464
 3819POPC   C2B49556   4.339  18.571   6.764
 3819POPC   C3B49557   4.366  18.543   7.064
 3819POPC   C4B49558   4.293  18.528   7.364
 3820POPC   NC349559  38.417  37.640   5.564
 3820POPC   PO449560  38.465  37.662   5.864
 3820POPC   GL149561  38.487  37.721   6.164
 3820POPC   GL249562  38.508  37.544   6.164
 3820POPC   C1A49563  38.496  37.716   6.464
 3820POPC   D2A49564  38.411  37.646   6.764
 3820POPC   C3A49565  38.423  37.674   7.064
 3820POPC   C4A49566  38.448  37.725   7.364
 3820POPC   C1B49567  38.583  37.523   6.464
 3820POPC   C2B49568  38.575  37.529   6.764
 3820POPC   C3B49569  38.642  37.532   7.064
 3820POPC   C4B49570  38.625  37.436   7.364
 3821POPC   NC349571  18.235  42.288   5.564
 3821POPC   PO449572  18.332  42.367   5.864
 3821POPC   GL149573  18.279  42.362   6.164
 3821POPC   GL249574  18.390  42.257   6.164
 3821POPC   C1A49575  18.239  42.343   6.464
 3821POPC   D2A49576  18.324  42.296   6.764
 3821POPC   C3A49577  18.249  42.372   7.064
 3821POPC   C4A49578  18.284  42.355   7.364
 3821POPC   C1B49579  18.460  42.210   6.464
 3821POPC   C2B49580  18.532  42.226   6.764
 3821POPC   C3B49581  18.519  42.185   7.064
 3821POPC   C4B49582  18.482  42.203   7.364
 3822POPC   NC349583   8.154  39.279   5.564
 3822POPC   PO449584   8.227  39.230   5.864
 3822POPC   GL149585   8.193  39.189   6.164
 3822POPC   GL249586   8.287  39.077   6.164
 3822POPC   C1A49587   8.227  39.212   6.464
 3822POPC   D2A49588   8.209  39.215   6.764
 3822POPC   C3A49589   8.195  39.273   7.064
 3822POPC   C4A49590   8.207  39.232   7.364
 3822POPC   C1B49591   8.274  38.983   6.464
 3822POPC   C2B49592   8.263  38.961   6.764
 3822POPC   C3B49593   8.250  38.954   7.064
 3822POPC   C4B49594   8.278  38.953   7.364
 3823POPC   NC349595   2.011  26.058   5.564
 3823POPC   PO449596   1.950  26.034   5.864
 3823POPC   GL149597   1.977  26.066   6.164
 3823POPC   GL249598   2.104  25.914   6.164
 3823POPC   C1A49599   1.986  26.060   6.464
 3823POPC   D2A49600   1.978  26.040   6.764
 3823POPC   C3A49601   1.946  26.048   7.064
 3823POPC   C4A49602   2.016  26.023   7.364
 3823POPC   C1B49603   2.185  25.826   6.464
 3823POPC   C2B49604   2.102  25.845   6.764
 3823POPC   C3B49605   2.109  25.819   7.064
 3823POPC   C4B49606   2.138  25.853   7.364
 3824POPC   NC349607  33.030   5.845   5.564
 3824POPC   PO449608  33.010   5.836   5.864
 3824POPC   GL149609  33.046   5.879   6.164
 3824POPC   GL249610  32.904   5.953   6.164
 3824POPC   C1A49611  33.035   5.852   6.464
 3824POPC   D2A49612  33.012   5.829   6.764
 3824POPC   C3A49613  33.054   5.853   7.064
 3824POPC   C4A49614  33.032   5.871   7.364
 3824POPC   C1B49615  32.874   6.081   6.464
 3824POPC   C2B49616  32.833   6.019   6.764
 3824POPC   C3B49617  32.859   6.072   7.064
 3824POPC   C4B49618  32.837   6.079   7.364
 3825POPC   NC349619  29.927  37.665   5.564
 3825POPC   PO449620  29.919  37.725   5.864
 3825POPC   GL149621  29.936  37.727   6.164
 3825POPC   GL249622  29.882  37.846   6.164
 3825POPC   C1A49623  29.910  37.634   6.464
 3825POPC   D2A49624  29.889  37.726   6.764
 3825POPC   C3A49625  29.965  37.643   7.064
 3825POPC   C4A49626  29.966  37.701   7.364
 3825POPC   C1B49627  29.869  37.960   6.464
 3825POPC   C2B49628  29.814  37.946   6.764
 3825POPC   C3B49629  29.855  37.958   7.064
 3825POPC   C4B49630  29.858  37.877   7.364
 3826POPC   NC349631   7.408   6.691   5.564
 3826POPC   PO449632   7.407   6.610   5.864
 3826POPC   GL149633   7.441   6.638   6.164
 3826POPC   GL249634   7.317   6.661   6.164
 3826POPC   C1A49635   7.446   6.606   6.464
 3826POPC   D2A49636   7.414   6.607   6.764
 3826POPC   C3A49637   7.408   6.604   7.064
 3826POPC   C4A49638   7.414   6.611   7.364
 3826POPC   C1B49639   7.189   6.666   6.464
 3826POPC   C2B49640   7.131   6.714   6.764
 3826POPC   C3B49641   7.199   6.668   7.064
 3826POPC   C4B49642   7.124   6.648   7.364
 3827POPC   NC349643  34.596  37.693   5.564
 3827POPC   PO449644  34.594  37.662   5.864
 3827POPC   GL149645  34.534  37.646   6.164
 3827POPC   GL249646  34.693  37.705   6.164
 3827POPC   C1A49647  34.568  37.658   6.464
 3827POPC   D2A49648  34.585  37.641   6.764
 3827POPC   C3A49649  34.588  37.697   7.064
 3827POPC   C4A49650  34.575  37.637   7.364
 3827POPC   C1B49651  34.847  37.750   6.464
 3827POPC   C2B49652  34.776  37.677   6.764
 3827POPC   C3B49653  34.782  37.729   7.064
 3827POPC   C4B49654  34.871  37.683   7.364
 3828POPC   NC349655  14.373  15.909   5.564
 3828POPC   PO449656  14.377  16.002   5.864
 3828POPC   GL149657  14.435  15.978   6.164
 3828POPC   GL249658  14.401  15.875   6.164
 3828POPC   C1A49659  14.422  16.003   6.464
 3828POPC   D2A49660  14.451  15.974   6.764
 3828POPC   C3A49661  14.379  15.928   7.064
 3828POPC   C4A49662  14.406  15.984   7.364
 3828POPC   C1B49663  14.416  15.691   6.464
 3828POPC   C2B49664  14.434  15.730   6.764
 3828POPC   C3B49665  14.471  15.666   7.064
 3828POPC   C4B49666  14.437  15.683   7.364
 3829POPC   NC349667  22.135  12.825   5.564
 3829POPC   PO449668  22.202  12.875   5.864
 3829POPC   GL149669  22.198  12.836   6.164
 3829POPC   GL249670  22.236  12.687   6.164
 3829POPC   C1A49671  22.169  12.807   6.464
 3829POPC   D2A49672  22.177  12.900   6.764
 3829POPC   C3A49673  22.198  12.821   7.064
 3829POPC   C4A49674  22.133  12.851   7.364
 3829POPC   C1B49675  22.272  12.601   6.464
 3829POPC   C2B49676  22.225  12.598   6.764
 3829POPC   C3B49677  22.277  12.576   7.064
 3829POPC   C4B49678  22.212  12.626   7.364
 3830POPC   NC349679  32.254  38.408   5.564
 3830POPC   PO449680  32.200  38.451   5.864
 3830POPC   GL149681  32.202  38.451   6.164
 3830POPC   GL249682  32.315  38.357   6.164
 3830POPC   C1A49683  32.224  38.496   6.464
 3830POPC   D2A49684  32.236  38.501   6.764
 3830POPC   C3A49685  32.268  38.481   7.064
 3830POPC   C4A49686  32.283  38.463   7.364
 3830POPC   C1B49687  32.313  38.174   6.464
 3830POPC   C2B49688  32.328  38.251   6.764
 3830POPC   C3B49689  32.345  38.210   7.064
 3830POPC   C4B49690  32.364  38.238   7.364
 3831POPC   NC349691  43.095  12.803   5.564
 3831POPC   PO449692  43.061  12.861   5.864
 3831POPC   GL149693  43.102  12.891   6.164
 3831POPC   GL249694  43.032  12.802   6.164
 3831POPC   C1A49695  43.079  12.877   6.464
 3831POPC   D2A49696  43.090  12.820   6.764
 3831POPC   C3A49697  43.096  12.877   7.064
 3831POPC   C4A49698  43.068  12.836   7.364
 3831POPC   C1B49699  42.953  12.655   6.464
 3831POPC   C2B49700  42.944  12.671   6.764
 3831POPC   C3B49701  42.922  12.671   7.064
 3831POPC   C4B49702  42.929  12.616   7.364
 3832POPC   NC349703  15.979  42.331   5.564
 3832POPC   PO449704  15.955  42.326   5.864
 3832POPC   GL149705  15.988  42.376   6.164
 3832POPC   GL249706  16.095  42.313   6.164
 3832POPC   C1A49707  15.926  42.305   6.464
 3832POPC   D2A49708  15.939  42.297   6.764
 3832POPC   C3A49709  15.981  42.359   7.064
 3832POPC   C4A49710  15.906  42.343   7.364
 3832POPC   C1B49711  16.184  42.300   6.464
 3832POPC   C2B49712  16.148  42.234   6.764
 3832POPC   C3B49713  16.150  42.254   7.064
 3832POPC   C4B49714  16.200  42.290   7.364
 3833POPC   NC349715  10.493   2.032   5.564
 3833POPC   PO449716  10.484   2.002   5.864
 3833POPC   GL149717  10.551   1.981   6.164
 3833POPC   GL249718  10.660   2.040   6.164
 3833POPC   C1A49719  10.531   1.945   6.464
 3833POPC   D2A49720  10.480   1.954   6.764
 3833POPC   C3A49721  10.513   1.964   7.064
 3833POPC   C4A49722  10.552   1.994   7.364
 3833POPC   C1B49723  10.733   2.197   6.464
 3833POPC   C2B49724  10.685   2.177   6.764
 3833POPC   C3B49725  10.759   2.164   7.064
 3833POPC   C4B49726  10.705   2.125   7.364
 3834POPC   NC349727  24.507  24.506   5.564
 3834POPC   PO449728  24.460  24.447   5.864
 3834POPC   GL149729  24.523  24.531   6.164
 3834POPC   GL249730  24.560  24.511   6.164
 3834POPC   C1A49731  24.460  24.451   6.464
 3834POPC   D2A49732  24.463  24.493   6.764
 3834POPC   C3A49733  24.454  24.513   7.064
 3834POPC   C4A49734  24.522  24.461   7.364
 3834POPC   C1B49735  24.706  24.599   6.464
 3834POPC   C2B49736  24.674  24.587   6.764
 3834POPC   C3B49737  24.746  24.575   7.064
 3834POPC   C4B49738  24.704  24.609   7.364
 3835POPC   NC349739  18.324   5.077   5.564
 3835POPC   PO449740  18.282   5.068   5.864
 3835POPC   GL149741  18.285   5.112   6.164
 3835POPC   GL249742  18.172   5.159   6.164
 3835POPC   C1A49743  18.248   5.131   6.464
 3835POPC   D2A49744  18.292   5.096   6.764
 3835POPC   C3A49745  18.239   5.091   7.064
 3835POPC   C4A49746  18.300   5.113   7.364
 3835POPC   C1B49747  18.200   5.291   6.464
 3835POPC   C2B49748  18.201   5.324   6.764
 3835POPC   C3B49749  18.182   5.354   7.064
 3835POPC   C4B49750  18.153   5.348   7.364
 3836POPC   NC349751  26.801  44.633   5.564
 3836POPC   PO449752  26.803  44.668   5.864
 3836POPC   GL149753  26.838  44.641   6.164
 3836POPC   GL249754  26.856  44.514   6.164
 3836POPC   C1A49755  26.855  44.697   6.464
 3836POPC   D2A49756  26.839  44.671   6.764
 3836POPC   C3A49757  26.837  44.706   7.064
 3836POPC   C4A49758  26.769  44.657   7.364
 3836POPC   C1B49759  26.934  44.476   6.464
 3836POPC   C2B49760  26.930  44.404   6.764
 3836POPC   C3B49761  26.937  44.461   7.064
 3836POPC   C4B49762  26.921  44.461   7.364
 3837POPC   NC349763  36.868  19.017   5.564
 3837POPC   PO449764  36.916  19.031   5.864
 3837POPC   GL149765  36.889  19.059   6.164
 3837POPC   GL249766  36.822  19.009   6.164
 3837POPC   C1A49767  36.884  19.082   6.464
 3837POPC   D2A49768  36.865  19.019   6.764
 3837POPC   C3A49769  36.904  19.104   7.064
 3837POPC   C4A49770  36.863  19.037   7.364
 3837POPC   C1B49771  36.686  19.012   6.464
 3837POPC   C2B49772  36.620  18.928   6.764
 3837POPC   C3B49773  36.715  18.985   7.064
 3837POPC   C4B49774  36.693  18.956   7.364
 3838POPC   NC349775  24.467  31.474   5.564
 3838POPC   PO449776  24.487  31.466   5.864
 3838POPC   GL149777  24.526  31.459   6.164
 3838POPC   GL249778  24.611  31.484   6.164
 3838POPC   C1A49779  24.443  31.505   6.464
 3838POPC   D2A49780  24.463  31.469   6.764
 3838POPC   C3A49781  24.457  31.426   7.064
 3838POPC   C4A49782  24.514  31.444   7.364
 3838POPC   C1B49783  24.773  31.529   6.464
 3838POPC   C2B49784  24.705  31.508   6.764
 3838POPC   C3B49785  24.731  31.536   7.064
 3838POPC   C4B49786  24.705  31.454   7.364
 3839POPC   NC349787   1.234  18.318   5.564
 3839POPC   PO449788   1.164  18.331   5.864
 3839POPC   GL149789   1.178  18.315   6.164
 3839POPC   GL249790   1.306  18.428   6.164
 3839POPC   C1A49791   1.177  18.320   6.464
 3839POPC   D2A49792   1.205  18.265   6.764
 3839POPC   C3A49793   1.196  18.289   7.064
 3839POPC   C4A49794   1.194  18.257   7.364
 3839POPC   C1B49795   1.304  18.473   6.464
 3839POPC   C2B49796   1.284  18.556   6.764
 3839POPC   C3B49797   1.339  18.471   7.064
 3839POPC   C4B49798   1.302  18.466   7.364
 3840POPC   NC349799  26.061  21.433   5.564
 3840POPC   PO449800  26.044  21.357   5.864
 3840POPC   GL149801  26.080  21.404   6.164
 3840POPC   GL249802  25.999  21.458   6.164
 3840POPC   C1A49803  26.059  21.348   6.464
 3840POPC   D2A49804  26.087  21.415   6.764
 3840POPC   C3A49805  26.056  21.354   7.064
 3840POPC   C4A49806  26.040  21.418   7.364
 3840POPC   C1B49807  25.852  21.550   6.464
 3840POPC   C2B49808  25.933  21.544   6.764
 3840POPC   C3B49809  25.890  21.553   7.064
 3840POPC   C4B49810  25.864  21.544   7.364
 3841POPC   NC349811  34.571  18.251   5.564
 3841POPC   PO449812  34.569  18.273   5.864
 3841POPC   GL149813  34.560  18.304   6.164
 3841POPC   GL249814  34.496  18.387   6.164
 3841POPC   C1A49815  34.584  18.269   6.464
 3841POPC   D2A49816  34.601  18.330   6.764
 3841POPC   C3A49817  34.587  18.290   7.064
 3841POPC   C4A49818  34.589  18.272   7.364
 3841POPC   C1B49819  34.391  18.405   6.464
 3841POPC   C2B49820  34.393  18.378   6.764
 3841POPC   C3B49821  34.352  18.426   7.064
 3841POPC   C4B49822  34.394  18.360   7.364
 3842POPC   NC349823   4.318  29.109   5.564
 3842POPC   PO449824   4.335  29.127   5.864
 3842POPC   GL149825   4.316  29.135   6.164
 3842POPC   GL249826   4.241  29.226   6.164
 3842POPC   C1A49827   4.274  29.146   6.464
 3842POPC   D2A49828   4.339  29.186   6.764
 3842POPC   C3A49829   4.299  29.141   7.064
 3842POPC   C4A49830   4.305  29.155   7.364
 3842POPC   C1B49831   4.132  29.371   6.464
 3842POPC   C2B49832   4.180  29.344   6.764
 3842POPC   C3B49833   4.133  29.298   7.064
 3842POPC   C4B49834   4.163  29.321   7.364
 3843POPC   NC349835  34.581   6.629   5.564
 3843POPC   PO449836  34.545   6.633   5.864
 3843POPC   GL149837  34.563   6.629   6.164
 3843POPC   GL249838  34.575   6.557   6.164
 3843POPC   C1A49839  34.614   6.668   6.464
 3843POPC   D2A49840  34.559   6.628   6.764
 3843POPC   C3A49841  34.549   6.677   7.064
 3843POPC   C4A49842  34.526   6.598   7.364
 3843POPC   C1B49843  34.482   6.364   6.464
 3843POPC   C2B49844  34.550   6.408   6.764
 3843POPC   C3B49845  34.492   6.434   7.064
 3843POPC   C4B49846  34.521   6.386   7.364
 3844POPC   NC349847  37.653  27.567   5.564
 3844POPC   PO449848  37.695  27.603   5.864
 3844POPC   GL149849  37.720  27.617   6.164
 3844POPC   GL249850  37.662  27.452   6.164
 3844POPC   C1A49851  37.722  27.600   6.464
 3844POPC   D2A49852  37.725  27.581   6.764
 3844POPC   C3A49853  37.657  27.604   7.064
 3844POPC   C4A49854  37.688  27.576   7.364
 3844POPC   C1B49855  37.694  27.362   6.464
 3844POPC   C2B49856  37.779  27.318   6.764
 3844POPC   C3B49857  37.775  27.339   7.064
 3844POPC   C4B49858  37.758  27.333   7.364
 3845POPC   NC349859  24.527  42.315   5.564
 3845POPC   PO449860  24.532  42.324   5.864
 3845POPC   GL149861  24.448  42.378   6.164
 3845POPC   GL249862  24.577  42.470   6.164
 3845POPC   C1A49863  24.497  42.338   6.464
 3845POPC   D2A49864  24.465  42.374   6.764
 3845POPC   C3A49865  24.501  42.367   7.064
 3845POPC   C4A49866  24.500  42.300   7.364
 3845POPC   C1B49867  24.679  42.500   6.464
 3845POPC   C2B49868  24.635  42.492   6.764
 3845POPC   C3B49869  24.603  42.568   7.064
 3845POPC   C4B49870  24.626  42.563   7.364
 3846POPC   NC349871   6.611  40.026   5.564
 3846POPC   PO449872   6.596  39.982   5.864
 3846POPC   GL149873   6.629  39.976   6.164
 3846POPC   GL249874   6.510  39.967   6.164
 3846POPC   C1A49875   6.693  39.975   6.464
 3846POPC   D2A49876   6.673  39.975   6.764
 3846POPC   C3A49877   6.646  39.987   7.064
 3846POPC   C4A49878   6.625  40.012   7.364
 3846POPC   C1B49879   6.351  39.984   6.464
 3846POPC   C2B49880   6.385  39.949   6.764
 3846POPC   C3B49881   6.430  39.925   7.064
 3846POPC   C4B49882   6.437  39.955   7.364
 3847POPC   NC349883  43.879  21.436   5.564
 3847POPC   PO449884  43.865  21.382   5.864
 3847POPC   GL149885  43.839  21.371   6.164
 3847POPC   GL249886  43.789  21.478   6.164
 3847POPC   C1A49887  43.879  21.398   6.464
 3847POPC   D2A49888  43.875  21.353   6.764
 3847POPC   C3A49889  43.928  21.375   7.064
 3847POPC   C4A49890  43.862  21.393   7.364
 3847POPC   C1B49891  43.763  21.524   6.464
 3847POPC   C2B49892  43.723  21.534   6.764
 3847POPC   C3B49893  43.755  21.534   7.064
 3847POPC   C4B49894  43.768  21.619   7.364
 3848POPC   NC349895  43.142   6.684   5.564
 3848POPC   PO449896  43.087   6.647   5.864
 3848POPC   GL149897  43.081   6.657   6.164
 3848POPC   GL249898  43.198   6.698   6.164
 3848POPC   C1A49899  43.066   6.636   6.464
 3848POPC   D2A49900  43.103   6.653   6.764
 3848POPC   C3A49901  43.076   6.663   7.064
 3848POPC   C4A49902  43.106   6.633   7.364
 3848POPC   C1B49903  43.353   6.632   6.464
 3848POPC   C2B49904  43.394   6.673   6.764
 3848POPC   C3B49905  43.323   6.661   7.064
 3848POPC   C4B49906  43.316   6.654   7.364
 3849POPC   NC349907   7.454  44.645   5.564
 3849POPC   PO449908   7.439  44.689   5.864
 3849POPC   GL149909   7.385  44.634   6.164
 3849POPC   GL249910   7.400  44.736   6.164
 3849POPC   C1A49911   7.451  44.672   6.464
 3849POPC   D2A49912   7.375  44.634   6.764
 3849POPC   C3A49913   7.437  44.687   7.064
 3849POPC   C4A49914   7.437  44.652   7.364
 3849POPC   C1B49915   7.386  44.956   6.464
 3849POPC   C2B49916   7.422  44.953   6.764
 3849POPC   C3B49917   7.353  44.938   7.064
 3849POPC   C4B49918   7.379  44.904   7.364
 3850POPC   NC349919  24.462  43.081   5.564
 3850POPC   PO449920  24.521  43.144   5.864
 3850POPC   GL149921  24.452  43.108   6.164
 3850POPC   GL249922  24.517  43.218   6.164
 3850POPC   C1A49923  24.534  43.144   6.464
 3850POPC   D2A49924  24.456  43.114   6.764
 3850POPC   C3A49925  24.464  43.117   7.064
 3850POPC   C4A49926  24.525  43.144   7.364
 3850POPC   C1B49927  24.594  43.258   6.464
 3850POPC   C2B49928  24.664  43.303   6.764
 3850POPC   C3B49929  24.609  43.330   7.064
 3850POPC   C4B49930  24.597  43.276   7.364
 3851POPC   NC349931   6.666  28.343   5.564
 3851POPC   PO449932   6.637  28.374   5.864
 3851POPC   GL149933   6.624  28.360   6.164
 3851POPC   GL249934   6.568  28.274   6.164
 3851POPC   C1A49935   6.673  28.357   6.464
 3851POPC   D2A49936   6.620  28.369   6.764
 3851POPC   C3A49937   6.690  28.338   7.064
 3851POPC   C4A49938   6.673  28.338   7.364
 3851POPC   C1B49939   6.390  28.289   6.464
 3851POPC   C2B49940   6.384  28.271   6.764
 3851POPC   C3B49941   6.442  28.301   7.064
 3851POPC   C4B49942   6.386  28.319   7.364
 3852POPC   NC349943  13.606  37.726   5.564
 3852POPC   PO449944  13.594  37.650   5.864
 3852POPC   GL149945  13.641  37.718   6.164
 3852POPC   GL249946  13.615  37.539   6.164
 3852POPC   C1A49947  13.629  37.674   6.464
 3852POPC   D2A49948  13.637  37.721   6.764
 3852POPC   C3A49949  13.661  37.650   7.064
 3852POPC   C4A49950  13.610  37.633   7.364
 3852POPC   C1B49951  13.582  37.404   6.464
 3852POPC   C2B49952  13.606  37.428   6.764
 3852POPC   C3B49953  13.584  37.412   7.064
 3852POPC   C4B49954  13.628  37.381   7.364
 3853POPC   NC349955  22.199  15.982   5.564
 3853POPC   PO449956  22.176  15.926   5.864
 3853POPC   GL149957  22.168  15.948   6.164
 3853POPC   GL249958  22.139  15.816   6.164
 3853POPC   C1A49959  22.209  15.962   6.464
 3853POPC   D2A49960  22.113  15.948   6.764
 3853POPC   C3A49961  22.152  15.967   7.064
 3853POPC   C4A49962  22.147  15.913   7.364
 3853POPC   C1B49963  22.064  15.692   6.464
 3853POPC   C2B49964  22.065  15.740   6.764
 3853POPC   C3B49965  22.061  15.687   7.064
 3853POPC   C4B49966  22.092  15.719   7.364
 3854POPC   NC349967   2.025  31.514   5.564
 3854POPC   PO449968   1.988  31.493   5.864
 3854POPC   GL149969   2.025  31.497   6.164
 3854POPC   GL249970   2.052  31.376   6.164
 3854POPC   C1A49971   1.953  31.484   6.464
 3854POPC   D2A49972   1.982  31.506   6.764
 3854POPC   C3A49973   1.948  31.452   7.064
 3854POPC   C4A49974   1.986  31.443   7.364
 3854POPC   C1B49975   2.138  31.292   6.464
 3854POPC   C2B49976   2.149  31.263   6.764
 3854POPC   C3B49977   2.091  31.251   7.064
 3854POPC   C4B49978   2.145  31.216   7.364
 3855POPC   NC349979  43.852  18.257   5.564
 3855POPC   PO449980  43.856  18.243   5.864
 3855POPC   GL149981  43.885  18.277   6.164
 3855POPC   GL249982  43.998  18.187   6.164
 3855POPC   C1A49983  43.917  18.279   6.464
 3855POPC   D2A49984  43.862  18.330   6.764
 3855POPC   C3A49985  43.873  18.325   7.064
 3855POPC   C4A49986  43.887  18.317   7.364
 3855POPC   C1B49987  44.096  18.168   6.464
 3855POPC   C2B49988  44.130  18.136   6.764
 3855POPC   C3B49989  44.095  18.187   7.064
 3855POPC   C4B49990  44.063  18.118   7.364
 3856POPC   NC349991  33.037   9.701   5.564
 3856POPC   PO449992  33.009   9.709   5.864
 3856POPC   GL149993  32.975   9.788   6.164
 3856POPC   GL249994  33.121   9.827   6.164
 3856POPC   C1A49995  33.008   9.714   6.464
 3856POPC   D2A49996  33.044   9.781   6.764
 3856POPC   C3A49997  33.025   9.752   7.064
 3856POPC   C4A49998  33.017   9.772   7.364
 3856POPC   C1B49999  33.214   9.851   6.464
 3856POPC   C2B50000  33.201   9.880   6.764
 3856POPC   C3B50001  33.191   9.848   7.064
 3856POPC   C4B50002  33.247   9.906   7.364
 3857POPC   NC350003  44.625  26.791   5.564
 3857POPC   PO450004  44.707  26.800   5.864
 3857POPC   GL150005  44.629  26.800   6.164
 3857POPC   GL250006  44.596  26.868   6.164
 3857POPC   C1A50007  44.619  26.865   6.464
 3857POPC   D2A50008  44.699  26.812   6.764
 3857POPC   C3A50009  44.647  26.851   7.064
 3857POPC   C4A50010  44.641  26.832   7.364
 3857POPC   C1B50011  44.506  27.007   6.464
 3857POPC   C2B50012  44.511  26.984   6.764
 3857POPC   C3B50013  44.503  26.976   7.064
 3857POPC   C4B50014  44.538  27.041   7.364
 3858POPC   NC350015   2.743   3.580   5.564
 3858POPC   PO450016   2.757   3.511   5.864
 3858POPC   GL150017   2.771   3.530   6.164
 3858POPC   GL250018   2.863   3.469   6.164
 3858POPC   C1A50019   2.794   3.533   6.464
 3858POPC   D2A50020   2.753   3.578   6.764
 3858POPC   C3A50021   2.742   3.517   7.064
 3858POPC   C4A50022   2.814   3.498   7.364
 3858POPC   C1B50023   3.015   3.439   6.464
 3858POPC   C2B50024   2.997   3.380   6.764
 3858POPC   C3B50025   2.989   3.358   7.064
 3858POPC   C4B50026   3.005   3.357   7.364
 3859POPC   NC350027  40.809  12.891   5.564
 3859POPC   PO450028  40.776  12.902   5.864
 3859POPC   GL150029  40.791  12.900   6.164
 3859POPC   GL250030  40.624  12.798   6.164
 3859POPC   C1A50031  40.739  12.840   6.464
 3859POPC   D2A50032  40.829  12.808   6.764
 3859POPC   C3A50033  40.756  12.821   7.064
 3859POPC   C4A50034  40.781  12.864   7.364
 3859POPC   C1B50035  40.542  12.804   6.464
 3859POPC   C2B50036  40.527  12.876   6.764
 3859POPC   C3B50037  40.537  12.851   7.064
 3859POPC   C4B50038  40.537  12.830   7.364
 3860POPC   NC350039  12.122   0.395   5.564
 3860POPC   PO450040  12.099   0.459   5.864
 3860POPC   GL150041  12.066   0.460   6.164
 3860POPC   GL250042  12.101   0.585   6.164
 3860POPC   C1A50043  12.054   0.440   6.464
 3860POPC   D2A50044  12.046   0.414   6.764
 3860POPC   C3A50045  12.122   0.442   7.064
 3860POPC   C4A50046  12.043   0.426   7.364
 3860POPC   C1B50047  12.148   0.733   6.464
 3860POPC   C2B50048  12.066   0.672   6.764
 3860POPC   C3B50049  12.064   0.717   7.064
 3860POPC   C4B50050  12.099   0.645   7.364
 3861POPC   NC350051  27.544   7.447   5.564
 3861POPC   PO450052  27.570   7.450   5.864
 3861POPC   GL150053  27.640   7.386   6.164
 3861POPC   GL250054  27.676   7.416   6.164
 3861POPC   C1A50055  27.576   7.383   6.464
 3861POPC   D2A50056  27.618   7.420   6.764
 3861POPC   C3A50057  27.597   7.423   7.064
 3861POPC   C4A50058  27.589   7.375   7.364
 3861POPC   C1B50059  27.808   7.377   6.464
 3861POPC   C2B50060  27.862   7.438   6.764
 3861POPC   C3B50061  27.823   7.392   7.064
 3861POPC   C4B50062  27.833   7.385   7.364
 3862POPC   NC350063  10.506  21.433   5.564
 3862POPC   PO450064  10.528  21.407   5.864
 3862POPC   GL150065  10.508  21.402   6.164
 3862POPC   GL250066  10.428  21.411   6.164
 3862POPC   C1A50067  10.556  21.362   6.464
 3862POPC   D2A50068  10.564  21.380   6.764
 3862POPC   C3A50069  10.492  21.358   7.064
 3862POPC   C4A50070  10.498  21.434   7.364
 3862POPC   C1B50071  10.233  21.385   6.464
 3862POPC   C2B50072  10.249  21.381   6.764
 3862POPC   C3B50073  10.321  21.381   7.064
 3862POPC   C4B50074  10.262  21.384   7.364
 3863POPC   NC350075   9.736  29.172   5.564
 3863POPC   PO450076   9.794  29.104   5.864
 3863POPC   GL150077   9.717  29.148   6.164
 3863POPC   GL250078   9.811  29.041   6.164
 3863POPC   C1A50079   9.710  29.171   6.464
 3863POPC   D2A50080   9.753  29.096   6.764
 3863POPC   C3A50081   9.714  29.158   7.064
 3863POPC   C4A50082   9.766  29.183   7.364
 3863POPC   C1B50083   9.839  28.863   6.464
 3863POPC   C2B50084   9.836  28.936   6.764
 3863POPC   C3B50085   9.782  28.864   7.064
 3863POPC   C4B50086   9.875  28.952   7.364
 3864POPC   NC350087  16.005   1.212   5.564
 3864POPC   PO450088  15.910   1.175   5.864
 3864POPC   GL150089  15.991   1.195   6.164
 3864POPC   GL250090  16.002   1.057   6.164
 3864POPC   C1A50091  15.921   1.258   6.464
 3864POPC   D2A50092  15.932   1.243   6.764
 3864POPC   C3A50093  15.991   1.233   7.064
 3864POPC   C4A50094  15.956   1.251   7.364
 3864POPC   C1B50095  16.089   1.014   6.464
 3864POPC   C2B50096  16.042   1.015   6.764
 3864POPC   C3B50097  16.056   0.965   7.064
 3864POPC   C4B50098  16.042   0.979   7.364
 3865POPC   NC350099  43.932  20.595   5.564
 3865POPC   PO450100  43.871  20.572   5.864
 3865POPC   GL150101  43.902  20.627   6.164
 3865POPC   GL250102  43.784  20.710   6.164
 3865POPC   C1A50103  43.928  20.589   6.464
 3865POPC   D2A50104  43.902  20.571   6.764
 3865POPC   C3A50105  43.874  20.659   7.064
 3865POPC   C4A50106  43.892  20.588   7.364
 3865POPC   C1B50107  43.741  20.833   6.464
 3865POPC   C2B50108  43.729  20.785   6.764
 3865POPC   C3B50109  43.738  20.861   7.064
 3865POPC   C4B50110  43.790  20.779   7.364
 3866POPC   NC350111   1.244   7.375   5.564
 3866POPC   PO450112   1.221   7.463   5.864
 3866POPC   GL150113   1.178   7.470   6.164
 3866POPC   GL250114   1.094   7.357   6.164
 3866POPC   C1A50115   1.255   7.397   6.464
 3866POPC   D2A50116   1.194   7.393   6.764
 3866POPC   C3A50117   1.219   7.380   7.064
 3866POPC   C4A50118   1.240   7.417   7.364
 3866POPC   C1B50119   0.997   7.284   6.464
 3866POPC   C2B50120   1.076   7.240   6.764
 3866POPC   C3B50121   1.069   7.236   7.064
 3866POPC   C4B50122   1.071   7.235   7.364
 3867POPC   NC350123  41.579  33.018   5.564
 3867POPC   PO450124  41.551  33.069   5.864
 3867POPC   GL150125  41.553  32.997   6.164
 3867POPC   GL250126  41.726  32.969   6.164
 3867POPC   C1A50127  41.536  33.029   6.464
 3867POPC   D2A50128  41.566  32.978   6.764
 3867POPC   C3A50129  41.563  32.986   7.064
 3867POPC   C4A50130  41.572  33.048   7.364
 3867POPC   C1B50131  41.825  33.038   6.464
 3867POPC   C2B50132  41.842  33.036   6.764
 3867POPC   C3B50133  41.760  33.031   7.064
 3867POPC   C4B50134  41.850  32.990   7.364
 3868POPC   NC350135  41.566   3.507   5.564
 3868POPC   PO450136  41.553   3.589   5.864
 3868POPC   GL150137  41.574   3.523   6.164
 3868POPC   GL250138  41.442   3.433   6.164
 3868POPC   C1A50139  41.580   3.552   6.464
 3868POPC   D2A50140  41.589   3.517   6.764
 3868POPC   C3A50141  41.595   3.504   7.064
 3868POPC   C4A50142  41.557   3.567   7.364
 3868POPC   C1B50143  41.423   3.367   6.464
 3868POPC   C2B50144  41.430   3.305   6.764
 3868POPC   C3B50145  41.380   3.307   7.064
 3868POPC   C4B50146  41.366   3.369   7.364
 3869POPC   NC350147  36.877   2.782   5.564
 3869POPC   PO450148  36.887   2.731   5.864
 3869POPC   GL150149  36.903   2.796   6.164
 3869POPC   GL250150  36.930   2.833   6.164
 3869POPC   C1A50151  36.939   2.747   6.464
 3869POPC   D2A50152  36.880   2.771   6.764
 3869POPC   C3A50153  36.855   2.814   7.064
 3869POPC   C4A50154  36.913   2.769   7.364
 3869POPC   C1B50155  37.049   2.986   6.464
 3869POPC   C2B50156  36.986   2.972   6.764
 3869POPC   C3B50157  36.960   3.035   7.064
 3869POPC   C4B50158  37.012   2.949   7.364
 3870POPC   NC350159   4.302  22.914   5.564
 3870POPC   PO450160   4.322  22.977   5.864
 3870POPC   GL150161   4.297  22.938   6.164
 3870POPC   GL250162   4.283  23.071   6.164
 3870POPC   C1A50163   4.312  22.908   6.464
 3870POPC   D2A50164   4.292  22.969   6.764
 3870POPC   C3A50165   4.315  22.956   7.064
 3870POPC   C4A50166   4.319  22.930   7.364
 3870POPC   C1B50167   4.219  23.182   6.464
 3870POPC   C2B50168   4.130  23.100   6.764
 3870POPC   C3B50169   4.148  23.162   7.064
 3870POPC   C4B50170   4.186  23.101   7.364
 3871POPC   NC350171  15.220  36.866   5.564
 3871POPC   PO450172  15.132  36.882   5.864
 3871POPC   GL150173  15.176  36.948   6.164
 3871POPC   GL250174  15.082  36.934   6.164
 3871POPC   C1A50175  15.208  36.877   6.464
 3871POPC   D2A50176  15.146  36.917   6.764
 3871POPC   C3A50177  15.213  36.923   7.064
 3871POPC   C4A50178  15.133  36.857   7.364
 3871POPC   C1B50179  14.910  36.894   6.464
 3871POPC   C2B50180  14.894  36.828   6.764
 3871POPC   C3B50181  14.897  36.863   7.064
 3871POPC   C4B50182  14.940  36.856   7.364
 3872POPC   NC350183  11.264   3.543   5.564
 3872POPC   PO450184  11.297   3.577   5.864
 3872POPC   GL150185  11.254   3.513   6.164
 3872POPC   GL250186  11.202   3.531   6.164
 3872POPC   C1A50187  11.325   3.566   6.464
 3872POPC   D2A50188  11.323   3.504   6.764
 3872POPC   C3A50189  11.266   3.493   7.064
 3872POPC   C4A50190  11.271   3.534   7.364
 3872POPC   C1B50191  11.074   3.586   6.464
 3872POPC   C2B50192  11.035   3.538   6.764
 3872POPC   C3B50193  11.098   3.631   7.064
 3872POPC   C4B50194  11.092   3.541   7.364
 3873POPC   NC350195  26.032  29.874   5.564
 3873POPC   PO450196  26.069  29.897   5.864
 3873POPC   GL150197  26.082  29.891   6.164
 3873POPC   GL250198  25.927  29.978   6.164
 3873POPC   C1A50199  26.079  29.917   6.464
 3873POPC   D2A50200  26.059  29.938   6.764
 3873POPC   C3A50201  26.090  29.872   7.064
 3873POPC   C4A50202  26.061  29.952   7.364
 3873POPC   C1B50203  25.802  29.979   6.464
 3873POPC   C2B50204  25.797  29.991   6.764
 3873POPC   C3B50205  25.853  30.039   7.064
 3873POPC   C4B50206  25.811  30.044   7.364
 3874POPC   NC350207  41.526   7.391   5.564
 3874POPC   PO450208  41.549   7.416   5.864
 3874POPC   GL150209  41.522   7.465   6.164
 3874POPC   GL250210  41.480   7.308   6.164
 3874POPC   C1A50211  41.597   7.449   6.464
 3874POPC   D2A50212  41.517   7.468   6.764
 3874POPC   C3A50213  41.512   7.378   7.064
 3874POPC   C4A50214  41.566   7.414   7.364
 3874POPC   C1B50215  41.299   7.318   6.464
 3874POPC   C2B50216  41.317   7.278   6.764
 3874POPC   C3B50217  41.374   7.266   7.064
 3874POPC   C4B50218  41.299   7.336   7.364
 3875POPC   NC350219  24.443  36.870   5.564
 3875POPC   PO450220  24.456  36.894   5.864
 3875POPC   GL150221  24.455  36.879   6.164
 3875POPC   GL250222  24.625  36.881   6.164
 3875POPC   C1A50223  24.469  36.876   6.464
 3875POPC   D2A50224  24.520  36.915   6.764
 3875POPC   C3A50225  24.460  36.883   7.064
 3875POPC   C4A50226  24.511  36.917   7.364
 3875POPC   C1B50227  24.769  36.899   6.464
 3875POPC   C2B50228  24.774  36.885   6.764
 3875POPC   C3B50229  24.784  36.859   7.064
 3875POPC   C4B50230  24.777  36.839   7.364
 3876POPC   NC350231  43.917  36.082   5.564
 3876POPC   PO450232  43.909  36.131   5.864
 3876POPC   GL150233  43.916  36.119   6.164
 3876POPC   GL250234  43.896  36.222   6.164
 3876POPC   C1A50235  43.898  36.154   6.464
 3876POPC   D2A50236  43.910  36.159   6.764
 3876POPC   C3A50237  43.854  36.159   7.064
 3876POPC   C4A50238  43.921  36.174   7.364
 3876POPC   C1B50239  43.873  36.420   6.464
 3876POPC   C2B50240  43.839  36.410   6.764
 3876POPC   C3B50241  43.865  36.407   7.064
 3876POPC   C4B50242  43.920  36.396   7.364
 3877POPC   NC350243   0.406   0.438   5.564
 3877POPC   PO450244   0.443   0.407   5.864
 3877POPC   GL150245   0.411   0.474   6.164
 3877POPC   GL250246   0.595   0.438   6.164
 3877POPC   C1A50247   0.478   0.444   6.464
 3877POPC   D2A50248   0.412   0.440   6.764
 3877POPC   C3A50249   0.434   0.452   7.064
 3877POPC   C4A50250   0.452   0.462   7.364
 3877POPC   C1B50251   0.707   0.463   6.464
 3877POPC   C2B50252   0.645   0.378   6.764
 3877POPC   C3B50253   0.680   0.402   7.064
 3877POPC   C4B50254   0.708   0.441   7.364
 3878POPC   NC350255  11.299  32.271   5.564
 3878POPC   PO450256  11.345  32.245   5.864
 3878POPC   GL150257  11.325  32.266   6.164
 3878POPC   GL250258  11.459  32.250   6.164
 3878POPC   C1A50259  11.313  32.288   6.464
 3878POPC   D2A50260  11.303  32.253   6.764
 3878POPC   C3A50261  11.274  32.267   7.064
 3878POPC   C4A50262  11.315  32.216   7.364
 3878POPC   C1B50263  11.510  32.287   6.464
 3878POPC   C2B50264  11.550  32.247   6.764
 3878POPC   C3B50265  11.511  32.256   7.064
 3878POPC   C4B50266  11.590  32.296   7.364
 3879POPC   NC350267  25.302   6.661   5.564
 3879POPC   PO450268  25.313   6.671   5.864
 3879POPC   GL150269  25.266   6.679   6.164
 3879POPC   GL250270  25.315   6.538   6.164
 3879POPC   C1A50271  25.255   6.631   6.464
 3879POPC   D2A50272  25.247   6.619   6.764
 3879POPC   C3A50273  25.299   6.643   7.064
 3879POPC   C4A50274  25.289   6.692   7.364
 3879POPC   C1B50275  25.276   6.423   6.464
 3879POPC   C2B50276  25.292   6.445   6.764
 3879POPC   C3B50277  25.316   6.406   7.064
 3879POPC   C4B50278  25.330   6.409   7.364
 3880POPC   NC350279  42.324  31.510   5.564
 3880POPC   PO450280  42.326  31.468   5.864
 3880POPC   GL150281  42.315  31.464   6.164
 3880POPC   GL250282  42.258  31.371   6.164
 3880POPC   C1A50283  42.308  31.516   6.464
 3880POPC   D2A50284  42.361  31.449   6.764
 3880POPC   C3A50285  42.302  31.471   7.064
 3880POPC   C4A50286  42.318  31.516   7.364
 3880POPC   C1B50287  42.191  31.278   6.464
 3880POPC   C2B50288  42.143  31.238   6.764
 3880POPC   C3B50289  42.199  31.241   7.064
 3880POPC   C4B50290  42.147  31.264   7.364
 3881POPC   NC350291  27.576  20.648   5.564
 3881POPC   PO450292  27.555  20.612   5.864
 3881POPC   GL150293  27.584  20.659   6.164
 3881POPC   GL250294  27.689  20.606   6.164
 3881POPC   C1A50295  27.581  20.598   6.464
 3881POPC   D2A50296  27.594  20.578   6.764
 3881POPC   C3A50297  27.639  20.579   7.064
 3881POPC   C4A50298  27.546  20.636   7.364
 3881POPC   C1B50299  27.861  20.550   6.464
 3881POPC   C2B50300  27.873  20.591   6.764
 3881POPC   C3B50301  27.834  20.585   7.064
 3881POPC   C4B50302  27.843  20.566   7.364
 3882POPC   NC350303  31.428   5.837   5.564
 3882POPC   PO450304  31.500   5.899   5.864
 3882POPC   GL150305  31.455   5.851   6.164
 3882POPC   GL250306  31.467   6.041   6.164
 3882POPC   C1A50307  31.474   5.869   6.464
 3882POPC   D2A50308  31.501   5.892   6.764
 3882POPC   C3A50309  31.471   5.903   7.064
 3882POPC   C4A50310  31.446   5.880   7.364
 3882POPC   C1B50311  31.470   6.158   6.464
 3882POPC   C2B50312  31.491   6.086   6.764
 3882POPC   C3B50313  31.506   6.103   7.064
 3882POPC   C4B50314  31.502   6.141   7.364
 3883POPC   NC350315  22.969   2.804   5.564
 3883POPC   PO450316  22.916   2.789   5.864
 3883POPC   GL150317  22.982   2.767   6.164
 3883POPC   GL250318  22.852   2.731   6.164
 3883POPC   C1A50319  22.948   2.732   6.464
 3883POPC   D2A50320  22.940   2.729   6.764
 3883POPC   C3A50321  22.906   2.802   7.064
 3883POPC   C4A50322  22.937   2.779   7.364
 3883POPC   C1B50323  22.687   2.696   6.464
 3883POPC   C2B50324  22.728   2.705   6.764
 3883POPC   C3B50325  22.718   2.662   7.064
 3883POPC   C4B50326  22.739   2.643   7.364
 3884POPC   NC350327  30.691   8.969   5.564
 3884POPC   PO450328  30.722   8.949   5.864
 3884POPC   GL150329  30.661   9.017   6.164
 3884POPC   GL250330  30.702   9.072   6.164
 3884POPC   C1A50331  30.705   8.983   6.464
 3884POPC   D2A50332  30.674   9.019   6.764
 3884POPC   C3A50333  30.678   8.963   7.064
 3884POPC   C4A50334  30.688   9.013   7.364
 3884POPC   C1B50335  30.651   9.208   6.464
 3884POPC   C2B50336  30.628   9.267   6.764
 3884POPC   C3B50337  30.627   9.185   7.064
 3884POPC   C4B50338  30.627   9.171   7.364
 3885POPC   NC350339  35.388  12.028   5.564
 3885POPC   PO450340  35.395  12.124   5.864
 3885POPC   GL150341  35.350  12.035   6.164
 3885POPC   GL250342  35.417  11.981   6.164
 3885POPC   C1A50343  35.366  12.104   6.464
 3885POPC   D2A50344  35.345  12.060   6.764
 3885POPC   C3A50345  35.335  12.071   7.064
 3885POPC   C4A50346  35.360  12.103   7.364
 3885POPC   C1B50347  35.532  11.854   6.464
 3885POPC   C2B50348  35.513  11.912   6.764
 3885POPC   C3B50349  35.489  11.885   7.064
 3885POPC   C4B50350  35.476  11.841   7.364
 3886POPC   NC350351  42.310  36.906   5.564
 3886POPC   PO450352  42.366  36.951   5.864
 3886POPC   GL150353  42.306  36.860   6.164
 3886POPC   GL250354  42.403  37.018   6.164
 3886POPC   C1A50355  42.312  36.904   6.464
 3886POPC   D2A50356  42.383  36.862   6.764
 3886POPC   C3A50357  42.360  36.904   7.064
 3886POPC   C4A50358  42.384  36.871   7.364
 3886POPC   C1B50359  42.469  37.034   6.464
 3886POPC   C2B50360  42.539  37.072   6.764
 3886POPC   C3B50361  42.467  37.064   7.064
 3886POPC   C4B50362  42.491  37.063   7.364
 3887POPC   NC350363  39.981  30.686   5.564
 3887POPC   PO450364  40.009  30.742   5.864
 3887POPC   GL150365  39.966  30.651   6.164
 3887POPC   GL250366  40.120  30.728   6.164
 3887POPC   C1A50367  39.984  30.701   6.464
 3887POPC   D2A50368  40.011  30.668   6.764
 3887POPC   C3A50369  40.017  30.685   7.064
 3887POPC   C4A50370  39.986  30.691   7.364
 3887POPC   C1B50371  40.231  30.863   6.464
 3887POPC   C2B50372  40.252  30.832   6.764
 3887POPC   C3B50373  40.230  30.857   7.064
 3887POPC   C4B50374  40.214  30.866   7.364
 3888POPC   NC350375  43.906  26.009   5.564
 3888POPC   PO450376  43.934  26.078   5.864
 3888POPC   GL150377  43.934  26.051   6.164
 3888POPC   GL250378  43.945  25.931   6.164
 3888POPC   C1A50379  43.879  26.073   6.464
 3888POPC   D2A50380  43.869  26.018   6.764
 3888POPC   C3A50381  43.935  26.000   7.064
 3888POPC   C4A50382  43.875  26.053   7.364
 3888POPC   C1B50383  43.955  25.788   6.464
 3888POPC   C2B50384  43.932  25.813   6.764
 3888POPC   C3B50385  43.948  25.802   7.064
 3888POPC   C4B50386  43.945  25.827   7.364
 3889POPC   NC350387  32.231   1.961   5.564
 3889POPC   PO450388  32.239   2.007   5.864
 3889POPC   GL150389  32.255   2.039   6.164
 3889POPC   GL250390  32.180   1.860   6.164
 3889POPC   C1A50391  32.230   2.030   6.464
 3889POPC   D2A50392  32.260   1.949   6.764
 3889POPC   C3A50393  32.232   1.982   7.064
 3889POPC   C4A50394  32.288   2.034   7.364
 3889POPC   C1B50395  32.091   1.725   6.464
 3889POPC   C2B50396  32.167   1.797   6.764
 3889POPC   C3B50397  32.097   1.762   7.064
 3889POPC   C4B50398  32.095   1.801   7.364
 3890POPC   NC350399   4.359  15.959   5.564
 3890POPC   PO450400   4.317  15.994   5.864
 3890POPC   GL150401   4.288  15.922   6.164
 3890POPC   GL250402   4.157  15.898   6.164
 3890POPC   C1A50403   4.291  15.937   6.464
 3890POPC   D2A50404   4.284  15.932   6.764
 3890POPC   C3A50405   4.276  15.972   7.064
 3890POPC   C4A50406   4.273  15.978   7.364
 3890POPC   C1B50407   4.049  15.864   6.464
 3890POPC   C2B50408   4.064  15.856   6.764
 3890POPC   C3B50409   4.054  15.834   7.064
 3890POPC   C4B50410   4.131  15.849   7.364
 3891POPC   NC350411  36.115  23.704   5.564
 3891POPC   PO450412  36.169  23.740   5.864
 3891POPC   GL150413  36.083  23.673   6.164
 3891POPC   GL250414  35.964  23.707   6.164
 3891POPC   C1A50415  36.141  23.669   6.464
 3891POPC   D2A50416  36.121  23.675   6.764
 3891POPC   C3A50417  36.114  23.680   7.064
 3891POPC   C4A50418  36.174  23.679   7.364
 3891POPC   C1B50419  35.877  23.639   6.464
 3891POPC   C2B50420  35.867  23.689   6.764
 3891POPC   C3B50421  35.920  23.637   7.064
 3891POPC   C4B50422  35.936  23.616   7.364
 3892POPC   NC350423  22.179  30.729   5.564
 3892POPC   PO450424  22.173  30.647   5.864
 3892POPC   GL150425  22.139  30.725   6.164
 3892POPC   GL250426  22.070  30.587   6.164
 3892POPC   C1A50427  22.138  30.726   6.464
 3892POPC   D2A50428  22.134  30.706   6.764
 3892POPC   C3A50429  22.123  30.662   7.064
 3892POPC   C4A50430  22.154  30.730   7.364
 3892POPC   C1B50431  21.947  30.515   6.464
 3892POPC   C2B50432  21.981  30.586   6.764
 3892POPC   C3B50433  21.926  30.500   7.064
 3892POPC   C4B50434  21.980  30.510   7.364
 3893POPC   NC350435  29.129  29.939   5.564
 3893POPC   PO450436  29.134  29.882   5.864
 3893POPC   GL150437  29.150  29.961   6.164
 3893POPC   GL250438  29.034  29.969   6.164
 3893POPC   C1A50439  29.130  29.887   6.464
 3893POPC   D2A50440  29.159  29.918   6.764
 3893POPC   C3A50441  29.110  29.876   7.064
 3893POPC   C4A50442  29.155  29.885   7.364
 3893POPC   C1B50443  28.896  29.934   6.464
 3893POPC   C2B50444  28.851  29.918   6.764
 3893POPC   C3B50445  28.914  29.957   7.064
 3893POPC   C4B50446  28.872  29.965   7.364
 3894POPC   NC350447  40.046  22.190   5.564
 3894POPC   PO450448  39.977  22.189   5.864
 3894POPC   GL150449  39.986  22.114   6.164
 3894POPC   GL250450  40.138  22.221   6.164
 3894POPC   C1A50451  40.011  22.196   6.464
 3894POPC   D2A50452  40.030  22.166   6.764
 3894POPC   C3A50453  40.049  22.127   7.064
 3894POPC   C4A50454  40.018  22.144   7.364
 3894POPC   C1B50455  40.197  22.367   6.464
 3894POPC   C2B50456  40.195  22.373   6.764
 3894POPC   C3B50457  40.217  22.276   7.064
 3894POPC   C4B50458  40.238  22.337   7.364
 3895POPC   NC350459   8.225  40.791   5.564
 3895POPC   PO450460   8.244  40.823   5.864
 3895POPC   GL150461   8.193  40.750   6.164
 3895POPC   GL250462   8.113  40.684   6.164
 3895POPC   C1A50463   8.149  40.825   6.464
 3895POPC   D2A50464   8.178  40.790   6.764
 3895POPC   C3A50465   8.176  40.803   7.064
 3895POPC   C4A50466   8.218  40.815   7.364
 3895POPC   C1B50467   8.006  40.591   6.464
 3895POPC   C2B50468   8.084  40.555   6.764
 3895POPC   C3B50469   8.042  40.557   7.064
 3895POPC   C4B50470   8.087  40.584   7.364
 3896POPC   NC350471   6.642  12.828   5.564
 3896POPC   PO450472   6.684  12.849   5.864
 3896POPC   GL150473   6.609  12.827   6.164
 3896POPC   GL250474   6.528  12.768   6.164
 3896POPC   C1A50475   6.685  12.817   6.464
 3896POPC   D2A50476   6.694  12.812   6.764
 3896POPC   C3A50477   6.613  12.889   7.064
 3896POPC   C4A50478   6.688  12.818   7.364
 3896POPC   C1B50479   6.515  12.675   6.464
 3896POPC   C2B50480   6.516  12.683   6.764
 3896POPC   C3B50481   6.492  12.638   7.064
 3896POPC   C4B50482   6.447  12.629   7.364
 3897POPC   NC350483  16.699  15.982   5.564
 3897POPC   PO450484  16.769  15.933   5.864
 3897POPC   GL150485  16.700  15.910   6.164
 3897POPC   GL250486  16.733  16.071   6.164
 3897POPC   C1A50487  16.779  15.932   6.464
 3897POPC   D2A50488  16.740  15.984   6.764
 3897POPC   C3A50489  16.732  15.998   7.064
 3897POPC   C4A50490  16.692  15.938   7.364
 3897POPC   C1B50491  16.836  16.227   6.464
 3897POPC   C2B50492  16.760  16.216   6.764
 3897POPC   C3B50493  16.795  16.170   7.064
 3897POPC   C4B50494  16.840  16.175   7.364
 3898POPC   NC350495  13.585  38.434   5.564
 3898POPC   PO450496  13.657  38.483   5.864
 3898POPC   GL150497  13.589  38.448   6.164
 3898POPC   GL250498  13.529  38.324   6.164
 3898POPC   C1A50499  13.615  38.479   6.464
 3898POPC   D2A50500  13.664  38.461   6.764
 3898POPC   C3A50501  13.644  38.433   7.064
 3898POPC   C4A50502  13.611  38.420   7.364
 3898POPC   C1B50503  13.472  38.232   6.464
 3898POPC   C2B50504  13.497  38.187   6.764
 3898POPC   C3B50505  13.489  38.194   7.064
 3898POPC   C4B50506  13.535  38.180   7.364
 3899POPC   NC350507   8.203   8.931   5.564
 3899POPC   PO450508   8.150   8.931   5.864
 3899POPC   GL150509   8.215   8.967   6.164
 3899POPC   GL250510   8.045   8.950   6.164
 3899POPC   C1A50511   8.183   8.972   6.464
 3899POPC   D2A50512   8.211   8.984   6.764
 3899POPC   C3A50513   8.233   8.980   7.064
 3899POPC   C4A50514   8.195   8.934   7.364
 3899POPC   C1B50515   7.921   8.895   6.464
 3899POPC   C2B50516   7.980   8.851   6.764
 3899POPC   C3B50517   7.935   8.899   7.064
 3899POPC   C4B50518   7.989   8.878   7.364
 3900POPC   NC350519  22.156   4.306   5.564
 3900POPC   PO450520  22.177   4.297   5.864
 3900POPC   GL150521  22.208   4.361   6.164
 3900POPC   GL250522  22.157   4.456   6.164
 3900POPC   C1A50523  22.115   4.353   6.464
 3900POPC   D2A50524  22.131   4.320   6.764
 3900POPC   C3A50525  22.189   4.307   7.064
 3900POPC   C4A50526  22.188   4.346   7.364
 3900POPC   C1B50527  22.095   4.549   6.464
 3900POPC   C2B50528  22.123   4.552   6.764
 3900POPC   C3B50529  22.059   4.573   7.064
 3900POPC   C4B50530  22.145   4.607   7.364
 3901POPC   NC350531  12.087  40.030   5.564
 3901POPC   PO450532  12.067  40.017   5.864
 3901POPC   GL150533  12.072  40.026   6.164
 3901POPC   GL250534  11.994  40.135   6.164
 3901POPC   C1A50535  12.065  39.961   6.464
 3901POPC   D2A50536  12.122  39.963   6.764
 3901POPC   C3A50537  12.068  40.010   7.064
 3901POPC   C4A50538  12.116  39.967   7.364
 3901POPC   C1B50539  11.962  40.247   6.464
 3901POPC   C2B50540  12.050  40.231   6.764
 3901POPC   C3B50541  11.990  40.207   7.064
 3901POPC   C4B50542  11.997  40.212   7.364
 3902POPC   NC350543   9.731  37.680   5.564
 3902POPC   PO450544   9.712  37.680   5.864
 3902POPC   GL150545   9.775  37.678   6.164
 3902POPC   GL250546   9.886  37.646   6.164
 3902POPC   C1A50547   9.756  37.682   6.464
 3902POPC   D2A50548   9.782  37.639   6.764
 3902POPC   C3A50549   9.760  37.722   7.064
 3902POPC   C4A50550   9.791  37.670   7.364
 3902POPC   C1B50551   9.966  37.521   6.464
 3902POPC   C2B50552   9.943  37.507   6.764
 3902POPC   C3B50553   9.984  37.512   7.064
 3902POPC   C4B50554   9.992  37.583   7.364
 3903POPC   NC350555   5.108  10.475   5.564
 3903POPC   PO450556   5.108  10.512   5.864
 3903POPC   GL150557   5.118  10.501   6.164
 3903POPC   GL250558   4.972  10.494   6.164
 3903POPC   C1A50559   5.112  10.551   6.464
 3903POPC   D2A50560   5.069  10.526   6.764
 3903POPC   C3A50561   5.045  10.482   7.064
 3903POPC   C4A50562   5.074  10.520   7.364
 3903POPC   C1B50563   4.827  10.453   6.464
 3903POPC   C2B50564   4.884  10.473   6.764
 3903POPC   C3B50565   4.851  10.486   7.064
 3903POPC   C4B50566   4.844  10.537   7.364
 3904POPC   NC350567  41.527  13.607   5.564
 3904POPC   PO450568  41.554  13.582   5.864
 3904POPC   GL150569  41.603  13.635   6.164
 3904POPC   GL250570  41.691  13.696   6.164
 3904POPC   C1A50571  41.595  13.636   6.464
 3904POPC   D2A50572  41.522  13.589   6.764
 3904POPC   C3A50573  41.521  13.665   7.064
 3904POPC   C4A50574  41.607  13.672   7.364
 3904POPC   C1B50575  41.736  13.819   6.464
 3904POPC   C2B50576  41.687  13.845   6.764
 3904POPC   C3B50577  41.710  13.857   7.064
 3904POPC   C4B50578  41.731  13.828   7.364
 3905POPC   NC350579  33.758  36.108   5.564
 3905POPC   PO450580  33.842  36.108   5.864
 3905POPC   GL150581  33.795  36.126   6.164
 3905POPC   GL250582  33.728  36.257   6.164
 3905POPC   C1A50583  33.847  36.123   6.464
 3905POPC   D2A50584  33.760  36.138   6.764
 3905POPC   C3A50585  33.823  36.153   7.064
 3905POPC   C4A50586  33.797  36.079   7.364
 3905POPC   C1B50587  33.622  36.285   6.464
 3905POPC   C2B50588  33.686  36.368   6.764
 3905POPC   C3B50589  33.620  36.349   7.064
 3905POPC   C4B50590  33.610  36.306   7.364
 3906POPC   NC350591  24.487  36.095   5.564
 3906POPC   PO450592  24.466  36.166   5.864
 3906POPC   GL150593  24.458  36.082   6.164
 3906POPC   GL250594  24.533  35.979   6.164
 3906POPC   C1A50595  24.466  36.126   6.464
 3906POPC   D2A50596  24.514  36.143   6.764
 3906POPC   C3A50597  24.519  36.106   7.064
 3906POPC   C4A50598  24.519  36.134   7.364
 3906POPC   C1B50599  24.658  35.927   6.464
 3906POPC   C2B50600  24.582  35.883   6.764
 3906POPC   C3B50601  24.567  35.912   7.064
 3906POPC   C4B50602  24.575  35.949   7.364
 3907POPC   NC350603  26.853  14.392   5.564
 3907POPC   PO450604  26.777  14.428   5.864
 3907POPC   GL150605  26.787  14.427   6.164
 3907POPC   GL250606  26.675  14.474   6.164
 3907POPC   C1A50607  26.866  14.374   6.464
 3907POPC   D2A50608  26.784  14.436   6.764
 3907POPC   C3A50609  26.851  14.433   7.064
 3907POPC   C4A50610  26.769  14.389   7.364
 3907POPC   C1B50611  26.627  14.492   6.464
 3907POPC   C2B50612  26.622  14.511   6.764
 3907POPC   C3B50613  26.571  14.497   7.064
 3907POPC   C4B50614  26.571  14.548   7.364
 3908POPC   NC350615  26.812  15.216   5.564
 3908POPC   PO450616  26.839  15.150   5.864
 3908POPC   GL150617  26.792  15.165   6.164
 3908POPC   GL250618  26.776  15.088   6.164
 3908POPC   C1A50619  26.814  15.141   6.464
 3908POPC   D2A50620  26.800  15.149   6.764
 3908POPC   C3A50621  26.803  15.141   7.064
 3908POPC   C4A50622  26.867  15.193   7.364
 3908POPC   C1B50623  26.772  14.922   6.464
 3908POPC   C2B50624  26.810  14.949   6.764
 3908POPC   C3B50625  26.811  14.942   7.064
 3908POPC   C4B50626  26.755  14.942   7.364
 3909POPC   NC350627  16.684  22.922   5.564
 3909POPC   PO450628  16.682  22.915   5.864
 3909POPC   GL150629  16.724  22.944   6.164
 3909POPC   GL250630  16.849  22.892   6.164
 3909POPC   C1A50631  16.778  22.957   6.464
 3909POPC   D2A50632  16.750  22.897   6.764
 3909POPC   C3A50633  16.701  22.890   7.064
 3909POPC   C4A50634  16.730  22.898   7.364
 3909POPC   C1B50635  16.994  22.896   6.464
 3909POPC   C2B50636  16.978  22.887   6.764
 3909POPC   C3B50637  17.001  22.960   7.064
 3909POPC   C4B50638  16.964  22.933   7.364
 3910POPC   NC350639   5.906   5.822   5.564
 3910POPC   PO450640   5.845   5.851   5.864
 3910POPC   GL150641   5.857   5.887   6.164
 3910POPC   GL250642   5.765   5.769   6.164
 3910POPC   C1A50643   5.838   5.827   6.464
 3910POPC   D2A50644   5.894   5.909   6.764
 3910POPC   C3A50645   5.881   5.914   7.064
 3910POPC   C4A50646   5.863   5.869   7.364
 3910POPC   C1B50647   5.710   5.652   6.464
 3910POPC   C2B50648   5.666   5.655   6.764
 3910POPC   C3B50649   5.702   5.707   7.064
 3910POPC   C4B50650   5.657   5.707   7.364
 3911POPC   NC350651  16.777  24.486   5.564
 3911POPC   PO450652  16.774  24.456   5.864
 3911POPC   GL150653  16.735  24.485   6.164
 3911POPC   GL250654  16.601  24.429   6.164
 3911POPC   C1A50655  16.728  24.516   6.464
 3911POPC   D2A50656  16.761  24.515   6.764
 3911POPC   C3A50657  16.780  24.441   7.064
 3911POPC   C4A50658  16.742  24.458   7.364
 3911POPC   C1B50659  16.469  24.385   6.464
 3911POPC   C2B50660  16.472  24.428   6.764
 3911POPC   C3B50661  16.481  24.419   7.064
 3911POPC   C4B50662  16.525  24.363   7.364
 3912POPC   NC350663   6.617  26.000   5.564
 3912POPC   PO450664   6.643  25.995   5.864
 3912POPC   GL150665   6.672  26.006   6.164
 3912POPC   GL250666   6.642  25.940   6.164
 3912POPC   C1A50667   6.644  26.070   6.464
 3912POPC   D2A50668   6.627  26.059   6.764
 3912POPC   C3A50669   6.625  26.090   7.064
 3912POPC   C4A50670   6.615  26.012   7.364
 3912POPC   C1B50671   6.653  25.800   6.464
 3912POPC   C2B50672   6.657  25.792   6.764
 3912POPC   C3B50673   6.608  25.790   7.064
 3912POPC   C4B50674   6.628  25.748   7.364
 3913POPC   NC350675   6.618  14.395   5.564
 3913POPC   PO450676   6.627  14.405   5.864
 3913POPC   GL150677   6.680  14.368   6.164
 3913POPC   GL250678   6.581  14.346   6.164
 3913POPC   C1A50679   6.633  14.428   6.464
 3913POPC   D2A50680   6.656  14.422   6.764
 3913POPC   C3A50681   6.653  14.420   7.064
 3913POPC   C4A50682   6.675  14.387   7.364
 3913POPC   C1B50683   6.441  14.249   6.464
 3913POPC   C2B50684   6.389  14.304   6.764
 3913POPC   C3B50685   6.466  14.248   7.064
 3913POPC   C4B50686   6.466  14.267   7.364
 3914POPC   NC350687  31.499  34.607   5.564
 3914POPC   PO450688  31.485  34.546   5.864
 3914POPC   GL150689  31.442  34.590   6.164
 3914POPC   GL250690  31.469  34.485   6.164
 3914POPC   C1A50691  31.481  34.567   6.464
 3914POPC   D2A50692  31.479  34.550   6.764
 3914POPC   C3A50693  31.430  34.574   7.064
 3914POPC   C4A50694  31.426  34.552   7.364
 3914POPC   C1B50695  31.404  34.351   6.464
 3914POPC   C2B50696  31.365  34.326   6.764
 3914POPC   C3B50697  31.352  34.306   7.064
 3914POPC   C4B50698  31.357  34.319   7.364
 3915POPC   NC350699  23.671  18.313   5.564
 3915POPC   PO450700  23.750  18.267   5.864
 3915POPC   GL150701  23.720  18.251   6.164
 3915POPC   GL250702  23.819  18.389   6.164
 3915POPC   C1A50703  23.748  18.245   6.464
 3915POPC   D2A50704  23.745  18.253   6.764
 3915POPC   C3A50705  23.676  18.329   7.064
 3915POPC   C4A50706  23.731  18.314   7.364
 3915POPC   C1B50707  23.950  18.459   6.464
 3915POPC   C2B50708  23.899  18.423   6.764
 3915POPC   C3B50709  23.858  18.411   7.064
 3915POPC   C4B50710  23.881  18.440   7.364
 3916POPC   NC350711   2.807  40.825   5.564
 3916POPC   PO450712   2.804  40.815   5.864
 3916POPC   GL150713   2.793  40.807   6.164
 3916POPC   GL250714   2.864  40.800   6.164
 3916POPC   C1A50715   2.758  40.747   6.464
 3916POPC   D2A50716   2.784  40.827   6.764
 3916POPC   C3A50717   2.728  40.798   7.064
 3916POPC   C4A50718   2.787  40.780   7.364
 3916POPC   C1B50719   3.029  40.749   6.464
 3916POPC   C2B50720   2.983  40.797   6.764
 3916POPC   C3B50721   2.981  40.756   7.064
 3916POPC   C4B50722   2.973  40.803   7.364
 3917POPC   NC350723  10.563  33.837   5.564
 3917POPC   PO450724  10.489  33.804   5.864
 3917POPC   GL150725  10.559  33.803   6.164
 3917POPC   GL250726  10.359  33.795   6.164
 3917POPC   C1A50727  10.479  33.759   6.464
 3917POPC   D2A50728  10.543  33.751   6.764
 3917POPC   C3A50729  10.541  33.776   7.064
 3917POPC   C4A50730  10.559  33.774   7.364
 3917POPC   C1B50731  10.247  33.800   6.464
 3917POPC   C2B50732  10.321  33.785   6.764
 3917POPC   C3B50733  10.279  33.839   7.064
 3917POPC   C4B50734  10.302  33.844   7.364
 3918POPC   NC350735  11.291  12.044   5.564
 3918POPC   PO450736  11.309  12.066   5.864
 3918POPC   GL150737  11.268  12.027   6.164
 3918POPC   GL250738  11.164  12.079   6.164
 3918POPC   C1A50739  11.274  12.078   6.464
 3918POPC   D2A50740  11.343  12.122   6.764
 3918POPC   C3A50741  11.262  12.053   7.064
 3918POPC   C4A50742  11.276  12.037   7.364
 3918POPC   C1B50743  11.015  12.087   6.464
 3918POPC   C2B50744  11.029  12.073   6.764
 3918POPC   C3B50745  11.042  12.080   7.064
 3918POPC   C4B50746  11.008  12.097   7.364
 3919POPC   NC350747   2.737  18.262   5.564
 3919POPC   PO450748   2.729  18.288   5.864
 3919POPC   GL150749   2.799  18.323   6.164
 3919POPC   GL250750   2.883  18.149   6.164
 3919POPC   C1A50751   2.775  18.320   6.464
 3919POPC   D2A50752   2.792  18.306   6.764
 3919POPC   C3A50753   2.814  18.326   7.064
 3919POPC   C4A50754   2.728  18.310   7.364
 3919POPC   C1B50755   2.855  18.093   6.464
 3919POPC   C2B50756   2.893  18.109   6.764
 3919POPC   C3B50757   2.862  18.056   7.064
 3919POPC   C4B50758   2.854  18.117   7.364
 3920POPC   NC350759  21.423  29.116   5.564
 3920POPC   PO450760  21.345  29.188   5.864
 3920POPC   GL150761  21.390  29.169   6.164
 3920POPC   GL250762  21.260  29.246   6.164
 3920POPC   C1A50763  21.378  29.099   6.464
 3920POPC   D2A50764  21.360  29.182   6.764
 3920POPC   C3A50765  21.360  29.158   7.064
 3920POPC   C4A50766  21.371  29.099   7.364
 3920POPC   C1B50767  21.203  29.338   6.464
 3920POPC   C2B50768  21.209  29.269   6.764
 3920POPC   C3B50769  21.219  29.326   7.064
 3920POPC   C4B50770  21.250  29.348   7.364
 3921POPC   NC350771  34.535  16.709   5.564
 3921POPC   PO450772  34.544  16.715   5.864
 3921POPC   GL150773  34.607  16.765   6.164
 3921POPC   GL250774  34.720  16.800   6.164
 3921POPC   C1A50775  34.605  16.717   6.464
 3921POPC   D2A50776  34.554  16.779   6.764
 3921POPC   C3A50777  34.602  16.740   7.064
 3921POPC   C4A50778  34.613  16.748   7.364
 3921POPC   C1B50779  34.788  16.910   6.464
 3921POPC   C2B50780  34.802  16.869   6.764
 3921POPC   C3B50781  34.738  16.922   7.064
 3921POPC   C4B50782  34.728  16.862   7.364
 3922POPC   NC350783  42.335  12.042   5.564
 3922POPC   PO450784  42.300  12.115   5.864
 3922POPC   GL150785  42.316  12.033   6.164
 3922POPC   GL250786  42.248  12.211   6.164
 3922POPC   C1A50787  42.337  12.107   6.464
 3922POPC   D2A50788  42.292  12.102   6.764
 3922POPC   C3A50789  42.301  12.115   7.064
 3922POPC   C4A50790  42.309  12.054   7.364
 3922POPC   C1B50791  42.229  12.330   6.464
 3922POPC   C2B50792  42.269  12.314   6.764
 3922POPC   C3B50793  42.216  12.285   7.064
 3922POPC   C4B50794  42.267  12.332   7.364
 3923POPC   NC350795   2.022  26.831   5.564
 3923POPC   PO450796   2.026  26.788   5.864
 3923POPC   GL150797   1.965  26.811   6.164
 3923POPC   GL250798   2.122  26.875   6.164
 3923POPC   C1A50799   1.971  26.853   6.464
 3923POPC   D2A50800   2.021  26.794   6.764
 3923POPC   C3A50801   1.976  26.819   7.064
 3923POPC   C4A50802   2.003  26.830   7.364
 3923POPC   C1B50803   2.286  26.830   6.464
 3923POPC   C2B50804   2.236  26.828   6.764
 3923POPC   C3B50805   2.257  26.853   7.064
 3923POPC   C4B50806   2.224  26.880   7.364
 3924POPC   NC350807  13.633  22.158   5.564
 3924POPC   PO450808  13.611  22.114   5.864
 3924POPC   GL150809  13.640  22.170   6.164
 3924POPC   GL250810  13.768  22.173   6.164
 3924POPC   C1A50811  13.639  22.191   6.464
 3924POPC   D2A50812  13.604  22.189   6.764
 3924POPC   C3A50813  13.617  22.187   7.064
 3924POPC   C4A50814  13.613  22.164   7.364
 3924POPC   C1B50815  13.881  22.262   6.464
 3924POPC   C2B50816  13.891  22.224   6.764
 3924POPC   C3B50817  13.876  22.274   7.064
 3924POPC   C4B50818  13.805  22.292   7.364
 3925POPC   NC350819   7.371  10.503   5.564
 3925POPC   PO450820   7.405  10.565   5.864
 3925POPC   GL150821   7.384  10.529   6.164
 3925POPC   GL250822   7.384  10.603   6.164
 3925POPC   C1A50823   7.427  10.530   6.464
 3925POPC   D2A50824   7.455  10.489   6.764
 3925POPC   C3A50825   7.430  10.571   7.064
 3925POPC   C4A50826   7.457  10.557   7.364
 3925POPC   C1B50827   7.267  10.703   6.464
 3925POPC   C2B50828   7.343  10.727   6.764
 3925POPC   C3B50829   7.360  10.733   7.064
 3925POPC   C4B50830   7.313  10.748   7.364
 3926POPC   NC350831   6.649   9.009   5.564
 3926POPC   PO450832   6.654   8.929   5.864
 3926POPC   GL150833   6.614   8.939   6.164
 3926POPC   GL250834   6.538   8.903   6.164
 3926POPC   C1A50835   6.690   8.958   6.464
 3926POPC   D2A50836   6.685   8.982   6.764
 3926POPC   C3A50837   6.680   8.997   7.064
 3926POPC   C4A50838   6.650   8.968   7.364
 3926POPC   C1B50839   6.421   8.917   6.464
 3926POPC   C2B50840   6.451   8.900   6.764
 3926POPC   C3B50841   6.389   8.926   7.064
 3926POPC   C4B50842   6.426   8.898   7.364
 3927POPC   NC350843  22.159  43.095   5.564
 3927POPC   PO450844  22.178  43.091   5.864
 3927POPC   GL150845  22.113  43.150   6.164
 3927POPC   GL250846  22.021  43.152   6.164
 3927POPC   C1A50847  22.212  43.095   6.464
 3927POPC   D2A50848  22.175  43.148   6.764
 3927POPC   C3A50849  22.198  43.128   7.064
 3927POPC   C4A50850  22.129  43.140   7.364
 3927POPC   C1B50851  21.902  43.134   6.464
 3927POPC   C2B50852  21.949  43.140   6.764
 3927POPC   C3B50853  21.916  43.123   7.064
 3927POPC   C4B50854  21.877  43.131   7.364
 3928POPC   NC350855   4.327  24.455   5.564
 3928POPC   PO450856   4.269  24.473   5.864
 3928POPC   GL150857   4.292  24.512   6.164
 3928POPC   GL250858   4.342  24.385   6.164
 3928POPC   C1A50859   4.320  24.463   6.464
 3928POPC   D2A50860   4.294  24.496   6.764
 3928POPC   C3A50861   4.338  24.493   7.064
 3928POPC   C4A50862   4.350  24.527   7.364
 3928POPC   C1B50863   4.508  24.294   6.464
 3928POPC   C2B50864   4.495  24.321   6.764
 3928POPC   C3B50865   4.427  24.251   7.064
 3928POPC   C4B50866   4.497  24.300   7.364
 3929POPC   NC350867   8.973  12.889   5.564
 3929POPC   PO450868   9.015  12.881   5.864
 3929POPC   GL150869   8.972  12.832   6.164
 3929POPC   GL250870   8.983  12.985   6.164
 3929POPC   C1A50871   9.006  12.812   6.464
 3929POPC   D2A50872   8.980  12.869   6.764
 3929POPC   C3A50873   9.013  12.876   7.064
 3929POPC   C4A50874   8.982  12.866   7.364
 3929POPC   C1B50875   9.063  13.062   6.464
 3929POPC   C2B50876   9.049  13.083   6.764
 3929POPC   C3B50877   9.063  13.061   7.064
 3929POPC   C4B50878   9.033  13.066   7.364
 3930POPC   NC350879  12.073  33.807   5.564
 3930POPC   PO450880  12.124  33.751   5.864
 3930POPC   GL150881  12.029  33.784   6.164
 3930POPC   GL250882  12.213  33.763   6.164
 3930POPC   C1A50883  12.120  33.818   6.464
 3930POPC   D2A50884  12.105  33.798   6.764
 3930POPC   C3A50885  12.080  33.752   7.064
 3930POPC   C4A50886  12.058  33.791   7.364
 3930POPC   C1B50887  12.299  33.748   6.464
 3930POPC   C2B50888  12.316  33.785   6.764
 3930POPC   C3B50889  12.364  33.756   7.064
 3930POPC   C4B50890  12.313  33.790   7.364
 3931POPC   NC350891   1.227  40.819   5.564
 3931POPC   PO450892   1.211  40.784   5.864
 3931POPC   GL150893   1.171  40.798   6.164
 3931POPC   GL250894   1.265  40.831   6.164
 3931POPC   C1A50895   1.223  40.821   6.464
 3931POPC   D2A50896   1.181  40.738   6.764
 3931POPC   C3A50897   1.195  40.769   7.064
 3931POPC   C4A50898   1.246  40.791   7.364
 3931POPC   C1B50899   1.435  40.885   6.464
 3931POPC   C2B50900   1.428  40.894   6.764
 3931POPC   C3B50901   1.429  40.934   7.064
 3931POPC   C4B50902   1.427  40.947   7.364
 3932POPC   NC350903  43.085  18.236   5.564
 3932POPC   PO450904  43.067  18.322   5.864
 3932POPC   GL150905  43.069  18.235   6.164
 3932POPC   GL250906  43.174  18.338   6.164
 3932POPC   C1A50907  43.122  18.252   6.464
 3932POPC   D2A50908  43.136  18.329   6.764
 3932POPC   C3A50909  43.136  18.253   7.064
 3932POPC   C4A50910  43.094  18.305   7.364
 3932POPC   C1B50911  43.274  18.438   6.464
 3932POPC   C2B50912  43.317  18.423   6.764
 3932POPC   C3B50913  43.286  18.437   7.064
 3932POPC   C4B50914  43.290  18.457   7.364
 3933POPC   NC350915  28.400  15.999   5.564
 3933POPC   PO450916  28.342  15.908   5.864
 3933POPC   GL150917  28.326  15.932   6.164
 3933POPC   GL250918  28.499  15.950   6.164
 3933POPC   C1A50919  28.372  15.908   6.464
 3933POPC   D2A50920  28.397  15.921   6.764
 3933POPC   C3A50921  28.354  15.989   7.064
 3933POPC   C4A50922  28.389  15.914   7.364
 3933POPC   C1B50923  28.582  15.974   6.464
 3933POPC   C2B50924  28.646  15.990   6.764
 3933POPC   C3B50925  28.593  16.053   7.064
 3933POPC   C4B50926  28.573  15.986   7.364
 3934POPC   NC350927  19.811  43.077   5.564
 3934POPC   PO450928  19.878  43.155   5.864
 3934POPC   GL150929  19.813  43.126   6.164
 3934POPC   GL250930  19.963  43.054   6.164
 3934POPC   C1A50931  19.789  43.142   6.464
 3934POPC   D2A50932  19.838  43.111   6.764
 3934POPC   C3A50933  19.791  43.112   7.064
 3934POPC   C4A50934  19.849  43.153   7.364
 3934POPC   C1B50935  20.039  43.021   6.464
 3934POPC   C2B50936  20.122  43.016   6.764
 3934POPC   C3B50937  20.060  43.010   7.064
 3934POPC   C4B50938  20.056  43.022   7.364
 3935POPC   NC350939   1.952  43.872   5.564
 3935POPC   PO450940   2.036  43.854   5.864
 3935POPC   GL150941   2.009  43.866   6.164
 3935POPC   GL250942   2.158  43.828   6.164
 3935POPC   C1A50943   1.989  43.928   6.464
 3935POPC   D2A50944   1.986  43.887   6.764
 3935POPC   C3A50945   2.005  43.931   7.064
 3935POPC   C4A50946   2.008  43.873   7.364
 3935POPC   C1B50947   2.211  43.789   6.464
 3935POPC   C2B50948   2.234  43.877   6.764
 3935POPC   C3B50949   2.221  43.791   7.064
 3935POPC   C4B50950   2.242  43.849   7.364
 3936POPC   NC350951  13.636  43.151   5.564
 3936POPC   PO450952  13.641  43.102   5.864
 3936POPC   GL150953  13.676  43.070   6.164
 3936POPC   GL250954  13.552  43.132   6.164
 3936POPC   C1A50955  13.613  43.145   6.464
 3936POPC   D2A50956  13.658  43.133   6.764
 3936POPC   C3A50957  13.665  43.127   7.064
 3936POPC   C4A50958  13.652  43.087   7.364
 3936POPC   C1B50959  13.454  43.216   6.464
 3936POPC   C2B50960  13.424  43.256   6.764
 3936POPC   C3B50961  13.455  43.266   7.064
 3936POPC   C4B50962  13.419  43.224   7.364
 3937POPC   NC350963  19.817  36.160   5.564
 3937POPC   PO450964  19.806  36.142   5.864
 3937POPC   GL150965  19.869  36.083   6.164
 3937POPC   GL250966  19.943  36.167   6.164
 3937POPC   C1A50967  19.823  36.114   6.464
 3937POPC   D2A50968  19.856  36.105   6.764
 3937POPC   C3A50969  19.822  36.087   7.064
 3937POPC   C4A50970  19.863  36.120   7.364
 3937POPC   C1B50971  20.096  36.208   6.464
 3937POPC   C2B50972  20.055  36.240   6.764
 3937POPC   C3B50973  20.068  36.253   7.064
 3937POPC   C4B50974  20.090  36.253   7.364
 3938POPC   NC350975  16.692  26.089   5.564
 3938POPC   PO450976  16.735  25.999   5.864
 3938POPC   GL150977  16.721  26.030   6.164
 3938POPC   GL250978  16.815  26.108   6.164
 3938POPC   C1A50979  16.749  26.074   6.464
 3938POPC   D2A50980  16.753  26.015   6.764
 3938POPC   C3A50981  16.705  26.078   7.064
 3938POPC   C4A50982  16.755  26.048   7.364
 3938POPC   C1B50983  16.940  26.225   6.464
 3938POPC   C2B50984  16.925  26.244   6.764
 3938POPC   C3B50985  16.870  26.182   7.064
 3938POPC   C4B50986  16.854  26.256   7.364
 3939POPC   NC350987  36.892  29.179   5.564
 3939POPC   PO450988  36.876  29.142   5.864
 3939POPC   GL150989  36.950  29.149   6.164
 3939POPC   GL250990  37.008  29.281   6.164
 3939POPC   C1A50991  36.945  29.129   6.464
 3939POPC   D2A50992  36.857  29.130   6.764
 3939POPC   C3A50993  36.864  29.159   7.064
 3939POPC   C4A50994  36.875  29.175   7.364
 3939POPC   C1B50995  37.041  29.378   6.464
 3939POPC   C2B50996  37.043  29.350   6.764
 3939POPC   C3B50997  37.017  29.389   7.064
 3939POPC   C4B50998  37.084  29.402   7.364
 3940POPC   NC350999   3.520  23.742   5.564
 3940POPC   PO451000   3.531  23.668   5.864
 3940POPC   GL151001   3.579  23.703   6.164
 3940POPC   GL251002   3.521  23.858   6.164
 3940POPC   C1A51003   3.496  23.711   6.464
 3940POPC   D2A51004   3.541  23.728   6.764
 3940POPC   C3A51005   3.568  23.665   7.064
 3940POPC   C4A51006   3.529  23.668   7.364
 3940POPC   C1B51007   3.485  23.958   6.464
 3940POPC   C2B51008   3.509  23.924   6.764
 3940POPC   C3B51009   3.427  23.996   7.064
 3940POPC   C4B51010   3.491  23.932   7.364
 3941POPC   NC351011  34.584  21.399   5.564
 3941POPC   PO451012  34.598  21.365   5.864
 3941POPC   GL151013  34.556  21.375   6.164
 3941POPC   GL251014  34.743  21.362   6.164
 3941POPC   C1A51015  34.535  21.366   6.464
 3941POPC   D2A51016  34.587  21.379   6.764
 3941POPC   C3A51017  34.605  21.390   7.064
 3941POPC   C4A51018  34.596  21.381   7.364
 3941POPC   C1B51019  34.808  21.388   6.464
 3941POPC   C2B51020  34.832  21.415   6.764
 3941POPC   C3B51021  34.873  21.415   7.064
 3941POPC   C4B51022  34.820  21.407   7.364
 3942POPC   NC351023  29.937  11.252   5.564
 3942POPC   PO451024  29.888  11.274   5.864
 3942POPC   GL151025  29.932  11.287   6.164
 3942POPC   GL251026  29.756  11.215   6.164
 3942POPC   C1A51027  29.896  11.277   6.464
 3942POPC   D2A51028  29.946  11.348   6.764
 3942POPC   C3A51029  29.923  11.319   7.064
 3942POPC   C4A51030  29.901  11.321   7.364
 3942POPC   C1B51031  29.734  11.264   6.464
 3942POPC   C2B51032  29.716  11.219   6.764
 3942POPC   C3B51033  29.683  11.224   7.064
 3942POPC   C4B51034  29.725  11.195   7.364
 3943POPC   NC351035   0.433   3.572   5.564
 3943POPC   PO451036   0.473   3.560   5.864
 3943POPC   GL151037   0.476   3.548   6.164
 3943POPC   GL251038   0.483   3.653   6.164
 3943POPC   C1A51039   0.412   3.556   6.464
 3943POPC   D2A51040   0.474   3.552   6.764
 3943POPC   C3A51041   0.419   3.514   7.064
 3943POPC   C4A51042   0.395   3.576   7.364
 3943POPC   C1B51043   0.501   3.800   6.464
 3943POPC   C2B51044   0.518   3.762   6.764
 3943POPC   C3B51045   0.479   3.786   7.064
 3943POPC   C4B51046   0.483   3.777   7.364
 3944POPC   NC351047   3.530   2.012   5.564
 3944POPC   PO451048   3.518   1.957   5.864
 3944POPC   GL151049   3.553   2.001   6.164
 3944POPC   GL251050   3.580   1.836   6.164
 3944POPC   C1A51051   3.545   2.000   6.464
 3944POPC   D2A51052   3.580   1.989   6.764
 3944POPC   C3A51053   3.590   1.941   7.064
 3944POPC   C4A51054   3.533   1.966   7.364
 3944POPC   C1B51055   3.664   1.747   6.464
 3944POPC   C2B51056   3.620   1.736   6.764
 3944POPC   C3B51057   3.618   1.744   7.064
 3944POPC   C4B51058   3.674   1.751   7.364
 3945POPC   NC351059   1.946  25.216   5.564
 3945POPC   PO451060   2.012  25.279   5.864
 3945POPC   GL151061   1.945  25.303   6.164
 3945POPC   GL251062   2.139  25.175   6.164
 3945POPC   C1A51063   1.984  25.283   6.464
 3945POPC   D2A51064   1.981  25.241   6.764
 3945POPC   C3A51065   1.998  25.252   7.064
 3945POPC   C4A51066   1.943  25.301   7.364
 3945POPC   C1B51067   2.237  25.168   6.464
 3945POPC   C2B51068   2.158  25.133   6.764
 3945POPC   C3B51069   2.157  25.172   7.064
 3945POPC   C4B51070   2.221  25.159   7.364
 3946POPC   NC351071  30.658  20.570   5.564
 3946POPC   PO451072  30.650  20.659   5.864
 3946POPC   GL151073  30.667  20.586   6.164
 3946POPC   GL251074  30.801  20.709   6.164
 3946POPC   C1A51075  30.669  20.583   6.464
 3946POPC   D2A51076  30.738  20.630   6.764
 3946POPC   C3A51077  30.702  20.630   7.064
 3946POPC   C4A51078  30.658  20.637   7.364
 3946POPC   C1B51079  30.778  20.794   6.464
 3946POPC   C2B51080  30.842  20.830   6.764
 3946POPC   C3B51081  30.869  20.840   7.064
 3946POPC   C4B51082  30.792  20.816   7.364
 3947POPC   NC351083   1.164  21.404   5.564
 3947POPC   PO451084   1.230  21.344   5.864
 3947POPC   GL151085   1.261  21.361   6.164
 3947POPC   GL251086   1.125  21.489   6.164
 3947POPC   C1A51087   1.215  21.341   6.464
 3947POPC   D2A51088   1.209  21.423   6.764
 3947POPC   C3A51089   1.253  21.380   7.064
 3947POPC   C4A51090   1.210  21.400   7.364
 3947POPC   C1B51091   1.066  21.643   6.464
 3947POPC   C2B51092   1.138  21.629   6.764
 3947POPC   C3B51093   1.101  21.614   7.064
 3947POPC   C4B51094   1.142  21.577   7.364
 3948POPC   NC351095  12.039  36.090   5.564
 3948POPC   PO451096  12.101  36.149   5.864
 3948POPC   GL151097  12.069  36.110   6.164
 3948POPC   GL251098  11.913  36.067   6.164
 3948POPC   C1A51099  12.067  36.149   6.464
 3948POPC   D2A51100  12.027  36.110   6.764
 3948POPC   C3A51101  12.037  36.145   7.064
 3948POPC   C4A51102  12.123  36.162   7.364
 3948POPC   C1B51103  11.862  36.048   6.464
 3948POPC   C2B51104  11.847  36.073   6.764
 3948POPC   C3B51105  11.894  35.999   7.064
 3948POPC   C4B51106  11.865  36.021   7.364
 3949POPC   NC351107  17.464  21.378   5.564
 3949POPC   PO451108  17.487  21.377   5.864
 3949POPC   GL151109  17.514  21.356   6.164
 3949POPC   GL251110  17.400  21.328   6.164
 3949POPC   C1A51111  17.488  21.375   6.464
 3949POPC   D2A51112  17.547  21.409   6.764
 3949POPC   C3A51113  17.524  21.423   7.064
 3949POPC   C4A51114  17.551  21.426   7.364
 3949POPC   C1B51115  17.306  21.340   6.464
 3949POPC   C2B51116  17.264  21.320   6.764
 3949POPC   C3B51117  17.255  21.294   7.064
 3949POPC   C4B51118  17.213  21.380   7.364
 3950POPC   NC351119  25.278  27.627   5.564
 3950POPC   PO451120  25.282  27.588   5.864
 3950POPC   GL151121  25.248  27.618   6.164
 3950POPC   GL251122  25.166  27.522   6.164
 3950POPC   C1A51123  25.308  27.616   6.464
 3950POPC   D2A51124  25.250  27.555   6.764
 3950POPC   C3A51125  25.248  27.583   7.064
 3950POPC   C4A51126  25.304  27.576   7.364
 3950POPC   C1B51127  25.002  27.488   6.464
 3950POPC   C2B51128  25.049  27.522   6.764
 3950POPC   C3B51129  25.081  27.464   7.064
 3950POPC   C4B51130  25.012  27.499   7.364
 3951POPC   NC351131  26.790  10.517   5.564
 3951POPC   PO451132  26.794  10.480   5.864
 3951POPC   GL151133  26.800  10.530   6.164
 3951POPC   GL251134  26.688  10.492   6.164
 3951POPC   C1A51135  26.798  10.479   6.464
 3951POPC   D2A51136  26.821  10.523   6.764
 3951POPC   C3A51137  26.785  10.548   7.064
 3951POPC   C4A51138  26.858  10.540   7.364
 3951POPC   C1B51139  26.590  10.441   6.464
 3951POPC   C2B51140  26.606  10.371   6.764
 3951POPC   C3B51141  26.606  10.425   7.064
 3951POPC   C4B51142  26.560  10.355   7.364
 3952POPC   NC351143  22.210   1.179   5.564
 3952POPC   PO451144  22.141   1.225   5.864
 3952POPC   GL151145  22.125   1.179   6.164
 3952POPC   GL251146  22.300   1.203   6.164
 3952POPC   C1A51147  22.199   1.253   6.464
 3952POPC   D2A51148  22.128   1.227   6.764
 3952POPC   C3A51149  22.145   1.187   7.064
 3952POPC   C4A51150  22.113   1.202   7.364
 3952POPC   C1B51151  22.352   1.088   6.464
 3952POPC   C2B51152  22.369   1.060   6.764
 3952POPC   C3B51153  22.389   1.141   7.064
 3952POPC   C4B51154  22.398   1.139   7.364
 3953POPC   NC351155   8.223   5.130   5.564
 3953POPC   PO451156   8.186   5.118   5.864
 3953POPC   GL151157   8.223   5.053   6.164
 3953POPC   GL251158   8.153   5.159   6.164
 3953POPC   C1A51159   8.168   5.140   6.464
 3953POPC   D2A51160   8.227   5.106   6.764
 3953POPC   C3A51161   8.239   5.109   7.064
 3953POPC   C4A51162   8.195   5.125   7.364
 3953POPC   C1B51163   8.107   5.350   6.464
 3953POPC   C2B51164   8.130   5.345   6.764
 3953POPC   C3B51165   8.095   5.350   7.064
 3953POPC   C4B51166   8.134   5.268   7.364
 3954POPC   NC351167  25.249  10.479   5.564
 3954POPC   PO451168  25.244  10.497   5.864
 3954POPC   GL151169  25.221  10.528   6.164
 3954POPC   GL251170  25.105  10.461   6.164
 3954POPC   C1A51171  25.252  10.486   6.464
 3954POPC   D2A51172  25.269  10.563   6.764
 3954POPC   C3A51173  25.226  10.484   7.064
 3954POPC   C4A51174  25.282  10.570   7.364
 3954POPC   C1B51175  25.026  10.378   6.464
 3954POPC   C2B51176  25.089  10.419   6.764
 3954POPC   C3B51177  24.997  10.403   7.064
 3954POPC   C4B51178  25.028  10.441   7.364
 3955POPC   NC351179  41.589  44.675   5.564
 3955POPC   PO451180  41.526  44.673   5.864
 3955POPC   GL151181  41.568  44.674   6.164
 3955POPC   GL251182  41.532  44.560   6.164
 3955POPC   C1A51183  41.549  44.691   6.464
 3955POPC   D2A51184  41.544  44.632   6.764
 3955POPC   C3A51185  41.549  44.660   7.064
 3955POPC   C4A51186  41.593  44.710   7.364
 3955POPC   C1B51187  41.501  44.426   6.464
 3955POPC   C2B51188  41.509  44.373   6.764
 3955POPC   C3B51189  41.491  44.383   7.064
 3955POPC   C4B51190  41.509  44.404   7.364
 3956POPC   NC351191   1.198  42.337   5.564
 3956POPC   PO451192   1.183  42.377   5.864
 3956POPC   GL151193   1.234  42.292   6.164
 3956POPC   GL251194   1.323  42.408   6.164
 3956POPC   C1A51195   1.234  42.333   6.464
 3956POPC   D2A51196   1.203  42.382   6.764
 3956POPC   C3A51197   1.256  42.384   7.064
 3956POPC   C4A51198   1.226  42.383   7.364
 3956POPC   C1B51199   1.405  42.435   6.464
 3956POPC   C2B51200   1.455  42.405   6.764
 3956POPC   C3B51201   1.406  42.468   7.064
 3956POPC   C4B51202   1.460  42.467   7.364
 3957POPC   NC351203  38.435   9.790   5.564
 3957POPC   PO451204  38.408   9.747   5.864
 3957POPC   GL151205  38.451   9.720   6.164
 3957POPC   GL251206  38.399   9.659   6.164
 3957POPC   C1A51207  38.437   9.711   6.464
 3957POPC   D2A51208  38.414   9.720   6.764
 3957POPC   C3A51209  38.480   9.787   7.064
 3957POPC   C4A51210  38.493   9.763   7.364
 3957POPC   C1B51211  38.391   9.555   6.464
 3957POPC   C2B51212  38.396   9.492   6.764
 3957POPC   C3B51213  38.376   9.488   7.064
 3957POPC   C4B51214  38.327   9.532   7.364
 3958POPC   NC351215   6.642  44.668   5.564
 3958POPC   PO451216   6.693  44.686   5.864
 3958POPC   GL151217   6.692  44.646   6.164
 3958POPC   GL251218   6.545  44.597   6.164
 3958POPC   C1A51219   6.691  44.706   6.464
 3958POPC   D2A51220   6.669  44.642   6.764
 3958POPC   C3A51221   6.629  44.649   7.064
 3958POPC   C4A51222   6.606  44.652   7.364
 3958POPC   C1B51223   6.483  44.474   6.464
 3958POPC   C2B51224   6.456  44.464   6.764
 3958POPC   C3B51225   6.437  44.472   7.064
 3958POPC   C4B51226   6.473  44.454   7.364
 3959POPC   NC351227   8.947  12.104   5.564
 3959POPC   PO451228   8.960  12.032   5.864
 3959POPC   GL151229   8.979  12.104   6.164
 3959POPC   GL251230   8.847  12.190   6.164
 3959POPC   C1A51231   8.987  12.047   6.464
 3959POPC   D2A51232   8.964  12.076   6.764
 3959POPC   C3A51233   8.957  12.055   7.064
 3959POPC   C4A51234   9.020  12.123   7.364
 3959POPC   C1B51235   8.847  12.243   6.464
 3959POPC   C2B51236   8.843  12.227   6.764
 3959POPC   C3B51237   8.778  12.305   7.064
 3959POPC   C4B51238   8.843  12.233   7.364
 3960POPC   NC351239  14.370  32.210   5.564
 3960POPC   PO451240  14.440  32.268   5.864
 3960POPC   GL151241  14.429  32.292   6.164
 3960POPC   GL251242  14.473  32.136   6.164
 3960POPC   C1A51243  14.361  32.277   6.464
 3960POPC   D2A51244  14.422  32.241   6.764
 3960POPC   C3A51245  14.452  32.279   7.064
 3960POPC   C4A51246  14.419  32.235   7.364
 3960POPC   C1B51247  14.503  32.010   6.464
 3960POPC   C2B51248  14.570  32.028   6.764
 3960POPC   C3B51249  14.498  32.058   7.064
 3960POPC   C4B51250  14.561  32.033   7.364
 3961POPC   NC351251  40.822  18.311   5.564
 3961POPC   PO451252  40.778  18.233   5.864
 3961POPC   GL151253  40.747  18.292   6.164
 3961POPC   GL251254  40.717  18.417   6.164
 3961POPC   C1A51255  40.753  18.241   6.464
 3961POPC   D2A51256  40.774  18.324   6.764
 3961POPC   C3A51257  40.770  18.312   7.064
 3961POPC   C4A51258  40.745  18.327   7.364
 3961POPC   C1B51259  40.712  18.518   6.464
 3961POPC   C2B51260  40.697  18.520   6.764
 3961POPC   C3B51261  40.662  18.527   7.064
 3961POPC   C4B51262  40.691  18.542   7.364
 3962POPC   NC351263   1.164   0.443   5.564
 3962POPC   PO451264   1.183   0.432   5.864
 3962POPC   GL151265   1.222   0.466   6.164
 3962POPC   GL251266   1.207   0.557   6.164
 3962POPC   C1A51267   1.183   0.456   6.464
 3962POPC   D2A51268   1.232   0.447   6.764
 3962POPC   C3A51269   1.205   0.417   7.064
 3962POPC   C4A51270   1.192   0.482   7.364
 3962POPC   C1B51271   1.321   0.674   6.464
 3962POPC   C2B51272   1.274   0.691   6.764
 3962POPC   C3B51273   1.318   0.661   7.064
 3962POPC   C4B51274   1.271   0.643   7.364
 3963POPC   NC351275  38.427  36.865   5.564
 3963POPC   PO451276  38.444  36.857   5.864
 3963POPC   GL151277  38.447  36.929   6.164
 3963POPC   GL251278  38.461  37.036   6.164
 3963POPC   C1A51279  38.495  36.912   6.464
 3963POPC   D2A51280  38.446  36.871   6.764
 3963POPC   C3A51281  38.426  36.862   7.064
 3963POPC   C4A51282  38.475  36.912   7.364
 3963POPC   C1B51283  38.406  37.193   6.464
 3963POPC   C2B51284  38.439  37.201   6.764
 3963POPC   C3B51285  38.471  37.157   7.064
 3963POPC   C4B51286  38.403  37.104   7.364
 3964POPC   NC351287  11.316  10.514   5.564
 3964POPC   PO451288  11.344  10.564   5.864
 3964POPC   GL151289  11.313  10.530   6.164
 3964POPC   GL251290  11.307  10.391   6.164
 3964POPC   C1A51291  11.327  10.509   6.464
 3964POPC   D2A51292  11.296  10.495   6.764
 3964POPC   C3A51293  11.274  10.534   7.064
 3964POPC   C4A51294  11.279  10.523   7.364
 3964POPC   C1B51295  11.330  10.254   6.464
 3964POPC   C2B51296  11.332  10.246   6.764
 3964POPC   C3B51297  11.355  10.260   7.064
 3964POPC   C4B51298  11.343  10.319   7.364
 3965POPC   NC351299  21.344  41.519   5.564
 3965POPC   PO451300  21.394  41.563   5.864
 3965POPC   GL151301  21.357  41.551   6.164
 3965POPC   GL251302  21.314  41.666   6.164
 3965POPC   C1A51303  21.404  41.598   6.464
 3965POPC   D2A51304  21.350  41.531   6.764
 3965POPC   C3A51305  21.358  41.555   7.064
 3965POPC   C4A51306  21.394  41.603   7.364
 3965POPC   C1B51307  21.264  41.730   6.464
 3965POPC   C2B51308  21.245  41.717   6.764
 3965POPC   C3B51309  21.254  41.796   7.064
 3965POPC   C4B51310  21.251  41.715   7.364
 3966POPC   NC351311  36.078  13.654   5.564
 3966POPC   PO451312  36.125  13.638   5.864
 3966POPC   GL151313  36.129  13.638   6.164
 3966POPC   GL251314  36.120  13.503   6.164
 3966POPC   C1A51315  36.121  13.596   6.464
 3966POPC   D2A51316  36.107  13.654   6.764
 3966POPC   C3A51317  36.105  13.664   7.064
 3966POPC   C4A51318  36.131  13.666   7.364
 3966POPC   C1B51319  36.005  13.383   6.464
 3966POPC   C2B51320  36.022  13.349   6.764
 3966POPC   C3B51321  36.024  13.363   7.064
 3966POPC   C4B51322  36.075  13.417   7.364
 3967POPC   NC351323  15.987  17.529   5.564
 3967POPC   PO451324  15.960  17.519   5.864
 3967POPC   GL151325  15.999  17.464   6.164
 3967POPC   GL251326  15.909  17.668   6.164
 3967POPC   C1A51327  15.991  17.503   6.464
 3967POPC   D2A51328  15.991  17.537   6.764
 3967POPC   C3A51329  15.929  17.485   7.064
 3967POPC   C4A51330  15.957  17.544   7.364
 3967POPC   C1B51331  15.847  17.724   6.464
 3967POPC   C2B51332  15.905  17.764   6.764
 3967POPC   C3B51333  15.887  17.740   7.064
 3967POPC   C4B51334  15.870  17.761   7.364
 3968POPC   NC351335   5.063  26.003   5.564
 3968POPC   PO451336   5.115  26.036   5.864
 3968POPC   GL151337   5.046  26.081   6.164
 3968POPC   GL251338   5.162  25.944   6.164
 3968POPC   C1A51339   5.104  26.062   6.464
 3968POPC   D2A51340   5.119  26.049   6.764
 3968POPC   C3A51341   5.077  26.018   7.064
 3968POPC   C4A51342   5.126  26.076   7.364
 3968POPC   C1B51343   5.113  25.822   6.464
 3968POPC   C2B51344   5.159  25.769   6.764
 3968POPC   C3B51345   5.161  25.775   7.064
 3968POPC   C4B51346   5.192  25.792   7.364
 3969POPC   NC351347  33.061  19.877   5.564
 3969POPC   PO451348  33.018  19.808   5.864
 3969POPC   GL151349  33.035  19.799   6.164
 3969POPC   GL251350  33.154  19.755   6.164
 3969POPC   C1A51351  33.013  19.835   6.464
 3969POPC   D2A51352  33.044  19.785   6.764
 3969POPC   C3A51353  33.009  19.874   7.064
 3969POPC   C4A51354  33.019  19.833   7.364
 3969POPC   C1B51355  33.274  19.663   6.464
 3969POPC   C2B51356  33.220  19.668   6.764
 3969POPC   C3B51357  33.225  19.653   7.064
 3969POPC   C4B51358  33.261  19.685   7.364
 3970POPC   NC351359  39.985   8.927   5.564
 3970POPC   PO451360  40.038   8.987   5.864
 3970POPC   GL151361  39.994   8.963   6.164
 3970POPC   GL251362  39.964   9.039   6.164
 3970POPC   C1A51363  39.991   8.974   6.464
 3970POPC   D2A51364  39.959   9.018   6.764
 3970POPC   C3A51365  39.994   8.998   7.064
 3970POPC   C4A51366  40.012   9.006   7.364
 3970POPC   C1B51367  39.791   9.109   6.464
 3970POPC   C2B51368  39.796   9.190   6.764
 3970POPC   C3B51369  39.796   9.192   7.064
 3970POPC   C4B51370  39.820   9.117   7.364
 3971POPC   NC351371  42.324  43.067   5.564
 3971POPC   PO451372  42.328  43.155   5.864
 3971POPC   GL151373  42.371  43.117   6.164
 3971POPC   GL251374  42.369  42.946   6.164
 3971POPC   C1A51375  42.372  43.068   6.464
 3971POPC   D2A51376  42.338  43.126   6.764
 3971POPC   C3A51377  42.312  43.135   7.064
 3971POPC   C4A51378  42.296  43.158   7.364
 3971POPC   C1B51379  42.428  42.888   6.464
 3971POPC   C2B51380  42.399  42.893   6.764
 3971POPC   C3B51381  42.359  42.878   7.064
 3971POPC   C4B51382  42.394  42.906   7.364
 3972POPC   NC351383  23.724  12.045   5.564
 3972POPC   PO451384  23.714  12.052   5.864
 3972POPC   GL151385  23.742  12.108   6.164
 3972POPC   GL251386  23.778  11.949   6.164
 3972POPC   C1A51387  23.760  12.095   6.464
 3972POPC   D2A51388  23.684  12.051   6.764
 3972POPC   C3A51389  23.705  12.038   7.064
 3972POPC   C4A51390  23.741  12.082   7.364
 3972POPC   C1B51391  23.878  11.935   6.464
 3972POPC   C2B51392  23.892  11.882   6.764
 3972POPC   C3B51393  23.923  11.884   7.064
 3972POPC   C4B51394  23.900  11.912   7.364
 3973POPC   NC351395  21.430  14.415   5.564
 3973POPC   PO451396  21.371  14.429   5.864
 3973POPC   GL151397  21.367  14.443   6.164
 3973POPC   GL251398  21.262  14.330   6.164
 3973POPC   C1A51399  21.434  14.445   6.464
 3973POPC   D2A51400  21.363  14.356   6.764
 3973POPC   C3A51401  21.370  14.403   7.064
 3973POPC   C4A51402  21.346  14.369   7.364
 3973POPC   C1B51403  21.185  14.242   6.464
 3973POPC   C2B51404  21.180  14.189   6.764
 3973POPC   C3B51405  21.199  14.215   7.064
 3973POPC   C4B51406  21.200  14.180   7.364
 3974POPC   NC351407  10.551  34.555   5.564
 3974POPC   PO451408  10.487  34.601   5.864
 3974POPC   GL151409  10.486  34.569   6.164
 3974POPC   GL251410  10.615  34.513   6.164
 3974POPC   C1A51411  10.515  34.559   6.464
 3974POPC   D2A51412  10.551  34.585   6.764
 3974POPC   C3A51413  10.502  34.556   7.064
 3974POPC   C4A51414  10.543  34.594   7.364
 3974POPC   C1B51415  10.792  34.477   6.464
 3974POPC   C2B51416  10.756  34.458   6.764
 3974POPC   C3B51417  10.730  34.510   7.064
 3974POPC   C4B51418  10.713  34.498   7.364
 3975POPC   NC351419  23.671   5.129   5.564
 3975POPC   PO451420  23.714   5.120   5.864
 3975POPC   GL151421  23.718   5.068   6.164
 3975POPC   GL251422  23.782   5.161   6.164
 3975POPC   C1A51423  23.727   5.043   6.464
 3975POPC   D2A51424  23.739   5.126   6.764
 3975POPC   C3A51425  23.673   5.128   7.064
 3975POPC   C4A51426  23.699   5.127   7.364
 3975POPC   C1B51427  23.940   5.184   6.464
 3975POPC   C2B51428  23.941   5.226   6.764
 3975POPC   C3B51429  23.928   5.191   7.064
 3975POPC   C4B51430  23.946   5.167   7.364
 3976POPC   NC351431  12.825  20.579   5.564
 3976POPC   PO451432  12.898  20.579   5.864
 3976POPC   GL151433  12.896  20.649   6.164
 3976POPC   GL251434  12.935  20.546   6.164
 3976POPC   C1A51435  12.900  20.592   6.464
 3976POPC   D2A51436  12.855  20.623   6.764
 3976POPC   C3A51437  12.806  20.595   7.064
 3976POPC   C4A51438  12.802  20.586   7.364
 3976POPC   C1B51439  13.042  20.509   6.464
 3976POPC   C2B51440  13.031  20.500   6.764
 3976POPC   C3B51441  13.101  20.456   7.064
 3976POPC   C4B51442  13.036  20.454   7.364
 3977POPC   NC351443  39.263  26.769   5.564
 3977POPC   PO451444  39.191  26.865   5.864
 3977POPC   GL151445  39.224  26.823   6.164
 3977POPC   GL251446  39.347  26.819   6.164
 3977POPC   C1A51447  39.218  26.864   6.464
 3977POPC   D2A51448  39.247  26.867   6.764
 3977POPC   C3A51449  39.184  26.848   7.064
 3977POPC   C4A51450  39.184  26.825   7.364
 3977POPC   C1B51451  39.514  26.786   6.464
 3977POPC   C2B51452  39.468  26.844   6.764
 3977POPC   C3B51453  39.469  26.855   7.064
 3977POPC   C4B51454  39.446  26.783   7.364
 3978POPC   NC351455  23.717   7.371   5.564
 3978POPC   PO451456  23.740   7.407   5.864
 3978POPC   GL151457  23.666   7.469   6.164
 3978POPC   GL251458  23.854   7.463   6.164
 3978POPC   C1A51459  23.716   7.412   6.464
 3978POPC   D2A51460  23.710   7.433   6.764
 3978POPC   C3A51461  23.723   7.437   7.064
 3978POPC   C4A51462  23.722   7.390   7.364
 3978POPC   C1B51463  23.911   7.584   6.464
 3978POPC   C2B51464  23.883   7.584   6.764
 3978POPC   C3B51465  23.876   7.528   7.064
 3978POPC   C4B51466  23.897   7.534   7.364
 3979POPC   NC351467  38.426  18.314   5.564
 3979POPC   PO451468  38.498  18.241   5.864
 3979POPC   GL151469  38.491  18.268   6.164
 3979POPC   GL251470  38.573  18.397   6.164
 3979POPC   C1A51471  38.488  18.321   6.464
 3979POPC   D2A51472  38.429  18.291   6.764
 3979POPC   C3A51473  38.482  18.273   7.064
 3979POPC   C4A51474  38.429  18.308   7.364
 3979POPC   C1B51475  38.688  18.378   6.464
 3979POPC   C2B51476  38.668  18.427   6.764
 3979POPC   C3B51477  38.633  18.419   7.064
 3979POPC   C4B51478  38.646  18.414   7.364
 3980POPC   NC351479  29.115  26.867   5.564
 3980POPC   PO451480  29.190  26.818   5.864
 3980POPC   GL151481  29.175  26.862   6.164
 3980POPC   GL251482  29.226  26.699   6.164
 3980POPC   C1A51483  29.194  26.803   6.464
 3980POPC   D2A51484  29.116  26.773   6.764
 3980POPC   C3A51485  29.135  26.831   7.064
 3980POPC   C4A51486  29.109  26.817   7.364
 3980POPC   C1B51487  29.338  26.673   6.464
 3980POPC   C2B51488  29.373  26.696   6.764
 3980POPC   C3B51489  29.309  26.620   7.064
 3980POPC   C4B51490  29.364  26.669   7.364
 3981POPC   NC351491  34.545   3.524   5.564
 3981POPC   PO451492  34.561   3.559   5.864
 3981POPC   GL151493  34.604   3.533   6.164
 3981POPC   GL251494  34.457   3.532   6.164
 3981POPC   C1A51495  34.550   3.545   6.464
 3981POPC   D2A51496  34.616   3.553   6.764
 3981POPC   C3A51497  34.621   3.553   7.064
 3981POPC   C4A51498  34.580   3.576   7.364
 3981POPC   C1B51499  34.293   3.611   6.464
 3981POPC   C2B51500  34.379   3.573   6.764
 3981POPC   C3B51501  34.347   3.588   7.064
 3981POPC   C4B51502  34.352   3.661   7.364
 3982POPC   NC351503  36.098  18.233   5.564
 3982POPC   PO451504  36.130  18.262   5.864
 3982POPC   GL151505  36.130  18.293   6.164
 3982POPC   GL251506  36.091  18.449   6.164
 3982POPC   C1A51507  36.176  18.276   6.464
 3982POPC   D2A51508  36.108  18.276   6.764
 3982POPC   C3A51509  36.126  18.279   7.064
 3982POPC   C4A51510  36.122  18.260   7.364
 3982POPC   C1B51511  36.116  18.498   6.464
 3982POPC   C2B51512  36.118  18.524   6.764
 3982POPC   C3B51513  36.097  18.496   7.064
 3982POPC   C4B51514  36.127  18.542   7.364
 3983POPC   NC351515  36.100  19.796   5.564
 3983POPC   PO451516  36.089  19.831   5.864
 3983POPC   GL151517  36.109  19.792   6.164
 3983POPC   GL251518  36.101  19.979   6.164
 3983POPC   C1A51519  36.119  19.823   6.464
 3983POPC   D2A51520  36.136  19.808   6.764
 3983POPC   C3A51521  36.121  19.839   7.064
 3983POPC   C4A51522  36.102  19.877   7.364
 3983POPC   C1B51523  36.016  20.047   6.464
 3983POPC   C2B51524  36.077  20.074   6.764
 3983POPC   C3B51525  36.010  20.057   7.064
 3983POPC   C4B51526  36.007  20.112   7.364
 3984POPC   NC351527  15.191  27.544   5.564
 3984POPC   PO451528  15.170  27.580   5.864
 3984POPC   GL151529  15.209  27.623   6.164
 3984POPC   GL251530  15.234  27.648   6.164
 3984POPC   C1A51531  15.223  27.591   6.464
 3984POPC   D2A51532  15.215  27.587   6.764
 3984POPC   C3A51533  15.226  27.561   7.064
 3984POPC   C4A51534  15.140  27.599   7.364
 3984POPC   C1B51535  15.340  27.852   6.464
 3984POPC   C2B51536  15.352  27.775   6.764
 3984POPC   C3B51537  15.349  27.761   7.064
 3984POPC   C4B51538  15.356  27.845   7.364
 3985POPC   NC351539  34.528  41.578   5.564
 3985POPC   PO451540  34.557  41.567   5.864
 3985POPC   GL151541  34.596  41.600   6.164
 3985POPC   GL251542  34.575  41.418   6.164
 3985POPC   C1A51543  34.573  41.528   6.464
 3985POPC   D2A51544  34.603  41.524   6.764
 3985POPC   C3A51545  34.626  41.521   7.064
 3985POPC   C4A51546  34.592  41.542   7.364
 3985POPC   C1B51547  34.678  41.279   6.464
 3985POPC   C2B51548  34.677  41.364   6.764
 3985POPC   C3B51549  34.677  41.321   7.064
 3985POPC   C4B51550  34.629  41.307   7.364
 3986POPC   NC351551  27.578  39.257   5.564
 3986POPC   PO451552  27.557  39.207   5.864
 3986POPC   GL151553  27.635  39.234   6.164
 3986POPC   GL251554  27.671  39.215   6.164
 3986POPC   C1A51555  27.628  39.255   6.464
 3986POPC   D2A51556  27.549  39.230   6.764
 3986POPC   C3A51557  27.607  39.265   7.064
 3986POPC   C4A51558  27.616  39.224   7.364
 3986POPC   C1B51559  27.824  39.230   6.464
 3986POPC   C2B51560  27.824  39.247   6.764
 3986POPC   C3B51561  27.884  39.257   7.064
 3986POPC   C4B51562  27.888  39.307   7.364
 3987POPC   NC351563   1.189  22.126   5.564
 3987POPC   PO451564   1.244  22.154   5.864
 3987POPC   GL151565   1.256  22.185   6.164
 3987POPC   GL251566   1.145  22.072   6.164
 3987POPC   C1A51567   1.182  22.156   6.464
 3987POPC   D2A51568   1.181  22.162   6.764
 3987POPC   C3A51569   1.239  22.151   7.064
 3987POPC   C4A51570   1.252  22.159   7.364
 3987POPC   C1B51571   0.963  22.065   6.464
 3987POPC   C2B51572   0.989  22.017   6.764
 3987POPC   C3B51573   1.010  22.060   7.064
 3987POPC   C4B51574   0.953  22.077   7.364
 3988POPC   NC351575  14.423  12.089   5.564
 3988POPC   PO451576  14.378  12.062   5.864
 3988POPC   GL151577  14.374  12.073   6.164
 3988POPC   GL251578  14.509  12.033   6.164
 3988POPC   C1A51579  14.372  12.033   6.464
 3988POPC   D2A51580  14.442  12.044   6.764
 3988POPC   C3A51581  14.451  12.120   7.064
 3988POPC   C4A51582  14.446  12.083   7.364
 3988POPC   C1B51583  14.614  11.960   6.464
 3988POPC   C2B51584  14.650  11.922   6.764
 3988POPC   C3B51585  14.671  11.939   7.064
 3988POPC   C4B51586  14.627  11.919   7.364
 3989POPC   NC351587  32.232  12.062   5.564
 3989POPC   PO451588  32.225  12.054   5.864
 3989POPC   GL151589  32.289  12.122   6.164
 3989POPC   GL251590  32.150  12.020   6.164
 3989POPC   C1A51591  32.225  12.125   6.464
 3989POPC   D2A51592  32.227  12.072   6.764
 3989POPC   C3A51593  32.246  12.038   7.064
 3989POPC   C4A51594  32.283  12.093   7.364
 3989POPC   C1B51595  32.042  11.937   6.464
 3989POPC   C2B51596  32.051  11.949   6.764
 3989POPC   C3B51597  32.088  11.929   7.064
 3989POPC   C4B51598  32.026  11.877   7.364
 3990POPC   NC351599  19.795  26.005   5.564
 3990POPC   PO451600  19.785  26.066   5.864
 3990POPC   GL151601  19.790  26.048   6.164
 3990POPC   GL251602  19.968  25.910   6.164
 3990POPC   C1A51603  19.822  26.051   6.464
 3990POPC   D2A51604  19.842  26.016   6.764
 3990POPC   C3A51605  19.833  26.019   7.064
 3990POPC   C4A51606  19.850  26.014   7.364
 3990POPC   C1B51607  19.979  25.861   6.464
 3990POPC   C2B51608  20.005  25.857   6.764
 3990POPC   C3B51609  20.002  25.912   7.064
 3990POPC   C4B51610  19.978  25.879   7.364
 3991POPC   NC351611  44.699  44.657   5.564
 3991POPC   PO451612  44.623  44.683   5.864
 3991POPC   GL151613  44.684  44.647   6.164
 3991POPC   GL251614  44.599  44.581   6.164
 3991POPC   C1A51615  44.664  44.663   6.464
 3991POPC   D2A51616  44.617  44.639   6.764
 3991POPC   C3A51617  44.631  44.652   7.064
 3991POPC   C4A51618  44.688  44.646   7.364
 3991POPC   C1B51619  44.676  44.387   6.464
 3991POPC   C2B51620  44.632  44.435   6.764
 3991POPC   C3B51621  44.657  44.430   7.064
 3991POPC   C4B51622  44.590  44.451   7.364
 3992POPC   NC351623   5.048  36.946   5.564
 3992POPC   PO451624   5.135  36.925   5.864
 3992POPC   GL151625   5.057  36.866   6.164
 3992POPC   GL251626   4.948  36.865   6.164
 3992POPC   C1A51627   5.125  36.880   6.464
 3992POPC   D2A51628   5.053  36.891   6.764
 3992POPC   C3A51629   5.050  36.949   7.064
 3992POPC   C4A51630   5.065  36.925   7.364
 3992POPC   C1B51631   4.865  36.788   6.464
 3992POPC   C2B51632   4.847  36.787   6.764
 3992POPC   C3B51633   4.813  36.825   7.064
 3992POPC   C4B51634   4.841  36.842   7.364
 3993POPC   NC351635  40.033   1.204   5.564
 3993POPC   PO451636  40.053   1.197   5.864
 3993POPC   GL151637  39.963   1.213   6.164
 3993POPC   GL251638  40.039   1.338   6.164
 3993POPC   C1A51639  39.963   1.234   6.464
 3993POPC   D2A51640  39.986   1.175   6.764
 3993POPC   C3A51641  40.003   1.171   7.064
 3993POPC   C4A51642  40.035   1.247   7.364
 3993POPC   C1B51643  40.145   1.440   6.464
 3993POPC   C2B51644  40.177   1.455   6.764
 3993POPC   C3B51645  40.183   1.403   7.064
 3993POPC   C4B51646  40.123   1.380   7.364
 3994POPC   NC351647   3.581  30.711   5.564
 3994POPC   PO451648   3.502  30.698   5.864
 3994POPC   GL151649   3.586  30.680   6.164
 3994POPC   GL251650   3.463  30.764   6.164
 3994POPC   C1A51651   3.575  30.714   6.464
 3994POPC   D2A51652   3.527  30.663   6.764
 3994POPC   C3A51653   3.534  30.696   7.064
 3994POPC   C4A51654   3.542  30.707   7.364
 3994POPC   C1B51655   3.431  30.882   6.464
 3994POPC   C2B51656   3.400  30.953   6.764
 3994POPC   C3B51657   3.416  30.922   7.064
 3994POPC   C4B51658   3.450  30.905   7.364
 3995POPC   NC351659  40.749  40.779   5.564
 3995POPC   PO451660  40.787  40.798   5.864
 3995POPC   GL151661  40.784  40.764   6.164
 3995POPC   GL251662  40.772  40.898   6.164
 3995POPC   C1A51663  40.788  40.753   6.464
 3995POPC   D2A51664  40.745  40.741   6.764
 3995POPC   C3A51665  40.823  40.816   7.064
 3995POPC   C4A51666  40.797  40.744   7.364
 3995POPC   C1B51667  40.791  41.058   6.464
 3995POPC   C2B51668  40.825  41.064   6.764
 3995POPC   C3B51669  40.870  40.996   7.064
 3995POPC   C4B51670  40.830  41.028   7.364
 3996POPC   NC351671  40.742  12.119   5.564
 3996POPC   PO451672  40.745  12.092   5.864
 3996POPC   GL151673  40.805  12.034   6.164
 3996POPC   GL251674  40.721  12.186   6.164
 3996POPC   C1A51675  40.743  12.079   6.464
 3996POPC   D2A51676  40.767  12.044   6.764
 3996POPC   C3A51677  40.815  12.052   7.064
 3996POPC   C4A51678  40.772  12.047   7.364
 3996POPC   C1B51679  40.658  12.243   6.464
 3996POPC   C2B51680  40.648  12.239   6.764
 3996POPC   C3B51681  40.586  12.278   7.064
 3996POPC   C4B51682  40.628  12.207   7.364
 3997POPC   NC351683  21.411  44.662   5.564
 3997POPC   PO451684  21.342  44.642   5.864
 3997POPC   GL151685  21.363  44.673   6.164
 3997POPC   GL251686  21.452  44.726   6.164
 3997POPC   C1A51687  21.339  44.665   6.464
 3997POPC   D2A51688  21.373  44.700   6.764
 3997POPC   C3A51689  21.350  44.663   7.064
 3997POPC   C4A51690  21.402  44.710   7.364
 3997POPC   C1B51691  21.594  44.771   6.464
 3997POPC   C2B51692  21.542  44.810   6.764
 3997POPC   C3B51693  21.543  44.805   7.064
 3997POPC   C4B51694  21.581  44.858   7.364
 3998POPC   NC351695  28.339  42.356   5.564
 3998POPC   PO451696  28.349  42.306   5.864
 3998POPC   GL151697  28.358  42.371   6.164
 3998POPC   GL251698  28.457  42.479   6.164
 3998POPC   C1A51699  28.403  42.290   6.464
 3998POPC   D2A51700  28.335  42.322   6.764
 3998POPC   C3A51701  28.370  42.329   7.064
 3998POPC   C4A51702  28.353  42.338   7.364
 3998POPC   C1B51703  28.499  42.519   6.464
 3998POPC   C2B51704  28.450  42.518   6.764
 3998POPC   C3B51705  28.482  42.566   7.064
 3998POPC   C4B51706  28.481  42.558   7.364
 3999POPC   NC351707  14.370   8.167   5.564
 3999POPC   PO451708  14.449   8.172   5.864
 3999POPC   GL151709  14.394   8.175   6.164
 3999POPC   GL251710  14.289   8.234   6.164
 3999POPC   C1A51711  14.444   8.226   6.464
 3999POPC   D2A51712  14.354   8.194   6.764
 3999POPC   C3A51713  14.383   8.194   7.064
 3999POPC   C4A51714  14.447   8.166   7.364
 3999POPC   C1B51715  14.179   8.299   6.464
 3999POPC   C2B51716  14.161   8.359   6.764
 3999POPC   C3B51717  14.188   8.354   7.064
 3999POPC   C4B51718  14.197   8.326   7.364
 4000POPC   NC351719  10.483  36.896   5.564
 4000POPC   PO451720  10.478  36.915   5.864
 4000POPC   GL151721  10.515  36.873   6.164
 4000POPC   GL251722  10.608  36.893   6.164
 4000POPC   C1A51723  10.496  36.943   6.464
 4000POPC   D2A51724  10.498  36.947   6.764
 4000POPC   C3A51725  10.541  36.888   7.064
 4000POPC   C4A51726  10.511  36.869   7.364
 4000POPC   C1B51727  10.753  36.869   6.464
 4000POPC   C2B51728  10.822  36.908   6.764
 4000POPC   C3B51729  10.742  36.920   7.064
 4000POPC   C4B51730  10.755  36.890   7.364
 4001POPC   NC351731  29.962   0.468   5.564
 4001POPC   PO451732  29.884   0.434   5.864
 4001POPC   GL151733  29.954   0.401   6.164
 4001POPC   GL251734  29.827   0.456   6.164
 4001POPC   C1A51735  29.881   0.389   6.464
 4001POPC   D2A51736  29.918   0.457   6.764
 4001POPC   C3A51737  29.964   0.473   7.064
 4001POPC   C4A51738  29.899   0.443   7.364
 4001POPC   C1B51739  29.650   0.409   6.464
 4001POPC   C2B51740  29.640   0.442   6.764
 4001POPC   C3B51741  29.664   0.499   7.064
 4001POPC   C4B51742  29.704   0.457   7.364
 4002POPC   NC351743  10.521  33.061   5.564
 4002POPC   PO451744  10.568  33.004   5.864
 4002POPC   GL151745  10.503  33.015   6.164
 4002POPC   GL251746  10.610  33.073   6.164
 4002POPC   C1A51747  10.536  33.039   6.464
 4002POPC   D2A51748  10.521  33.022   6.764
 4002POPC   C3A51749  10.493  33.036   7.064
 4002POPC   C4A51750  10.508  33.059   7.364
 4002POPC   C1B51751  10.713  33.116   6.464
 4002POPC   C2B51752  10.782  33.157   6.764
 4002POPC   C3B51753  10.748  33.197   7.064
 4002POPC   C4B51754  10.697  33.129   7.364
 4003POPC   NC351755  13.604   5.888   5.564
 4003POPC   PO451756  13.588   5.860   5.864
 4003POPC   GL151757  13.660   5.916   6.164
 4003POPC   GL251758  13.628   5.789   6.164
 4003POPC   C1A51759  13.650   5.875   6.464
 4003POPC   D2A51760  13.604   5.827   6.764
 4003POPC   C3A51761  13.617   5.836   7.064
 4003POPC   C4A51762  13.645   5.911   7.364
 4003POPC   C1B51763  13.622   5.606   6.464
 4003POPC   C2B51764  13.703   5.609   6.764
 4003POPC   C3B51765  13.634   5.669   7.064
 4003POPC   C4B51766  13.626   5.659   7.364
 4004POPC   NC351767   5.086   5.129   5.564
 4004POPC   PO451768   5.143   5.089   5.864
 4004POPC   GL151769   5.128   5.073   6.164
 4004POPC   GL251770   5.024   5.115   6.164
 4004POPC   C1A51771   5.111   5.085   6.464
 4004POPC   D2A51772   5.137   5.108   6.764
 4004POPC   C3A51773   5.107   5.062   7.064
 4004POPC   C4A51774   5.082   5.126   7.364
 4004POPC   C1B51775   4.887   5.272   6.464
 4004POPC   C2B51776   4.921   5.226   6.764
 4004POPC   C3B51777   4.932   5.276   7.064
 4004POPC   C4B51778   4.888   5.225   7.364
 4005POPC   NC351779  36.142  26.768   5.564
 4005POPC   PO451780  36.118  26.842   5.864
 4005POPC   GL151781  36.170  26.816   6.164
 4005POPC   GL251782  36.291  26.857   6.164
 4005POPC   C1A51783  36.171  26.834   6.464
 4005POPC   D2A51784  36.160  26.780   6.764
 4005POPC   C3A51785  36.110  26.773   7.064
 4005POPC   C4A51786  36.150  26.769   7.364
 4005POPC   C1B51787  36.385  26.862   6.464
 4005POPC   C2B51788  36.423  26.787   6.764
 4005POPC   C3B51789  36.426  26.831   7.064
 4005POPC   C4B51790  36.374  26.855   7.364
 4006POPC   NC351791  40.826  30.649   5.564
 4006POPC   PO451792  40.813  30.659   5.864
 4006POPC   GL151793  40.738  30.735   6.164
 4006POPC   GL251794  40.703  30.810   6.164
 4006POPC   C1A51795  40.793  30.655   6.464
 4006POPC   D2A51796  40.772  30.652   6.764
 4006POPC   C3A51797  40.824  30.724   7.064
 4006POPC   C4A51798  40.770  30.724   7.364
 4006POPC   C1B51799  40.724  30.952   6.464
 4006POPC   C2B51800  40.714  30.985   6.764
 4006POPC   C3B51801  40.772  30.927   7.064
 4006POPC   C4B51802  40.732  30.918   7.364
 4007POPC   NC351803   6.622   2.716   5.564
 4007POPC   PO451804   6.632   2.812   5.864
 4007POPC   GL151805   6.639   2.788   6.164
 4007POPC   GL251806   6.551   2.858   6.164
 4007POPC   C1A51807   6.632   2.743   6.464
 4007POPC   D2A51808   6.604   2.759   6.764
 4007POPC   C3A51809   6.597   2.800   7.064
 4007POPC   C4A51810   6.597   2.726   7.364
 4007POPC   C1B51811   6.392   2.906   6.464
 4007POPC   C2B51812   6.469   2.923   6.764
 4007POPC   C3B51813   6.409   2.953   7.064
 4007POPC   C4B51814   6.444   2.883   7.364
 4008POPC   NC351815  30.735  31.493   5.564
 4008POPC   PO451816  30.731  31.520   5.864
 4008POPC   GL151817  30.714  31.431   6.164
 4008POPC   GL251818  30.771  31.644   6.164
 4008POPC   C1A51819  30.685  31.508   6.464
 4008POPC   D2A51820  30.713  31.515   6.764
 4008POPC   C3A51821  30.700  31.497   7.064
 4008POPC   C4A51822  30.729  31.491   7.364
 4008POPC   C1B51823  30.746  31.765   6.464
 4008POPC   C2B51824  30.765  31.688   6.764
 4008POPC   C3B51825  30.717  31.745   7.064
 4008POPC   C4B51826  30.744  31.718   7.364
 4009POPC   NC351827  33.759  37.677   5.564
 4009POPC   PO451828  33.796  37.679   5.864
 4009POPC   GL151829  33.800  37.630   6.164
 4009POPC   GL251830  33.645  37.675   6.164
 4009POPC   C1A51831  33.790  37.666   6.464
 4009POPC   D2A51832  33.832  37.696   6.764
 4009POPC   C3A51833  33.771  37.689   7.064
 4009POPC   C4A51834  33.814  37.677   7.364
 4009POPC   C1B51835  33.578  37.736   6.464
 4009POPC   C2B51836  33.514  37.775   6.764
 4009POPC   C3B51837  33.537  37.796   7.064
 4009POPC   C4B51838  33.561  37.751   7.364
 4010POPC   NC351839  42.301   7.444   5.564
 4010POPC   PO451840  42.352   7.411   5.864
 4010POPC   GL151841  42.293   7.470   6.164
 4010POPC   GL251842  42.223   7.447   6.164
 4010POPC   C1A51843  42.377   7.380   6.464
 4010POPC   D2A51844  42.379   7.421   6.764
 4010POPC   C3A51845  42.328   7.422   7.064
 4010POPC   C4A51846  42.327   7.437   7.364
 4010POPC   C1B51847  42.106   7.447   6.464
 4010POPC   C2B51848  42.102   7.449   6.764
 4010POPC   C3B51849  42.050   7.476   7.064
 4010POPC   C4B51850  42.056   7.475   7.364
 4011POPC   NC351851  15.187   5.091   5.564
 4011POPC   PO451852  15.201   5.076   5.864
 4011POPC   GL151853  15.194   5.071   6.164
 4011POPC   GL251854  15.283   5.027   6.164
 4011POPC   C1A51855  15.223   5.074   6.464
 4011POPC   D2A51856  15.177   5.078   6.764
 4011POPC   C3A51857  15.139   5.080   7.064
 4011POPC   C4A51858  15.164   5.055   7.364
 4011POPC   C1B51859  15.383   5.072   6.464
 4011POPC   C2B51860  15.384   5.064   6.764
 4011POPC   C3B51861  15.441   5.030   7.064
 4011POPC   C4B51862  15.470   5.001   7.364
 4012POPC   NC351863   8.193   5.843   5.564
 4012POPC   PO451864   8.177   5.902   5.864
 4012POPC   GL151865   8.172   5.890   6.164
 4012POPC   GL251866   8.168   5.975   6.164
 4012POPC   C1A51867   8.150   5.831   6.464
 4012POPC   D2A51868   8.195   5.841   6.764
 4012POPC   C3A51869   8.192   5.905   7.064
 4012POPC   C4A51870   8.155   5.912   7.364
 4012POPC   C1B51871   8.104   6.102   6.464
 4012POPC   C2B51872   8.071   6.063   6.764
 4012POPC   C3B51873   8.129   6.147   7.064
 4012POPC   C4B51874   8.080   6.059   7.364
 4013POPC   NC351875  22.143  18.260   5.564
 4013POPC   PO451876  22.137  18.268   5.864
 4013POPC   GL151877  22.163  18.315   6.164
 4013POPC   GL251878  22.291  18.259   6.164
 4013POPC   C1A51879  22.120  18.262   6.464
 4013POPC   D2A51880  22.127  18.239   6.764
 4013POPC   C3A51881  22.186  18.250   7.064
 4013POPC   C4A51882  22.136  18.250   7.364
 4013POPC   C1B51883  22.419  18.152   6.464
 4013POPC   C2B51884  22.374  18.202   6.764
 4013POPC   C3B51885  22.403  18.181   7.064
 4013POPC   C4B51886  22.377  18.171   7.364
 4014POPC   NC351887  32.212  22.986   5.564
 4014POPC   PO451888  32.217  22.974   5.864
 4014POPC   GL151889  32.279  22.920   6.164
 4014POPC   GL251890  32.342  22.970   6.164
 4014POPC   C1A51891  32.264  22.899   6.464
 4014POPC   D2A51892  32.249  22.893   6.764
 4014POPC   C3A51893  32.286  22.950   7.064
 4014POPC   C4A51894  32.229  22.910   7.364
 4014POPC   C1B51895  32.478  23.042   6.464
 4014POPC   C2B51896  32.464  23.031   6.764
 4014POPC   C3B51897  32.503  23.004   7.064
 4014POPC   C4B51898  32.501  23.041   7.364
 4015POPC   NC351899  19.028  19.840   5.564
 4015POPC   PO451900  19.085  19.847   5.864
 4015POPC   GL151901  19.064  19.806   6.164
 4015POPC   GL251902  19.051  19.747   6.164
 4015POPC   C1A51903  19.106  19.856   6.464
 4015POPC   D2A51904  19.026  19.828   6.764
 4015POPC   C3A51905  19.065  19.808   7.064
 4015POPC   C4A51906  19.030  19.860   7.364
 4015POPC   C1B51907  19.090  19.613   6.464
 4015POPC   C2B51908  19.081  19.556   6.764
 4015POPC   C3B51909  19.050  19.540   7.064
 4015POPC   C4B51910  19.012  19.577   7.364
 4016POPC   NC351911  42.290   4.334   5.564
 4016POPC   PO451912  42.285   4.358   5.864
 4016POPC   GL151913  42.369   4.292   6.164
 4016POPC   GL251914  42.381   4.226   6.164
 4016POPC   C1A51915  42.349   4.270   6.464
 4016POPC   D2A51916  42.335   4.272   6.764
 4016POPC   C3A51917  42.300   4.335   7.064
 4016POPC   C4A51918  42.377   4.356   7.364
 4016POPC   C1B51919  42.427   4.070   6.464
 4016POPC   C2B51920  42.441   4.058   6.764
 4016POPC   C3B51921  42.464   4.116   7.064
 4016POPC   C4B51922  42.460   4.148   7.364
 4017POPC   NC351923  39.965  12.077   5.564
 4017POPC   PO451924  40.034  12.054   5.864
 4017POPC   GL151925  40.034  12.067   6.164
 4017POPC   GL251926  39.922  12.097   6.164
 4017POPC   C1A51927  40.008  12.059   6.464
 4017POPC   D2A51928  40.055  12.115   6.764
 4017POPC   C3A51929  40.042  12.027   7.064
 4017POPC   C4A51930  40.040  12.119   7.364
 4017POPC   C1B51931  39.807  12.205   6.464
 4017POPC   C2B51932  39.753  12.200   6.764
 4017POPC   C3B51933  39.751  12.172   7.064
 4017POPC   C4B51934  39.808  12.172   7.364
 4018POPC   NC351935  32.258  40.021   5.564
 4018POPC   PO451936  32.246  39.959   5.864
 4018POPC   GL151937  32.293  39.964   6.164
 4018POPC   GL251938  32.230  39.925   6.164
 4018POPC   C1A51939  32.202  39.971   6.464
 4018POPC   D2A51940  32.248  39.998   6.764
 4018POPC   C3A51941  32.279  40.001   7.064
 4018POPC   C4A51942  32.215  40.013   7.364
 4018POPC   C1B51943  32.168  39.800   6.464
 4018POPC   C2B51944  32.165  39.767   6.764
 4018POPC   C3B51945  32.180  39.794   7.064
 4018POPC   C4B51946  32.230  39.728   7.364
 4019POPC   NC351947  19.846  44.666   5.564
 4019POPC   PO451948  19.831  44.663   5.864
 4019POPC   GL151949  19.790  44.709   6.164
 4019POPC   GL251950  19.894  44.528   6.164
 4019POPC   C1A51951  19.872  44.653   6.464
 4019POPC   D2A51952  19.814  44.625   6.764
 4019POPC   C3A51953  19.818  44.668   7.064
 4019POPC   C4A51954  19.815  44.691   7.364
 4019POPC   C1B51955  20.003  44.484   6.464
 4019POPC   C2B51956  20.005  44.407   6.764
 4019POPC   C3B51957  19.991  44.457   7.064
 4019POPC   C4B51958  19.971  44.397   7.364
 4020POPC   NC351959  21.413  38.502   5.564
 4020POPC   PO451960  21.426  38.475   5.864
 4020POPC   GL151961  21.371  38.451   6.164
 4020POPC   GL251962  21.521  38.353   6.164
 4020POPC   C1A51963  21.347  38.444   6.464
 4020POPC   D2A51964  21.359  38.466   6.764
 4020POPC   C3A51965  21.416  38.493   7.064
 4020POPC   C4A51966  21.431  38.500   7.364
 4020POPC   C1B51967  21.542  38.271   6.464
 4020POPC   C2B51968  21.556  38.255   6.764
 4020POPC   C3B51969  21.597  38.316   7.064
 4020POPC   C4B51970  21.591  38.337   7.364
 4021POPC   NC351971  17.517   5.083   5.564
 4021POPC   PO451972  17.505   5.061   5.864
 4021POPC   GL151973  17.536   5.125   6.164
 4021POPC   GL251974  17.456   4.953   6.164
 4021POPC   C1A51975  17.554   5.077   6.464
 4021POPC   D2A51976  17.522   5.118   6.764
 4021POPC   C3A51977  17.489   5.059   7.064
 4021POPC   C4A51978  17.480   5.092   7.364
 4021POPC   C1B51979  17.365   4.904   6.464
 4021POPC   C2B51980  17.313   4.850   6.764
 4021POPC   C3B51981  17.381   4.939   7.064
 4021POPC   C4B51982  17.370   4.880   7.364
 4022POPC   NC351983   8.244  22.199   5.564
 4022POPC   PO451984   8.177  22.189   5.864
 4022POPC   GL151985   8.179  22.210   6.164
 4022POPC   GL251986   8.090  22.188   6.164
 4022POPC   C1A51987   8.204  22.186   6.464
 4022POPC   D2A51988   8.220  22.156   6.764
 4022POPC   C3A51989   8.183  22.169   7.064
 4022POPC   C4A51990   8.165  22.142   7.364
 4022POPC   C1B51991   7.976  22.116   6.464
 4022POPC   C2B51992   7.904  22.095   6.764
 4022POPC   C3B51993   7.988  22.123   7.064
 4022POPC   C4B51994   7.993  22.145   7.364
 4023POPC   NC351995  32.982  31.501   5.564
 4023POPC   PO451996  32.980  31.483   5.864
 4023POPC   GL151997  33.052  31.485   6.164
 4023POPC   GL251998  32.889  31.403   6.164
 4023POPC   C1A51999  33.009  31.482   6.464
 4023POPC   D2A52000  33.030  31.460   6.764
 4023POPC   C3A52001  33.052  31.507   7.064
 4023POPC   C4A52002  33.018  31.491   7.364
 4023POPC   C1B52003  32.829  31.347   6.464
 4023POPC   C2B52004  32.838  31.356   6.764
 4023POPC   C3B52005  32.810  31.329   7.064
 4023POPC   C4B52006  32.838  31.326   7.364
 4024POPC   NC352007  40.778  13.640   5.564
 4024POPC   PO452008  40.754  13.592   5.864
 4024POPC   GL152009  40.778  13.677   6.164
 4024POPC   GL252010  40.709  13.571   6.164
 4024POPC   C1A52011  40.781  13.617   6.464
 4024POPC   D2A52012  40.823  13.674   6.764
 4024POPC   C3A52013  40.825  13.647   7.064
 4024POPC   C4A52014  40.831  13.631   7.364
 4024POPC   C1B52015  40.608  13.429   6.464
 4024POPC   C2B52016  40.645  13.423   6.764
 4024POPC   C3B52017  40.603  13.502   7.064
 4024POPC   C4B52018  40.611  13.500   7.364
 4025POPC   NC352019   5.841  24.518   5.564
 4025POPC   PO452020   5.845  24.496   5.864
 4025POPC   GL152021   5.893  24.509   6.164
 4025POPC   GL252022   5.892  24.584   6.164
 4025POPC   C1A52023   5.878  24.451   6.464
 4025POPC   D2A52024   5.851  24.526   6.764
 4025POPC   C3A52025   5.825  24.484   7.064
 4025POPC   C4A52026   5.820  24.481   7.364
 4025POPC   C1B52027   6.007  24.715   6.464
 4025POPC   C2B52028   5.925  24.710   6.764
 4025POPC   C3B52029   5.966  24.675   7.064
 4025POPC   C4B52030   5.998  24.752   7.364
 4026POPC   NC352031  41.523  29.128   5.564
 4026POPC   PO452032  41.547  29.107   5.864
 4026POPC   GL152033  41.587  29.181   6.164
 4026POPC   GL252034  41.531  28.991   6.164
 4026POPC   C1A52035  41.607  29.096   6.464
 4026POPC   D2A52036  41.564  29.192   6.764
 4026POPC   C3A52037  41.572  29.127   7.064
 4026POPC   C4A52038  41.581  29.166   7.364
 4026POPC   C1B52039  41.474  28.854   6.464
 4026POPC   C2B52040  41.481  28.869   6.764
 4026POPC   C3B52041  41.468  28.867   7.064
 4026POPC   C4B52042  41.560  28.946   7.364
 4027POPC   NC352043   8.957  26.769   5.564
 4027POPC   PO452044   8.959  26.829   5.864
 4027POPC   GL152045   8.959  26.769   6.164
 4027POPC   GL252046   8.877  26.807   6.164
 4027POPC   C1A52047   8.978  26.774   6.464
 4027POPC   D2A52048   8.926  26.861   6.764
 4027POPC   C3A52049   8.966  26.867   7.064
 4027POPC   C4A52050   8.963  26.863   7.364
 4027POPC   C1B52051   8.726  26.758   6.464
 4027POPC   C2B52052   8.746  26.769   6.764
 4027POPC   C3B52053   8.736  26.685   7.064
 4027POPC   C4B52054   8.727  26.744   7.364
 4028POPC   NC352055   4.310   2.728   5.564
 4028POPC   PO452056   4.320   2.764   5.864
 4028POPC   GL152057   4.357   2.797   6.164
 4028POPC   GL252058   4.440   2.761   6.164
 4028POPC   C1A52059   4.363   2.783   6.464
 4028POPC   D2A52060   4.349   2.791   6.764
 4028POPC   C3A52061   4.274   2.765   7.064
 4028POPC   C4A52062   4.303   2.756   7.364
 4028POPC   C1B52063   4.554   2.775   6.464
 4028POPC   C2B52064   4.521   2.806   6.764
 4028POPC   C3B52065   4.601   2.863   7.064
 4028POPC   C4B52066   4.566   2.796   7.364
 4029POPC   NC352067  15.949  23.708   5.564
 4029POPC   PO452068  16.003  23.696   5.864
 4029POPC   GL152069  15.938  23.693   6.164
 4029POPC   GL252070  15.916  23.854   6.164
 4029POPC   C1A52071  15.996  23.743   6.464
 4029POPC   D2A52072  15.917  23.742   6.764
 4029POPC   C3A52073  15.930  23.732   7.064
 4029POPC   C4A52074  15.961  23.709   7.364
 4029POPC   C1B52075  15.883  23.997   6.464
 4029POPC   C2B52076  15.931  24.002   6.764
 4029POPC   C3B52077  15.873  23.923   7.064
 4029POPC   C4B52078  15.843  23.936   7.364
 4030POPC   NC352079  44.709  37.677   5.564
 4030POPC   PO452080  44.671  37.670   5.864
 4030POPC   GL152081  44.640  37.684   6.164
 4030POPC   GL252082  44.692  37.596   6.164
 4030POPC   C1A52083  44.663  37.662   6.464
 4030POPC   D2A52084  44.625  37.631   6.764
 4030POPC   C3A52085  44.629  37.633   7.064
 4030POPC   C4A52086  44.648  37.635   7.364
 4030POPC   C1B52087  44.790  37.432   6.464
 4030POPC   C2B52088  44.800  37.486   6.764
 4030POPC   C3B52089  44.802  37.456   7.064
 4030POPC   C4B52090  44.776  37.510   7.364
 4031POPC   NC352091  16.682  15.150   5.564
 4031POPC   PO452092  16.752  15.206   5.864
 4031POPC   GL152093  16.760  15.139   6.164
 4031POPC   GL252094  16.586  15.059   6.164
 4031POPC   C1A52095  16.729  15.134   6.464
 4031POPC   D2A52096  16.708  15.141   6.764
 4031POPC   C3A52097  16.752  15.132   7.064
 4031POPC   C4A52098  16.742  15.150   7.364
 4031POPC   C1B52099  16.499  15.060   6.464
 4031POPC   C2B52100  16.586  15.023   6.764
 4031POPC   C3B52101  16.573  14.996   7.064
 4031POPC   C4B52102  16.571  15.021   7.364
 4032POPC   NC352103  19.108  43.063   5.564
 4032POPC   PO452104  19.021  43.104   5.864
 4032POPC   GL152105  19.099  43.149   6.164
 4032POPC   GL252106  19.003  42.989   6.164
 4032POPC   C1A52107  19.040  43.110   6.464
 4032POPC   D2A52108  19.105  43.117   6.764
 4032POPC   C3A52109  19.019  43.097   7.064
 4032POPC   C4A52110  19.050  43.100   7.364
 4032POPC   C1B52111  18.957  42.875   6.464
 4032POPC   C2B52112  18.980  42.870   6.764
 4032POPC   C3B52113  18.889  42.914   7.064
 4032POPC   C4B52114  18.894  42.847   7.364
 4033POPC   NC352115   4.324  35.336   5.564
 4033POPC   PO452116   4.283  35.366   5.864
 4033POPC   GL152117   4.327  35.327   6.164
 4033POPC   GL252118   4.394  35.458   6.164
 4033POPC   C1A52119   4.308  35.363   6.464
 4033POPC   D2A52120   4.344  35.333   6.764
 4033POPC   C3A52121   4.299  35.381   7.064
 4033POPC   C4A52122   4.285  35.339   7.364
 4033POPC   C1B52123   4.491  35.575   6.464
 4033POPC   C2B52124   4.455  35.586   6.764
 4033POPC   C3B52125   4.485  35.580   7.064
 4033POPC   C4B52126   4.478  35.562   7.364
 4034POPC   NC352127  35.314  19.845   5.564
 4034POPC   PO452128  35.336  19.793   5.864
 4034POPC   GL152129  35.359  19.791   6.164
 4034POPC   GL252130  35.279  19.925   6.164
 4034POPC   C1A52131  35.399  19.841   6.464
 4034POPC   D2A52132  35.393  19.830   6.764
 4034POPC   C3A52133  35.344  19.819   7.064
 4034POPC   C4A52134  35.338  19.836   7.364
 4034POPC   C1B52135  35.166  19.997   6.464
 4034POPC   C2B52136  35.094  19.977   6.764
 4034POPC   C3B52137  35.149  19.941   7.064
 4034POPC   C4B52138  35.170  19.948   7.364
 4035POPC   NC352139   3.583  32.278   5.564
 4035POPC   PO452140   3.576  32.221   5.864
 4035POPC   GL152141   3.520  32.258   6.164
 4035POPC   GL252142   3.657  32.252   6.164
 4035POPC   C1A52143   3.585  32.244   6.464
 4035POPC   D2A52144   3.506  32.272   6.764
 4035POPC   C3A52145   3.552  32.296   7.064
 4035POPC   C4A52146   3.583  32.275   7.364
 4035POPC   C1B52147   3.766  32.225   6.464
 4035POPC   C2B52148   3.738  32.184   6.764
 4035POPC   C3B52149   3.831  32.222   7.064
 4035POPC   C4B52150   3.831  32.216   7.364
 4036POPC   NC352151  42.359  13.642   5.564
 4036POPC   PO452152  42.332  13.600   5.864
 4036POPC   GL152153  42.319  13.595   6.164
 4036POPC   GL252154  42.235  13.464   6.164
 4036POPC   C1A52155  42.324  13.596   6.464
 4036POPC   D2A52156  42.366  13.595   6.764
 4036POPC   C3A52157  42.359  13.593   7.064
 4036POPC   C4A52158  42.308  13.661   7.364
 4036POPC   C1B52159  42.201  13.439   6.464
 4036POPC   C2B52160  42.253  13.401   6.764
 4036POPC   C3B52161  42.215  13.359   7.064
 4036POPC   C4B52162  42.254  13.420   7.364
 4037POPC   NC352163  18.294  43.150   5.564
 4037POPC   PO452164  18.252  43.091   5.864
 4037POPC   GL152165  18.236  43.145   6.164
 4037POPC   GL252166  18.377  43.031   6.164
 4037POPC   C1A52167  18.283  43.115   6.464
 4037POPC   D2A52168  18.285  43.147   6.764
 4037POPC   C3A52169  18.243  43.160   7.064
 4037POPC   C4A52170  18.330  43.134   7.364
 4037POPC   C1B52171  18.418  42.856   6.464
 4037POPC   C2B52172  18.347  42.874   6.764
 4037POPC   C3B52173  18.414  42.870   7.064
 4037POPC   C4B52174  18.373  42.870   7.364
 4038POPC   NC352175  27.560  22.113   5.564
 4038POPC   PO452176  27.551  22.124   5.864
 4038POPC   GL152177  27.604  22.146   6.164
 4038POPC   GL252178  27.639  22.324   6.164
 4038POPC   C1A52179  27.555  22.122   6.464
 4038POPC   D2A52180  27.630  22.165   6.764
 4038POPC   C3A52181  27.635  22.210   7.064
 4038POPC   C4A52182  27.562  22.202   7.364
 4038POPC   C1B52183  27.603  22.383   6.464
 4038POPC   C2B52184  27.665  22.416   6.764
 4038POPC   C3B52185  27.646  22.390   7.064
 4038POPC   C4B52186  27.637  22.415   7.364
 4039POPC   NC352187  28.343  15.200   5.564
 4039POPC   PO452188  28.360  15.226   5.864
 4039POPC   GL152189  28.377  15.132   6.164
 4039POPC   GL252190  28.300  15.245   6.164
 4039POPC   C1A52191  28.380  15.205   6.464
 4039POPC   D2A52192  28.344  15.169   6.764
 4039POPC   C3A52193  28.329  15.152   7.064
 4039POPC   C4A52194  28.339  15.153   7.364
 4039POPC   C1B52195  28.143  15.334   6.464
 4039POPC   C2B52196  28.205  15.293   6.764
 4039POPC   C3B52197  28.153  15.378   7.064
 4039POPC   C4B52198  28.181  15.309   7.364
 4040POPC   NC352199  37.661  43.145   5.564
 4040POPC   PO452200  37.671  43.108   5.864
 4040POPC   GL152201  37.704  43.140   6.164
 4040POPC   GL252202  37.734  43.147   6.164
 4040POPC   C1A52203  37.645  43.140   6.464
 4040POPC   D2A52204  37.695  43.066   6.764
 4040POPC   C3A52205  37.678  43.068   7.064
 4040POPC   C4A52206  37.680  43.096   7.364
 4040POPC   C1B52207  37.904  43.253   6.464
 4040POPC   C2B52208  37.881  43.284   6.764
 4040POPC   C3B52209  37.903  43.317   7.064
 4040POPC   C4B52210  37.854  43.299   7.364
 4041POPC   NC352211  36.115  40.011   5.564
 4041POPC   PO452212  36.136  40.044   5.864
 4041POPC   GL152213  36.087  39.983   6.164
 4041POPC   GL252214  36.062  39.907   6.164
 4041POPC   C1A52215  36.158  39.968   6.464
 4041POPC   D2A52216  36.102  40.053   6.764
 4041POPC   C3A52217  36.161  39.968   7.064
 4041POPC   C4A52218  36.144  39.995   7.364
 4041POPC   C1B52219  36.076  39.783   6.464
 4041POPC   C2B52220  36.033  39.810   6.764
 4041POPC   C3B52221  36.038  39.732   7.064
 4041POPC   C4B52222  36.095  39.786   7.364
 4042POPC   NC352223  23.728  29.939   5.564
 4042POPC   PO452224  23.730  29.877   5.864
 4042POPC   GL152225  23.716  29.901   6.164
 4042POPC   GL252226  23.613  29.821   6.164
 4042POPC   C1A52227  23.688  29.952   6.464
 4042POPC   D2A52228  23.700  29.895   6.764
 4042POPC   C3A52229  23.692  29.969   7.064
 4042POPC   C4A52230  23.753  29.880   7.364
 4042POPC   C1B52231  23.555  29.730   6.464
 4042POPC   C2B52232  23.588  29.684   6.764
 4042POPC   C3B52233  23.537  29.709   7.064
 4042POPC   C4B52234  23.539  29.716   7.364
 4043POPC   NC352235  12.881   4.356   5.564
 4043POPC   PO452236  12.844   4.298   5.864
 4043POPC   GL152237  12.878   4.278   6.164
 4043POPC   GL252238  12.729   4.372   6.164
 4043POPC   C1A52239  12.803   4.321   6.464
 4043POPC   D2A52240  12.887   4.331   6.764
 4043POPC   C3A52241  12.895   4.292   7.064
 4043POPC   C4A52242  12.880   4.333   7.364
 4043POPC   C1B52243  12.643   4.419   6.464
 4043POPC   C2B52244  12.595   4.434   6.764
 4043POPC   C3B52245  12.620   4.386   7.064
 4043POPC   C4B52246  12.590   4.404   7.364
 4044POPC   NC352247  20.619  21.419   5.564
 4044POPC   PO452248  20.607  21.349   5.864
 4044POPC   GL152249  20.608  21.395   6.164
 4044POPC   GL252250  20.463  21.451   6.164
 4044POPC   C1A52251  20.591  21.393   6.464
 4044POPC   D2A52252  20.633  21.364   6.764
 4044POPC   C3A52253  20.643  21.432   7.064
 4044POPC   C4A52254  20.585  21.417   7.364
 4044POPC   C1B52255  20.406  21.462   6.464
 4044POPC   C2B52256  20.397  21.490   6.764
 4044POPC   C3B52257  20.404  21.495   7.064
 4044POPC   C4B52258  20.335  21.483   7.364
 4045POPC   NC352259  26.805  17.493   5.564
 4045POPC   PO452260  26.834  17.489   5.864
 4045POPC   GL152261  26.860  17.554   6.164
 4045POPC   GL252262  26.761  17.368   6.164
 4045POPC   C1A52263  26.841  17.491   6.464
 4045POPC   D2A52264  26.853  17.490   6.764
 4045POPC   C3A52265  26.857  17.515   7.064
 4045POPC   C4A52266  26.798  17.502   7.364
 4045POPC   C1B52267  26.705  17.313   6.464
 4045POPC   C2B52268  26.695  17.289   6.764
 4045POPC   C3B52269  26.760  17.319   7.064
 4045POPC   C4B52270  26.713  17.283   7.364
 4046POPC   NC352271   1.236  31.468   5.564
 4046POPC   PO452272   1.199  31.440   5.864
 4046POPC   GL152273   1.181  31.455   6.164
 4046POPC   GL252274   1.143  31.534   6.164
 4046POPC   C1A52275   1.249  31.432   6.464
 4046POPC   D2A52276   1.208  31.498   6.764
 4046POPC   C3A52277   1.224  31.485   7.064
 4046POPC   C4A52278   1.176  31.475   7.364
 4046POPC   C1B52279   1.006  31.612   6.464
 4046POPC   C2B52280   0.954  31.534   6.764
 4046POPC   C3B52281   0.968  31.603   7.064
 4046POPC   C4B52282   0.940  31.543   7.364
 4047POPC   NC352283  19.798  28.398   5.564
 4047POPC   PO452284  19.858  28.378   5.864
 4047POPC   GL152285  19.811  28.370   6.164
 4047POPC   GL252286  19.759  28.458   6.164
 4047POPC   C1A52287  19.789  28.373   6.464
 4047POPC   D2A52288  19.850  28.398   6.764
 4047POPC   C3A52289  19.841  28.358   7.064
 4047POPC   C4A52290  19.788  28.341   7.364
 4047POPC   C1B52291  19.690  28.609   6.464
 4047POPC   C2B52292  19.710  28.596   6.764
 4047POPC   C3B52293  19.712  28.545   7.064
 4047POPC   C4B52294  19.724  28.606   7.364
 4048POPC   NC352295  23.697  11.344   5.564
 4048POPC   PO452296  23.688  11.256   5.864
 4048POPC   GL152297  23.668  11.267   6.164
 4048POPC   GL252298  23.554  11.281   6.164
 4048POPC   C1A52299  23.755  11.298   6.464
 4048POPC   D2A52300  23.691  11.341   6.764
 4048POPC   C3A52301  23.751  11.285   7.064
 4048POPC   C4A52302  23.672  11.276   7.364
 4048POPC   C1B52303  23.477  11.141   6.464
 4048POPC   C2B52304  23.534  11.224   6.764
 4048POPC   C3B52305  23.530  11.164   7.064
 4048POPC   C4B52306  23.540  11.169   7.364
 4049POPC   NC352307  40.826   2.774   5.564
 4049POPC   PO452308  40.742   2.806   5.864
 4049POPC   GL152309  40.806   2.717   6.164
 4049POPC   GL252310  40.656   2.740   6.164
 4049POPC   C1A52311  40.811   2.725   6.464
 4049POPC   D2A52312  40.772   2.735   6.764
 4049POPC   C3A52313  40.827   2.759   7.064
 4049POPC   C4A52314  40.789   2.800   7.364
 4049POPC   C1B52315  40.545   2.795   6.464
 4049POPC   C2B52316  40.531   2.798   6.764
 4049POPC   C3B52317  40.552   2.817   7.064
 4049POPC   C4B52318  40.535   2.824   7.364
 4050POPC   NC352319  20.641  11.258   5.564
 4050POPC   PO452320  20.595  11.274   5.864
 4050POPC   GL152321  20.626  11.268   6.164
 4050POPC   GL252322  20.571  11.427   6.164
 4050POPC   C1A52323  20.652  11.323   6.464
 4050POPC   D2A52324  20.598  11.277   6.764
 4050POPC   C3A52325  20.608  11.287   7.064
 4050POPC   C4A52326  20.599  11.309   7.364
 4050POPC   C1B52327  20.504  11.536   6.464
 4050POPC   C2B52328  20.454  11.505   6.764
 4050POPC   C3B52329  20.432  11.482   7.064
 4050POPC   C4B52330  20.518  11.542   7.364
 4051POPC   NC352331   5.106  29.158   5.564
 4051POPC   PO452332   5.135  29.166   5.864
 4051POPC   GL152333   5.066  29.194   6.164
 4051POPC   GL252334   4.995  29.202   6.164
 4051POPC   C1A52335   5.131  29.165   6.464
 4051POPC   D2A52336   5.051  29.140   6.764
 4051POPC   C3A52337   5.063  29.106   7.064
 4051POPC   C4A52338   5.089  29.149   7.364
 4051POPC   C1B52339   4.829  29.246   6.464
 4051POPC   C2B52340   4.891  29.243   6.764
 4051POPC   C3B52341   4.815  29.176   7.064
 4051POPC   C4B52342   4.833  29.214   7.364
 4052POPC   NC352343  43.846  12.846   5.564
 4052POPC   PO452344  43.932  12.825   5.864
 4052POPC   GL152345  43.887  12.849   6.164
 4052POPC   GL252346  43.786  12.784   6.164
 4052POPC   C1A52347  43.870  12.815   6.464
 4052POPC   D2A52348  43.862  12.849   6.764
 4052POPC   C3A52349  43.901  12.818   7.064
 4052POPC   C4A52350  43.850  12.804   7.364
 4052POPC   C1B52351  43.671  12.712   6.464
 4052POPC   C2B52352  43.645  12.678   6.764
 4052POPC   C3B52353  43.717  12.711   7.064
 4052POPC   C4B52354  43.693  12.693   7.364
 4053POPC   NC352355  36.167  36.129   5.564
 4053POPC   PO452356  36.133  36.166   5.864
 4053POPC   GL152357  36.083  36.171   6.164
 4053POPC   GL252358  36.212  36.227   6.164
 4053POPC   C1A52359  36.096  36.170   6.464
 4053POPC   D2A52360  36.148  36.162   6.764
 4053POPC   C3A52361  36.176  36.172   7.064
 4053POPC   C4A52362  36.128  36.171   7.364
 4053POPC   C1B52363  36.324  36.326   6.464
 4053POPC   C2B52364  36.305  36.290   6.764
 4053POPC   C3B52365  36.326  36.314   7.064
 4053POPC   C4B52366  36.359  36.293   7.364
 4054POPC   NC352367  26.822  39.994   5.564
 4054POPC   PO452368  26.770  40.004   5.864
 4054POPC   GL152369  26.796  40.008   6.164
 4054POPC   GL252370  26.912  40.136   6.164
 4054POPC   C1A52371  26.843  40.026   6.464
 4054POPC   D2A52372  26.811  40.030   6.764
 4054POPC   C3A52373  26.837  40.020   7.064
 4054POPC   C4A52374  26.818  40.044   7.364
 4054POPC   C1B52375  27.006  40.218   6.464
 4054POPC   C2B52376  26.980  40.259   6.764
 4054POPC   C3B52377  26.923  40.240   7.064
 4054POPC   C4B52378  26.977  40.211   7.364
 4055POPC   NC352379  29.184   8.957   5.564
 4055POPC   PO452380  29.171   9.022   5.864
 4055POPC   GL152381  29.137   8.999   6.164
 4055POPC   GL252382  29.230   9.065   6.164
 4055POPC   C1A52383  29.169   8.941   6.464
 4055POPC   D2A52384  29.182   8.989   6.764
 4055POPC   C3A52385  29.148   8.991   7.064
 4055POPC   C4A52386  29.105   8.966   7.364
 4055POPC   C1B52387  29.340   9.074   6.464
 4055POPC   C2B52388  29.336   9.111   6.764
 4055POPC   C3B52389  29.365   9.154   7.064
 4055POPC   C4B52390  29.328   9.085   7.364
 4056POPC   NC352391   0.465  43.089   5.564
 4056POPC   PO452392   0.485  43.111   5.864
 4056POPC   GL152393   0.399  43.084   6.164
 4056POPC   GL252394   0.587  43.067   6.164
 4056POPC   C1A52395   0.480  43.141   6.464
 4056POPC   D2A52396   0.435  43.137   6.764
 4056POPC   C3A52397   0.477  43.096   7.064
 4056POPC   C4A52398   0.481  43.103   7.364
 4056POPC   C1B52399   0.694  43.081   6.464
 4056POPC   C2B52400   0.736  43.136   6.764
 4056POPC   C3B52401   0.733  43.133   7.064
 4056POPC   C4B52402   0.724  43.114   7.364
 4057POPC   NC352403  28.379  13.671   5.564
 4057POPC   PO452404  28.321  13.669   5.864
 4057POPC   GL152405  28.365  13.677   6.164
 4057POPC   GL252406  28.470  13.560   6.164
 4057POPC   C1A52407  28.377  13.666   6.464
 4057POPC   D2A52408  28.356  13.664   6.764
 4057POPC   C3A52409  28.324  13.668   7.064
 4057POPC   C4A52410  28.359  13.595   7.364
 4057POPC   C1B52411  28.566  13.591   6.464
 4057POPC   C2B52412  28.585  13.520   6.764
 4057POPC   C3B52413  28.616  13.582   7.064
 4057POPC   C4B52414  28.613  13.495   7.364
 4058POPC   NC352415  43.135  12.106   5.564
 4058POPC   PO452416  43.104  12.054   5.864
 4058POPC   GL152417  43.105  12.059   6.164
 4058POPC   GL252418  43.039  11.982   6.164
 4058POPC   C1A52419  43.133  12.029   6.464
 4058POPC   D2A52420  43.128  12.082   6.764
 4058POPC   C3A52421  43.109  12.038   7.064
 4058POPC   C4A52422  43.119  12.052   7.364
 4058POPC   C1B52423  42.859  11.982   6.464
 4058POPC   C2B52424  42.891  11.974   6.764
 4058POPC   C3B52425  42.880  11.891   7.064
 4058POPC   C4B52426  42.931  11.934   7.364
 4059POPC   NC352427  33.011   8.999   5.564
 4059POPC   PO452428  33.055   8.933   5.864
 4059POPC   GL152429  33.058   8.961   6.164
 4059POPC   GL252430  32.918   8.954   6.164
 4059POPC   C1A52431  33.037   8.979   6.464
 4059POPC   D2A52432  33.043   8.972   6.764
 4059POPC   C3A52433  33.021   8.945   7.064
 4059POPC   C4A52434  33.035   9.019   7.364
 4059POPC   C1B52435  32.754   8.942   6.464
 4059POPC   C2B52436  32.740   8.979   6.764
 4059POPC   C3B52437  32.784   8.928   7.064
 4059POPC   C4B52438  32.775   8.946   7.364
 4060POPC   NC352439  19.032  15.229   5.564
 4060POPC   PO452440  19.036  15.211   5.864
 4060POPC   GL152441  19.098  15.155   6.164
 4060POPC   GL252442  18.914  15.086   6.164
 4060POPC   C1A52443  19.065  15.155   6.464
 4060POPC   D2A52444  19.091  15.179   6.764
 4060POPC   C3A52445  19.030  15.145   7.064
 4060POPC   C4A52446  19.036  15.221   7.364
 4060POPC   C1B52447  18.794  15.130   6.464
 4060POPC   C2B52448  18.843  15.096   6.764
 4060POPC   C3B52449  18.803  15.102   7.064
 4060POPC   C4B52450  18.824  15.042   7.364
 4061POPC   NC352451  31.481  27.632   5.564
 4061POPC   PO452452  31.438  27.601   5.864
 4061POPC   GL152453  31.501  27.619   6.164
 4061POPC   GL252454  31.408  27.736   6.164
 4061POPC   C1A52455  31.431  27.604   6.464
 4061POPC   D2A52456  31.516  27.566   6.764
 4061POPC   C3A52457  31.437  27.580   7.064
 4061POPC   C4A52458  31.498  27.545   7.364
 4061POPC   C1B52459  31.306  27.764   6.464
 4061POPC   C2B52460  31.303  27.760   6.764
 4061POPC   C3B52461  31.323  27.835   7.064
 4061POPC   C4B52462  31.358  27.771   7.364
 4062POPC   NC352463  14.411  25.264   5.564
 4062POPC   PO452464  14.445  25.222   5.864
 4062POPC   GL152465  14.396  25.240   6.164
 4062POPC   GL252466  14.346  25.170   6.164
 4062POPC   C1A52467  14.362  25.240   6.464
 4062POPC   D2A52468  14.374  25.306   6.764
 4062POPC   C3A52469  14.363  25.296   7.064
 4062POPC   C4A52470  14.419  25.290   7.364
 4062POPC   C1B52471  14.363  25.003   6.464
 4062POPC   C2B52472  14.330  25.020   6.764
 4062POPC   C3B52473  14.366  25.053   7.064
 4062POPC   C4B52474  14.419  25.008   7.364
 4063POPC   NC352475   1.250  40.017   5.564
 4063POPC   PO452476   1.221  39.989   5.864
 4063POPC   GL152477   1.186  40.028   6.164
 4063POPC   GL252478   1.183  40.151   6.164
 4063POPC   C1A52479   1.169  40.020   6.464
 4063POPC   D2A52480   1.223  39.970   6.764
 4063POPC   C3A52481   1.195  39.975   7.064
 4063POPC   C4A52482   1.260  40.029   7.364
 4063POPC   C1B52483   1.090  40.220   6.464
 4063POPC   C2B52484   1.059  40.269   6.764
 4063POPC   C3B52485   1.068  40.255   7.064
 4063POPC   C4B52486   1.110  40.243   7.364
 4064POPC   NC352487  18.315  33.013   5.564
 4064POPC   PO452488  18.272  33.005   5.864
 4064POPC   GL152489  18.303  33.041   6.164
 4064POPC   GL252490  18.236  33.152   6.164
 4064POPC   C1A52491  18.291  32.975   6.464
 4064POPC   D2A52492  18.287  33.052   6.764
 4064POPC   C3A52493  18.309  33.057   7.064
 4064POPC   C4A52494  18.243  33.005   7.364
 4064POPC   C1B52495  18.153  33.205   6.464
 4064POPC   C2B52496  18.113  33.188   6.764
 4064POPC   C3B52497  18.150  33.241   7.064
 4064POPC   C4B52498  18.126  33.227   7.364
 4065POPC   NC352499  19.863  33.065   5.564
 4065POPC   PO452500  19.824  32.991   5.864
 4065POPC   GL152501  19.857  33.044   6.164
 4065POPC   GL252502  19.782  32.938   6.164
 4065POPC   C1A52503  19.837  33.038   6.464
 4065POPC   D2A52504  19.873  32.995   6.764
 4065POPC   C3A52505  19.879  32.994   7.064
 4065POPC   C4A52506  19.821  33.019   7.364
 4065POPC   C1B52507  19.702  32.779   6.464
 4065POPC   C2B52508  19.726  32.746   6.764
 4065POPC   C3B52509  19.748  32.816   7.064
 4065POPC   C4B52510  19.737  32.761   7.364
 4066POPC   NC352511   7.395  43.081   5.564
 4066POPC   PO452512   7.462  43.099   5.864
 4066POPC   GL152513   7.468  43.126   6.164
 4066POPC   GL252514   7.394  43.223   6.164
 4066POPC   C1A52515   7.442  43.090   6.464
 4066POPC   D2A52516   7.399  43.114   6.764
 4066POPC   C3A52517   7.412  43.132   7.064
 4066POPC   C4A52518   7.397  43.067   7.364
 4066POPC   C1B52519   7.320  43.350   6.464
 4066POPC   C2B52520   7.299  43.307   6.764
 4066POPC   C3B52521   7.279  43.298   7.064
 4066POPC   C4B52522   7.253  43.316   7.364
 4067POPC   NC352523   8.153  12.074   5.564
 4067POPC   PO452524   8.182  12.045   5.864
 4067POPC   GL152525   8.160  12.029   6.164
 4067POPC   GL252526   8.085  12.050   6.164
 4067POPC   C1A52527   8.239  12.079   6.464
 4067POPC   D2A52528   8.226  12.065   6.764
 4067POPC   C3A52529   8.163  12.080   7.064
 4067POPC   C4A52530   8.181  12.121   7.364
 4067POPC   C1B52531   7.992  12.149   6.464
 4067POPC   C2B52532   7.956  12.141   6.764
 4067POPC   C3B52533   7.917  12.083   7.064
 4067POPC   C4B52534   7.928  12.139   7.364
 4068POPC   NC352535  44.620  38.407   5.564
 4068POPC   PO452536  44.613  38.471   5.864
 4068POPC   GL152537  44.654  38.441   6.164
 4068POPC   GL252538  44.815  38.386   6.164
 4068POPC   C1A52539  44.692  38.427   6.464
 4068POPC   D2A52540  44.635  38.471   6.764
 4068POPC   C3A52541  44.683  38.448   7.064
 4068POPC   C4A52542  44.624  38.468   7.364
 4068POPC   C1B52543  44.872  38.313   6.464
 4068POPC   C2B52544  44.842  38.363   6.764
 4068POPC   C3B52545  44.886  38.329   7.064
 4068POPC   C4B52546  44.860  38.294   7.364
 4069POPC   NC352547  36.904  43.160   5.564
 4069POPC   PO452548  36.907  43.064   5.864
 4069POPC   GL152549  36.872  43.089   6.164
 4069POPC   GL252550  36.788  43.181   6.164
 4069POPC   C1A52551  36.885  43.066   6.464
 4069POPC   D2A52552  36.920  43.144   6.764
 4069POPC   C3A52553  36.861  43.133   7.064
 4069POPC   C4A52554  36.943  43.083   7.364
 4069POPC   C1B52555  36.726  43.312   6.464
 4069POPC   C2B52556  36.768  43.288   6.764
 4069POPC   C3B52557  36.752  43.337   7.064
 4069POPC   C4B52558  36.766  43.290   7.364
 4070POPC   NC352559   9.733  24.497   5.564
 4070POPC   PO452560   9.739  24.525   5.864
 4070POPC   GL152561   9.739  24.504   6.164
 4070POPC   GL252562   9.845  24.590   6.164
 4070POPC   C1A52563   9.790  24.513   6.464
 4070POPC   D2A52564   9.750  24.532   6.764
 4070POPC   C3A52565   9.797  24.494   7.064
 4070POPC   C4A52566   9.785  24.508   7.364
 4070POPC   C1B52567   9.903  24.732   6.464
 4070POPC   C2B52568   9.839  24.749   6.764
 4070POPC   C3B52569   9.901  24.728   7.064
 4070POPC   C4B52570   9.839  24.725   7.364
 4071POPC   NC352571  31.505  35.324   5.564
 4071POPC   PO452572  31.514  35.360   5.864
 4071POPC   GL152573  31.434  35.365   6.164
 4071POPC   GL252574  31.334  35.313   6.164
 4071POPC   C1A52575  31.458  35.311   6.464
 4071POPC   D2A52576  31.472  35.369   6.764
 4071POPC   C3A52577  31.493  35.310   7.064
 4071POPC   C4A52578  31.500  35.328   7.364
 4071POPC   C1B52579  31.245  35.259   6.464
 4071POPC   C2B52580  31.192  35.241   6.764
 4071POPC   C3B52581  31.265  35.244   7.064
 4071POPC   C4B52582  31.232  35.281   7.364
 4072POPC   NC352583  39.273  28.334   5.564
 4072POPC   PO452584  39.217  28.331   5.864
 4072POPC   GL152585  39.251  28.344   6.164
 4072POPC   GL252586  39.299  28.520   6.164
 4072POPC   C1A52587  39.281  28.378   6.464
 4072POPC   D2A52588  39.269  28.392   6.764
 4072POPC   C3A52589  39.215  28.397   7.064
 4072POPC   C4A52590  39.239  28.386   7.364
 4072POPC   C1B52591  39.279  28.583   6.464
 4072POPC   C2B52592  39.294  28.602   6.764
 4072POPC   C3B52593  39.257  28.567   7.064
 4072POPC   C4B52594  39.279  28.636   7.364
 4073POPC   NC352595  14.367   5.101   5.564
 4073POPC   PO452596  14.381   5.109   5.864
 4073POPC   GL152597  14.416   5.116   6.164
 4073POPC   GL252598  14.284   5.066   6.164
 4073POPC   C1A52599  14.397   5.082   6.464
 4073POPC   D2A52600  14.359   5.074   6.764
 4073POPC   C3A52601  14.400   5.104   7.064
 4073POPC   C4A52602  14.446   5.113   7.364
 4073POPC   C1B52603  14.149   5.039   6.464
 4073POPC   C2B52604  14.153   5.042   6.764
 4073POPC   C3B52605  14.126   5.055   7.064
 4073POPC   C4B52606  14.186   5.031   7.364
 4074POPC   NC352607  43.115   5.103   5.564
 4074POPC   PO452608  43.098   5.056   5.864
 4074POPC   GL152609  43.115   5.062   6.164
 4074POPC   GL252610  43.020   5.076   6.164
 4074POPC   C1A52611  43.147   5.103   6.464
 4074POPC   D2A52612  43.131   5.137   6.764
 4074POPC   C3A52613  43.099   5.119   7.064
 4074POPC   C4A52614  43.080   5.107   7.364
 4074POPC   C1B52615  42.864   4.999   6.464
 4074POPC   C2B52616  42.847   5.020   6.764
 4074POPC   C3B52617  42.835   4.963   7.064
 4074POPC   C4B52618  42.848   5.000   7.364
 4075POPC   NC352619  30.746  18.266   5.564
 4075POPC   PO452620  30.723  18.271   5.864
 4075POPC   GL152621  30.681  18.242   6.164
 4075POPC   GL252622  30.642  18.405   6.164
 4075POPC   C1A52623  30.668  18.332   6.464
 4075POPC   D2A52624  30.707  18.255   6.764
 4075POPC   C3A52625  30.744  18.276   7.064
 4075POPC   C4A52626  30.659  18.250   7.364
 4075POPC   C1B52627  30.588  18.484   6.464
 4075POPC   C2B52628  30.601  18.564   6.764
 4075POPC   C3B52629  30.590  18.525   7.064
 4075POPC   C4B52630  30.588  18.518   7.364
 4076POPC   NC352631  29.189   5.138   5.564
 4076POPC   PO452632  29.129   5.116   5.864
 4076POPC   GL152633  29.166   5.089   6.164
 4076POPC   GL252634  29.166   4.965   6.164
 4076POPC   C1A52635  29.162   5.055   6.464
 4076POPC   D2A52636  29.171   5.137   6.764
 4076POPC   C3A52637  29.107   5.080   7.064
 4076POPC   C4A52638  29.174   5.101   7.364
 4076POPC   C1B52639  29.255   4.858   6.464
 4076POPC   C2B52640  29.234   4.881   6.764
 4076POPC   C3B52641  29.321   4.843   7.064
 4076POPC   C4B52642  29.274   4.835   7.364
 4077POPC   NC352643  36.102  17.462   5.564
 4077POPC   PO452644  36.153  17.464   5.864
 4077POPC   GL152645  36.098  17.511   6.164
 4077POPC   GL252646  35.967  17.515   6.164
 4077POPC   C1A52647  36.129  17.462   6.464
 4077POPC   D2A52648  36.084  17.525   6.764
 4077POPC   C3A52649  36.145  17.530   7.064
 4077POPC   C4A52650  36.104  17.544   7.364
 4077POPC   C1B52651  35.881  17.508   6.464
 4077POPC   C2B52652  35.837  17.478   6.764
 4077POPC   C3B52653  35.855  17.468   7.064
 4077POPC   C4B52654  35.888  17.546   7.364
 4078POPC   NC352655  28.376  25.235   5.564
 4078POPC   PO452656  28.346  25.225   5.864
 4078POPC   GL152657  28.335  25.254   6.164
 4078POPC   GL252658  28.280  25.171   6.164
 4078POPC   C1A52659  28.411  25.289   6.464
 4078POPC   D2A52660  28.412  25.300   6.764
 4078POPC   C3A52661  28.365  25.302   7.064
 4078POPC   C4A52662  28.413  25.245   7.364
 4078POPC   C1B52663  28.148  25.098   6.464
 4078POPC   C2B52664  28.148  25.068   6.764
 4078POPC   C3B52665  28.180  25.150   7.064
 4078POPC   C4B52666  28.157  25.122   7.364
 4079POPC   NC352667  23.698   4.352   5.564
 4079POPC   PO452668  23.750   4.346   5.864
 4079POPC   GL152669  23.735   4.328   6.164
 4079POPC   GL252670  23.615   4.214   6.164
 4079POPC   C1A52671  23.677   4.305   6.464
 4079POPC   D2A52672  23.681   4.341   6.764
 4079POPC   C3A52673  23.705   4.272   7.064
 4079POPC   C4A52674  23.672   4.270   7.364
 4079POPC   C1B52675  23.456   4.234   6.464
 4079POPC   C2B52676  23.497   4.187   6.764
 4079POPC   C3B52677  23.543   4.227   7.064
 4079POPC   C4B52678  23.493   4.199   7.364
 4080POPC   NC352679  12.120  29.891   5.564
 4080POPC   PO452680  12.062  29.937   5.864
 4080POPC   GL152681  12.052  29.873   6.164
 4080POPC   GL252682  12.075  29.822   6.164
 4080POPC   C1A52683  12.035  29.926   6.464
 4080POPC   D2A52684  12.106  29.901   6.764
 4080POPC   C3A52685  12.095  29.926   7.064
 4080POPC   C4A52686  12.102  29.904   7.364
 4080POPC   C1B52687  12.025  29.665   6.464
 4080POPC   C2B52688  11.989  29.664   6.764
 4080POPC   C3B52689  12.024  29.735   7.064
 4080POPC   C4B52690  11.993  29.717   7.364
 4081POPC   NC352691  36.128   8.946   5.564
 4081POPC   PO452692  36.112   9.006   5.864
 4081POPC   GL152693  36.120   8.983   6.164
 4081POPC   GL252694  36.212   8.854   6.164
 4081POPC   C1A52695  36.082   9.008   6.464
 4081POPC   D2A52696  36.167   8.956   6.764
 4081POPC   C3A52697  36.167   9.009   7.064
 4081POPC   C4A52698  36.123   9.000   7.364
 4081POPC   C1B52699  36.357   8.838   6.464
 4081POPC   C2B52700  36.294   8.812   6.764
 4081POPC   C3B52701  36.338   8.811   7.064
 4081POPC   C4B52702  36.298   8.816   7.364
 4082POPC   NC352703  20.613  13.584   5.564
 4082POPC   PO452704  20.564  13.626   5.864
 4082POPC   GL152705  20.609  13.627   6.164
 4082POPC   GL252706  20.474  13.622   6.164
 4082POPC   C1A52707  20.590  13.615   6.464
 4082POPC   D2A52708  20.583  13.625   6.764
 4082POPC   C3A52709  20.612  13.636   7.064
 4082POPC   C4A52710  20.583  13.670   7.364
 4082POPC   C1B52711  20.327  13.650   6.464
 4082POPC   C2B52712  20.379  13.642   6.764
 4082POPC   C3B52713  20.354  13.677   7.064
 4082POPC   C4B52714  20.353  13.682   7.364
 4083POPC   NC352715   0.483  16.768   5.564
 4083POPC   PO452716   0.414  16.776   5.864
 4083POPC   GL152717   0.437  16.697   6.164
 4083POPC   GL252718   0.591  16.655   6.164
 4083POPC   C1A52719   0.411  16.702   6.464
 4083POPC   D2A52720   0.442  16.717   6.764
 4083POPC   C3A52721   0.485  16.698   7.064
 4083POPC   C4A52722   0.398  16.709   7.364
 4083POPC   C1B52723   0.658  16.550   6.464
 4083POPC   C2B52724   0.683  16.570   6.764
 4083POPC   C3B52725   0.636  16.604   7.064
 4083POPC   C4B52726   0.605  16.626   7.364
 4084POPC   NC352727  15.194  36.116   5.564
 4084POPC   PO452728  15.148  36.152   5.864
 4084POPC   GL152729  15.149  36.138   6.164
 4084POPC   GL252730  15.115  36.139   6.164
 4084POPC   C1A52731  15.195  36.094   6.464
 4084POPC   D2A52732  15.152  36.115   6.764
 4084POPC   C3A52733  15.170  36.142   7.064
 4084POPC   C4A52734  15.204  36.158   7.364
 4084POPC   C1B52735  14.916  36.271   6.464
 4084POPC   C2B52736  14.925  36.283   6.764
 4084POPC   C3B52737  14.990  36.200   7.064
 4084POPC   C4B52738  15.009  36.227   7.364
 4085POPC   NC352739  28.404  12.870   5.564
 4085POPC   PO452740  28.330  12.824   5.864
 4085POPC   GL152741  28.340  12.877   6.164
 4085POPC   GL252742  28.265  12.972   6.164
 4085POPC   C1A52743  28.337  12.859   6.464
 4085POPC   D2A52744  28.395  12.855   6.764
 4085POPC   C3A52745  28.358  12.901   7.064
 4085POPC   C4A52746  28.325  12.901   7.364
 4085POPC   C1B52747  28.166  13.003   6.464
 4085POPC   C2B52748  28.198  12.953   6.764
 4085POPC   C3B52749  28.125  12.984   7.064
 4085POPC   C4B52750  28.176  13.004   7.364
 4086POPC   NC352751  22.944   5.850   5.564
 4086POPC   PO452752  22.892   5.874   5.864
 4086POPC   GL152753  22.905   5.822   6.164
 4086POPC   GL252754  23.104   5.871   6.164
 4086POPC   C1A52755  22.973   5.834   6.464
 4086POPC   D2A52756  22.937   5.864   6.764
 4086POPC   C3A52757  22.943   5.895   7.064
 4086POPC   C4A52758  22.894   5.833   7.364
 4086POPC   C1B52759  23.161   5.770   6.464
 4086POPC   C2B52760  23.209   5.756   6.764
 4086POPC   C3B52761  23.175   5.730   7.064
 4086POPC   C4B52762  23.157   5.741   7.364
 4087POPC   NC352763   5.135  21.360   5.564
 4087POPC   PO452764   5.103  21.373   5.864
 4087POPC   GL152765   5.062  21.366   6.164
 4087POPC   GL252766   5.181  21.352   6.164
 4087POPC   C1A52767   5.050  21.339   6.464
 4087POPC   D2A52768   5.110  21.386   6.764
 4087POPC   C3A52769   5.065  21.374   7.064
 4087POPC   C4A52770   5.093  21.346   7.364
 4087POPC   C1B52771   5.316  21.263   6.464
 4087POPC   C2B52772   5.311  21.255   6.764
 4087POPC   C3B52773   5.326  21.331   7.064
 4087POPC   C4B52774   5.329  21.249   7.364
 4088POPC   NC352775  12.083  20.563   5.564
 4088POPC   PO452776  12.027  20.603   5.864
 4088POPC   GL152777  12.112  20.634   6.164
 4088POPC   GL252778  12.094  20.452   6.164
 4088POPC   C1A52779  12.048  20.566   6.464
 4088POPC   D2A52780  12.065  20.627   6.764
 4088POPC   C3A52781  12.084  20.570   7.064
 4088POPC   C4A52782  12.090  20.598   7.364
 4088POPC   C1B52783  12.128  20.369   6.464
 4088POPC   C2B52784  12.077  20.351   6.764
 4088POPC   C3B52785  12.125  20.319   7.064
 4088POPC   C4B52786  12.125  20.315   7.364
 4089POPC   NC352787  39.959   3.515   5.564
 4089POPC   PO452788  40.008   3.558   5.864
 4089POPC   GL152789  40.023   3.579   6.164
 4089POPC   GL252790  39.873   3.438   6.164
 4089POPC   C1A52791  40.052   3.531   6.464
 4089POPC   D2A52792  40.027   3.585   6.764
 4089POPC   C3A52793  39.993   3.497   7.064
 4089POPC   C4A52794  39.998   3.499   7.364
 4089POPC   C1B52795  39.752   3.408   6.464
 4089POPC   C2B52796  39.773   3.437   6.764
 4089POPC   C3B52797  39.768   3.386   7.064
 4089POPC   C4B52798  39.754   3.396   7.364
 4090POPC   NC352799  37.719  20.570   5.564
 4090POPC   PO452800  37.648  20.596   5.864
 4090POPC   GL152801  37.676  20.594   6.164
 4090POPC   GL252802  37.752  20.711   6.164
 4090POPC   C1A52803  37.709  20.623   6.464
 4090POPC   D2A52804  37.693  20.611   6.764
 4090POPC   C3A52805  37.650  20.576   7.064
 4090POPC   C4A52806  37.631  20.618   7.364
 4090POPC   C1B52807  37.780  20.849   6.464
 4090POPC   C2B52808  37.754  20.843   6.764
 4090POPC   C3B52809  37.788  20.820   7.064
 4090POPC   C4B52810  37.822  20.884   7.364
 4091POPC   NC352811  19.808  16.744   5.564
 4091POPC   PO452812  19.870  16.733   5.864
 4091POPC   GL152813  19.845  16.770   6.164
 4091POPC   GL252814  19.750  16.840   6.164
 4091POPC   C1A52815  19.822  16.683   6.464
 4091POPC   D2A52816  19.871  16.771   6.764
 4091POPC   C3A52817  19.860  16.723   7.064
 4091POPC   C4A52818  19.814  16.768   7.364
 4091POPC   C1B52819  19.655  16.892   6.464
 4091POPC   C2B52820  19.653  16.916   6.764
 4091POPC   C3B52821  19.685  16.939   7.064
 4091POPC   C4B52822  19.692  16.851   7.364
 4092POPC   NC352823  10.499   1.244   5.564
 4092POPC   PO452824  10.503   1.185   5.864
 4092POPC   GL152825  10.568   1.224   6.164
 4092POPC   GL252826  10.407   1.288   6.164
 4092POPC   C1A52827  10.483   1.191   6.464
 4092POPC   D2A52828  10.559   1.232   6.764
 4092POPC   C3A52829  10.527   1.245   7.064
 4092POPC   C4A52830  10.494   1.197   7.364
 4092POPC   C1B52831  10.298   1.399   6.464
 4092POPC   C2B52832  10.318   1.381   6.764
 4092POPC   C3B52833  10.368   1.334   7.064
 4092POPC   C4B52834  10.333   1.361   7.364
 4093POPC   NC352835   1.166  29.190   5.564
 4093POPC   PO452836   1.198  29.129   5.864
 4093POPC   GL152837   1.188  29.119   6.164
 4093POPC   GL252838   1.054  29.125   6.164
 4093POPC   C1A52839   1.236  29.166   6.464
 4093POPC   D2A52840   1.186  29.133   6.764
 4093POPC   C3A52841   1.230  29.126   7.064
 4093POPC   C4A52842   1.197  29.152   7.364
 4093POPC   C1B52843   0.982  29.137   6.464
 4093POPC   C2B52844   0.919  29.173   6.764
 4093POPC   C3B52845   1.009  29.166   7.064
 4093POPC   C4B52846   0.931  29.152   7.364
 4094POPC   NC352847  42.349  36.090   5.564
 4094POPC   PO452848  42.359  36.150   5.864
 4094POPC   GL152849  42.372  36.086   6.164
 4094POPC   GL252850  42.338  35.977   6.164
 4094POPC   C1A52851  42.321  36.176   6.464
 4094POPC   D2A52852  42.327  36.092   6.764
 4094POPC   C3A52853  42.339  36.128   7.064
 4094POPC   C4A52854  42.359  36.139   7.364
 4094POPC   C1B52855  42.249  35.932   6.464
 4094POPC   C2B52856  42.219  35.872   6.764
 4094POPC   C3B52857  42.244  35.882   7.064
 4094POPC   C4B52858  42.207  35.943   7.364
 4095POPC   NC352859  40.006   8.199   5.564
 4095POPC   PO452860  40.015   8.241   5.864
 4095POPC   GL152861  39.965   8.241   6.164
 4095POPC   GL252862  40.080   8.058   6.164
 4095POPC   C1A52863  40.034   8.183   6.464
 4095POPC   D2A52864  39.970   8.182   6.764
 4095POPC   C3A52865  39.979   8.213   7.064
 4095POPC   C4A52866  40.014   8.163   7.364
 4095POPC   C1B52867  40.121   7.961   6.464
 4095POPC   C2B52868  40.161   8.008   6.764
 4095POPC   C3B52869  40.102   8.005   7.064
 4095POPC   C4B52870  40.114   7.999   7.364
 4096POPC   NC352871  29.947  24.514   5.564
 4096POPC   PO452872  29.956  24.479   5.864
 4096POPC   GL152873  29.905  24.480   6.164
 4096POPC   GL252874  29.834  24.616   6.164
 4096POPC   C1A52875  29.956  24.501   6.464
 4096POPC   D2A52876  29.927  24.481   6.764
 4096POPC   C3A52877  29.934  24.502   7.064
 4096POPC   C4A52878  29.945  24.492   7.364
 4096POPC   C1B52879  29.709  24.646   6.464
 4096POPC   C2B52880  29.708  24.603   6.764
 4096POPC   C3B52881  29.731  24.673   7.064
 4096POPC   C4B52882  29.711  24.678   7.364
 4097POPC   NC352883  24.475  39.985   5.564
 4097POPC   PO452884  24.525  40.039   5.864
 4097POPC   GL152885  24.487  39.985   6.164
 4097POPC   GL252886  24.511  40.087   6.164
 4097POPC   C1A52887  24.488  40.055   6.464
 4097POPC   D2A52888  24.538  40.016   6.764
 4097POPC   C3A52889  24.504  40.051   7.064
 4097POPC   C4A52890  24.470  39.977   7.364
 4097POPC   C1B52891  24.512  40.288   6.464
 4097POPC   C2B52892  24.514  40.276   6.764
 4097POPC   C3B52893  24.581  40.224   7.064
 4097POPC   C4B52894  24.500  40.263   7.364
 4098POPC   NC352895   2.038  38.411   5.564
 4098POPC   PO452896   1.987  38.445   5.864
 4098POPC   GL152897   1.992  38.439   6.164
 4098POPC   GL252898   1.919  38.368   6.164
 4098POPC   C1A52899   1.942  38.423   6.464
 4098POPC   D2A52900   1.947  38.470   6.764
 4098POPC   C3A52901   2.022  38.452   7.064
 4098POPC   C4A52902   1.974  38.488   7.364
 4098POPC   C1B52903   1.786  38.309   6.464
 4098POPC   C2B52904   1.813  38.359   6.764
 4098POPC   C3B52905   1.810  38.336   7.064
 4098POPC   C4B52906   1.828  38.337   7.364
 4099POPC   NC352907   1.209  30.740   5.564
 4099POPC   PO452908   1.171  30.671   5.864
 4099POPC   GL152909   1.224  30.716   6.164
 4099POPC   GL252910   1.370  30.672   6.164
 4099POPC   C1A52911   1.240  30.650   6.464
 4099POPC   D2A52912   1.229  30.658   6.764
 4099POPC   C3A52913   1.221  30.664   7.064
 4099POPC   C4A52914   1.255  30.662   7.364
 4099POPC   C1B52915   1.440  30.555   6.464
 4099POPC   C2B52916   1.439  30.598   6.764
 4099POPC   C3B52917   1.432  30.614   7.064
 4099POPC   C4B52918   1.486  30.600   7.364
 4100POPC   NC352919  26.852  43.140   5.564
 4100POPC   PO452920  26.812  43.083   5.864
 4100POPC   GL152921  26.795  43.100   6.164
 4100POPC   GL252922  26.957  43.105   6.164
 4100POPC   C1A52923  26.865  43.149   6.464
 4100POPC   D2A52924  26.835  43.108   6.764
 4100POPC   C3A52925  26.772  43.084   7.064
 4100POPC   C4A52926  26.840  43.085   7.364
 4100POPC   C1B52927  27.060  43.135   6.464
 4100POPC   C2B52928  27.044  43.191   6.764
 4100POPC   C3B52929  27.054  43.120   7.064
 4100POPC   C4B52930  27.087  43.173   7.364
 4101POPC   NC352931  24.476   5.883   5.564
 4101POPC   PO452932  24.514   5.900   5.864
 4101POPC   GL152933  24.514   5.839   6.164
 4101POPC   GL252934  24.491   5.702   6.164
 4101POPC   C1A52935  24.538   5.917   6.464
 4101POPC   D2A52936  24.481   5.849   6.764
 4101POPC   C3A52937  24.458   5.866   7.064
 4101POPC   C4A52938  24.515   5.890   7.364
 4101POPC   C1B52939  24.455   5.590   6.464
 4101POPC   C2B52940  24.459   5.621   6.764
 4101POPC   C3B52941  24.462   5.648   7.064
 4101POPC   C4B52942  24.457   5.650   7.364
 4102POPC   NC352943  40.801  38.412   5.564
 4102POPC   PO452944  40.824  38.443   5.864
 4102POPC   GL152945  40.800  38.469   6.164
 4102POPC   GL252946  40.825  38.401   6.164
 4102POPC   C1A52947  40.823  38.458   6.464
 4102POPC   D2A52948  40.752  38.449   6.764
 4102POPC   C3A52949  40.776  38.473   7.064
 4102POPC   C4A52950  40.744  38.466   7.364
 4102POPC   C1B52951  40.919  38.287   6.464
 4102POPC   C2B52952  40.882  38.297   6.764
 4102POPC   C3B52953  40.952  38.215   7.064
 4102POPC   C4B52954  40.960  38.262   7.364
 4103POPC   NC352955  33.073  32.254   5.564
 4103POPC   PO452956  33.046  32.227   5.864
 4103POPC   GL152957  33.020  32.288   6.164
 4103POPC   GL252958  32.981  32.139   6.164
 4103POPC   C1A52959  32.982  32.203   6.464
 4103POPC   D2A52960  33.012  32.249   6.764
 4103POPC   C3A52961  32.981  32.290   7.064
 4103POPC   C4A52962  32.975  32.272   7.364
 4103POPC   C1B52963  32.845  32.062   6.464
 4103POPC   C2B52964  32.877  32.042   6.764
 4103POPC   C3B52965  32.831  32.083   7.064
 4103POPC   C4B52966  32.877  32.100   7.364
 4104POPC   NC352967  43.128   0.432   5.564
 4104POPC   PO452968  43.152   0.472   5.864
 4104POPC   GL152969  43.065   0.447   6.164
 4104POPC   GL252970  43.180   0.542   6.164
 4104POPC   C1A52971  43.097   0.462   6.464
 4104POPC   D2A52972  43.130   0.452   6.764
 4104POPC   C3A52973  43.121   0.478   7.064
 4104POPC   C4A52974  43.109   0.482   7.364
 4104POPC   C1B52975  43.316   0.644   6.464
 4104POPC   C2B52976  43.247   0.621   6.764
 4104POPC   C3B52977  43.305   0.600   7.064
 4104POPC   C4B52978  43.306   0.671   7.364
 4105POPC   NC352979  35.314  24.523   5.564
 4105POPC   PO452980  35.377  24.446   5.864
 4105POPC   GL152981  35.358  24.515   6.164
 4105POPC   GL252982  35.203  24.383   6.164
 4105POPC   C1A52983  35.337  24.468   6.464
 4105POPC   D2A52984  35.382  24.491   6.764
 4105POPC   C3A52985  35.388  24.500   7.064
 4105POPC   C4A52986  35.355  24.509   7.364
 4105POPC   C1B52987  35.146  24.311   6.464
 4105POPC   C2B52988  35.113  24.331   6.764
 4105POPC   C3B52989  35.177  24.312   7.064
 4105POPC   C4B52990  35.195  24.339   7.364
 4106POPC   NC352991  42.320  26.052   5.564
 4106POPC   PO452992  42.293  26.088   5.864
 4106POPC   GL152993  42.341  26.044   6.164
 4106POPC   GL252994  42.213  26.040   6.164
 4106POPC   C1A52995  42.312  25.999   6.464
 4106POPC   D2A52996  42.324  26.090   6.764
 4106POPC   C3A52997  42.348  26.012   7.064
 4106POPC   C4A52998  42.303  26.070   7.364
 4106POPC   C1B52999  42.127  26.127   6.464
 4106POPC   C2B53000  42.043  26.140   6.764
 4106POPC   C3B53001  42.043  26.111   7.064
 4106POPC   C4B53002  42.046  26.136   7.364
 4107POPC   NC353003  31.479  21.420   5.564
 4107POPC   PO453004  31.440  21.423   5.864
 4107POPC   GL153005  31.494  21.405   6.164
 4107POPC   GL253006  31.606  21.367   6.164
 4107POPC   C1A53007  31.452  21.394   6.464
 4107POPC   D2A53008  31.458  21.351   6.764
 4107POPC   C3A53009  31.514  21.360   7.064
 4107POPC   C4A53010  31.449  21.393   7.364
 4107POPC   C1B53011  31.721  21.290   6.464
 4107POPC   C2B53012  31.690  21.326   6.764
 4107POPC   C3B53013  31.675  21.287   7.064
 4107POPC   C4B53014  31.737  21.305   7.364
 4108POPC   NC353015   9.787  15.214   5.564
 4108POPC   PO453016   9.705  15.207   5.864
 4108POPC   GL153017   9.743  15.169   6.164
 4108POPC   GL253018   9.789  15.039   6.164
 4108POPC   C1A53019   9.786  15.181   6.464
 4108POPC   D2A53020   9.750  15.136   6.764
 4108POPC   C3A53021   9.771  15.177   7.064
 4108POPC   C4A53022   9.712  15.198   7.364
 4108POPC   C1B53023   9.709  14.907   6.464
 4108POPC   C2B53024   9.794  14.961   6.764
 4108POPC   C3B53025   9.794  14.970   7.064
 4108POPC   C4B53026   9.734  14.965   7.364
 4109POPC   NC353027  42.301  23.696   5.564
 4109POPC   PO453028  42.349  23.728   5.864
 4109POPC   GL153029  42.288  23.720   6.164
 4109POPC   GL253030  42.349  23.589   6.164
 4109POPC   C1A53031  42.321  23.729   6.464
 4109POPC   D2A53032  42.320  23.682   6.764
 4109POPC   C3A53033  42.340  23.749   7.064
 4109POPC   C4A53034  42.361  23.718   7.364
 4109POPC   C1B53035  42.322  23.489   6.464
 4109POPC   C2B53036  42.390  23.435   6.764
 4109POPC   C3B53037  42.330  23.418   7.064
 4109POPC   C4B53038  42.345  23.459   7.364
 4110POPC   NC353039   0.463  24.502   5.564
 4110POPC   PO453040   0.423  24.470   5.864
 4110POPC   GL153041   0.429  24.519   6.164
 4110POPC   GL253042   0.454  24.371   6.164
 4110POPC   C1A53043   0.398  24.450   6.464
 4110POPC   D2A53044   0.415  24.500   6.764
 4110POPC   C3A53045   0.451  24.500   7.064
 4110POPC   C4A53046   0.479  24.451   7.364
 4110POPC   C1B53047   0.463  24.291   6.464
 4110POPC   C2B53048   0.494  24.234   6.764
 4110POPC   C3B53049   0.489  24.275   7.064
 4110POPC   C4B53050   0.475  24.247   7.364
 4111POPC   NC353051  31.488  42.296   5.564
 4111POPC   PO453052  31.446  42.346   5.864
 4111POPC   GL153053  31.476  42.349   6.164
 4111POPC   GL253054  31.330  42.288   6.164
 4111POPC   C1A53055  31.428  42.383   6.464
 4111POPC   D2A53056  31.438  42.324   6.764
 4111POPC   C3A53057  31.517  42.305   7.064
 4111POPC   C4A53058  31.450  42.343   7.364
 4111POPC   C1B53059  31.243  42.236   6.464
 4111POPC   C2B53060  31.290  42.153   6.764
 4111POPC   C3B53061  31.301  42.198   7.064
 4111POPC   C4B53062  31.307  42.192   7.364
 4112POPC   NC353063   5.906   5.122   5.564
 4112POPC   PO453064   5.878   5.124   5.864
 4112POPC   GL153065   5.909   5.140   6.164
 4112POPC   GL253066   5.962   5.155   6.164
 4112POPC   C1A53067   5.867   5.143   6.464
 4112POPC   D2A53068   5.829   5.115   6.764
 4112POPC   C3A53069   5.896   5.064   7.064
 4112POPC   C4A53070   5.843   5.050   7.364
 4112POPC   C1B53071   6.137   5.147   6.464
 4112POPC   C2B53072   6.105   5.230   6.764
 4112POPC   C3B53073   6.137   5.202   7.064
 4112POPC   C4B53074   6.055   5.199   7.364
 4113POPC   NC353075   4.290   5.897   5.564
 4113POPC   PO453076   4.290   5.914   5.864
 4113POPC   GL153077   4.338   5.820   6.164
 4113POPC   GL253078   4.454   5.946   6.164
 4113POPC   C1A53079   4.364   5.917   6.464
 4113POPC   D2A53080   4.354   5.825   6.764
 4113POPC   C3A53081   4.276   5.895   7.064
 4113POPC   C4A53082   4.349   5.826   7.364
 4113POPC   C1B53083   4.535   5.963   6.464
 4113POPC   C2B53084   4.601   5.929   6.764
 4113POPC   C3B53085   4.577   5.941   7.064
 4113POPC   C4B53086   4.586   5.883   7.364
 4114POPC   NC353087  16.729  19.086   5.564
 4114POPC   PO453088  16.703  19.082   5.864
 4114POPC   GL153089  16.734  19.067   6.164
 4114POPC   GL253090  16.705  19.161   6.164
 4114POPC   C1A53091  16.709  19.060   6.464
 4114POPC   D2A53092  16.714  19.081   6.764
 4114POPC   C3A53093  16.692  19.011   7.064
 4114POPC   C4A53094  16.696  19.097   7.364
 4114POPC   C1B53095  16.731  19.315   6.464
 4114POPC   C2B53096  16.710  19.316   6.764
 4114POPC   C3B53097  16.758  19.271   7.064
 4114POPC   C4B53098  16.787  19.343   7.364
 4115POPC   NC353099   4.342  28.364   5.564
 4115POPC   PO453100   4.314  28.328   5.864
 4115POPC   GL153101   4.359  28.326   6.164
 4115POPC   GL253102   4.362  28.262   6.164
 4115POPC   C1A53103   4.326  28.344   6.464
 4115POPC   D2A53104   4.301  28.333   6.764
 4115POPC   C3A53105   4.301  28.378   7.064
 4115POPC   C4A53106   4.284  28.382   7.364
 4115POPC   C1B53107   4.429  28.136   6.464
 4115POPC   C2B53108   4.459  28.142   6.764
 4115POPC   C3B53109   4.414  28.188   7.064
 4115POPC   C4B53110   4.386  28.134   7.364
 4116POPC   NC353111  14.409  42.289   5.564
 4116POPC   PO453112  14.372  42.336   5.864
 4116POPC   GL153113  14.436  42.298   6.164
 4116POPC   GL253114  14.288  42.321   6.164
 4116POPC   C1A53115  14.444  42.324   6.464
 4116POPC   D2A53116  14.384  42.369   6.764
 4116POPC   C3A53117  14.386  42.285   7.064
 4116POPC   C4A53118  14.412  42.355   7.364
 4116POPC   C1B53119  14.183  42.259   6.464
 4116POPC   C2B53120  14.215  42.213   6.764
 4116POPC   C3B53121  14.224  42.208   7.064
 4116POPC   C4B53122  14.150  42.255   7.364
 4117POPC   NC353123   1.257  23.707   5.564
 4117POPC   PO453124   1.232  23.723   5.864
 4117POPC   GL153125   1.221  23.726   6.164
 4117POPC   GL253126   1.065  23.718   6.164
 4117POPC   C1A53127   1.193  23.697   6.464
 4117POPC   D2A53128   1.261  23.763   6.764
 4117POPC   C3A53129   1.185  23.681   7.064
 4117POPC   C4A53130   1.182  23.727   7.364
 4117POPC   C1B53131   0.934  23.826   6.464
 4117POPC   C2B53132   0.962  23.795   6.764
 4117POPC   C3B53133   1.006  23.812   7.064
 4117POPC   C4B53134   1.021  23.778   7.364
 4118POPC   NC353135  21.361  35.322   5.564
 4118POPC   PO453136  21.375  35.366   5.864
 4118POPC   GL153137  21.345  35.353   6.164
 4118POPC   GL253138  21.465  35.411   6.164
 4118POPC   C1A53139  21.381  35.383   6.464
 4118POPC   D2A53140  21.367  35.322   6.764
 4118POPC   C3A53141  21.364  35.361   7.064
 4118POPC   C4A53142  21.346  35.321   7.364
 4118POPC   C1B53143  21.617  35.458   6.464
 4118POPC   C2B53144  21.584  35.453   6.764
 4118POPC   C3B53145  21.604  35.491   7.064
 4118POPC   C4B53146  21.645  35.495   7.364
 4119POPC   NC353147   5.056  31.498   5.564
 4119POPC   PO453148   5.142  31.456   5.864
 4119POPC   GL153149   5.056  31.429   6.164
 4119POPC   GL253150   5.094  31.623   6.164
 4119POPC   C1A53151   5.125  31.451   6.464
 4119POPC   D2A53152   5.049  31.476   6.764
 4119POPC   C3A53153   5.072  31.453   7.064
 4119POPC   C4A53154   5.099  31.424   7.364
 4119POPC   C1B53155   5.215  31.665   6.464
 4119POPC   C2B53156   5.146  31.664   6.764
 4119POPC   C3B53157   5.141  31.756   7.064
 4119POPC   C4B53158   5.218  31.744   7.364
 4120POPC   NC353159  33.800   8.175   5.564
 4120POPC   PO453160  33.828   8.196   5.864
 4120POPC   GL153161  33.811   8.172   6.164
 4120POPC   GL253162  33.707   8.257   6.164
 4120POPC   C1A53163  33.758   8.160   6.464
 4120POPC   D2A53164  33.804   8.234   6.764
 4120POPC   C3A53165  33.797   8.186   7.064
 4120POPC   C4A53166  33.781   8.164   7.364
 4120POPC   C1B53167  33.547   8.265   6.464
 4120POPC   C2B53168  33.603   8.304   6.764
 4120POPC   C3B53169  33.595   8.256   7.064
 4120POPC   C4B53170  33.612   8.348   7.364
 4121POPC   NC353171   2.004  22.177   5.564
 4121POPC   PO453172   1.946  22.114   5.864
 4121POPC   GL153173   2.035  22.186   6.164
 4121POPC   GL253174   1.982  22.245   6.164
 4121POPC   C1A53175   1.960  22.178   6.464
 4121POPC   D2A53176   2.037  22.182   6.764
 4121POPC   C3A53177   2.025  22.179   7.064
 4121POPC   C4A53178   2.007  22.176   7.364
 4121POPC   C1B53179   1.974  22.374   6.464
 4121POPC   C2B53180   1.996  22.422   6.764
 4121POPC   C3B53181   2.039  22.388   7.064
 4121POPC   C4B53182   1.951  22.377   7.364
 4122POPC   NC353183  31.517  13.629   5.564
 4122POPC   PO453184  31.514  13.671   5.864
 4122POPC   GL153185  31.440  13.663   6.164
 4122POPC   GL253186  31.574  13.712   6.164
 4122POPC   C1A53187  31.436  13.617   6.464
 4122POPC   D2A53188  31.470  13.619   6.764
 4122POPC   C3A53189  31.441  13.605   7.064
 4122POPC   C4A53190  31.465  13.618   7.364
 4122POPC   C1B53191  31.673  13.700   6.464
 4122POPC   C2B53192  31.676  13.696   6.764
 4122POPC   C3B53193  31.697  13.768   7.064
 4122POPC   C4B53194  31.721  13.775   7.364
 4123POPC   NC353195  43.905  23.718   5.564
 4123POPC   PO453196  43.844  23.703   5.864
 4123POPC   GL153197  43.893  23.740   6.164
 4123POPC   GL253198  43.910  23.606   6.164
 4123POPC   C1A53199  43.925  23.718   6.464
 4123POPC   D2A53200  43.893  23.667   6.764
 4123POPC   C3A53201  43.933  23.763   7.064
 4123POPC   C4A53202  43.922  23.710   7.364
 4123POPC   C1B53203  43.827  23.438   6.464
 4123POPC   C2B53204  43.815  23.447   6.764
 4123POPC   C3B53205  43.826  23.502   7.064
 4123POPC   C4B53206  43.807  23.509   7.364
 4124POPC   NC353207  37.713  41.545   5.564
 4124POPC   PO453208  37.706  41.569   5.864
 4124POPC   GL153209  37.660  41.557   6.164
 4124POPC   GL253210  37.629  41.640   6.164
 4124POPC   C1A53211  37.664  41.532   6.464
 4124POPC   D2A53212  37.689  41.608   6.764
 4124POPC   C3A53213  37.686  41.554   7.064
 4124POPC   C4A53214  37.681  41.580   7.364
 4124POPC   C1B53215  37.525  41.817   6.464
 4124POPC   C2B53216  37.595  41.821   6.764
 4124POPC   C3B53217  37.548  41.799   7.064
 4124POPC   C4B53218  37.522  41.788   7.364
 4125POPC   NC353219   2.019  40.743   5.564
 4125POPC   PO453220   1.989  40.743   5.864
 4125POPC   GL153221   1.967  40.824   6.164
 4125POPC   GL253222   1.899  40.847   6.164
 4125POPC   C1A53223   1.982  40.749   6.464
 4125POPC   D2A53224   2.033  40.753   6.764
 4125POPC   C3A53225   1.984  40.766   7.064
 4125POPC   C4A53226   1.992  40.742   7.364
 4125POPC   C1B53227   1.793  40.869   6.464
 4125POPC   C2B53228   1.741  40.803   6.764
 4125POPC   C3B53229   1.733  40.818   7.064
 4125POPC   C4B53230   1.776  40.866   7.364
 4126POPC   NC353231  25.240  12.863   5.564
 4126POPC   PO453232  25.231  12.822   5.864
 4126POPC   GL153233  25.258  12.814   6.164
 4126POPC   GL253234  25.184  12.852   6.164
 4126POPC   C1A53235  25.294  12.859   6.464
 4126POPC   D2A53236  25.222  12.806   6.764
 4126POPC   C3A53237  25.286  12.837   7.064
 4126POPC   C4A53238  25.307  12.864   7.364
 4126POPC   C1B53239  25.006  12.749   6.464
 4126POPC   C2B53240  25.021  12.788   6.764
 4126POPC   C3B53241  25.009  12.797   7.064
 4126POPC   C4B53242  25.042  12.773   7.364
 4127POPC   NC353243   5.852   4.364   5.564
 4127POPC   PO453244   5.850   4.305   5.864
 4127POPC   GL153245   5.880   4.332   6.164
 4127POPC   GL253246   5.764   4.276   6.164
 4127POPC   C1A53247   5.908   4.306   6.464
 4127POPC   D2A53248   5.868   4.270   6.764
 4127POPC   C3A53249   5.866   4.276   7.064
 4127POPC   C4A53250   5.900   4.348   7.364
 4127POPC   C1B53251   5.676   4.171   6.464
 4127POPC   C2B53252   5.629   4.178   6.764
 4127POPC   C3B53253   5.634   4.220   7.064
 4127POPC   C4B53254   5.638   4.216   7.364
 4128POPC   NC353255  27.600  13.625   5.564
 4128POPC   PO453256  27.557  13.606   5.864
 4128POPC   GL153257  27.572  13.619   6.164
 4128POPC   GL253258  27.504  13.491   6.164
 4128POPC   C1A53259  27.575  13.599   6.464
 4128POPC   D2A53260  27.588  13.631   6.764
 4128POPC   C3A53261  27.629  13.650   7.064
 4128POPC   C4A53262  27.581  13.656   7.364
 4128POPC   C1B53263  27.475  13.468   6.464
 4128POPC   C2B53264  27.435  13.450   6.764
 4128POPC   C3B53265  27.449  13.373   7.064
 4128POPC   C4B53266  27.500  13.374   7.364
 4129POPC   NC353267  36.938  34.613   5.564
 4129POPC   PO453268  36.883  34.566   5.864
 4129POPC   GL153269  36.930  34.581   6.164
 4129POPC   GL253270  37.045  34.651   6.164
 4129POPC   C1A53271  36.949  34.545   6.464
 4129POPC   D2A53272  36.860  34.607   6.764
 4129POPC   C3A53273  36.921  34.527   7.064
 4129POPC   C4A53274  36.886  34.606   7.364
 4129POPC   C1B53275  37.161  34.620   6.464
 4129POPC   C2B53276  37.175  34.639   6.764
 4129POPC   C3B53277  37.150  34.652   7.064
 4129POPC   C4B53278  37.122  34.654   7.364
 4130POPC   NC353279  20.648  44.679   5.564
 4130POPC   PO453280  20.576  44.709   5.864
 4130POPC   GL153281  20.625  44.699   6.164
 4130POPC   GL253282  20.615  44.791   6.164
 4130POPC   C1A53283  20.655  44.636   6.464
 4130POPC   D2A53284  20.612  44.636   6.764
 4130POPC   C3A53285  20.598  44.669   7.064
 4130POPC   C4A53286  20.652  44.699   7.364
 4130POPC   C1B53287  20.573  44.957   6.464
 4130POPC   C2B53288  20.534  44.864   6.764
 4130POPC   C3B53289  20.598  44.951   7.064
 4130POPC   C4B53290  20.572  44.942   7.364
 4131POPC   NC353291  26.073  16.750   5.564
 4131POPC   PO453292  26.046  16.770   5.864
 4131POPC   GL153293  25.994  16.737   6.164
 4131POPC   GL253294  26.188  16.751   6.164
 4131POPC   C1A53295  26.027  16.687   6.464
 4131POPC   D2A53296  26.027  16.754   6.764
 4131POPC   C3A53297  26.059  16.760   7.064
 4131POPC   C4A53298  26.000  16.728   7.364
 4131POPC   C1B53299  26.311  16.757   6.464
 4131POPC   C2B53300  26.323  16.809   6.764
 4131POPC   C3B53301  26.301  16.834   7.064
 4131POPC   C4B53302  26.277  16.794   7.364
 4132POPC   NC353303   9.718  41.510   5.564
 4132POPC   PO453304   9.703  41.553   5.864
 4132POPC   GL153305   9.730  41.509   6.164
 4132POPC   GL253306   9.619  41.522   6.164
 4132POPC   C1A53307   9.770  41.566   6.464
 4132POPC   D2A53308   9.793  41.554   6.764
 4132POPC   C3A53309   9.763  41.552   7.064
 4132POPC   C4A53310   9.793  41.603   7.364
 4132POPC   C1B53311   9.521  41.488   6.464
 4132POPC   C2B53312   9.528  41.448   6.764
 4132POPC   C3B53313   9.522  41.496   7.064
 4132POPC   C4B53314   9.517  41.498   7.364
 4133POPC   NC353315   8.244  23.666   5.564
 4133POPC   PO453316   8.196  23.746   5.864
 4133POPC   GL153317   8.167  23.691   6.164
 4133POPC   GL253318   8.076  23.806   6.164
 4133POPC   C1A53319   8.163  23.666   6.464
 4133POPC   D2A53320   8.237  23.758   6.764
 4133POPC   C3A53321   8.192  23.704   7.064
 4133POPC   C4A53322   8.159  23.761   7.364
 4133POPC   C1B53323   8.049  23.920   6.464
 4133POPC   C2B53324   8.066  23.872   6.764
 4133POPC   C3B53325   8.045  23.946   7.064
 4133POPC   C4B53326   8.040  23.874   7.364
 4134POPC   NC353327  38.418  17.509   5.564
 4134POPC   PO453328  38.482  17.515   5.864
 4134POPC   GL153329  38.447  17.547   6.164
 4134POPC   GL253330  38.417  17.621   6.164
 4134POPC   C1A53331  38.452  17.497   6.464
 4134POPC   D2A53332  38.436  17.487   6.764
 4134POPC   C3A53333  38.496  17.480   7.064
 4134POPC   C4A53334  38.494  17.500   7.364
 4134POPC   C1B53335  38.418  17.753   6.464
 4134POPC   C2B53336  38.361  17.723   6.764
 4134POPC   C3B53337  38.405  17.717   7.064
 4134POPC   C4B53338  38.397  17.773   7.364
 4135POPC   NC353339  15.171  43.115   5.564
 4135POPC   PO453340  15.180  43.066   5.864
 4135POPC   GL153341  15.157  43.155   6.164
 4135POPC   GL253342  15.052  43.119   6.164
 4135POPC   C1A53343  15.148  43.113   6.464
 4135POPC   D2A53344  15.156  43.134   6.764
 4135POPC   C3A53345  15.150  43.159   7.064
 4135POPC   C4A53346  15.213  43.096   7.364
 4135POPC   C1B53347  14.889  43.180   6.464
 4135POPC   C2B53348  14.982  43.119   6.764
 4135POPC   C3B53349  14.918  43.131   7.064
 4135POPC   C4B53350  14.972  43.142   7.364
 4136POPC   NC353351   2.000  36.922   5.564
 4136POPC   PO453352   2.011  36.905   5.864
 4136POPC   GL153353   1.949  36.903   6.164
 4136POPC   GL253354   2.003  37.073   6.164
 4136POPC   C1A53355   1.974  36.881   6.464
 4136POPC   D2A53356   1.942  36.921   6.764
 4136POPC   C3A53357   1.940  36.870   7.064
 4136POPC   C4A53358   2.019  36.952   7.364
 4136POPC   C1B53359   1.972  37.116   6.464
 4136POPC   C2B53360   1.958  37.164   6.764
 4136POPC   C3B53361   2.004  37.149   7.064
 4136POPC   C4B53362   1.976  37.148   7.364
 4137POPC   NC353363  22.193  36.149   5.564
 4137POPC   PO453364  22.182  36.153   5.864
 4137POPC   GL153365  22.126  36.143   6.164
 4137POPC   GL253366  22.307  36.165   6.164
 4137POPC   C1A53367  22.179  36.129   6.464
 4137POPC   D2A53368  22.121  36.169   6.764
 4137POPC   C3A53369  22.170  36.081   7.064
 4137POPC   C4A53370  22.183  36.160   7.364
 4137POPC   C1B53371  22.403  36.201   6.464
 4137POPC   C2B53372  22.446  36.214   6.764
 4137POPC   C3B53373  22.418  36.125   7.064
 4137POPC   C4B53374  22.412  36.199   7.364
 4138POPC   NC353375  32.218  21.392   5.564
 4138POPC   PO453376  32.261  21.390   5.864
 4138POPC   GL153377  32.285  21.430   6.164
 4138POPC   GL253378  32.405  21.360   6.164
 4138POPC   C1A53379  32.246  21.367   6.464
 4138POPC   D2A53380  32.231  21.359   6.764
 4138POPC   C3A53381  32.213  21.423   7.064
 4138POPC   C4A53382  32.215  21.381   7.364
 4138POPC   C1B53383  32.542  21.358   6.464
 4138POPC   C2B53384  32.541  21.371   6.764
 4138POPC   C3B53385  32.476  21.376   7.064
 4138POPC   C4B53386  32.539  21.344   7.364
 4139POPC   NC353387  34.545   5.830   5.564
 4139POPC   PO453388  34.611   5.902   5.864
 4139POPC   GL153389  34.543   5.919   6.164
 4139POPC   GL253390  34.575   5.752   6.164
 4139POPC   C1A53391  34.560   5.919   6.464
 4139POPC   D2A53392  34.557   5.863   6.764
 4139POPC   C3A53393  34.588   5.909   7.064
 4139POPC   C4A53394  34.604   5.916   7.364
 4139POPC   C1B53395  34.451   5.656   6.464
 4139POPC   C2B53396  34.523   5.674   6.764
 4139POPC   C3B53397  34.445   5.607   7.064
 4139POPC   C4B53398  34.541   5.649   7.364
 4140POPC   NC353399  35.401   6.609   5.564
 4140POPC   PO453400  35.315   6.669   5.864
 4140POPC   GL153401  35.323   6.620   6.164
 4140POPC   GL253402  35.205   6.537   6.164
 4140POPC   C1A53403  35.394   6.615   6.464
 4140POPC   D2A53404  35.356   6.692   6.764
 4140POPC   C3A53405  35.371   6.618   7.064
 4140POPC   C4A53406  35.398   6.645   7.364
 4140POPC   C1B53407  35.122   6.528   6.464
 4140POPC   C2B53408  35.190   6.476   6.764
 4140POPC   C3B53409  35.124   6.515   7.064
 4140POPC   C4B53410  35.179   6.471   7.364
 4141POPC   NC353411  38.469  29.959   5.564
 4141POPC   PO453412  38.491  29.931   5.864
 4141POPC   GL153413  38.467  29.921   6.164
 4141POPC   GL253414  38.433  30.022   6.164
 4141POPC   C1A53415  38.453  29.873   6.464
 4141POPC   D2A53416  38.448  29.942   6.764
 4141POPC   C3A53417  38.459  29.970   7.064
 4141POPC   C4A53418  38.451  29.940   7.364
 4141POPC   C1B53419  38.487  30.211   6.464
 4141POPC   C2B53420  38.485  30.128   6.764
 4141POPC   C3B53421  38.460  30.121   7.064
 4141POPC   C4B53422  38.476  30.161   7.364
 4142POPC   NC353423   8.981   6.694   5.564
 4142POPC   PO453424   8.953   6.674   5.864
 4142POPC   GL153425   8.942   6.665   6.164
 4142POPC   GL253426   9.054   6.781   6.164
 4142POPC   C1A53427   9.009   6.626   6.464
 4142POPC   D2A53428   9.014   6.631   6.764
 4142POPC   C3A53429   8.993   6.658   7.064
 4142POPC   C4A53430   9.000   6.622   7.364
 4142POPC   C1B53431   9.093   6.851   6.464
 4142POPC   C2B53432   9.186   6.807   6.764
 4142POPC   C3B53433   9.152   6.852   7.064
 4142POPC   C4B53434   9.109   6.809   7.364
 4143POPC   NC353435  29.963   5.127   5.564
 4143POPC   PO453436  29.875   5.093   5.864
 4143POPC   GL153437  29.881   5.085   6.164
 4143POPC   GL253438  29.815   5.148   6.164
 4143POPC   C1A53439  29.937   5.122   6.464
 4143POPC   D2A53440  29.882   5.069   6.764
 4143POPC   C3A53441  29.879   5.061   7.064
 4143POPC   C4A53442  29.958   5.064   7.364
 4143POPC   C1B53443  29.643   5.180   6.464
 4143POPC   C2B53444  29.696   5.189   6.764
 4143POPC   C3B53445  29.680   5.149   7.064
 4143POPC   C4B53446  29.638   5.191   7.364
 4144POPC   NC353447  36.146  22.168   5.564
 4144POPC   PO453448  36.134  22.153   5.864
 4144POPC   GL153449  36.092  22.136   6.164
 4144POPC   GL253450  36.038  22.245   6.164
 4144POPC   C1A53451  36.147  22.152   6.464
 4144POPC   D2A53452  36.110  22.136   6.764
 4144POPC   C3A53453  36.123  22.137   7.064
 4144POPC   C4A53454  36.102  22.200   7.364
 4144POPC   C1B53455  35.865  22.337   6.464
 4144POPC   C2B53456  35.922  22.264   6.764
 4144POPC   C3B53457  35.883  22.319   7.064
 4144POPC   C4B53458  35.869  22.329   7.364
 4145POPC   NC353459  30.731  12.883   5.564
 4145POPC   PO453460  30.719  12.883   5.864
 4145POPC   GL153461  30.712  12.892   6.164
 4145POPC   GL253462  30.826  12.940   6.164
 4145POPC   C1A53463  30.669  12.878   6.464
 4145POPC   D2A53464  30.663  12.805   6.764
 4145POPC   C3A53465  30.733  12.866   7.064
 4145POPC   C4A53466  30.700  12.817   7.364
 4145POPC   C1B53467  30.911  12.945   6.464
 4145POPC   C2B53468  30.885  12.993   6.764
 4145POPC   C3B53469  30.888  13.002   7.064
 4145POPC   C4B53470  30.899  12.915   7.364
 4146POPC   NC353471  35.302  16.766   5.564
 4146POPC   PO453472  35.346  16.718   5.864
 4146POPC   GL153473  35.387  16.726   6.164
 4146POPC   GL253474  35.312  16.644   6.164
 4146POPC   C1A53475  35.324  16.697   6.464
 4146POPC   D2A53476  35.396  16.700   6.764
 4146POPC   C3A53477  35.347  16.684   7.064
 4146POPC   C4A53478  35.380  16.745   7.364
 4146POPC   C1B53479  35.164  16.553   6.464
 4146POPC   C2B53480  35.166  16.498   6.764
 4146POPC   C3B53481  35.226  16.539   7.064
 4146POPC   C4B53482  35.191  16.516   7.364
 4147POPC   NC353483  30.743  26.039   5.564
 4147POPC   PO453484  30.688  26.005   5.864
 4147POPC   GL153485  30.654  26.076   6.164
 4147POPC   GL253486  30.649  26.210   6.164
 4147POPC   C1A53487  30.649  26.012   6.464
 4147POPC   D2A53488  30.708  26.032   6.764
 4147POPC   C3A53489  30.669  26.029   7.064
 4147POPC   C4A53490  30.680  26.049   7.364
 4147POPC   C1B53491  30.677  26.306   6.464
 4147POPC   C2B53492  30.684  26.247   6.764
 4147POPC   C3B53493  30.704  26.327   7.064
 4147POPC   C4B53494  30.675  26.302   7.364
 4148POPC   NC353495  25.291  36.908   5.564
 4148POPC   PO453496  25.271  36.894   5.864
 4148POPC   GL153497  25.279  36.911   6.164
 4148POPC   GL253498  25.354  36.975   6.164
 4148POPC   C1A53499  25.306  36.953   6.464
 4148POPC   D2A53500  25.288  36.868   6.764
 4148POPC   C3A53501  25.278  36.887   7.064
 4148POPC   C4A53502  25.314  36.881   7.364
 4148POPC   C1B53503  25.415  37.165   6.464
 4148POPC   C2B53504  25.364  37.086   6.764
 4148POPC   C3B53505  25.376  37.163   7.064
 4148POPC   C4B53506  25.391  37.115   7.364
 4149POPC   NC353507  25.301  35.315   5.564
 4149POPC   PO453508  25.243  35.389   5.864
 4149POPC   GL153509  25.225  35.349   6.164
 4149POPC   GL253510  25.320  35.233   6.164
 4149POPC   C1A53511  25.308  35.318   6.464
 4149POPC   D2A53512  25.301  35.337   6.764
 4149POPC   C3A53513  25.288  35.378   7.064
 4149POPC   C4A53514  25.289  35.325   7.364
 4149POPC   C1B53515  25.293  35.101   6.464
 4149POPC   C2B53516  25.324  35.055   6.764
 4149POPC   C3B53517  25.248  35.081   7.064
 4149POPC   C4B53518  25.315  35.104   7.364
 4150POPC   NC353519  39.985   9.720   5.564
 4150POPC   PO453520  39.961   9.739   5.864
 4150POPC   GL153521  39.986   9.762   6.164
 4150POPC   GL253522  39.893   9.785   6.164
 4150POPC   C1A53523  39.977   9.769   6.464
 4150POPC   D2A53524  40.004   9.719   6.764
 4150POPC   C3A53525  40.012   9.777   7.064
 4150POPC   C4A53526  39.958   9.732   7.364
 4150POPC   C1B53527  39.834   9.891   6.464
 4150POPC   C2B53528  39.837   9.887   6.764
 4150POPC   C3B53529  39.784   9.919   7.064
 4150POPC   C4B53530  39.794   9.881   7.364
 4151POPC   NC353531   1.169   5.117   5.564
 4151POPC   PO453532   1.262   5.054   5.864
 4151POPC   GL153533   1.240   5.068   6.164
 4151POPC   GL253534   1.176   4.982   6.164
 4151POPC   C1A53535   1.216   5.095   6.464
 4151POPC   D2A53536   1.175   5.143   6.764
 4151POPC   C3A53537   1.237   5.045   7.064
 4151POPC   C4A53538   1.264   5.096   7.364
 4151POPC   C1B53539   1.203   4.837   6.464
 4151POPC   C2B53540   1.220   4.884   6.764
 4151POPC   C3B53541   1.190   4.811   7.064
 4151POPC   C4B53542   1.215   4.852   7.364
 4152POPC   NC353543  18.332  15.159   5.564
 4152POPC   PO453544  18.291  15.226   5.864
 4152POPC   GL153545  18.284  15.176   6.164
 4152POPC   GL253546  18.416  15.221   6.164
 4152POPC   C1A53547  18.258  15.195   6.464
 4152POPC   D2A53548  18.238  15.210   6.764
 4152POPC   C3A53549  18.255  15.161   7.064
 4152POPC   C4A53550  18.248  15.209   7.364
 4152POPC   C1B53551  18.504  15.355   6.464
 4152POPC   C2B53552  18.460  15.262   6.764
 4152POPC   C3B53553  18.531  15.335   7.064
 4152POPC   C4B53554  18.467  15.280   7.364
 4153POPC   NC353555  42.323  26.840   5.564
 4153POPC   PO453556  42.342  26.782   5.864
 4153POPC   GL153557  42.290  26.866   6.164
 4153POPC   GL253558  42.347  26.950   6.164
 4153POPC   C1A53559  42.373  26.785   6.464
 4153POPC   D2A53560  42.361  26.808   6.764
 4153POPC   C3A53561  42.356  26.835   7.064
 4153POPC   C4A53562  42.313  26.794   7.364
 4153POPC   C1B53563  42.284  27.052   6.464
 4153POPC   C2B53564  42.281  27.074   6.764
 4153POPC   C3B53565  42.333  27.098   7.064
 4153POPC   C4B53566  42.344  27.026   7.364
 4154POPC   NC353567   8.196  32.236   5.564
 4154POPC   PO453568   8.201  32.244   5.864
 4154POPC   GL153569   8.186  32.257   6.164
 4154POPC   GL253570   8.353  32.201   6.164
 4154POPC   C1A53571   8.211  32.219   6.464
 4154POPC   D2A53572   8.202  32.292   6.764
 4154POPC   C3A53573   8.169  32.244   7.064
 4154POPC   C4A53574   8.237  32.201   7.364
 4154POPC   C1B53575   8.374  32.108   6.464
 4154POPC   C2B53576   8.436  32.082   6.764
 4154POPC   C3B53577   8.427  32.144   7.064
 4154POPC   C4B53578   8.397  32.171   7.364
 4155POPC   NC353579  17.462  19.046   5.564
 4155POPC   PO453580  17.483  19.068   5.864
 4155POPC   GL153581  17.476  19.078   6.164
 4155POPC   GL253582  17.575  19.016   6.164
 4155POPC   C1A53583  17.469  19.067   6.464
 4155POPC   D2A53584  17.466  19.044   6.764
 4155POPC   C3A53585  17.525  19.032   7.064
 4155POPC   C4A53586  17.502  19.049   7.364
 4155POPC   C1B53587  17.746  18.995   6.464
 4155POPC   C2B53588  17.770  19.004   6.764
 4155POPC   C3B53589  17.755  18.937   7.064
 4155POPC   C4B53590  17.772  19.007   7.364
 4156POPC   NC353591   1.230  36.909   5.564
 4156POPC   PO453592   1.253  36.899   5.864
 4156POPC   GL153593   1.198  36.882   6.164
 4156POPC   GL253594   1.306  36.762   6.164
 4156POPC   C1A53595   1.239  36.879   6.464
 4156POPC   D2A53596   1.225  36.860   6.764
 4156POPC   C3A53597   1.251  36.916   7.064
 4156POPC   C4A53598   1.210  36.929   7.364
 4156POPC   C1B53599   1.253  36.641   6.464
 4156POPC   C2B53600   1.272  36.690   6.764
 4156POPC   C3B53601   1.280  36.663   7.064
 4156POPC   C4B53602   1.308  36.646   7.364
 4157POPC   NC353603   3.567   7.450   5.564
 4157POPC   PO453604   3.503   7.375   5.864
 4157POPC   GL153605   3.514   7.387   6.164
 4157POPC   GL253606   3.527   7.503   6.164
 4157POPC   C1A53607   3.570   7.381   6.464
 4157POPC   D2A53608   3.521   7.402   6.764
 4157POPC   C3A53609   3.538   7.465   7.064
 4157POPC   C4A53610   3.500   7.437   7.364
 4157POPC   C1B53611   3.493   7.699   6.464
 4157POPC   C2B53612   3.545   7.624   6.764
 4157POPC   C3B53613   3.475   7.639   7.064
 4157POPC   C4B53614   3.525   7.714   7.364
 4158POPC   NC353615  38.407  19.059   5.564
 4158POPC   PO453616  38.417  19.106   5.864
 4158POPC   GL153617  38.473  19.062   6.164
 4158POPC   GL253618  38.379  18.940   6.164
 4158POPC   C1A53619  38.499  19.016   6.464
 4158POPC   D2A53620  38.499  19.022   6.764
 4158POPC   C3A53621  38.486  19.077   7.064
 4158POPC   C4A53622  38.470  19.028   7.364
 4158POPC   C1B53623  38.274  18.929   6.464
 4158POPC   C2B53624  38.261  18.884   6.764
 4158POPC   C3B53625  38.321  18.871   7.064
 4158POPC   C4B53626  38.319  18.925   7.364
 4159POPC   NC353627  11.307  21.401   5.564
 4159POPC   PO453628  11.261  21.378   5.864
 4159POPC   GL153629  11.337  21.358   6.164
 4159POPC   GL253630  11.365  21.473   6.164
 4159POPC   C1A53631  11.251  21.400   6.464
 4159POPC   D2A53632  11.346  21.395   6.764
 4159POPC   C3A53633  11.297  21.404   7.064
 4159POPC   C4A53634  11.337  21.382   7.364
 4159POPC   C1B53635  11.546  21.505   6.464
 4159POPC   C2B53636  11.551  21.489   6.764
 4159POPC   C3B53637  11.500  21.517   7.064
 4159POPC   C4B53638  11.559  21.474   7.364
 4160POPC   NC353639  15.203  25.997   5.564
 4160POPC   PO453640  15.188  26.066   5.864
 4160POPC   GL153641  15.218  26.017   6.164
 4160POPC   GL253642  15.041  26.007   6.164
 4160POPC   C1A53643  15.183  26.053   6.464
 4160POPC   D2A53644  15.148  26.076   6.764
 4160POPC   C3A53645  15.216  26.055   7.064
 4160POPC   C4A53646  15.224  26.026   7.364
 4160POPC   C1B53647  14.966  25.886   6.464
 4160POPC   C2B53648  15.010  25.912   6.764
 4160POPC   C3B53649  14.977  25.909   7.064
 4160POPC   C4B53650  14.961  25.891   7.364
 4161POPC   NC353651   5.086   9.735   5.564
 4161POPC   PO453652   5.062   9.706   5.864
 4161POPC   GL153653   5.109   9.781   6.164
 4161POPC   GL253654   5.006   9.678   6.164
 4161POPC   C1A53655   5.115   9.723   6.464
 4161POPC   D2A53656   5.136   9.731   6.764
 4161POPC   C3A53657   5.106   9.744   7.064
 4161POPC   C4A53658   5.136   9.719   7.364
 4161POPC   C1B53659   4.933   9.546   6.464
 4161POPC   C2B53660   4.926   9.538   6.764
 4161POPC   C3B53661   4.989   9.483   7.064
 4161POPC   C4B53662   4.936   9.497   7.364
 4162POPC   NC353663   2.751  12.077   5.564
 4162POPC   PO453664   2.813  12.027   5.864
 4162POPC   GL153665   2.753  12.101   6.164
 4162POPC   GL253666   2.618  11.995   6.164
 4162POPC   C1A53667   2.780  12.110   6.464
 4162POPC   D2A53668   2.731  12.096   6.764
 4162POPC   C3A53669   2.768  12.071   7.064
 4162POPC   C4A53670   2.788  12.065   7.364
 4162POPC   C1B53671   2.502  12.009   6.464
 4162POPC   C2B53672   2.551  11.988   6.764
 4162POPC   C3B53673   2.576  12.023   7.064
 4162POPC   C4B53674   2.563  12.017   7.364
 4163POPC   NC353675  26.811  12.819   5.564
 4163POPC   PO453676  26.816  12.851   5.864
 4163POPC   GL153677  26.865  12.869   6.164
 4163POPC   GL253678  26.773  12.958   6.164
 4163POPC   C1A53679  26.794  12.847   6.464
 4163POPC   D2A53680  26.843  12.858   6.764
 4163POPC   C3A53681  26.779  12.869   7.064
 4163POPC   C4A53682  26.831  12.824   7.364
 4163POPC   C1B53683  26.749  13.114   6.464
 4163POPC   C2B53684  26.701  13.132   6.764
 4163POPC   C3B53685  26.781  13.116   7.064
 4163POPC   C4B53686  26.722  13.075   7.364
 4164POPC   NC353687   4.326   3.521   5.564
 4164POPC   PO453688   4.300   3.528   5.864
 4164POPC   GL153689   4.363   3.529   6.164
 4164POPC   GL253690   4.363   3.691   6.164
 4164POPC   C1A53691   4.316   3.526   6.464
 4164POPC   D2A53692   4.318   3.513   6.764
 4164POPC   C3A53693   4.274   3.498   7.064
 4164POPC   C4A53694   4.366   3.548   7.364
 4164POPC   C1B53695   4.407   3.747   6.464
 4164POPC   C2B53696   4.374   3.780   6.764
 4164POPC   C3B53697   4.404   3.811   7.064
 4164POPC   C4B53698   4.365   3.766   7.364
 4165POPC   NC353699   5.058  33.047   5.564
 4165POPC   PO453700   5.120  32.999   5.864
 4165POPC   GL153701   5.065  33.001   6.164
 4165POPC   GL253702   5.054  33.140   6.164
 4165POPC   C1A53703   5.065  33.050   6.464
 4165POPC   D2A53704   5.060  33.049   6.764
 4165POPC   C3A53705   5.056  33.029   7.064
 4165POPC   C4A53706   5.053  33.059   7.364
 4165POPC   C1B53707   4.982  33.224   6.464
 4165POPC   C2B53708   5.001  33.271   6.764
 4165POPC   C3B53709   4.943  33.277   7.064
 4165POPC   C4B53710   4.943  33.209   7.364
 4166POPC   NC353711   9.016  20.568   5.564
 4166POPC   PO453712   8.985  20.566   5.864
 4166POPC   GL153713   9.020  20.630   6.164
 4166POPC   GL253714   8.922  20.745   6.164
 4166POPC   C1A53715   8.980  20.598   6.464
 4166POPC   D2A53716   8.924  20.606   6.764
 4166POPC   C3A53717   9.005  20.612   7.064
 4166POPC   C4A53718   8.987  20.576   7.364
 4166POPC   C1B53719   8.996  20.857   6.464
 4166POPC   C2B53720   8.963  20.876   6.764
 4166POPC   C3B53721   8.960  20.851   7.064
 4166POPC   C4B53722   9.003  20.848   7.364
 4167POPC   NC353723  15.176  22.981   5.564
 4167POPC   PO453724  15.179  22.892   5.864
 4167POPC   GL153725  15.139  22.965   6.164
 4167POPC   GL253726  15.270  22.855   6.164
 4167POPC   C1A53727  15.162  22.927   6.464
 4167POPC   D2A53728  15.165  22.965   6.764
 4167POPC   C3A53729  15.146  22.911   7.064
 4167POPC   C4A53730  15.186  22.946   7.364
 4167POPC   C1B53731  15.442  22.865   6.464
 4167POPC   C2B53732  15.367  22.789   6.764
 4167POPC   C3B53733  15.349  22.808   7.064
 4167POPC   C4B53734  15.372  22.846   7.364
 4168POPC   NC353735  32.247  33.778   5.564
 4168POPC   PO453736  32.285  33.785   5.864
 4168POPC   GL153737  32.266  33.761   6.164
 4168POPC   GL253738  32.348  33.777   6.164
 4168POPC   C1A53739  32.202  33.755   6.464
 4168POPC   D2A53740  32.295  33.768   6.764
 4168POPC   C3A53741  32.269  33.822   7.064
 4168POPC   C4A53742  32.294  33.833   7.364
 4168POPC   C1B53743  32.519  33.868   6.464
 4168POPC   C2B53744  32.452  33.808   6.764
 4168POPC   C3B53745  32.523  33.854   7.064
 4168POPC   C4B53746  32.491  33.887   7.364
 4169POPC   NC353747  30.685  28.320   5.564
 4169POPC   PO453748  30.668  28.416   5.864
 4169POPC   GL153749  30.701  28.396   6.164
 4169POPC   GL253750  30.676  28.452   6.164
 4169POPC   C1A53751  30.708  28.391   6.464
 4169POPC   D2A53752  30.661  28.371   6.764
 4169POPC   C3A53753  30.680  28.334   7.064
 4169POPC   C4A53754  30.681  28.336   7.364
 4169POPC   C1B53755  30.541  28.559   6.464
 4169POPC   C2B53756  30.545  28.622   6.764
 4169POPC   C3B53757  30.601  28.572   7.064
 4169POPC   C4B53758  30.630  28.585   7.364
 4170POPC   NC353759  26.842  21.403   5.564
 4170POPC   PO453760  26.806  21.420   5.864
 4170POPC   GL153761  26.855  21.409   6.164
 4170POPC   GL253762  26.802  21.217   6.164
 4170POPC   C1A53763  26.772  21.433   6.464
 4170POPC   D2A53764  26.837  21.399   6.764
 4170POPC   C3A53765  26.834  21.386   7.064
 4170POPC   C4A53766  26.858  21.338   7.364
 4170POPC   C1B53767  26.880  21.119   6.464
 4170POPC   C2B53768  26.829  21.113   6.764
 4170POPC   C3B53769  26.874  21.102   7.064
 4170POPC   C4B53770  26.856  21.121   7.364
 4171POPC   NC353771  26.069  17.540   5.564
 4171POPC   PO453772  25.992  17.501   5.864
 4171POPC   GL153773  26.009  17.463   6.164
 4171POPC   GL253774  26.068  17.360   6.164
 4171POPC   C1A53775  26.086  17.488   6.464
 4171POPC   D2A53776  26.046  17.520   6.764
 4171POPC   C3A53777  26.046  17.519   7.064
 4171POPC   C4A53778  26.047  17.499   7.364
 4171POPC   C1B53779  26.035  17.305   6.464
 4171POPC   C2B53780  26.047  17.209   6.764
 4171POPC   C3B53781  26.044  17.230   7.064
 4171POPC   C4B53782  26.082  17.262   7.364
 4172POPC   NC353783  36.112  24.534   5.564
 4172POPC   PO453784  36.172  24.536   5.864
 4172POPC   GL153785  36.177  24.524   6.164
 4172POPC   GL253786  36.063  24.477   6.164
 4172POPC   C1A53787  36.176  24.500   6.464
 4172POPC   D2A53788  36.169  24.510   6.764
 4172POPC   C3A53789  36.093  24.536   7.064
 4172POPC   C4A53790  36.162  24.488   7.364
 4172POPC   C1B53791  35.893  24.418   6.464
 4172POPC   C2B53792  35.866  24.347   6.764
 4172POPC   C3B53793  35.933  24.391   7.064
 4172POPC   C4B53794  35.953  24.331   7.364
 4173POPC   NC353795  28.407  43.142   5.564
 4173POPC   PO453796  28.408  43.063   5.864
 4173POPC   GL153797  28.339  43.113   6.164
 4173POPC   GL253798  28.534  43.124   6.164
 4173POPC   C1A53799  28.357  43.134   6.464
 4173POPC   D2A53800  28.380  43.066   6.764
 4173POPC   C3A53801  28.331  43.080   7.064
 4173POPC   C4A53802  28.338  43.113   7.364
 4173POPC   C1B53803  28.651  43.228   6.464
 4173POPC   C2B53804  28.606  43.172   6.764
 4173POPC   C3B53805  28.639  43.161   7.064
 4173POPC   C4B53806  28.589  43.229   7.364
 4174POPC   NC353807  18.278   1.999   5.564
 4174POPC   PO453808  18.310   1.945   5.864
 4174POPC   GL153809  18.277   2.031   6.164
 4174POPC   GL253810  18.206   1.893   6.164
 4174POPC   C1A53811  18.249   2.035   6.464
 4174POPC   D2A53812  18.278   1.992   6.764
 4174POPC   C3A53813  18.247   1.947   7.064
 4174POPC   C4A53814  18.289   1.989   7.364
 4174POPC   C1B53815  18.235   1.781   6.464
 4174POPC   C2B53816  18.235   1.789   6.764
 4174POPC   C3B53817  18.210   1.788   7.064
 4174POPC   C4B53818  18.182   1.730   7.364
 4175POPC   NC353819  33.021  12.880   5.564
 4175POPC   PO453820  33.029  12.859   5.864
 4175POPC   GL153821  33.002  12.806   6.164
 4175POPC   GL253822  33.009  12.684   6.164
 4175POPC   C1A53823  32.986  12.807   6.464
 4175POPC   D2A53824  32.980  12.848   6.764
 4175POPC   C3A53825  33.040  12.842   7.064
 4175POPC   C4A53826  32.976  12.847   7.364
 4175POPC   C1B53827  32.966  12.646   6.464
 4175POPC   C2B53828  32.979  12.602   6.764
 4175POPC   C3B53829  33.057  12.584   7.064
 4175POPC   C4B53830  32.989  12.618   7.364
 4176POPC   NC353831  33.053  41.551   5.564
 4176POPC   PO453832  33.027  41.551   5.864
 4176POPC   GL153833  33.019  41.529   6.164
 4176POPC   GL253834  33.083  41.439   6.164
 4176POPC   C1A53835  33.063  41.516   6.464
 4176POPC   D2A53836  33.061  41.531   6.764
 4176POPC   C3A53837  33.059  41.518   7.064
 4176POPC   C4A53838  33.067  41.562   7.364
 4176POPC   C1B53839  33.118  41.373   6.464
 4176POPC   C2B53840  33.178  41.286   6.764
 4176POPC   C3B53841  33.160  41.334   7.064
 4176POPC   C4B53842  33.149  41.329   7.364
 4177POPC   NC353843  29.919  36.946   5.564
 4177POPC   PO453844  29.876  36.908   5.864
 4177POPC   GL153845  29.968  36.877   6.164
 4177POPC   GL253846  29.999  36.812   6.164
 4177POPC   C1A53847  29.886  36.869   6.464
 4177POPC   D2A53848  29.886  36.887   6.764
 4177POPC   C3A53849  29.925  36.943   7.064
 4177POPC   C4A53850  29.966  36.901   7.364
 4177POPC   C1B53851  30.029  36.651   6.464
 4177POPC   C2B53852  30.049  36.667   6.764
 4177POPC   C3B53853  30.052  36.653   7.064
 4177POPC   C4B53854  30.056  36.666   7.364
 4178POPC   NC353855  35.372  25.269   5.564
 4178POPC   PO453856  35.314  25.313   5.864
 4178POPC   GL153857  35.334  25.313   6.164
 4178POPC   GL253858  35.222  25.292   6.164
 4178POPC   C1A53859  35.397  25.250   6.464
 4178POPC   D2A53860  35.386  25.314   6.764
 4178POPC   C3A53861  35.347  25.300   7.064
 4178POPC   C4A53862  35.351  25.283   7.364
 4178POPC   C1B53863  35.125  25.243   6.464
 4178POPC   C2B53864  35.066  25.273   6.764
 4178POPC   C3B53865  35.123  25.280   7.064
 4178POPC   C4B53866  35.060  25.285   7.364
 4179POPC   NC353867  13.671  13.603   5.564
 4179POPC   PO453868  13.581  13.584   5.864
 4179POPC   GL153869  13.663  13.648   6.164
 4179POPC   GL253870  13.711  13.651   6.164
 4179POPC   C1A53871  13.636  13.666   6.464
 4179POPC   D2A53872  13.674  13.584   6.764
 4179POPC   C3A53873  13.586  13.657   7.064
 4179POPC   C4A53874  13.633  13.647   7.364
 4179POPC   C1B53875  13.888  13.685   6.464
 4179POPC   C2B53876  13.839  13.681   6.764
 4179POPC   C3B53877  13.917  13.637   7.064
 4179POPC   C4B53878  13.897  13.652   7.364
 4180POPC   NC353879  36.141  43.125   5.564
 4180POPC   PO453880  36.098  43.087   5.864
 4180POPC   GL153881  36.117  43.137   6.164
 4180POPC   GL253882  36.115  43.234   6.164
 4180POPC   C1A53883  36.135  43.081   6.464
 4180POPC   D2A53884  36.126  43.134   6.764
 4180POPC   C3A53885  36.104  43.147   7.064
 4180POPC   C4A53886  36.109  43.146   7.364
 4180POPC   C1B53887  36.008  43.304   6.464
 4180POPC   C2B53888  36.050  43.375   6.764
 4180POPC   C3B53889  36.054  43.296   7.064
 4180POPC   C4B53890  36.075  43.302   7.364
 4181POPC   NC353891   3.540   3.549   5.564
 4181POPC   PO453892   3.536   3.521   5.864
 4181POPC   GL153893   3.525   3.498   6.164
 4181POPC   GL253894   3.644   3.449   6.164
 4181POPC   C1A53895   3.553   3.559   6.464
 4181POPC   D2A53896   3.539   3.578   6.764
 4181POPC   C3A53897   3.573   3.575   7.064
 4181POPC   C4A53898   3.563   3.566   7.364
 4181POPC   C1B53899   3.766   3.398   6.464
 4181POPC   C2B53900   3.738   3.358   6.764
 4181POPC   C3B53901   3.765   3.411   7.064
 4181POPC   C4B53902   3.774   3.417   7.364
 4182POPC   NC353903  37.676  35.318   5.564
 4182POPC   PO453904  37.698  35.318   5.864
 4182POPC   GL153905  37.718  35.389   6.164
 4182POPC   GL253906  37.719  35.227   6.164
 4182POPC   C1A53907  37.701  35.351   6.464
 4182POPC   D2A53908  37.684  35.315   6.764
 4182POPC   C3A53909  37.711  35.332   7.064
 4182POPC   C4A53910  37.641  35.365   7.364
 4182POPC   C1B53911  37.748  35.139   6.464
 4182POPC   C2B53912  37.755  35.121   6.764
 4182POPC   C3B53913  37.800  35.101   7.064
 4182POPC   C4B53914  37.783  35.124   7.364
 4183POPC   NC353915  20.597  38.449   5.564
 4183POPC   PO453916  20.616  38.492   5.864
 4183POPC   GL153917  20.568  38.412   6.164
 4183POPC   GL253918  20.748  38.547   6.164
 4183POPC   C1A53919  20.560  38.468   6.464
 4183POPC   D2A53920  20.563  38.491   6.764
 4183POPC   C3A53921  20.585  38.497   7.064
 4183POPC   C4A53922  20.630  38.445   7.364
 4183POPC   C1B53923  20.834  38.585   6.464
 4183POPC   C2B53924  20.806  38.609   6.764
 4183POPC   C3B53925  20.848  38.533   7.064
 4183POPC   C4B53926  20.802  38.568   7.364
 4184POPC   NC353927  24.494  38.409   5.564
 4184POPC   PO453928  24.522  38.418   5.864
 4184POPC   GL153929  24.443  38.434   6.164
 4184POPC   GL253930  24.629  38.448   6.164
 4184POPC   C1A53931  24.497  38.473   6.464
 4184POPC   D2A53932  24.535  38.504   6.764
 4184POPC   C3A53933  24.443  38.423   7.064
 4184POPC   C4A53934  24.524  38.466   7.364
 4184POPC   C1B53935  24.765  38.473   6.464
 4184POPC   C2B53936  24.716  38.465   6.764
 4184POPC   C3B53937  24.693  38.531   7.064
 4184POPC   C4B53938  24.755  38.520   7.364
 4185POPC   NC353939  30.698   0.456   5.564
 4185POPC   PO453940  30.660   0.471   5.864
 4185POPC   GL153941  30.694   0.392   6.164
 4185POPC   GL253942  30.789   0.440   6.164
 4185POPC   C1A53943  30.718   0.396   6.464
 4185POPC   D2A53944  30.690   0.441   6.764
 4185POPC   C3A53945  30.723   0.486   7.064
 4185POPC   C4A53946  30.680   0.460   7.364
 4185POPC   C1B53947  30.911   0.464   6.464
 4185POPC   C2B53948  30.966   0.429   6.764
 4185POPC   C3B53949  30.930   0.411   7.064
 4185POPC   C4B53950  30.949   0.485   7.364
 4186POPC   NC353951  27.549   8.241   5.564
 4186POPC   PO453952  27.626   8.153   5.864
 4186POPC   GL153953  27.561   8.235   6.164
 4186POPC   GL253954  27.431   8.201   6.164
 4186POPC   C1A53955  27.571   8.241   6.464
 4186POPC   D2A53956  27.581   8.158   6.764
 4186POPC   C3A53957  27.566   8.163   7.064
 4186POPC   C4A53958  27.582   8.186   7.364
 4186POPC   C1B53959  27.393   8.244   6.464
 4186POPC   C2B53960  27.307   8.287   6.764
 4186POPC   C3B53961  27.337   8.254   7.064
 4186POPC   C4B53962  27.356   8.262   7.364
 4187POPC   NC353963  22.898  32.978   5.564
 4187POPC   PO453964  22.988  33.044   5.864
 4187POPC   GL153965  22.987  33.046   6.164
 4187POPC   GL253966  22.959  32.871   6.164
 4187POPC   C1A53967  22.969  33.052   6.464
 4187POPC   D2A53968  22.939  32.980   6.764
 4187POPC   C3A53969  22.908  32.994   7.064
 4187POPC   C4A53970  22.949  33.066   7.364
 4187POPC   C1B53971  22.886  32.821   6.464
 4187POPC   C2B53972  22.918  32.774   6.764
 4187POPC   C3B53973  22.951  32.746   7.064
 4187POPC   C4B53974  22.900  32.736   7.364
 4188POPC   NC353975  43.125  36.939   5.564
 4188POPC   PO453976  43.126  36.886   5.864
 4188POPC   GL153977  43.121  36.949   6.164
 4188POPC   GL253978  43.138  37.004   6.164
 4188POPC   C1A53979  43.093  36.911   6.464
 4188POPC   D2A53980  43.080  36.945   6.764
 4188POPC   C3A53981  43.155  36.900   7.064
 4188POPC   C4A53982  43.075  36.925   7.364
 4188POPC   C1B53983  43.132  37.185   6.464
 4188POPC   C2B53984  43.219  37.110   6.764
 4188POPC   C3B53985  43.207  37.175   7.064
 4188POPC   C4B53986  43.189  37.166   7.364
 4189POPC   NC353987   1.977  30.741   5.564
 4189POPC   PO453988   1.958  30.686   5.864
 4189POPC   GL153989   2.012  30.721   6.164
 4189POPC   GL253990   2.087  30.841   6.164
 4189POPC   C1A53991   2.038  30.661   6.464
 4189POPC   D2A53992   1.976  30.697   6.764
 4189POPC   C3A53993   1.980  30.689   7.064
 4189POPC   C4A53994   1.969  30.704   7.364
 4189POPC   C1B53995   2.109  30.897   6.464
 4189POPC   C2B53996   2.120  30.916   6.764
 4189POPC   C3B53997   2.059  30.966   7.064
 4189POPC   C4B53998   2.133  30.932   7.364
 4190POPC   NC353999  11.299  25.994   5.564
 4190POPC   PO454000  11.284  26.012   5.864
 4190POPC   GL154001  11.299  26.083   6.164
 4190POPC   GL254002  11.438  26.030   6.164
 4190POPC   C1A54003  11.345  26.005   6.464
 4190POPC   D2A54004  11.326  26.003   6.764
 4190POPC   C3A54005  11.318  26.017   7.064
 4190POPC   C4A54006  11.330  26.035   7.364
 4190POPC   C1B54007  11.565  26.016   6.464
 4190POPC   C2B54008  11.555  26.018   6.764
 4190POPC   C3B54009  11.509  26.048   7.064
 4190POPC   C4B54010  11.534  26.081   7.364
 4191POPC   NC354011   5.106  42.381   5.564
 4191POPC   PO454012   5.136  42.316   5.864
 4191POPC   GL154013   5.082  42.347   6.164
 4191POPC   GL254014   5.192  42.398   6.164
 4191POPC   C1A54015   5.087  42.314   6.464
 4191POPC   D2A54016   5.111  42.298   6.764
 4191POPC   C3A54017   5.079  42.323   7.064
 4191POPC   C4A54018   5.077  42.322   7.364
 4191POPC   C1B54019   5.274  42.561   6.464
 4191POPC   C2B54020   5.216  42.558   6.764
 4191POPC   C3B54021   5.219  42.584   7.064
 4191POPC   C4B54022   5.245  42.561   7.364
 4192POPC   NC354023  42.384   8.927   5.564
 4192POPC   PO454024  42.313   9.018   5.864
 4192POPC   GL154025  42.334   8.957   6.164
 4192POPC   GL254026  42.314   9.117   6.164
 4192POPC   C1A54027  42.367   8.989   6.464
 4192POPC   D2A54028  42.313   8.927   6.764
 4192POPC   C3A54029  42.295   8.949   7.064
 4192POPC   C4A54030  42.378   8.949   7.364
 4192POPC   C1B54031  42.398   9.244   6.464
 4192POPC   C2B54032  42.372   9.218   6.764
 4192POPC   C3B54033  42.340   9.176   7.064
 4192POPC   C4B54034  42.371   9.258   7.364
 4193POPC   NC354035  10.502  22.952   5.564
 4193POPC   PO454036  10.565  22.903   5.864
 4193POPC   GL154037  10.517  22.952   6.164
 4193POPC   GL254038  10.610  22.910   6.164
 4193POPC   C1A54039  10.484  22.987   6.464
 4193POPC   D2A54040  10.539  22.944   6.764
 4193POPC   C3A54041  10.499  22.956   7.064
 4193POPC   C4A54042  10.568  22.903   7.364
 4193POPC   C1B54043  10.723  22.801   6.464
 4193POPC   C2B54044  10.678  22.819   6.764
 4193POPC   C3B54045  10.709  22.785   7.064
 4193POPC   C4B54046  10.686  22.816   7.364
 4194POPC   NC354047  24.510  28.391   5.564
 4194POPC   PO454048  24.458  28.381   5.864
 4194POPC   GL154049  24.453  28.347   6.164
 4194POPC   GL254050  24.557  28.281   6.164
 4194POPC   C1A54051  24.488  28.340   6.464
 4194POPC   D2A54052  24.494  28.397   6.764
 4194POPC   C3A54053  24.520  28.351   7.064
 4194POPC   C4A54054  24.449  28.352   7.364
 4194POPC   C1B54055  24.613  28.131   6.464
 4194POPC   C2B54056  24.583  28.206   6.764
 4194POPC   C3B54057  24.611  28.204   7.064
 4194POPC   C4B54058  24.644  28.181   7.364
 4195POPC   NC354059  21.413   4.320   5.564
 4195POPC   PO454060  21.430   4.329   5.864
 4195POPC   GL154061  21.381   4.337   6.164
 4195POPC   GL254062  21.318   4.272   6.164
 4195POPC   C1A54063  21.403   4.286   6.464
 4195POPC   D2A54064  21.372   4.310   6.764
 4195POPC   C3A54065  21.339   4.311   7.064
 4195POPC   C4A54066  21.402   4.354   7.364
 4195POPC   C1B54067  21.211   4.229   6.464
 4195POPC   C2B54068  21.204   4.173   6.764
 4195POPC   C3B54069  21.174   4.155   7.064
 4195POPC   C4B54070  21.139   4.175   7.364
 4196POPC   NC354071  40.020  43.069   5.564
 4196POPC   PO454072  40.023  43.112   5.864
 4196POPC   GL154073  39.966  43.063   6.164
 4196POPC   GL254074  40.034  43.247   6.164
 4196POPC   C1A54075  40.046  43.072   6.464
 4196POPC   D2A54076  39.972  43.072   6.764
 4196POPC   C3A54077  40.036  43.140   7.064
 4196POPC   C4A54078  40.037  43.118   7.364
 4196POPC   C1B54079  40.125  43.384   6.464
 4196POPC   C2B54080  40.133  43.333   6.764
 4196POPC   C3B54081  40.133  43.330   7.064
 4196POPC   C4B54082  40.093  43.348   7.364
 4197POPC   NC354083  21.414  26.838   5.564
 4197POPC   PO454084  21.424  26.775   5.864
 4197POPC   GL154085  21.359  26.781   6.164
 4197POPC   GL254086  21.473  26.947   6.164
 4197POPC   C1A54087  21.374  26.779   6.464
 4197POPC   D2A54088  21.428  26.797   6.764
 4197POPC   C3A54089  21.357  26.842   7.064
 4197POPC   C4A54090  21.359  26.773   7.364
 4197POPC   C1B54091  21.464  27.058   6.464
 4197POPC   C2B54092  21.433  27.062   6.764
 4197POPC   C3B54093  21.449  27.095   7.064
 4197POPC   C4B54094  21.499  27.008   7.364
 4198POPC   NC354095  29.151   1.249   5.564
 4198POPC   PO454096  29.150   1.184   5.864
 4198POPC   GL154097  29.108   1.168   6.164
 4198POPC   GL254098  29.201   1.281   6.164
 4198POPC   C1A54099  29.184   1.209   6.464
 4198POPC   D2A54100  29.161   1.231   6.764
 4198POPC   C3A54101  29.121   1.215   7.064
 4198POPC   C4A54102  29.182   1.232   7.364
 4198POPC   C1B54103  29.233   1.445   6.464
 4198POPC   C2B54104  29.308   1.466   6.764
 4198POPC   C3B54105  29.308   1.392   7.064
 4198POPC   C4B54106  29.299   1.426   7.364
 4199POPC   NC354107  20.634   6.596   5.564
 4199POPC   PO454108  20.563   6.634   5.864
 4199POPC   GL154109  20.595   6.637   6.164
 4199POPC   GL254110  20.494   6.676   6.164
 4199POPC   C1A54111  20.635   6.667   6.464
 4199POPC   D2A54112  20.642   6.668   6.764
 4199POPC   C3A54113  20.598   6.659   7.064
 4199POPC   C4A54114  20.637   6.598   7.364
 4199POPC   C1B54115  20.436   6.721   6.464
 4199POPC   C2B54116  20.409   6.753   6.764
 4199POPC   C3B54117  20.401   6.772   7.064
 4199POPC   C4B54118  20.356   6.788   7.364
 4200POPC   NC354119  15.208   2.026   5.564
 4200POPC   PO454120  15.208   1.992   5.864
 4200POPC   GL154121  15.203   1.995   6.164
 4200POPC   GL254122  15.018   1.980   6.164
 4200POPC   C1A54123  15.151   2.016   6.464
 4200POPC   D2A54124  15.227   2.008   6.764
 4200POPC   C3A54125  15.130   1.952   7.064
 4200POPC   C4A54126  15.200   1.997   7.364
 4200POPC   C1B54127  14.916   1.944   6.464
 4200POPC   C2B54128  14.882   1.985   6.764
 4200POPC   C3B54129  14.930   1.987   7.064
 4200POPC   C4B54130  14.932   1.943   7.364
 4201POPC   NC354131   7.463  35.370   5.564
 4201POPC   PO454132   7.401  35.348   5.864
 4201POPC   GL154133   7.380  35.328   6.164
 4201POPC   GL254134   7.399  35.490   6.164
 4201POPC   C1A54135   7.389  35.359   6.464
 4201POPC   D2A54136   7.439  35.303   6.764
 4201POPC   C3A54137   7.446  35.392   7.064
 4201POPC   C4A54138   7.374  35.308   7.364
 4201POPC   C1B54139   7.430  35.599   6.464
 4201POPC   C2B54140   7.447  35.561   6.764
 4201POPC   C3B54141   7.412  35.565   7.064
 4201POPC   C4B54142   7.396  35.577   7.364
 4202POPC   NC354143  44.627   0.414   5.564
 4202POPC   PO454144  44.661   0.482   5.864
 4202POPC   GL154145  44.616   0.419   6.164
 4202POPC   GL254146  44.713   0.605   6.164
 4202POPC   C1A54147  44.668   0.463   6.464
 4202POPC   D2A54148  44.630   0.400   6.764
 4202POPC   C3A54149  44.707   0.473   7.064
 4202POPC   C4A54150  44.675   0.478   7.364
 4202POPC   C1B54151  44.706   0.695   6.464
 4202POPC   C2B54152  44.788   0.671   6.764
 4202POPC   C3B54153  44.788   0.694   7.064
 4202POPC   C4B54154  44.741   0.641   7.364
 4203POPC   NC354155  43.145  33.754   5.564
 4203POPC   PO454156  43.110  33.796   5.864
 4203POPC   GL154157  43.080  33.782   6.164
 4203POPC   GL254158  43.010  33.871   6.164
 4203POPC   C1A54159  43.095  33.753   6.464
 4203POPC   D2A54160  43.112  33.839   6.764
 4203POPC   C3A54161  43.077  33.848   7.064
 4203POPC   C4A54162  43.153  33.766   7.364
 4203POPC   C1B54163  42.942  34.025   6.464
 4203POPC   C2B54164  43.029  34.017   6.764
 4203POPC   C3B54165  42.976  34.042   7.064
 4203POPC   C4B54166  42.998  33.994   7.364
 4204POPC   NC354167   2.018   5.052   5.564
 4204POPC   PO454168   2.024   5.136   5.864
 4204POPC   GL154169   1.981   5.117   6.164
 4204POPC   GL254170   2.006   4.933   6.164
 4204POPC   C1A54171   2.028   5.082   6.464
 4204POPC   D2A54172   1.956   5.090   6.764
 4204POPC   C3A54173   1.960   5.053   7.064
 4204POPC   C4A54174   2.020   5.110   7.364
 4204POPC   C1B54175   1.922   4.800   6.464
 4204POPC   C2B54176   1.944   4.889   6.764
 4204POPC   C3B54177   1.906   4.875   7.064
 4204POPC   C4B54178   1.951   4.820   7.364
 4205POPC   NC354179  40.770  40.028   5.564
 4205POPC   PO454180  40.741  39.968   5.864
 4205POPC   GL154181  40.751  40.034   6.164
 4205POPC   GL254182  40.948  40.015   6.164
 4205POPC   C1A54183  40.797  39.966   6.464
 4205POPC   D2A54184  40.743  40.001   6.764
 4205POPC   C3A54185  40.743  40.047   7.064
 4205POPC   C4A54186  40.790  40.054   7.364
 4205POPC   C1B54187  41.033  40.055   6.464
 4205POPC   C2B54188  41.023  40.062   6.764
 4205POPC   C3B54189  40.985  40.013   7.064
 4205POPC   C4B54190  41.064  40.043   7.364
 4206POPC   NC354191  42.311  33.010   5.564
 4206POPC   PO454192  42.369  33.006   5.864
 4206POPC   GL154193  42.295  32.997   6.164
 4206POPC   GL254194  42.176  33.032   6.164
 4206POPC   C1A54195  42.298  33.026   6.464
 4206POPC   D2A54196  42.337  33.063   6.764
 4206POPC   C3A54197  42.354  33.039   7.064
 4206POPC   C4A54198  42.321  33.040   7.364
 4206POPC   C1B54199  42.083  33.081   6.464
 4206POPC   C2B54200  42.156  33.118   6.764
 4206POPC   C3B54201  42.113  33.103   7.064
 4206POPC   C4B54202  42.066  33.088   7.364
 4207POPC   NC354203   3.518   1.208   5.564
 4207POPC   PO454204   3.560   1.164   5.864
 4207POPC   GL154205   3.571   1.263   6.164
 4207POPC   GL254206   3.512   1.379   6.164
 4207POPC   C1A54207   3.494   1.249   6.464
 4207POPC   D2A54208   3.583   1.217   6.764
 4207POPC   C3A54209   3.508   1.224   7.064
 4207POPC   C4A54210   3.581   1.252   7.364
 4207POPC   C1B54211   3.539   1.439   6.464
 4207POPC   C2B54212   3.524   1.415   6.764
 4207POPC   C3B54213   3.449   1.452   7.064
 4207POPC   C4B54214   3.531   1.443   7.364
 4208POPC   NC354215  16.747   5.870   5.564
 4208POPC   PO454216  16.681   5.842   5.864
 4208POPC   GL154217  16.773   5.833   6.164
 4208POPC   GL254218  16.675   5.921   6.164
 4208POPC   C1A54219  16.745   5.911   6.464
 4208POPC   D2A54220  16.770   5.889   6.764
 4208POPC   C3A54221  16.710   5.885   7.064
 4208POPC   C4A54222  16.708   5.880   7.364
 4208POPC   C1B54223  16.555   6.063   6.464
 4208POPC   C2B54224  16.570   6.060   6.764
 4208POPC   C3B54225  16.559   6.007   7.064
 4208POPC   C4B54226  16.538   6.053   7.364
 4209POPC   NC354227  32.254   3.569   5.564
 4209POPC   PO454228  32.265   3.554   5.864
 4209POPC   GL154229  32.275   3.532   6.164
 4209POPC   GL254230  32.115   3.571   6.164
 4209POPC   C1A54231  32.287   3.589   6.464
 4209POPC   D2A54232  32.245   3.590   6.764
 4209POPC   C3A54233  32.285   3.493   7.064
 4209POPC   C4A54234  32.253   3.568   7.364
 4209POPC   C1B54235  31.955   3.495   6.464
 4209POPC   C2B54236  31.981   3.534   6.764
 4209POPC   C3B54237  32.025   3.469   7.064
 4209POPC   C4B54238  32.007   3.545   7.364
 4210POPC   NC354239  14.365  33.789   5.564
 4210POPC   PO454240  14.448  33.776   5.864
 4210POPC   GL154241  14.386  33.758   6.164
 4210POPC   GL254242  14.451  33.902   6.164
 4210POPC   C1A54243  14.369  33.766   6.464
 4210POPC   D2A54244  14.399  33.762   6.764
 4210POPC   C3A54245  14.387  33.768   7.064
 4210POPC   C4A54246  14.417  33.850   7.364
 4210POPC   C1B54247  14.446  34.010   6.464
 4210POPC   C2B54248  14.440  34.048   6.764
 4210POPC   C3B54249  14.488  34.092   7.064
 4210POPC   C4B54250  14.422  34.085   7.364
 4211POPC   NC354251  38.474  33.019   5.564
 4211POPC   PO454252  38.434  33.059   5.864
 4211POPC   GL154253  38.421  32.987   6.164
 4211POPC   GL254254  38.429  32.865   6.164
 4211POPC   C1A54255  38.437  33.021   6.464
 4211POPC   D2A54256  38.427  33.050   6.764
 4211POPC   C3A54257  38.450  32.987   7.064
 4211POPC   C4A54258  38.451  33.019   7.364
 4211POPC   C1B54259  38.465  32.744   6.464
 4211POPC   C2B54260  38.527  32.818   6.764
 4211POPC   C3B54261  38.500  32.783   7.064
 4211POPC   C4B54262  38.482  32.790   7.364
 4212POPC   NC354263  33.835  35.352   5.564
 4212POPC   PO454264  33.831  35.331   5.864
 4212POPC   GL154265  33.798  35.391   6.164
 4212POPC   GL254266  33.777  35.483   6.164
 4212POPC   C1A54267  33.842  35.364   6.464
 4212POPC   D2A54268  33.754  35.375   6.764
 4212POPC   C3A54269  33.849  35.334   7.064
 4212POPC   C4A54270  33.799  35.327   7.364
 4212POPC   C1B54271  33.758  35.592   6.464
 4212POPC   C2B54272  33.774  35.625   6.764
 4212POPC   C3B54273  33.733  35.590   7.064
 4212POPC   C4B54274  33.677  35.552   7.364
 4213POPC   NC354275  37.673  36.931   5.564
 4213POPC   PO454276  37.691  36.895   5.864
 4213POPC   GL154277  37.680  36.871   6.164
 4213POPC   GL254278  37.638  36.834   6.164
 4213POPC   C1A54279  37.641  36.932   6.464
 4213POPC   D2A54280  37.642  36.915   6.764
 4213POPC   C3A54281  37.719  36.902   7.064
 4213POPC   C4A54282  37.694  36.931   7.364
 4213POPC   C1B54283  37.541  36.684   6.464
 4213POPC   C2B54284  37.504  36.696   6.764
 4213POPC   C3B54285  37.586  36.705   7.064
 4213POPC   C4B54286  37.509  36.698   7.364
 4214POPC   NC354287   5.133  12.864   5.564
 4214POPC   PO454288   5.081  12.825   5.864
 4214POPC   GL154289   5.137  12.832   6.164
 4214POPC   GL254290   5.026  12.978   6.164
 4214POPC   C1A54291   5.134  12.836   6.464
 4214POPC   D2A54292   5.134  12.833   6.764
 4214POPC   C3A54293   5.060  12.829   7.064
 4214POPC   C4A54294   5.050  12.900   7.364
 4214POPC   C1B54295   4.968  13.088   6.464
 4214POPC   C2B54296   4.955  13.090   6.764
 4214POPC   C3B54297   4.950  13.009   7.064
 4214POPC   C4B54298   4.951  13.066   7.364
 4215POPC   NC354299  37.640  43.932   5.564
 4215POPC   PO454300  37.707  43.853   5.864
 4215POPC   GL154301  37.724  43.930   6.164
 4215POPC   GL254302  37.639  43.814   6.164
 4215POPC   C1A54303  37.704  43.856   6.464
 4215POPC   D2A54304  37.679  43.933   6.764
 4215POPC   C3A54305  37.657  43.914   7.064
 4215POPC   C4A54306  37.665  43.909   7.364
 4215POPC   C1B54307  37.592  43.612   6.464
 4215POPC   C2B54308  37.560  43.692   6.764
 4215POPC   C3B54309  37.560  43.690   7.064
 4215POPC   C4B54310  37.549  43.648   7.364
 4216POPC   NC354311  19.107   1.262   5.564
 4216POPC   PO454312  19.085   1.247   5.864
 4216POPC   GL154313  19.100   1.172   6.164
 4216POPC   GL254314  19.012   1.136   6.164
 4216POPC   C1A54315  19.048   1.167   6.464
 4216POPC   D2A54316  19.068   1.207   6.764
 4216POPC   C3A54317  19.065   1.219   7.064
 4216POPC   C4A54318  19.032   1.199   7.364
 4216POPC   C1B54319  18.949   1.041   6.464
 4216POPC   C2B54320  18.912   1.010   6.764
 4216POPC   C3B54321  18.942   0.996   7.064
 4216POPC   C4B54322  18.973   1.035   7.364
 4217POPC   NC354323  17.492   6.630   5.564
 4217POPC   PO454324  17.472   6.659   5.864
 4217POPC   GL154325  17.513   6.606   6.164
 4217POPC   GL254326  17.609   6.543   6.164
 4217POPC   C1A54327  17.512   6.674   6.464
 4217POPC   D2A54328  17.516   6.680   6.764
 4217POPC   C3A54329  17.506   6.611   7.064
 4217POPC   C4A54330  17.516   6.653   7.364
 4217POPC   C1B54331  17.654   6.405   6.464
 4217POPC   C2B54332  17.648   6.456   6.764
 4217POPC   C3B54333  17.615   6.440   7.064
 4217POPC   C4B54334  17.661   6.424   7.364
 4218POPC   NC354335  15.169  22.160   5.564
 4218POPC   PO454336  15.130  22.192   5.864
 4218POPC   GL154337  15.223  22.210   6.164
 4218POPC   GL254338  15.273  22.231   6.164
 4218POPC   C1A54339  15.222  22.151   6.464
 4218POPC   D2A54340  15.146  22.195   6.764
 4218POPC   C3A54341  15.158  22.127   7.064
 4218POPC   C4A54342  15.169  22.189   7.364
 4218POPC   C1B54343  15.376  22.289   6.464
 4218POPC   C2B54344  15.411  22.210   6.764
 4218POPC   C3B54345  15.398  22.251   7.064
 4218POPC   C4B54346  15.365  22.280   7.364
 4219POPC   NC354347  39.197  44.678   5.564
 4219POPC   PO454348  39.212  44.701   5.864
 4219POPC   GL154349  39.208  44.630   6.164
 4219POPC   GL254350  39.204  44.751   6.164
 4219POPC   C1A54351  39.262  44.702   6.464
 4219POPC   D2A54352  39.209  44.682   6.764
 4219POPC   C3A54353  39.220  44.641   7.064
 4219POPC   C4A54354  39.222  44.616   7.364
 4219POPC   C1B54355  39.125  44.819   6.464
 4219POPC   C2B54356  39.068  44.860   6.764
 4219POPC   C3B54357  39.056  44.849   7.064
 4219POPC   C4B54358  39.041  44.893   7.364
 4220POPC   NC354359  37.649  19.811   5.564
 4220POPC   PO454360  37.720  19.869   5.864
 4220POPC   GL154361  37.722  19.848   6.164
 4220POPC   GL254362  37.766  19.854   6.164
 4220POPC   C1A54363  37.671  19.854   6.464
 4220POPC   D2A54364  37.643  19.818   6.764
 4220POPC   C3A54365  37.693  19.858   7.064
 4220POPC   C4A54366  37.687  19.867   7.364
 4220POPC   C1B54367  37.882  19.988   6.464
 4220POPC   C2B54368  37.872  19.942   6.764
 4220POPC   C3B54369  37.934  19.991   7.064
 4220POPC   C4B54370  37.897  19.970   7.364
 4221POPC   NC354371  22.203  42.340   5.564
 4221POPC   PO454372  22.155  42.339   5.864
 4221POPC   GL154373  22.186  42.312   6.164
 4221POPC   GL254374  22.157  42.506   6.164
 4221POPC   C1A54375  22.167  42.332   6.464
 4221POPC   D2A54376  22.154  42.367   6.764
 4221POPC   C3A54377  22.149  42.293   7.064
 4221POPC   C4A54378  22.137  42.329   7.364
 4221POPC   C1B54379  22.154  42.597   6.464
 4221POPC   C2B54380  22.201  42.543   6.764
 4221POPC   C3B54381  22.161  42.631   7.064
 4221POPC   C4B54382  22.224  42.570   7.364
 4222POPC   NC354383  22.903  40.808   5.564
 4222POPC   PO454384  22.950  40.776   5.864
 4222POPC   GL154385  22.914  40.739   6.164
 4222POPC   GL254386  22.860  40.833   6.164
 4222POPC   C1A54387  22.917  40.814   6.464
 4222POPC   D2A54388  22.924  40.773   6.764
 4222POPC   C3A54389  22.956  40.792   7.064
 4222POPC   C4A54390  22.889  40.746   7.364
 4222POPC   C1B54391  22.719  40.835   6.464
 4222POPC   C2B54392  22.717  40.806   6.764
 4222POPC   C3B54393  22.723  40.796   7.064
 4222POPC   C4B54394  22.658  40.763   7.364
 4223POPC   NC354395  36.114  33.035   5.564
 4223POPC   PO454396  36.121  33.066   5.864
 4223POPC   GL154397  36.157  33.012   6.164
 4223POPC   GL254398  36.174  33.146   6.164
 4223POPC   C1A54399  36.134  33.062   6.464
 4223POPC   D2A54400  36.113  33.061   6.764
 4223POPC   C3A54401  36.148  33.010   7.064
 4223POPC   C4A54402  36.136  33.052   7.364
 4223POPC   C1B54403  36.287  33.248   6.464
 4223POPC   C2B54404  36.248  33.237   6.764
 4223POPC   C3B54405  36.273  33.232   7.064
 4223POPC   C4B54406  36.246  33.223   7.364
 4224POPC   NC354407  24.477  32.199   5.564
 4224POPC   PO454408  24.527  32.209   5.864
 4224POPC   GL154409  24.487  32.213   6.164
 4224POPC   GL254410  24.316  32.223   6.164
 4224POPC   C1A54411  24.492  32.205   6.464
 4224POPC   D2A54412  24.488  32.229   6.764
 4224POPC   C3A54413  24.496  32.280   7.064
 4224POPC   C4A54414  24.441  32.275   7.364
 4224POPC   C1B54415  24.231  32.246   6.464
 4224POPC   C2B54416  24.254  32.234   6.764
 4224POPC   C3B54417  24.218  32.244   7.064
 4224POPC   C4B54418  24.231  32.186   7.364
 4225POPC   NC354419  39.241  10.562   5.564
 4225POPC   PO454420  39.274  10.510   5.864
 4225POPC   GL154421  39.268  10.542   6.164
 4225POPC   GL254422  39.179  10.403   6.164
 4225POPC   C1A54423  39.276  10.562   6.464
 4225POPC   D2A54424  39.276  10.520   6.764
 4225POPC   C3A54425  39.188  10.510   7.064
 4225POPC   C4A54426  39.199  10.546   7.364
 4225POPC   C1B54427  39.001  10.350   6.464
 4225POPC   C2B54428  39.008  10.382   6.764
 4225POPC   C3B54429  39.009  10.332   7.064
 4225POPC   C4B54430  39.008  10.417   7.364
 4226POPC   NC354431  26.014  41.593   5.564
 4226POPC   PO454432  26.049  41.587   5.864
 4226POPC   GL154433  26.034  41.593   6.164
 4226POPC   GL254434  25.905  41.643   6.164
 4226POPC   C1A54435  26.040  41.511   6.464
 4226POPC   D2A54436  26.050  41.528   6.764
 4226POPC   C3A54437  26.028  41.536   7.064
 4226POPC   C4A54438  26.005  41.520   7.364
 4226POPC   C1B54439  25.811  41.721   6.464
 4226POPC   C2B54440  25.848  41.693   6.764
 4226POPC   C3B54441  25.815  41.703   7.064
 4226POPC   C4B54442  25.827  41.735   7.364
 4227POPC   NC354443  21.397  40.814   5.564
 4227POPC   PO454444  21.379  40.737   5.864
 4227POPC   GL154445  21.428  40.738   6.164
 4227POPC   GL254446  21.502  40.763   6.164
 4227POPC   C1A54447  21.341  40.736   6.464
 4227POPC   D2A54448  21.429  40.763   6.764
 4227POPC   C3A54449  21.398  40.785   7.064
 4227POPC   C4A54450  21.404  40.809   7.364
 4227POPC   C1B54451  21.599  40.686   6.464
 4227POPC   C2B54452  21.663  40.654   6.764
 4227POPC   C3B54453  21.631  40.737   7.064
 4227POPC   C4B54454  21.586  40.728   7.364
 4228POPC   NC354455  44.625  39.192   5.564
 4228POPC   PO454456  44.629  39.223   5.864
 4228POPC   GL154457  44.628  39.256   6.164
 4228POPC   GL254458  44.700  39.130   6.164
 4228POPC   C1A54459  44.623  39.193   6.464
 4228POPC   D2A54460  44.613  39.217   6.764
 4228POPC   C3A54461  44.674  39.188   7.064
 4228POPC   C4A54462  44.697  39.242   7.364
 4228POPC   C1B54463  44.616  39.002   6.464
 4228POPC   C2B54464  44.653  38.968   6.764
 4228POPC   C3B54465  44.664  38.976   7.064
 4228POPC   C4B54466  44.662  38.989   7.364
 4229POPC   NC354467   6.639  25.257   5.564
 4229POPC   PO454468   6.652  25.225   5.864
 4229POPC   GL154469   6.661  25.312   6.164
 4229POPC   GL254470   6.752  25.288   6.164
 4229POPC   C1A54471   6.663  25.308   6.464
 4229POPC   D2A54472   6.662  25.307   6.764
 4229POPC   C3A54473   6.663  25.300   7.064
 4229POPC   C4A54474   6.618  25.219   7.364
 4229POPC   C1B54475   6.846  25.368   6.464
 4229POPC   C2B54476   6.832  25.327   6.764
 4229POPC   C3B54477   6.828  25.318   7.064
 4229POPC   C4B54478   6.862  25.402   7.364
 4230POPC   NC354479  31.479  32.991   5.564
 4230POPC   PO454480  31.505  33.060   5.864
 4230POPC   GL154481  31.478  33.074   6.164
 4230POPC   GL254482  31.597  33.034   6.164
 4230POPC   C1A54483  31.437  33.050   6.464
 4230POPC   D2A54484  31.520  33.010   6.764
 4230POPC   C3A54485  31.500  32.988   7.064
 4230POPC   C4A54486  31.480  32.993   7.364
 4230POPC   C1B54487  31.677  32.937   6.464
 4230POPC   C2B54488  31.677  32.980   6.764
 4230POPC   C3B54489  31.731  33.016   7.064
 4230POPC   C4B54490  31.724  32.965   7.364
 4231POPC   NC354491   7.421  19.801   5.564
 4231POPC   PO454492   7.399  19.792   5.864
 4231POPC   GL154493   7.467  19.878   6.164
 4231POPC   GL254494   7.495  19.796   6.164
 4231POPC   C1A54495   7.393  19.850   6.464
 4231POPC   D2A54496   7.424  19.834   6.764
 4231POPC   C3A54497   7.388  19.851   7.064
 4231POPC   C4A54498   7.404  19.821   7.364
 4231POPC   C1B54499   7.591  19.614   6.464
 4231POPC   C2B54500   7.557  19.706   6.764
 4231POPC   C3B54501   7.647  19.643   7.064
 4231POPC   C4B54502   7.585  19.618   7.364
 4232POPC   NC354503  33.830   6.626   5.564
 4232POPC   PO454504  33.826   6.692   5.864
 4232POPC   GL154505  33.773   6.629   6.164
 4232POPC   GL254506  33.821   6.770   6.164
 4232POPC   C1A54507  33.801   6.595   6.464
 4232POPC   D2A54508  33.773   6.689   6.764
 4232POPC   C3A54509  33.783   6.614   7.064
 4232POPC   C4A54510  33.811   6.666   7.364
 4232POPC   C1B54511  33.754   6.863   6.464
 4232POPC   C2B54512  33.745   6.938   6.764
 4232POPC   C3B54513  33.811   6.921   7.064
 4232POPC   C4B54514  33.812   6.852   7.364
 4233POPC   NC354515  37.693  31.509   5.564
 4233POPC   PO454516  37.708  31.455   5.864
 4233POPC   GL154517  37.661  31.511   6.164
 4233POPC   GL254518  37.754  31.569   6.164
 4233POPC   C1A54519  37.645  31.506   6.464
 4233POPC   D2A54520  37.666  31.438   6.764
 4233POPC   C3A54521  37.666  31.425   7.064
 4233POPC   C4A54522  37.697  31.478   7.364
 4233POPC   C1B54523  37.911  31.624   6.464
 4233POPC   C2B54524  37.867  31.602   6.764
 4233POPC   C3B54525  37.898  31.663   7.064
 4233POPC   C4B54526  37.842  31.577   7.364
 4234POPC   NC354527   2.815  20.569   5.564
 4234POPC   PO454528   2.764  20.631   5.864
 4234POPC   GL154529   2.767  20.617   6.164
 4234POPC   GL254530   2.635  20.695   6.164
 4234POPC   C1A54531   2.795  20.584   6.464
 4234POPC   D2A54532   2.736  20.618   6.764
 4234POPC   C3A54533   2.788  20.611   7.064
 4234POPC   C4A54534   2.736  20.649   7.364
 4234POPC   C1B54535   2.572  20.805   6.464
 4234POPC   C2B54536   2.523  20.775   6.764
 4234POPC   C3B54537   2.562  20.768   7.064
 4234POPC   C4B54538   2.560  20.743   7.364
 4235POPC   NC354539  27.557  23.738   5.564
 4235POPC   PO454540  27.560  23.718   5.864
 4235POPC   GL154541  27.569  23.710   6.164
 4235POPC   GL254542  27.707  23.676   6.164
 4235POPC   C1A54543  27.623  23.685   6.464
 4235POPC   D2A54544  27.631  23.737   6.764
 4235POPC   C3A54545  27.549  23.756   7.064
 4235POPC   C4A54546  27.621  23.679   7.364
 4235POPC   C1B54547  27.875  23.684   6.464
 4235POPC   C2B54548  27.817  23.668   6.764
 4235POPC   C3B54549  27.795  23.633   7.064
 4235POPC   C4B54550  27.839  23.680   7.364
 4236POPC   NC354551  14.439  41.541   5.564
 4236POPC   PO454552  14.356  41.603   5.864
 4236POPC   GL154553  14.395  41.604   6.164
 4236POPC   GL254554  14.471  41.681   6.164
 4236POPC   C1A54555  14.450  41.592   6.464
 4236POPC   D2A54556  14.374  41.539   6.764
 4236POPC   C3A54557  14.359  41.534   7.064
 4236POPC   C4A54558  14.381  41.551   7.364
 4236POPC   C1B54559  14.579  41.774   6.464
 4236POPC   C2B54560  14.615  41.739   6.764
 4236POPC   C3B54561  14.589  41.756   7.064
 4236POPC   C4B54562  14.610  41.733   7.364
 4237POPC   NC354563  22.941  30.665   5.564
 4237POPC   PO454564  22.910  30.717   5.864
 4237POPC   GL154565  22.975  30.713   6.164
 4237POPC   GL254566  23.069  30.712   6.164
 4237POPC   C1A54567  22.925  30.674   6.464
 4237POPC   D2A54568  22.891  30.719   6.764
 4237POPC   C3A54569  22.917  30.705   7.064
 4237POPC   C4A54570  22.901  30.706   7.364
 4237POPC   C1B54571  23.217  30.681   6.464
 4237POPC   C2B54572  23.166  30.663   6.764
 4237POPC   C3B54573  23.195  30.635   7.064
 4237POPC   C4B54574  23.210  30.612   7.364
 4238POPC   NC354575   7.378  12.036   5.564
 4238POPC   PO454576   7.401  12.062   5.864
 4238POPC   GL154577   7.392  12.105   6.164
 4238POPC   GL254578   7.427  11.976   6.164
 4238POPC   C1A54579   7.437  12.090   6.464
 4238POPC   D2A54580   7.452  12.033   6.764
 4238POPC   C3A54581   7.421  12.123   7.064
 4238POPC   C4A54582   7.445  12.044   7.364
 4238POPC   C1B54583   7.394  11.861   6.464
 4238POPC   C2B54584   7.396  11.866   6.764
 4238POPC   C3B54585   7.385  11.854   7.064
 4238POPC   C4B54586   7.434  11.860   7.364
 4239POPC   NC354587   8.246   2.790   5.564
 4239POPC   PO454588   8.158   2.735   5.864
 4239POPC   GL154589   8.232   2.799   6.164
 4239POPC   GL254590   8.313   2.775   6.164
 4239POPC   C1A54591   8.234   2.794   6.464
 4239POPC   D2A54592   8.185   2.753   6.764
 4239POPC   C3A54593   8.232   2.758   7.064
 4239POPC   C4A54594   8.154   2.726   7.364
 4239POPC   C1B54595   8.474   2.790   6.464
 4239POPC   C2B54596   8.441   2.710   6.764
 4239POPC   C3B54597   8.446   2.788   7.064
 4239POPC   C4B54598   8.459   2.721   7.364
 4240POPC   NC354599   8.208  38.432   5.564
 4240POPC   PO454600   8.232  38.475   5.864
 4240POPC   GL154601   8.149  38.502   6.164
 4240POPC   GL254602   8.295  38.555   6.164
 4240POPC   C1A54603   8.187  38.472   6.464
 4240POPC   D2A54604   8.163  38.418   6.764
 4240POPC   C3A54605   8.246  38.501   7.064
 4240POPC   C4A54606   8.193  38.493   7.364
 4240POPC   C1B54607   8.384  38.523   6.464
 4240POPC   C2B54608   8.402  38.597   6.764
 4240POPC   C3B54609   8.439  38.584   7.064
 4240POPC   C4B54610   8.399  38.519   7.364
 4241POPC   NC354611  26.081  12.838   5.564
 4241POPC   PO454612  26.026  12.863   5.864
 4241POPC   GL154613  26.050  12.883   6.164
 4241POPC   GL254614  26.009  12.689   6.164
 4241POPC   C1A54615  26.005  12.870   6.464
 4241POPC   D2A54616  26.074  12.850   6.764
 4241POPC   C3A54617  26.057  12.807   7.064
 4241POPC   C4A54618  26.009  12.901   7.364
 4241POPC   C1B54619  25.914  12.580   6.464
 4241POPC   C2B54620  25.983  12.611   6.764
 4241POPC   C3B54621  25.916  12.594   7.064
 4241POPC   C4B54622  25.995  12.653   7.364
 4242POPC   NC354623  40.018  33.008   5.564
 4242POPC   PO454624  39.958  33.046   5.864
 4242POPC   GL154625  40.035  33.059   6.164
 4242POPC   GL254626  40.004  33.149   6.164
 4242POPC   C1A54627  39.959  33.050   6.464
 4242POPC   D2A54628  39.992  33.014   6.764
 4242POPC   C3A54629  40.029  33.002   7.064
 4242POPC   C4A54630  39.970  33.010   7.364
 4242POPC   C1B54631  39.961  33.295   6.464
 4242POPC   C2B54632  39.943  33.265   6.764
 4242POPC   C3B54633  39.983  33.308   7.064
 4242POPC   C4B54634  39.980  33.221   7.364
 4243POPC   NC354635  15.967   5.053   5.564
 4243POPC   PO454636  15.959   5.049   5.864
 4243POPC   GL154637  16.005   5.119   6.164
 4243POPC   GL254638  15.888   5.201   6.164
 4243POPC   C1A54639  15.998   5.079   6.464
 4243POPC   D2A54640  15.908   5.066   6.764
 4243POPC   C3A54641  15.965   5.055   7.064
 4243POPC   C4A54642  15.999   5.047   7.364
 4243POPC   C1B54643  15.829   5.287   6.464
 4243POPC   C2B54644  15.746   5.287   6.764
 4243POPC   C3B54645  15.760   5.232   7.064
 4243POPC   C4B54646  15.802   5.291   7.364
 4244POPC   NC354647  43.124  13.616   5.564
 4244POPC   PO454648  43.064  13.671   5.864
 4244POPC   GL154649  43.155  13.651   6.164
 4244POPC   GL254650  43.190  13.562   6.164
 4244POPC   C1A54651  43.138  13.604   6.464
 4244POPC   D2A54652  43.097  13.668   6.764
 4244POPC   C3A54653  43.070  13.615   7.064
 4244POPC   C4A54654  43.150  13.599   7.364
 4244POPC   C1B54655  43.359  13.548   6.464
 4244POPC   C2B54656  43.328  13.536   6.764
 4244POPC   C3B54657  43.345  13.556   7.064
 4244POPC   C4B54658  43.333  13.511   7.364
 4245POPC   NC354659   7.444  20.634   5.564
 4245POPC   PO454660   7.397  20.646   5.864
 4245POPC   GL154661   7.392  20.647   6.164
 4245POPC   GL254662   7.360  20.497   6.164
 4245POPC   C1A54663   7.434  20.569   6.464
 4245POPC   D2A54664   7.387  20.572   6.764
 4245POPC   C3A54665   7.441  20.565   7.064
 4245POPC   C4A54666   7.467  20.638   7.364
 4245POPC   C1B54667   7.266  20.363   6.464
 4245POPC   C2B54668   7.287  20.452   6.764
 4245POPC   C3B54669   7.232  20.423   7.064
 4245POPC   C4B54670   7.312  20.368   7.364
 4246POPC   NC354671  30.738  24.523   5.564
 4246POPC   PO454672  30.720  24.503   5.864
 4246POPC   GL154673  30.649  24.453   6.164
 4246POPC   GL254674  30.740  24.326   6.164
 4246POPC   C1A54675  30.649  24.496   6.464
 4246POPC   D2A54676  30.737  24.516   6.764
 4246POPC   C3A54677  30.707  24.480   7.064
 4246POPC   C4A54678  30.691  24.465   7.364
 4246POPC   C1B54679  30.667  24.209   6.464
 4246POPC   C2B54680  30.682  24.212   6.764
 4246POPC   C3B54681  30.752  24.199   7.064
 4246POPC   C4B54682  30.684  24.248   7.364
 4247POPC   NC354683  29.152  14.397   5.564
 4247POPC   PO454684  29.150  14.397   5.864
 4247POPC   GL154685  29.173  14.448   6.164
 4247POPC   GL254686  29.252  14.370   6.164
 4247POPC   C1A54687  29.135  14.394   6.464
 4247POPC   D2A54688  29.179  14.390   6.764
 4247POPC   C3A54689  29.117  14.373   7.064
 4247POPC   C4A54690  29.188  14.366   7.364
 4247POPC   C1B54691  29.293  14.197   6.464
 4247POPC   C2B54692  29.344  14.270   6.764
 4247POPC   C3B54693  29.346  14.279   7.064
 4247POPC   C4B54694  29.284  14.192   7.364
 4248POPC   NC354695  34.534  36.887   5.564
 4248POPC   PO454696  34.607  36.944   5.864
 4248POPC   GL154697  34.587  36.878   6.164
 4248POPC   GL254698  34.703  36.915   6.164
 4248POPC   C1A54699  34.560  36.919   6.464
 4248POPC   D2A54700  34.591  36.941   6.764
 4248POPC   C3A54701  34.536  36.951   7.064
 4248POPC   C4A54702  34.534  36.903   7.364
 4248POPC   C1B54703  34.861  36.918   6.464
 4248POPC   C2B54704  34.795  36.899   6.764
 4248POPC   C3B54705  34.846  36.942   7.064
 4248POPC   C4B54706  34.820  36.968   7.364
 4249POPC   NC354707  19.824  22.908   5.564
 4249POPC   PO454708  19.856  22.980   5.864
 4249POPC   GL154709  19.851  22.965   6.164
 4249POPC   GL254710  19.904  22.851   6.164
 4249POPC   C1A54711  19.862  22.945   6.464
 4249POPC   D2A54712  19.849  22.903   6.764
 4249POPC   C3A54713  19.855  22.954   7.064
 4249POPC   C4A54714  19.851  22.940   7.364
 4249POPC   C1B54715  19.893  22.733   6.464
 4249POPC   C2B54716  19.888  22.745   6.764
 4249POPC   C3B54717  19.870  22.682   7.064
 4249POPC   C4B54718  19.943  22.679   7.364
 4250POPC   NC354719   3.591   5.884   5.564
 4250POPC   PO454720   3.565   5.891   5.864
 4250POPC   GL154721   3.526   5.840   6.164
 4250POPC   GL254722   3.674   5.752   6.164
 4250POPC   C1A54723   3.497   5.856   6.464
 4250POPC   D2A54724   3.530   5.837   6.764
 4250POPC   C3A54725   3.502   5.882   7.064
 4250POPC   C4A54726   3.588   5.858   7.364
 4250POPC   C1B54727   3.708   5.742   6.464
 4250POPC   C2B54728   3.769   5.693   6.764
 4250POPC   C3B54729   3.708   5.676   7.064
 4250POPC   C4B54730   3.706   5.734   7.364
 4251POPC   NC354731  40.801  41.597   5.564
 4251POPC   PO454732  40.762  41.539   5.864
 4251POPC   GL154733  40.758  41.560   6.164
 4251POPC   GL254734  40.694  41.645   6.164
 4251POPC   C1A54735  40.817  41.607   6.464
 4251POPC   D2A54736  40.772  41.558   6.764
 4251POPC   C3A54737  40.783  41.579   7.064
 4251POPC   C4A54738  40.747  41.512   7.364
 4251POPC   C1B54739  40.576  41.720   6.464
 4251POPC   C2B54740  40.604  41.701   6.764
 4251POPC   C3B54741  40.643  41.759   7.064
 4251POPC   C4B54742  40.584  41.794   7.364
 4252POPC   NC354743   7.394  42.349   5.564
 4252POPC   PO454744   7.408  42.364   5.864
 4252POPC   GL154745   7.458  42.346   6.164
 4252POPC   GL254746   7.372  42.261   6.164
 4252POPC   C1A54747   7.422  42.326   6.464
 4252POPC   D2A54748   7.414  42.291   6.764
 4252POPC   C3A54749   7.430  42.343   7.064
 4252POPC   C4A54750   7.468  42.317   7.364
 4252POPC   C1B54751   7.251  42.153   6.464
 4252POPC   C2B54752   7.217  42.174   6.764
 4252POPC   C3B54753   7.215  42.148   7.064
 4252POPC   C4B54754   7.235  42.177   7.364
 4253POPC   NC354755  22.896  36.889   5.564
 4253POPC   PO454756  22.980  36.864   5.864
 4253POPC   GL154757  22.942  36.944   6.164
 4253POPC   GL254758  22.868  36.780   6.164
 4253POPC   C1A54759  22.913  36.902   6.464
 4253POPC   D2A54760  22.963  36.901   6.764
 4253POPC   C3A54761  22.966  36.948   7.064
 4253POPC   C4A54762  22.955  36.922   7.364
 4253POPC   C1B54763  22.799  36.664   6.464
 4253POPC   C2B54764  22.852  36.720   6.764
 4253POPC   C3B54765  22.810  36.650   7.064
 4253POPC   C4B54766  22.801  36.703   7.364
 4254POPC   NC354767   6.644  22.178   5.564
 4254POPC   PO454768   6.629  22.114   5.864
 4254POPC   GL154769   6.645  22.156   6.164
 4254POPC   GL254770   6.636  22.241   6.164
 4254POPC   C1A54771   6.694  22.167   6.464
 4254POPC   D2A54772   6.614  22.182   6.764
 4254POPC   C3A54773   6.681  22.122   7.064
 4254POPC   C4A54774   6.670  22.179   7.364
 4254POPC   C1B54775   6.511  22.372   6.464
 4254POPC   C2B54776   6.517  22.376   6.764
 4254POPC   C3B54777   6.538  22.381   7.064
 4254POPC   C4B54778   6.587  22.406   7.364
 4255POPC   NC354779  32.289  10.562   5.564
 4255POPC   PO454780  32.216  10.527   5.864
 4255POPC   GL154781  32.255  10.528   6.164
 4255POPC   GL254782  32.213  10.680   6.164
 4255POPC   C1A54783  32.228  10.569   6.464
 4255POPC   D2A54784  32.285  10.542   6.764
 4255POPC   C3A54785  32.203  10.512   7.064
 4255POPC   C4A54786  32.254  10.517   7.364
 4255POPC   C1B54787  32.148  10.756   6.464
 4255POPC   C2B54788  32.098  10.786   6.764
 4255POPC   C3B54789  32.157  10.787   7.064
 4255POPC   C4B54790  32.153  10.752   7.364
 4256POPC   NC354791   2.730   9.782   5.564
 4256POPC   PO454792   2.767   9.790   5.864
 4256POPC   GL154793   2.763   9.785   6.164
 4256POPC   GL254794   2.848   9.869   6.164
 4256POPC   C1A54795   2.721   9.700   6.464
 4256POPC   D2A54796   2.779   9.725   6.764
 4256POPC   C3A54797   2.729   9.780   7.064
 4256POPC   C4A54798   2.794   9.790   7.364
 4256POPC   C1B54799   2.937   9.903   6.464
 4256POPC   C2B54800   2.894   9.926   6.764
 4256POPC   C3B54801   2.924   9.941   7.064
 4256POPC   C4B54802   2.982   9.928   7.364
 4257POPC   NC354803  34.589  20.581   5.564
 4257POPC   PO454804  34.619  20.627   5.864
 4257POPC   GL154805  34.544  20.607   6.164
 4257POPC   GL254806  34.607  20.715   6.164
 4257POPC   C1A54807  34.577  20.561   6.464
 4257POPC   D2A54808  34.605  20.637   6.764
 4257POPC   C3A54809  34.546  20.588   7.064
 4257POPC   C4A54810  34.577  20.651   7.364
 4257POPC   C1B54811  34.678  20.878   6.464
 4257POPC   C2B54812  34.598  20.855   6.764
 4257POPC   C3B54813  34.602  20.809   7.064
 4257POPC   C4B54814  34.642  20.860   7.364
 4258POPC   NC354815  13.632   7.408   5.564
 4258POPC   PO454816  13.581   7.407   5.864
 4258POPC   GL154817  13.609   7.459   6.164
 4258POPC   GL254818  13.584   7.273   6.164
 4258POPC   C1A54819  13.656   7.419   6.464
 4258POPC   D2A54820  13.666   7.419   6.764
 4258POPC   C3A54821  13.579   7.460   7.064
 4258POPC   C4A54822  13.668   7.449   7.364
 4258POPC   C1B54823  13.486   7.196   6.464
 4258POPC   C2B54824  13.479   7.175   6.764
 4258POPC   C3B54825  13.518   7.251   7.064
 4258POPC   C4B54826  13.513   7.236   7.364
 4259POPC   NC354827   2.782  27.547   5.564
 4259POPC   PO454828   2.729  27.628   5.864
 4259POPC   GL154829   2.777  27.554   6.164
 4259POPC   GL254830   2.841  27.496   6.164
 4259POPC   C1A54831   2.724  27.625   6.464
 4259POPC   D2A54832   2.804  27.598   6.764
 4259POPC   C3A54833   2.776  27.622   7.064
 4259POPC   C4A54834   2.716  27.612   7.364
 4259POPC   C1B54835   2.849  27.315   6.464
 4259POPC   C2B54836   2.849  27.300   6.764
 4259POPC   C3B54837   2.785  27.381   7.064
 4259POPC   C4B54838   2.818  27.386   7.364
 4260POPC   NC354839  40.034  38.472   5.564
 4260POPC   PO454840  40.022  38.412   5.864
 4260POPC   GL154841  40.007  38.472   6.164
 4260POPC   GL254842  39.846  38.508   6.164
 4260POPC   C1A54843  40.039  38.481   6.464
 4260POPC   D2A54844  40.037  38.480   6.764
 4260POPC   C3A54845  39.970  38.439   7.064
 4260POPC   C4A54846  39.998  38.479   7.364
 4260POPC   C1B54847  39.781  38.469   6.464
 4260POPC   C2B54848  39.800  38.525   6.764
 4260POPC   C3B54849  39.811  38.488   7.064
 4260POPC   C4B54850  39.779  38.492   7.364
 4261POPC   NC354851  29.179  36.921   5.564
 4261POPC   PO454852  29.115  36.952   5.864
 4261POPC   GL154853  29.109  36.943   6.164
 4261POPC   GL254854  29.039  36.793   6.164
 4261POPC   C1A54855  29.169  36.938   6.464
 4261POPC   D2A54856  29.105  36.950   6.764
 4261POPC   C3A54857  29.142  36.941   7.064
 4261POPC   C4A54858  29.095  36.923   7.364
 4261POPC   C1B54859  28.938  36.748   6.464
 4261POPC   C2B54860  29.003  36.690   6.764
 4261POPC   C3B54861  28.954  36.761   7.064
 4261POPC   C4B54862  28.998  36.721   7.364
 4262POPC   NC354863  33.038   5.112   5.564
 4262POPC   PO454864  33.051   5.064   5.864
 4262POPC   GL154865  33.052   5.096   6.164
 4262POPC   GL254866  32.899   5.164   6.164
 4262POPC   C1A54867  33.010   5.074   6.464
 4262POPC   D2A54868  33.046   5.133   6.764
 4262POPC   C3A54869  33.005   5.118   7.064
 4262POPC   C4A54870  32.992   5.093   7.364
 4262POPC   C1B54871  32.870   5.232   6.464
 4262POPC   C2B54872  32.792   5.299   6.764
 4262POPC   C3B54873  32.817   5.251   7.064
 4262POPC   C4B54874  32.806   5.239   7.364
 4263POPC   NC354875   8.952  36.877   5.564
 4263POPC   PO454876   8.975  36.869   5.864
 4263POPC   GL154877   9.018  36.882   6.164
 4263POPC   GL254878   9.071  36.976   6.164
 4263POPC   C1A54879   8.966  36.920   6.464
 4263POPC   D2A54880   8.971  36.875   6.764
 4263POPC   C3A54881   8.968  36.873   7.064
 4263POPC   C4A54882   8.960  36.903   7.364
 4263POPC   C1B54883   9.096  37.146   6.464
 4263POPC   C2B54884   9.102  37.081   6.764
 4263POPC   C3B54885   9.135  37.076   7.064
 4263POPC   C4B54886   9.084  37.122   7.364
 4264POPC   NC354887  26.083  36.888   5.564
 4264POPC   PO454888  25.994  36.855   5.864
 4264POPC   GL154889  26.013  36.917   6.164
 4264POPC   GL254890  26.167  36.875   6.164
 4264POPC   C1A54891  26.001  36.889   6.464
 4264POPC   D2A54892  26.040  36.928   6.764
 4264POPC   C3A54893  26.087  36.913   7.064
 4264POPC   C4A54894  26.083  36.931   7.364
 4264POPC   C1B54895  26.265  36.881   6.464
 4264POPC   C2B54896  26.303  36.864   6.764
 4264POPC   C3B54897  26.265  36.871   7.064
 4264POPC   C4B54898  26.339  36.889   7.364
 4265POPC   NC354899  17.497   4.334   5.564
 4265POPC   PO454900  17.476   4.342   5.864
 4265POPC   GL154901  17.521   4.287   6.164
 4265POPC   GL254902  17.431   4.332   6.164
 4265POPC   C1A54903  17.491   4.365   6.464
 4265POPC   D2A54904  17.542   4.329   6.764
 4265POPC   C3A54905  17.524   4.330   7.064
 4265POPC   C4A54906  17.469   4.294   7.364
 4265POPC   C1B54907  17.278   4.391   6.464
 4265POPC   C2B54908  17.300   4.363   6.764
 4265POPC   C3B54909  17.279   4.349   7.064
 4265POPC   C4B54910  17.273   4.412   7.364
 4266POPC   NC354911  32.227  15.977   5.564
 4266POPC   PO454912  32.207  15.975   5.864
 4266POPC   GL154913  32.241  15.916   6.164
 4266POPC   GL254914  32.387  16.055   6.164
 4266POPC   C1A54915  32.296  15.924   6.464
 4266POPC   D2A54916  32.223  15.943   6.764
 4266POPC   C3A54917  32.264  15.910   7.064
 4266POPC   C4A54918  32.252  15.907   7.364
 4266POPC   C1B54919  32.476  16.121   6.464
 4266POPC   C2B54920  32.449  16.117   6.764
 4266POPC   C3B54921  32.442  16.110   7.064
 4266POPC   C4B54922  32.510  16.084   7.364
 4267POPC   NC354923  36.893   1.171   5.564
 4267POPC   PO454924  36.891   1.179   5.864
 4267POPC   GL154925  36.943   1.207   6.164
 4267POPC   GL254926  36.977   1.098   6.164
 4267POPC   C1A54927  36.933   1.182   6.464
 4267POPC   D2A54928  36.928   1.190   6.764
 4267POPC   C3A54929  36.912   1.259   7.064
 4267POPC   C4A54930  36.921   1.203   7.364
 4267POPC   C1B54931  36.999   1.028   6.464
 4267POPC   C2B54932  37.058   0.971   6.764
 4267POPC   C3B54933  36.996   1.031   7.064
 4267POPC   C4B54934  37.016   0.948   7.364
 4268POPC   NC354935  30.650  30.695   5.564
 4268POPC   PO454936  30.672  30.713   5.864
 4268POPC   GL154937  30.710  30.703   6.164
 4268POPC   GL254938  30.752  30.591   6.164
 4268POPC   C1A54939  30.659  30.716   6.464
 4268POPC   D2A54940  30.673  30.661   6.764
 4268POPC   C3A54941  30.658  30.715   7.064
 4268POPC   C4A54942  30.683  30.656   7.364
 4268POPC   C1B54943  30.866  30.518   6.464
 4268POPC   C2B54944  30.869  30.555   6.764
 4268POPC   C3B54945  30.840  30.550   7.064
 4268POPC   C4B54946  30.846  30.501   7.364
 4269POPC   NC354947  26.782   0.438   5.564
 4269POPC   PO454948  26.787   0.466   5.864
 4269POPC   GL154949  26.847   0.412   6.164
 4269POPC   GL254950  26.772   0.529   6.164
 4269POPC   C1A54951  26.787   0.463   6.464
 4269POPC   D2A54952  26.830   0.481   6.764
 4269POPC   C3A54953  26.803   0.392   7.064
 4269POPC   C4A54954  26.798   0.392   7.364
 4269POPC   C1B54955  26.812   0.679   6.464
 4269POPC   C2B54956  26.806   0.713   6.764
 4269POPC   C3B54957  26.796   0.694   7.064
 4269POPC   C4B54958  26.778   0.650   7.364
 4270POPC   NC354959  34.622  19.822   5.564
 4270POPC   PO454960  34.617  19.805   5.864
 4270POPC   GL154961  34.599  19.865   6.164
 4270POPC   GL254962  34.527  19.955   6.164
 4270POPC   C1A54963  34.537  19.842   6.464
 4270POPC   D2A54964  34.614  19.799   6.764
 4270POPC   C3A54965  34.579  19.790   7.064
 4270POPC   C4A54966  34.569  19.797   7.364
 4270POPC   C1B54967  34.420  20.063   6.464
 4270POPC   C2B54968  34.461  19.996   6.764
 4270POPC   C3B54969  34.378  20.016   7.064
 4270POPC   C4B54970  34.427  20.025   7.364
 4271POPC   NC354971  26.070  40.767   5.564
 4271POPC   PO454972  26.066  40.815   5.864
 4271POPC   GL154973  26.058  40.739   6.164
 4271POPC   GL254974  26.165  40.876   6.164
 4271POPC   C1A54975  26.003  40.788   6.464
 4271POPC   D2A54976  26.030  40.775   6.764
 4271POPC   C3A54977  26.040  40.779   7.064
 4271POPC   C4A54978  26.089  40.767   7.364
 4271POPC   C1B54979  26.219  40.943   6.464
 4271POPC   C2B54980  26.221  40.946   6.764
 4271POPC   C3B54981  26.184  40.972   7.064
 4271POPC   C4B54982  26.250  40.921   7.364
 4272POPC   NC354983   7.462  32.255   5.564
 4272POPC   PO454984   7.376  32.234   5.864
 4272POPC   GL154985   7.466  32.215   6.164
 4272POPC   GL254986   7.489  32.130   6.164
 4272POPC   C1A54987   7.389  32.287   6.464
 4272POPC   D2A54988   7.456  32.246   6.764
 4272POPC   C3A54989   7.393  32.224   7.064
 4272POPC   C4A54990   7.394  32.234   7.364
 4272POPC   C1B54991   7.604  32.081   6.464
 4272POPC   C2B54992   7.579  32.049   6.764
 4272POPC   C3B54993   7.600  32.020   7.064
 4272POPC   C4B54994   7.521  32.005   7.364
 4273POPC   NC354995  10.515   9.705   5.564
 4273POPC   PO454996  10.551   9.700   5.864
 4273POPC   GL154997  10.479   9.773   6.164
 4273POPC   GL254998  10.493   9.575   6.164
 4273POPC   C1A54999  10.493   9.781   6.464
 4273POPC   D2A55000  10.559   9.771   6.764
 4273POPC   C3A55001  10.556   9.752   7.064
 4273POPC   C4A55002  10.483   9.762   7.364
 4273POPC   C1B55003  10.495   9.479   6.464
 4273POPC   C2B55004  10.515   9.452   6.764
 4273POPC   C3B55005  10.548   9.459   7.064
 4273POPC   C4B55006  10.524   9.500   7.364
 4274POPC   NC355007  19.038  37.685   5.564
 4274POPC   PO455008  19.061  37.690   5.864
 4274POPC   GL155009  19.032  37.645   6.164
 4274POPC   GL255010  19.036  37.812   6.164
 4274POPC   C1A55011  19.050  37.727   6.464
 4274POPC   D2A55012  19.024  37.718   6.764
 4274POPC   C3A55013  19.053  37.676   7.064
 4274POPC   C4A55014  19.080  37.638   7.364
 4274POPC   C1B55015  18.972  37.929   6.464
 4274POPC   C2B55016  18.981  37.923   6.764
 4274POPC   C3B55017  19.039  37.958   7.064
 4274POPC   C4B55018  18.962  37.973   7.364
 4275POPC   NC355019   5.046   8.981   5.564
 4275POPC   PO455020   5.045   8.940   5.864
 4275POPC   GL155021   5.138   8.975   6.164
 4275POPC   GL255022   5.199   9.050   6.164
 4275POPC   C1A55023   5.070   8.948   6.464
 4275POPC   D2A55024   5.083   8.965   6.764
 4275POPC   C3A55025   5.052   9.018   7.064
 4275POPC   C4A55026   5.070   8.951   7.364
 4275POPC   C1B55027   5.319   9.135   6.464
 4275POPC   C2B55028   5.296   9.150   6.764
 4275POPC   C3B55029   5.249   9.169   7.064
 4275POPC   C4B55030   5.270   9.142   7.364
 4276POPC   NC355031  27.574  43.093   5.564
 4276POPC   PO455032  27.554  43.112   5.864
 4276POPC   GL155033  27.601  43.079   6.164
 4276POPC   GL255034  27.668  43.041   6.164
 4276POPC   C1A55035  27.544  43.107   6.464
 4276POPC   D2A55036  27.639  43.108   6.764
 4276POPC   C3A55037  27.589  43.065   7.064
 4276POPC   C4A55038  27.599  43.123   7.364
 4276POPC   C1B55039  27.826  42.976   6.464
 4276POPC   C2B55040  27.776  43.004   6.764
 4276POPC   C3B55041  27.780  42.968   7.064
 4276POPC   C4B55042  27.787  43.023   7.364
 4277POPC   NC355043  24.480  26.047   5.564
 4277POPC   PO455044  24.506  25.996   5.864
 4277POPC   GL155045  24.475  26.064   6.164
 4277POPC   GL255046  24.387  26.125   6.164
 4277POPC   C1A55047  24.512  26.075   6.464
 4277POPC   D2A55048  24.505  26.069   6.764
 4277POPC   C3A55049  24.518  26.064   7.064
 4277POPC   C4A55050  24.454  26.074   7.364
 4277POPC   C1B55051  24.396  26.298   6.464
 4277POPC   C2B55052  24.344  26.225   6.764
 4277POPC   C3B55053  24.342  26.217   7.064
 4277POPC   C4B55054  24.327  26.306   7.364
 4278POPC   NC355055   0.486   1.990   5.564
 4278POPC   PO455056   0.480   2.036   5.864
 4278POPC   GL155057   0.420   1.975   6.164
 4278POPC   GL255058   0.503   2.069   6.164
 4278POPC   C1A55059   0.397   1.986   6.464
 4278POPC   D2A55060   0.407   1.998   6.764
 4278POPC   C3A55061   0.441   1.947   7.064
 4278POPC   C4A55062   0.456   1.963   7.364
 4278POPC   C1B55063   0.572   2.174   6.464
 4278POPC   C2B55064   0.593   2.137   6.764
 4278POPC   C3B55065   0.561   2.134   7.064
 4278POPC   C4B55066   0.603   2.210   7.364
 4279POPC   NC355067  29.153  15.132   5.564
 4279POPC   PO455068  29.112  15.200   5.864
 4279POPC   GL155069  29.157  15.198   6.164
 4279POPC   GL255070  29.107  15.050   6.164
 4279POPC   C1A55071  29.136  15.224   6.464
 4279POPC   D2A55072  29.100  15.186   6.764
 4279POPC   C3A55073  29.127  15.141   7.064
 4279POPC   C4A55074  29.176  15.206   7.364
 4279POPC   C1B55075  29.021  14.958   6.464
 4279POPC   C2B55076  29.017  15.036   6.764
 4279POPC   C3B55077  29.029  15.016   7.064
 4279POPC   C4B55078  29.025  15.010   7.364
 4280POPC   NC355079   0.399   5.062   5.564
 4280POPC   PO455080   0.451   5.141   5.864
 4280POPC   GL155081   0.389   5.066   6.164
 4280POPC   GL255082   0.525   5.040   6.164
 4280POPC   C1A55083   0.466   5.111   6.464
 4280POPC   D2A55084   0.486   5.138   6.764
 4280POPC   C3A55085   0.454   5.058   7.064
 4280POPC   C4A55086   0.394   5.083   7.364
 4280POPC   C1B55087   0.636   4.956   6.464
 4280POPC   C2B55088   0.689   5.020   6.764
 4280POPC   C3B55089   0.640   4.962   7.064
 4280POPC   C4B55090   0.663   4.938   7.364
 4281POPC   NC355091   1.222  24.500   5.564
 4281POPC   PO455092   1.248  24.506   5.864
 4281POPC   GL155093   1.183  24.460   6.164
 4281POPC   GL255094   1.313  24.626   6.164
 4281POPC   C1A55095   1.208  24.450   6.464
 4281POPC   D2A55096   1.203  24.478   6.764
 4281POPC   C3A55097   1.249  24.454   7.064
 4281POPC   C4A55098   1.228  24.485   7.364
 4281POPC   C1B55099   1.363  24.677   6.464
 4281POPC   C2B55100   1.277  24.742   6.764
 4281POPC   C3B55101   1.270  24.689   7.064
 4281POPC   C4B55102   1.357  24.749   7.364
 4282POPC   NC355103  42.292  24.453   5.564
 4282POPC   PO455104  42.286  24.460   5.864
 4282POPC   GL155105  42.381  24.492   6.164
 4282POPC   GL255106  42.445  24.542   6.164
 4282POPC   C1A55107  42.295  24.537   6.464
 4282POPC   D2A55108  42.350  24.513   6.764
 4282POPC   C3A55109  42.342  24.526   7.064
 4282POPC   C4A55110  42.310  24.457   7.364
 4282POPC   C1B55111  42.475  24.653   6.464
 4282POPC   C2B55112  42.546  24.706   6.764
 4282POPC   C3B55113  42.551  24.713   7.064
 4282POPC   C4B55114  42.527  24.649   7.364
 4283POPC   NC355115   2.004  19.038   5.564
 4283POPC   PO455116   1.971  19.097   5.864
 4283POPC   GL155117   2.015  19.061   6.164
 4283POPC   GL255118   1.875  19.122   6.164
 4283POPC   C1A55119   2.037  19.062   6.464
 4283POPC   D2A55120   1.957  19.104   6.764
 4283POPC   C3A55121   1.976  19.055   7.064
 4283POPC   C4A55122   1.949  19.014   7.364
 4283POPC   C1B55123   1.849  19.194   6.464
 4283POPC   C2B55124   1.845  19.217   6.764
 4283POPC   C3B55125   1.769  19.211   7.064
 4283POPC   C4B55126   1.812  19.245   7.364
 4284POPC   NC355127  43.876  19.087   5.564
 4284POPC   PO455128  43.920  19.034   5.864
 4284POPC   GL155129  43.867  19.058   6.164
 4284POPC   GL255130  44.010  19.056   6.164
 4284POPC   C1A55131  43.898  19.096   6.464
 4284POPC   D2A55132  43.849  19.038   6.764
 4284POPC   C3A55133  43.886  19.077   7.064
 4284POPC   C4A55134  43.844  19.056   7.364
 4284POPC   C1B55135  44.170  19.066   6.464
 4284POPC   C2B55136  44.152  18.981   6.764
 4284POPC   C3B55137  44.136  19.064   7.064
 4284POPC   C4B55138  44.153  19.002   7.364
 4285POPC   NC355139  18.280  22.127   5.564
 4285POPC   PO455140  18.243  22.140   5.864
 4285POPC   GL155141  18.313  22.178   6.164
 4285POPC   GL255142  18.350  22.048   6.164
 4285POPC   C1A55143  18.322  22.170   6.464
 4285POPC   D2A55144  18.280  22.127   6.764
 4285POPC   C3A55145  18.287  22.199   7.064
 4285POPC   C4A55146  18.286  22.210   7.364
 4285POPC   C1B55147  18.407  21.908   6.464
 4285POPC   C2B55148  18.420  21.897   6.764
 4285POPC   C3B55149  18.388  21.897   7.064
 4285POPC   C4B55150  18.376  21.957   7.364
 4286POPC   NC355151  16.746  22.188   5.564
 4286POPC   PO455152  16.749  22.149   5.864
 4286POPC   GL155153  16.688  22.167   6.164
 4286POPC   GL255154  16.774  22.289   6.164
 4286POPC   C1A55155  16.751  22.125   6.464
 4286POPC   D2A55156  16.761  22.161   6.764
 4286POPC   C3A55157  16.723  22.142   7.064
 4286POPC   C4A55158  16.703  22.190   7.364
 4286POPC   C1B55159  16.898  22.373   6.464
 4286POPC   C2B55160  16.899  22.339   6.764
 4286POPC   C3B55161  16.821  22.325   7.064
 4286POPC   C4B55162  16.909  22.417   7.364
 4287POPC   NC355163  40.777  26.030   5.564
 4287POPC   PO455164  40.763  26.031   5.864
 4287POPC   GL155165  40.763  26.067   6.164
 4287POPC   GL255166  40.717  25.936   6.164
 4287POPC   C1A55167  40.784  26.071   6.464
 4287POPC   D2A55168  40.733  26.069   6.764
 4287POPC   C3A55169  40.796  25.992   7.064
 4287POPC   C4A55170  40.769  26.058   7.364
 4287POPC   C1B55171  40.749  25.824   6.464
 4287POPC   C2B55172  40.743  25.786   6.764
 4287POPC   C3B55173  40.677  25.843   7.064
 4287POPC   C4B55174  40.762  25.819   7.364
 4288POPC   NC355175  15.946  35.303   5.564
 4288POPC   PO455176  15.910  35.379   5.864
 4288POPC   GL155177  15.994  35.336   6.164
 4288POPC   GL255178  16.055  35.312   6.164
 4288POPC   C1A55179  15.935  35.380   6.464
 4288POPC   D2A55180  16.004  35.320   6.764
 4288POPC   C3A55181  15.935  35.355   7.064
 4288POPC   C4A55182  15.993  35.367   7.364
 4288POPC   C1B55183  16.112  35.164   6.464
 4288POPC   C2B55184  16.131  35.241   6.764
 4288POPC   C3B55185  16.140  35.158   7.064
 4288POPC   C4B55186  16.146  35.156   7.364
 4289POPC   NC355187  30.663  32.279   5.564
 4289POPC   PO455188  30.678  32.238   5.864
 4289POPC   GL155189  30.655  32.243   6.164
 4289POPC   GL255190  30.616  32.395   6.164
 4289POPC   C1A55191  30.670  32.294   6.464
 4289POPC   D2A55192  30.657  32.252   6.764
 4289POPC   C3A55193  30.661  32.254   7.064
 4289POPC   C4A55194  30.669  32.221   7.364
 4289POPC   C1B55195  30.592  32.481   6.464
 4289POPC   C2B55196  30.609  32.419   6.764
 4289POPC   C3B55197  30.610  32.408   7.064
 4289POPC   C4B55198  30.581  32.467   7.364
 4290POPC   NC355199  12.105   3.543   5.564
 4290POPC   PO455200  12.055   3.504   5.864
 4290POPC   GL155201  12.109   3.548   6.164
 4290POPC   GL255202  12.107   3.707   6.164
 4290POPC   C1A55203  12.105   3.570   6.464
 4290POPC   D2A55204  12.107   3.547   6.764
 4290POPC   C3A55205  12.045   3.524   7.064
 4290POPC   C4A55206  12.051   3.549   7.364
 4290POPC   C1B55207  12.187   3.756   6.464
 4290POPC   C2B55208  12.090   3.736   6.764
 4290POPC   C3B55209  12.163   3.769   7.064
 4290POPC   C4B55210  12.149   3.768   7.364
 4291POPC   NC355211   2.773   8.945   5.564
 4291POPC   PO455212   2.743   9.001   5.864
 4291POPC   GL155213   2.800   8.992   6.164
 4291POPC   GL255214   2.915   8.964   6.164
 4291POPC   C1A55215   2.808   8.956   6.464
 4291POPC   D2A55216   2.759   8.984   6.764
 4291POPC   C3A55217   2.731   8.983   7.064
 4291POPC   C4A55218   2.737   9.002   7.364
 4291POPC   C1B55219   3.012   8.997   6.464
 4291POPC   C2B55220   3.015   8.975   6.764
 4291POPC   C3B55221   2.994   9.006   7.064
 4291POPC   C4B55222   2.998   8.951   7.364
 4292POPC   NC355223  24.537  44.648   5.564
 4292POPC   PO455224  24.538  44.690   5.864
 4292POPC   GL155225  24.527  44.677   6.164
 4292POPC   GL255226  24.364  44.659   6.164
 4292POPC   C1A55227  24.486  44.671   6.464
 4292POPC   D2A55228  24.536  44.631   6.764
 4292POPC   C3A55229  24.527  44.634   7.064
 4292POPC   C4A55230  24.452  44.701   7.364
 4292POPC   C1B55231  24.236  44.558   6.464
 4292POPC   C2B55232  24.287  44.589   6.764
 4292POPC   C3B55233  24.241  44.634   7.064
 4292POPC   C4B55234  24.220  44.560   7.364
 4293POPC   NC355235  13.632  19.855   5.564
 4293POPC   PO455236  13.590  19.835   5.864
 4293POPC   GL155237  13.668  19.875   6.164
 4293POPC   GL255238  13.785  19.930   6.164
 4293POPC   C1A55239  13.617  19.877   6.464
 4293POPC   D2A55240  13.608  19.799   6.764
 4293POPC   C3A55241  13.606  19.831   7.064
 4293POPC   C4A55242  13.590  19.798   7.364
 4293POPC   C1B55243  13.896  19.910   6.464
 4293POPC   C2B55244  13.853  19.999   6.764
 4293POPC   C3B55245  13.813  19.914   7.064
 4293POPC   C4B55246  13.818  19.917   7.364
 4294POPC   NC355247  39.969  20.572   5.564
 4294POPC   PO455248  40.056  20.609   5.864
 4294POPC   GL155249  40.008  20.597   6.164
 4294POPC   GL255250  39.855  20.492   6.164
 4294POPC   C1A55251  39.999  20.645   6.464
 4294POPC   D2A55252  40.032  20.587   6.764
 4294POPC   C3A55253  40.015  20.647   7.064
 4294POPC   C4A55254  39.985  20.605   7.364
 4294POPC   C1B55255  39.812  20.508   6.464
 4294POPC   C2B55256  39.850  20.489   6.764
 4294POPC   C3B55257  39.814  20.500   7.064
 4294POPC   C4B55258  39.832  20.430   7.364
 4295POPC   NC355259  12.084   5.098   5.564
 4295POPC   PO455260  12.080   5.086   5.864
 4295POPC   GL155261  12.066   5.087   6.164
 4295POPC   GL255262  12.015   5.193   6.164
 4295POPC   C1A55263  12.043   5.109   6.464
 4295POPC   D2A55264  12.116   5.100   6.764
 4295POPC   C3A55265  12.075   5.124   7.064
 4295POPC   C4A55266  12.048   5.066   7.364
 4295POPC   C1B55267  12.043   5.293   6.464
 4295POPC   C2B55268  12.007   5.381   6.764
 4295POPC   C3B55269  12.001   5.306   7.064
 4295POPC   C4B55270  11.982   5.330   7.364
 4296POPC   NC355271  20.653  41.572   5.564
 4296POPC   PO455272  20.620  41.600   5.864
 4296POPC   GL155273  20.579  41.597   6.164
 4296POPC   GL255274  20.646  41.480   6.164
 4296POPC   C1A55275  20.625  41.580   6.464
 4296POPC   D2A55276  20.588  41.573   6.764
 4296POPC   C3A55277  20.563  41.543   7.064
 4296POPC   C4A55278  20.623  41.592   7.364
 4296POPC   C1B55279  20.689  41.351   6.464
 4296POPC   C2B55280  20.727  41.383   6.764
 4296POPC   C3B55281  20.677  41.301   7.064
 4296POPC   C4B55282  20.692  41.334   7.364
 4297POPC   NC355283  37.692  37.711   5.564
 4297POPC   PO455284  37.705  37.718   5.864
 4297POPC   GL155285  37.694  37.656   6.164
 4297POPC   GL255286  37.540  37.747   6.164
 4297POPC   C1A55287  37.649  37.694   6.464
 4297POPC   D2A55288  37.646  37.699   6.764
 4297POPC   C3A55289  37.678  37.641   7.064
 4297POPC   C4A55290  37.632  37.689   7.364
 4297POPC   C1B55291  37.463  37.813   6.464
 4297POPC   C2B55292  37.482  37.812   6.764
 4297POPC   C3B55293  37.458  37.853   7.064
 4297POPC   C4B55294  37.510  37.809   7.364
 4298POPC   NC355295  39.957  19.102   5.564
 4298POPC   PO455296  39.989  19.092   5.864
 4298POPC   GL155297  39.971  19.052   6.164
 4298POPC   GL255298  39.903  18.961   6.164
 4298POPC   C1A55299  39.957  19.096   6.464
 4298POPC   D2A55300  40.015  19.023   6.764
 4298POPC   C3A55301  40.015  19.108   7.064
 4298POPC   C4A55302  39.999  19.094   7.364
 4298POPC   C1B55303  39.850  18.874   6.464
 4298POPC   C2B55304  39.831  18.836   6.764
 4298POPC   C3B55305  39.860  18.823   7.064
 4298POPC   C4B55306  39.825  18.842   7.364
 4299POPC   NC355307   0.480  13.591   5.564
 4299POPC   PO455308   0.468  13.676   5.864
 4299POPC   GL155309   0.425  13.659   6.164
 4299POPC   GL255310   0.593  13.616   6.164
 4299POPC   C1A55311   0.475  13.582   6.464
 4299POPC   D2A55312   0.454  13.637   6.764
 4299POPC   C3A55313   0.417  13.652   7.064
 4299POPC   C4A55314   0.476  13.611   7.364
 4299POPC   C1B55315   0.691  13.640   6.464
 4299POPC   C2B55316   0.727  13.665   6.764
 4299POPC   C3B55317   0.656  13.692   7.064
 4299POPC   C4B55318   0.711  13.684   7.364
 4300POPC   NC355319  25.256   8.977   5.564
 4300POPC   PO455320  25.253   8.992   5.864
 4300POPC   GL155321  25.291   8.925   6.164
 4300POPC   GL255322  25.363   9.019   6.164
 4300POPC   C1A55323  25.242   8.933   6.464
 4300POPC   D2A55324  25.252   8.931   6.764
 4300POPC   C3A55325  25.310   9.017   7.064
 4300POPC   C4A55326  25.281   9.020   7.364
 4300POPC   C1B55327  25.462   9.065   6.464
 4300POPC   C2B55328  25.447   9.138   6.764
 4300POPC   C3B55329  25.501   9.071   7.064
 4300POPC   C4B55330  25.467   9.119   7.364
 4301POPC   NC355331  38.420  34.586   5.564
 4301POPC   PO455332  38.458  34.546   5.864
 4301POPC   GL155333  38.439  34.572   6.164
 4301POPC   GL255334  38.405  34.463   6.164
 4301POPC   C1A55335  38.471  34.621   6.464
 4301POPC   D2A55336  38.459  34.594   6.764
 4301POPC   C3A55337  38.460  34.580   7.064
 4301POPC   C4A55338  38.426  34.551   7.364
 4301POPC   C1B55339  38.411  34.341   6.464
 4301POPC   C2B55340  38.423  34.291   6.764
 4301POPC   C3B55341  38.475  34.279   7.064
 4301POPC   C4B55342  38.405  34.320   7.364
 4302POPC   NC355343  23.749   1.262   5.564
 4302POPC   PO455344  23.692   1.215   5.864
 4302POPC   GL155345  23.724   1.235   6.164
 4302POPC   GL255346  23.661   1.330   6.164
 4302POPC   C1A55347  23.731   1.186   6.464
 4302POPC   D2A55348  23.677   1.188   6.764
 4302POPC   C3A55349  23.711   1.179   7.064
 4302POPC   C4A55350  23.679   1.237   7.364
 4302POPC   C1B55351  23.603   1.421   6.464
 4302POPC   C2B55352  23.578   1.458   6.764
 4302POPC   C3B55353  23.573   1.384   7.064
 4302POPC   C4B55354  23.553   1.371   7.364
 4303POPC   NC355355  16.773  12.888   5.564
 4303POPC   PO455356  16.708  12.859   5.864
 4303POPC   GL155357  16.770  12.831   6.164
 4303POPC   GL255358  16.872  12.870   6.164
 4303POPC   C1A55359  16.702  12.805   6.464
 4303POPC   D2A55360  16.737  12.855   6.764
 4303POPC   C3A55361  16.768  12.802   7.064
 4303POPC   C4A55362  16.723  12.884   7.364
 4303POPC   C1B55363  16.997  12.880   6.464
 4303POPC   C2B55364  17.030  12.859   6.764
 4303POPC   C3B55365  16.978  12.908   7.064
 4303POPC   C4B55366  17.012  12.833   7.364
 4304POPC   NC355367  24.524   9.792   5.564
 4304POPC   PO455368  24.448   9.736   5.864
 4304POPC   GL155369  24.512   9.724   6.164
 4304POPC   GL255370  24.446   9.584   6.164
 4304POPC   C1A55371  24.518   9.773   6.464
 4304POPC   D2A55372  24.503   9.758   6.764
 4304POPC   C3A55373  24.450   9.729   7.064
 4304POPC   C4A55374  24.483   9.765   7.364
 4304POPC   C1B55375  24.503   9.494   6.464
 4304POPC   C2B55376  24.434   9.487   6.764
 4304POPC   C3B55377  24.508   9.449   7.064
 4304POPC   C4B55378  24.487   9.508   7.364
 4305POPC   NC355379  44.688  41.516   5.564
 4305POPC   PO455380  44.648  41.549   5.864
 4305POPC   GL155381  44.632  41.533   6.164
 4305POPC   GL255382  44.603  41.439   6.164
 4305POPC   C1A55383  44.641  41.555   6.464
 4305POPC   D2A55384  44.658  41.541   6.764
 4305POPC   C3A55385  44.694  41.536   7.064
 4305POPC   C4A55386  44.711  41.524   7.364
 4305POPC   C1B55387  44.576  41.312   6.464
 4305POPC   C2B55388  44.658  41.278   6.764
 4305POPC   C3B55389  44.624  41.345   7.064
 4305POPC   C4B55390  44.605  41.286   7.364
 4306POPC   NC355391  12.119   9.713   5.564
 4306POPC   PO455392  12.065   9.732   5.864
 4306POPC   GL155393  12.036   9.789   6.164
 4306POPC   GL255394  12.027   9.657   6.164
 4306POPC   C1A55395  12.031   9.709   6.464
 4306POPC   D2A55396  12.056   9.790   6.764
 4306POPC   C3A55397  12.087   9.718   7.064
 4306POPC   C4A55398  12.053   9.712   7.364
 4306POPC   C1B55399  11.946   9.568   6.464
 4306POPC   C2B55400  11.963   9.585   6.764
 4306POPC   C3B55401  11.904   9.599   7.064
 4306POPC   C4B55402  11.967   9.544   7.364
 4307POPC   NC355403  25.304  44.615   5.564
 4307POPC   PO455404  25.305  44.646   5.864
 4307POPC   GL155405  25.292  44.629   6.164
 4307POPC   GL255406  25.268  44.562   6.164
 4307POPC   C1A55407  25.302  44.689   6.464
 4307POPC   D2A55408  25.293  44.618   6.764
 4307POPC   C3A55409  25.304  44.657   7.064
 4307POPC   C4A55410  25.229  44.647   7.364
 4307POPC   C1B55411  25.362  44.467   6.464
 4307POPC   C2B55412  25.367  44.453   6.764
 4307POPC   C3B55413  25.353  44.469   7.064
 4307POPC   C4B55414  25.373  44.465   7.364
 4308POPC   NC355415  15.207  15.130   5.564
 4308POPC   PO455416  15.206  15.221   5.864
 4308POPC   GL155417  15.151  15.146   6.164
 4308POPC   GL255418  15.161  15.267   6.164
 4308POPC   C1A55419  15.166  15.131   6.464
 4308POPC   D2A55420  15.136  15.172   6.764
 4308POPC   C3A55421  15.215  15.216   7.064
 4308POPC   C4A55422  15.137  15.147   7.364
 4308POPC   C1B55423  15.260  15.377   6.464
 4308POPC   C2B55424  15.241  15.379   6.764
 4308POPC   C3B55425  15.256  15.446   7.064
 4308POPC   C4B55426  15.189  15.397   7.364
 4309POPC   NC355427  33.843  27.573   5.564
 4309POPC   PO455428  33.772  27.598   5.864
 4309POPC   GL155429  33.751  27.576   6.164
 4309POPC   GL255430  33.661  27.572   6.164
 4309POPC   C1A55431  33.832  27.633   6.464
 4309POPC   D2A55432  33.783  27.592   6.764
 4309POPC   C3A55433  33.766  27.641   7.064
 4309POPC   C4A55434  33.814  27.573   7.364
 4309POPC   C1B55435  33.581  27.440   6.464
 4309POPC   C2B55436  33.547  27.478   6.764
 4309POPC   C3B55437  33.545  27.477   7.064
 4309POPC   C4B55438  33.591  27.415   7.364
 4310POPC   NC355439   6.689  31.457   5.564
 4310POPC   PO455440   6.626  31.438   5.864
 4310POPC   GL155441   6.606  31.430   6.164
 4310POPC   GL255442   6.498  31.550   6.164
 4310POPC   C1A55443   6.684  31.522   6.464
 4310POPC   D2A55444   6.612  31.425   6.764
 4310POPC   C3A55445   6.681  31.481   7.064
 4310POPC   C4A55446   6.597  31.457   7.364
 4310POPC   C1B55447   6.391  31.593   6.464
 4310POPC   C2B55448   6.404  31.599   6.764
 4310POPC   C3B55449   6.415  31.547   7.064
 4310POPC   C4B55450   6.438  31.583   7.364
 4311POPC   NC355451  22.939  31.471   5.564
 4311POPC   PO455452  22.974  31.520   5.864
 4311POPC   GL155453  22.939  31.453   6.164
 4311POPC   GL255454  22.774  31.457   6.164
 4311POPC   C1A55455  22.944  31.447   6.464
 4311POPC   D2A55456  22.899  31.473   6.764
 4311POPC   C3A55457  22.922  31.466   7.064
 4311POPC   C4A55458  22.966  31.435   7.364
 4311POPC   C1B55459  22.701  31.437   6.464
 4311POPC   C2B55460  22.665  31.486   6.764
 4311POPC   C3B55461  22.649  31.482   7.064
 4311POPC   C4B55462  22.670  31.468   7.364
 4312POPC   NC355463  21.355   9.022   5.564
 4312POPC   PO455464  21.381   8.950   5.864
 4312POPC   GL155465  21.419   8.966   6.164
 4312POPC   GL255466  21.213   8.934   6.164
 4312POPC   C1A55467  21.368   9.011   6.464
 4312POPC   D2A55468  21.386   9.006   6.764
 4312POPC   C3A55469  21.426   8.974   7.064
 4312POPC   C4A55470  21.415   8.984   7.364
 4312POPC   C1B55471  21.176   8.968   6.464
 4312POPC   C2B55472  21.121   8.936   6.764
 4312POPC   C3B55473  21.116   8.976   7.064
 4312POPC   C4B55474  21.122   8.926   7.364
 4313POPC   NC355475  16.703  44.652   5.564
 4313POPC   PO455476  16.708  44.674   5.864
 4313POPC   GL155477  16.699  44.684   6.164
 4313POPC   GL255478  16.717  44.762   6.164
 4313POPC   C1A55479  16.691  44.680   6.464
 4313POPC   D2A55480  16.688  44.634   6.764
 4313POPC   C3A55481  16.746  44.666   7.064
 4313POPC   C4A55482  16.769  44.711   7.364
 4313POPC   C1B55483  16.704  44.870   6.464
 4313POPC   C2B55484  16.614  44.895   6.764
 4313POPC   C3B55485  16.667  44.881   7.064
 4313POPC   C4B55486  16.693  44.921   7.364
 4314POPC   NC355487  35.401   9.008   5.564
 4314POPC   PO455488  35.348   8.924   5.864
 4314POPC   GL155489  35.379   9.020   6.164
 4314POPC   GL255490  35.291   8.944   6.164
 4314POPC   C1A55491  35.304   8.963   6.464
 4314POPC   D2A55492  35.388   8.927   6.764
 4314POPC   C3A55493  35.381   8.969   7.064
 4314POPC   C4A55494  35.309   8.999   7.364
 4314POPC   C1B55495  35.132   8.800   6.464
 4314POPC   C2B55496  35.096   8.849   6.764
 4314POPC   C3B55497  35.151   8.824   7.064
 4314POPC   C4B55498  35.141   8.846   7.364
 4315POPC   NC355499  13.652  22.888   5.564
 4315POPC   PO455500  13.631  22.919   5.864
 4315POPC   GL155501  13.606  22.969   6.164
 4315POPC   GL255502  13.744  22.931   6.164
 4315POPC   C1A55503  13.674  22.942   6.464
 4315POPC   D2A55504  13.604  22.896   6.764
 4315POPC   C3A55505  13.646  22.947   7.064
 4315POPC   C4A55506  13.659  22.974   7.364
 4315POPC   C1B55507  13.855  22.986   6.464
 4315POPC   C2B55508  13.890  23.013   6.764
 4315POPC   C3B55509  13.914  22.944   7.064
 4315POPC   C4B55510  13.918  22.957   7.364
 4316POPC   NC355511  31.440  28.414   5.564
 4316POPC   PO455512  31.503  28.387   5.864
 4316POPC   GL155513  31.472  28.399   6.164
 4316POPC   GL255514  31.372  28.242   6.164
 4316POPC   C1A55515  31.481  28.377   6.464
 4316POPC   D2A55516  31.430  28.390   6.764
 4316POPC   C3A55517  31.469  28.370   7.064
 4316POPC   C4A55518  31.475  28.343   7.364
 4316POPC   C1B55519  31.337  28.223   6.464
 4316POPC   C2B55520  31.306  28.239   6.764
 4316POPC   C3B55521  31.338  28.210   7.064
 4316POPC   C4B55522  31.265  28.235   7.364
 4317POPC   NC355523  39.209   8.226   5.564
 4317POPC   PO455524  39.214   8.211   5.864
 4317POPC   GL155525  39.204   8.200   6.164
 4317POPC   GL255526  39.125   8.255   6.164
 4317POPC   C1A55527  39.242   8.193   6.464
 4317POPC   D2A55528  39.218   8.201   6.764
 4317POPC   C3A55529  39.271   8.156   7.064
 4317POPC   C4A55530  39.227   8.213   7.364
 4317POPC   C1B55531  39.043   8.291   6.464
 4317POPC   C2B55532  38.972   8.316   6.764
 4317POPC   C3B55533  38.993   8.235   7.064
 4317POPC   C4B55534  39.022   8.321   7.364
 4318POPC   NC355535   6.625  38.464   5.564
 4318POPC   PO455536   6.679  38.505   5.864
 4318POPC   GL155537   6.645  38.504   6.164
 4318POPC   GL255538   6.737  38.426   6.164
 4318POPC   C1A55539   6.627  38.424   6.464
 4318POPC   D2A55540   6.665  38.504   6.764
 4318POPC   C3A55541   6.692  38.467   7.064
 4318POPC   C4A55542   6.657  38.428   7.364
 4318POPC   C1B55543   6.942  38.453   6.464
 4318POPC   C2B55544   6.919  38.457   6.764
 4318POPC   C3B55545   6.909  38.480   7.064
 4318POPC   C4B55546   6.923  38.477   7.364
 4319POPC   NC355547  42.330   9.714   5.564
 4319POPC   PO455548  42.291   9.749   5.864
 4319POPC   GL155549  42.340   9.719   6.164
 4319POPC   GL255550  42.317   9.615   6.164
 4319POPC   C1A55551  42.345   9.790   6.464
 4319POPC   D2A55552  42.370   9.752   6.764
 4319POPC   C3A55553  42.354   9.718   7.064
 4319POPC   C4A55554  42.309   9.780   7.364
 4319POPC   C1B55555  42.250   9.510   6.464
 4319POPC   C2B55556  42.232   9.516   6.764
 4319POPC   C3B55557  42.234   9.477   7.064
 4319POPC   C4B55558  42.221   9.485   7.364
 4320POPC   NC355559  12.864  14.384   5.564
 4320POPC   PO455560  12.823  14.420   5.864
 4320POPC   GL155561  12.846  14.450   6.164
 4320POPC   GL255562  12.805  14.449   6.164
 4320POPC   C1A55563  12.866  14.406   6.464
 4320POPC   D2A55564  12.842  14.380   6.764
 4320POPC   C3A55565  12.806  14.382   7.064
 4320POPC   C4A55566  12.820  14.401   7.364
 4320POPC   C1B55567  12.690  14.615   6.464
 4320POPC   C2B55568  12.687  14.629   6.764
 4320POPC   C3B55569  12.662  14.617   7.064
 4320POPC   C4B55570  12.660  14.618   7.364
 4321POPC   NC355571   5.885  35.361   5.564
 4321POPC   PO455572   5.891  35.341   5.864
 4321POPC   GL155573   5.910  35.395   6.164
 4321POPC   GL255574   6.009  35.428   6.164
 4321POPC   C1A55575   5.905  35.343   6.464
 4321POPC   D2A55576   5.871  35.390   6.764
 4321POPC   C3A55577   5.879  35.321   7.064
 4321POPC   C4A55578   5.911  35.322   7.364
 4321POPC   C1B55579   6.115  35.434   6.464
 4321POPC   C2B55580   6.081  35.372   6.764
 4321POPC   C3B55581   6.124  35.382   7.064
 4321POPC   C4B55582   6.071  35.391   7.364
 4322POPC   NC355583   3.528  40.820   5.564
 4322POPC   PO455584   3.557  40.746   5.864
 4322POPC   GL155585   3.525  40.806   6.164
 4322POPC   GL255586   3.513  40.693   6.164
 4322POPC   C1A55587   3.540  40.822   6.464
 4322POPC   D2A55588   3.552  40.812   6.764
 4322POPC   C3A55589   3.582  40.822   7.064
 4322POPC   C4A55590   3.492  40.755   7.364
 4322POPC   C1B55591   3.449  40.551   6.464
 4322POPC   C2B55592   3.480  40.586   6.764
 4322POPC   C3B55593   3.440  40.511   7.064
 4322POPC   C4B55594   3.462  40.582   7.364
 4323POPC   NC355595  35.313  40.810   5.564
 4323POPC   PO455596  35.309  40.739   5.864
 4323POPC   GL155597  35.380  40.792   6.164
 4323POPC   GL255598  35.315  40.928   6.164
 4323POPC   C1A55599  35.382  40.733   6.464
 4323POPC   D2A55600  35.356  40.800   6.764
 4323POPC   C3A55601  35.314  40.808   7.064
 4323POPC   C4A55602  35.339  40.735   7.364
 4323POPC   C1B55603  35.244  41.009   6.464
 4323POPC   C2B55604  35.224  41.009   6.764
 4323POPC   C3B55605  35.208  41.035   7.064
 4323POPC   C4B55606  35.169  40.980   7.364
 4324POPC   NC355607   3.532  12.077   5.564
 4324POPC   PO455608   3.509  12.077   5.864
 4324POPC   GL155609   3.532  12.098   6.164
 4324POPC   GL255610   3.508  11.980   6.164
 4324POPC   C1A55611   3.495  12.117   6.464
 4324POPC   D2A55612   3.583  12.093   6.764
 4324POPC   C3A55613   3.561  12.114   7.064
 4324POPC   C4A55614   3.518  12.084   7.364
 4324POPC   C1B55615   3.493  11.859   6.464
 4324POPC   C2B55616   3.424  11.820   6.764
 4324POPC   C3B55617   3.446  11.834   7.064
 4324POPC   C4B55618   3.416  11.867   7.364
 4325POPC   NC355619  28.389  29.902   5.564
 4325POPC   PO455620  28.377  29.916   5.864
 4325POPC   GL155621  28.330  29.882   6.164
 4325POPC   GL255622  28.410  30.066   6.164
 4325POPC   C1A55623  28.335  29.901   6.464
 4325POPC   D2A55624  28.337  29.941   6.764
 4325POPC   C3A55625  28.350  29.906   7.064
 4325POPC   C4A55626  28.403  29.889   7.364
 4325POPC   C1B55627  28.347  30.159   6.464
 4325POPC   C2B55628  28.359  30.139   6.764
 4325POPC   C3B55629  28.357  30.136   7.064
 4325POPC   C4B55630  28.384  30.171   7.364
 4326POPC   NC355631  39.185  39.191   5.564
 4326POPC   PO455632  39.211  39.214   5.864
 4326POPC   GL155633  39.191  39.200   6.164
 4326POPC   GL255634  39.188  39.096   6.164
 4326POPC   C1A55635  39.226  39.250   6.464
 4326POPC   D2A55636  39.254  39.269   6.764
 4326POPC   C3A55637  39.250  39.280   7.064
 4326POPC   C4A55638  39.272  39.190   7.364
 4326POPC   C1B55639  39.146  39.037   6.464
 4326POPC   C2B55640  39.189  38.989   6.764
 4326POPC   C3B55641  39.183  39.030   7.064
 4326POPC   C4B55642  39.125  38.969   7.364
 4327POPC   NC355643  28.399  38.467   5.564
 4327POPC   PO455644  28.398  38.423   5.864
 4327POPC   GL155645  28.322  38.481   6.164
 4327POPC   GL255646  28.338  38.305   6.164
 4327POPC   C1A55647  28.403  38.475   6.464
 4327POPC   D2A55648  28.385  38.406   6.764
 4327POPC   C3A55649  28.406  38.445   7.064
 4327POPC   C4A55650  28.406  38.429   7.364
 4327POPC   C1B55651  28.282  38.213   6.464
 4327POPC   C2B55652  28.287  38.186   6.764
 4327POPC   C3B55653  28.300  38.254   7.064
 4327POPC   C4B55654  28.274  38.183   7.364
 4328POPC   NC355655  11.258   9.796   5.564
 4328POPC   PO455656  11.318   9.771   5.864
 4328POPC   GL155657  11.301   9.795   6.164
 4328POPC   GL255658  11.294   9.589   6.164
 4328POPC   C1A55659  11.341   9.702   6.464
 4328POPC   D2A55660  11.275   9.700   6.764
 4328POPC   C3A55661  11.254   9.769   7.064
 4328POPC   C4A55662  11.313   9.727   7.364
 4328POPC   C1B55663  11.263   9.461   6.464
 4328POPC   C2B55664  11.256   9.528   6.764
 4328POPC   C3B55665  11.280   9.477   7.064
 4328POPC   C4B55666  11.229   9.526   7.364
 4329POPC   NC355667  35.389  14.393   5.564
 4329POPC   PO455668  35.370  14.438   5.864
 4329POPC   GL155669  35.343  14.430   6.164
 4329POPC   GL255670  35.251  14.285   6.164
 4329POPC   C1A55671  35.399  14.429   6.464
 4329POPC   D2A55672  35.355  14.363   6.764
 4329POPC   C3A55673  35.304  14.428   7.064
 4329POPC   C4A55674  35.385  14.360   7.364
 4329POPC   C1B55675  35.162  14.242   6.464
 4329POPC   C2B55676  35.158  14.250   6.764
 4329POPC   C3B55677  35.179  14.242   7.064
 4329POPC   C4B55678  35.149  14.187   7.364
 4330POPC   NC355679   0.392  44.637   5.564
 4330POPC   PO455680   0.404  44.651   5.864
 4330POPC   GL155681   0.475  44.676   6.164
 4330POPC   GL255682   0.329  44.695   6.164
 4330POPC   C1A55683   0.406  44.677   6.464
 4330POPC   D2A55684   0.472  44.697   6.764
 4330POPC   C3A55685   0.463  44.627   7.064
 4330POPC   C4A55686   0.412  44.651   7.364
 4330POPC   C1B55687   0.165  44.687   6.464
 4330POPC   C2B55688   0.178  44.633   6.764
 4330POPC   C3B55689   0.216  44.667   7.064
 4330POPC   C4B55690   0.229  44.632   7.364
 4331POPC   NC355691  32.259  44.673   5.564
 4331POPC   PO455692  32.278  44.660   5.864
 4331POPC   GL155693  32.263  44.656   6.164
 4331POPC   GL255694  32.178  44.731   6.164
 4331POPC   C1A55695  32.202  44.672   6.464
 4331POPC   D2A55696  32.258  44.695   6.764
 4331POPC   C3A55697  32.232  44.680   7.064
 4331POPC   C4A55698  32.260  44.673   7.364
 4331POPC   C1B55699  32.039  44.796   6.464
 4331POPC   C2B55700  32.040  44.749   6.764
 4331POPC   C3B55701  32.069  44.803   7.064
 4331POPC   C4B55702  32.071  44.787   7.364
 4332POPC   NC355703  36.868  16.760   5.564
 4332POPC   PO455704  36.889  16.714   5.864
 4332POPC   GL155705  36.890  16.708   6.164
 4332POPC   GL255706  36.775  16.716   6.164
 4332POPC   C1A55707  36.887  16.770   6.464
 4332POPC   D2A55708  36.928  16.772   6.764
 4332POPC   C3A55709  36.858  16.699   7.064
 4332POPC   C4A55710  36.949  16.747   7.364
 4332POPC   C1B55711  36.723  16.599   6.464
 4332POPC   C2B55712  36.664  16.609   6.764
 4332POPC   C3B55713  36.627  16.676   7.064
 4332POPC   C4B55714  36.663  16.606   7.364
 4333POPC   NC355715  11.289  38.479   5.564
 4333POPC   PO455716  11.343  38.442   5.864
 4333POPC   GL155717  11.292  38.431   6.164
 4333POPC   GL255718  11.310  38.320   6.164
 4333POPC   C1A55719  11.321  38.469   6.464
 4333POPC   D2A55720  11.304  38.483   6.764
 4333POPC   C3A55721  11.301  38.498   7.064
 4333POPC   C4A55722  11.279  38.434   7.364
 4333POPC   C1B55723  11.277  38.224   6.464
 4333POPC   C2B55724  11.331  38.165   6.764
 4333POPC   C3B55725  11.367  38.253   7.064
 4333POPC   C4B55726  11.324  38.173   7.364
 4334POPC   NC355727  30.738  12.068   5.564
 4334POPC   PO455728  30.655  12.117   5.864
 4334POPC   GL155729  30.706  12.082   6.164
 4334POPC   GL255730  30.701  11.959   6.164
 4334POPC   C1A55731  30.685  12.026   6.464
 4334POPC   D2A55732  30.720  12.030   6.764
 4334POPC   C3A55733  30.733  12.125   7.064
 4334POPC   C4A55734  30.715  12.082   7.364
 4334POPC   C1B55735  30.806  11.822   6.464
 4334POPC   C2B55736  30.737  11.839   6.764
 4334POPC   C3B55737  30.810  11.849   7.064
 4334POPC   C4B55738  30.758  11.799   7.364
 4335POPC   NC355739  42.345  37.664   5.564
 4335POPC   PO455740  42.313  37.702   5.864
 4335POPC   GL155741  42.301  37.685   6.164
 4335POPC   GL255742  42.369  37.585   6.164
 4335POPC   C1A55743  42.295  37.713   6.464
 4335POPC   D2A55744  42.365  37.664   6.764
 4335POPC   C3A55745  42.334  37.646   7.064
 4335POPC   C4A55746  42.305  37.698   7.364
 4335POPC   C1B55747  42.398  37.422   6.464
 4335POPC   C2B55748  42.389  37.425   6.764
 4335POPC   C3B55749  42.347  37.464   7.064
 4335POPC   C4B55750  42.310  37.476   7.364
 4336POPC   NC355751  32.248  12.813   5.564
 4336POPC   PO455752  32.249  12.810   5.864
 4336POPC   GL155753  32.295  12.836   6.164
 4336POPC   GL255754  32.139  12.902   6.164
 4336POPC   C1A55755  32.286  12.811   6.464
 4336POPC   D2A55756  32.280  12.864   6.764
 4336POPC   C3A55757  32.271  12.819   7.064
 4336POPC   C4A55758  32.297  12.881   7.364
 4336POPC   C1B55759  32.075  13.027   6.464
 4336POPC   C2B55760  32.080  13.057   6.764
 4336POPC   C3B55761  32.134  13.095   7.064
 4336POPC   C4B55762  32.044  13.066   7.364
 4337POPC   NC355763  36.948  39.261   5.564
 4337POPC   PO455764  36.937  39.258   5.864
 4337POPC   GL155765  36.921  39.228   6.164
 4337POPC   GL255766  36.788  39.126   6.164
 4337POPC   C1A55767  36.926  39.203   6.464
 4337POPC   D2A55768  36.908  39.229   6.764
 4337POPC   C3A55769  36.915  39.242   7.064
 4337POPC   C4A55770  36.861  39.265   7.364
 4337POPC   C1B55771  36.641  39.116   6.464
 4337POPC   C2B55772  36.681  39.136   6.764
 4337POPC   C3B55773  36.700  39.125   7.064
 4337POPC   C4B55774  36.679  39.108   7.364
 4338POPC   NC355775  33.044  36.080   5.564
 4338POPC   PO455776  32.992  36.099   5.864
 4338POPC   GL155777  33.036  36.165   6.164
 4338POPC   GL255778  33.051  36.223   6.164
 4338POPC   C1A55779  33.026  36.113   6.464
 4338POPC   D2A55780  33.058  36.170   6.764
 4338POPC   C3A55781  33.016  36.095   7.064
 4338POPC   C4A55782  32.992  36.164   7.364
 4338POPC   C1B55783  33.148  36.311   6.464
 4338POPC   C2B55784  33.078  36.406   6.764
 4338POPC   C3B55785  33.153  36.317   7.064
 4338POPC   C4B55786  33.132  36.406   7.364
 4339POPC   NC355787  41.513  35.358   5.564
 4339POPC   PO455788  41.526  35.347   5.864
 4339POPC   GL155789  41.548  35.367   6.164
 4339POPC   GL255790  41.693  35.242   6.164
 4339POPC   C1A55791  41.528  35.334   6.464
 4339POPC   D2A55792  41.534  35.356   6.764
 4339POPC   C3A55793  41.572  35.323   7.064
 4339POPC   C4A55794  41.553  35.318   7.364
 4339POPC   C1B55795  41.729  35.200   6.464
 4339POPC   C2B55796  41.727  35.197   6.764
 4339POPC   C3B55797  41.752  35.202   7.064
 4339POPC   C4B55798  41.796  35.220   7.364
 4340POPC   NC355799  30.658  13.579   5.564
 4340POPC   PO455800  30.706  13.598   5.864
 4340POPC   GL155801  30.733  13.669   6.164
 4340POPC   GL255802  30.780  13.571   6.164
 4340POPC   C1A55803  30.714  13.662   6.464
 4340POPC   D2A55804  30.702  13.633   6.764
 4340POPC   C3A55805  30.684  13.597   7.064
 4340POPC   C4A55806  30.683  13.584   7.364
 4340POPC   C1B55807  30.883  13.518   6.464
 4340POPC   C2B55808  30.937  13.524   6.764
 4340POPC   C3B55809  30.951  13.573   7.064
 4340POPC   C4B55810  30.966  13.543   7.364
 4341POPC   NC355811  20.563  17.545   5.564
 4341POPC   PO455812  20.627  17.545   5.864
 4341POPC   GL155813  20.610  17.459   6.164
 4341POPC   GL255814  20.716  17.518   6.164
 4341POPC   C1A55815  20.629  17.544   6.464
 4341POPC   D2A55816  20.597  17.473   6.764
 4341POPC   C3A55817  20.640  17.522   7.064
 4341POPC   C4A55818  20.570  17.542   7.364
 4341POPC   C1B55819  20.855  17.397   6.464
 4341POPC   C2B55820  20.808  17.490   6.764
 4341POPC   C3B55821  20.893  17.404   7.064
 4341POPC   C4B55822  20.847  17.470   7.364
 4342POPC   NC355823   3.533  36.119   5.564
 4342POPC   PO455824   3.555  36.147   5.864
 4342POPC   GL155825   3.544  36.100   6.164
 4342POPC   GL255826   3.424  36.273   6.164
 4342POPC   C1A55827   3.581  36.166   6.464
 4342POPC   D2A55828   3.522  36.078   6.764
 4342POPC   C3A55829   3.513  36.083   7.064
 4342POPC   C4A55830   3.505  36.084   7.364
 4342POPC   C1B55831   3.422  36.311   6.464
 4342POPC   C2B55832   3.433  36.374   6.764
 4342POPC   C3B55833   3.437  36.293   7.064
 4342POPC   C4B55834   3.358  36.338   7.364
 4343POPC   NC355835  22.125  33.765   5.564
 4343POPC   PO455836  22.124  33.848   5.864
 4343POPC   GL155837  22.198  33.785   6.164
 4343POPC   GL255838  22.049  33.788   6.164
 4343POPC   C1A55839  22.124  33.820   6.464
 4343POPC   D2A55840  22.165  33.791   6.764
 4343POPC   C3A55841  22.203  33.843   7.064
 4343POPC   C4A55842  22.198  33.779   7.364
 4343POPC   C1B55843  21.895  33.832   6.464
 4343POPC   C2B55844  21.962  33.814   6.764
 4343POPC   C3B55845  21.865  33.797   7.064
 4343POPC   C4B55846  21.888  33.847   7.364
 4344POPC   NC355847   0.450  25.288   5.564
 4344POPC   PO455848   0.446  25.251   5.864
 4344POPC   GL155849   0.426  25.255   6.164
 4344POPC   GL255850   0.477  25.108   6.164
 4344POPC   C1A55851   0.458  25.246   6.464
 4344POPC   D2A55852   0.394  25.251   6.764
 4344POPC   C3A55853   0.450  25.252   7.064
 4344POPC   C4A55854   0.481  25.221   7.364
 4344POPC   C1B55855   0.574  25.039   6.464
 4344POPC   C2B55856   0.586  25.014   6.764
 4344POPC   C3B55857   0.518  25.039   7.064
 4344POPC   C4B55858   0.533  25.025   7.364
 4345POPC   NC355859  41.555   4.348   5.564
 4345POPC   PO455860  41.595   4.348   5.864
 4345POPC   GL155861  41.521   4.287   6.164
 4345POPC   GL255862  41.603   4.213   6.164
 4345POPC   C1A55863  41.590   4.277   6.464
 4345POPC   D2A55864  41.555   4.291   6.764
 4345POPC   C3A55865  41.529   4.300   7.064
 4345POPC   C4A55866  41.561   4.336   7.364
 4345POPC   C1B55867  41.550   4.100   6.464
 4345POPC   C2B55868  41.566   4.117   6.764
 4345POPC   C3B55869  41.560   4.028   7.064
 4345POPC   C4B55870  41.575   4.068   7.364
 4346POPC   NC355871  31.508  17.472   5.564
 4346POPC   PO455872  31.496  17.540   5.864
 4346POPC   GL155873  31.461  17.487   6.164
 4346POPC   GL255874  31.372  17.626   6.164
 4346POPC   C1A55875  31.478  17.474   6.464
 4346POPC   D2A55876  31.439  17.530   6.764
 4346POPC   C3A55877  31.454  17.543   7.064
 4346POPC   C4A55878  31.433  17.471   7.364
 4346POPC   C1B55879  31.279  17.708   6.464
 4346POPC   C2B55880  31.248  17.698   6.764
 4346POPC   C3B55881  31.291  17.635   7.064
 4346POPC   C4B55882  31.255  17.655   7.364
 4347POPC   NC355883  15.163  43.886   5.564
 4347POPC   PO455884  15.135  43.855   5.864
 4347POPC   GL155885  15.145  43.923   6.164
 4347POPC   GL255886  15.141  43.725   6.164
 4347POPC   C1A55887  15.180  43.877   6.464
 4347POPC   D2A55888  15.157  43.866   6.764
 4347POPC   C3A55889  15.146  43.842   7.064
 4347POPC   C4A55890  15.177  43.927   7.364
 4347POPC   C1B55891  15.105  43.664   6.464
 4347POPC   C2B55892  15.038  43.700   6.764
 4347POPC   C3B55893  15.071  43.621   7.064
 4347POPC   C4B55894  15.029  43.652   7.364
 4348POPC   NC355895   3.526  43.848   5.564
 4348POPC   PO455896   3.517  43.932   5.864
 4348POPC   GL155897   3.541  43.899   6.164
 4348POPC   GL255898   3.450  43.871   6.164
 4348POPC   C1A55899   3.551  43.905   6.464
 4348POPC   D2A55900   3.535  43.918   6.764
 4348POPC   C3A55901   3.591  43.850   7.064
 4348POPC   C4A55902   3.529  43.926   7.364
 4348POPC   C1B55903   3.272  43.905   6.464
 4348POPC   C2B55904   3.284  43.936   6.764
 4348POPC   C3B55905   3.321  43.948   7.064
 4348POPC   C4B55906   3.256  43.951   7.364
 4349POPC   NC355907  26.068  44.642   5.564
 4349POPC   PO455908  26.083  44.681   5.864
 4349POPC   GL155909  26.010  44.687   6.164
 4349POPC   GL255910  26.132  44.711   6.164
 4349POPC   C1A55911  26.025  44.668   6.464
 4349POPC   D2A55912  26.004  44.671   6.764
 4349POPC   C3A55913  26.032  44.708   7.064
 4349POPC   C4A55914  26.040  44.622   7.364
 4349POPC   C1B55915  26.214  44.879   6.464
 4349POPC   C2B55916  26.185  44.810   6.764
 4349POPC   C3B55917  26.189  44.795   7.064
 4349POPC   C4B55918  26.183  44.834   7.364
 4350POPC   NC355919  29.890  17.468   5.564
 4350POPC   PO455920  29.892  17.496   5.864
 4350POPC   GL155921  29.880  17.501   6.164
 4350POPC   GL255922  30.020  17.481   6.164
 4350POPC   C1A55923  29.896  17.493   6.464
 4350POPC   D2A55924  29.960  17.495   6.764
 4350POPC   C3A55925  29.903  17.474   7.064
 4350POPC   C4A55926  29.961  17.503   7.364
 4350POPC   C1B55927  30.122  17.489   6.464
 4350POPC   C2B55928  30.165  17.499   6.764
 4350POPC   C3B55929  30.180  17.472   7.064
 4350POPC   C4B55930  30.202  17.461   7.364
 4351POPC   NC355931   1.978  37.664   5.564
 4351POPC   PO455932   1.985  37.639   5.864
 4351POPC   GL155933   2.038  37.647   6.164
 4351POPC   GL255934   1.856  37.617   6.164
 4351POPC   C1A55935   2.027  37.646   6.464
 4351POPC   D2A55936   1.989  37.698   6.764
 4351POPC   C3A55937   2.024  37.648   7.064
 4351POPC   C4A55938   1.954  37.718   7.364
 4351POPC   C1B55939   1.741  37.639   6.464
 4351POPC   C2B55940   1.701  37.628   6.764
 4351POPC   C3B55941   1.790  37.661   7.064
 4351POPC   C4B55942   1.778  37.589   7.364
 4352POPC   NC355943  43.837  15.931   5.564
 4352POPC   PO455944  43.839  15.916   5.864
 4352POPC   GL155945  43.926  15.917   6.164
 4352POPC   GL255946  43.977  15.947   6.164
 4352POPC   C1A55947  43.868  15.978   6.464
 4352POPC   D2A55948  43.842  15.961   6.764
 4352POPC   C3A55949  43.875  15.982   7.064
 4352POPC   C4A55950  43.924  15.933   7.364
 4352POPC   C1B55951  44.162  15.862   6.464
 4352POPC   C2B55952  44.105  15.853   6.764
 4352POPC   C3B55953  44.125  15.901   7.064
 4352POPC   C4B55954  44.156  15.823   7.364
 4353POPC   NC355955  30.653   7.384   5.564
 4353POPC   PO455956  30.670   7.378   5.864
 4353POPC   GL155957  30.667   7.426   6.164
 4353POPC   GL255958  30.556   7.454   6.164
 4353POPC   C1A55959  30.712   7.442   6.464
 4353POPC   D2A55960  30.666   7.439   6.764
 4353POPC   C3A55961  30.658   7.419   7.064
 4353POPC   C4A55962  30.744   7.408   7.364
 4353POPC   C1B55963  30.441   7.571   6.464
 4353POPC   C2B55964  30.508   7.606   6.764
 4353POPC   C3B55965  30.520   7.545   7.064
 4353POPC   C4B55966  30.472   7.560   7.364
 4354POPC   NC355967  12.804   7.456   5.564
 4354POPC   PO455968  12.812   7.411   5.864
 4354POPC   GL155969  12.842   7.423   6.164
 4354POPC   GL255970  12.813   7.559   6.164
 4354POPC   C1A55971  12.861   7.400   6.464
 4354POPC   D2A55972  12.847   7.396   6.764
 4354POPC   C3A55973  12.834   7.412   7.064
 4354POPC   C4A55974  12.819   7.457   7.364
 4354POPC   C1B55975  12.757   7.690   6.464
 4354POPC   C2B55976  12.726   7.612   6.764
 4354POPC   C3B55977  12.788   7.620   7.064
 4354POPC   C4B55978  12.690   7.656   7.364
 4355POPC   NC355979   8.980  36.084   5.564
 4355POPC   PO455980   8.967  36.128   5.864
 4355POPC   GL155981   8.991  36.113   6.164
 4355POPC   GL255982   8.830  36.084   6.164
 4355POPC   C1A55983   8.931  36.154   6.464
 4355POPC   D2A55984   8.955  36.095   6.764
 4355POPC   C3A55985   8.925  36.164   7.064
 4355POPC   C4A55986   8.969  36.126   7.364
 4355POPC   C1B55987   8.791  36.022   6.464
 4355POPC   C2B55988   8.768  36.008   6.764
 4355POPC   C3B55989   8.802  35.938   7.064
 4355POPC   C4B55990   8.753  36.010   7.364
 4356POPC   NC355991  15.164   6.679   5.564
 4356POPC   PO455992  15.196   6.659   5.864
 4356POPC   GL155993  15.189   6.605   6.164
 4356POPC   GL255994  15.263   6.523   6.164
 4356POPC   C1A55995  15.211   6.651   6.464
 4356POPC   D2A55996  15.217   6.659   6.764
 4356POPC   C3A55997  15.175   6.599   7.064
 4356POPC   C4A55998  15.202   6.667   7.364
 4356POPC   C1B55999  15.233   6.401   6.464
 4356POPC   C2B56000  15.281   6.412   6.764
 4356POPC   C3B56001  15.253   6.381   7.064
 4356POPC   C4B56002  15.281   6.419   7.364
 4357POPC   NC356003  43.865   2.814   5.564
 4357POPC   PO456004  43.890   2.734   5.864
 4357POPC   GL156005  43.928   2.759   6.164
 4357POPC   GL256006  43.887   2.905   6.164
 4357POPC   C1A56007  43.863   2.754   6.464
 4357POPC   D2A56008  43.860   2.784   6.764
 4357POPC   C3A56009  43.888   2.757   7.064
 4357POPC   C4A56010  43.869   2.794   7.364
 4357POPC   C1B56011  43.927   2.996   6.464
 4357POPC   C2B56012  43.919   3.045   6.764
 4357POPC   C3B56013  43.950   2.973   7.064
 4357POPC   C4B56014  43.906   2.968   7.364
 4358POPC   NC356015  37.727   8.204   5.564
 4358POPC   PO456016  37.637   8.233   5.864
 4358POPC   GL156017  37.691   8.153   6.164
 4358POPC   GL256018  37.721   8.293   6.164
 4358POPC   C1A56019  37.686   8.201   6.464
 4358POPC   D2A56020  37.700   8.150   6.764
 4358POPC   C3A56021  37.679   8.199   7.064
 4358POPC   C4A56022  37.682   8.226   7.364
 4358POPC   C1B56023  37.861   8.410   6.464
 4358POPC   C2B56024  37.840   8.344   6.764
 4358POPC   C3B56025  37.826   8.377   7.064
 4358POPC   C4B56026  37.831   8.337   7.364
 4359POPC   NC356027   6.677   3.547   5.564
 4359POPC   PO456028   6.650   3.574   5.864
 4359POPC   GL156029   6.664   3.562   6.164
 4359POPC   GL256030   6.677   3.621   6.164
 4359POPC   C1A56031   6.625   3.504   6.464
 4359POPC   D2A56032   6.606   3.526   6.764
 4359POPC   C3A56033   6.680   3.527   7.064
 4359POPC   C4A56034   6.636   3.581   7.364
 4359POPC   C1B56035   6.688   3.746   6.464
 4359POPC   C2B56036   6.690   3.752   6.764
 4359POPC   C3B56037   6.633   3.812   7.064
 4359POPC   C4B56038   6.660   3.795   7.364
 4360POPC   NC356039  12.818  33.782   5.564
 4360POPC   PO456040  12.829  33.777   5.864
 4360POPC   GL156041  12.808  33.767   6.164
 4360POPC   GL256042  12.963  33.895   6.164
 4360POPC   C1A56043  12.865  33.829   6.464
 4360POPC   D2A56044  12.879  33.763   6.764
 4360POPC   C3A56045  12.874  33.773   7.064
 4360POPC   C4A56046  12.880  33.772   7.364
 4360POPC   C1B56047  13.110  33.902   6.464
 4360POPC   C2B56048  13.037  33.957   6.764
 4360POPC   C3B56049  13.026  33.927   7.064
 4360POPC   C4B56050  13.035  33.953   7.364
 4361POPC   NC356051  38.483  38.453   5.564
 4361POPC   PO456052  38.435  38.414   5.864
 4361POPC   GL156053  38.443  38.411   6.164
 4361POPC   GL256054  38.574  38.451   6.164
 4361POPC   C1A56055  38.496  38.493   6.464
 4361POPC   D2A56056  38.493  38.497   6.764
 4361POPC   C3A56057  38.488  38.451   7.064
 4361POPC   C4A56058  38.476  38.413   7.364
 4361POPC   C1B56059  38.743  38.461   6.464
 4361POPC   C2B56060  38.661  38.475   6.764
 4361POPC   C3B56061  38.728  38.471   7.064
 4361POPC   C4B56062  38.723  38.424   7.364
 4362POPC   NC356063  30.746  40.038   5.564
 4362POPC   PO456064  30.706  39.961   5.864
 4362POPC   GL156065  30.728  39.993   6.164
 4362POPC   GL256066  30.804  40.015   6.164
 4362POPC   C1A56067  30.719  39.994   6.464
 4362POPC   D2A56068  30.655  40.001   6.764
 4362POPC   C3A56069  30.698  39.991   7.064
 4362POPC   C4A56070  30.672  40.012   7.364
 4362POPC   C1B56071  30.939  39.988   6.464
 4362POPC   C2B56072  30.980  39.949   6.764
 4362POPC   C3B56073  30.968  40.038   7.064
 4362POPC   C4B56074  30.948  40.007   7.364
 4363POPC   NC356075   5.057  14.411   5.564
 4363POPC   PO456076   5.097  14.437   5.864
 4363POPC   GL156077   5.069  14.422   6.164
 4363POPC   GL256078   4.974  14.369   6.164
 4363POPC   C1A56079   5.075  14.369   6.464
 4363POPC   D2A56080   5.083  14.434   6.764
 4363POPC   C3A56081   5.143  14.398   7.064
 4363POPC   C4A56082   5.084  14.420   7.364
 4363POPC   C1B56083   4.859  14.282   6.464
 4363POPC   C2B56084   4.876  14.234   6.764
 4363POPC   C3B56085   4.908  14.284   7.064
 4363POPC   C4B56086   4.859  14.223   7.364
 4364POPC   NC356087  33.002  24.531   5.564
 4364POPC   PO456088  33.054  24.469   5.864
 4364POPC   GL156089  33.061  24.532   6.164
 4364POPC   GL256090  32.929  24.408   6.164
 4364POPC   C1A56091  33.033  24.485   6.464
 4364POPC   D2A56092  33.023  24.463   6.764
 4364POPC   C3A56093  33.037  24.529   7.064
 4364POPC   C4A56094  32.998  24.505   7.364
 4364POPC   C1B56095  32.805  24.335   6.464
 4364POPC   C2B56096  32.822  24.264   6.764
 4364POPC   C3B56097  32.841  24.274   7.064
 4364POPC   C4B56098  32.814  24.351   7.364
 4365POPC   NC356099   9.798   8.958   5.564
 4365POPC   PO456100   9.737   8.965   5.864
 4365POPC   GL156101   9.717   8.965   6.164
 4365POPC   GL256102   9.643   8.981   6.164
 4365POPC   C1A56103   9.712   8.971   6.464
 4365POPC   D2A56104   9.752   8.985   6.764
 4365POPC   C3A56105   9.713   9.001   7.064
 4365POPC   C4A56106   9.714   8.926   7.364
 4365POPC   C1B56107   9.504   9.024   6.464
 4365POPC   C2B56108   9.473   9.004   6.764
 4365POPC   C3B56109   9.454   8.993   7.064
 4365POPC   C4B56110   9.500   8.961   7.364
 4366POPC   NC356111  12.896  37.677   5.564
 4366POPC   PO456112  12.897  37.703   5.864
 4366POPC   GL156113  12.851  37.688   6.164
 4366POPC   GL256114  12.937  37.543   6.164
 4366POPC   C1A56115  12.877  37.669   6.464
 4366POPC   D2A56116  12.851  37.631   6.764
 4366POPC   C3A56117  12.846  37.705   7.064
 4366POPC   C4A56118  12.831  37.666   7.364
 4366POPC   C1B56119  12.954  37.473   6.464
 4366POPC   C2B56120  12.937  37.415   6.764
 4366POPC   C3B56121  12.918  37.434   7.064
 4366POPC   C4B56122  12.888  37.391   7.364
 4367POPC   NC356123  29.879   2.768   5.564
 4367POPC   PO456124  29.948   2.760   5.864
 4367POPC   GL156125  29.885   2.757   6.164
 4367POPC   GL256126  29.777   2.892   6.164
 4367POPC   C1A56127  29.906   2.776   6.464
 4367POPC   D2A56128  29.964   2.749   6.764
 4367POPC   C3A56129  29.919   2.778   7.064
 4367POPC   C4A56130  29.961   2.787   7.364
 4367POPC   C1B56131  29.727   2.926   6.464
 4367POPC   C2B56132  29.750   2.916   6.764
 4367POPC   C3B56133  29.719   2.907   7.064
 4367POPC   C4B56134  29.674   2.897   7.364
 4368POPC   NC356135  22.124  11.285   5.564
 4368POPC   PO456136  22.132  11.252   5.864
 4368POPC   GL156137  22.167  11.269   6.164
 4368POPC   GL256138  22.093  11.197   6.164
 4368POPC   C1A56139  22.209  11.295   6.464
 4368POPC   D2A56140  22.131  11.323   6.764
 4368POPC   C3A56141  22.208  11.332   7.064
 4368POPC   C4A56142  22.153  11.344   7.364
 4368POPC   C1B56143  22.056  11.074   6.464
 4368POPC   C2B56144  22.083  11.051   6.764
 4368POPC   C3B56145  22.089  11.073   7.064
 4368POPC   C4B56146  22.067  11.077   7.364
 4369POPC   NC356147  11.295  43.844   5.564
 4369POPC   PO456148  11.254  43.866   5.864
 4369POPC   GL156149  11.313  43.918   6.164
 4369POPC   GL256150  11.295  44.008   6.164
 4369POPC   C1A56151  11.275  43.867   6.464
 4369POPC   D2A56152  11.288  43.881   6.764
 4369POPC   C3A56153  11.314  43.879   7.064
 4369POPC   C4A56154  11.262  43.915   7.364
 4369POPC   C1B56155  11.204  44.140   6.464
 4369POPC   C2B56156  11.175  44.105   6.764
 4369POPC   C3B56157  11.225  44.126   7.064
 4369POPC   C4B56158  11.167  44.070   7.364
 4370POPC   NC356159   0.431  19.849   5.564
 4370POPC   PO456160   0.444  19.882   5.864
 4370POPC   GL156161   0.469  19.866   6.164
 4370POPC   GL256162   0.525  19.795   6.164
 4370POPC   C1A56163   0.430  19.850   6.464
 4370POPC   D2A56164   0.433  19.860   6.764
 4370POPC   C3A56165   0.422  19.839   7.064
 4370POPC   C4A56166   0.420  19.877   7.364
 4370POPC   C1B56167   0.724  19.862   6.464
 4370POPC   C2B56168   0.696  19.807   6.764
 4370POPC   C3B56169   0.733  19.840   7.064
 4370POPC   C4B56170   0.682  19.775   7.364
 4371POPC   NC356171   1.246  29.959   5.564
 4371POPC   PO456172   1.225  29.965   5.864
 4371POPC   GL156173   1.178  29.902   6.164
 4371POPC   GL256174   1.319  29.934   6.164
 4371POPC   C1A56175   1.182  29.947   6.464
 4371POPC   D2A56176   1.190  29.956   6.764
 4371POPC   C3A56177   1.244  29.959   7.064
 4371POPC   C4A56178   1.257  29.877   7.364
 4371POPC   C1B56179   1.512  29.957   6.464
 4371POPC   C2B56180   1.447  29.936   6.764
 4371POPC   C3B56181   1.461  29.986   7.064
 4371POPC   C4B56182   1.434  29.934   7.364
 4372POPC   NC356183   4.279   1.191   5.564
 4372POPC   PO456184   4.321   1.168   5.864
 4372POPC   GL156185   4.339   1.261   6.164
 4372POPC   GL256186   4.269   1.368   6.164
 4372POPC   C1A56187   4.311   1.214   6.464
 4372POPC   D2A56188   4.321   1.200   6.764
 4372POPC   C3A56189   4.301   1.239   7.064
 4372POPC   C4A56190   4.359   1.222   7.364
 4372POPC   C1B56191   4.298   1.466   6.464
 4372POPC   C2B56192   4.274   1.428   6.764
 4372POPC   C3B56193   4.258   1.487   7.064
 4372POPC   C4B56194   4.295   1.458   7.364
 4373POPC   NC356195   1.173   1.257   5.564
 4373POPC   PO456196   1.176   1.242   5.864
 4373POPC   GL156197   1.260   1.216   6.164
 4373POPC   GL256198   1.319   1.258   6.164
 4373POPC   C1A56199   1.238   1.260   6.464
 4373POPC   D2A56200   1.235   1.197   6.764
 4373POPC   C3A56201   1.246   1.178   7.064
 4373POPC   C4A56202   1.198   1.167   7.364
 4373POPC   C1B56203   1.383   1.348   6.464
 4373POPC   C2B56204   1.452   1.375   6.764
 4373POPC   C3B56205   1.384   1.410   7.064
 4373POPC   C4B56206   1.411   1.390   7.364
 4374POPC   NC356207  43.144  32.290   5.564
 4374POPC   PO456208  43.100  32.277   5.864
 4374POPC   GL156209  43.159  32.265   6.164
 4374POPC   GL256210  43.239  32.296   6.164
 4374POPC   C1A56211  43.093  32.205   6.464
 4374POPC   D2A56212  43.131  32.283   6.764
 4374POPC   C3A56213  43.143  32.258   7.064
 4374POPC   C4A56214  43.086  32.282   7.364
 4374POPC   C1B56215  43.376  32.300   6.464
 4374POPC   C2B56216  43.377  32.228   6.764
 4374POPC   C3B56217  43.364  32.213   7.064
 4374POPC   C4B56218  43.365  32.233   7.364
 4375POPC   NC356219  20.587  43.869   5.564
 4375POPC   PO456220  20.609  43.836   5.864
 4375POPC   GL156221  20.578  43.900   6.164
 4375POPC   GL256222  20.672  43.961   6.164
 4375POPC   C1A56223  20.623  43.899   6.464
 4375POPC   D2A56224  20.583  43.867   6.764
 4375POPC   C3A56225  20.613  43.853   7.064
 4375POPC   C4A56226  20.589  43.855   7.364
 4375POPC   C1B56227  20.694  44.112   6.464
 4375POPC   C2B56228  20.659  44.151   6.764
 4375POPC   C3B56229  20.630  44.106   7.064
 4375POPC   C4B56230  20.660  44.150   7.364
 4376POPC   NC356231  15.948   6.694   5.564
 4376POPC   PO456232  15.986   6.621   5.864
 4376POPC   GL156233  15.929   6.601   6.164
 4376POPC   GL256234  15.908   6.490   6.164
 4376POPC   C1A56235  15.959   6.648   6.464
 4376POPC   D2A56236  15.939   6.663   6.764
 4376POPC   C3A56237  15.943   6.689   7.064
 4376POPC   C4A56238  15.945   6.610   7.364
 4376POPC   C1B56239  15.900   6.431   6.464
 4376POPC   C2B56240  15.904   6.359   6.764
 4376POPC   C3B56241  15.921   6.359   7.064
 4376POPC   C4B56242  15.898   6.415   7.364
 4377POPC   NC356243   0.399   5.825   5.564
 4377POPC   PO456244   0.429   5.828   5.864
 4377POPC   GL156245   0.434   5.869   6.164
 4377POPC   GL256246   0.445   5.721   6.164
 4377POPC   C1A56247   0.471   5.820   6.464
 4377POPC   D2A56248   0.408   5.911   6.764
 4377POPC   C3A56249   0.450   5.835   7.064
 4377POPC   C4A56250   0.465   5.870   7.364
 4377POPC   C1B56251   0.447   5.592   6.464
 4377POPC   C2B56252   0.461   5.627   6.764
 4377POPC   C3B56253   0.471   5.616   7.064
 4377POPC   C4B56254   0.476   5.592   7.364
 4378POPC   NC356255  20.660  19.845   5.564
 4378POPC   PO456256  20.563  19.790   5.864
 4378POPC   GL156257  20.602  19.801   6.164
 4378POPC   GL256258  20.522  19.882   6.164
 4378POPC   C1A56259  20.628  19.852   6.464
 4378POPC   D2A56260  20.624  19.841   6.764
 4378POPC   C3A56261  20.627  19.861   7.064
 4378POPC   C4A56262  20.638  19.834   7.364
 4378POPC   C1B56263  20.388  19.874   6.464
 4378POPC   C2B56264  20.371  19.908   6.764
 4378POPC   C3B56265  20.352  19.888   7.064
 4378POPC   C4B56266  20.331  19.907   7.364
 4379POPC   NC356267  35.378  31.513   5.564
 4379POPC   PO456268  35.322  31.442   5.864
 4379POPC   GL156269  35.334  31.522   6.164
 4379POPC   GL256270  35.393  31.400   6.164
 4379POPC   C1A56271  35.401  31.471   6.464
 4379POPC   D2A56272  35.394  31.442   6.764
 4379POPC   C3A56273  35.397  31.463   7.064
 4379POPC   C4A56274  35.375  31.462   7.364
 4379POPC   C1B56275  35.527  31.239   6.464
 4379POPC   C2B56276  35.500  31.224   6.764
 4379POPC   C3B56277  35.492  31.282   7.064
 4379POPC   C4B56278  35.480  31.276   7.364
 4380POPC   NC356279  39.970  11.346   5.564
 4380POPC   PO456280  39.993  11.291   5.864
 4380POPC   GL156281  40.013  11.349   6.164
 4380POPC   GL256282  40.006  11.225   6.164
 4380POPC   C1A56283  39.986  11.294   6.464
 4380POPC   D2A56284  40.033  11.304   6.764
 4380POPC   C3A56285  39.986  11.307   7.064
 4380POPC   C4A56286  39.977  11.336   7.364
 4380POPC   C1B56287  40.023  11.047   6.464
 4380POPC   C2B56288  40.085  11.058   6.764
 4380POPC   C3B56289  40.117  11.066   7.064
 4380POPC   C4B56290  40.079  11.067   7.364
 4381POPC   NC356291   1.945  15.178   5.564
 4381POPC   PO456292   1.996  15.157   5.864
 4381POPC   GL156293   2.024  15.158   6.164
 4381POPC   GL256294   2.000  15.328   6.164
 4381POPC   C1A56295   1.978  15.220   6.464
 4381POPC   D2A56296   2.021  15.208   6.764
 4381POPC   C3A56297   1.976  15.169   7.064
 4381POPC   C4A56298   1.999  15.165   7.364
 4381POPC   C1B56299   1.957  15.440   6.464
 4381POPC   C2B56300   1.986  15.387   6.764
 4381POPC   C3B56301   1.953  15.468   7.064
 4381POPC   C4B56302   2.001  15.392   7.364
 4382POPC   NC356303  28.332  17.485   5.564
 4382POPC   PO456304  28.336  17.463   5.864
 4382POPC   GL156305  28.419  17.496   6.164
 4382POPC   GL256306  28.322  17.399   6.164
 4382POPC   C1A56307  28.341  17.548   6.464
 4382POPC   D2A56308  28.390  17.537   6.764
 4382POPC   C3A56309  28.400  17.490   7.064
 4382POPC   C4A56310  28.353  17.464   7.364
 4382POPC   C1B56311  28.181  17.342   6.464
 4382POPC   C2B56312  28.195  17.318   6.764
 4382POPC   C3B56313  28.223  17.324   7.064
 4382POPC   C4B56314  28.197  17.299   7.364
 4383POPC   NC356315   3.510  44.686   5.564
 4383POPC   PO456316   3.545  44.629   5.864
 4383POPC   GL156317   3.506  44.652   6.164
 4383POPC   GL256318   3.667  44.657   6.164
 4383POPC   C1A56319   3.541  44.614   6.464
 4383POPC   D2A56320   3.549  44.706   6.764
 4383POPC   C3A56321   3.565  44.674   7.064
 4383POPC   C4A56322   3.529  44.625   7.364
 4383POPC   C1B56323   3.743  44.650   6.464
 4383POPC   C2B56324   3.782  44.724   6.764
 4383POPC   C3B56325   3.776  44.656   7.064
 4383POPC   C4B56326   3.752  44.652   7.364
 4384POPC   NC356327   1.948   4.324   5.564
 4384POPC   PO456328   1.995   4.304   5.864
 4384POPC   GL156329   1.999   4.274   6.164
 4384POPC   GL256330   2.039   4.183   6.164
 4384POPC   C1A56331   1.996   4.337   6.464
 4384POPC   D2A56332   2.024   4.286   6.764
 4384POPC   C3A56333   2.008   4.300   7.064
 4384POPC   C4A56334   1.954   4.340   7.364
 4384POPC   C1B56335   2.083   4.120   6.464
 4384POPC   C2B56336   2.111   4.103   6.764
 4384POPC   C3B56337   2.146   4.099   7.064
 4384POPC   C4B56338   2.081   4.071   7.364
 4385POPC   NC356339  18.307  13.645   5.564
 4385POPC   PO456340  18.309  13.627   5.864
 4385POPC   GL156341  18.262  13.607   6.164
 4385POPC   GL256342  18.176  13.585   6.164
 4385POPC   C1A56343  18.277  13.600   6.464
 4385POPC   D2A56344  18.311  13.599   6.764
 4385POPC   C3A56345  18.279  13.646   7.064
 4385POPC   C4A56346  18.321  13.598   7.364
 4385POPC   C1B56347  18.078  13.654   6.464
 4385POPC   C2B56348  17.988  13.616   6.764
 4385POPC   C3B56349  18.043  13.613   7.064
 4385POPC   C4B56350  18.053  13.597   7.364
 4386POPC   NC356351  39.229  29.946   5.564
 4386POPC   PO456352  39.196  29.908   5.864
 4386POPC   GL156353  39.257  29.883   6.164
 4386POPC   GL256354  39.302  29.855   6.164
 4386POPC   C1A56355  39.274  29.900   6.464
 4386POPC   D2A56356  39.237  29.906   6.764
 4386POPC   C3A56357  39.231  29.929   7.064
 4386POPC   C4A56358  39.253  29.968   7.364
 4386POPC   C1B56359  39.384  29.793   6.464
 4386POPC   C2B56360  39.408  29.714   6.764
 4386POPC   C3B56361  39.382  29.750   7.064
 4386POPC   C4B56362  39.455  29.783   7.364
 4387POPC   NC356363  33.808  32.261   5.564
 4387POPC   PO456364  33.789  32.213   5.864
 4387POPC   GL156365  33.758  32.254   6.164
 4387POPC   GL256366  33.682  32.188   6.164
 4387POPC   C1A56367  33.752  32.233   6.464
 4387POPC   D2A56368  33.810  32.228   6.764
 4387POPC   C3A56369  33.820  32.207   7.064
 4387POPC   C4A56370  33.772  32.248   7.364
 4387POPC   C1B56371  33.610  32.076   6.464
 4387POPC   C2B56372  33.577  32.090   6.764
 4387POPC   C3B56373  33.579  32.060   7.064
 4387POPC   C4B56374  33.633  32.074   7.364
 4388POPC   NC356375  16.742  43.121   5.564
 4388POPC   PO456376  16.714  43.076   5.864
 4388POPC   GL156377  16.736  43.085   6.164
 4388POPC   GL256378  16.681  43.203   6.164
 4388POPC   C1A56379  16.723  43.156   6.464
 4388POPC   D2A56380  16.688  43.146   6.764
 4388POPC   C3A56381  16.754  43.134   7.064
 4388POPC   C4A56382  16.721  43.101   7.364
 4388POPC   C1B56383  16.619  43.294   6.464
 4388POPC   C2B56384  16.593  43.350   6.764
 4388POPC   C3B56385  16.599  43.350   7.064
 4388POPC   C4B56386  16.583  43.345   7.364
 4389POPC   NC356387  33.784  23.703   5.564
 4389POPC   PO456388  33.842  23.702   5.864
 4389POPC   GL156389  33.787  23.752   6.164
 4389POPC   GL256390  33.851  23.657   6.164
 4389POPC   C1A56391  33.833  23.705   6.464
 4389POPC   D2A56392  33.837  23.705   6.764
 4389POPC   C3A56393  33.793  23.667   7.064
 4389POPC   C4A56394  33.798  23.697   7.364
 4389POPC   C1B56395  33.990  23.524   6.464
 4389POPC   C2B56396  34.001  23.477   6.764
 4389POPC   C3B56397  33.971  23.505   7.064
 4389POPC   C4B56398  33.926  23.474   7.364
 4390POPC   NC356399  26.847  22.939   5.564
 4390POPC   PO456400  26.865  22.981   5.864
 4390POPC   GL156401  26.771  22.927   6.164
 4390POPC   GL256402  26.934  22.949   6.164
 4390POPC   C1A56403  26.790  22.888   6.464
 4390POPC   D2A56404  26.844  22.984   6.764
 4390POPC   C3A56405  26.861  22.949   7.064
 4390POPC   C4A56406  26.774  22.973   7.364
 4390POPC   C1B56407  27.087  23.047   6.464
 4390POPC   C2B56408  27.050  23.021   6.764
 4390POPC   C3B56409  27.081  23.033   7.064
 4390POPC   C4B56410  27.106  23.018   7.364
 4391POPC   NC356411   1.243  19.806   5.564
 4391POPC   PO456412   1.207  19.872   5.864
 4391POPC   GL156413   1.235  19.832   6.164
 4391POPC   GL256414   1.108  19.823   6.164
 4391POPC   C1A56415   1.206  19.830   6.464
 4391POPC   D2A56416   1.181  19.870   6.764
 4391POPC   C3A56417   1.166  19.825   7.064
 4391POPC   C4A56418   1.233  19.862   7.364
 4391POPC   C1B56419   0.975  19.902   6.464
 4391POPC   C2B56420   0.960  19.925   6.764
 4391POPC   C3B56421   0.972  19.913   7.064
 4391POPC   C4B56422   1.009  19.864   7.364
 4392POPC   NC356423  36.918   6.684   5.564
 4392POPC   PO456424  36.862   6.694   5.864
 4392POPC   GL156425  36.885   6.660   6.164
 4392POPC   GL256426  36.814   6.684   6.164
 4392POPC   C1A56427  36.882   6.631   6.464
 4392POPC   D2A56428  36.880   6.618   6.764
 4392POPC   C3A56429  36.912   6.674   7.064
 4392POPC   C4A56430  36.862   6.649   7.364
 4392POPC   C1B56431  36.656   6.684   6.464
 4392POPC   C2B56432  36.629   6.704   6.764
 4392POPC   C3B56433  36.672   6.698   7.064
 4392POPC   C4B56434  36.704   6.709   7.364
 4393POPC   NC356435  29.116   9.750   5.564
 4393POPC   PO456436  29.102   9.713   5.864
 4393POPC   GL156437  29.123   9.719   6.164
 4393POPC   GL256438  29.211   9.918   6.164
 4393POPC   C1A56439  29.155   9.698   6.464
 4393POPC   D2A56440  29.124   9.773   6.764
 4393POPC   C3A56441  29.190   9.780   7.064
 4393POPC   C4A56442  29.150   9.751   7.364
 4393POPC   C1B56443  29.219  10.006   6.464
 4393POPC   C2B56444  29.165  10.003   6.764
 4393POPC   C3B56445  29.209   9.980   7.064
 4393POPC   C4B56446  29.164   9.964   7.364
 4394POPC   NC356447  39.278  33.750   5.564
 4394POPC   PO456448  39.270  33.764   5.864
 4394POPC   GL156449  39.220  33.822   6.164
 4394POPC   GL256450  39.286  33.866   6.164
 4394POPC   C1A56451  39.279  33.842   6.464
 4394POPC   D2A56452  39.268  33.767   6.764
 4394POPC   C3A56453  39.210  33.793   7.064
 4394POPC   C4A56454  39.218  33.793   7.364
 4394POPC   C1B56455  39.393  34.043   6.464
 4394POPC   C2B56456  39.404  34.004   6.764
 4394POPC   C3B56457  39.390  33.958   7.064
 4394POPC   C4B56458  39.419  33.968   7.364
 4395POPC   NC356459  11.340   5.827   5.564
 4395POPC   PO456460  11.282   5.884   5.864
 4395POPC   GL156461  11.259   5.901   6.164
 4395POPC   GL256462  11.394   5.788   6.164
 4395POPC   C1A56463  11.290   5.901   6.464
 4395POPC   D2A56464  11.285   5.872   6.764
 4395POPC   C3A56465  11.310   5.841   7.064
 4395POPC   C4A56466  11.283   5.917   7.364
 4395POPC   C1B56467  11.455   5.724   6.464
 4395POPC   C2B56468  11.466   5.702   6.764
 4395POPC   C3B56469  11.469   5.734   7.064
 4395POPC   C4B56470  11.470   5.730   7.364
 4396POPC   NC356471  32.204  34.603   5.564
 4396POPC   PO456472  32.259  34.564   5.864
 4396POPC   GL156473  32.259  34.585   6.164
 4396POPC   GL256474  32.320  34.666   6.164
 4396POPC   C1A56475  32.208  34.545   6.464
 4396POPC   D2A56476  32.258  34.612   6.764
 4396POPC   C3A56477  32.235  34.581   7.064
 4396POPC   C4A56478  32.276  34.547   7.364
 4396POPC   C1B56479  32.335  34.847   6.464
 4396POPC   C2B56480  32.311  34.811   6.764
 4396POPC   C3B56481  32.295  34.868   7.064
 4396POPC   C4B56482  32.323  34.835   7.364
 4397POPC   NC356483   2.717   0.472   5.564
 4397POPC   PO456484   2.795   0.462   5.864
 4397POPC   GL156485   2.775   0.392   6.164
 4397POPC   GL256486   2.910   0.493   6.164
 4397POPC   C1A56487   2.802   0.454   6.464
 4397POPC   D2A56488   2.728   0.410   6.764
 4397POPC   C3A56489   2.764   0.453   7.064
 4397POPC   C4A56490   2.760   0.461   7.364
 4397POPC   C1B56491   2.982   0.549   6.464
 4397POPC   C2B56492   3.034   0.482   6.764
 4397POPC   C3B56493   3.017   0.531   7.064
 4397POPC   C4B56494   3.047   0.478   7.364
 4398POPC   NC356495  32.286  32.259   5.564
 4398POPC   PO456496  32.220  32.262   5.864
 4398POPC   GL156497  32.289  32.255   6.164
 4398POPC   GL256498  32.385  32.199   6.164
 4398POPC   C1A56499  32.264  32.293   6.464
 4398POPC   D2A56500  32.202  32.241   6.764
 4398POPC   C3A56501  32.286  32.219   7.064
 4398POPC   C4A56502  32.284  32.237   7.364
 4398POPC   C1B56503  32.420  32.116   6.464
 4398POPC   C2B56504  32.400  32.044   6.764
 4398POPC   C3B56505  32.472  32.077   7.064
 4398POPC   C4B56506  32.470  32.032   7.364
 4399POPC   NC356507  15.210  30.742   5.564
 4399POPC   PO456508  15.167  30.738   5.864
 4399POPC   GL156509  15.156  30.746   6.164
 4399POPC   GL256510  15.287  30.753   6.164
 4399POPC   C1A56511  15.208  30.652   6.464
 4399POPC   D2A56512  15.170  30.721   6.764
 4399POPC   C3A56513  15.177  30.659   7.064
 4399POPC   C4A56514  15.130  30.716   7.364
 4399POPC   C1B56515  15.335  30.866   6.464
 4399POPC   C2B56516  15.315  30.917   6.764
 4399POPC   C3B56517  15.387  30.867   7.064
 4399POPC   C4B56518  15.326  30.840   7.364
 4400POPC   NC356519  40.797   7.469   5.564
 4400POPC   PO456520  40.797   7.402   5.864
 4400POPC   GL156521  40.780   7.456   6.164
 4400POPC   GL256522  40.788   7.522   6.164
 4400POPC   C1A56523  40.813   7.401   6.464
 4400POPC   D2A56524  40.818   7.420   6.764
 4400POPC   C3A56525  40.777   7.426   7.064
 4400POPC   C4A56526  40.776   7.418   7.364
 4400POPC   C1B56527  40.818   7.717   6.464
 4400POPC   C2B56528  40.815   7.618   6.764
 4400POPC   C3B56529  40.851   7.698   7.064
 4400POPC   C4B56530  40.840   7.709   7.364
 4401POPC   NC356531  32.294  23.738   5.564
 4401POPC   PO456532  32.238  23.703   5.864
 4401POPC   GL156533  32.291  23.759   6.164
 4401POPC   GL256534  32.281  23.849   6.164
 4401POPC   C1A56535  32.204  23.761   6.464
 4401POPC   D2A56536  32.247  23.732   6.764
 4401POPC   C3A56537  32.200  23.757   7.064
 4401POPC   C4A56538  32.240  23.673   7.364
 4401POPC   C1B56539  32.312  23.984   6.464
 4401POPC   C2B56540  32.270  23.991   6.764
 4401POPC   C3B56541  32.332  23.930   7.064
 4401POPC   C4B56542  32.304  23.919   7.364
 4402POPC   NC356543   7.412  26.068   5.564
 4402POPC   PO456544   7.405  26.033   5.864
 4402POPC   GL156545   7.455  26.037   6.164
 4402POPC   GL256546   7.271  26.042   6.164
 4402POPC   C1A56547   7.439  26.019   6.464
 4402POPC   D2A56548   7.401  26.055   6.764
 4402POPC   C3A56549   7.396  26.028   7.064
 4402POPC   C4A56550   7.371  26.019   7.364
 4402POPC   C1B56551   7.212  26.030   6.464
 4402POPC   C2B56552   7.185  26.040   6.764
 4402POPC   C3B56553   7.188  26.098   7.064
 4402POPC   C4B56554   7.151  26.051   7.364
 4403POPC   NC356555   5.050  32.214   5.564
 4403POPC   PO456556   5.050  32.223   5.864
 4403POPC   GL156557   5.113  32.286   6.164
 4403POPC   GL256558   5.197  32.258   6.164
 4403POPC   C1A56559   5.102  32.227   6.464
 4403POPC   D2A56560   5.139  32.240   6.764
 4403POPC   C3A56561   5.076  32.213   7.064
 4403POPC   C4A56562   5.115  32.215   7.364
 4403POPC   C1B56563   5.294  32.360   6.464
 4403POPC   C2B56564   5.301  32.301   6.764
 4403POPC   C3B56565   5.366  32.387   7.064
 4403POPC   C4B56566   5.307  32.346   7.364
 4404POPC   NC356567  38.500  32.209   5.564
 4404POPC   PO456568  38.474  32.294   5.864
 4404POPC   GL156569  38.456  32.201   6.164
 4404POPC   GL256570  38.319  32.207   6.164
 4404POPC   C1A56571  38.466  32.274   6.464
 4404POPC   D2A56572  38.408  32.209   6.764
 4404POPC   C3A56573  38.416  32.248   7.064
 4404POPC   C4A56574  38.447  32.275   7.364
 4404POPC   C1B56575  38.236  32.161   6.464
 4404POPC   C2B56576  38.250  32.170   6.764
 4404POPC   C3B56577  38.184  32.148   7.064
 4404POPC   C4B56578  38.261  32.095   7.364
 4405POPC   NC356579   6.596  42.312   5.564
 4405POPC   PO456580   6.600  42.298   5.864
 4405POPC   GL156581   6.653  42.301   6.164
 4405POPC   GL256582   6.790  42.371   6.164
 4405POPC   C1A56583   6.680  42.320   6.464
 4405POPC   D2A56584   6.625  42.333   6.764
 4405POPC   C3A56585   6.639  42.357   7.064
 4405POPC   C4A56586   6.683  42.287   7.364
 4405POPC   C1B56587   6.841  42.516   6.464
 4405POPC   C2B56588   6.841  42.455   6.764
 4405POPC   C3B56589   6.834  42.467   7.064
 4405POPC   C4B56590   6.860  42.457   7.364
 4406POPC   NC356591  21.343  16.750   5.564
 4406POPC   PO456592  21.416  16.710   5.864
 4406POPC   GL156593  21.424  16.697   6.164
 4406POPC   GL256594  21.446  16.662   6.164
 4406POPC   C1A56595  21.383  16.697   6.464
 4406POPC   D2A56596  21.397  16.689   6.764
 4406POPC   C3A56597  21.352  16.781   7.064
 4406POPC   C4A56598  21.431  16.765   7.364
 4406POPC   C1B56599  21.547  16.538   6.464
 4406POPC   C2B56600  21.616  16.521   6.764
 4406POPC   C3B56601  21.594  16.532   7.064
 4406POPC   C4B56602  21.575  16.556   7.364
 4407POPC   NC356603  39.230  41.534   5.564
 4407POPC   PO456604  39.201  41.600   5.864
 4407POPC   GL156605  39.196  41.581   6.164
 4407POPC   GL256606  39.201  41.420   6.164
 4407POPC   C1A56607  39.213  41.577   6.464
 4407POPC   D2A56608  39.228  41.509   6.764
 4407POPC   C3A56609  39.267  41.585   7.064
 4407POPC   C4A56610  39.247  41.588   7.364
 4407POPC   C1B56611  39.154  41.267   6.464
 4407POPC   C2B56612  39.135  41.338   6.764
 4407POPC   C3B56613  39.155  41.268   7.064
 4407POPC   C4B56614  39.218  41.284   7.364
 4408POPC   NC356615  15.999  43.892   5.564
 4408POPC   PO456616  16.003  43.867   5.864
 4408POPC   GL156617  15.918  43.840   6.164
 4408POPC   GL256618  16.016  44.034   6.164
 4408POPC   C1A56619  15.972  43.885   6.464
 4408POPC   D2A56620  15.955  43.932   6.764
 4408POPC   C3A56621  15.988  43.935   7.064
 4408POPC   C4A56622  15.931  43.899   7.364
 4408POPC   C1B56623  16.005  44.091   6.464
 4408POPC   C2B56624  15.970  44.120   6.764
 4408POPC   C3B56625  15.984  44.151   7.064
 4408POPC   C4B56626  15.978  44.105   7.364
 4409POPC   NC356627  10.562  43.877   5.564
 4409POPC   PO456628  10.507  43.906   5.864
 4409POPC   GL156629  10.489  43.893   6.164
 4409POPC   GL256630  10.523  43.743   6.164
 4409POPC   C1A56631  10.488  43.890   6.464
 4409POPC   D2A56632  10.552  43.842   6.764
 4409POPC   C3A56633  10.562  43.898   7.064
 4409POPC   C4A56634  10.543  43.878   7.364
 4409POPC   C1B56635  10.554  43.636   6.464
 4409POPC   C2B56636  10.624  43.656   6.764
 4409POPC   C3B56637  10.598  43.623   7.064
 4409POPC   C4B56638  10.641  43.600   7.364
 4410POPC   NC356639  39.972  40.013   5.564
 4410POPC   PO456640  39.961  39.957   5.864
 4410POPC   GL156641  40.022  40.040   6.164
 4410POPC   GL256642  39.911  40.023   6.164
 4410POPC   C1A56643  40.021  40.020   6.464
 4410POPC   D2A56644  39.996  39.964   6.764
 4410POPC   C3A56645  39.982  39.964   7.064
 4410POPC   C4A56646  40.035  39.973   7.364
 4410POPC   C1B56647  39.766  40.084   6.464
 4410POPC   C2B56648  39.749  40.102   6.764
 4410POPC   C3B56649  39.799  40.098   7.064
 4410POPC   C4B56650  39.758  40.124   7.364
 4411POPC   NC356651  39.213   1.966   5.564
 4411POPC   PO456652  39.241   1.964   5.864
 4411POPC   GL156653  39.219   1.965   6.164
 4411POPC   GL256654  39.219   2.056   6.164
 4411POPC   C1A56655  39.223   1.982   6.464
 4411POPC   D2A56656  39.229   1.953   6.764
 4411POPC   C3A56657  39.202   1.959   7.064
 4411POPC   C4A56658  39.243   1.990   7.364
 4411POPC   C1B56659  39.159   2.205   6.464
 4411POPC   C2B56660  39.123   2.221   6.764
 4411POPC   C3B56661  39.140   2.239   7.064
 4411POPC   C4B56662  39.114   2.183   7.364
 4412POPC   NC356663  32.986  39.238   5.564
 4412POPC   PO456664  33.003  39.257   5.864
 4412POPC   GL156665  33.062  39.275   6.164
 4412POPC   GL256666  32.987  39.324   6.164
 4412POPC   C1A56667  32.976  39.274   6.464
 4412POPC   D2A56668  32.998  39.260   6.764
 4412POPC   C3A56669  33.031  39.206   7.064
 4412POPC   C4A56670  33.026  39.236   7.364
 4412POPC   C1B56671  32.864  39.422   6.464
 4412POPC   C2B56672  32.895  39.473   6.764
 4412POPC   C3B56673  32.891  39.468   7.064
 4412POPC   C4B56674  32.858  39.436   7.364
 4413POPC   NC356675   7.463  23.707   5.564
 4413POPC   PO456676   7.418  23.724   5.864
 4413POPC   GL156677   7.394  23.723   6.164
 4413POPC   GL256678   7.503  23.596   6.164
 4413POPC   C1A56679   7.445  23.745   6.464
 4413POPC   D2A56680   7.417  23.753   6.764
 4413POPC   C3A56681   7.371  23.675   7.064
 4413POPC   C4A56682   7.460  23.753   7.364
 4413POPC   C1B56683   7.661  23.551   6.464
 4413POPC   C2B56684   7.635  23.510   6.764
 4413POPC   C3B56685   7.618  23.527   7.064
 4413POPC   C4B56686   7.630  23.515   7.364
 4414POPC   NC356687  43.150   4.273   5.564
 4414POPC   PO456688  43.080   4.349   5.864
 4414POPC   GL156689  43.071   4.289   6.164
 4414POPC   GL256690  43.058   4.394   6.164
 4414POPC   C1A56691  43.117   4.356   6.464
 4414POPC   D2A56692  43.122   4.343   6.764
 4414POPC   C3A56693  43.130   4.305   7.064
 4414POPC   C4A56694  43.122   4.272   7.364
 4414POPC   C1B56695  43.083   4.551   6.464
 4414POPC   C2B56696  43.064   4.550   6.764
 4414POPC   C3B56697  43.052   4.518   7.064
 4414POPC   C4B56698  43.096   4.579   7.364
 4415POPC   NC356699  38.470  15.145   5.564
 4415POPC   PO456700  38.421  15.224   5.864
 4415POPC   GL156701  38.450  15.132   6.164
 4415POPC   GL256702  38.487  15.084   6.164
 4415POPC   C1A56703  38.476  15.215   6.464
 4415POPC   D2A56704  38.419  15.142   6.764
 4415POPC   C3A56705  38.463  15.137   7.064
 4415POPC   C4A56706  38.503  15.166   7.364
 4415POPC   C1B56707  38.537  14.896   6.464
 4415POPC   C2B56708  38.492  14.915   6.764
 4415POPC   C3B56709  38.516  14.977   7.064
 4415POPC   C4B56710  38.491  14.970   7.364
 4416POPC   NC356711  39.198  36.932   5.564
 4416POPC   PO456712  39.200  36.866   5.864
 4416POPC   GL156713  39.224  36.914   6.164
 4416POPC   GL256714  39.072  36.921   6.164
 4416POPC   C1A56715  39.225  36.929   6.464
 4416POPC   D2A56716  39.253  36.949   6.764
 4416POPC   C3A56717  39.253  36.893   7.064
 4416POPC   C4A56718  39.254  36.904   7.364
 4416POPC   C1B56719  38.949  36.851   6.464
 4416POPC   C2B56720  38.973  36.831   6.764
 4416POPC   C3B56721  38.967  36.846   7.064
 4416POPC   C4B56722  39.003  36.823   7.364
 4417POPC   NC356723  32.996  29.881   5.564
 4417POPC   PO456724  33.039  29.928   5.864
 4417POPC   GL156725  32.977  29.916   6.164
 4417POPC   GL256726  33.076  30.055   6.164
 4417POPC   C1A56727  33.046  29.949   6.464
 4417POPC   D2A56728  33.023  29.904   6.764
 4417POPC   C3A56729  33.014  29.938   7.064
 4417POPC   C4A56730  32.982  29.877   7.364
 4417POPC   C1B56731  33.229  30.070   6.464
 4417POPC   C2B56732  33.233  30.070   6.764
 4417POPC   C3B56733  33.167  30.107   7.064
 4417POPC   C4B56734  33.191  30.057   7.364
 4418POPC   NC356735   2.723   5.899   5.564
 4418POPC   PO456736   2.718   5.899   5.864
 4418POPC   GL156737   2.812   5.883   6.164
 4418POPC   GL256738   2.839   5.929   6.164
 4418POPC   C1A56739   2.746   5.829   6.464
 4418POPC   D2A56740   2.786   5.880   6.764
 4418POPC   C3A56741   2.730   5.835   7.064
 4418POPC   C4A56742   2.724   5.878   7.364
 4418POPC   C1B56743   2.965   5.982   6.464
 4418POPC   C2B56744   3.012   6.065   6.764
 4418POPC   C3B56745   2.976   6.053   7.064
 4418POPC   C4B56746   2.944   6.000   7.364
 4419POPC   NC356747  43.067   2.001   5.564
 4419POPC   PO456748  43.127   2.015   5.864
 4419POPC   GL156749  43.110   2.035   6.164
 4419POPC   GL256750  43.199   2.025   6.164
 4419POPC   C1A56751  43.110   1.959   6.464
 4419POPC   D2A56752  43.101   2.003   6.764
 4419POPC   C3A56753  43.063   1.990   7.064
 4419POPC   C4A56754  43.074   1.987   7.364
 4419POPC   C1B56755  43.345   2.035   6.464
 4419POPC   C2B56756  43.373   2.022   6.764
 4419POPC   C3B56757  43.312   2.028   7.064
 4419POPC   C4B56758  43.353   2.004   7.364
 4420POPC   NC356759  43.074  26.081   5.564
 4420POPC   PO456760  43.096  26.004   5.864
 4420POPC   GL156761  43.070  26.073   6.164
 4420POPC   GL256762  43.103  26.168   6.164
 4420POPC   C1A56763  43.142  26.026   6.464
 4420POPC   D2A56764  43.156  26.022   6.764
 4420POPC   C3A56765  43.151  25.996   7.064
 4420POPC   C4A56766  43.080  26.064   7.364
 4420POPC   C1B56767  42.993  26.287   6.464
 4420POPC   C2B56768  43.045  26.250   6.764
 4420POPC   C3B56769  43.055  26.278   7.064
 4420POPC   C4B56770  43.057  26.279   7.364
 4421POPC   NC356771  33.765  40.740   5.564
 4421POPC   PO456772  33.770  40.786   5.864
 4421POPC   GL156773  33.787  40.791   6.164
 4421POPC   GL256774  33.764  40.695   6.164
 4421POPC   C1A56775  33.778  40.800   6.464
 4421POPC   D2A56776  33.780  40.750   6.764
 4421POPC   C3A56777  33.819  40.759   7.064
 4421POPC   C4A56778  33.842  40.753   7.364
 4421POPC   C1B56779  33.659  40.532   6.464
 4421POPC   C2B56780  33.679  40.553   6.764
 4421POPC   C3B56781  33.655  40.547   7.064
 4421POPC   C4B56782  33.730  40.530   7.364
 4422POPC   NC356783   4.317  40.057   5.564
 4422POPC   PO456784   4.274  39.984   5.864
 4422POPC   GL156785   4.297  40.039   6.164
 4422POPC   GL256786   4.428  40.001   6.164
 4422POPC   C1A56787   4.344  40.042   6.464
 4422POPC   D2A56788   4.285  39.990   6.764
 4422POPC   C3A56789   4.277  40.010   7.064
 4422POPC   C4A56790   4.271  40.041   7.364
 4422POPC   C1B56791   4.540  39.847   6.464
 4422POPC   C2B56792   4.525  39.877   6.764
 4422POPC   C3B56793   4.569  39.924   7.064
 4422POPC   C4B56794   4.561  39.880   7.364
 4423POPC   NC356795  19.833   5.059   5.564
 4423POPC   PO456796  19.815   5.068   5.864
 4423POPC   GL156797  19.868   5.062   6.164
 4423POPC   GL256798  19.902   5.150   6.164
 4423POPC   C1A56799  19.828   5.065   6.464
 4423POPC   D2A56800  19.794   5.138   6.764
 4423POPC   C3A56801  19.860   5.112   7.064
 4423POPC   C4A56802  19.795   5.048   7.364
 4423POPC   C1B56803  19.992   5.231   6.464
 4423POPC   C2B56804  20.038   5.229   6.764
 4423POPC   C3B56805  20.036   5.265   7.064
 4423POPC   C4B56806  19.978   5.289   7.364
 4424POPC   NC356807  40.825   3.523   5.564
 4424POPC   PO456808  40.814   3.567   5.864
 4424POPC   GL156809  40.817   3.532   6.164
 4424POPC   GL256810  40.862   3.631   6.164
 4424POPC   C1A56811  40.793   3.527   6.464
 4424POPC   D2A56812  40.791   3.534   6.764
 4424POPC   C3A56813  40.790   3.502   7.064
 4424POPC   C4A56814  40.833   3.535   7.364
 4424POPC   C1B56815  40.980   3.650   6.464
 4424POPC   C2B56816  40.971   3.682   6.764
 4424POPC   C3B56817  41.035   3.709   7.064
 4424POPC   C4B56818  40.991   3.628   7.364
 4425POPC   NC356819  27.549  26.795   5.564
 4425POPC   PO456820  27.579  26.781   5.864
 4425POPC   GL156821  27.568  26.834   6.164
 4425POPC   GL256822  27.554  26.662   6.164
 4425POPC   C1A56823  27.635  26.770   6.464
 4425POPC   D2A56824  27.603  26.771   6.764
 4425POPC   C3A56825  27.572  26.799   7.064
 4425POPC   C4A56826  27.566  26.822   7.364
 4425POPC   C1B56827  27.576  26.543   6.464
 4425POPC   C2B56828  27.537  26.568   6.764
 4425POPC   C3B56829  27.551  26.605   7.064
 4425POPC   C4B56830  27.576  26.559   7.364
 4426POPC   NC356831   7.434  21.353   5.564
 4426POPC   PO456832   7.452  21.382   5.864
 4426POPC   GL156833   7.453  21.361   6.164
 4426POPC   GL256834   7.507  21.265   6.164
 4426POPC   C1A56835   7.464  21.378   6.464
 4426POPC   D2A56836   7.379  21.390   6.764
 4426POPC   C3A56837   7.424  21.349   7.064
 4426POPC   C4A56838   7.445  21.358   7.364
 4426POPC   C1B56839   7.559  21.144   6.464
 4426POPC   C2B56840   7.544  21.166   6.764
 4426POPC   C3B56841   7.541  21.197   7.064
 4426POPC   C4B56842   7.526  21.152   7.364
 4427POPC   NC356843   9.002   9.744   5.564
 4427POPC   PO456844   9.014   9.794   5.864
 4427POPC   GL156845   8.988   9.751   6.164
 4427POPC   GL256846   9.053   9.585   6.164
 4427POPC   C1A56847   9.011   9.795   6.464
 4427POPC   D2A56848   9.003   9.798   6.764
 4427POPC   C3A56849   8.988   9.731   7.064
 4427POPC   C4A56850   8.972   9.761   7.364
 4427POPC   C1B56851   9.073   9.508   6.464
 4427POPC   C2B56852   9.078   9.519   6.764
 4427POPC   C3B56853   9.119   9.538   7.064
 4427POPC   C4B56854   9.063   9.518   7.364
 4428POPC   NC356855  31.471  15.175   5.564
 4428POPC   PO456856  31.491  15.189   5.864
 4428POPC   GL156857  31.512  15.202   6.164
 4428POPC   GL256858  31.401  15.108   6.164
 4428POPC   C1A56859  31.446  15.211   6.464
 4428POPC   D2A56860  31.431  15.160   6.764
 4428POPC   C3A56861  31.444  15.142   7.064
 4428POPC   C4A56862  31.495  15.156   7.364
 4428POPC   C1B56863  31.298  15.015   6.464
 4428POPC   C2B56864  31.365  14.917   6.764
 4428POPC   C3B56865  31.368  14.958   7.064
 4428POPC   C4B56866  31.321  14.923   7.364
 4429POPC   NC356867  14.371  19.865   5.564
 4429POPC   PO456868  14.427  19.834   5.864
 4429POPC   GL156869  14.406  19.792   6.164
 4429POPC   GL256870  14.333  19.948   6.164
 4429POPC   C1A56871  14.429  19.874   6.464
 4429POPC   D2A56872  14.417  19.819   6.764
 4429POPC   C3A56873  14.424  19.884   7.064
 4429POPC   C4A56874  14.406  19.812   7.364
 4429POPC   C1B56875  14.273  20.005   6.464
 4429POPC   C2B56876  14.194  20.019   6.764
 4429POPC   C3B56877  14.227  19.961   7.064
 4429POPC   C4B56878  14.186  19.966   7.364
 4430POPC   NC356879   7.452   8.959   5.564
 4430POPC   PO456880   7.398   9.006   5.864
 4430POPC   GL156881   7.423   8.952   6.164
 4430POPC   GL256882   7.364   8.866   6.164
 4430POPC   C1A56883   7.374   8.949   6.464
 4430POPC   D2A56884   7.462   8.935   6.764
 4430POPC   C3A56885   7.445   8.985   7.064
 4430POPC   C4A56886   7.458   8.975   7.364
 4430POPC   C1B56887   7.279   8.772   6.464
 4430POPC   C2B56888   7.231   8.820   6.764
 4430POPC   C3B56889   7.247   8.788   7.064
 4430POPC   C4B56890   7.247   8.821   7.364
 4431POPC   NC356891   7.395  36.908   5.564
 4431POPC   PO456892   7.398  36.895   5.864
 4431POPC   GL156893   7.453  36.879   6.164
 4431POPC   GL256894   7.505  36.993   6.164
 4431POPC   C1A56895   7.428  36.926   6.464
 4431POPC   D2A56896   7.387  36.904   6.764
 4431POPC   C3A56897   7.427  36.911   7.064
 4431POPC   C4A56898   7.411  36.939   7.364
 4431POPC   C1B56899   7.634  37.054   6.464
 4431POPC   C2B56900   7.683  37.012   6.764
 4431POPC   C3B56901   7.639  37.035   7.064
 4431POPC   C4B56902   7.607  37.024   7.364
 4432POPC   NC356903   0.447  20.636   5.564
 4432POPC   PO456904   0.390  20.578   5.864
 4432POPC   GL156905   0.469  20.609   6.164
 4432POPC   GL256906   0.517  20.527   6.164
 4432POPC   C1A56907   0.485  20.593   6.464
 4432POPC   D2A56908   0.418  20.566   6.764
 4432POPC   C3A56909   0.451  20.600   7.064
 4432POPC   C4A56910   0.419  20.611   7.364
 4432POPC   C1B56911   0.576  20.351   6.464
 4432POPC   C2B56912   0.522  20.355   6.764
 4432POPC   C3B56913   0.508  20.352   7.064
 4432POPC   C4B56914   0.583  20.358   7.364
 4433POPC   NC356915  15.982  32.222   5.564
 4433POPC   PO456916  15.942  32.298   5.864
 4433POPC   GL156917  15.933  32.260   6.164
 4433POPC   GL256918  16.073  32.287   6.164
 4433POPC   C1A56919  15.984  32.252   6.464
 4433POPC   D2A56920  15.984  32.228   6.764
 4433POPC   C3A56921  15.927  32.279   7.064
 4433POPC   C4A56922  15.922  32.292   7.364
 4433POPC   C1B56923  16.238  32.255   6.464
 4433POPC   C2B56924  16.243  32.282   6.764
 4433POPC   C3B56925  16.160  32.278   7.064
 4433POPC   C4B56926  16.178  32.240   7.364
 4434POPC   NC356927  41.564  15.910   5.564
 4434POPC   PO456928  41.541  15.996   5.864
 4434POPC   GL156929  41.562  15.993   6.164
 4434POPC   GL256930  41.699  15.981   6.164
 4434POPC   C1A56931  41.568  15.992   6.464
 4434POPC   D2A56932  41.570  15.926   6.764
 4434POPC   C3A56933  41.509  15.916   7.064
 4434POPC   C4A56934  41.566  15.910   7.364
 4434POPC   C1B56935  41.768  16.021   6.464
 4434POPC   C2B56936  41.734  16.044   6.764
 4434POPC   C3B56937  41.739  16.105   7.064
 4434POPC   C4B56938  41.789  16.069   7.364
 4435POPC   NC356939  22.157  12.073   5.564
 4435POPC   PO456940  22.160  12.034   5.864
 4435POPC   GL156941  22.198  12.088   6.164
 4435POPC   GL256942  22.210  11.985   6.164
 4435POPC   C1A56943  22.201  12.068   6.464
 4435POPC   D2A56944  22.142  12.062   6.764
 4435POPC   C3A56945  22.182  12.083   7.064
 4435POPC   C4A56946  22.164  12.108   7.364
 4435POPC   C1B56947  22.199  11.807   6.464
 4435POPC   C2B56948  22.206  11.809   6.764
 4435POPC   C3B56949  22.226  11.793   7.064
 4435POPC   C4B56950  22.269  11.827   7.364
 4436POPC   NC356951   5.121  33.830   5.564
 4436POPC   PO456952   5.049  33.831   5.864
 4436POPC   GL156953   5.095  33.829   6.164
 4436POPC   GL256954   5.262  33.806   6.164
 4436POPC   C1A56955   5.094  33.821   6.464
 4436POPC   D2A56956   5.072  33.764   6.764
 4436POPC   C3A56957   5.079  33.814   7.064
 4436POPC   C4A56958   5.128  33.763   7.364
 4436POPC   C1B56959   5.367  33.828   6.464
 4436POPC   C2B56960   5.351  33.829   6.764
 4436POPC   C3B56961   5.292  33.882   7.064
 4436POPC   C4B56962   5.299  33.786   7.364
 4437POPC   NC356963  16.687  26.804   5.564
 4437POPC   PO456964  16.754  26.770   5.864
 4437POPC   GL156965  16.719  26.810   6.164
 4437POPC   GL256966  16.822  26.901   6.164
 4437POPC   C1A56967  16.716  26.787   6.464
 4437POPC   D2A56968  16.749  26.838   6.764
 4437POPC   C3A56969  16.688  26.866   7.064
 4437POPC   C4A56970  16.699  26.867   7.364
 4437POPC   C1B56971  16.865  26.989   6.464
 4437POPC   C2B56972  16.907  26.966   6.764
 4437POPC   C3B56973  16.906  26.972   7.064
 4437POPC   C4B56974  16.930  27.038   7.364
 4438POPC   NC356975  14.386  17.509   5.564
 4438POPC   PO456976  14.379  17.550   5.864
 4438POPC   GL156977  14.374  17.459   6.164
 4438POPC   GL256978  14.400  17.411   6.164
 4438POPC   C1A56979  14.420  17.483   6.464
 4438POPC   D2A56980  14.359  17.542   6.764
 4438POPC   C3A56981  14.378  17.548   7.064
 4438POPC   C4A56982  14.373  17.500   7.364
 4438POPC   C1B56983  14.511  17.251   6.464
 4438POPC   C2B56984  14.532  17.230   6.764
 4438POPC   C3B56985  14.515  17.232   7.064
 4438POPC   C4B56986  14.519  17.289   7.364
 4439POPC   NC356987   3.552   0.483   5.564
 4439POPC   PO456988   3.583   0.483   5.864
 4439POPC   GL156989   3.550   0.482   6.164
 4439POPC   GL256990   3.644   0.320   6.164
 4439POPC   C1A56991   3.519   0.454   6.464
 4439POPC   D2A56992   3.508   0.420   6.764
 4439POPC   C3A56993   3.533   0.485   7.064
 4439POPC   C4A56994   3.582   0.425   7.364
 4439POPC   C1B56995   3.694   0.193   6.464
 4439POPC   C2B56996   3.700   0.246   6.764
 4439POPC   C3B56997   3.666   0.210   7.064
 4439POPC   C4B56998   3.676   0.232   7.364
 4440POPC   NC356999   7.422  28.397   5.564
 4440POPC   PO457000   7.432  28.399   5.864
 4440POPC   GL157001   7.395  28.413   6.164
 4440POPC   GL257002   7.396  28.245   6.164
 4440POPC   C1A57003   7.382  28.358   6.464
 4440POPC   D2A57004   7.459  28.325   6.764
 4440POPC   C3A57005   7.441  28.337   7.064
 4440POPC   C4A57006   7.446  28.387   7.364
 4440POPC   C1B57007   7.344  28.076   6.464
 4440POPC   C2B57008   7.424  28.105   6.764
 4440POPC   C3B57009   7.418  28.078   7.064
 4440POPC   C4B57010   7.428  28.170   7.364
 4441POPC   NC357011   2.744  34.593   5.564
 4441POPC   PO457012   2.796  34.602   5.864
 4441POPC   GL157013   2.788  34.560   6.164
 4441POPC   GL257014   2.684  34.497   6.164
 4441POPC   C1A57015   2.768  34.564   6.464
 4441POPC   D2A57016   2.805  34.620   6.764
 4441POPC   C3A57017   2.752  34.591   7.064
 4441POPC   C4A57018   2.747  34.558   7.364
 4441POPC   C1B57019   2.537  34.378   6.464
 4441POPC   C2B57020   2.578  34.410   6.764
 4441POPC   C3B57021   2.593  34.410   7.064
 4441POPC   C4B57022   2.589  34.361   7.364
 4442POPC   NC357023  43.089   3.528   5.564
 4442POPC   PO457024  43.061   3.584   5.864
 4442POPC   GL157025  43.132   3.556   6.164
 4442POPC   GL257026  42.957   3.488   6.164
 4442POPC   C1A57027  43.156   3.517   6.464
 4442POPC   D2A57028  43.119   3.582   6.764
 4442POPC   C3A57029  43.157   3.523   7.064
 4442POPC   C4A57030  43.091   3.541   7.364
 4442POPC   C1B57031  42.826   3.455   6.464
 4442POPC   C2B57032  42.892   3.414   6.764
 4442POPC   C3B57033  42.897   3.413   7.064
 4442POPC   C4B57034  42.883   3.447   7.364
 4443POPC   NC357035  29.134  19.786   5.564
 4443POPC   PO457036  29.095  19.838   5.864
 4443POPC   GL157037  29.180  19.864   6.164
 4443POPC   GL257038  29.243  19.792   6.164
 4443POPC   C1A57039  29.129  19.878   6.464
 4443POPC   D2A57040  29.112  19.862   6.764
 4443POPC   C3A57041  29.160  19.861   7.064
 4443POPC   C4A57042  29.153  19.799   7.364
 4443POPC   C1B57043  29.376  19.676   6.464
 4443POPC   C2B57044  29.341  19.665   6.764
 4443POPC   C3B57045  29.408  19.738   7.064
 4443POPC   C4B57046  29.343  19.729   7.364
 4444POPC   NC357047   0.420  18.329   5.564
 4444POPC   PO457048   0.485  18.243   5.864
 4444POPC   GL157049   0.406  18.234   6.164
 4444POPC   GL257050   0.459  18.373   6.164
 4444POPC   C1A57051   0.428  18.238   6.464
 4444POPC   D2A57052   0.444  18.275   6.764
 4444POPC   C3A57053   0.449  18.300   7.064
 4444POPC   C4A57054   0.391  18.234   7.364
 4444POPC   C1B57055   0.404  18.534   6.464
 4444POPC   C2B57056   0.473  18.517   6.764
 4444POPC   C3B57057   0.450  18.511   7.064
 4444POPC   C4B57058   0.388  18.545   7.364
 4445POPC   NC357059  31.480  12.123   5.564
 4445POPC   PO457060  31.473  12.085   5.864
 4445POPC   GL157061  31.437  12.124   6.164
 4445POPC   GL257062  31.480  12.207   6.164
 4445POPC   C1A57063  31.425  12.062   6.464
 4445POPC   D2A57064  31.431  12.106   6.764
 4445POPC   C3A57065  31.518  12.040   7.064
 4445POPC   C4A57066  31.517  12.059   7.364
 4445POPC   C1B57067  31.579  12.351   6.464
 4445POPC   C2B57068  31.526  12.352   6.764
 4445POPC   C3B57069  31.514  12.290   7.064
 4445POPC   C4B57070  31.597  12.356   7.364
 4446POPC   NC357071  24.447  37.701   5.564
 4446POPC   PO457072  24.539  37.631   5.864
 4446POPC   GL157073  24.503  37.678   6.164
 4446POPC   GL257074  24.399  37.675   6.164
 4446POPC   C1A57075  24.452  37.713   6.464
 4446POPC   D2A57076  24.485  37.658   6.764
 4446POPC   C3A57077  24.514  37.654   7.064
 4446POPC   C4A57078  24.451  37.696   7.364
 4446POPC   C1B57079  24.267  37.612   6.464
 4446POPC   C2B57080  24.254  37.616   6.764
 4446POPC   C3B57081  24.214  37.633   7.064
 4446POPC   C4B57082  24.241  37.636   7.364
 4447POPC   NC357083  11.333  11.338   5.564
 4447POPC   PO457084  11.283  11.272   5.864
 4447POPC   GL157085  11.261  11.333   6.164
 4447POPC   GL257086  11.357  11.259   6.164
 4447POPC   C1A57087  11.271  11.317   6.464
 4447POPC   D2A57088  11.306  11.294   6.764
 4447POPC   C3A57089  11.290  11.283   7.064
 4447POPC   C4A57090  11.264  11.329   7.364
 4447POPC   C1B57091  11.492  11.131   6.464
 4447POPC   C2B57092  11.486  11.151   6.764
 4447POPC   C3B57093  11.442  11.137   7.064
 4447POPC   C4B57094  11.498  11.156   7.364
 4448POPC   NC357095   9.797  40.754   5.564
 4448POPC   PO457096   9.755  40.809   5.864
 4448POPC   GL157097   9.721  40.832   6.164
 4448POPC   GL257098   9.902  40.779   6.164
 4448POPC   C1A57099   9.797  40.770   6.464
 4448POPC   D2A57100   9.734  40.798   6.764
 4448POPC   C3A57101   9.761  40.809   7.064
 4448POPC   C4A57102   9.737  40.746   7.364
 4448POPC   C1B57103  10.010  40.669   6.464
 4448POPC   C2B57104  10.033  40.680   6.764
 4448POPC   C3B57105   9.977  40.687   7.064
 4448POPC   C4B57106   9.981  40.683   7.364
 4449POPC   NC357107  11.340  36.884   5.564
 4449POPC   PO457108  11.289  36.900   5.864
 4449POPC   GL157109  11.348  36.902   6.164
 4449POPC   GL257110  11.283  36.749   6.164
 4449POPC   C1A57111  11.297  36.872   6.464
 4449POPC   D2A57112  11.345  36.906   6.764
 4449POPC   C3A57113  11.274  36.897   7.064
 4449POPC   C4A57114  11.319  36.881   7.364
 4449POPC   C1B57115  11.168  36.634   6.464
 4449POPC   C2B57116  11.182  36.709   6.764
 4449POPC   C3B57117  11.239  36.657   7.064
 4449POPC   C4B57118  11.239  36.699   7.364
 4450POPC   NC357119  15.157   0.402   5.564
 4450POPC   PO457120  15.212   0.450   5.864
 4450POPC   GL157121  15.192   0.402   6.164
 4450POPC   GL257122  15.202   0.344   6.164
 4450POPC   C1A57123  15.152   0.397   6.464
 4450POPC   D2A57124  15.155   0.462   6.764
 4450POPC   C3A57125  15.140   0.448   7.064
 4450POPC   C4A57126  15.181   0.466   7.364
 4450POPC   C1B57127  15.225   0.183   6.464
 4450POPC   C2B57128  15.246   0.235   6.764
 4450POPC   C3B57129  15.225   0.220   7.064
 4450POPC   C4B57130  15.158   0.184   7.364
 4451POPC   NC357131   6.682   7.451   5.564
 4451POPC   PO457132   6.616   7.397   5.864
 4451POPC   GL157133   6.671   7.371   6.164
 4451POPC   GL257134   6.679   7.270   6.164
 4451POPC   C1A57135   6.691   7.410   6.464
 4451POPC   D2A57136   6.653   7.453   6.764
 4451POPC   C3A57137   6.664   7.389   7.064
 4451POPC   C4A57138   6.679   7.432   7.364
 4451POPC   C1B57139   6.673   7.153   6.464
 4451POPC   C2B57140   6.651   7.177   6.764
 4451POPC   C3B57141   6.635   7.153   7.064
 4451POPC   C4B57142   6.677   7.195   7.364
 4452POPC   NC357143  23.764  43.854   5.564
 4452POPC   PO457144  23.695  43.882   5.864
 4452POPC   GL157145  23.711  43.841   6.164
 4452POPC   GL257146  23.800  43.819   6.164
 4452POPC   C1A57147  23.692  43.884   6.464
 4452POPC   D2A57148  23.730  43.849   6.764
 4452POPC   C3A57149  23.701  43.899   7.064
 4452POPC   C4A57150  23.692  43.912   7.364
 4452POPC   C1B57151  23.905  43.675   6.464
 4452POPC   C2B57152  23.883  43.706   6.764
 4452POPC   C3B57153  23.861  43.739   7.064
 4452POPC   C4B57154  23.876  43.706   7.364
 4453POPC   NC357155  39.277   0.415   5.564
 4453POPC   PO457156  39.238   0.473   5.864
 4453POPC   GL157157  39.278   0.431   6.164
 4453POPC   GL257158  39.404   0.434   6.164
 4453POPC   C1A57159  39.189   0.428   6.464
 4453POPC   D2A57160  39.278   0.390   6.764
 4453POPC   C3A57161  39.207   0.440   7.064
 4453POPC   C4A57162  39.215   0.460   7.364
 4453POPC   C1B57163  39.522   0.432   6.464
 4453POPC   C2B57164  39.457   0.453   6.764
 4453POPC   C3B57165  39.444   0.435   7.064
 4453POPC   C4B57166  39.459   0.460   7.364
 4454POPC   NC357167  23.710   8.937   5.564
 4454POPC   PO457168  23.672   8.984   5.864
 4454POPC   GL157169  23.721   9.013   6.164
 4454POPC   GL257170  23.718   9.124   6.164
 4454POPC   C1A57171  23.686   9.021   6.464
 4454POPC   D2A57172  23.756   9.011   6.764
 4454POPC   C3A57173  23.708   8.971   7.064
 4454POPC   C4A57174  23.757   8.923   7.364
 4454POPC   C1B57175  23.786   9.193   6.464
 4454POPC   C2B57176  23.734   9.186   6.764
 4454POPC   C3B57177  23.808   9.263   7.064
 4454POPC   C4B57178  23.740   9.174   7.364
 4455POPC   NC357179   0.394  39.248   5.564
 4455POPC   PO457180   0.395  39.254   5.864
 4455POPC   GL157181   0.413  39.265   6.164
 4455POPC   GL257182   0.387  39.309   6.164
 4455POPC   C1A57183   0.437  39.260   6.464
 4455POPC   D2A57184   0.454  39.214   6.764
 4455POPC   C3A57185   0.479  39.213   7.064
 4455POPC   C4A57186   0.468  39.227   7.364
 4455POPC   C1B57187   0.274  39.376   6.464
 4455POPC   C2B57188   0.251  39.413   6.764
 4455POPC   C3B57189   0.325  39.420   7.064
 4455POPC   C4B57190   0.301  39.409   7.364
 4456POPC   NC357191  37.675  33.802   5.564
 4456POPC   PO457192  37.709  33.784   5.864
 4456POPC   GL157193  37.702  33.774   6.164
 4456POPC   GL257194  37.515  33.812   6.164
 4456POPC   C1A57195  37.679  33.835   6.464
 4456POPC   D2A57196  37.701  33.825   6.764
 4456POPC   C3A57197  37.673  33.841   7.064
 4456POPC   C4A57198  37.650  33.757   7.364
 4456POPC   C1B57199  37.486  33.861   6.464
 4456POPC   C2B57200  37.403  33.891   6.764
 4456POPC   C3B57201  37.463  33.885   7.064
 4456POPC   C4B57202  37.399  33.840   7.364
 4457POPC   NC357203  13.607  26.782   5.564
 4457POPC   PO457204  13.584  26.807   5.864
 4457POPC   GL157205  13.675  26.788   6.164
 4457POPC   GL257206  13.700  26.876   6.164
 4457POPC   C1A57207  13.667  26.835   6.464
 4457POPC   D2A57208  13.636  26.833   6.764
 4457POPC   C3A57209  13.627  26.864   7.064
 4457POPC   C4A57210  13.636  26.813   7.364
 4457POPC   C1B57211  13.823  26.894   6.464
 4457POPC   C2B57212  13.905  26.931   6.764
 4457POPC   C3B57213  13.857  26.865   7.064
 4457POPC   C4B57214  13.878  26.912   7.364
 4458POPC   NC357215  24.535  11.280   5.564
 4458POPC   PO457216  24.529  11.287   5.864
 4458POPC   GL157217  24.487  11.330   6.164
 4458POPC   GL257218  24.652  11.347   6.164
 4458POPC   C1A57219  24.488  11.310   6.464
 4458POPC   D2A57220  24.508  11.256   6.764
 4458POPC   C3A57221  24.523  11.283   7.064
 4458POPC   C4A57222  24.471  11.335   7.364
 4458POPC   C1B57223  24.712  11.386   6.464
 4458POPC   C2B57224  24.688  11.428   6.764
 4458POPC   C3B57225  24.748  11.377   7.064
 4458POPC   C4B57226  24.679  11.360   7.364
 4459POPC   NC357227   5.877   7.376   5.564
 4459POPC   PO457228   5.878   7.388   5.864
 4459POPC   GL157229   5.850   7.387   6.164
 4459POPC   GL257230   5.966   7.476   6.164
 4459POPC   C1A57231   5.848   7.390   6.464
 4459POPC   D2A57232   5.880   7.441   6.764
 4459POPC   C3A57233   5.837   7.384   7.064
 4459POPC   C4A57234   5.842   7.371   7.364
 4459POPC   C1B57235   6.053   7.631   6.464
 4459POPC   C2B57236   6.059   7.648   6.764
 4459POPC   C3B57237   6.033   7.625   7.064
 4459POPC   C4B57238   6.050   7.609   7.364
 4460POPC   NC357239  26.845   8.179   5.564
 4460POPC   PO457240  26.851   8.151   5.864
 4460POPC   GL157241  26.825   8.187   6.164
 4460POPC   GL257242  26.807   8.047   6.164
 4460POPC   C1A57243  26.786   8.240   6.464
 4460POPC   D2A57244  26.821   8.157   6.764
 4460POPC   C3A57245  26.846   8.235   7.064
 4460POPC   C4A57246  26.770   8.175   7.364
 4460POPC   C1B57247  26.783   7.900   6.464
 4460POPC   C2B57248  26.792   7.936   6.764
 4460POPC   C3B57249  26.816   7.954   7.064
 4460POPC   C4B57250  26.776   7.905   7.364
 4461POPC   NC357251  25.308   8.169   5.564
 4461POPC   PO457252  25.311   8.219   5.864
 4461POPC   GL157253  25.236   8.224   6.164
 4461POPC   GL257254  25.158   8.098   6.164
 4461POPC   C1A57255  25.217   8.242   6.464
 4461POPC   D2A57256  25.312   8.154   6.764
 4461POPC   C3A57257  25.304   8.211   7.064
 4461POPC   C4A57258  25.221   8.229   7.364
 4461POPC   C1B57259  25.056   8.056   6.464
 4461POPC   C2B57260  25.054   8.095   6.764
 4461POPC   C3B57261  25.015   8.046   7.064
 4461POPC   C4B57262  25.029   8.043   7.364
 4462POPC   NC357263  28.339  39.279   5.564
 4462POPC   PO457264  28.334  39.251   5.864
 4462POPC   GL157265  28.384  39.218   6.164
 4462POPC   GL257266  28.242  39.329   6.164
 4462POPC   C1A57267  28.324  39.272   6.464
 4462POPC   D2A57268  28.400  39.188   6.764
 4462POPC   C3A57269  28.324  39.252   7.064
 4462POPC   C4A57270  28.327  39.239   7.364
 4462POPC   C1B57271  28.200  39.356   6.464
 4462POPC   C2B57272  28.212  39.434   6.764
 4462POPC   C3B57273  28.169  39.357   7.064
 4462POPC   C4B57274  28.151  39.404   7.364
 4463POPC   NC357275  22.927  14.376   5.564
 4463POPC   PO457276  22.913  14.443   5.864
 4463POPC   GL157277  22.911  14.383   6.164
 4463POPC   GL257278  22.768  14.456   6.164
 4463POPC   C1A57279  22.986  14.375   6.464
 4463POPC   D2A57280  22.966  14.375   6.764
 4463POPC   C3A57281  22.937  14.395   7.064
 4463POPC   C4A57282  22.932  14.396   7.364
 4463POPC   C1B57283  22.666  14.390   6.464
 4463POPC   C2B57284  22.705  14.424   6.764
 4463POPC   C3B57285  22.718  14.402   7.064
 4463POPC   C4B57286  22.686  14.469   7.364
 4464POPC   NC357287  24.443   1.174   5.564
 4464POPC   PO457288  24.496   1.242   5.864
 4464POPC   GL157289  24.455   1.164   6.164
 4464POPC   GL257290  24.330   1.138   6.164
 4464POPC   C1A57291  24.491   1.217   6.464
 4464POPC   D2A57292  24.537   1.229   6.764
 4464POPC   C3A57293  24.467   1.224   7.064
 4464POPC   C4A57294  24.493   1.189   7.364
 4464POPC   C1B57295  24.308   1.126   6.464
 4464POPC   C2B57296  24.247   1.120   6.764
 4464POPC   C3B57297  24.267   1.071   7.064
 4464POPC   C4B57298  24.259   1.121   7.364
 4465POPC   NC357299   1.218  14.449   5.564
 4465POPC   PO457300   1.213  14.355   5.864
 4465POPC   GL157301   1.216  14.366   6.164
 4465POPC   GL257302   1.088  14.437   6.164
 4465POPC   C1A57303   1.173  14.431   6.464
 4465POPC   D2A57304   1.252  14.377   6.764
 4465POPC   C3A57305   1.169  14.428   7.064
 4465POPC   C4A57306   1.177  14.444   7.364
 4465POPC   C1B57307   0.958  14.451   6.464
 4465POPC   C2B57308   0.983  14.445   6.764
 4465POPC   C3B57309   0.943  14.512   7.064
 4465POPC   C4B57310   0.955  14.489   7.364
 4466POPC   NC357311  29.959  43.100   5.564
 4466POPC   PO457312  29.958  43.081   5.864
 4466POPC   GL157313  29.880  43.106   6.164
 4466POPC   GL257314  29.927  43.243   6.164
 4466POPC   C1A57315  29.944  43.065   6.464
 4466POPC   D2A57316  29.892  43.157   6.764
 4466POPC   C3A57317  29.873  43.127   7.064
 4466POPC   C4A57318  29.904  43.128   7.364
 4466POPC   C1B57319  29.965  43.387   6.464
 4466POPC   C2B57320  29.982  43.321   6.764
 4466POPC   C3B57321  30.029  43.387   7.064
 4466POPC   C4B57322  29.957  43.386   7.364
 4467POPC   NC357323  37.675  18.241   5.564
 4467POPC   PO457324  37.655  18.319   5.864
 4467POPC   GL157325  37.671  18.236   6.164
 4467POPC   GL257326  37.801  18.295   6.164
 4467POPC   C1A57327  37.727  18.241   6.464
 4467POPC   D2A57328  37.646  18.310   6.764
 4467POPC   C3A57329  37.637  18.302   7.064
 4467POPC   C4A57330  37.649  18.297   7.364
 4467POPC   C1B57331  37.968  18.258   6.464
 4467POPC   C2B57332  37.936  18.266   6.764
 4467POPC   C3B57333  37.892  18.260   7.064
 4467POPC   C4B57334  37.907  18.253   7.364
 4468POPC   NC357335  17.529   7.417   5.564
 4468POPC   PO457336  17.463   7.467   5.864
 4468POPC   GL157337  17.541   7.375   6.164
 4468POPC   GL257338  17.574   7.520   6.164
 4468POPC   C1A57339  17.541   7.443   6.464
 4468POPC   D2A57340  17.515   7.381   6.764
 4468POPC   C3A57341  17.507   7.408   7.064
 4468POPC   C4A57342  17.463   7.438   7.364
 4468POPC   C1B57343  17.705   7.553   6.464
 4468POPC   C2B57344  17.741   7.604   6.764
 4468POPC   C3B57345  17.733   7.534   7.064
 4468POPC   C4B57346  17.746   7.613   7.364
 4469POPC   NC357347  11.270  41.590   5.564
 4469POPC   PO457348  11.309  41.586   5.864
 4469POPC   GL157349  11.282  41.512   6.164
 4469POPC   GL257350  11.377  41.540   6.164
 4469POPC   C1A57351  11.294  41.572   6.464
 4469POPC   D2A57352  11.291  41.564   6.764
 4469POPC   C3A57353  11.301  41.560   7.064
 4469POPC   C4A57354  11.291  41.570   7.364
 4469POPC   C1B57355  11.524  41.464   6.464
 4469POPC   C2B57356  11.552  41.442   6.764
 4469POPC   C3B57357  11.508  41.391   7.064
 4469POPC   C4B57358  11.489  41.376   7.364
 4470POPC   NC357359  33.821  13.614   5.564
 4470POPC   PO457360  33.816  13.640   5.864
 4470POPC   GL157361  33.758  13.676   6.164
 4470POPC   GL257362  33.650  13.672   6.164
 4470POPC   C1A57363  33.789  13.603   6.464
 4470POPC   D2A57364  33.763  13.645   6.764
 4470POPC   C3A57365  33.797  13.598   7.064
 4470POPC   C4A57366  33.768  13.620   7.364
 4470POPC   C1B57367  33.528  13.718   6.464
 4470POPC   C2B57368  33.583  13.660   6.764
 4470POPC   C3B57369  33.508  13.691   7.064
 4470POPC   C4B57370  33.529  13.730   7.364
 4471POPC   NC357371  26.788  20.656   5.564
 4471POPC   PO457372  26.810  20.563   5.864
 4471POPC   GL157373  26.825  20.570   6.164
 4471POPC   GL257374  26.919  20.518   6.164
 4471POPC   C1A57375  26.817  20.567   6.464
 4471POPC   D2A57376  26.798  20.604   6.764
 4471POPC   C3A57377  26.771  20.656   7.064
 4471POPC   C4A57378  26.855  20.568   7.364
 4471POPC   C1B57379  26.973  20.424   6.464
 4471POPC   C2B57380  27.023  20.408   6.764
 4471POPC   C3B57381  27.007  20.402   7.064
 4471POPC   C4B57382  26.958  20.372   7.364
 4472POPC   NC357383  29.884  16.728   5.564
 4472POPC   PO457384  29.943  16.745   5.864
 4472POPC   GL157385  29.873  16.710   6.164
 4472POPC   GL257386  29.897  16.590   6.164
 4472POPC   C1A57387  29.904  16.753   6.464
 4472POPC   D2A57388  29.918  16.737   6.764
 4472POPC   C3A57389  29.953  16.779   7.064
 4472POPC   C4A57390  29.873  16.721   7.364
 4472POPC   C1B57391  29.950  16.486   6.464
 4472POPC   C2B57392  29.983  16.498   6.764
 4472POPC   C3B57393  29.926  16.492   7.064
 4472POPC   C4B57394  29.922  16.454   7.364
 4473POPC   NC357395  29.194   0.429   5.564
 4473POPC   PO457396  29.112   0.483   5.864
 4473POPC   GL157397  29.137   0.483   6.164
 4473POPC   GL257398  29.309   0.406   6.164
 4473POPC   C1A57399  29.139   0.482   6.464
 4473POPC   D2A57400  29.125   0.412   6.764
 4473POPC   C3A57401  29.097   0.448   7.064
 4473POPC   C4A57402  29.128   0.441   7.364
 4473POPC   C1B57403  29.340   0.338   6.464
 4473POPC   C2B57404  29.343   0.354   6.764
 4473POPC   C3B57405  29.428   0.389   7.064
 4473POPC   C4B57406  29.348   0.354   7.364
 4474POPC   NC357407  39.219   1.196   5.564
 4474POPC   PO457408  39.281   1.212   5.864
 4474POPC   GL157409  39.274   1.250   6.164
 4474POPC   GL257410  39.319   1.221   6.164
 4474POPC   C1A57411  39.256   1.211   6.464
 4474POPC   D2A57412  39.275   1.203   6.764
 4474POPC   C3A57413  39.205   1.222   7.064
 4474POPC   C4A57414  39.205   1.219   7.364
 4474POPC   C1B57415  39.505   1.113   6.464
 4474POPC   C2B57416  39.459   1.115   6.764
 4474POPC   C3B57417  39.469   1.138   7.064
 4474POPC   C4B57418  39.444   1.116   7.364
 4475POPC   NC357419  41.550  16.691   5.564
 4475POPC   PO457420  41.606  16.753   5.864
 4475POPC   GL157421  41.563  16.750   6.164
 4475POPC   GL257422  41.450  16.800   6.164
 4475POPC   C1A57423  41.573  16.721   6.464
 4475POPC   D2A57424  41.601  16.706   6.764
 4475POPC   C3A57425  41.599  16.690   7.064
 4475POPC   C4A57426  41.541  16.764   7.364
 4475POPC   C1B57427  41.424  16.978   6.464
 4475POPC   C2B57428  41.397  16.906   6.764
 4475POPC   C3B57429  41.458  16.936   7.064
 4475POPC   C4B57430  41.456  16.962   7.364
 4476POPC   NC357431  27.595  29.881   5.564
 4476POPC   PO457432  27.569  29.949   5.864
 4476POPC   GL157433  27.631  29.940   6.164
 4476POPC   GL257434  27.665  30.005   6.164
 4476POPC   C1A57435  27.618  29.920   6.464
 4476POPC   D2A57436  27.616  29.954   6.764
 4476POPC   C3A57437  27.572  29.962   7.064
 4476POPC   C4A57438  27.611  29.955   7.364
 4476POPC   C1B57439  27.748  30.144   6.464
 4476POPC   C2B57440  27.746  30.122   6.764
 4476POPC   C3B57441  27.739  30.114   7.064
 4476POPC   C4B57442  27.687  30.158   7.364
 4477POPC   NC357443  12.850  32.219   5.564
 4477POPC   PO457444  12.898  32.294   5.864
 4477POPC   GL157445  12.832  32.291   6.164
 4477POPC   GL257446  12.788  32.102   6.164
 4477POPC   C1A57447  12.887  32.291   6.464
 4477POPC   D2A57448  12.864  32.258   6.764
 4477POPC   C3A57449  12.872  32.199   7.064
 4477POPC   C4A57450  12.878  32.253   7.364
 4477POPC   C1B57451  12.737  32.044   6.464
 4477POPC   C2B57452  12.773  32.005   6.764
 4477POPC   C3B57453  12.809  31.999   7.064
 4477POPC   C4B57454  12.760  32.029   7.364
 4478POPC   NC357455  30.672   9.766   5.564
 4478POPC   PO457456  30.700   9.745   5.864
 4478POPC   GL157457  30.694   9.766   6.164
 4478POPC   GL257458  30.700   9.639   6.164
 4478POPC   C1A57459  30.685   9.755   6.464
 4478POPC   D2A57460  30.718   9.725   6.764
 4478POPC   C3A57461  30.666   9.769   7.064
 4478POPC   C4A57462  30.745   9.730   7.364
 4478POPC   C1B57463  30.743   9.518   6.464
 4478POPC   C2B57464  30.809   9.470   6.764
 4478POPC   C3B57465  30.751   9.559   7.064
 4478POPC   C4B57466  30.833   9.485   7.364
 4479POPC   NC357467   5.092  26.771   5.564
 4479POPC   PO457468   5.132  26.779   5.864
 4479POPC   GL157469   5.090  26.833   6.164
 4479POPC   GL257470   5.026  26.945   6.164
 4479POPC   C1A57471   5.082  26.776   6.464
 4479POPC   D2A57472   5.077  26.801   6.764
 4479POPC   C3A57473   5.078  26.822   7.064
 4479POPC   C4A57474   5.060  26.828   7.364
 4479POPC   C1B57475   4.978  26.999   6.464
 4479POPC   C2B57476   4.938  27.015   6.764
 4479POPC   C3B57477   4.960  27.081   7.064
 4479POPC   C4B57478   4.960  26.996   7.364
 4480POPC   NC357479  19.016   0.465   5.564
 4480POPC   PO457480  19.094   0.451   5.864
 4480POPC   GL157481  19.086   0.440   6.164
 4480POPC   GL257482  19.098   0.381   6.164
 4480POPC   C1A57483  19.100   0.485   6.464
 4480POPC   D2A57484  19.037   0.457   6.764
 4480POPC   C3A57485  19.103   0.416   7.064
 4480POPC   C4A57486  19.076   0.413   7.364
 4480POPC   C1B57487  19.246   0.251   6.464
 4480POPC   C2B57488  19.185   0.204   6.764
 4480POPC   C3B57489  19.158   0.277   7.064
 4480POPC   C4B57490  19.253   0.258   7.364
 4481POPC   NC357491  42.303  27.558   5.564
 4481POPC   PO457492  42.363  27.562   5.864
 4481POPC   GL157493  42.290  27.585   6.164
 4481POPC   GL257494  42.237  27.539   6.164
 4481POPC   C1A57495  42.344  27.615   6.464
 4481POPC   D2A57496  42.362  27.617   6.764
 4481POPC   C3A57497  42.308  27.553   7.064
 4481POPC   C4A57498  42.334  27.624   7.364
 4481POPC   C1B57499  42.134  27.439   6.464
 4481POPC   C2B57500  42.133  27.395   6.764
 4481POPC   C3B57501  42.177  27.462   7.064
 4481POPC   C4B57502  42.169  27.452   7.364
 4482POPC   NC357503   9.789  31.516   5.564
 4482POPC   PO457504   9.753  31.465   5.864
 4482POPC   GL157505   9.719  31.474   6.164
 4482POPC   GL257506   9.817  31.577   6.164
 4482POPC   C1A57507   9.787  31.484   6.464
 4482POPC   D2A57508   9.790  31.512   6.764
 4482POPC   C3A57509   9.762  31.505   7.064
 4482POPC   C4A57510   9.778  31.452   7.364
 4482POPC   C1B57511   9.801  31.705   6.464
 4482POPC   C2B57512   9.855  31.702   6.764
 4482POPC   C3B57513   9.858  31.700   7.064
 4482POPC   C4B57514   9.861  31.694   7.364
 4483POPC   NC357515  43.859  43.925   5.564
 4483POPC   PO457516  43.906  43.863   5.864
 4483POPC   GL157517  43.913  43.886   6.164
 4483POPC   GL257518  43.871  43.958   6.164
 4483POPC   C1A57519  43.914  43.878   6.464
 4483POPC   D2A57520  43.851  43.847   6.764
 4483POPC   C3A57521  43.910  43.866   7.064
 4483POPC   C4A57522  43.925  43.849   7.364
 4483POPC   C1B57523  43.823  44.072   6.464
 4483POPC   C2B57524  43.793  44.111   6.764
 4483POPC   C3B57525  43.762  44.105   7.064
 4483POPC   C4B57526  43.788  44.094   7.364
 4484POPC   NC357527  24.529  15.177   5.564
 4484POPC   PO457528  24.447  15.144   5.864
 4484POPC   GL157529  24.521  15.201   6.164
 4484POPC   GL257530  24.453  15.020   6.164
 4484POPC   C1A57531  24.470  15.181   6.464
 4484POPC   D2A57532  24.442  15.190   6.764
 4484POPC   C3A57533  24.498  15.207   7.064
 4484POPC   C4A57534  24.502  15.174   7.364
 4484POPC   C1B57535  24.476  14.889   6.464
 4484POPC   C2B57536  24.501  14.921   6.764
 4484POPC   C3B57537  24.489  14.972   7.064
 4484POPC   C4B57538  24.457  14.889   7.364
 4485POPC   NC357539  20.655  14.385   5.564
 4485POPC   PO457540  20.628  14.384   5.864
 4485POPC   GL157541  20.649  14.365   6.164
 4485POPC   GL257542  20.632  14.554   6.164
 4485POPC   C1A57543  20.625  14.407   6.464
 4485POPC   D2A57544  20.618  14.433   6.764
 4485POPC   C3A57545  20.604  14.440   7.064
 4485POPC   C4A57546  20.638  14.413   7.364
 4485POPC   C1B57547  20.591  14.604   6.464
 4485POPC   C2B57548  20.598  14.654   6.764
 4485POPC   C3B57549  20.593  14.628   7.064
 4485POPC   C4B57550  20.648  14.660   7.364
 4486POPC   NC357551  12.028   2.005   5.564
 4486POPC   PO457552  12.062   2.039   5.864
 4486POPC   GL157553  12.094   1.997   6.164
 4486POPC   GL257554  12.025   2.082   6.164
 4486POPC   C1A57555  12.068   1.952   6.464
 4486POPC   D2A57556  12.085   2.019   6.764
 4486POPC   C3A57557  12.071   2.025   7.064
 4486POPC   C4A57558  12.100   2.003   7.364
 4486POPC   C1B57559  11.904   2.148   6.464
 4486POPC   C2B57560  11.874   2.225   6.764
 4486POPC   C3B57561  11.962   2.223   7.064
 4486POPC   C4B57562  11.900   2.147   7.364
 4487POPC   NC357563  44.618  40.813   5.564
 4487POPC   PO457564  44.667  40.803   5.864
 4487POPC   GL157565  44.707  40.801   6.164
 4487POPC   GL257566  44.614  40.907   6.164
 4487POPC   C1A57567  44.687  40.826   6.464
 4487POPC   D2A57568  44.702  40.763   6.764
 4487POPC   C3A57569  44.628  40.819   7.064
 4487POPC   C4A57570  44.705  40.759   7.364
 4487POPC   C1B57571  44.602  41.004   6.464
 4487POPC   C2B57572  44.647  41.036   6.764
 4487POPC   C3B57573  44.661  41.027   7.064
 4487POPC   C4B57574  44.664  41.076   7.364
 4488POPC   NC357575  25.240  17.502   5.564
 4488POPC   PO457576  25.271  17.555   5.864
 4488POPC   GL157577  25.239  17.486   6.164
 4488POPC   GL257578  25.246  17.664   6.164
 4488POPC   C1A57579  25.231  17.522   6.464
 4488POPC   D2A57580  25.287  17.523   6.764
 4488POPC   C3A57581  25.300  17.552   7.064
 4488POPC   C4A57582  25.268  17.556   7.364
 4488POPC   C1B57583  25.217  17.753   6.464
 4488POPC   C2B57584  25.310  17.800   6.764
 4488POPC   C3B57585  25.229  17.714   7.064
 4488POPC   C4B57586  25.288  17.797   7.364
 4489POPC   NC357587  19.875  25.226   5.564
 4489POPC   PO457588  19.844  25.286   5.864
 4489POPC   GL157589  19.871  25.274   6.164
 4489POPC   GL257590  19.902  25.363   6.164
 4489POPC   C1A57591  19.785  25.256   6.464
 4489POPC   D2A57592  19.863  25.231   6.764
 4489POPC   C3A57593  19.838  25.263   7.064
 4489POPC   C4A57594  19.884  25.250   7.364
 4489POPC   C1B57595  19.990  25.418   6.464
 4489POPC   C2B57596  20.018  25.407   6.764
 4489POPC   C3B57597  19.992  25.398   7.064
 4489POPC   C4B57598  20.058  25.386   7.364
 4490POPC   NC357599  32.258  31.459   5.564
 4490POPC   PO457600  32.207  31.478   5.864
 4490POPC   GL157601  32.200  31.459   6.164
 4490POPC   GL257602  32.139  31.398   6.164
 4490POPC   C1A57603  32.278  31.505   6.464
 4490POPC   D2A57604  32.289  31.497   6.764
 4490POPC   C3A57605  32.230  31.435   7.064
 4490POPC   C4A57606  32.289  31.484   7.364
 4490POPC   C1B57607  32.077  31.299   6.464
 4490POPC   C2B57608  32.036  31.363   6.764
 4490POPC   C3B57609  31.992  31.380   7.064
 4490POPC   C4B57610  32.011  31.342   7.364
 4491POPC   NC357611  29.160  36.118   5.564
 4491POPC   PO457612  29.105  36.094   5.864
 4491POPC   GL157613  29.116  36.089   6.164
 4491POPC   GL257614  29.011  35.995   6.164
 4491POPC   C1A57615  29.118  36.144   6.464
 4491POPC   D2A57616  29.146  36.124   6.764
 4491POPC   C3A57617  29.169  36.146   7.064
 4491POPC   C4A57618  29.129  36.094   7.364
 4491POPC   C1B57619  28.955  35.914   6.464
 4491POPC   C2B57620  29.007  35.950   6.764
 4491POPC   C3B57621  28.994  35.928   7.064
 4491POPC   C4B57622  28.928  35.988   7.364
 4492POPC   NC357623  16.736  19.833   5.564
 4492POPC   PO457624  16.779  19.833   5.864
 4492POPC   GL157625  16.772  19.839   6.164
 4492POPC   GL257626  16.695  19.945   6.164
 4492POPC   C1A57627  16.702  19.794   6.464
 4492POPC   D2A57628  16.694  19.832   6.764
 4492POPC   C3A57629  16.735  19.871   7.064
 4492POPC   C4A57630  16.724  19.806   7.364
 4492POPC   C1B57631  16.566  20.065   6.464
 4492POPC   C2B57632  16.642  20.031   6.764
 4492POPC   C3B57633  16.606  20.096   7.064
 4492POPC   C4B57634  16.630  20.094   7.364
 4493POPC   NC357635  12.042  29.127   5.564
 4493POPC   PO457636  12.031  29.143   5.864
 4493POPC   GL157637  12.099  29.195   6.164
 4493POPC   GL257638  12.059  28.979   6.164
 4493POPC   C1A57639  12.114  29.120   6.464
 4493POPC   D2A57640  12.049  29.114   6.764
 4493POPC   C3A57641  12.030  29.124   7.064
 4493POPC   C4A57642  12.057  29.150   7.364
 4493POPC   C1B57643  12.029  28.913   6.464
 4493POPC   C2B57644  12.075  28.901   6.764
 4493POPC   C3B57645  12.098  28.880   7.064
 4493POPC   C4B57646  12.113  28.862   7.364
 4494POPC   NC357647   9.007  43.111   5.564
 4494POPC   PO457648   8.940  43.077   5.864
 4494POPC   GL157649   8.968  43.105   6.164
 4494POPC   GL257650   8.845  43.080   6.164
 4494POPC   C1A57651   8.959  43.086   6.464
 4494POPC   D2A57652   9.014  43.156   6.764
 4494POPC   C3A57653   8.982  43.128   7.064
 4494POPC   C4A57654   8.981  43.136   7.364
 4494POPC   C1B57655   8.758  43.056   6.464
 4494POPC   C2B57656   8.753  43.013   6.764
 4494POPC   C3B57657   8.728  43.072   7.064
 4494POPC   C4B57658   8.757  43.063   7.364
 4495POPC   NC357659   7.457   1.961   5.564
 4495POPC   PO457660   7.395   1.984   5.864
 4495POPC   GL157661   7.457   2.021   6.164
 4495POPC   GL257662   7.421   2.093   6.164
 4495POPC   C1A57663   7.378   1.993   6.464
 4495POPC   D2A57664   7.450   1.941   6.764
 4495POPC   C3A57665   7.464   1.963   7.064
 4495POPC   C4A57666   7.416   1.951   7.364
 4495POPC   C1B57667   7.355   2.261   6.464
 4495POPC   C2B57668   7.386   2.241   6.764
 4495POPC   C3B57669   7.381   2.237   7.064
 4495POPC   C4B57670   7.298   2.277   7.364
 4496POPC   NC357671  11.322  42.318   5.564
 4496POPC   PO457672  11.263  42.341   5.864
 4496POPC   GL157673  11.264  42.294   6.164
 4496POPC   GL257674  11.354  42.499   6.164
 4496POPC   C1A57675  11.320  42.382   6.464
 4496POPC   D2A57676  11.331  42.326   6.764
 4496POPC   C3A57677  11.348  42.319   7.064
 4496POPC   C4A57678  11.267  42.335   7.364
 4496POPC   C1B57679  11.384  42.609   6.464
 4496POPC   C2B57680  11.435  42.584   6.764
 4496POPC   C3B57681  11.405  42.532   7.064
 4496POPC   C4B57682  11.387  42.619   7.364
 4497POPC   NC357683  23.727  42.305   5.564
 4497POPC   PO457684  23.741  42.307   5.864
 4497POPC   GL157685  23.665  42.300   6.164
 4497POPC   GL257686  23.591  42.424   6.164
 4497POPC   C1A57687  23.693  42.300   6.464
 4497POPC   D2A57688  23.704  42.342   6.764
 4497POPC   C3A57689  23.673  42.322   7.064
 4497POPC   C4A57690  23.750  42.348   7.364
 4497POPC   C1B57691  23.558  42.472   6.464
 4497POPC   C2B57692  23.563  42.456   6.764
 4497POPC   C3B57693  23.510  42.463   7.064
 4497POPC   C4B57694  23.513  42.441   7.364
 4498POPC   NC357695  42.345  41.545   5.564
 4498POPC   PO457696  42.303  41.590   5.864
 4498POPC   GL157697  42.293  41.586   6.164
 4498POPC   GL257698  42.376  41.431   6.164
 4498POPC   C1A57699  42.301  41.515   6.464
 4498POPC   D2A57700  42.375  41.596   6.764
 4498POPC   C3A57701  42.357  41.593   7.064
 4498POPC   C4A57702  42.299  41.573   7.364
 4498POPC   C1B57703  42.363  41.349   6.464
 4498POPC   C2B57704  42.373  41.293   6.764
 4498POPC   C3B57705  42.297  41.294   7.064
 4498POPC   C4B57706  42.365  41.309   7.364
 4499POPC   NC357707   9.716   4.343   5.564
 4499POPC   PO457708   9.701   4.273   5.864
 4499POPC   GL157709   9.768   4.334   6.164
 4499POPC   GL257710   9.690   4.204   6.164
 4499POPC   C1A57711   9.720   4.348   6.464
 4499POPC   D2A57712   9.727   4.363   6.764
 4499POPC   C3A57713   9.701   4.297   7.064
 4499POPC   C4A57714   9.752   4.312   7.364
 4499POPC   C1B57715   9.774   4.039   6.464
 4499POPC   C2B57716   9.766   4.060   6.764
 4499POPC   C3B57717   9.712   4.024   7.064
 4499POPC   C4B57718   9.769   4.033   7.364
 4500POPC   NC357719  36.868  33.847   5.564
 4500POPC   PO457720  36.870  33.845   5.864
 4500POPC   GL157721  36.889  33.764   6.164
 4500POPC   GL257722  36.794  33.792   6.164
 4500POPC   C1A57723  36.917  33.842   6.464
 4500POPC   D2A57724  36.923  33.842   6.764
 4500POPC   C3A57725  36.909  33.838   7.064
 4500POPC   C4A57726  36.890  33.790   7.364
 4500POPC   C1B57727  36.692  33.698   6.464
 4500POPC   C2B57728  36.684  33.775   6.764
 4500POPC   C3B57729  36.699  33.690   7.064
 4500POPC   C4B57730  36.673  33.773   7.364
 4501POPC   NC357731  36.876   3.572   5.564
 4501POPC   PO457732  36.920   3.525   5.864
 4501POPC   GL157733  36.928   3.566   6.164
 4501POPC   GL257734  36.798   3.573   6.164
 4501POPC   C1A57735  36.915   3.580   6.464
 4501POPC   D2A57736  36.906   3.518   6.764
 4501POPC   C3A57737  36.884   3.538   7.064
 4501POPC   C4A57738  36.879   3.588   7.364
 4501POPC   C1B57739  36.666   3.537   6.464
 4501POPC   C2B57740  36.661   3.587   6.764
 4501POPC   C3B57741  36.705   3.631   7.064
 4501POPC   C4B57742  36.644   3.609   7.364
 4502POPC   NC357743   5.059  25.261   5.564
 4502POPC   PO457744   5.044  25.257   5.864
 4502POPC   GL157745   5.140  25.259   6.164
 4502POPC   GL257746   5.092  25.158   6.164
 4502POPC   C1A57747   5.102  25.263   6.464
 4502POPC   D2A57748   5.088  25.258   6.764
 4502POPC   C3A57749   5.113  25.217   7.064
 4502POPC   C4A57750   5.138  25.266   7.364
 4502POPC   C1B57751   4.982  24.984   6.464
 4502POPC   C2B57752   5.051  24.990   6.764
 4502POPC   C3B57753   5.066  25.050   7.064
 4502POPC   C4B57754   5.021  25.016   7.364
 4503POPC   NC357755  19.055   5.877   5.564
 4503POPC   PO457756  19.030   5.885   5.864
 4503POPC   GL157757  19.013   5.887   6.164
 4503POPC   GL257758  19.043   5.947   6.164
 4503POPC   C1A57759  19.091   5.844   6.464
 4503POPC   D2A57760  19.108   5.841   6.764
 4503POPC   C3A57761  19.032   5.824   7.064
 4503POPC   C4A57762  19.085   5.857   7.364
 4503POPC   C1B57763  18.951   6.112   6.464
 4503POPC   C2B57764  18.962   6.075   6.764
 4503POPC   C3B57765  18.950   6.107   7.064
 4503POPC   C4B57766  18.937   6.061   7.364
 4504POPC   NC357767  31.450  30.720   5.564
 4504POPC   PO457768  31.453  30.653   5.864
 4504POPC   GL157769  31.464  30.671   6.164
 4504POPC   GL257770  31.533  30.864   6.164
 4504POPC   C1A57771  31.497  30.678   6.464
 4504POPC   D2A57772  31.516  30.723   6.764
 4504POPC   C3A57773  31.500  30.663   7.064
 4504POPC   C4A57774  31.452  30.694   7.364
 4504POPC   C1B57775  31.516  30.950   6.464
 4504POPC   C2B57776  31.512  30.925   6.764
 4504POPC   C3B57777  31.561  30.910   7.064
 4504POPC   C4B57778  31.574  30.976   7.364
 4505POPC   NC357779  33.055  34.532   5.564
 4505POPC   PO457780  33.059  34.586   5.864
 4505POPC   GL157781  33.059  34.590   6.164
 4505POPC   GL257782  33.012  34.663   6.164
 4505POPC   C1A57783  32.976  34.549   6.464
 4505POPC   D2A57784  33.070  34.581   6.764
 4505POPC   C3A57785  33.038  34.546   7.064
 4505POPC   C4A57786  32.999  34.529   7.364
 4505POPC   C1B57787  32.888  34.808   6.464
 4505POPC   C2B57788  32.941  34.801   6.764
 4505POPC   C3B57789  32.887  34.786   7.064
 4505POPC   C4B57790  32.898  34.820   7.364
 4506POPC   NC357791  32.250  15.146   5.564
 4506POPC   PO457792  32.242  15.185   5.864
 4506POPC   GL157793  32.201  15.171   6.164
 4506POPC   GL257794  32.126  15.084   6.164
 4506POPC   C1A57795  32.213  15.207   6.464
 4506POPC   D2A57796  32.201  15.179   6.764
 4506POPC   C3A57797  32.261  15.174   7.064
 4506POPC   C4A57798  32.199  15.190   7.364
 4506POPC   C1B57799  32.067  15.009   6.464
 4506POPC   C2B57800  32.037  15.007   6.764
 4506POPC   C3B57801  32.115  14.965   7.064
 4506POPC   C4B57802  32.087  15.023   7.364
 4507POPC   NC357803  26.012  25.240   5.564
 4507POPC   PO457804  26.091  25.273   5.864
 4507POPC   GL157805  26.058  25.302   6.164
 4507POPC   GL257806  26.086  25.178   6.164
 4507POPC   C1A57807  26.012  25.248   6.464
 4507POPC   D2A57808  26.071  25.239   6.764
 4507POPC   C3A57809  26.002  25.293   7.064
 4507POPC   C4A57810  26.065  25.260   7.364
 4507POPC   C1B57811  26.213  25.050   6.464
 4507POPC   C2B57812  26.159  25.101   6.764
 4507POPC   C3B57813  26.182  25.082   7.064
 4507POPC   C4B57814  26.164  25.015   7.364
 4508POPC   NC357815  22.914   7.373   5.564
 4508POPC   PO457816  22.905   7.401   5.864
 4508POPC   GL157817  22.900   7.442   6.164
 4508POPC   GL257818  22.934   7.278   6.164
 4508POPC   C1A57819  22.981   7.427   6.464
 4508POPC   D2A57820  22.954   7.421   6.764
 4508POPC   C3A57821  22.934   7.461   7.064
 4508POPC   C4A57822  22.896   7.460   7.364
 4508POPC   C1B57823  22.998   7.155   6.464
 4508POPC   C2B57824  23.004   7.193   6.764
 4508POPC   C3B57825  22.945   7.180   7.064
 4508POPC   C4B57826  22.961   7.136   7.364
 4509POPC   NC357827  12.832  39.213   5.564
 4509POPC   PO457828  12.848  39.236   5.864
 4509POPC   GL157829  12.897  39.235   6.164
 4509POPC   GL257830  12.783  39.183   6.164
 4509POPC   C1A57831  12.853  39.252   6.464
 4509POPC   D2A57832  12.879  39.251   6.764
 4509POPC   C3A57833  12.893  39.272   7.064
 4509POPC   C4A57834  12.865  39.234   7.364
 4509POPC   C1B57835  12.695  39.081   6.464
 4509POPC   C2B57836  12.617  39.070   6.764
 4509POPC   C3B57837  12.687  39.031   7.064
 4509POPC   C4B57838  12.648  39.091   7.364
 4510POPC   NC357839   6.673  33.768   5.564
 4510POPC   PO457840   6.669  33.773   5.864
 4510POPC   GL157841   6.649  33.775   6.164
 4510POPC   GL257842   6.590  33.960   6.164
 4510POPC   C1A57843   6.694  33.847   6.464
 4510POPC   D2A57844   6.680  33.849   6.764
 4510POPC   C3A57845   6.607  33.790   7.064
 4510POPC   C4A57846   6.627  33.772   7.364
 4510POPC   C1B57847   6.526  34.047   6.464
 4510POPC   C2B57848   6.542  34.047   6.764
 4510POPC   C3B57849   6.601  34.074   7.064
 4510POPC   C4B57850   6.533  34.025   7.364
 4511POPC   NC357851  15.173   8.212   5.564
 4511POPC   PO457852  15.214   8.210   5.864
 4511POPC   GL157853  15.211   8.159   6.164
 4511POPC   GL257854  15.078   8.102   6.164
 4511POPC   C1A57855  15.203   8.157   6.464
 4511POPC   D2A57856  15.227   8.186   6.764
 4511POPC   C3A57857  15.143   8.240   7.064
 4511POPC   C4A57858  15.144   8.196   7.364
 4511POPC   C1B57859  14.999   8.078   6.464
 4511POPC   C2B57860  15.024   8.045   6.764
 4511POPC   C3B57861  14.932   7.999   7.064
 4511POPC   C4B57862  14.975   8.042   7.364
 4512POPC   NC357863  15.909   7.385   5.564
 4512POPC   PO457864  15.961   7.391   5.864
 4512POPC   GL157865  15.912   7.433   6.164
 4512POPC   GL257866  16.082   7.397   6.164
 4512POPC   C1A57867  15.931   7.382   6.464
 4512POPC   D2A57868  15.994   7.409   6.764
 4512POPC   C3A57869  15.967   7.420   7.064
 4512POPC   C4A57870  15.985   7.431   7.364
 4512POPC   C1B57871  16.224   7.369   6.464
 4512POPC   C2B57872  16.185   7.365   6.764
 4512POPC   C3B57873  16.152   7.394   7.064
 4512POPC   C4B57874  16.225   7.341   7.364
 4513POPC   NC357875  29.915  21.407   5.564
 4513POPC   PO457876  29.901  21.350   5.864
 4513POPC   GL157877  29.926  21.393   6.164
 4513POPC   GL257878  29.952  21.511   6.164
 4513POPC   C1A57879  29.919  21.375   6.464
 4513POPC   D2A57880  29.922  21.398   6.764
 4513POPC   C3A57881  29.918  21.406   7.064
 4513POPC   C4A57882  29.948  21.358   7.364
 4513POPC   C1B57883  30.028  21.626   6.464
 4513POPC   C2B57884  30.017  21.633   6.764
 4513POPC   C3B57885  30.017  21.563   7.064
 4513POPC   C4B57886  30.082  21.596   7.364
 4514POPC   NC357887  31.473  22.982   5.564
 4514POPC   PO457888  31.464  22.933   5.864
 4514POPC   GL157889  31.503  22.908   6.164
 4514POPC   GL257890  31.537  22.846   6.164
 4514POPC   C1A57891  31.451  22.965   6.464
 4514POPC   D2A57892  31.477  22.949   6.764
 4514POPC   C3A57893  31.466  22.913   7.064
 4514POPC   C4A57894  31.481  22.967   7.364
 4514POPC   C1B57895  31.711  22.834   6.464
 4514POPC   C2B57896  31.735  22.788   6.764
 4514POPC   C3B57897  31.689  22.795   7.064
 4514POPC   C4B57898  31.665  22.802   7.364
 4515POPC   NC357899   8.981  33.751   5.564
 4515POPC   PO457900   8.950  33.761   5.864
 4515POPC   GL157901   9.004  33.796   6.164
 4515POPC   GL257902   9.063  33.845   6.164
 4515POPC   C1A57903   8.997  33.753   6.464
 4515POPC   D2A57904   8.956  33.802   6.764
 4515POPC   C3A57905   8.948  33.820   7.064
 4515POPC   C4A57906   8.945  33.836   7.364
 4515POPC   C1B57907   9.204  33.819   6.464
 4515POPC   C2B57908   9.195  33.829   6.764
 4515POPC   C3B57909   9.244  33.841   7.064
 4515POPC   C4B57910   9.203  33.837   7.364
 4516POPC   NC357911  12.813  19.074   5.564
 4516POPC   PO457912  12.870  19.035   5.864
 4516POPC   GL157913  12.815  19.071   6.164
 4516POPC   GL257914  12.724  19.147   6.164
 4516POPC   C1A57915  12.819  19.062   6.464
 4516POPC   D2A57916  12.878  19.084   6.764
 4516POPC   C3A57917  12.899  19.034   7.064
 4516POPC   C4A57918  12.807  19.036   7.364
 4516POPC   C1B57919  12.658  19.244   6.464
 4516POPC   C2B57920  12.681  19.225   6.764
 4516POPC   C3B57921  12.650  19.216   7.064
 4516POPC   C4B57922  12.652  19.276   7.364
 4517POPC   NC357923  39.278  32.223   5.564
 4517POPC   PO457924  39.269  32.203   5.864
 4517POPC   GL157925  39.212  32.238   6.164
 4517POPC   GL257926  39.298  32.179   6.164
 4517POPC   C1A57927  39.201  32.227   6.464
 4517POPC   D2A57928  39.252  32.262   6.764
 4517POPC   C3A57929  39.262  32.243   7.064
 4517POPC   C4A57930  39.230  32.257   7.364
 4517POPC   C1B57931  39.355  31.986   6.464
 4517POPC   C2B57932  39.265  32.044   6.764
 4517POPC   C3B57933  39.341  31.986   7.064
 4517POPC   C4B57934  39.340  31.998   7.364
 4518POPC   NC357935  23.682  41.603   5.564
 4518POPC   PO457936  23.752  41.553   5.864
 4518POPC   GL157937  23.746  41.562   6.164
 4518POPC   GL257938  23.852  41.603   6.164
 4518POPC   C1A57939  23.688  41.534   6.464
 4518POPC   D2A57940  23.696  41.546   6.764
 4518POPC   C3A57941  23.746  41.556   7.064
 4518POPC   C4A57942  23.703  41.604   7.364
 4518POPC   C1B57943  23.950  41.632   6.464
 4518POPC   C2B57944  23.925  41.652   6.764
 4518POPC   C3B57945  23.930  41.674   7.064
 4518POPC   C4B57946  23.915  41.675   7.364
 4519POPC   NC357947  32.209   8.191   5.564
 4519POPC   PO457948  32.250   8.166   5.864
 4519POPC   GL157949  32.218   8.171   6.164
 4519POPC   GL257950  32.295   8.084   6.164
 4519POPC   C1A57951  32.265   8.233   6.464
 4519POPC   D2A57952  32.215   8.163   6.764
 4519POPC   C3A57953  32.254   8.186   7.064
 4519POPC   C4A57954  32.280   8.160   7.364
 4519POPC   C1B57955  32.295   7.933   6.464
 4519POPC   C2B57956  32.264   7.944   6.764
 4519POPC   C3B57957  32.249   7.986   7.064
 4519POPC   C4B57958  32.310   7.918   7.364
 4520POPC   NC357959  24.496  33.816   5.564
 4520POPC   PO457960  24.476  33.764   5.864
 4520POPC   GL157961  24.531  33.827   6.164
 4520POPC   GL257962  24.616  33.759   6.164
 4520POPC   C1A57963  24.515  33.843   6.464
 4520POPC   D2A57964  24.533  33.845   6.764
 4520POPC   C3A57965  24.501  33.799   7.064
 4520POPC   C4A57966  24.495  33.782   7.364
 4520POPC   C1B57967  24.725  33.702   6.464
 4520POPC   C2B57968  24.733  33.737   6.764
 4520POPC   C3B57969  24.723  33.651   7.064
 4520POPC   C4B57970  24.738  33.731   7.364
 4521POPC   NC357971  25.234   7.413   5.564
 4521POPC   PO457972  25.258   7.421   5.864
 4521POPC   GL157973  25.300   7.400   6.164
 4521POPC   GL257974  25.194   7.477   6.164
 4521POPC   C1A57975  25.253   7.452   6.464
 4521POPC   D2A57976  25.241   7.393   6.764
 4521POPC   C3A57977  25.245   7.396   7.064
 4521POPC   C4A57978  25.300   7.442   7.364
 4521POPC   C1B57979  25.105   7.589   6.464
 4521POPC   C2B57980  25.017   7.560   6.764
 4521POPC   C3B57981  25.071   7.594   7.064
 4521POPC   C4B57982  25.111   7.560   7.364
 4522POPC   NC357983  33.831  22.916   5.564
 4522POPC   PO457984  33.773  22.940   5.864
 4522POPC   GL157985  33.848  22.946   6.164
 4522POPC   GL257986  33.808  23.045   6.164
 4522POPC   C1A57987  33.789  22.981   6.464
 4522POPC   D2A57988  33.831  22.938   6.764
 4522POPC   C3A57989  33.756  22.938   7.064
 4522POPC   C4A57990  33.802  22.953   7.364
 4522POPC   C1B57991  33.894  23.149   6.464
 4522POPC   C2B57992  33.846  23.201   6.764
 4522POPC   C3B57993  33.835  23.154   7.064
 4522POPC   C4B57994  33.907  23.138   7.364
 4523POPC   NC357995  11.334   8.194   5.564
 4523POPC   PO457996  11.271   8.206   5.864
 4523POPC   GL157997  11.260   8.219   6.164
 4523POPC   GL257998  11.219   8.263   6.164
 4523POPC   C1A57999  11.251   8.199   6.464
 4523POPC   D2A58000  11.321   8.175   6.764
 4523POPC   C3A58001  11.279   8.172   7.064
 4523POPC   C4A58002  11.307   8.195   7.364
 4523POPC   C1B58003  11.069   8.307   6.464
 4523POPC   C2B58004  11.115   8.345   6.764
 4523POPC   C3B58005  11.098   8.347   7.064
 4523POPC   C4B58006  11.139   8.346   7.364
 4524POPC   NC358007  34.611   5.143   5.564
 4524POPC   PO458008  34.555   5.054   5.864
 4524POPC   GL158009  34.617   5.141   6.164
 4524POPC   GL258010  34.517   5.220   6.164
 4524POPC   C1A58011  34.548   5.116   6.464
 4524POPC   D2A58012  34.619   5.118   6.764
 4524POPC   C3A58013  34.553   5.075   7.064
 4524POPC   C4A58014  34.564   5.102   7.364
 4524POPC   C1B58015  34.438   5.281   6.464
 4524POPC   C2B58016  34.461   5.305   6.764
 4524POPC   C3B58017  34.415   5.327   7.064
 4524POPC   C4B58018  34.472   5.262   7.364
 4525POPC   NC358019  36.911  15.924   5.564
 4525POPC   PO458020  36.888  15.964   5.864
 4525POPC   GL158021  36.885  15.913   6.164
 4525POPC   GL258022  36.769  16.008   6.164
 4525POPC   C1A58023  36.943  15.941   6.464
 4525POPC   D2A58024  36.867  15.998   6.764
 4525POPC   C3A58025  36.929  15.985   7.064
 4525POPC   C4A58026  36.942  15.922   7.364
 4525POPC   C1B58027  36.657  16.140   6.464
 4525POPC   C2B58028  36.700  16.061   6.764
 4525POPC   C3B58029  36.647  16.067   7.064
 4525POPC   C4B58030  36.683  16.130   7.364
 4526POPC   NC358031  12.871  21.432   5.564
 4526POPC   PO458032  12.840  21.342   5.864
 4526POPC   GL158033  12.834  21.399   6.164
 4526POPC   GL258034  12.840  21.298   6.164
 4526POPC   C1A58035  12.850  21.380   6.464
 4526POPC   D2A58036  12.855  21.385   6.764
 4526POPC   C3A58037  12.811  21.409   7.064
 4526POPC   C4A58038  12.815  21.397   7.364
 4526POPC   C1B58039  12.753  21.108   6.464
 4526POPC   C2B58040  12.788  21.151   6.764
 4526POPC   C3B58041  12.785  21.118   7.064
 4526POPC   C4B58042  12.741  21.177   7.364
 4527POPC   NC358043   4.341  36.108   5.564
 4527POPC   PO458044   4.291  36.109   5.864
 4527POPC   GL158045   4.309  36.132   6.164
 4527POPC   GL258046   4.434  36.204   6.164
 4527POPC   C1A58047   4.351  36.166   6.464
 4527POPC   D2A58048   4.331  36.122   6.764
 4527POPC   C3A58049   4.270  36.158   7.064
 4527POPC   C4A58050   4.288  36.102   7.364
 4527POPC   C1B58051   4.467  36.320   6.464
 4527POPC   C2B58052   4.494  36.292   6.764
 4527POPC   C3B58053   4.459  36.280   7.064
 4527POPC   C4B58054   4.516  36.372   7.364
 4528POPC   NC358055  16.003  19.863   5.564
 4528POPC   PO458056  15.918  19.857   5.864
 4528POPC   GL158057  15.957  19.831   6.164
 4528POPC   GL258058  15.921  19.967   6.164
 4528POPC   C1A58059  15.920  19.796   6.464
 4528POPC   D2A58060  15.947  19.861   6.764
 4528POPC   C3A58061  15.916  19.871   7.064
 4528POPC   C4A58062  15.988  19.838   7.364
 4528POPC   C1B58063  15.803  19.996   6.464
 4528POPC   C2B58064  15.807  20.004   6.764
 4528POPC   C3B58065  15.763  20.060   7.064
 4528POPC   C4B58066  15.759  19.996   7.364
 4529POPC   NC358067  36.904   8.939   5.564
 4529POPC   PO458068  36.868   8.997   5.864
 4529POPC   GL158069  36.903   8.946   6.164
 4529POPC   GL258070  36.817   9.113   6.164
 4529POPC   C1A58071  36.871   9.011   6.464
 4529POPC   D2A58072  36.861   8.974   6.764
 4529POPC   C3A58073  36.935   8.992   7.064
 4529POPC   C4A58074  36.885   9.001   7.364
 4529POPC   C1B58075  36.789   9.127   6.464
 4529POPC   C2B58076  36.761   9.186   6.764
 4529POPC   C3B58077  36.735   9.185   7.064
 4529POPC   C4B58078  36.787   9.171   7.364
 4530POPC   NC358079  42.297  32.222   5.564
 4530POPC   PO458080  42.292  32.241   5.864
 4530POPC   GL158081  42.324  32.199   6.164
 4530POPC   GL258082  42.450  32.180   6.164
 4530POPC   C1A58083  42.290  32.258   6.464
 4530POPC   D2A58084  42.351  32.236   6.764
 4530POPC   C3A58085  42.336  32.290   7.064
 4530POPC   C4A58086  42.306  32.284   7.364
 4530POPC   C1B58087  42.428  32.017   6.464
 4530POPC   C2B58088  42.487  32.011   6.764
 4530POPC   C3B58089  42.478  31.998   7.064
 4530POPC   C4B58090  42.506  31.993   7.364
 4531POPC   NC358091  10.478  27.630   5.564
 4531POPC   PO458092  10.539  27.607   5.864
 4531POPC   GL158093  10.547  27.616   6.164
 4531POPC   GL258094  10.644  27.558   6.164
 4531POPC   C1A58095  10.569  27.585   6.464
 4531POPC   D2A58096  10.526  27.555   6.764
 4531POPC   C3A58097  10.547  27.593   7.064
 4531POPC   C4A58098  10.547  27.633   7.364
 4531POPC   C1B58099  10.695  27.458   6.464
 4531POPC   C2B58100  10.692  27.427   6.764
 4531POPC   C3B58101  10.719  27.450   7.064
 4531POPC   C4B58102  10.757  27.439   7.364
 4532POPC   NC358103  40.054  28.384   5.564
 4532POPC   PO458104  40.018  28.391   5.864
 4532POPC   GL158105  39.960  28.364   6.164
 4532POPC   GL258106  39.891  28.466   6.164
 4532POPC   C1A58107  40.038  28.354   6.464
 4532POPC   D2A58108  40.024  28.338   6.764
 4532POPC   C3A58109  40.015  28.340   7.064
 4532POPC   C4A58110  40.017  28.335   7.364
 4532POPC   C1B58111  39.759  28.525   6.464
 4532POPC   C2B58112  39.824  28.523   6.764
 4532POPC   C3B58113  39.813  28.541   7.064
 4532POPC   C4B58114  39.776  28.517   7.364
 4533POPC   NC358115  26.831  15.982   5.564
 4533POPC   PO458116  26.818  15.911   5.864
 4533POPC   GL158117  26.862  15.953   6.164
 4533POPC   GL258118  26.871  16.049   6.164
 4533POPC   C1A58119  26.796  16.000   6.464
 4533POPC   D2A58120  26.814  15.946   6.764
 4533POPC   C3A58121  26.857  15.998   7.064
 4533POPC   C4A58122  26.859  15.939   7.364
 4533POPC   C1B58123  26.896  16.174   6.464
 4533POPC   C2B58124  26.885  16.154   6.764
 4533POPC   C3B58125  26.934  16.141   7.064
 4533POPC   C4B58126  26.860  16.232   7.364
 4534POPC   NC358127  27.617  12.853   5.564
 4534POPC   PO458128  27.622  12.897   5.864
 4534POPC   GL158129  27.563  12.810   6.164
 4534POPC   GL258130  27.497  12.722   6.164
 4534POPC   C1A58131  27.546  12.828   6.464
 4534POPC   D2A58132  27.586  12.857   6.764
 4534POPC   C3A58133  27.561  12.877   7.064
 4534POPC   C4A58134  27.637  12.826   7.364
 4534POPC   C1B58135  27.433  12.625   6.464
 4534POPC   C2B58136  27.416  12.692   6.764
 4534POPC   C3B58137  27.402  12.680   7.064
 4534POPC   C4B58138  27.375  12.716   7.364
 4535POPC   NC358139  25.268  25.218   5.564
 4535POPC   PO458140  25.225  25.285   5.864
 4535POPC   GL158141  25.252  25.263   6.164
 4535POPC   GL258142  25.382  25.344   6.164
 4535POPC   C1A58143  25.226  25.233   6.464
 4535POPC   D2A58144  25.284  25.254   6.764
 4535POPC   C3A58145  25.250  25.237   7.064
 4535POPC   C4A58146  25.315  25.299   7.364
 4535POPC   C1B58147  25.434  25.452   6.464
 4535POPC   C2B58148  25.402  25.507   6.764
 4535POPC   C3B58149  25.432  25.424   7.064
 4535POPC   C4B58150  25.449  25.425   7.364
 4536POPC   NC358151  12.069  28.376   5.564
 4536POPC   PO458152  12.033  28.384   5.864
 4536POPC   GL158153  12.115  28.321   6.164
 4536POPC   GL258154  11.979  28.227   6.164
 4536POPC   C1A58155  12.057  28.405   6.464
 4536POPC   D2A58156  12.032  28.378   6.764
 4536POPC   C3A58157  12.059  28.394   7.064
 4536POPC   C4A58158  12.070  28.361   7.364
 4536POPC   C1B58159  11.966  28.203   6.464
 4536POPC   C2B58160  11.915  28.163   6.764
 4536POPC   C3B58161  11.953  28.132   7.064
 4536POPC   C4B58162  11.955  28.143   7.364
 4537POPC   NC358163  19.883  17.476   5.564
 4537POPC   PO458164  19.787  17.512   5.864
 4537POPC   GL158165  19.810  17.526   6.164
 4537POPC   GL258166  19.822  17.659   6.164
 4537POPC   C1A58167  19.798  17.497   6.464
 4537POPC   D2A58168  19.884  17.460   6.764
 4537POPC   C3A58169  19.880  17.514   7.064
 4537POPC   C4A58170  19.829  17.509   7.364
 4537POPC   C1B58171  19.936  17.762   6.464
 4537POPC   C2B58172  19.934  17.759   6.764
 4537POPC   C3B58173  19.938  17.744   7.064
 4537POPC   C4B58174  19.917  17.708   7.364
 4538POPC   NC358175  38.472  27.595   5.564
 4538POPC   PO458176  38.452  27.602   5.864
 4538POPC   GL158177  38.433  27.619   6.164
 4538POPC   GL258178  38.444  27.499   6.164
 4538POPC   C1A58179  38.406  27.562   6.464
 4538POPC   D2A58180  38.483  27.629   6.764
 4538POPC   C3A58181  38.431  27.640   7.064
 4538POPC   C4A58182  38.475  27.560   7.364
 4538POPC   C1B58183  38.461  27.355   6.464
 4538POPC   C2B58184  38.377  27.315   6.764
 4538POPC   C3B58185  38.411  27.371   7.064
 4538POPC   C4B58186  38.452  27.381   7.364
 4539POPC   NC358187  32.215  30.678   5.564
 4539POPC   PO458188  32.206  30.670   5.864
 4539POPC   GL158189  32.261  30.706   6.164
 4539POPC   GL258190  32.239  30.561   6.164
 4539POPC   C1A58191  32.210  30.746   6.464
 4539POPC   D2A58192  32.272  30.737   6.764
 4539POPC   C3A58193  32.249  30.687   7.064
 4539POPC   C4A58194  32.280  30.663   7.364
 4539POPC   C1B58195  32.282  30.479   6.464
 4539POPC   C2B58196  32.196  30.426   6.764
 4539POPC   C3B58197  32.215  30.440   7.064
 4539POPC   C4B58198  32.217  30.487   7.364
 4540POPC   NC358199  35.364  33.781   5.564
 4540POPC   PO458200  35.399  33.824   5.864
 4540POPC   GL158201  35.390  33.820   6.164
 4540POPC   GL258202  35.390  33.640   6.164
 4540POPC   C1A58203  35.337  33.766   6.464
 4540POPC   D2A58204  35.310  33.773   6.764
 4540POPC   C3A58205  35.337  33.774   7.064
 4540POPC   C4A58206  35.389  33.771   7.364
 4540POPC   C1B58207  35.387  33.530   6.464
 4540POPC   C2B58208  35.446  33.574   6.764
 4540POPC   C3B58209  35.395  33.556   7.064
 4540POPC   C4B58210  35.425  33.556   7.364
 4541POPC   NC358211  41.596  39.972   5.564
 4541POPC   PO458212  41.556  39.982   5.864
 4541POPC   GL158213  41.560  40.019   6.164
 4541POPC   GL258214  41.500  39.911   6.164
 4541POPC   C1A58215  41.581  40.057   6.464
 4541POPC   D2A58216  41.549  39.985   6.764
 4541POPC   C3A58217  41.551  39.992   7.064
 4541POPC   C4A58218  41.606  39.998   7.364
 4541POPC   C1B58219  41.422  39.810   6.464
 4541POPC   C2B58220  41.355  39.872   6.764
 4541POPC   C3B58221  41.347  39.807   7.064
 4541POPC   C4B58222  41.383  39.839   7.364
 4542POPC   NC358223  20.564   4.349   5.564
 4542POPC   PO458224  20.612   4.364   5.864
 4542POPC   GL158225  20.654   4.337   6.164
 4542POPC   GL258226  20.563   4.199   6.164
 4542POPC   C1A58227  20.576   4.287   6.464
 4542POPC   D2A58228  20.606   4.293   6.764
 4542POPC   C3A58229  20.619   4.305   7.064
 4542POPC   C4A58230  20.586   4.347   7.364
 4542POPC   C1B58231  20.492   4.062   6.464
 4542POPC   C2B58232  20.505   4.102   6.764
 4542POPC   C3B58233  20.488   4.144   7.064
 4542POPC   C4B58234  20.475   4.117   7.364
 4543POPC   NC358235  20.607   1.973   5.564
 4543POPC   PO458236  20.659   1.995   5.864
 4543POPC   GL158237  20.659   1.964   6.164
 4543POPC   GL258238  20.578   1.860   6.164
 4543POPC   C1A58239  20.579   1.960   6.464
 4543POPC   D2A58240  20.605   2.009   6.764
 4543POPC   C3A58241  20.644   1.984   7.064
 4543POPC   C4A58242  20.593   2.013   7.364
 4543POPC   C1B58243  20.615   1.768   6.464
 4543POPC   C2B58244  20.557   1.690   6.764
 4543POPC   C3B58245  20.545   1.713   7.064
 4543POPC   C4B58246  20.549   1.767   7.364
 4544POPC   NC358247  41.584  21.362   5.564
 4544POPC   PO458248  41.552  21.421   5.864
 4544POPC   GL158249  41.577  21.352   6.164
 4544POPC   GL258250  41.408  21.348   6.164
 4544POPC   C1A58251  41.540  21.411   6.464
 4544POPC   D2A58252  41.591  21.344   6.764
 4544POPC   C3A58253  41.558  21.371   7.064
 4544POPC   C4A58254  41.517  21.383   7.364
 4544POPC   C1B58255  41.335  21.428   6.464
 4544POPC   C2B58256  41.310  21.442   6.764
 4544POPC   C3B58257  41.339  21.370   7.064
 4544POPC   C4B58258  41.317  21.452   7.364
 4545POPC   NC358259  10.528   5.919   5.564
 4545POPC   PO458260  10.526   5.851   5.864
 4545POPC   GL158261  10.489   5.852   6.164
 4545POPC   GL258262  10.363   5.853   6.164
 4545POPC   C1A58263  10.491   5.913   6.464
 4545POPC   D2A58264  10.482   5.845   6.764
 4545POPC   C3A58265  10.549   5.831   7.064
 4545POPC   C4A58266  10.572   5.828   7.364
 4545POPC   C1B58267  10.316   5.801   6.464
 4545POPC   C2B58268  10.327   5.845   6.764
 4545POPC   C3B58269  10.288   5.846   7.064
 4545POPC   C4B58270  10.300   5.807   7.364
 4546POPC   NC358271  12.078  39.246   5.564
 4546POPC   PO458272  12.085  39.246   5.864
 4546POPC   GL158273  12.116  39.191   6.164
 4546POPC   GL258274  12.213  39.097   6.164
 4546POPC   C1A58275  12.028  39.204   6.464
 4546POPC   D2A58276  12.121  39.269   6.764
 4546POPC   C3A58277  12.070  39.239   7.064
 4546POPC   C4A58278  12.080  39.185   7.364
 4546POPC   C1B58279  12.274  39.073   6.464
 4546POPC   C2B58280  12.205  39.085   6.764
 4546POPC   C3B58281  12.268  39.052   7.064
 4546POPC   C4B58282  12.229  39.071   7.364
 4547POPC   NC358283  32.260  42.311   5.564
 4547POPC   PO458284  32.281  42.316   5.864
 4547POPC   GL158285  32.231  42.368   6.164
 4547POPC   GL258286  32.303  42.260   6.164
 4547POPC   C1A58287  32.255  42.371   6.464
 4547POPC   D2A58288  32.210  42.286   6.764
 4547POPC   C3A58289  32.213  42.291   7.064
 4547POPC   C4A58290  32.248  42.291   7.364
 4547POPC   C1B58291  32.367  42.088   6.464
 4547POPC   C2B58292  32.387  42.132   6.764
 4547POPC   C3B58293  32.424  42.132   7.064
 4547POPC   C4B58294  32.358  42.093   7.364
 4548POPC   NC358295  26.817  28.353   5.564
 4548POPC   PO458296  26.831  28.389   5.864
 4548POPC   GL158297  26.830  28.390   6.164
 4548POPC   GL258298  26.837  28.285   6.164
 4548POPC   C1A58299  26.826  28.330   6.464
 4548POPC   D2A58300  26.782  28.416   6.764
 4548POPC   C3A58301  26.783  28.331   7.064
 4548POPC   C4A58302  26.830  28.407   7.364
 4548POPC   C1B58303  26.865  28.100   6.464
 4548POPC   C2B58304  26.802  28.083   6.764
 4548POPC   C3B58305  26.812  28.136   7.064
 4548POPC   C4B58306  26.813  28.146   7.364
 4549POPC   NC358307  33.029   0.458   5.564
 4549POPC   PO458308  33.005   0.457   5.864
 4549POPC   GL158309  32.977   0.448   6.164
 4549POPC   GL258310  33.002   0.593   6.164
 4549POPC   C1A58311  33.046   0.447   6.464
 4549POPC   D2A58312  33.034   0.426   6.764
 4549POPC   C3A58313  33.047   0.460   7.064
 4549POPC   C4A58314  33.072   0.431   7.364
 4549POPC   C1B58315  32.882   0.689   6.464
 4549POPC   C2B58316  32.902   0.688   6.764
 4549POPC   C3B58317  32.911   0.618   7.064
 4549POPC   C4B58318  32.945   0.661   7.364
 4550POPC   NC358319   1.207  39.262   5.564
 4550POPC   PO458320   1.216  39.223   5.864
 4550POPC   GL158321   1.252  39.271   6.164
 4550POPC   GL258322   1.265  39.304   6.164
 4550POPC   C1A58323   1.261  39.277   6.464
 4550POPC   D2A58324   1.200  39.194   6.764
 4550POPC   C3A58325   1.220  39.197   7.064
 4550POPC   C4A58326   1.243  39.240   7.364
 4550POPC   C1B58327   1.310  39.408   6.464
 4550POPC   C2B58328   1.376  39.400   6.764
 4550POPC   C3B58329   1.327  39.454   7.064
 4550POPC   C4B58330   1.370  39.411   7.364
 4551POPC   NC358331  15.217   2.773   5.564
 4551POPC   PO458332  15.166   2.734   5.864
 4551POPC   GL158333  15.143   2.720   6.164
 4551POPC   GL258334  15.252   2.715   6.164
 4551POPC   C1A58335  15.148   2.815   6.464
 4551POPC   D2A58336  15.170   2.753   6.764
 4551POPC   C3A58337  15.159   2.811   7.064
 4551POPC   C4A58338  15.145   2.777   7.364
 4551POPC   C1B58339  15.309   2.599   6.464
 4551POPC   C2B58340  15.354   2.604   6.764
 4551POPC   C3B58341  15.289   2.563   7.064
 4551POPC   C4B58342  15.369   2.620   7.364
 4552POPC   NC358343  28.332  23.707   5.564
 4552POPC   PO458344  28.330  23.703   5.864
 4552POPC   GL158345  28.409  23.714   6.164
 4552POPC   GL258346  28.405  23.568   6.164
 4552POPC   C1A58347  28.409  23.762   6.464
 4552POPC   D2A58348  28.356  23.739   6.764
 4552POPC   C3A58349  28.387  23.739   7.064
 4552POPC   C4A58350  28.377  23.699   7.364
 4552POPC   C1B58351  28.496  23.550   6.464
 4552POPC   C2B58352  28.511  23.502   6.764
 4552POPC   C3B58353  28.522  23.557   7.064
 4552POPC   C4B58354  28.503  23.466   7.364
 4553POPC   NC358355   5.844  19.865   5.564
 4553POPC   PO458356   5.856  19.823   5.864
 4553POPC   GL158357   5.895  19.842   6.164
 4553POPC   GL258358   6.009  19.748   6.164
 4553POPC   C1A58359   5.881  19.878   6.464
 4553POPC   D2A58360   5.914  19.802   6.764
 4553POPC   C3A58361   5.871  19.837   7.064
 4553POPC   C4A58362   5.866  19.846   7.364
 4553POPC   C1B58363   6.065  19.759   6.464
 4553POPC   C2B58364   6.105  19.774   6.764
 4553POPC   C3B58365   6.131  19.760   7.064
 4553POPC   C4B58366   6.110  19.685   7.364
 4554POPC   NC358367  15.971   9.736   5.564
 4554POPC   PO458368  15.981   9.740   5.864
 4554POPC   GL158369  15.916   9.743   6.164
 4554POPC   GL258370  15.808   9.669   6.164
 4554POPC   C1A58371  15.915   9.720   6.464
 4554POPC   D2A58372  15.980   9.778   6.764
 4554POPC   C3A58373  15.928   9.724   7.064
 4554POPC   C4A58374  15.968   9.773   7.364
 4554POPC   C1B58375  15.695   9.641   6.464
 4554POPC   C2B58376  15.734   9.610   6.764
 4554POPC   C3B58377  15.717   9.678   7.064
 4554POPC   C4B58378  15.693   9.695   7.364
 4555POPC   NC358379  22.907  43.913   5.564
 4555POPC   PO458380  22.913  43.909   5.864
 4555POPC   GL158381  22.927  43.933   6.164
 4555POPC   GL258382  23.037  44.028   6.164
 4555POPC   C1A58383  22.908  43.898   6.464
 4555POPC   D2A58384  22.984  43.927   6.764
 4555POPC   C3A58385  22.968  43.914   7.064
 4555POPC   C4A58386  22.955  43.858   7.364
 4555POPC   C1B58387  23.042  44.081   6.464
 4555POPC   C2B58388  23.100  44.099   6.764
 4555POPC   C3B58389  23.111  44.089   7.064
 4555POPC   C4B58390  23.035  44.046   7.364
 4556POPC   NC358391  43.110  21.433   5.564
 4556POPC   PO458392  43.121  21.340   5.864
 4556POPC   GL158393  43.120  21.371   6.164
 4556POPC   GL258394  43.027  21.350   6.164
 4556POPC   C1A58395  43.066  21.384   6.464
 4556POPC   D2A58396  43.096  21.391   6.764
 4556POPC   C3A58397  43.096  21.426   7.064
 4556POPC   C4A58398  43.135  21.419   7.364
 4556POPC   C1B58399  42.896  21.178   6.464
 4556POPC   C2B58400  42.898  21.247   6.764
 4556POPC   C3B58401  42.951  21.257   7.064
 4556POPC   C4B58402  42.947  21.206   7.364
 4557POPC   NC358403   8.244  19.034   5.564
 4557POPC   PO458404   8.175  19.066   5.864
 4557POPC   GL158405   8.206  19.011   6.164
 4557POPC   GL258406   8.171  19.179   6.164
 4557POPC   C1A58407   8.227  19.047   6.464
 4557POPC   D2A58408   8.229  19.048   6.764
 4557POPC   C3A58409   8.168  19.080   7.064
 4557POPC   C4A58410   8.167  19.044   7.364
 4557POPC   C1B58411   8.154  19.290   6.464
 4557POPC   C2B58412   8.125  19.268   6.764
 4557POPC   C3B58413   8.114  19.257   7.064
 4557POPC   C4B58414   8.171  19.335   7.364
 4558POPC   NC358415   8.995   2.031   5.564
 4558POPC   PO458416   8.989   1.970   5.864
 4558POPC   GL158417   9.013   1.972   6.164
 4558POPC   GL258418   8.872   1.877   6.164
 4558POPC   C1A58419   8.944   1.988   6.464
 4558POPC   D2A58420   8.970   1.981   6.764
 4558POPC   C3A58421   8.950   2.011   7.064
 4558POPC   C4A58422   9.020   1.981   7.364
 4558POPC   C1B58423   8.909   1.743   6.464
 4558POPC   C2B58424   8.844   1.811   6.764
 4558POPC   C3B58425   8.824   1.720   7.064
 4558POPC   C4B58426   8.851   1.780   7.364
 4559POPC   NC358427  39.276   5.088   5.564
 4559POPC   PO458428  39.215   5.140   5.864
 4559POPC   GL158429  39.266   5.095   6.164
 4559POPC   GL258430  39.099   5.098   6.164
 4559POPC   C1A58431  39.263   5.083   6.464
 4559POPC   D2A58432  39.189   5.106   6.764
 4559POPC   C3A58433  39.276   5.097   7.064
 4559POPC   C4A58434  39.216   5.090   7.364
 4559POPC   C1B58435  38.939   5.060   6.464
 4559POPC   C2B58436  38.988   5.097   6.764
 4559POPC   C3B58437  38.962   5.141   7.064
 4559POPC   C4B58438  39.023   5.054   7.364
 4560POPC   NC358439  32.975   6.644   5.564
 4560POPC   PO458440  33.074   6.600   5.864
 4560POPC   GL158441  33.052   6.645   6.164
 4560POPC   GL258442  33.094   6.745   6.164
 4560POPC   C1A58443  33.050   6.621   6.464
 4560POPC   D2A58444  32.983   6.677   6.764
 4560POPC   C3A58445  33.019   6.661   7.064
 4560POPC   C4A58446  33.051   6.683   7.364
 4560POPC   C1B58447  33.266   6.784   6.464
 4560POPC   C2B58448  33.226   6.770   6.764
 4560POPC   C3B58449  33.228   6.744   7.064
 4560POPC   C4B58450  33.226   6.787   7.364
 4561POPC   NC358451  39.278   2.751   5.564
 4561POPC   PO458452  39.190   2.719   5.864
 4561POPC   GL158453  39.214   2.762   6.164
 4561POPC   GL258454  39.269   2.851   6.164
 4561POPC   C1A58455  39.243   2.786   6.464
 4561POPC   D2A58456  39.187   2.802   6.764
 4561POPC   C3A58457  39.226   2.719   7.064
 4561POPC   C4A58458  39.262   2.781   7.364
 4561POPC   C1B58459  39.316   2.969   6.464
 4561POPC   C2B58460  39.327   3.016   6.764
 4561POPC   C3B58461  39.382   2.927   7.064
 4561POPC   C4B58462  39.403   2.996   7.364
 4562POPC   NC358463  11.270  12.819   5.564
 4562POPC   PO458464  11.306  12.852   5.864
 4562POPC   GL158465  11.251  12.859   6.164
 4562POPC   GL258466  11.369  12.971   6.164
 4562POPC   C1A58467  11.296  12.855   6.464
 4562POPC   D2A58468  11.346  12.885   6.764
 4562POPC   C3A58469  11.287  12.803   7.064
 4562POPC   C4A58470  11.332  12.878   7.364
 4562POPC   C1B58471  11.459  13.052   6.464
 4562POPC   C2B58472  11.513  12.995   6.764
 4562POPC   C3B58473  11.497  13.004   7.064
 4562POPC   C4B58474  11.482  12.999   7.364
 4563POPC   NC358475   1.240   5.870   5.564
 4563POPC   PO458476   1.254   5.880   5.864
 4563POPC   GL158477   1.253   5.873   6.164
 4563POPC   GL258478   1.168   5.722   6.164
 4563POPC   C1A58479   1.175   5.904   6.464
 4563POPC   D2A58480   1.258   5.904   6.764
 4563POPC   C3A58481   1.221   5.908   7.064
 4563POPC   C4A58482   1.245   5.871   7.364
 4563POPC   C1B58483   1.054   5.617   6.464
 4563POPC   C2B58484   1.122   5.617   6.764
 4563POPC   C3B58485   1.091   5.636   7.064
 4563POPC   C4B58486   1.116   5.683   7.364
 4564POPC   NC358487  17.519  22.935   5.564
 4564POPC   PO458488  17.514  22.965   5.864
 4564POPC   GL158489  17.475  22.930   6.164
 4564POPC   GL258490  17.407  22.897   6.164
 4564POPC   C1A58491  17.504  22.970   6.464
 4564POPC   D2A58492  17.551  22.917   6.764
 4564POPC   C3A58493  17.490  22.956   7.064
 4564POPC   C4A58494  17.496  22.951   7.364
 4564POPC   C1B58495  17.265  22.855   6.464
 4564POPC   C2B58496  17.242  22.902   6.764
 4564POPC   C3B58497  17.225  22.861   7.064
 4564POPC   C4B58498  17.291  22.846   7.364
 4565POPC   NC358499  12.076  35.318   5.564
 4565POPC   PO458500  12.041  35.338   5.864
 4565POPC   GL158501  12.116  35.363   6.164
 4565POPC   GL258502  12.166  35.460   6.164
 4565POPC   C1A58503  12.069  35.325   6.464
 4565POPC   D2A58504  12.055  35.333   6.764
 4565POPC   C3A58505  12.027  35.400   7.064
 4565POPC   C4A58506  12.049  35.397   7.364
 4565POPC   C1B58507  12.153  35.576   6.464
 4565POPC   C2B58508  12.176  35.580   6.764
 4565POPC   C3B58509  12.178  35.572   7.064
 4565POPC   C4B58510  12.157  35.583   7.364
 4566POPC   NC358511  41.530   0.413   5.564
 4566POPC   PO458512  41.576   0.474   5.864
 4566POPC   GL158513  41.565   0.433   6.164
 4566POPC   GL258514  41.442   0.410   6.164
 4566POPC   C1A58515  41.573   0.463   6.464
 4566POPC   D2A58516  41.513   0.446   6.764
 4566POPC   C3A58517  41.536   0.476   7.064
 4566POPC   C4A58518  41.597   0.420   7.364
 4566POPC   C1B58519  41.293   0.392   6.464
 4566POPC   C2B58520  41.372   0.297   6.764
 4566POPC   C3B58521  41.307   0.332   7.064
 4566POPC   C4B58522  41.308   0.385   7.364
 4567POPC   NC358523  36.856  22.906   5.564
 4567POPC   PO458524  36.940  22.927   5.864
 4567POPC   GL158525  36.859  22.975   6.164
 4567POPC   GL258526  36.748  22.932   6.164
 4567POPC   C1A58527  36.949  22.960   6.464
 4567POPC   D2A58528  36.859  22.948   6.764
 4567POPC   C3A58529  36.941  22.982   7.064
 4567POPC   C4A58530  36.923  22.918   7.364
 4567POPC   C1B58531  36.641  22.943   6.464
 4567POPC   C2B58532  36.691  22.926   6.764
 4567POPC   C3B58533  36.695  22.860   7.064
 4567POPC   C4B58534  36.667  22.947   7.364
 4568POPC   NC358535  36.098  29.188   5.564
 4568POPC   PO458536  36.136  29.162   5.864
 4568POPC   GL158537  36.131  29.175   6.164
 4568POPC   GL258538  35.964  29.189   6.164
 4568POPC   C1A58539  36.137  29.124   6.464
 4568POPC   D2A58540  36.131  29.127   6.764
 4568POPC   C3A58541  36.079  29.121   7.064
 4568POPC   C4A58542  36.110  29.188   7.364
 4568POPC   C1B58543  35.934  29.193   6.464
 4568POPC   C2B58544  35.895  29.229   6.764
 4568POPC   C3B58545  35.871  29.243   7.064
 4568POPC   C4B58546  35.909  29.190   7.364
 4569POPC   NC358547  37.634  40.795   5.564
 4569POPC   PO458548  37.633  40.814   5.864
 4569POPC   GL158549  37.728  40.805   6.164
 4569POPC   GL258550  37.532  40.813   6.164
 4569POPC   C1A58551  37.686  40.822   6.464
 4569POPC   D2A58552  37.710  40.738   6.764
 4569POPC   C3A58553  37.703  40.816   7.064
 4569POPC   C4A58554  37.674  40.772   7.364
 4569POPC   C1B58555  37.403  40.810   6.464
 4569POPC   C2B58556  37.427  40.807   6.764
 4569POPC   C3B58557  37.450  40.856   7.064
 4569POPC   C4B58558  37.395  40.829   7.364
 4570POPC   NC358559  42.355  16.727   5.564
 4570POPC   PO458560  42.320  16.712   5.864
 4570POPC   GL158561  42.324  16.753   6.164
 4570POPC   GL258562  42.386  16.598   6.164
 4570POPC   C1A58563  42.335  16.709   6.464
 4570POPC   D2A58564  42.298  16.774   6.764
 4570POPC   C3A58565  42.377  16.739   7.064
 4570POPC   C4A58566  42.346  16.724   7.364
 4570POPC   C1B58567  42.430  16.557   6.464
 4570POPC   C2B58568  42.493  16.524   6.764
 4570POPC   C3B58569  42.426  16.484   7.064
 4570POPC   C4B58570  42.413  16.536   7.364
 4571POPC   NC358571  22.194  10.532   5.564
 4571POPC   PO458572  22.186  10.568   5.864
 4571POPC   GL158573  22.170  10.536   6.164
 4571POPC   GL258574  22.174  10.411   6.164
 4571POPC   C1A58575  22.157  10.492   6.464
 4571POPC   D2A58576  22.131  10.546   6.764
 4571POPC   C3A58577  22.118  10.552   7.064
 4571POPC   C4A58578  22.175  10.501   7.364
 4571POPC   C1B58579  22.173  10.228   6.464
 4571POPC   C2B58580  22.225  10.248   6.764
 4571POPC   C3B58581  22.221  10.236   7.064
 4571POPC   C4B58582  22.141  10.277   7.364
 4572POPC   NC358583  29.194  38.416   5.564
 4572POPC   PO458584  29.135  38.469   5.864
 4572POPC   GL158585  29.157  38.462   6.164
 4572POPC   GL258586  29.315  38.493   6.164
 4572POPC   C1A58587  29.185  38.462   6.464
 4572POPC   D2A58588  29.176  38.447   6.764
 4572POPC   C3A58589  29.099  38.466   7.064
 4572POPC   C4A58590  29.113  38.449   7.364
 4572POPC   C1B58591  29.413  38.474   6.464
 4572POPC   C2B58592  29.358  38.491   6.764
 4572POPC   C3B58593  29.404  38.436   7.064
 4572POPC   C4B58594  29.433  38.440   7.364
 4573POPC   NC358595  30.657  22.188   5.564
 4573POPC   PO458596  30.744  22.148   5.864
 4573POPC   GL158597  30.703  22.177   6.164
 4573POPC   GL258598  30.791  22.186   6.164
 4573POPC   C1A58599  30.732  22.140   6.464
 4573POPC   D2A58600  30.708  22.160   6.764
 4573POPC   C3A58601  30.647  22.112   7.064
 4573POPC   C4A58602  30.669  22.123   7.364
 4573POPC   C1B58603  30.938  22.277   6.464
 4573POPC   C2B58604  30.927  22.225   6.764
 4573POPC   C3B58605  30.884  22.286   7.064
 4573POPC   C4B58606  30.936  22.272   7.364
 4574POPC   NC358607  27.605  40.793   5.564
 4574POPC   PO458608  27.593  40.783   5.864
 4574POPC   GL158609  27.627  40.830   6.164
 4574POPC   GL258610  27.546  40.674   6.164
 4574POPC   C1A58611  27.567  40.742   6.464
 4574POPC   D2A58612  27.640  40.778   6.764
 4574POPC   C3A58613  27.553  40.737   7.064
 4574POPC   C4A58614  27.546  40.756   7.364
 4574POPC   C1B58615  27.383  40.635   6.464
 4574POPC   C2B58616  27.439  40.657   6.764
 4574POPC   C3B58617  27.417  40.660   7.064
 4574POPC   C4B58618  27.399  40.637   7.364
 4575POPC   NC358619  19.054  35.314   5.564
 4575POPC   PO458620  19.038  35.346   5.864
 4575POPC   GL158621  19.052  35.371   6.164
 4575POPC   GL258622  18.999  35.236   6.164
 4575POPC   C1A58623  19.015  35.377   6.464
 4575POPC   D2A58624  19.078  35.364   6.764
 4575POPC   C3A58625  19.026  35.380   7.064
 4575POPC   C4A58626  19.017  35.304   7.364
 4575POPC   C1B58627  18.993  35.056   6.464
 4575POPC   C2B58628  19.067  35.061   6.764
 4575POPC   C3B58629  19.074  35.067   7.064
 4575POPC   C4B58630  18.989  35.145   7.364
 4576POPC   NC358631  20.619  15.142   5.564
 4576POPC   PO458632  20.660  15.164   5.864
 4576POPC   GL158633  20.596  15.155   6.164
 4576POPC   GL258634  20.729  15.274   6.164
 4576POPC   C1A58635  20.601  15.134   6.464
 4576POPC   D2A58636  20.640  15.203   6.764
 4576POPC   C3A58637  20.569  15.142   7.064
 4576POPC   C4A58638  20.587  15.137   7.364
 4576POPC   C1B58639  20.811  15.358   6.464
 4576POPC   C2B58640  20.768  15.390   6.764
 4576POPC   C3B58641  20.827  15.346   7.064
 4576POPC   C4B58642  20.823  15.366   7.364
 4577POPC   NC358643  11.343  43.097   5.564
 4577POPC   PO458644  11.321  43.144   5.864
 4577POPC   GL158645  11.257  43.109   6.164
 4577POPC   GL258646  11.182  43.127   6.164
 4577POPC   C1A58647  11.294  43.111   6.464
 4577POPC   D2A58648  11.260  43.088   6.764
 4577POPC   C3A58649  11.253  43.154   7.064
 4577POPC   C4A58650  11.285  43.088   7.364
 4577POPC   C1B58651  11.064  43.130   6.464
 4577POPC   C2B58652  11.011  43.109   6.764
 4577POPC   C3B58653  11.051  43.134   7.064
 4577POPC   C4B58654  11.068  43.084   7.364
 4578POPC   NC358655  36.907   2.020   5.564
 4578POPC   PO458656  36.938   1.974   5.864
 4578POPC   GL158657  36.878   1.994   6.164
 4578POPC   GL258658  36.963   1.862   6.164
 4578POPC   C1A58659  36.919   2.023   6.464
 4578POPC   D2A58660  36.890   1.947   6.764
 4578POPC   C3A58661  36.868   1.993   7.064
 4578POPC   C4A58662  36.859   1.972   7.364
 4578POPC   C1B58663  37.032   1.822   6.464
 4578POPC   C2B58664  37.073   1.831   6.764
 4578POPC   C3B58665  37.020   1.806   7.064
 4578POPC   C4B58666  37.059   1.802   7.364
 4579POPC   NC358667  38.478   5.140   5.564
 4579POPC   PO458668  38.468   5.081   5.864
 4579POPC   GL158669  38.422   5.113   6.164
 4579POPC   GL258670  38.556   5.041   6.164
 4579POPC   C1A58671  38.429   5.055   6.464
 4579POPC   D2A58672  38.468   5.059   6.764
 4579POPC   C3A58673  38.435   5.099   7.064
 4579POPC   C4A58674  38.467   5.104   7.364
 4579POPC   C1B58675  38.726   4.988   6.464
 4579POPC   C2B58676  38.646   5.041   6.764
 4579POPC   C3B58677  38.665   4.986   7.064
 4579POPC   C4B58678  38.673   4.986   7.364
 4580POPC   NC358679  26.014  11.288   5.564
 4580POPC   PO458680  26.013  11.301   5.864
 4580POPC   GL158681  26.015  11.306   6.164
 4580POPC   GL258682  26.084  11.465   6.164
 4580POPC   C1A58683  26.036  11.284   6.464
 4580POPC   D2A58684  25.993  11.259   6.764
 4580POPC   C3A58685  26.041  11.265   7.064
 4580POPC   C4A58686  26.019  11.350   7.364
 4580POPC   C1B58687  26.037  11.582   6.464
 4580POPC   C2B58688  26.114  11.500   6.764
 4580POPC   C3B58689  26.042  11.519   7.064
 4580POPC   C4B58690  26.125  11.577   7.364
 4581POPC   NC358691  23.675  33.803   5.564
 4581POPC   PO458692  23.720  33.841   5.864
 4581POPC   GL158693  23.745  33.839   6.164
 4581POPC   GL258694  23.630  33.889   6.164
 4581POPC   C1A58695  23.752  33.841   6.464
 4581POPC   D2A58696  23.740  33.823   6.764
 4581POPC   C3A58697  23.736  33.836   7.064
 4581POPC   C4A58698  23.706  33.776   7.364
 4581POPC   C1B58699  23.641  34.080   6.464
 4581POPC   C2B58700  23.679  34.024   6.764
 4581POPC   C3B58701  23.610  34.037   7.064
 4581POPC   C4B58702  23.673  34.016   7.364
 4582POPC   NC358703  14.355   0.474   5.564
 4582POPC   PO458704  14.412   0.445   5.864
 4582POPC   GL158705  14.356   0.424   6.164
 4582POPC   GL258706  14.500   0.475   6.164
 4582POPC   C1A58707  14.425   0.458   6.464
 4582POPC   D2A58708  14.439   0.485   6.764
 4582POPC   C3A58709  14.371   0.484   7.064
 4582POPC   C4A58710  14.389   0.472   7.364
 4582POPC   C1B58711  14.621   0.445   6.464
 4582POPC   C2B58712  14.648   0.470   6.764
 4582POPC   C3B58713  14.618   0.462   7.064
 4582POPC   C4B58714  14.703   0.484   7.364
 4583POPC   NC358715  26.053  26.005   5.564
 4583POPC   PO458716  26.035  26.028   5.864
 4583POPC   GL158717  26.003  26.001   6.164
 4583POPC   GL258718  26.201  26.096   6.164
 4583POPC   C1A58719  26.078  26.080   6.464
 4583POPC   D2A58720  26.023  26.057   6.764
 4583POPC   C3A58721  26.036  26.077   7.064
 4583POPC   C4A58722  26.064  26.063   7.364
 4583POPC   C1B58723  26.309  26.050   6.464
 4583POPC   C2B58724  26.294  26.057   6.764
 4583POPC   C3B58725  26.262  26.071   7.064
 4583POPC   C4B58726  26.261  26.111   7.364
 4584POPC   NC358727  43.100   1.257   5.564
 4584POPC   PO458728  43.159   1.221   5.864
 4584POPC   GL158729  43.108   1.193   6.164
 4584POPC   GL258730  43.057   1.293   6.164
 4584POPC   C1A58731  43.117   1.180   6.464
 4584POPC   D2A58732  43.084   1.180   6.764
 4584POPC   C3A58733  43.082   1.168   7.064
 4584POPC   C4A58734  43.077   1.168   7.364
 4584POPC   C1B58735  43.097   1.442   6.464
 4584POPC   C2B58736  42.999   1.496   6.764
 4584POPC   C3B58737  43.020   1.459   7.064
 4584POPC   C4B58738  43.013   1.421   7.364
 4585POPC   NC358739  29.136   8.197   5.564
 4585POPC   PO458740  29.153   8.158   5.864
 4585POPC   GL158741  29.170   8.166   6.164
 4585POPC   GL258742  29.143   8.367   6.164
 4585POPC   C1A58743  29.145   8.225   6.464
 4585POPC   D2A58744  29.186   8.153   6.764
 4585POPC   C3A58745  29.114   8.191   7.064
 4585POPC   C4A58746  29.144   8.206   7.364
 4585POPC   C1B58747  29.155   8.477   6.464
 4585POPC   C2B58748  29.152   8.484   6.764
 4585POPC   C3B58749  29.135   8.407   7.064
 4585POPC   C4B58750  29.141   8.477   7.364
 4586POPC   NC358751  30.678  44.620   5.564
 4586POPC   PO458752  30.742  44.689   5.864
 4586POPC   GL158753  30.710  44.650   6.164
 4586POPC   GL258754  30.771  44.759   6.164
 4586POPC   C1A58755  30.677  44.673   6.464
 4586POPC   D2A58756  30.737  44.623   6.764
 4586POPC   C3A58757  30.664  44.672   7.064
 4586POPC   C4A58758  30.716  44.619   7.364
 4586POPC   C1B58759  30.782  44.830   6.464
 4586POPC   C2B58760  30.778  44.838   6.764
 4586POPC   C3B58761  30.817  44.916   7.064
 4586POPC   C4B58762  30.809  44.904   7.364
 4587POPC   NC358763  43.910  31.516   5.564
 4587POPC   PO458764  43.930  31.437   5.864
 4587POPC   GL158765  43.880  31.442   6.164
 4587POPC   GL258766  43.856  31.323   6.164
 4587POPC   C1A58767  43.909  31.496   6.464
 4587POPC   D2A58768  43.903  31.498   6.764
 4587POPC   C3A58769  43.921  31.479   7.064
 4587POPC   C4A58770  43.893  31.463   7.364
 4587POPC   C1B58771  43.731  31.215   6.464
 4587POPC   C2B58772  43.723  31.260   6.764
 4587POPC   C3B58773  43.788  31.209   7.064
 4587POPC   C4B58774  43.746  31.257   7.364
 4588POPC   NC358775  10.568   5.052   5.564
 4588POPC   PO458776  10.547   5.128   5.864
 4588POPC   GL158777  10.500   5.049   6.164
 4588POPC   GL258778  10.456   5.046   6.164
 4588POPC   C1A58779  10.500   5.131   6.464
 4588POPC   D2A58780  10.573   5.138   6.764
 4588POPC   C3A58781  10.524   5.124   7.064
 4588POPC   C4A58782  10.544   5.084   7.364
 4588POPC   C1B58783  10.344   4.921   6.464
 4588POPC   C2B58784  10.348   4.955   6.764
 4588POPC   C3B58785  10.365   4.934   7.064
 4588POPC   C4B58786  10.279   4.980   7.364
 4589POPC   NC358787  29.165   6.655   5.564
 4589POPC   PO458788  29.171   6.621   5.864
 4589POPC   GL158789  29.146   6.644   6.164
 4589POPC   GL258790  29.129   6.733   6.164
 4589POPC   C1A58791  29.175   6.625   6.464
 4589POPC   D2A58792  29.109   6.683   6.764
 4589POPC   C3A58793  29.154   6.604   7.064
 4589POPC   C4A58794  29.165   6.623   7.364
 4589POPC   C1B58795  29.101   6.845   6.464
 4589POPC   C2B58796  29.079   6.901   6.764
 4589POPC   C3B58797  29.078   6.908   7.064
 4589POPC   C4B58798  29.103   6.894   7.364
 4590POPC   NC358799  32.204  22.129   5.564
 4590POPC   PO458800  32.223  22.149   5.864
 4590POPC   GL158801  32.269  22.123   6.164
 4590POPC   GL258802  32.342  22.042   6.164
 4590POPC   C1A58803  32.272  22.124   6.464
 4590POPC   D2A58804  32.258  22.168   6.764
 4590POPC   C3A58805  32.219  22.146   7.064
 4590POPC   C4A58806  32.226  22.159   7.364
 4590POPC   C1B58807  32.435  21.951   6.464
 4590POPC   C2B58808  32.366  21.985   6.764
 4590POPC   C3B58809  32.354  21.935   7.064
 4590POPC   C4B58810  32.414  21.941   7.364
 4591POPC   NC358811   7.453  37.675   5.564
 4591POPC   PO458812   7.433  37.630   5.864
 4591POPC   GL158813   7.433  37.650   6.164
 4591POPC   GL258814   7.512  37.728   6.164
 4591POPC   C1A58815   7.395  37.668   6.464
 4591POPC   D2A58816   7.410  37.677   6.764
 4591POPC   C3A58817   7.467  37.671   7.064
 4591POPC   C4A58818   7.427  37.690   7.364
 4591POPC   C1B58819   7.602  37.797   6.464
 4591POPC   C2B58820   7.644  37.838   6.764
 4591POPC   C3B58821   7.649  37.846   7.064
 4591POPC   C4B58822   7.605  37.782   7.364
 4592POPC   NC358823  34.620  40.015   5.564
 4592POPC   PO458824  34.607  40.004   5.864
 4592POPC   GL158825  34.625  40.040   6.164
 4592POPC   GL258826  34.672  40.051   6.164
 4592POPC   C1A58827  34.537  40.033   6.464
 4592POPC   D2A58828  34.537  40.013   6.764
 4592POPC   C3A58829  34.590  39.958   7.064
 4592POPC   C4A58830  34.591  40.032   7.364
 4592POPC   C1B58831  34.791  40.144   6.464
 4592POPC   C2B58832  34.802  40.193   6.764
 4592POPC   C3B58833  34.807  40.198   7.064
 4592POPC   C4B58834  34.737  40.198   7.364
 4593POPC   NC358835  12.055  43.873   5.564
 4593POPC   PO458836  12.043  43.915   5.864
 4593POPC   GL158837  12.075  43.921   6.164
 4593POPC   GL258838  12.201  43.923   6.164
 4593POPC   C1A58839  12.042  43.862   6.464
 4593POPC   D2A58840  12.060  43.903   6.764
 4593POPC   C3A58841  12.103  43.839   7.064
 4593POPC   C4A58842  12.032  43.916   7.364
 4593POPC   C1B58843  12.311  43.894   6.464
 4593POPC   C2B58844  12.344  43.906   6.764
 4593POPC   C3B58845  12.303  43.900   7.064
 4593POPC   C4B58846  12.295  43.955   7.364
 4594POPC   NC358847   9.003  43.867   5.564
 4594POPC   PO458848   8.985  43.910   5.864
 4594POPC   GL158849   9.022  43.852   6.164
 4594POPC   GL258850   8.891  43.973   6.164
 4594POPC   C1A58851   9.021  43.901   6.464
 4594POPC   D2A58852   8.987  43.868   6.764
 4594POPC   C3A58853   8.989  43.935   7.064
 4594POPC   C4A58854   8.945  43.877   7.364
 4594POPC   C1B58855   8.873  44.150   6.464
 4594POPC   C2B58856   8.819  44.142   6.764
 4594POPC   C3B58857   8.809  44.145   7.064
 4594POPC   C4B58858   8.816  44.144   7.364
 4595POPC   NC358859  20.650  20.588   5.564
 4595POPC   PO458860  20.619  20.610   5.864
 4595POPC   GL158861  20.630  20.616   6.164
 4595POPC   GL258862  20.563  20.516   6.164
 4595POPC   C1A58863  20.579  20.641   6.464
 4595POPC   D2A58864  20.567  20.632   6.764
 4595POPC   C3A58865  20.598  20.641   7.064
 4595POPC   C4A58866  20.626  20.594   7.364
 4595POPC   C1B58867  20.479  20.418   6.464
 4595POPC   C2B58868  20.507  20.435   6.764
 4595POPC   C3B58869  20.453  20.383   7.064
 4595POPC   C4B58870  20.514  20.403   7.364
 4596POPC   NC358871   6.693  11.256   5.564
 4596POPC   PO458872   6.678  11.348   5.864
 4596POPC   GL158873   6.663  11.261   6.164
 4596POPC   GL258874   6.478  11.339   6.164
 4596POPC   C1A58875   6.613  11.291   6.464
 4596POPC   D2A58876   6.613  11.319   6.764
 4596POPC   C3A58877   6.618  11.322   7.064
 4596POPC   C4A58878   6.689  11.320   7.364
 4596POPC   C1B58879   6.440  11.355   6.464
 4596POPC   C2B58880   6.378  11.366   6.764
 4596POPC   C3B58881   6.438  11.342   7.064
 4596POPC   C4B58882   6.399  11.288   7.364
 4597POPC   NC358883  36.094  40.829   5.564
 4597POPC   PO458884  36.134  40.765   5.864
 4597POPC   GL158885  36.132  40.763   6.164
 4597POPC   GL258886  35.989  40.732   6.164
 4597POPC   C1A58887  36.150  40.742   6.464
 4597POPC   D2A58888  36.080  40.832   6.764
 4597POPC   C3A58889  36.105  40.778   7.064
 4597POPC   C4A58890  36.143  40.743   7.364
 4597POPC   C1B58891  35.889  40.643   6.464
 4597POPC   C2B58892  35.891  40.669   6.764
 4597POPC   C3B58893  35.889  40.669   7.064
 4597POPC   C4B58894  35.919  40.654   7.364
 4598POPC   NC358895  31.477  33.803   5.564
 4598POPC   PO458896  31.436  33.811   5.864
 4598POPC   GL158897  31.448  33.813   6.164
 4598POPC   GL258898  31.611  33.691   6.164
 4598POPC   C1A58899  31.437  33.821   6.464
 4598POPC   D2A58900  31.500  33.797   6.764
 4598POPC   C3A58901  31.447  33.838   7.064
 4598POPC   C4A58902  31.449  33.810   7.364
 4598POPC   C1B58903  31.693  33.611   6.464
 4598POPC   C2B58904  31.716  33.606   6.764
 4598POPC   C3B58905  31.682  33.633   7.064
 4598POPC   C4B58906  31.697  33.687   7.364
 4599POPC   NC358907   8.153   3.543   5.564
 4599POPC   PO458908   8.154   3.512   5.864
 4599POPC   GL158909   8.179   3.555   6.164
 4599POPC   GL258910   8.233   3.441   6.164
 4599POPC   C1A58911   8.151   3.556   6.464
 4599POPC   D2A58912   8.186   3.533   6.764
 4599POPC   C3A58913   8.212   3.499   7.064
 4599POPC   C4A58914   8.155   3.513   7.364
 4599POPC   C1B58915   8.322   3.384   6.464
 4599POPC   C2B58916   8.348   3.347   6.764
 4599POPC   C3B58917   8.341   3.328   7.064
 4599POPC   C4B58918   8.386   3.386   7.364
 4600POPC   NC358919  40.020   7.407   5.564
 4600POPC   PO458920  40.046   7.439   5.864
 4600POPC   GL158921  39.991   7.412   6.164
 4600POPC   GL258922  40.022   7.584   6.164
 4600POPC   C1A58923  40.033   7.426   6.464
 4600POPC   D2A58924  39.963   7.419   6.764
 4600POPC   C3A58925  40.011   7.406   7.064
 4600POPC   C4A58926  39.976   7.376   7.364
 4600POPC   C1B58927  40.133   7.664   6.464
 4600POPC   C2B58928  40.124   7.700   6.764
 4600POPC   C3B58929  40.150   7.651   7.064
 4600POPC   C4B58930  40.095   7.611   7.364
 4601POPC   NC358931   4.293  34.597   5.564
 4601POPC   PO458932   4.326  34.599   5.864
 4601POPC   GL158933   4.309  34.600   6.164
 4601POPC   GL258934   4.450  34.594   6.164
 4601POPC   C1A58935   4.278  34.614   6.464
 4601POPC   D2A58936   4.321  34.575   6.764
 4601POPC   C3A58937   4.312  34.581   7.064
 4601POPC   C4A58938   4.314  34.542   7.364
 4601POPC   C1B58939   4.568  34.509   6.464
 4601POPC   C2B58940   4.516  34.571   6.764
 4601POPC   C3B58941   4.542  34.578   7.064
 4601POPC   C4B58942   4.605  34.557   7.364
 4602POPC   NC358943  12.084   9.018   5.564
 4602POPC   PO458944  12.107   8.979   5.864
 4602POPC   GL158945  12.103   8.995   6.164
 4602POPC   GL258946  12.141   9.106   6.164
 4602POPC   C1A58947  12.107   8.923   6.464
 4602POPC   D2A58948  12.033   8.983   6.764
 4602POPC   C3A58949  12.078   9.007   7.064
 4602POPC   C4A58950  12.109   9.017   7.364
 4602POPC   C1B58951  12.192   9.212   6.464
 4602POPC   C2B58952  12.112   9.213   6.764
 4602POPC   C3B58953  12.156   9.198   7.064
 4602POPC   C4B58954  12.137   9.175   7.364
 4603POPC   NC358955  31.469  29.109   5.564
 4603POPC   PO458956  31.500  29.173   5.864
 4603POPC   GL158957  31.467  29.193   6.164
 4603POPC   GL258958  31.424  29.077   6.164
 4603POPC   C1A58959  31.442  29.110   6.464
 4603POPC   D2A58960  31.455  29.122   6.764
 4603POPC   C3A58961  31.480  29.183   7.064
 4603POPC   C4A58962  31.469  29.167   7.364
 4603POPC   C1B58963  31.329  28.929   6.464
 4603POPC   C2B58964  31.295  28.929   6.764
 4603POPC   C3B58965  31.313  28.951   7.064
 4603POPC   C4B58966  31.323  28.930   7.364
 4604POPC   NC358967  33.822   5.091   5.564
 4604POPC   PO458968  33.837   5.141   5.864
 4604POPC   GL158969  33.761   5.066   6.164
 4604POPC   GL258970  33.860   5.231   6.164
 4604POPC   C1A58971  33.799   5.064   6.464
 4604POPC   D2A58972  33.769   5.101   6.764
 4604POPC   C3A58973  33.838   5.096   7.064
 4604POPC   C4A58974  33.800   5.095   7.364
 4604POPC   C1B58975  33.929   5.360   6.464
 4604POPC   C2B58976  33.938   5.323   6.764
 4604POPC   C3B58977  33.888   5.286   7.064
 4604POPC   C4B58978  33.916   5.365   7.364
 4605POPC   NC358979  30.708   6.643   5.564
 4605POPC   PO458980  30.670   6.674   5.864
 4605POPC   GL158981  30.711   6.629   6.164
 4605POPC   GL258982  30.606   6.594   6.164
 4605POPC   C1A58983  30.743   6.630   6.464
 4605POPC   D2A58984  30.730   6.658   6.764
 4605POPC   C3A58985  30.655   6.654   7.064
 4605POPC   C4A58986  30.660   6.637   7.364
 4605POPC   C1B58987  30.480   6.420   6.464
 4605POPC   C2B58988  30.550   6.510   6.764
 4605POPC   C3B58989  30.528   6.510   7.064
 4605POPC   C4B58990  30.561   6.447   7.364
 4606POPC   NC358991  39.252  31.463   5.564
 4606POPC   PO458992  39.243  31.510   5.864
 4606POPC   GL158993  39.189  31.448   6.164
 4606POPC   GL258994  39.186  31.547   6.164
 4606POPC   C1A58995  39.194  31.499   6.464
 4606POPC   D2A58996  39.209  31.460   6.764
 4606POPC   C3A58997  39.190  31.450   7.064
 4606POPC   C4A58998  39.253  31.447   7.364
 4606POPC   C1B58999  39.118  31.710   6.464
 4606POPC   C2B59000  39.063  31.727   6.764
 4606POPC   C3B59001  39.110  31.699   7.064
 4606POPC   C4B59002  39.126  31.664   7.364
 4607POPC   NC359003  22.900  10.534   5.564
 4607POPC   PO459004  22.948  10.563   5.864
 4607POPC   GL159005  22.915  10.529   6.164
 4607POPC   GL259006  22.889  10.448   6.164
 4607POPC   C1A59007  22.916  10.538   6.464
 4607POPC   D2A59008  22.974  10.511   6.764
 4607POPC   C3A59009  22.987  10.486   7.064
 4607POPC   C4A59010  22.898  10.503   7.364
 4607POPC   C1B59011  22.824  10.297   6.464
 4607POPC   C2B59012  22.766  10.292   6.764
 4607POPC   C3B59013  22.768  10.280   7.064
 4607POPC   C4B59014  22.805  10.278   7.364
 4608POPC   NC359015  22.167   5.114   5.564
 4608POPC   PO459016  22.182   5.047   5.864
 4608POPC   GL159017  22.138   5.136   6.164
 4608POPC   GL259018  22.142   4.974   6.164
 4608POPC   C1A59019  22.131   5.094   6.464
 4608POPC   D2A59020  22.184   5.079   6.764
 4608POPC   C3A59021  22.112   5.082   7.064
 4608POPC   C4A59022  22.118   5.121   7.364
 4608POPC   C1B59023  21.995   4.902   6.464
 4608POPC   C2B59024  22.031   4.896   6.764
 4608POPC   C3B59025  22.000   4.857   7.064
 4608POPC   C4B59026  22.035   4.872   7.364
 4609POPC   NC359027  37.726   5.876   5.564
 4609POPC   PO459028  37.685   5.894   5.864
 4609POPC   GL159029  37.667   5.911   6.164
 4609POPC   GL259030  37.567   5.741   6.164
 4609POPC   C1A59031  37.697   5.852   6.464
 4609POPC   D2A59032  37.632   5.885   6.764
 4609POPC   C3A59033  37.655   5.822   7.064
 4609POPC   C4A59034  37.669   5.835   7.364
 4609POPC   C1B59035  37.465   5.728   6.464
 4609POPC   C2B59036  37.480   5.686   6.764
 4609POPC   C3B59037  37.506   5.693   7.064
 4609POPC   C4B59038  37.458   5.720   7.364
 4610POPC   NC359039  22.126  38.444   5.564
 4610POPC   PO459040  22.127  38.478   5.864
 4610POPC   GL159041  22.171  38.414   6.164
 4610POPC   GL259042  22.321  38.429   6.164
 4610POPC   C1A59043  22.152  38.423   6.464
 4610POPC   D2A59044  22.141  38.474   6.764
 4610POPC   C3A59045  22.162  38.483   7.064
 4610POPC   C4A59046  22.128  38.427   7.364
 4610POPC   C1B59047  22.428  38.383   6.464
 4610POPC   C2B59048  22.384  38.402   6.764
 4610POPC   C3B59049  22.440  38.398   7.064
 4610POPC   C4B59050  22.433  38.436   7.364
 4611POPC   NC359051  42.314  18.244   5.564
 4611POPC   PO459052  42.326  18.282   5.864
 4611POPC   GL159053  42.324  18.267   6.164
 4611POPC   GL259054  42.374  18.427   6.164
 4611POPC   C1A59055  42.293  18.238   6.464
 4611POPC   D2A59056  42.301  18.310   6.764
 4611POPC   C3A59057  42.325  18.301   7.064
 4611POPC   C4A59058  42.285  18.310   7.364
 4611POPC   C1B59059  42.302  18.484   6.464
 4611POPC   C2B59060  42.291  18.546   6.764
 4611POPC   C3B59061  42.326  18.482   7.064
 4611POPC   C4B59062  42.281  18.511   7.364
 4612POPC   NC359063  21.376   1.204   5.564
 4612POPC   PO459064  21.416   1.165   5.864
 4612POPC   GL159065  21.414   1.234   6.164
 4612POPC   GL259066  21.441   1.284   6.164
 4612POPC   C1A59067  21.345   1.256   6.464
 4612POPC   D2A59068  21.428   1.187   6.764
 4612POPC   C3A59069  21.392   1.182   7.064
 4612POPC   C4A59070  21.380   1.179   7.364
 4612POPC   C1B59071  21.509   1.461   6.464
 4612POPC   C2B59072  21.547   1.455   6.764
 4612POPC   C3B59073  21.478   1.467   7.064
 4612POPC   C4B59074  21.482   1.482   7.364
 4613POPC   NC359075  20.577  42.361   5.564
 4613POPC   PO459076  20.606  42.358   5.864
 4613POPC   GL159077  20.574  42.317   6.164
 4613POPC   GL259078  20.465  42.309   6.164
 4613POPC   C1A59079  20.579  42.343   6.464
 4613POPC   D2A59080  20.646  42.303   6.764
 4613POPC   C3A59081  20.645  42.377   7.064
 4613POPC   C4A59082  20.603  42.311   7.364
 4613POPC   C1B59083  20.355  42.314   6.464
 4613POPC   C2B59084  20.355  42.285   6.764
 4613POPC   C3B59085  20.337  42.288   7.064
 4613POPC   C4B59086  20.361  42.289   7.364
 4614POPC   NC359087  34.609  35.391   5.564
 4614POPC   PO459088  34.527  35.374   5.864
 4614POPC   GL159089  34.595  35.344   6.164
 4614POPC   GL259090  34.690  35.473   6.164
 4614POPC   C1A59091  34.564  35.341   6.464
 4614POPC   D2A59092  34.566  35.332   6.764
 4614POPC   C3A59093  34.531  35.359   7.064
 4614POPC   C4A59094  34.596  35.345   7.364
 4614POPC   C1B59095  34.662  35.589   6.464
 4614POPC   C2B59096  34.676  35.564   6.764
 4614POPC   C3B59097  34.720  35.543   7.064
 4614POPC   C4B59098  34.718  35.551   7.364
 4615POPC   NC359099   5.052  22.180   5.564
 4615POPC   PO459100   5.139  22.164   5.864
 4615POPC   GL159101   5.117  22.179   6.164
 4615POPC   GL259102   4.990  22.270   6.164
 4615POPC   C1A59103   5.094  22.182   6.464
 4615POPC   D2A59104   5.105  22.199   6.764
 4615POPC   C3A59105   5.131  22.139   7.064
 4615POPC   C4A59106   5.070  22.182   7.364
 4615POPC   C1B59107   4.965  22.344   6.464
 4615POPC   C2B59108   4.970  22.368   6.764
 4615POPC   C3B59109   4.931  22.341   7.064
 4615POPC   C4B59110   4.962  22.345   7.364
 4616POPC   NC359111   3.589  22.128   5.564
 4616POPC   PO459112   3.550  22.149   5.864
 4616POPC   GL159113   3.562  22.193   6.164
 4616POPC   GL259114   3.621  22.250   6.164
 4616POPC   C1A59115   3.553  22.208   6.464
 4616POPC   D2A59116   3.497  22.193   6.764
 4616POPC   C3A59117   3.555  22.210   7.064
 4616POPC   C4A59118   3.546  22.113   7.364
 4616POPC   C1B59119   3.671  22.391   6.464
 4616POPC   C2B59120   3.678  22.381   6.764
 4616POPC   C3B59121   3.698  22.393   7.064
 4616POPC   C4B59122   3.726  22.397   7.364
 4617POPC   NC359123  12.079  23.758   5.564
 4617POPC   PO459124  12.032  23.761   5.864
 4617POPC   GL159125  12.117  23.671   6.164
 4617POPC   GL259126  12.172  23.750   6.164
 4617POPC   C1A59127  12.092  23.709   6.464
 4617POPC   D2A59128  12.079  23.741   6.764
 4617POPC   C3A59129  12.113  23.688   7.064
 4617POPC   C4A59130  12.052  23.680   7.364
 4617POPC   C1B59131  12.283  23.727   6.464
 4617POPC   C2B59132  12.332  23.700   6.764
 4617POPC   C3B59133  12.325  23.764   7.064
 4617POPC   C4B59134  12.345  23.715   7.364
 4618POPC   NC359135  37.714   4.338   5.564
 4618POPC   PO459136  37.672   4.319   5.864
 4618POPC   GL159137  37.672   4.308   6.164
 4618POPC   GL259138  37.662   4.178   6.164
 4618POPC   C1A59139  37.726   4.297   6.464
 4618POPC   D2A59140  37.662   4.282   6.764
 4618POPC   C3A59141  37.686   4.361   7.064
 4618POPC   C4A59142  37.704   4.352   7.364
 4618POPC   C1B59143  37.714   4.066   6.464
 4618POPC   C2B59144  37.678   4.066   6.764
 4618POPC   C3B59145  37.751   4.052   7.064
 4618POPC   C4B59146  37.724   4.072   7.364
 4619POPC   NC359147  19.865   3.517   5.564
 4619POPC   PO459148  19.823   3.583   5.864
 4619POPC   GL159149  19.864   3.565   6.164
 4619POPC   GL259150  19.700   3.489   6.164
 4619POPC   C1A59151  19.867   3.498   6.464
 4619POPC   D2A59152  19.825   3.493   6.764
 4619POPC   C3A59153  19.845   3.528   7.064
 4619POPC   C4A59154  19.866   3.515   7.364
 4619POPC   C1B59155  19.557   3.487   6.464
 4619POPC   C2B59156  19.639   3.428   6.764
 4619POPC   C3B59157  19.650   3.406   7.064
 4619POPC   C4B59158  19.569   3.424   7.364
 4620POPC   NC359159  39.979  29.106   5.564
 4620POPC   PO459160  39.967  29.106   5.864
 4620POPC   GL159161  40.000  29.103   6.164
 4620POPC   GL259162  40.103  29.163   6.164
 4620POPC   C1A59163  40.011  29.142   6.464
 4620POPC   D2A59164  40.045  29.189   6.764
 4620POPC   C3A59165  39.979  29.101   7.064
 4620POPC   C4A59166  40.022  29.151   7.364
 4620POPC   C1B59167  40.301  29.127   6.464
 4620POPC   C2B59168  40.264  29.189   6.764
 4620POPC   C3B59169  40.209  29.112   7.064
 4620POPC   C4B59170  40.244  29.119   7.364
 4621POPC   NC359171  16.764  43.925   5.564
 4621POPC   PO459172  16.715  43.863   5.864
 4621POPC   GL159173  16.753  43.854   6.164
 4621POPC   GL259174  16.678  43.749   6.164
 4621POPC   C1A59175  16.704  43.906   6.464
 4621POPC   D2A59176  16.752  43.929   6.764
 4621POPC   C3A59177  16.704  43.849   7.064
 4621POPC   C4A59178  16.706  43.904   7.364
 4621POPC   C1B59179  16.632  43.693   6.464
 4621POPC   C2B59180  16.566  43.701   6.764
 4621POPC   C3B59181  16.576  43.712   7.064
 4621POPC   C4B59182  16.577  43.718   7.364
 4622POPC   NC359183  28.395  28.382   5.564
 4622POPC   PO459184  28.399  28.325   5.864
 4622POPC   GL159185  28.416  28.348   6.164
 4622POPC   GL259186  28.292  28.506   6.164
 4622POPC   C1A59187  28.383  28.382   6.464
 4622POPC   D2A59188  28.392  28.340   6.764
 4622POPC   C3A59189  28.393  28.338   7.064
 4622POPC   C4A59190  28.352  28.339   7.364
 4622POPC   C1B59191  28.210  28.576   6.464
 4622POPC   C2B59192  28.239  28.546   6.764
 4622POPC   C3B59193  28.201  28.539   7.064
 4622POPC   C4B59194  28.186  28.583   7.364
 4623POPC   NC359195   0.478   7.459   5.564
 4623POPC   PO459196   0.426   7.470   5.864
 4623POPC   GL159197   0.409   7.440   6.164
 4623POPC   GL259198   0.595   7.390   6.164
 4623POPC   C1A59199   0.452   7.463   6.464
 4623POPC   D2A59200   0.428   7.452   6.764
 4623POPC   C3A59201   0.463   7.398   7.064
 4623POPC   C4A59202   0.485   7.392   7.364
 4623POPC   C1B59203   0.664   7.259   6.464
 4623POPC   C2B59204   0.616   7.321   6.764
 4623POPC   C3B59205   0.662   7.274   7.064
 4623POPC   C4B59206   0.691   7.296   7.364
 4624POPC   NC359207  22.958  36.108   5.564
 4624POPC   PO459208  22.965  36.149   5.864
 4624POPC   GL159209  22.936  36.161   6.164
 4624POPC   GL259210  23.045  35.977   6.164
 4624POPC   C1A59211  22.934  36.124   6.464
 4624POPC   D2A59212  22.962  36.136   6.764
 4624POPC   C3A59213  22.934  36.137   7.064
 4624POPC   C4A59214  22.980  36.176   7.364
 4624POPC   C1B59215  23.012  35.929   6.464
 4624POPC   C2B59216  23.055  35.905   6.764
 4624POPC   C3B59217  23.079  35.907   7.064
 4624POPC   C4B59218  23.057  35.894   7.364
 4625POPC   NC359219   8.928  41.558   5.564
 4625POPC   PO459220   9.003  41.593   5.864
 4625POPC   GL159221   8.960  41.604   6.164
 4625POPC   GL259222   8.865  41.657   6.164
 4625POPC   C1A59223   8.975  41.567   6.464
 4625POPC   D2A59224   8.987  41.559   6.764
 4625POPC   C3A59225   8.961  41.586   7.064
 4625POPC   C4A59226   8.960  41.590   7.364
 4625POPC   C1B59227   8.766  41.718   6.464
 4625POPC   C2B59228   8.733  41.730   6.764
 4625POPC   C3B59229   8.812  41.716   7.064
 4625POPC   C4B59230   8.758  41.688   7.364
 4626POPC   NC359231  12.816   0.433   5.564
 4626POPC   PO459232  12.876   0.446   5.864
 4626POPC   GL159233  12.827   0.426   6.164
 4626POPC   GL259234  12.930   0.495   6.164
 4626POPC   C1A59235  12.827   0.469   6.464
 4626POPC   D2A59236  12.863   0.444   6.764
 4626POPC   C3A59237  12.821   0.423   7.064
 4626POPC   C4A59238  12.897   0.399   7.364
 4626POPC   C1B59239  13.129   0.472   6.464
 4626POPC   C2B59240  13.132   0.408   6.764
 4626POPC   C3B59241  13.099   0.475   7.064
 4626POPC   C4B59242  13.124   0.414   7.364
 4627POPC   NC359243   8.199  36.159   5.564
 4627POPC   PO459244   8.210  36.088   5.864
 4627POPC   GL159245   8.197  36.144   6.164
 4627POPC   GL259246   8.322  36.201   6.164
 4627POPC   C1A59247   8.198  36.110   6.464
 4627POPC   D2A59248   8.190  36.114   6.764
 4627POPC   C3A59249   8.192  36.125   7.064
 4627POPC   C4A59250   8.194  36.131   7.364
 4627POPC   C1B59251   8.398  36.254   6.464
 4627POPC   C2B59252   8.430  36.186   6.764
 4627POPC   C3B59253   8.422  36.231   7.064
 4627POPC   C4B59254   8.385  36.235   7.364
 4628POPC   NC359255  14.438  38.492   5.564
 4628POPC   PO459256  14.401  38.449   5.864
 4628POPC   GL159257  14.447  38.441   6.164
 4628POPC   GL259258  14.356  38.543   6.164
 4628POPC   C1A59259  14.393  38.430   6.464
 4628POPC   D2A59260  14.377  38.425   6.764
 4628POPC   C3A59261  14.414  38.501   7.064
 4628POPC   C4A59262  14.442  38.416   7.364
 4628POPC   C1B59263  14.251  38.694   6.464
 4628POPC   C2B59264  14.259  38.669   6.764
 4628POPC   C3B59265  14.290  38.625   7.064
 4628POPC   C4B59266  14.275  38.665   7.364
 4629POPC   NC359267  22.954  24.503   5.564
 4629POPC   PO459268  22.932  24.529   5.864
 4629POPC   GL159269  22.913  24.441   6.164
 4629POPC   GL259270  22.864  24.419   6.164
 4629POPC   C1A59271  22.935  24.450   6.464
 4629POPC   D2A59272  22.905  24.519   6.764
 4629POPC   C3A59273  22.898  24.465   7.064
 4629POPC   C4A59274  22.981  24.535   7.364
 4629POPC   C1B59275  22.769  24.323   6.464
 4629POPC   C2B59276  22.735  24.371   6.764
 4629POPC   C3B59277  22.739  24.309   7.064
 4629POPC   C4B59278  22.757  24.370   7.364
 4630POPC   NC359279  32.979  26.047   5.564
 4630POPC   PO459280  33.069  26.088   5.864
 4630POPC   GL159281  33.020  26.077   6.164
 4630POPC   GL259282  33.088  25.887   6.164
 4630POPC   C1A59283  32.990  26.005   6.464
 4630POPC   D2A59284  33.021  26.054   6.764
 4630POPC   C3A59285  32.983  26.070   7.064
 4630POPC   C4A59286  33.026  26.056   7.364
 4630POPC   C1B59287  33.064  25.825   6.464
 4630POPC   C2B59288  33.069  25.799   6.764
 4630POPC   C3B59289  33.063  25.832   7.064
 4630POPC   C4B59290  33.070  25.775   7.364
 4631POPC   NC359291   5.870  42.381   5.564
 4631POPC   PO459292   5.887  42.381   5.864
 4631POPC   GL159293   5.837  42.312   6.164
 4631POPC   GL259294   5.804  42.474   6.164
 4631POPC   C1A59295   5.827  42.314   6.464
 4631POPC   D2A59296   5.824  42.356   6.764
 4631POPC   C3A59297   5.915  42.340   7.064
 4631POPC   C4A59298   5.849  42.351   7.364
 4631POPC   C1B59299   5.707  42.602   6.464
 4631POPC   C2B59300   5.772  42.576   6.764
 4631POPC   C3B59301   5.745  42.544   7.064
 4631POPC   C4B59302   5.734  42.532   7.364
 4632POPC   NC359303  12.825  23.690   5.564
 4632POPC   PO459304  12.881  23.748   5.864
 4632POPC   GL159305  12.808  23.729   6.164
 4632POPC   GL259306  12.703  23.690   6.164
 4632POPC   C1A59307  12.875  23.758   6.464
 4632POPC   D2A59308  12.849  23.705   6.764
 4632POPC   C3A59309  12.870  23.739   7.064
 4632POPC   C4A59310  12.840  23.711   7.364
 4632POPC   C1B59311  12.604  23.697   6.464
 4632POPC   C2B59312  12.625  23.682   6.764
 4632POPC   C3B59313  12.649  23.755   7.064
 4632POPC   C4B59314  12.566  23.723   7.364
 4633POPC   NC359315  18.276   0.411   5.564
 4633POPC   PO459316  18.295   0.477   5.864
 4633POPC   GL159317  18.302   0.447   6.164
 4633POPC   GL259318  18.402   0.339   6.164
 4633POPC   C1A59319  18.246   0.410   6.464
 4633POPC   D2A59320  18.315   0.452   6.764
 4633POPC   C3A59321  18.279   0.408   7.064
 4633POPC   C4A59322  18.240   0.423   7.364
 4633POPC   C1B59323  18.400   0.278   6.464
 4633POPC   C2B59324  18.451   0.278   6.764
 4633POPC   C3B59325  18.406   0.243   7.064
 4633POPC   C4B59326  18.421   0.234   7.364
 4634POPC   NC359327  33.822   1.211   5.564
 4634POPC   PO459328  33.805   1.254   5.864
 4634POPC   GL159329  33.822   1.202   6.164
 4634POPC   GL259330  33.849   1.306   6.164
 4634POPC   C1A59331  33.813   1.176   6.464
 4634POPC   D2A59332  33.792   1.170   6.764
 4634POPC   C3A59333  33.801   1.171   7.064
 4634POPC   C4A59334  33.757   1.170   7.364
 4634POPC   C1B59335  33.873   1.485   6.464
 4634POPC   C2B59336  33.819   1.414   6.764
 4634POPC   C3B59337  33.841   1.458   7.064
 4634POPC   C4B59338  33.890   1.483   7.364
 4635POPC   NC359339  32.247   0.457   5.564
 4635POPC   PO459340  32.199   0.424   5.864
 4635POPC   GL159341  32.238   0.476   6.164
 4635POPC   GL259342  32.325   0.505   6.164
 4635POPC   C1A59343  32.239   0.472   6.464
 4635POPC   D2A59344  32.212   0.450   6.764
 4635POPC   C3A59345  32.254   0.413   7.064
 4635POPC   C4A59346  32.257   0.419   7.364
 4635POPC   C1B59347  32.434   0.611   6.464
 4635POPC   C2B59348  32.443   0.659   6.764
 4635POPC   C3B59349  32.427   0.653   7.064
 4635POPC   C4B59350  32.362   0.679   7.364
 4636POPC   NC359351   2.740  31.484   5.564
 4636POPC   PO459352   2.754  31.466   5.864
 4636POPC   GL159353   2.787  31.468   6.164
 4636POPC   GL259354   2.856  31.374   6.164
 4636POPC   C1A59355   2.740  31.459   6.464
 4636POPC   D2A59356   2.780  31.453   6.764
 4636POPC   C3A59357   2.791  31.426   7.064
 4636POPC   C4A59358   2.799  31.513   7.364
 4636POPC   C1B59359   2.907  31.235   6.464
 4636POPC   C2B59360   2.855  31.243   6.764
 4636POPC   C3B59361   2.822  31.287   7.064
 4636POPC   C4B59362   2.896  31.251   7.364
 4637POPC   NC359363  15.931  14.439   5.564
 4637POPC   PO459364  15.934  14.443   5.864
 4637POPC   GL159365  15.967  14.395   6.164
 4637POPC   GL259366  15.925  14.540   6.164
 4637POPC   C1A59367  15.982  14.364   6.464
 4637POPC   D2A59368  15.910  14.397   6.764
 4637POPC   C3A59369  15.946  14.411   7.064
 4637POPC   C4A59370  15.945  14.359   7.364
 4637POPC   C1B59371  15.955  14.609   6.464
 4637POPC   C2B59372  15.944  14.614   6.764
 4637POPC   C3B59373  15.919  14.692   7.064
 4637POPC   C4B59374  15.933  14.629   7.364
 4638POPC   NC359375  41.573   8.975   5.564
 4638POPC   PO459376  41.553   8.974   5.864
 4638POPC   GL159377  41.609   9.017   6.164
 4638POPC   GL259378  41.473   8.889   6.164
 4638POPC   C1A59379  41.547   8.999   6.464
 4638POPC   D2A59380  41.600   8.924   6.764
 4638POPC   C3A59381  41.525   8.937   7.064
 4638POPC   C4A59382  41.606   8.970   7.364
 4638POPC   C1B59383  41.289   8.928   6.464
 4638POPC   C2B59384  41.344   8.856   6.764
 4638POPC   C3B59385  41.314   8.861   7.064
 4638POPC   C4B59386  41.273   8.899   7.364
 4639POPC   NC359387  37.632  15.967   5.564
 4639POPC   PO459388  37.723  16.005   5.864
 4639POPC   GL159389  37.706  15.932   6.164
 4639POPC   GL259390  37.770  16.014   6.164
 4639POPC   C1A59391  37.660  15.959   6.464
 4639POPC   D2A59392  37.703  15.907   6.764
 4639POPC   C3A59393  37.668  15.941   7.064
 4639POPC   C4A59394  37.669  15.951   7.364
 4639POPC   C1B59395  37.868  15.991   6.464
 4639POPC   C2B59396  37.942  16.040   6.764
 4639POPC   C3B59397  37.917  16.068   7.064
 4639POPC   C4B59398  37.870  16.076   7.364
 4640POPC   NC359399  22.936  23.723   5.564
 4640POPC   PO459400  22.934  23.736   5.864
 4640POPC   GL159401  22.918  23.671   6.164
 4640POPC   GL259402  22.972  23.560   6.164
 4640POPC   C1A59403  22.981  23.714   6.464
 4640POPC   D2A59404  22.948  23.672   6.764
 4640POPC   C3A59405  22.902  23.668   7.064
 4640POPC   C4A59406  22.967  23.764   7.364
 4640POPC   C1B59407  23.058  23.431   6.464
 4640POPC   C2B59408  23.035  23.449   6.764
 4640POPC   C3B59409  23.038  23.434   7.064
 4640POPC   C4B59410  22.999  23.452   7.364
 4641POPC   NC359411   5.878  19.100   5.564
 4641POPC   PO459412   5.871  19.065   5.864
 4641POPC   GL159413   5.912  19.096   6.164
 4641POPC   GL259414   6.013  19.146   6.164
 4641POPC   C1A59415   5.907  19.042   6.464
 4641POPC   D2A59416   5.825  19.051   6.764
 4641POPC   C3A59417   5.910  19.036   7.064
 4641POPC   C4A59418   5.919  19.054   7.364
 4641POPC   C1B59419   6.073  19.225   6.464
 4641POPC   C2B59420   6.106  19.153   6.764
 4641POPC   C3B59421   6.082  19.222   7.064
 4641POPC   C4B59422   6.103  19.166   7.364
 4642POPC   NC359423  30.663  17.514   5.564
 4642POPC   PO459424  30.681  17.465   5.864
 4642POPC   GL159425  30.707  17.500   6.164
 4642POPC   GL259426  30.629  17.434   6.164
 4642POPC   C1A59427  30.668  17.525   6.464
 4642POPC   D2A59428  30.672  17.547   6.764
 4642POPC   C3A59429  30.668  17.508   7.064
 4642POPC   C4A59430  30.683  17.510   7.364
 4642POPC   C1B59431  30.618  17.259   6.464
 4642POPC   C2B59432  30.544  17.279   6.764
 4642POPC   C3B59433  30.586  17.258   7.064
 4642POPC   C4B59434  30.625  17.337   7.364
 4643POPC   NC359435  34.551   8.241   5.564
 4643POPC   PO459436  34.624   8.179   5.864
 4643POPC   GL159437  34.611   8.228   6.164
 4643POPC   GL259438  34.465   8.280   6.164
 4643POPC   C1A59439  34.580   8.209   6.464
 4643POPC   D2A59440  34.534   8.198   6.764
 4643POPC   C3A59441  34.544   8.223   7.064
 4643POPC   C4A59442  34.591   8.189   7.364
 4643POPC   C1B59443  34.339   8.265   6.464
 4643POPC   C2B59444  34.340   8.305   6.764
 4643POPC   C3B59445  34.393   8.304   7.064
 4643POPC   C4B59446  34.317   8.269   7.364
 4644POPC   NC359447  42.362  21.354   5.564
 4644POPC   PO459448  42.335  21.414   5.864
 4644POPC   GL159449  42.350  21.416   6.164
 4644POPC   GL259450  42.348  21.479   6.164
 4644POPC   C1A59451  42.315  21.384   6.464
 4644POPC   D2A59452  42.303  21.426   6.764
 4644POPC   C3A59453  42.293  21.356   7.064
 4644POPC   C4A59454  42.326  21.378   7.364
 4644POPC   C1B59455  42.262  21.596   6.464
 4644POPC   C2B59456  42.291  21.648   6.764
 4644POPC   C3B59457  42.248  21.658   7.064
 4644POPC   C4B59458  42.300  21.587   7.364
 4645POPC   NC359459  41.529  11.301   5.564
 4645POPC   PO459460  41.533  11.347   5.864
 4645POPC   GL159461  41.527  11.259   6.164
 4645POPC   GL259462  41.396  11.272   6.164
 4645POPC   C1A59463  41.576  11.329   6.464
 4645POPC   D2A59464  41.578  11.308   6.764
 4645POPC   C3A59465  41.525  11.259   7.064
 4645POPC   C4A59466  41.518  11.255   7.364
 4645POPC   C1B59467  41.309  11.294   6.464
 4645POPC   C2B59468  41.355  11.301   6.764
 4645POPC   C3B59469  41.289  11.362   7.064
 4645POPC   C4B59470  41.357  11.365   7.364
 4646POPC   NC359471  12.842  26.084   5.564
 4646POPC   PO459472  12.811  26.074   5.864
 4646POPC   GL159473  12.858  26.056   6.164
 4646POPC   GL259474  12.832  26.195   6.164
 4646POPC   C1A59475  12.870  26.086   6.464
 4646POPC   D2A59476  12.852  26.064   6.764
 4646POPC   C3A59477  12.893  26.020   7.064
 4646POPC   C4A59478  12.811  26.052   7.364
 4646POPC   C1B59479  12.753  26.229   6.464
 4646POPC   C2B59480  12.787  26.312   6.764
 4646POPC   C3B59481  12.800  26.267   7.064
 4646POPC   C4B59482  12.763  26.269   7.364
 4647POPC   NC359483  33.766  20.573   5.564
 4647POPC   PO459484  33.792  20.657   5.864
 4647POPC   GL159485  33.760  20.604   6.164
 4647POPC   GL259486  33.856  20.692   6.164
 4647POPC   C1A59487  33.845  20.576   6.464
 4647POPC   D2A59488  33.789  20.631   6.764
 4647POPC   C3A59489  33.841  20.626   7.064
 4647POPC   C4A59490  33.753  20.631   7.364
 4647POPC   C1B59491  33.996  20.837   6.464
 4647POPC   C2B59492  33.986  20.755   6.764
 4647POPC   C3B59493  33.996  20.831   7.064
 4647POPC   C4B59494  33.959  20.792   7.364
 4648POPC   NC359495   6.597  40.748   5.564
 4648POPC   PO459496   6.601  40.773   5.864
 4648POPC   GL159497   6.605  40.758   6.164
 4648POPC   GL259498   6.506  40.764   6.164
 4648POPC   C1A59499   6.655  40.766   6.464
 4648POPC   D2A59500   6.631  40.791   6.764
 4648POPC   C3A59501   6.608  40.745   7.064
 4648POPC   C4A59502   6.639  40.830   7.364
 4648POPC   C1B59503   6.354  40.746   6.464
 4648POPC   C2B59504   6.386  40.757   6.764
 4648POPC   C3B59505   6.426  40.743   7.064
 4648POPC   C4B59506   6.374  40.713   7.364
 4649POPC   NC359507  35.387  42.344   5.564
 4649POPC   PO459508  35.328  42.310   5.864
 4649POPC   GL159509  35.329  42.333   6.164
 4649POPC   GL259510  35.410  42.483   6.164
 4649POPC   C1A59511  35.307  42.383   6.464
 4649POPC   D2A59512  35.394  42.325   6.764
 4649POPC   C3A59513  35.346  42.310   7.064
 4649POPC   C4A59514  35.389  42.330   7.364
 4649POPC   C1B59515  35.522  42.551   6.464
 4649POPC   C2B59516  35.496  42.584   6.764
 4649POPC   C3B59517  35.521  42.583   7.064
 4649POPC   C4B59518  35.508  42.561   7.364
 4650POPC   NC359519  43.129  22.152   5.564
 4650POPC   PO459520  43.115  22.123   5.864
 4650POPC   GL159521  43.069  22.159   6.164
 4650POPC   GL259522  42.947  22.088   6.164
 4650POPC   C1A59523  43.077  22.184   6.464
 4650POPC   D2A59524  43.089  22.169   6.764
 4650POPC   C3A59525  43.095  22.210   7.064
 4650POPC   C4A59526  43.150  22.144   7.364
 4650POPC   C1B59527  42.914  22.064   6.464
 4650POPC   C2B59528  42.915  22.107   6.764
 4650POPC   C3B59529  42.910  22.037   7.064
 4650POPC   C4B59530  42.910  22.050   7.364
 4651POPC   NC359531  12.078  31.521   5.564
 4651POPC   PO459532  12.118  31.427   5.864
 4651POPC   GL159533  12.089  31.460   6.164
 4651POPC   GL259534  11.936  31.544   6.164
 4651POPC   C1A59535  12.034  31.438   6.464
 4651POPC   D2A59536  12.076  31.455   6.764
 4651POPC   C3A59537  12.055  31.458   7.064
 4651POPC   C4A59538  12.113  31.503   7.364
 4651POPC   C1B59539  11.798  31.545   6.464
 4651POPC   C2B59540  11.860  31.607   6.764
 4651POPC   C3B59541  11.854  31.572   7.064
 4651POPC   C4B59542  11.831  31.593   7.364
 4652POPC   NC359543  36.921  36.106   5.564
 4652POPC   PO459544  36.905  36.174   5.864
 4652POPC   GL159545  36.859  36.080   6.164
 4652POPC   GL259546  36.932  36.228   6.164
 4652POPC   C1A59547  36.953  36.102   6.464
 4652POPC   D2A59548  36.924  36.083   6.764
 4652POPC   C3A59549  36.930  36.126   7.064
 4652POPC   C4A59550  36.904  36.137   7.364
 4652POPC   C1B59551  36.944  36.388   6.464
 4652POPC   C2B59552  37.006  36.389   6.764
 4652POPC   C3B59553  36.953  36.331   7.064
 4652POPC   C4B59554  36.930  36.332   7.364
 4653POPC   NC359555  29.885  26.043   5.564
 4653POPC   PO459556  29.938  26.039   5.864
 4653POPC   GL159557  29.946  26.076   6.164
 4653POPC   GL259558  30.003  26.009   6.164
 4653POPC   C1A59559  29.890  25.999   6.464
 4653POPC   D2A59560  29.921  26.031   6.764
 4653POPC   C3A59561  29.962  26.009   7.064
 4653POPC   C4A59562  29.924  26.088   7.364
 4653POPC   C1B59563  30.186  26.063   6.464
 4653POPC   C2B59564  30.205  25.995   6.764
 4653POPC   C3B59565  30.186  25.998   7.064
 4653POPC   C4B59566  30.214  26.026   7.364
 4654POPC   NC359567  30.663  29.127   5.564
 4654POPC   PO459568  30.718  29.158   5.864
 4654POPC   GL159569  30.680  29.165   6.164
 4654POPC   GL259570  30.717  29.289   6.164
 4654POPC   C1A59571  30.721  29.177   6.464
 4654POPC   D2A59572  30.699  29.143   6.764
 4654POPC   C3A59573  30.657  29.099   7.064
 4654POPC   C4A59574  30.745  29.105   7.364
 4654POPC   C1B59575  30.729  29.372   6.464
 4654POPC   C2B59576  30.805  29.386   6.764
 4654POPC   C3B59577  30.710  29.352   7.064
 4654POPC   C4B59578  30.752  29.383   7.364
 4655POPC   NC359579  22.961  17.546   5.564
 4655POPC   PO459580  22.935  17.470   5.864
 4655POPC   GL159581  22.951  17.496   6.164
 4655POPC   GL259582  22.917  17.335   6.164
 4655POPC   C1A59583  22.915  17.464   6.464
 4655POPC   D2A59584  22.920  17.548   6.764
 4655POPC   C3A59585  22.983  17.534   7.064
 4655POPC   C4A59586  22.983  17.545   7.364
 4655POPC   C1B59587  22.854  17.257   6.464
 4655POPC   C2B59588  22.914  17.219   6.764
 4655POPC   C3B59589  22.892  17.220   7.064
 4655POPC   C4B59590  22.876  17.214   7.364
 4656POPC   NC359591  44.709  43.878   5.564
 4656POPC   PO459592  44.670  43.920   5.864
 4656POPC   GL159593  44.680  43.926   6.164
 4656POPC   GL259594  44.664  43.990   6.164
 4656POPC   C1A59595  44.664  43.877   6.464
 4656POPC   D2A59596  44.673  43.855   6.764
 4656POPC   C3A59597  44.652  43.909   7.064
 4656POPC   C4A59598  44.659  43.919   7.364
 4656POPC   C1B59599  44.706  44.092   6.464
 4656POPC   C2B59600  44.749  44.138   6.764
 4656POPC   C3B59601  44.763  44.143   7.064
 4656POPC   C4B59602  44.788  44.117   7.364
 4657POPC   NC359603  12.879   3.574   5.564
 4657POPC   PO459604  12.830   3.545   5.864
 4657POPC   GL159605  12.826   3.572   6.164
 4657POPC   GL259606  12.755   3.456   6.164
 4657POPC   C1A59607  12.877   3.527   6.464
 4657POPC   D2A59608  12.844   3.540   6.764
 4657POPC   C3A59609  12.888   3.507   7.064
 4657POPC   C4A59610  12.895   3.532   7.364
 4657POPC   C1B59611  12.622   3.464   6.464
 4657POPC   C2B59612  12.615   3.484   6.764
 4657POPC   C3B59613  12.647   3.397   7.064
 4657POPC   C4B59614  12.626   3.418   7.364
 4658POPC   NC359615  28.380  19.090   5.564
 4658POPC   PO459616  28.333  19.082   5.864
 4658POPC   GL159617  28.346  19.088   6.164
 4658POPC   GL259618  28.488  18.993   6.164
 4658POPC   C1A59619  28.325  19.065   6.464
 4658POPC   D2A59620  28.372  19.059   6.764
 4658POPC   C3A59621  28.328  19.070   7.064
 4658POPC   C4A59622  28.388  19.068   7.364
 4658POPC   C1B59623  28.563  18.914   6.464
 4658POPC   C2B59624  28.550  18.867   6.764
 4658POPC   C3B59625  28.552  18.881   7.064
 4658POPC   C4B59626  28.532  18.876   7.364
 4659POPC   NC359627  40.748   0.475   5.564
 4659POPC   PO459628  40.769   0.388   5.864
 4659POPC   GL159629  40.764   0.434   6.164
 4659POPC   GL259630  40.887   0.483   6.164
 4659POPC   C1A59631  40.785   0.473   6.464
 4659POPC   D2A59632  40.743   0.409   6.764
 4659POPC   C3A59633  40.738   0.471   7.064
 4659POPC   C4A59634  40.802   0.470   7.364
 4659POPC   C1B59635  41.072   0.508   6.464
 4659POPC   C2B59636  40.993   0.509   6.764
 4659POPC   C3B59637  40.989   0.439   7.064
 4659POPC   C4B59638  40.989   0.520   7.364
 4660POPC   NC359639  37.707   2.017   5.564
 4660POPC   PO459640  37.718   2.013   5.864
 4660POPC   GL159641  37.716   1.969   6.164
 4660POPC   GL259642  37.807   2.028   6.164
 4660POPC   C1A59643  37.685   1.988   6.464
 4660POPC   D2A59644  37.710   2.032   6.764
 4660POPC   C3A59645  37.649   2.012   7.064
 4660POPC   C4A59646  37.720   2.011   7.364
 4660POPC   C1B59647  37.945   2.029   6.464
 4660POPC   C2B59648  37.937   1.963   6.764
 4660POPC   C3B59649  37.957   1.977   7.064
 4660POPC   C4B59650  37.976   2.023   7.364
 4661POPC   NC359651  15.996  22.172   5.564
 4661POPC   PO459652  15.972  22.130   5.864
 4661POPC   GL159653  15.968  22.173   6.164
 4661POPC   GL259654  16.001  22.075   6.164
 4661POPC   C1A59655  15.992  22.126   6.464
 4661POPC   D2A59656  15.948  22.168   6.764
 4661POPC   C3A59657  15.973  22.127   7.064
 4661POPC   C4A59658  15.970  22.139   7.364
 4661POPC   C1B59659  16.101  22.022   6.464
 4661POPC   C2B59660  16.152  21.984   6.764
 4661POPC   C3B59661  16.088  22.019   7.064
 4661POPC   C4B59662  16.096  22.033   7.364
 4662POPC   NC359663  44.628   5.135   5.564
 4662POPC   PO459664  44.664   5.111   5.864
 4662POPC   GL159665  44.664   5.085   6.164
 4662POPC   GL259666  44.552   5.056   6.164
 4662POPC   C1A59667  44.678   5.141   6.464
 4662POPC   D2A59668  44.654   5.065   6.764
 4662POPC   C3A59669  44.612   5.092   7.064
 4662POPC   C4A59670  44.633   5.068   7.364
 4662POPC   C1B59671  44.393   5.006   6.464
 4662POPC   C2B59672  44.405   4.979   6.764
 4662POPC   C3B59673  44.441   4.992   7.064
 4662POPC   C4B59674  44.449   4.989   7.364
 4663POPC   NC359675   4.323  19.010   5.564
 4663POPC   PO459676   4.274  19.026   5.864
 4663POPC   GL159677   4.306  19.038   6.164
 4663POPC   GL259678   4.347  19.231   6.164
 4663POPC   C1A59679   4.364  19.058   6.464
 4663POPC   D2A59680   4.284  19.041   6.764
 4663POPC   C3A59681   4.294  19.010   7.064
 4663POPC   C4A59682   4.301  19.043   7.364
 4663POPC   C1B59683   4.242  19.286   6.464
 4663POPC   C2B59684   4.326  19.338   6.764
 4663POPC   C3B59685   4.271  19.342   7.064
 4663POPC   C4B59686   4.240  19.356   7.364
 4664POPC   NC359687  12.113  32.270   5.564
 4664POPC   PO459688  12.123  32.271   5.864
 4664POPC   GL159689  12.034  32.267   6.164
 4664POPC   GL259690  11.993  32.300   6.164
 4664POPC   C1A59691  12.035  32.270   6.464
 4664POPC   D2A59692  12.047  32.209   6.764
 4664POPC   C3A59693  12.039  32.234   7.064
 4664POPC   C4A59694  12.058  32.277   7.364
 4664POPC   C1B59695  11.869  32.338   6.464
 4664POPC   C2B59696  11.872  32.245   6.764
 4664POPC   C3B59697  11.830  32.304   7.064
 4664POPC   C4B59698  11.807  32.260   7.364
 4665POPC   NC359699  32.290  19.842   5.564
 4665POPC   PO459700  32.295  19.854   5.864
 4665POPC   GL159701  32.224  19.836   6.164
 4665POPC   GL259702  32.382  19.798   6.164
 4665POPC   C1A59703  32.220  19.786   6.464
 4665POPC   D2A59704  32.220  19.875   6.764
 4665POPC   C3A59705  32.220  19.849   7.064
 4665POPC   C4A59706  32.269  19.794   7.364
 4665POPC   C1B59707  32.469  19.692   6.464
 4665POPC   C2B59708  32.414  19.727   6.764
 4665POPC   C3B59709  32.424  19.737   7.064
 4665POPC   C4B59710  32.502  19.745   7.364
 4666POPC   NC359711  30.708  42.337   5.564
 4666POPC   PO459712  30.706  42.363   5.864
 4666POPC   GL159713  30.663  42.290   6.164
 4666POPC   GL259714  30.651  42.244   6.164
 4666POPC   C1A59715  30.716  42.296   6.464
 4666POPC   D2A59716  30.707  42.294   6.764
 4666POPC   C3A59717  30.715  42.381   7.064
 4666POPC   C4A59718  30.686  42.365   7.364
 4666POPC   C1B59719  30.678  42.090   6.464
 4666POPC   C2B59720  30.680  42.108   6.764
 4666POPC   C3B59721  30.702  42.045   7.064
 4666POPC   C4B59722  30.732  42.046   7.364
 4667POPC   NC359723   0.407  32.298   5.564
 4667POPC   PO459724   0.393  32.201   5.864
 4667POPC   GL159725   0.418  32.263   6.164
 4667POPC   GL259726   0.478  32.371   6.164
 4667POPC   C1A59727   0.473  32.252   6.464
 4667POPC   D2A59728   0.427  32.198   6.764
 4667POPC   C3A59729   0.465  32.260   7.064
 4667POPC   C4A59730   0.404  32.213   7.364
 4667POPC   C1B59731   0.627  32.465   6.464
 4667POPC   C2B59732   0.626  32.474   6.764
 4667POPC   C3B59733   0.556  32.428   7.064
 4667POPC   C4B59734   0.564  32.412   7.364
 4668POPC   NC359735   9.749  26.803   5.564
 4668POPC   PO459736   9.788  26.826   5.864
 4668POPC   GL159737   9.750  26.843   6.164
 4668POPC   GL259738   9.659  26.735   6.164
 4668POPC   C1A59739   9.719  26.827   6.464
 4668POPC   D2A59740   9.714  26.854   6.764
 4668POPC   C3A59741   9.774  26.830   7.064
 4668POPC   C4A59742   9.723  26.846   7.364
 4668POPC   C1B59743   9.642  26.625   6.464
 4668POPC   C2B59744   9.697  26.554   6.764
 4668POPC   C3B59745   9.678  26.591   7.064
 4668POPC   C4B59746   9.629  26.590   7.364
 4669POPC   NC359747  20.602  33.013   5.564
 4669POPC   PO459748  20.631  32.979   5.864
 4669POPC   GL159749  20.632  33.064   6.164
 4669POPC   GL259750  20.523  33.104   6.164
 4669POPC   C1A59751  20.595  33.048   6.464
 4669POPC   D2A59752  20.654  33.055   6.764
 4669POPC   C3A59753  20.623  33.064   7.064
 4669POPC   C4A59754  20.580  33.025   7.364
 4669POPC   C1B59755  20.479  33.204   6.464
 4669POPC   C2B59756  20.488  33.213   6.764
 4669POPC   C3B59757  20.482  33.239   7.064
 4669POPC   C4B59758  20.467  33.256   7.364
 4670POPC   NC359759   7.441  14.362   5.564
 4670POPC   PO459760   7.415  14.436   5.864
 4670POPC   GL159761   7.457  14.418   6.164
 4670POPC   GL259762   7.470  14.526   6.164
 4670POPC   C1A59763   7.431  14.398   6.464
 4670POPC   D2A59764   7.463  14.369   6.764
 4670POPC   C3A59765   7.455  14.438   7.064
 4670POPC   C4A59766   7.459  14.421   7.364
 4670POPC   C1B59767   7.478  14.609   6.464
 4670POPC   C2B59768   7.486  14.649   6.764
 4670POPC   C3B59769   7.482  14.648   7.064
 4670POPC   C4B59770   7.523  14.600   7.364
 4671POPC   NC359771   4.304  12.879   5.564
 4671POPC   PO459772   4.268  12.884   5.864
 4671POPC   GL159773   4.298  12.883   6.164
 4671POPC   GL259774   4.213  12.841   6.164
 4671POPC   C1A59775   4.337  12.871   6.464
 4671POPC   D2A59776   4.289  12.802   6.764
 4671POPC   C3A59777   4.301  12.843   7.064
 4671POPC   C4A59778   4.334  12.893   7.364
 4671POPC   C1B59779   4.122  12.773   6.464
 4671POPC   C2B59780   4.089  12.719   6.764
 4671POPC   C3B59781   4.044  12.714   7.064
 4671POPC   C4B59782   4.107  12.715   7.364
 4672POPC   NC359783   9.700  32.259   5.564
 4672POPC   PO459784   9.712  32.293   5.864
 4672POPC   GL159785   9.751  32.263   6.164
 4672POPC   GL259786   9.682  32.230   6.164
 4672POPC   C1A59787   9.782  32.274   6.464
 4672POPC   D2A59788   9.715  32.213   6.764
 4672POPC   C3A59789   9.699  32.203   7.064
 4672POPC   C4A59790   9.754  32.264   7.364
 4672POPC   C1B59791   9.543  32.153   6.464
 4672POPC   C2B59792   9.494  32.148   6.764
 4672POPC   C3B59793   9.484  32.151   7.064
 4672POPC   C4B59794   9.575  32.104   7.364
 4673POPC   NC359795  13.626  14.417   5.564
 4673POPC   PO459796  13.653  14.382   5.864
 4673POPC   GL159797  13.648  14.438   6.164
 4673POPC   GL259798  13.562  14.366   6.164
 4673POPC   C1A59799  13.620  14.431   6.464
 4673POPC   D2A59800  13.621  14.368   6.764
 4673POPC   C3A59801  13.637  14.397   7.064
 4673POPC   C4A59802  13.629  14.430   7.364
 4673POPC   C1B59803  13.429  14.197   6.464
 4673POPC   C2B59804  13.482  14.214   6.764
 4673POPC   C3B59805  13.418  14.237   7.064
 4673POPC   C4B59806  13.443  14.196   7.364
 4674POPC   NC359807  24.530  29.932   5.564
 4674POPC   PO459808  24.443  29.938   5.864
 4674POPC   GL159809  24.495  29.871   6.164
 4674POPC   GL259810  24.615  29.909   6.164
 4674POPC   C1A59811  24.458  29.907   6.464
 4674POPC   D2A59812  24.453  29.896   6.764
 4674POPC   C3A59813  24.501  29.927   7.064
 4674POPC   C4A59814  24.481  29.898   7.364
 4674POPC   C1B59815  24.718  29.969   6.464
 4674POPC   C2B59816  24.735  30.022   6.764
 4674POPC   C3B59817  24.737  29.938   7.064
 4674POPC   C4B59818  24.693  29.986   7.364
 4675POPC   NC359819  25.306  12.087   5.564
 4675POPC   PO459820  25.281  12.119   5.864
 4675POPC   GL159821  25.284  12.102   6.164
 4675POPC   GL259822  25.316  11.989   6.164
 4675POPC   C1A59823  25.268  12.057   6.464
 4675POPC   D2A59824  25.236  12.056   6.764
 4675POPC   C3A59825  25.269  12.092   7.064
 4675POPC   C4A59826  25.241  12.054   7.364
 4675POPC   C1B59827  25.413  11.903   6.464
 4675POPC   C2B59828  25.420  11.870   6.764
 4675POPC   C3B59829  25.385  11.897   7.064
 4675POPC   C4B59830  25.430  11.930   7.364
 4676POPC   NC359831  33.771  12.074   5.564
 4676POPC   PO459832  33.808  12.068   5.864
 4676POPC   GL159833  33.827  12.091   6.164
 4676POPC   GL259834  33.666  12.131   6.164
 4676POPC   C1A59835  33.819  12.106   6.464
 4676POPC   D2A59836  33.849  12.095   6.764
 4676POPC   C3A59837  33.846  12.031   7.064
 4676POPC   C4A59838  33.787  12.039   7.364
 4676POPC   C1B59839  33.599  12.245   6.464
 4676POPC   C2B59840  33.573  12.267   6.764
 4676POPC   C3B59841  33.564  12.201   7.064
 4676POPC   C4B59842  33.611  12.224   7.364
 4677POPC   NC359843  41.514  15.135   5.564
 4677POPC   PO459844  41.513  15.175   5.864
 4677POPC   GL159845  41.513  15.185   6.164
 4677POPC   GL259846  41.608  15.082   6.164
 4677POPC   C1A59847  41.591  15.174   6.464
 4677POPC   D2A59848  41.550  15.205   6.764
 4677POPC   C3A59849  41.536  15.194   7.064
 4677POPC   C4A59850  41.537  15.136   7.364
 4677POPC   C1B59851  41.737  15.020   6.464
 4677POPC   C2B59852  41.752  14.965   6.764
 4677POPC   C3B59853  41.697  14.987   7.064
 4677POPC   C4B59854  41.724  15.025   7.364
 4678POPC   NC359855   6.622  36.139   5.564
 4678POPC   PO459856   6.651  36.110   5.864
 4678POPC   GL159857   6.692  36.085   6.164
 4678POPC   GL259858   6.513  36.115   6.164
 4678POPC   C1A59859   6.607  36.136   6.464
 4678POPC   D2A59860   6.609  36.147   6.764
 4678POPC   C3A59861   6.622  36.086   7.064
 4678POPC   C4A59862   6.662  36.143   7.364
 4678POPC   C1B59863   6.380  36.030   6.464
 4678POPC   C2B59864   6.460  35.980   6.764
 4678POPC   C3B59865   6.420  36.053   7.064
 4678POPC   C4B59866   6.411  36.024   7.364
 4679POPC   NC359867  21.401   2.726   5.564
 4679POPC   PO459868  21.398   2.790   5.864
 4679POPC   GL159869  21.414   2.808   6.164
 4679POPC   GL259870  21.409   2.923   6.164
 4679POPC   C1A59871  21.366   2.734   6.464
 4679POPC   D2A59872  21.412   2.801   6.764
 4679POPC   C3A59873  21.375   2.722   7.064
 4679POPC   C4A59874  21.414   2.800   7.364
 4679POPC   C1B59875  21.430   3.029   6.464
 4679POPC   C2B59876  21.453   2.966   6.764
 4679POPC   C3B59877  21.436   3.059   7.064
 4679POPC   C4B59878  21.402   3.058   7.364
 4680POPC   NC359879  44.658  31.470   5.564
 4680POPC   PO459880  44.672  31.471   5.864
 4680POPC   GL159881  44.656  31.438   6.164
 4680POPC   GL259882  44.526  31.371   6.164
 4680POPC   C1A59883  44.675  31.493   6.464
 4680POPC   D2A59884  44.637  31.488   6.764
 4680POPC   C3A59885  44.669  31.460   7.064
 4680POPC   C4A59886  44.640  31.481   7.364
 4680POPC   C1B59887  44.504  31.306   6.464
 4680POPC   C2B59888  44.445  31.321   6.764
 4680POPC   C3B59889  44.484  31.295   7.064
 4680POPC   C4B59890  44.483  31.303   7.364
 4681POPC   NC359891  22.901  11.305   5.564
 4681POPC   PO459892  22.932  11.295   5.864
 4681POPC   GL159893  22.907  11.292   6.164
 4681POPC   GL259894  23.092  11.316   6.164
 4681POPC   C1A59895  22.955  11.348   6.464
 4681POPC   D2A59896  22.907  11.288   6.764
 4681POPC   C3A59897  22.964  11.260   7.064
 4681POPC   C4A59898  22.962  11.290   7.364
 4681POPC   C1B59899  23.141  11.241   6.464
 4681POPC   C2B59900  23.199  11.248   6.764
 4681POPC   C3B59901  23.214  11.255   7.064
 4681POPC   C4B59902  23.192  11.226   7.364
 4682POPC   NC359903  30.703  37.715   5.564
 4682POPC   PO459904  30.662  37.647   5.864
 4682POPC   GL159905  30.681  37.716   6.164
 4682POPC   GL259906  30.636  37.567   6.164
 4682POPC   C1A59907  30.678  37.673   6.464
 4682POPC   D2A59908  30.723  37.637   6.764
 4682POPC   C3A59909  30.670  37.716   7.064
 4682POPC   C4A59910  30.705  37.671   7.364
 4682POPC   C1B59911  30.620  37.409   6.464
 4682POPC   C2B59912  30.581  37.423   6.764
 4682POPC   C3B59913  30.618  37.474   7.064
 4682POPC   C4B59914  30.646  37.411   7.364
 4683POPC   NC359915  26.072  39.226   5.564
 4683POPC   PO459916  26.085  39.270   5.864
 4683POPC   GL159917  25.995  39.193   6.164
 4683POPC   GL259918  26.086  39.400   6.164
 4683POPC   C1A59919  26.081  39.244   6.464
 4683POPC   D2A59920  25.992  39.273   6.764
 4683POPC   C3A59921  26.027  39.245   7.064
 4683POPC   C4A59922  26.007  39.202   7.364
 4683POPC   C1B59923  26.134  39.518   6.464
 4683POPC   C2B59924  26.058  39.512   6.764
 4683POPC   C3B59925  26.059  39.428   7.064
 4683POPC   C4B59926  26.131  39.518   7.364
 4684POPC   NC359927   5.105   3.522   5.564
 4684POPC   PO459928   5.124   3.543   5.864
 4684POPC   GL159929   5.081   3.515   6.164
 4684POPC   GL259930   5.151   3.606   6.164
 4684POPC   C1A59931   5.081   3.587   6.464
 4684POPC   D2A59932   5.142   3.575   6.764
 4684POPC   C3A59933   5.080   3.554   7.064
 4684POPC   C4A59934   5.097   3.524   7.364
 4684POPC   C1B59935   5.285   3.767   6.464
 4684POPC   C2B59936   5.293   3.679   6.764
 4684POPC   C3B59937   5.287   3.700   7.064
 4684POPC   C4B59938   5.250   3.720   7.364
 4685POPC   NC359939  24.455  14.418   5.564
 4685POPC   PO459940  24.513  14.399   5.864
 4685POPC   GL159941  24.523  14.372   6.164
 4685POPC   GL259942  24.468  14.264   6.164
 4685POPC   C1A59943  24.522  14.402   6.464
 4685POPC   D2A59944  24.447  14.369   6.764
 4685POPC   C3A59945  24.522  14.386   7.064
 4685POPC   C4A59946  24.442  14.423   7.364
 4685POPC   C1B59947  24.405  14.176   6.464
 4685POPC   C2B59948  24.435  14.159   6.764
 4685POPC   C3B59949  24.433  14.159   7.064
 4685POPC   C4B59950  24.384  14.205   7.364
 4686POPC   NC359951   7.420   5.863   5.564
 4686POPC   PO459952   7.423   5.866   5.864
 4686POPC   GL159953   7.375   5.913   6.164
 4686POPC   GL259954   7.410   5.714   6.164
 4686POPC   C1A59955   7.462   5.889   6.464
 4686POPC   D2A59956   7.416   5.833   6.764
 4686POPC   C3A59957   7.420   5.897   7.064
 4686POPC   C4A59958   7.426   5.840   7.364
 4686POPC   C1B59959   7.413   5.645   6.464
 4686POPC   C2B59960   7.384   5.616   6.764
 4686POPC   C3B59961   7.392   5.602   7.064
 4686POPC   C4B59962   7.400   5.626   7.364
 4687POPC   NC359963   5.875  12.876   5.564
 4687POPC   PO459964   5.907  12.880   5.864
 4687POPC   GL159965   5.906  12.850   6.164
 4687POPC   GL259966   5.756  12.760   6.164
 4687POPC   C1A59967   5.908  12.840   6.464
 4687POPC   D2A59968   5.910  12.816   6.764
 4687POPC   C3A59969   5.883  12.802   7.064
 4687POPC   C4A59970   5.843  12.833   7.364
 4687POPC   C1B59971   5.667  12.637   6.464
 4687POPC   C2B59972   5.724  12.710   6.764
 4687POPC   C3B59973   5.743  12.671   7.064
 4687POPC   C4B59974   5.726  12.629   7.364
 4688POPC   NC359975  43.854  16.768   5.564
 4688POPC   PO459976  43.895  16.695   5.864
 4688POPC   GL159977  43.888  16.767   6.164
 4688POPC   GL259978  44.008  16.700   6.164
 4688POPC   C1A59979  43.867  16.717   6.464
 4688POPC   D2A59980  43.885  16.761   6.764
 4688POPC   C3A59981  43.870  16.701   7.064
 4688POPC   C4A59982  43.901  16.724   7.364
 4688POPC   C1B59983  44.101  16.739   6.464
 4688POPC   C2B59984  44.115  16.720   6.764
 4688POPC   C3B59985  44.133  16.697   7.064
 4688POPC   C4B59986  44.160  16.705   7.364
 4689POPC   NC359987  19.835  39.264   5.564
 4689POPC   PO459988  19.876  39.236   5.864
 4689POPC   GL159989  19.867  39.261   6.164
 4689POPC   GL259990  19.769  39.257   6.164
 4689POPC   C1A59991  19.808  39.215   6.464
 4689POPC   D2A59992  19.789  39.240   6.764
 4689POPC   C3A59993  19.792  39.232   7.064
 4689POPC   C4A59994  19.881  39.242   7.364
 4689POPC   C1B59995  19.631  39.319   6.464
 4689POPC   C2B59996  19.598  39.326   6.764
 4689POPC   C3B59997  19.600  39.304   7.064
 4689POPC   C4B59998  19.595  39.360   7.364
 4690POPC   NC359999  38.470  40.811   5.564
 4690POPC   PO460000  38.488  40.821   5.864
 4690POPC   GL160001  38.482  40.786   6.164
 4690POPC   GL260002  38.582  40.738   6.164
 4690POPC   C1A60003  38.443  40.782   6.464
 4690POPC   D2A60004  38.476  40.812   6.764
 4690POPC   C3A60005  38.424  40.734   7.064
 4690POPC   C4A60006  38.430  40.810   7.364
 4690POPC   C1B60007  38.625  40.630   6.464
 4690POPC   C2B60008  38.655  40.634   6.764
 4690POPC   C3B60009  38.587  40.583   7.064
 4690POPC   C4B60010  38.625  40.572   7.364
 4691POPC   NC360011  15.225  32.230   5.564
 4691POPC   PO460012  15.131  32.253   5.864
 4691POPC   GL160013  15.180  32.260   6.164
 4691POPC   GL260014  15.255  32.371   6.164
 4691POPC   C1A60015  15.171  32.225   6.464
 4691POPC   D2A60016  15.183  32.277   6.764
 4691POPC   C3A60017  15.171  32.281   7.064
 4691POPC   C4A60018  15.194  32.261   7.364
 4691POPC   C1B60019  15.331  32.382   6.464
 4691POPC   C2B60020  15.335  32.401   6.764
 4691POPC   C3B60021  15.344  32.385   7.064
 4691POPC   C4B60022  15.346  32.441   7.364
 4692POPC   NC360023  25.238  14.424   5.564
 4692POPC   PO460024  25.241  14.391   5.864
 4692POPC   GL160025  25.263  14.441   6.164
 4692POPC   GL260026  25.157  14.473   6.164
 4692POPC   C1A60027  25.297  14.375   6.464
 4692POPC   D2A60028  25.308  14.393   6.764
 4692POPC   C3A60029  25.246  14.437   7.064
 4692POPC   C4A60030  25.276  14.414   7.364
 4692POPC   C1B60031  24.976  14.511   6.464
 4692POPC   C2B60032  24.974  14.424   6.764
 4692POPC   C3B60033  24.998  14.493   7.064
 4692POPC   C4B60034  25.066  14.485   7.364
 4693POPC   NC360035   5.128  38.432   5.564
 4693POPC   PO460036   5.064  38.485   5.864
 4693POPC   GL160037   5.092  38.407   6.164
 4693POPC   GL260038   5.105  38.527   6.164
 4693POPC   C1A60039   5.073  38.496   6.464
 4693POPC   D2A60040   5.101  38.483   6.764
 4693POPC   C3A60041   5.073  38.426   7.064
 4693POPC   C4A60042   5.050  38.426   7.364
 4693POPC   C1B60043   5.209  38.638   6.464
 4693POPC   C2B60044   5.240  38.654   6.764
 4693POPC   C3B60045   5.148  38.655   7.064
 4693POPC   C4B60046   5.237  38.659   7.364
 4694POPC   NC360047   2.791   8.227   5.564
 4694POPC   PO460048   2.812   8.186   5.864
 4694POPC   GL160049   2.731   8.219   6.164
 4694POPC   GL260050   2.660   8.242   6.164
 4694POPC   C1A60051   2.802   8.211   6.464
 4694POPC   D2A60052   2.807   8.163   6.764
 4694POPC   C3A60053   2.804   8.223   7.064
 4694POPC   C4A60054   2.757   8.174   7.364
 4694POPC   C1B60055   2.511   8.245   6.464
 4694POPC   C2B60056   2.563   8.177   6.764
 4694POPC   C3B60057   2.489   8.249   7.064
 4694POPC   C4B60058   2.548   8.197   7.364
 4695POPC   NC360059  36.144   8.210   5.564
 4695POPC   PO460060  36.139   8.216   5.864
 4695POPC   GL160061  36.108   8.240   6.164
 4695POPC   GL260062  36.288   8.137   6.164
 4695POPC   C1A60063  36.163   8.174   6.464
 4695POPC   D2A60064  36.078   8.216   6.764
 4695POPC   C3A60065  36.125   8.218   7.064
 4695POPC   C4A60066  36.122   8.202   7.364
 4695POPC   C1B60067  36.323   8.153   6.464
 4695POPC   C2B60068  36.377   8.085   6.764
 4695POPC   C3B60069  36.354   8.153   7.064
 4695POPC   C4B60070  36.384   8.067   7.364
 4696POPC   NC360071  12.901  13.631   5.564
 4696POPC   PO460072  12.847  13.676   5.864
 4696POPC   GL160073  12.825  13.622   6.164
 4696POPC   GL260074  12.917  13.468   6.164
 4696POPC   C1A60075  12.846  13.665   6.464
 4696POPC   D2A60076  12.881  13.668   6.764
 4696POPC   C3A60077  12.811  13.605   7.064
 4696POPC   C4A60078  12.875  13.617   7.364
 4696POPC   C1B60079  12.924  13.336   6.464
 4696POPC   C2B60080  12.866  13.372   6.764
 4696POPC   C3B60081  12.865  13.366   7.064
 4696POPC   C4B60082  12.884  13.359   7.364
 4697POPC   NC360083  32.264  20.577   5.564
 4697POPC   PO460084  32.266  20.630   5.864
 4697POPC   GL160085  32.260  20.570   6.164
 4697POPC   GL260086  32.336  20.716   6.164
 4697POPC   C1A60087  32.295  20.648   6.464
 4697POPC   D2A60088  32.292  20.628   6.764
 4697POPC   C3A60089  32.298  20.617   7.064
 4697POPC   C4A60090  32.224  20.635   7.364
 4697POPC   C1B60091  32.378  20.871   6.464
 4697POPC   C2B60092  32.356  20.866   6.764
 4697POPC   C3B60093  32.357  20.790   7.064
 4697POPC   C4B60094  32.355  20.811   7.364
 4698POPC   NC360095   9.713  12.122   5.564
 4698POPC   PO460096   9.777  12.082   5.864
 4698POPC   GL160097   9.795  12.119   6.164
 4698POPC   GL260098   9.574  12.114   6.164
 4698POPC   C1A60099   9.793  12.097   6.464
 4698POPC   D2A60100   9.740  12.073   6.764
 4698POPC   C3A60101   9.743  12.040   7.064
 4698POPC   C4A60102   9.715  12.109   7.364
 4698POPC   C1B60103   9.473  12.053   6.464
 4698POPC   C2B60104   9.514  12.094   6.764
 4698POPC   C3B60105   9.506  12.116   7.064
 4698POPC   C4B60106   9.490  12.123   7.364
 4699POPC   NC360107  13.656  30.724   5.564
 4699POPC   PO460108  13.598  30.682   5.864
 4699POPC   GL160109  13.663  30.739   6.164
 4699POPC   GL260110  13.474  30.691   6.164
 4699POPC   C1A60111  13.666  30.651   6.464
 4699POPC   D2A60112  13.668  30.671   6.764
 4699POPC   C3A60113  13.645  30.661   7.064
 4699POPC   C4A60114  13.644  30.682   7.364
 4699POPC   C1B60115  13.425  30.826   6.464
 4699POPC   C2B60116  13.352  30.767   6.764
 4699POPC   C3B60117  13.386  30.739   7.064
 4699POPC   C4B60118  13.405  30.748   7.364
 4700POPC   NC360119   8.991   3.562   5.564
 4700POPC   PO460120   8.930   3.519   5.864
 4700POPC   GL160121   8.954   3.539   6.164
 4700POPC   GL260122   8.875   3.517   6.164
 4700POPC   C1A60123   9.015   3.519   6.464
 4700POPC   D2A60124   8.994   3.589   6.764
 4700POPC   C3A60125   8.975   3.557   7.064
 4700POPC   C4A60126   9.020   3.578   7.364
 4700POPC   C1B60127   8.688   3.422   6.464
 4700POPC   C2B60128   8.711   3.456   6.764
 4700POPC   C3B60129   8.746   3.493   7.064
 4700POPC   C4B60130   8.735   3.420   7.364
 4701POPC   NC360131  35.303  20.645   5.564
 4701POPC   PO460132  35.369  20.659   5.864
 4701POPC   GL160133  35.394  20.644   6.164
 4701POPC   GL260134  35.219  20.705   6.164
 4701POPC   C1A60135  35.391  20.566   6.464
 4701POPC   D2A60136  35.342  20.642   6.764
 4701POPC   C3A60137  35.352  20.605   7.064
 4701POPC   C4A60138  35.361  20.625   7.364
 4701POPC   C1B60139  35.115  20.774   6.464
 4701POPC   C2B60140  35.175  20.715   6.764
 4701POPC   C3B60141  35.167  20.771   7.064
 4701POPC   C4B60142  35.107  20.737   7.364
 4702POPC   NC360143  35.344   3.580   5.564
 4702POPC   PO460144  35.364   3.504   5.864
 4702POPC   GL160145  35.313   3.525   6.164
 4702POPC   GL260146  35.458   3.570   6.164
 4702POPC   C1A60147  35.359   3.550   6.464
 4702POPC   D2A60148  35.371   3.503   6.764
 4702POPC   C3A60149  35.338   3.586   7.064
 4702POPC   C4A60150  35.336   3.542   7.364
 4702POPC   C1B60151  35.582   3.553   6.464
 4702POPC   C2B60152  35.642   3.497   6.764
 4702POPC   C3B60153  35.607   3.495   7.064
 4702POPC   C4B60154  35.565   3.546   7.364
 4703POPC   NC360155   9.768   5.115   5.564
 4703POPC   PO460156   9.788   5.142   5.864
 4703POPC   GL160157   9.699   5.136   6.164
 4703POPC   GL260158   9.678   5.013   6.164
 4703POPC   C1A60159   9.747   5.058   6.464
 4703POPC   D2A60160   9.702   5.127   6.764
 4703POPC   C3A60161   9.717   5.142   7.064
 4703POPC   C4A60162   9.706   5.118   7.364
 4703POPC   C1B60163   9.535   5.058   6.464
 4703POPC   C2B60164   9.477   4.980   6.764
 4703POPC   C3B60165   9.471   5.049   7.064
 4703POPC   C4B60166   9.518   4.972   7.364
 4704POPC   NC360167   4.280   0.471   5.564
 4704POPC   PO460168   4.279   0.418   5.864
 4704POPC   GL160169   4.350   0.420   6.164
 4704POPC   GL260170   4.369   0.530   6.164
 4704POPC   C1A60171   4.343   0.434   6.464
 4704POPC   D2A60172   4.323   0.451   6.764
 4704POPC   C3A60173   4.270   0.479   7.064
 4704POPC   C4A60174   4.313   0.450   7.364
 4704POPC   C1B60175   4.441   0.713   6.464
 4704POPC   C2B60176   4.397   0.710   6.764
 4704POPC   C3B60177   4.373   0.702   7.064
 4704POPC   C4B60178   4.367   0.691   7.364
 4705POPC   NC360179  23.679  12.835   5.564
 4705POPC   PO460180  23.693  12.868   5.864
 4705POPC   GL160181  23.760  12.890   6.164
 4705POPC   GL260182  23.763  12.972   6.164
 4705POPC   C1A60183  23.708  12.833   6.464
 4705POPC   D2A60184  23.715  12.858   6.764
 4705POPC   C3A60185  23.704  12.901   7.064
 4705POPC   C4A60186  23.692  12.893   7.364
 4705POPC   C1B60187  23.924  12.995   6.464
 4705POPC   C2B60188  23.859  12.994   6.764
 4705POPC   C3B60189  23.926  13.039   7.064
 4705POPC   C4B60190  23.925  13.048   7.364
 4706POPC   NC360191   1.230   4.331   5.564
 4706POPC   PO460192   1.243   4.297   5.864
 4706POPC   GL160193   1.175   4.331   6.164
 4706POPC   GL260194   1.168   4.431   6.164
 4706POPC   C1A60195   1.253   4.306   6.464
 4706POPC   D2A60196   1.228   4.345   6.764
 4706POPC   C3A60197   1.180   4.276   7.064
 4706POPC   C4A60198   1.223   4.297   7.364
 4706POPC   C1B60199   1.171   4.578   6.464
 4706POPC   C2B60200   1.121   4.540   6.764
 4706POPC   C3B60201   1.137   4.523   7.064
 4706POPC   C4B60202   1.177   4.569   7.364
 4707POPC   NC360203  32.291  28.384   5.564
 4707POPC   PO460204  32.262  28.393   5.864
 4707POPC   GL160205  32.231  28.337   6.164
 4707POPC   GL260206  32.412  28.370   6.164
 4707POPC   C1A60207  32.270  28.360   6.464
 4707POPC   D2A60208  32.206  28.340   6.764
 4707POPC   C3A60209  32.222  28.343   7.064
 4707POPC   C4A60210  32.260  28.416   7.364
 4707POPC   C1B60211  32.519  28.291   6.464
 4707POPC   C2B60212  32.511  28.278   6.764
 4707POPC   C3B60213  32.503  28.275   7.064
 4707POPC   C4B60214  32.462  28.340   7.364
 4708POPC   NC360215  29.144  13.608   5.564
 4708POPC   PO460216  29.146  13.592   5.864
 4708POPC   GL160217  29.140  13.578   6.164
 4708POPC   GL260218  29.270  13.584   6.164
 4708POPC   C1A60219  29.177  13.590   6.464
 4708POPC   D2A60220  29.191  13.656   6.764
 4708POPC   C3A60221  29.182  13.620   7.064
 4708POPC   C4A60222  29.105  13.608   7.364
 4708POPC   C1B60223  29.336  13.505   6.464
 4708POPC   C2B60224  29.402  13.510   6.764
 4708POPC   C3B60225  29.327  13.507   7.064
 4708POPC   C4B60226  29.386  13.520   7.364
 4709POPC   NC360227  12.866  25.242   5.564
 4709POPC   PO460228  12.868  25.250   5.864
 4709POPC   GL160229  12.830  25.242   6.164
 4709POPC   GL260230  12.798  25.428   6.164
 4709POPC   C1A60231  12.814  25.232   6.464
 4709POPC   D2A60232  12.812  25.248   6.764
 4709POPC   C3A60233  12.849  25.308   7.064
 4709POPC   C4A60234  12.866  25.238   7.364
 4709POPC   C1B60235  12.718  25.495   6.464
 4709POPC   C2B60236  12.718  25.498   6.764
 4709POPC   C3B60237  12.802  25.491   7.064
 4709POPC   C4B60238  12.731  25.515   7.364
 4710POPC   NC360239  14.387  27.592   5.564
 4710POPC   PO460240  14.438  27.577   5.864
 4710POPC   GL160241  14.363  27.642   6.164
 4710POPC   GL260242  14.426  27.441   6.164
 4710POPC   C1A60243  14.391  27.627   6.464
 4710POPC   D2A60244  14.421  27.622   6.764
 4710POPC   C3A60245  14.383  27.560   7.064
 4710POPC   C4A60246  14.403  27.548   7.364
 4710POPC   C1B60247  14.469  27.335   6.464
 4710POPC   C2B60248  14.506  27.351   6.764
 4710POPC   C3B60249  14.546  27.356   7.064
 4710POPC   C4B60250  14.489  27.347   7.364
 4711POPC   NC360251  44.641  36.872   5.564
 4711POPC   PO460252  44.619  36.886   5.864
 4711POPC   GL160253  44.695  36.925   6.164
 4711POPC   GL260254  44.797  36.916   6.164
 4711POPC   C1A60255  44.682  36.877   6.464
 4711POPC   D2A60256  44.616  36.861   6.764
 4711POPC   C3A60257  44.667  36.922   7.064
 4711POPC   C4A60258  44.639  36.891   7.364
 4711POPC   C1B60259  44.895  36.798   6.464
 4711POPC   C2B60260  44.950  36.861   6.764
 4711POPC   C3B60261  44.936  36.795   7.064
 4711POPC   C4B60262  44.925  36.812   7.364
 4712POPC   NC360263   1.255  32.248   5.564
 4712POPC   PO460264   1.171  32.249   5.864
 4712POPC   GL160265   1.229  32.237   6.164
 4712POPC   GL260266   1.277  32.266   6.164
 4712POPC   C1A60267   1.176  32.285   6.464
 4712POPC   D2A60268   1.204  32.224   6.764
 4712POPC   C3A60269   1.236  32.219   7.064
 4712POPC   C4A60270   1.228  32.291   7.364
 4712POPC   C1B60271   1.394  32.420   6.464
 4712POPC   C2B60272   1.406  32.410   6.764
 4712POPC   C3B60273   1.415  32.379   7.064
 4712POPC   C4B60274   1.436  32.417   7.364
 4713POPC   NC360275   3.585  35.304   5.564
 4713POPC   PO460276   3.510  35.319   5.864
 4713POPC   GL160277   3.533  35.305   6.164
 4713POPC   GL260278   3.486  35.184   6.164
 4713POPC   C1A60279   3.568  35.390   6.464
 4713POPC   D2A60280   3.545  35.370   6.764
 4713POPC   C3A60281   3.581  35.365   7.064
 4713POPC   C4A60282   3.546  35.399   7.364
 4713POPC   C1B60283   3.505  35.134   6.464
 4713POPC   C2B60284   3.464  35.131   6.764
 4713POPC   C3B60285   3.468  35.078   7.064
 4713POPC   C4B60286   3.510  35.142   7.364
 4714POPC   NC360287  13.660   5.103   5.564
 4714POPC   PO460288  13.632   5.089   5.864
 4714POPC   GL160289  13.586   5.064   6.164
 4714POPC   GL260290  13.571   4.952   6.164
 4714POPC   C1A60291  13.647   5.105   6.464
 4714POPC   D2A60292  13.619   5.130   6.764
 4714POPC   C3A60293  13.674   5.085   7.064
 4714POPC   C4A60294  13.635   5.067   7.364
 4714POPC   C1B60295  13.515   4.902   6.464
 4714POPC   C2B60296  13.505   4.863   6.764
 4714POPC   C3B60297  13.511   4.943   7.064
 4714POPC   C4B60298  13.491   4.938   7.364
 4715POPC   NC360299  43.094  19.031   5.564
 4715POPC   PO460300  43.107  19.107   5.864
 4715POPC   GL160301  43.107  19.079   6.164
 4715POPC   GL260302  43.058  18.907   6.164
 4715POPC   C1A60303  43.153  19.097   6.464
 4715POPC   D2A60304  43.067  19.026   6.764
 4715POPC   C3A60305  43.155  19.070   7.064
 4715POPC   C4A60306  43.118  19.057   7.364
 4715POPC   C1B60307  42.989  18.801   6.464
 4715POPC   C2B60308  43.051  18.795   6.764
 4715POPC   C3B60309  43.038  18.796   7.064
 4715POPC   C4B60310  43.044  18.829   7.364
 4716POPC   NC360311  32.280   5.825   5.564
 4716POPC   PO460312  32.228   5.876   5.864
 4716POPC   GL160313  32.286   5.887   6.164
 4716POPC   GL260314  32.362   5.849   6.164
 4716POPC   C1A60315  32.232   5.894   6.464
 4716POPC   D2A60316  32.267   5.856   6.764
 4716POPC   C3A60317  32.292   5.836   7.064
 4716POPC   C4A60318  32.225   5.858   7.364
 4716POPC   C1B60319  32.511   5.822   6.464
 4716POPC   C2B60320  32.497   5.783   6.764
 4716POPC   C3B60321  32.459   5.791   7.064
 4716POPC   C4B60322  32.446   5.849   7.364
 4717POPC   NC360323  38.449  14.438   5.564
 4717POPC   PO460324  38.466  14.384   5.864
 4717POPC   GL160325  38.480  14.391   6.164
 4717POPC   GL260326  38.374  14.439   6.164
 4717POPC   C1A60327  38.477  14.412   6.464
 4717POPC   D2A60328  38.446  14.359   6.764
 4717POPC   C3A60329  38.428  14.422   7.064
 4717POPC   C4A60330  38.484  14.435   7.364
 4717POPC   C1B60331  38.307  14.569   6.464
 4717POPC   C2B60332  38.296  14.549   6.764
 4717POPC   C3B60333  38.243  14.594   7.064
 4717POPC   C4B60334  38.249  14.598   7.364
 4718POPC   NC360335  20.590  36.880   5.564
 4718POPC   PO460336  20.633  36.918   5.864
 4718POPC   GL160337  20.631  36.948   6.164
 4718POPC   GL260338  20.585  36.988   6.164
 4718POPC   C1A60339  20.591  36.934   6.464
 4718POPC   D2A60340  20.638  36.898   6.764
 4718POPC   C3A60341  20.624  36.875   7.064
 4718POPC   C4A60342  20.568  36.876   7.364
 4718POPC   C1B60343  20.491  37.084   6.464
 4718POPC   C2B60344  20.514  37.104   6.764
 4718POPC   C3B60345  20.555  37.098   7.064
 4718POPC   C4B60346  20.499  37.122   7.364
 4719POPC   NC360347  29.918  29.130   5.564
 4719POPC   PO460348  29.873  29.185   5.864
 4719POPC   GL160349  29.924  29.186   6.164
 4719POPC   GL260350  29.875  29.295   6.164
 4719POPC   C1A60351  29.903  29.113   6.464
 4719POPC   D2A60352  29.882  29.151   6.764
 4719POPC   C3A60353  29.941  29.170   7.064
 4719POPC   C4A60354  29.952  29.175   7.364
 4719POPC   C1B60355  29.913  29.407   6.464
 4719POPC   C2B60356  29.920  29.436   6.764
 4719POPC   C3B60357  29.860  29.387   7.064
 4719POPC   C4B60358  29.909  29.394   7.364
 4720POPC   NC360359  20.633  25.227   5.564
 4720POPC   PO460360  20.651  25.245   5.864
 4720POPC   GL160361  20.575  25.247   6.164
 4720POPC   GL260362  20.570  25.384   6.164
 4720POPC   C1A60363  20.635  25.269   6.464
 4720POPC   D2A60364  20.636  25.252   6.764
 4720POPC   C3A60365  20.607  25.229   7.064
 4720POPC   C4A60366  20.580  25.259   7.364
 4720POPC   C1B60367  20.499  25.519   6.464
 4720POPC   C2B60368  20.497  25.483   6.764
 4720POPC   C3B60369  20.466  25.464   7.064
 4720POPC   C4B60370  20.499  25.532   7.364
 4721POPC   NC360371   8.222  41.583   5.564
 4721POPC   PO460372   8.152  41.523   5.864
 4721POPC   GL160373   8.205  41.541   6.164
 4721POPC   GL260374   8.292  41.674   6.164
 4721POPC   C1A60375   8.235  41.549   6.464
 4721POPC   D2A60376   8.187  41.584   6.764
 4721POPC   C3A60377   8.161  41.578   7.064
 4721POPC   C4A60378   8.180  41.592   7.364
 4721POPC   C1B60379   8.411  41.725   6.464
 4721POPC   C2B60380   8.424  41.682   6.764
 4721POPC   C3B60381   8.356  41.653   7.064
 4721POPC   C4B60382   8.393  41.729   7.364
 4722POPC   NC360383  11.341   5.070   5.564
 4722POPC   PO460384  11.293   5.134   5.864
 4722POPC   GL160385  11.343   5.066   6.164
 4722POPC   GL260386  11.473   5.086   6.164
 4722POPC   C1A60387  11.251   5.111   6.464
 4722POPC   D2A60388  11.319   5.136   6.764
 4722POPC   C3A60389  11.263   5.077   7.064
 4722POPC   C4A60390  11.320   5.059   7.364
 4722POPC   C1B60391  11.596   5.151   6.464
 4722POPC   C2B60392  11.541   5.181   6.764
 4722POPC   C3B60393  11.532   5.112   7.064
 4722POPC   C4B60394  11.552   5.092   7.364
 4723POPC   NC360395  22.128  17.510   5.564
 4723POPC   PO460396  22.149  17.469   5.864
 4723POPC   GL160397  22.136  17.554   6.164
 4723POPC   GL260398  22.033  17.637   6.164
 4723POPC   C1A60399  22.168  17.476   6.464
 4723POPC   D2A60400  22.198  17.486   6.764
 4723POPC   C3A60401  22.154  17.537   7.064
 4723POPC   C4A60402  22.125  17.473   7.364
 4723POPC   C1B60403  21.927  17.670   6.464
 4723POPC   C2B60404  21.981  17.706   6.764
 4723POPC   C3B60405  21.940  17.709   7.064
 4723POPC   C4B60406  21.984  17.636   7.364
 4724POPC   NC360407  28.347  40.827   5.564
 4724POPC   PO460408  28.336  40.823   5.864
 4724POPC   GL160409  28.396  40.773   6.164
 4724POPC   GL260410  28.454  40.826   6.164
 4724POPC   C1A60411  28.370  40.769   6.464
 4724POPC   D2A60412  28.392  40.767   6.764
 4724POPC   C3A60413  28.340  40.759   7.064
 4724POPC   C4A60414  28.390  40.765   7.364
 4724POPC   C1B60415  28.635  40.829   6.464
 4724POPC   C2B60416  28.605  40.827   6.764
 4724POPC   C3B60417  28.657  40.907   7.064
 4724POPC   C4B60418  28.597  40.859   7.364
 4725POPC   NC360419  22.922   5.137   5.564
 4725POPC   PO460420  22.898   5.112   5.864
 4725POPC   GL160421  22.934   5.127   6.164
 4725POPC   GL260422  23.026   4.999   6.164
 4725POPC   C1A60423  22.902   5.094   6.464
 4725POPC   D2A60424  22.977   5.062   6.764
 4725POPC   C3A60425  22.967   5.071   7.064
 4725POPC   C4A60426  22.925   5.090   7.364
 4725POPC   C1B60427  23.142   4.974   6.464
 4725POPC   C2B60428  23.151   4.934   6.764
 4725POPC   C3B60429  23.120   4.958   7.064
 4725POPC   C4B60430  23.138   4.969   7.364
 4726POPC   NC360431  21.367  33.839   5.564
 4726POPC   PO460432  21.362  33.773   5.864
 4726POPC   GL160433  21.434  33.832   6.164
 4726POPC   GL260434  21.392  33.875   6.164
 4726POPC   C1A60435  21.426  33.762   6.464
 4726POPC   D2A60436  21.418  33.817   6.764
 4726POPC   C3A60437  21.381  33.811   7.064
 4726POPC   C4A60438  21.412  33.758   7.364
 4726POPC   C1B60439  21.343  34.057   6.464
 4726POPC   C2B60440  21.350  34.051   6.764
 4726POPC   C3B60441  21.269  34.085   7.064
 4726POPC   C4B60442  21.302  34.086   7.364
 4727POPC   NC360443  19.874  12.035   5.564
 4727POPC   PO460444  19.791  12.030   5.864
 4727POPC   GL160445  19.852  12.044   6.164
 4727POPC   GL260446  19.748  12.170   6.164
 4727POPC   C1A60447  19.867  12.033   6.464
 4727POPC   D2A60448  19.812  12.043   6.764
 4727POPC   C3A60449  19.819  12.078   7.064
 4727POPC   C4A60450  19.834  12.056   7.364
 4727POPC   C1B60451  19.621  12.225   6.464
 4727POPC   C2B60452  19.576  12.226   6.764
 4727POPC   C3B60453  19.618  12.239   7.064
 4727POPC   C4B60454  19.604  12.192   7.364
 4728POPC   NC360455  34.593  13.597   5.564
 4728POPC   PO460456  34.597  13.616   5.864
 4728POPC   GL160457  34.597  13.639   6.164
 4728POPC   GL260458  34.624  13.724   6.164
 4728POPC   C1A60459  34.592  13.655   6.464
 4728POPC   D2A60460  34.617  13.662   6.764
 4728POPC   C3A60461  34.536  13.669   7.064
 4728POPC   C4A60462  34.527  13.616   7.364
 4728POPC   C1B60463  34.725  13.899   6.464
 4728POPC   C2B60464  34.714  13.840   6.764
 4728POPC   C3B60465  34.639  13.802   7.064
 4728POPC   C4B60466  34.736  13.866   7.364
 4729POPC   NC360467  28.382   2.787   5.564
 4729POPC   PO460468  28.336   2.800   5.864
 4729POPC   GL160469  28.383   2.723   6.164
 4729POPC   GL260470  28.442   2.680   6.164
 4729POPC   C1A60471  28.407   2.727   6.464
 4729POPC   D2A60472  28.414   2.749   6.764
 4729POPC   C3A60473  28.325   2.747   7.064
 4729POPC   C4A60474  28.374   2.728   7.364
 4729POPC   C1B60475  28.449   2.516   6.464
 4729POPC   C2B60476  28.464   2.552   6.764
 4729POPC   C3B60477  28.488   2.496   7.064
 4729POPC   C4B60478  28.435   2.573   7.364
 4730POPC   NC360479  44.706  26.081   5.564
 4730POPC   PO460480  44.694  26.062   5.864
 4730POPC   GL160481  44.696  26.038   6.164
 4730POPC   GL260482  44.632  25.926   6.164
 4730POPC   C1A60483  44.678  26.044   6.464
 4730POPC   D2A60484  44.697  26.024   6.764
 4730POPC   C3A60485  44.642  26.035   7.064
 4730POPC   C4A60486  44.615  26.074   7.364
 4730POPC   C1B60487  44.505  25.775   6.464
 4730POPC   C2B60488  44.491  25.784   6.764
 4730POPC   C3B60489  44.555  25.793   7.064
 4730POPC   C4B60490  44.553  25.824   7.364
 4731POPC   NC360491   8.182   1.175   5.564
 4731POPC   PO460492   8.223   1.167   5.864
 4731POPC   GL160493   8.199   1.221   6.164
 4731POPC   GL260494   8.230   1.055   6.164
 4731POPC   C1A60495   8.151   1.169   6.464
 4731POPC   D2A60496   8.148   1.206   6.764
 4731POPC   C3A60497   8.167   1.175   7.064
 4731POPC   C4A60498   8.211   1.186   7.364
 4731POPC   C1B60499   8.228   0.962   6.464
 4731POPC   C2B60500   8.228   1.009   6.764
 4731POPC   C3B60501   8.251   0.920   7.064
 4731POPC   C4B60502   8.204   0.949   7.364
 4732POPC   NC360503  43.160  34.563   5.564
 4732POPC   PO460504  43.061  34.563   5.864
 4732POPC   GL160505  43.073  34.615   6.164
 4732POPC   GL260506  43.186  34.502   6.164
 4732POPC   C1A60507  43.070  34.619   6.464
 4732POPC   D2A60508  43.151  34.578   6.764
 4732POPC   C3A60509  43.063  34.595   7.064
 4732POPC   C4A60510  43.125  34.566   7.364
 4732POPC   C1B60511  43.288  34.473   6.464
 4732POPC   C2B60512  43.314  34.454   6.764
 4732POPC   C3B60513  43.355  34.446   7.064
 4732POPC   C4B60514  43.307  34.498   7.364
 4733POPC   NC360515   2.803   2.039   5.564
 4733POPC   PO460516   2.720   1.956   5.864
 4733POPC   GL160517   2.813   1.983   6.164
 4733POPC   GL260518   2.665   1.972   6.164
 4733POPC   C1A60519   2.755   1.958   6.464
 4733POPC   D2A60520   2.800   2.024   6.764
 4733POPC   C3A60521   2.724   1.980   7.064
 4733POPC   C4A60522   2.812   1.988   7.364
 4733POPC   C1B60523   2.557   1.871   6.464
 4733POPC   C2B60524   2.586   1.936   6.764
 4733POPC   C3B60525   2.489   1.888   7.064
 4733POPC   C4B60526   2.525   1.925   7.364
 4734POPC   NC360527  24.489   2.016   5.564
 4734POPC   PO460528  24.474   2.007   5.864
 4734POPC   GL160529  24.486   1.975   6.164
 4734POPC   GL260530  24.392   1.953   6.164
 4734POPC   C1A60531  24.533   1.995   6.464
 4734POPC   D2A60532  24.453   2.036   6.764
 4734POPC   C3A60533  24.511   2.027   7.064
 4734POPC   C4A60534  24.497   1.963   7.364
 4734POPC   C1B60535  24.226   1.908   6.464
 4734POPC   C2B60536  24.311   1.869   6.764
 4734POPC   C3B60537  24.275   1.837   7.064
 4734POPC   C4B60538  24.316   1.888   7.364
 4735POPC   NC360539   5.863  28.369   5.564
 4735POPC   PO460540   5.845  28.360   5.864
 4735POPC   GL160541   5.853  28.329   6.164
 4735POPC   GL260542   5.791  28.291   6.164
 4735POPC   C1A60543   5.866  28.362   6.464
 4735POPC   D2A60544   5.914  28.416   6.764
 4735POPC   C3A60545   5.898  28.328   7.064
 4735POPC   C4A60546   5.913  28.331   7.364
 4735POPC   C1B60547   5.764  28.159   6.464
 4735POPC   C2B60548   5.675  28.126   6.764
 4735POPC   C3B60549   5.730  28.127   7.064
 4735POPC   C4B60550   5.692  28.183   7.364
 4736POPC   NC360551  22.893  26.087   5.564
 4736POPC   PO460552  22.966  26.089   5.864
 4736POPC   GL160553  22.903  26.025   6.164
 4736POPC   GL260554  23.023  26.030   6.164
 4736POPC   C1A60555  22.941  26.006   6.464
 4736POPC   D2A60556  22.914  26.010   6.764
 4736POPC   C3A60557  22.953  26.074   7.064
 4736POPC   C4A60558  22.915  26.019   7.364
 4736POPC   C1B60559  23.137  25.977   6.464
 4736POPC   C2B60560  23.186  26.008   6.764
 4736POPC   C3B60561  23.156  25.987   7.064
 4736POPC   C4B60562  23.222  25.995   7.364
 4737POPC   NC360563  13.594  26.071   5.564
 4737POPC   PO460564  13.625  26.065   5.864
 4737POPC   GL160565  13.667  26.019   6.164
 4737POPC   GL260566  13.636  26.209   6.164
 4737POPC   C1A60567  13.595  26.001   6.464
 4737POPC   D2A60568  13.625  26.057   6.764
 4737POPC   C3A60569  13.605  26.052   7.064
 4737POPC   C4A60570  13.674  26.029   7.364
 4737POPC   C1B60571  13.624  26.322   6.464
 4737POPC   C2B60572  13.566  26.271   6.764
 4737POPC   C3B60573  13.572  26.317   7.064
 4737POPC   C4B60574  13.608  26.280   7.364
 4738POPC   NC360575   7.428  33.028   5.564
 4738POPC   PO460576   7.394  33.068   5.864
 4738POPC   GL160577   7.413  33.067   6.164
 4738POPC   GL260578   7.427  32.922   6.164
 4738POPC   C1A60579   7.434  33.046   6.464
 4738POPC   D2A60580   7.428  33.010   6.764
 4738POPC   C3A60581   7.448  33.069   7.064
 4738POPC   C4A60582   7.437  33.053   7.364
 4738POPC   C1B60583   7.396  32.774   6.464
 4738POPC   C2B60584   7.342  32.810   6.764
 4738POPC   C3B60585   7.377  32.763   7.064
 4738POPC   C4B60586   7.384  32.810   7.364
 4739POPC   NC360587  10.526  26.838   5.564
 4739POPC   PO460588  10.528  26.851   5.864
 4739POPC   GL160589  10.499  26.810   6.164
 4739POPC   GL260590  10.507  26.703   6.164
 4739POPC   C1A60591  10.572  26.779   6.464
 4739POPC   D2A60592  10.489  26.824   6.764
 4739POPC   C3A60593  10.552  26.801   7.064
 4739POPC   C4A60594  10.520  26.804   7.364
 4739POPC   C1B60595  10.381  26.566   6.464
 4739POPC   C2B60596  10.397  26.584   6.764
 4739POPC   C3B60597  10.364  26.589   7.064
 4739POPC   C4B60598  10.381  26.553   7.364
 4740POPC   NC360599  41.525  22.986   5.564
 4740POPC   PO460600  41.531  22.985   5.864
 4740POPC   GL160601  41.603  22.985   6.164
 4740POPC   GL260602  41.672  23.031   6.164
 4740POPC   C1A60603  41.515  22.964   6.464
 4740POPC   D2A60604  41.519  22.978   6.764
 4740POPC   C3A60605  41.541  22.954   7.064
 4740POPC   C4A60606  41.530  22.961   7.364
 4740POPC   C1B60607  41.773  23.082   6.464
 4740POPC   C2B60608  41.765  23.063   6.764
 4740POPC   C3B60609  41.742  23.039   7.064
 4740POPC   C4B60610  41.766  23.078   7.364
 4741POPC   NC360611  29.130  35.346   5.564
 4741POPC   PO460612  29.134  35.316   5.864
 4741POPC   GL160613  29.135  35.386   6.164
 4741POPC   GL260614  29.180  35.240   6.164
 4741POPC   C1A60615  29.104  35.352   6.464
 4741POPC   D2A60616  29.097  35.381   6.764
 4741POPC   C3A60617  29.130  35.329   7.064
 4741POPC   C4A60618  29.181  35.310   7.364
 4741POPC   C1B60619  29.117  35.061   6.464
 4741POPC   C2B60620  29.154  35.116   6.764
 4741POPC   C3B60621  29.132  35.060   7.064
 4741POPC   C4B60622  29.103  35.107   7.364
 4742POPC   NC360623  34.612  25.312   5.564
 4742POPC   PO460624  34.561  25.266   5.864
 4742POPC   GL160625  34.617  25.255   6.164
 4742POPC   GL260626  34.694  25.236   6.164
 4742POPC   C1A60627  34.610  25.223   6.464
 4742POPC   D2A60628  34.625  25.242   6.764
 4742POPC   C3A60629  34.616  25.288   7.064
 4742POPC   C4A60630  34.592  25.233   7.364
 4742POPC   C1B60631  34.800  25.213   6.464
 4742POPC   C2B60632  34.853  25.128   6.764
 4742POPC   C3B60633  34.779  25.209   7.064
 4742POPC   C4B60634  34.834  25.162   7.364
 4743POPC   NC360635  39.250  34.559   5.564
 4743POPC   PO460636  39.231  34.618   5.864
 4743POPC   GL160637  39.220  34.541   6.164
 4743POPC   GL260638  39.274  34.632   6.164
 4743POPC   C1A60639  39.277  34.602   6.464
 4743POPC   D2A60640  39.244  34.591   6.764
 4743POPC   C3A60641  39.261  34.539   7.064
 4743POPC   C4A60642  39.241  34.555   7.364
 4743POPC   C1B60643  39.423  34.816   6.464
 4743POPC   C2B60644  39.359  34.759   6.764
 4743POPC   C3B60645  39.427  34.789   7.064
 4743POPC   C4B60646  39.378  34.765   7.364
 4744POPC   NC360647  30.701   3.494   5.564
 4744POPC   PO460648  30.721   3.580   5.864
 4744POPC   GL160649  30.693   3.573   6.164
 4744POPC   GL260650  30.725   3.681   6.164
 4744POPC   C1A60651  30.707   3.556   6.464
 4744POPC   D2A60652  30.657   3.517   6.764
 4744POPC   C3A60653  30.674   3.583   7.064
 4744POPC   C4A60654  30.698   3.554   7.364
 4744POPC   C1B60655  30.817   3.742   6.464
 4744POPC   C2B60656  30.812   3.714   6.764
 4744POPC   C3B60657  30.843   3.788   7.064
 4744POPC   C4B60658  30.798   3.763   7.364
 4745POPC   NC360659  36.078  35.331   5.564
 4745POPC   PO460660  36.102  35.386   5.864
 4745POPC   GL160661  36.108  35.344   6.164
 4745POPC   GL260662  36.120  35.506   6.164
 4745POPC   C1A60663  36.106  35.387   6.464
 4745POPC   D2A60664  36.113  35.337   6.764
 4745POPC   C3A60665  36.089  35.327   7.064
 4745POPC   C4A60666  36.130  35.374   7.364
 4745POPC   C1B60667  36.040  35.602   6.464
 4745POPC   C2B60668  36.062  35.606   6.764
 4745POPC   C3B60669  36.065  35.626   7.064
 4745POPC   C4B60670  36.059  35.603   7.364
 4746POPC   NC360671  19.060  15.971   5.564
 4746POPC   PO460672  19.018  15.934   5.864
 4746POPC   GL160673  19.094  15.962   6.164
 4746POPC   GL260674  18.969  16.053   6.164
 4746POPC   C1A60675  19.073  16.000   6.464
 4746POPC   D2A60676  19.052  15.928   6.764
 4746POPC   C3A60677  19.101  15.984   7.064
 4746POPC   C4A60678  19.026  15.959   7.364
 4746POPC   C1B60679  18.898  16.170   6.464
 4746POPC   C2B60680  18.862  16.165   6.764
 4746POPC   C3B60681  18.853  16.172   7.064
 4746POPC   C4B60682  18.882  16.087   7.364
 4747POPC   NC360683   7.404   2.806   5.564
 4747POPC   PO460684   7.434   2.778   5.864
 4747POPC   GL160685   7.382   2.774   6.164
 4747POPC   GL260686   7.571   2.758   6.164
 4747POPC   C1A60687   7.412   2.764   6.464
 4747POPC   D2A60688   7.392   2.788   6.764
 4747POPC   C3A60689   7.398   2.792   7.064
 4747POPC   C4A60690   7.404   2.761   7.364
 4747POPC   C1B60691   7.686   2.841   6.464
 4747POPC   C2B60692   7.711   2.795   6.764
 4747POPC   C3B60693   7.682   2.823   7.064
 4747POPC   C4B60694   7.696   2.842   7.364
 4748POPC   NC360695  33.837  29.120   5.564
 4748POPC   PO460696  33.829  29.191   5.864
 4748POPC   GL160697  33.800  29.095   6.164
 4748POPC   GL260698  33.677  29.127   6.164
 4748POPC   C1A60699  33.781  29.129   6.464
 4748POPC   D2A60700  33.835  29.097   6.764
 4748POPC   C3A60701  33.762  29.097   7.064
 4748POPC   C4A60702  33.800  29.178   7.364
 4748POPC   C1B60703  33.510  29.083   6.464
 4748POPC   C2B60704  33.526  29.157   6.764
 4748POPC   C3B60705  33.524  29.102   7.064
 4748POPC   C4B60706  33.565  29.129   7.364
 4749POPC   NC360707  30.719  19.788   5.564
 4749POPC   PO460708  30.682  19.861   5.864
 4749POPC   GL160709  30.726  19.844   6.164
 4749POPC   GL260710  30.663  19.998   6.164
 4749POPC   C1A60711  30.730  19.838   6.464
 4749POPC   D2A60712  30.664  19.861   6.764
 4749POPC   C3A60713  30.648  19.884   7.064
 4749POPC   C4A60714  30.725  19.847   7.364
 4749POPC   C1B60715  30.596  20.110   6.464
 4749POPC   C2B60716  30.619  20.042   6.764
 4749POPC   C3B60717  30.618  20.085   7.064
 4749POPC   C4B60718  30.584  20.113   7.364
 4750POPC   NC360719  18.273  23.746   5.564
 4750POPC   PO460720  18.330  23.683   5.864
 4750POPC   GL160721  18.255  23.738   6.164
 4750POPC   GL260722  18.402  23.723   6.164
 4750POPC   C1A60723  18.251  23.666   6.464
 4750POPC   D2A60724  18.328  23.752   6.764
 4750POPC   C3A60725  18.305  23.727   7.064
 4750POPC   C4A60726  18.248  23.693   7.364
 4750POPC   C1B60727  18.566  23.827   6.464
 4750POPC   C2B60728  18.511  23.749   6.764
 4750POPC   C3B60729  18.506  23.758   7.064
 4750POPC   C4B60730  18.558  23.814   7.364
 4751POPC   NC360731  18.309  20.569   5.564
 4751POPC   PO460732  18.293  20.622   5.864
 4751POPC   GL160733  18.273  20.614   6.164
 4751POPC   GL260734  18.174  20.544   6.164
 4751POPC   C1A60735  18.299  20.636   6.464
 4751POPC   D2A60736  18.288  20.617   6.764
 4751POPC   C3A60737  18.258  20.645   7.064
 4751POPC   C4A60738  18.317  20.597   7.364
 4751POPC   C1B60739  18.149  20.396   6.464
 4751POPC   C2B60740  18.156  20.433   6.764
 4751POPC   C3B60741  18.133  20.433   7.064
 4751POPC   C4B60742  18.066  20.460   7.364
 4752POPC   NC360743  22.202   8.983   5.564
 4752POPC   PO460744  22.132   8.980   5.864
 4752POPC   GL160745  22.114   8.970   6.164
 4752POPC   GL260746  22.249   9.085   6.164
 4752POPC   C1A60747  22.150   9.014   6.464
 4752POPC   D2A60748  22.186   8.936   6.764
 4752POPC   C3A60749  22.177   8.991   7.064
 4752POPC   C4A60750  22.189   8.947   7.364
 4752POPC   C1B60751  22.304   9.229   6.464
 4752POPC   C2B60752  22.266   9.246   6.764
 4752POPC   C3B60753  22.297   9.198   7.064
 4752POPC   C4B60754  22.265   9.172   7.364
 4753POPC   NC360755  11.265  14.382   5.564
 4753POPC   PO460756  11.298  14.412   5.864
 4753POPC   GL160757  11.329  14.422   6.164
 4753POPC   GL260758  11.424  14.300   6.164
 4753POPC   C1A60759  11.310  14.452   6.464
 4753POPC   D2A60760  11.310  14.427   6.764
 4753POPC   C3A60761  11.313  14.374   7.064
 4753POPC   C4A60762  11.255  14.432   7.364
 4753POPC   C1B60763  11.489  14.232   6.464
 4753POPC   C2B60764  11.510  14.225   6.764
 4753POPC   C3B60765  11.517  14.231   7.064
 4753POPC   C4B60766  11.500  14.194   7.364
 4754POPC   NC360767  12.824  41.556   5.564
 4754POPC   PO460768  12.836  41.589   5.864
 4754POPC   GL160769  12.850  41.551   6.164
 4754POPC   GL260770  12.785  41.432   6.164
 4754POPC   C1A60771  12.843  41.565   6.464
 4754POPC   D2A60772  12.843  41.542   6.764
 4754POPC   C3A60773  12.833  41.547   7.064
 4754POPC   C4A60774  12.846  41.548   7.364
 4754POPC   C1B60775  12.773  41.351   6.464
 4754POPC   C2B60776  12.758  41.349   6.764
 4754POPC   C3B60777  12.703  41.293   7.064
 4754POPC   C4B60778  12.740  41.343   7.364
 4755POPC   NC360779  21.366   6.679   5.564
 4755POPC   PO460780  21.420   6.664   5.864
 4755POPC   GL160781  21.346   6.635   6.164
 4755POPC   GL260782  21.263   6.680   6.164
 4755POPC   C1A60783  21.359   6.631   6.464
 4755POPC   D2A60784  21.408   6.640   6.764
 4755POPC   C3A60785  21.406   6.654   7.064
 4755POPC   C4A60786  21.430   6.673   7.364
 4755POPC   C1B60787  21.153   6.773   6.464
 4755POPC   C2B60788  21.218   6.848   6.764
 4755POPC   C3B60789  21.181   6.841   7.064
 4755POPC   C4B60790  21.151   6.816   7.364
 4756POPC   NC360791  40.020   2.745   5.564
 4756POPC   PO460792  39.965   2.735   5.864
 4756POPC   GL160793  40.050   2.717   6.164
 4756POPC   GL260794  40.018   2.914   6.164
 4756POPC   C1A60795  40.016   2.779   6.464
 4756POPC   D2A60796  39.980   2.772   6.764
 4756POPC   C3A60797  40.003   2.731   7.064
 4756POPC   C4A60798  39.960   2.809   7.364
 4756POPC   C1B60799  40.008   2.986   6.464
 4756POPC   C2B60800  39.986   3.033   6.764
 4756POPC   C3B60801  40.016   2.996   7.064
 4756POPC   C4B60802  40.047   2.996   7.364
 4757POPC   NC360803  39.212  12.864   5.564
 4757POPC   PO460804  39.188  12.897   5.864
 4757POPC   GL160805  39.182  12.869   6.164
 4757POPC   GL260806  39.137  12.755   6.164
 4757POPC   C1A60807  39.260  12.871   6.464
 4757POPC   D2A60808  39.226  12.875   6.764
 4757POPC   C3A60809  39.222  12.831   7.064
 4757POPC   C4A60810  39.192  12.884   7.364
 4757POPC   C1B60811  39.165  12.662   6.464
 4757POPC   C2B60812  39.138  12.609   6.764
 4757POPC   C3B60813  39.147  12.677   7.064
 4757POPC   C4B60814  39.135  12.615   7.364
 4758POPC   NC360815  11.330  13.585   5.564
 4758POPC   PO460816  11.277  13.580   5.864
 4758POPC   GL160817  11.348  13.675   6.164
 4758POPC   GL260818  11.218  13.501   6.164
 4758POPC   C1A60819  11.296  13.628   6.464
 4758POPC   D2A60820  11.283  13.605   6.764
 4758POPC   C3A60821  11.268  13.620   7.064
 4758POPC   C4A60822  11.333  13.644   7.364
 4758POPC   C1B60823  11.247  13.352   6.464
 4758POPC   C2B60824  11.179  13.431   6.764
 4758POPC   C3B60825  11.230  13.440   7.064
 4758POPC   C4B60826  11.200  13.354   7.364
 4759POPC   NC360827  29.953  15.221   5.564
 4759POPC   PO460828  29.914  15.195   5.864
 4759POPC   GL160829  29.966  15.196   6.164
 4759POPC   GL260830  29.970  15.301   6.164
 4759POPC   C1A60831  29.930  15.168   6.464
 4759POPC   D2A60832  29.886  15.215   6.764
 4759POPC   C3A60833  29.954  15.185   7.064
 4759POPC   C4A60834  29.883  15.225   7.364
 4759POPC   C1B60835  29.986  15.372   6.464
 4759POPC   C2B60836  30.028  15.444   6.764
 4759POPC   C3B60837  30.043  15.373   7.064
 4759POPC   C4B60838  29.979  15.427   7.364
 4760POPC   NC360839  24.495  35.373   5.564
 4760POPC   PO460840  24.469  35.324   5.864
 4760POPC   GL160841  24.496  35.392   6.164
 4760POPC   GL260842  24.325  35.415   6.164
 4760POPC   C1A60843  24.446  35.303   6.464
 4760POPC   D2A60844  24.495  35.325   6.764
 4760POPC   C3A60845  24.476  35.324   7.064
 4760POPC   C4A60846  24.460  35.340   7.364
 4760POPC   C1B60847  24.277  35.354   6.464
 4760POPC   C2B60848  24.268  35.432   6.764
 4760POPC   C3B60849  24.230  35.417   7.064
 4760POPC   C4B60850  24.279  35.419   7.364
 4761POPC   NC360851  26.852  30.694   5.564
 4761POPC   PO460852  26.797  30.656   5.864
 4761POPC   GL160853  26.856  30.653   6.164
 4761POPC   GL260854  26.699  30.560   6.164
 4761POPC   C1A60855  26.812  30.653   6.464
 4761POPC   D2A60856  26.784  30.670   6.764
 4761POPC   C3A60857  26.795  30.712   7.064
 4761POPC   C4A60858  26.819  30.718   7.364
 4761POPC   C1B60859  26.623  30.518   6.464
 4761POPC   C2B60860  26.642  30.529   6.764
 4761POPC   C3B60861  26.651  30.500   7.064
 4761POPC   C4B60862  26.651  30.540   7.364
 4762POPC   NC360863   2.802  36.175   5.564
 4762POPC   PO460864   2.758  36.142   5.864
 4762POPC   GL160865   2.775  36.165   6.164
 4762POPC   GL260866   2.838  36.238   6.164
 4762POPC   C1A60867   2.789  36.122   6.464
 4762POPC   D2A60868   2.720  36.167   6.764
 4762POPC   C3A60869   2.765  36.174   7.064
 4762POPC   C4A60870   2.761  36.097   7.364
 4762POPC   C1B60871   2.855  36.348   6.464
 4762POPC   C2B60872   2.819  36.364   6.764
 4762POPC   C3B60873   2.837  36.407   7.064
 4762POPC   C4B60874   2.834  36.405   7.364
 4763POPC   NC360875  31.450  31.423   5.564
 4763POPC   PO460876  31.431  31.517   5.864
 4763POPC   GL160877  31.482  31.459   6.164
 4763POPC   GL260878  31.497  31.633   6.164
 4763POPC   C1A60879  31.449  31.514   6.464
 4763POPC   D2A60880  31.502  31.493   6.764
 4763POPC   C3A60881  31.502  31.494   7.064
 4763POPC   C4A60882  31.446  31.449   7.364
 4763POPC   C1B60883  31.444  31.727   6.464
 4763POPC   C2B60884  31.440  31.720   6.764
 4763POPC   C3B60885  31.411  31.693   7.064
 4763POPC   C4B60886  31.463  31.711   7.364
 4764POPC   NC360887  33.763  30.736   5.564
 4764POPC   PO460888  33.812  30.658   5.864
 4764POPC   GL160889  33.821  30.656   6.164
 4764POPC   GL260890  33.826  30.617   6.164
 4764POPC   C1A60891  33.817  30.703   6.464
 4764POPC   D2A60892  33.799  30.731   6.764
 4764POPC   C3A60893  33.785  30.652   7.064
 4764POPC   C4A60894  33.823  30.663   7.364
 4764POPC   C1B60895  33.748  30.416   6.464
 4764POPC   C2B60896  33.752  30.400   6.764
 4764POPC   C3B60897  33.727  30.473   7.064
 4764POPC   C4B60898  33.762  30.438   7.364
 4765POPC   NC360899  11.251  20.602   5.564
 4765POPC   PO460900  11.257  20.649   5.864
 4765POPC   GL160901  11.281  20.621   6.164
 4765POPC   GL260902  11.254  20.498   6.164
 4765POPC   C1A60903  11.284  20.604   6.464
 4765POPC   D2A60904  11.261  20.570   6.764
 4765POPC   C3A60905  11.304  20.596   7.064
 4765POPC   C4A60906  11.298  20.561   7.364
 4765POPC   C1B60907  11.166  20.386   6.464
 4765POPC   C2B60908  11.236  20.349   6.764
 4765POPC   C3B60909  11.219  20.375   7.064
 4765POPC   C4B60910  11.161  20.394   7.364
 4766POPC   NC360911  25.263   9.722   5.564
 4766POPC   PO460912  25.216   9.742   5.864
 4766POPC   GL160913  25.251   9.756   6.164
 4766POPC   GL260914  25.258   9.639   6.164
 4766POPC   C1A60915  25.309   9.773   6.464
 4766POPC   D2A60916  25.243   9.734   6.764
 4766POPC   C3A60917  25.232   9.711   7.064
 4766POPC   C4A60918  25.229   9.770   7.364
 4766POPC   C1B60919  25.362   9.463   6.464
 4766POPC   C2B60920  25.333   9.464   6.764
 4766POPC   C3B60921  25.299   9.524   7.064
 4766POPC   C4B60922  25.301   9.543   7.364
 4767POPC   NC360923   5.880  11.307   5.564
 4767POPC   PO460924   5.895  11.326   5.864
 4767POPC   GL160925   5.916  11.308   6.164
 4767POPC   GL260926   5.902  11.142   6.164
 4767POPC   C1A60927   5.865  11.341   6.464
 4767POPC   D2A60928   5.884  11.332   6.764
 4767POPC   C3A60929   5.879  11.323   7.064
 4767POPC   C4A60930   5.881  11.283   7.364
 4767POPC   C1B60931   5.920  11.023   6.464
 4767POPC   C2B60932   5.901  11.072   6.764
 4767POPC   C3B60933   5.850  11.067   7.064
 4767POPC   C4B60934   5.929  11.046   7.364
 4768POPC   NC360935   7.466  29.146   5.564
 4768POPC   PO460936   7.418  29.185   5.864
 4768POPC   GL160937   7.421  29.115   6.164
 4768POPC   GL260938   7.314  29.242   6.164
 4768POPC   C1A60939   7.376  29.155   6.464
 4768POPC   D2A60940   7.449  29.189   6.764
 4768POPC   C3A60941   7.396  29.154   7.064
 4768POPC   C4A60942   7.463  29.179   7.364
 4768POPC   C1B60943   7.200  29.315   6.464
 4768POPC   C2B60944   7.267  29.323   6.764
 4768POPC   C3B60945   7.226  29.287   7.064
 4768POPC   C4B60946   7.257  29.283   7.364
 4769POPC   NC360947  16.734  32.200   5.564
 4769POPC   PO460948  16.681  32.226   5.864
 4769POPC   GL160949  16.707  32.211   6.164
 4769POPC   GL260950  16.825  32.275   6.164
 4769POPC   C1A60951  16.735  32.293   6.464
 4769POPC   D2A60952  16.768  32.255   6.764
 4769POPC   C3A60953  16.777  32.257   7.064
 4769POPC   C4A60954  16.692  32.219   7.364
 4769POPC   C1B60955  16.973  32.331   6.464
 4769POPC   C2B60956  17.010  32.356   6.764
 4769POPC   C3B60957  16.912  32.306   7.064
 4769POPC   C4B60958  16.912  32.336   7.364
 4770POPC   NC360959  28.356  22.975   5.564
 4770POPC   PO460960  28.338  22.975   5.864
 4770POPC   GL160961  28.415  22.953   6.164
 4770POPC   GL260962  28.459  22.887   6.164
 4770POPC   C1A60963  28.375  22.934   6.464
 4770POPC   D2A60964  28.343  22.908   6.764
 4770POPC   C3A60965  28.367  22.933   7.064
 4770POPC   C4A60966  28.410  22.922   7.364
 4770POPC   C1B60967  28.615  22.775   6.464
 4770POPC   C2B60968  28.602  22.790   6.764
 4770POPC   C3B60969  28.593  22.802   7.064
 4770POPC   C4B60970  28.595  22.824   7.364
 4771POPC   NC360971  39.213  14.449   5.564
 4771POPC   PO460972  39.183  14.385   5.864
 4771POPC   GL160973  39.188  14.355   6.164
 4771POPC   GL260974  39.238  14.483   6.164
 4771POPC   C1A60975  39.189  14.450   6.464
 4771POPC   D2A60976  39.221  14.403   6.764
 4771POPC   C3A60977  39.201  14.390   7.064
 4771POPC   C4A60978  39.181  14.381   7.364
 4771POPC   C1B60979  39.305  14.676   6.464
 4771POPC   C2B60980  39.373  14.600   6.764
 4771POPC   C3B60981  39.385  14.671   7.064
 4771POPC   C4B60982  39.375  14.668   7.364
 4772POPC   NC360983  35.387  36.127   5.564
 4772POPC   PO460984  35.362  36.175   5.864
 4772POPC   GL160985  35.359  36.125   6.164
 4772POPC   GL260986  35.445  36.208   6.164
 4772POPC   C1A60987  35.396  36.163   6.464
 4772POPC   D2A60988  35.338  36.163   6.764
 4772POPC   C3A60989  35.344  36.125   7.064
 4772POPC   C4A60990  35.321  36.166   7.364
 4772POPC   C1B60991  35.621  36.248   6.464
 4772POPC   C2B60992  35.620  36.167   6.764
 4772POPC   C3B60993  35.619  36.183   7.064
 4772POPC   C4B60994  35.563  36.200   7.364
 4773POPC   NC360995  29.105  31.442   5.564
 4773POPC   PO460996  29.108  31.456   5.864
 4773POPC   GL160997  29.160  31.497   6.164
 4773POPC   GL260998  29.254  31.603   6.164
 4773POPC   C1A60999  29.161  31.433   6.464
 4773POPC   D2A61000  29.142  31.506   6.764
 4773POPC   C3A61001  29.120  31.483   7.064
 4773POPC   C4A61002  29.151  31.465   7.364
 4773POPC   C1B61003  29.330  31.660   6.464
 4773POPC   C2B61004  29.345  31.612   6.764
 4773POPC   C3B61005  29.306  31.687   7.064
 4773POPC   C4B61006  29.281  31.629   7.364
 4774POPC   NC361007   0.392  27.565   5.564
 4774POPC   PO461008   0.418  27.629   5.864
 4774POPC   GL161009   0.410  27.624   6.164
 4774POPC   GL261010   0.291  27.642   6.164
 4774POPC   C1A61011   0.477  27.610   6.464
 4774POPC   D2A61012   0.403  27.574   6.764
 4774POPC   C3A61013   0.412  27.561   7.064
 4774POPC   C4A61014   0.486  27.577   7.364
 4774POPC   C1B61015   0.146  27.600   6.464
 4774POPC   C2B61016   0.196  27.594   6.764
 4774POPC   C3B61017   0.213  27.672   7.064
 4774POPC   C4B61018   0.185  27.630   7.364
 4775POPC   NC361019  19.877  37.680   5.564
 4775POPC   PO461020  19.830  37.726   5.864
 4775POPC   GL161021  19.878  37.638   6.164
 4775POPC   GL261022  19.870  37.836   6.164
 4775POPC   C1A61023  19.839  37.675   6.464
 4775POPC   D2A61024  19.859  37.687   6.764
 4775POPC   C3A61025  19.827  37.675   7.064
 4775POPC   C4A61026  19.811  37.637   7.364
 4775POPC   C1B61027  19.863  37.967   6.464
 4775POPC   C2B61028  19.956  37.966   6.764
 4775POPC   C3B61029  19.857  37.927   7.064
 4775POPC   C4B61030  19.949  37.872   7.364
 4776POPC   NC361031  12.878   1.955   5.564
 4776POPC   PO461032  12.828   2.013   5.864
 4776POPC   GL161033  12.890   2.026   6.164
 4776POPC   GL261034  12.926   2.001   6.164
 4776POPC   C1A61035  12.837   1.978   6.464
 4776POPC   D2A61036  12.843   1.950   6.764
 4776POPC   C3A61037  12.891   1.970   7.064
 4776POPC   C4A61038  12.881   1.948   7.364
 4776POPC   C1B61039  13.099   2.077   6.464
 4776POPC   C2B61040  13.031   2.141   6.764
 4776POPC   C3B61041  13.111   2.046   7.064
 4776POPC   C4B61042  13.124   2.073   7.364
 4777POPC   NC361043  12.834   9.741   5.564
 4777POPC   PO461044  12.882   9.717   5.864
 4777POPC   GL161045  12.825   9.772   6.164
 4777POPC   GL261046  12.932   9.671   6.164
 4777POPC   C1A61047  12.857   9.705   6.464
 4777POPC   D2A61048  12.867   9.764   6.764
 4777POPC   C3A61049  12.886   9.733   7.064
 4777POPC   C4A61050  12.828   9.749   7.364
 4777POPC   C1B61051  13.075   9.600   6.464
 4777POPC   C2B61052  13.119   9.609   6.764
 4777POPC   C3B61053  13.083   9.622   7.064
 4777POPC   C4B61054  13.088   9.617   7.364
 4778POPC   NC361055   2.797  11.345   5.564
 4778POPC   PO461056   2.717  11.296   5.864
 4778POPC   GL161057   2.772  11.318   6.164
 4778POPC   GL261058   2.775  11.132   6.164
 4778POPC   C1A61059   2.748  11.278   6.464
 4778POPC   D2A61060   2.778  11.298   6.764
 4778POPC   C3A61061   2.729  11.267   7.064
 4778POPC   C4A61062   2.777  11.286   7.364
 4778POPC   C1B61063   2.825  11.098   6.464
 4778POPC   C2B61064   2.761  11.055   6.764
 4778POPC   C3B61065   2.739  11.008   7.064
 4778POPC   C4B61066   2.831  11.095   7.364
 4779POPC   NC361067   8.164  29.096   5.564
 4779POPC   PO461068   8.176  29.106   5.864
 4779POPC   GL161069   8.171  29.192   6.164
 4779POPC   GL261070   8.362  29.145   6.164
 4779POPC   C1A61071   8.150  29.172   6.464
 4779POPC   D2A61072   8.241  29.130   6.764
 4779POPC   C3A61073   8.216  29.182   7.064
 4779POPC   C4A61074   8.199  29.101   7.364
 4779POPC   C1B61075   8.477  29.180   6.464
 4779POPC   C2B61076   8.457  29.200   6.764
 4779POPC   C3B61077   8.407  29.155   7.064
 4779POPC   C4B61078   8.417  29.130   7.364
 4780POPC   NC361079   2.016  39.977   5.564
 4780POPC   PO461080   2.023  39.979   5.864
 4780POPC   GL161081   1.946  39.963   6.164
 4780POPC   GL261082   2.143  39.982   6.164
 4780POPC   C1A61083   1.978  40.055   6.464
 4780POPC   D2A61084   1.947  40.035   6.764
 4780POPC   C3A61085   1.982  39.970   7.064
 4780POPC   C4A61086   1.974  40.009   7.364
 4780POPC   C1B61087   2.285  40.016   6.464
 4780POPC   C2B61088   2.197  39.985   6.764
 4780POPC   C3B61089   2.195  39.935   7.064
 4780POPC   C4B61090   2.188  39.996   7.364
 4781POPC   NC361091  34.621  39.257   5.564
 4781POPC   PO461092  34.577  39.225   5.864
 4781POPC   GL161093  34.553  39.221   6.164
 4781POPC   GL261094  34.697  39.328   6.164
 4781POPC   C1A61095  34.582  39.265   6.464
 4781POPC   D2A61096  34.556  39.203   6.764
 4781POPC   C3A61097  34.552  39.239   7.064
 4781POPC   C4A61098  34.542  39.247   7.364
 4781POPC   C1B61099  34.783  39.373   6.464
 4781POPC   C2B61100  34.824  39.411   6.764
 4781POPC   C3B61101  34.819  39.345   7.064
 4781POPC   C4B61102  34.820  39.393   7.364
 4782POPC   NC361103  27.632  29.161   5.564
 4782POPC   PO461104  27.587  29.193   5.864
 4782POPC   GL161105  27.629  29.130   6.164
 4782POPC   GL261106  27.548  29.032   6.164
 4782POPC   C1A61107  27.551  29.194   6.464
 4782POPC   D2A61108  27.586  29.186   6.764
 4782POPC   C3A61109  27.550  29.187   7.064
 4782POPC   C4A61110  27.556  29.174   7.364
 4782POPC   C1B61111  27.610  28.905   6.464
 4782POPC   C2B61112  27.588  28.845   6.764
 4782POPC   C3B61113  27.618  28.906   7.064
 4782POPC   C4B61114  27.623  28.881   7.364
 4783POPC   NC361115  15.229  33.052   5.564
 4783POPC   PO461116  15.213  33.058   5.864
 4783POPC   GL161117  15.199  33.057   6.164
 4783POPC   GL261118  15.311  32.944   6.164
 4783POPC   C1A61119  15.198  32.998   6.464
 4783POPC   D2A61120  15.173  33.024   6.764
 4783POPC   C3A61121  15.183  33.047   7.064
 4783POPC   C4A61122  15.141  33.024   7.364
 4783POPC   C1B61123  15.347  32.867   6.464
 4783POPC   C2B61124  15.384  32.823   6.764
 4783POPC   C3B61125  15.409  32.849   7.064
 4783POPC   C4B61126  15.378  32.852   7.364
 4784POPC   NC361127  39.258  43.077   5.564
 4784POPC   PO461128  39.198  43.159   5.864
 4784POPC   GL161129  39.244  43.144   6.164
 4784POPC   GL261130  39.063  43.161   6.164
 4784POPC   C1A61131  39.238  43.149   6.464
 4784POPC   D2A61132  39.214  43.136   6.764
 4784POPC   C3A61133  39.217  43.157   7.064
 4784POPC   C4A61134  39.252  43.134   7.364
 4784POPC   C1B61135  39.040  43.177   6.464
 4784POPC   C2B61136  38.957  43.213   6.764
 4784POPC   C3B61137  39.021  43.210   7.064
 4784POPC   C4B61138  39.028  43.194   7.364
 4785POPC   NC361139   7.461  25.287   5.564
 4785POPC   PO461140   7.408  25.283   5.864
 4785POPC   GL161141   7.392  25.280   6.164
 4785POPC   GL261142   7.349  25.198   6.164
 4785POPC   C1A61143   7.411  25.243   6.464
 4785POPC   D2A61144   7.379  25.292   6.764
 4785POPC   C3A61145   7.405  25.262   7.064
 4785POPC   C4A61146   7.412  25.257   7.364
 4785POPC   C1B61147   7.289  24.989   6.464
 4785POPC   C2B61148   7.350  25.006   6.764
 4785POPC   C3B61149   7.348  25.048   7.064
 4785POPC   C4B61150   7.353  25.064   7.364
 4786POPC   NC361151   8.167  42.374   5.564
 4786POPC   PO461152   8.155  42.314   5.864
 4786POPC   GL161153   8.213  42.359   6.164
 4786POPC   GL261154   8.370  42.376   6.164
 4786POPC   C1A61155   8.169  42.381   6.464
 4786POPC   D2A61156   8.184  42.319   6.764
 4786POPC   C3A61157   8.213  42.351   7.064
 4786POPC   C4A61158   8.224  42.335   7.364
 4786POPC   C1B61159   8.421  42.344   6.464
 4786POPC   C2B61160   8.405  42.296   6.764
 4786POPC   C3B61161   8.491  42.289   7.064
 4786POPC   C4B61162   8.451  42.296   7.364
 4787POPC   NC361163  22.967   1.249   5.564
 4787POPC   PO461164  22.951   1.187   5.864
 4787POPC   GL161165  22.981   1.258   6.164
 4787POPC   GL261166  22.798   1.177   6.164
 4787POPC   C1A61167  22.913   1.252   6.464
 4787POPC   D2A61168  22.926   1.165   6.764
 4787POPC   C3A61169  22.901   1.171   7.064
 4787POPC   C4A61170  22.919   1.195   7.364
 4787POPC   C1B61171  22.727   1.157   6.464
 4787POPC   C2B61172  22.740   1.106   6.764
 4787POPC   C3B61173  22.669   1.084   7.064
 4787POPC   C4B61174  22.664   1.150   7.364
 4788POPC   NC361175  40.771  37.684   5.564
 4788POPC   PO461176  40.761  37.636   5.864
 4788POPC   GL161177  40.832  37.718   6.164
 4788POPC   GL261178  40.912  37.595   6.164
 4788POPC   C1A61179  40.776  37.664   6.464
 4788POPC   D2A61180  40.802  37.667   6.764
 4788POPC   C3A61181  40.747  37.634   7.064
 4788POPC   C4A61182  40.761  37.673   7.364
 4788POPC   C1B61183  40.952  37.518   6.464
 4788POPC   C2B61184  41.001  37.484   6.764
 4788POPC   C3B61185  40.958  37.549   7.064
 4788POPC   C4B61186  40.960  37.540   7.364
 4789POPC   NC361187  33.776   7.430   5.564
 4789POPC   PO461188  33.834   7.376   5.864
 4789POPC   GL161189  33.840   7.398   6.164
 4789POPC   GL261190  33.630   7.433   6.164
 4789POPC   C1A61191  33.836   7.405   6.464
 4789POPC   D2A61192  33.774   7.380   6.764
 4789POPC   C3A61193  33.826   7.436   7.064
 4789POPC   C4A61194  33.845   7.422   7.364
 4789POPC   C1B61195  33.588   7.434   6.464
 4789POPC   C2B61196  33.544   7.376   6.764
 4789POPC   C3B61197  33.567   7.412   7.064
 4789POPC   C4B61198  33.599   7.431   7.364
 4790POPC   NC361199  11.265  19.824   5.564
 4790POPC   PO461200  11.346  19.816   5.864
 4790POPC   GL161201  11.252  19.844   6.164
 4790POPC   GL261202  11.393  19.920   6.164
 4790POPC   C1A61203  11.268  19.884   6.464
 4790POPC   D2A61204  11.295  19.797   6.764
 4790POPC   C3A61205  11.310  19.877   7.064
 4790POPC   C4A61206  11.327  19.792   7.364
 4790POPC   C1B61207  11.454  20.041   6.464
 4790POPC   C2B61208  11.382  20.078   6.764
 4790POPC   C3B61209  11.357  20.017   7.064
 4790POPC   C4B61210  11.405  20.064   7.364
 4791POPC   NC361211  37.691  12.858   5.564
 4791POPC   PO461212  37.691  12.866   5.864
 4791POPC   GL161213  37.666  12.860   6.164
 4791POPC   GL261214  37.740  12.755   6.164
 4791POPC   C1A61215  37.632  12.859   6.464
 4791POPC   D2A61216  37.706  12.865   6.764
 4791POPC   C3A61217  37.668  12.895   7.064
 4791POPC   C4A61218  37.722  12.884   7.364
 4791POPC   C1B61219  37.825  12.604   6.464
 4791POPC   C2B61220  37.823  12.664   6.764
 4791POPC   C3B61221  37.810  12.619   7.064
 4791POPC   C4B61222  37.835  12.593   7.364
 4792POPC   NC361223   9.699  11.347   5.564
 4792POPC   PO461224   9.754  11.301   5.864
 4792POPC   GL161225   9.739  11.256   6.164
 4792POPC   GL261226   9.681  11.399   6.164
 4792POPC   C1A61227   9.757  11.251   6.464
 4792POPC   D2A61228   9.741  11.280   6.764
 4792POPC   C3A61229   9.782  11.254   7.064
 4792POPC   C4A61230   9.779  11.278   7.364
 4792POPC   C1B61231   9.635  11.571   6.464
 4792POPC   C2B61232   9.665  11.526   6.764
 4792POPC   C3B61233   9.654  11.556   7.064
 4792POPC   C4B61234   9.677  11.524   7.364
 4793POPC   NC361235  40.768  20.592   5.564
 4793POPC   PO461236  40.776  20.576   5.864
 4793POPC   GL161237  40.796  20.590   6.164
 4793POPC   GL261238  40.942  20.683   6.164
 4793POPC   C1A61239  40.746  20.563   6.464
 4793POPC   D2A61240  40.815  20.592   6.764
 4793POPC   C3A61241  40.784  20.638   7.064
 4793POPC   C4A61242  40.782  20.573   7.364
 4793POPC   C1B61243  41.052  20.769   6.464
 4793POPC   C2B61244  40.998  20.712   6.764
 4793POPC   C3B61245  41.038  20.722   7.064
 4793POPC   C4B61246  41.036  20.691   7.364
 4794POPC   NC361247  21.394   5.844   5.564
 4794POPC   PO461248  21.359   5.875   5.864
 4794POPC   GL161249  21.380   5.871   6.164
 4794POPC   GL261250  21.301   5.729   6.164
 4794POPC   C1A61251  21.339   5.858   6.464
 4794POPC   D2A61252  21.425   5.897   6.764
 4794POPC   C3A61253  21.369   5.864   7.064
 4794POPC   C4A61254  21.387   5.879   7.364
 4794POPC   C1B61255  21.225   5.656   6.464
 4794POPC   C2B61256  21.245   5.698   6.764
 4794POPC   C3B61257  21.305   5.629   7.064
 4794POPC   C4B61258  21.279   5.614   7.364
 4795POPC   NC361259   8.212  18.264   5.564
 4795POPC   PO461260   8.173  18.324   5.864
 4795POPC   GL161261   8.237  18.322   6.164
 4795POPC   GL261262   8.333  18.337   6.164
 4795POPC   C1A61263   8.240  18.293   6.464
 4795POPC   D2A61264   8.212  18.308   6.764
 4795POPC   C3A61265   8.205  18.298   7.064
 4795POPC   C4A61266   8.160  18.301   7.364
 4795POPC   C1B61267   8.429  18.440   6.464
 4795POPC   C2B61268   8.451  18.434   6.764
 4795POPC   C3B61269   8.407  18.360   7.064
 4795POPC   C4B61270   8.460  18.354   7.364
 4796POPC   NC361271  21.429  39.262   5.564
 4796POPC   PO461272  21.421  39.263   5.864
 4796POPC   GL161273  21.379  39.265   6.164
 4796POPC   GL261274  21.468  39.166   6.164
 4796POPC   C1A61275  21.434  39.184   6.464
 4796POPC   D2A61276  21.363  39.275   6.764
 4796POPC   C3A61277  21.376  39.232   7.064
 4796POPC   C4A61278  21.340  39.199   7.364
 4796POPC   C1B61279  21.584  39.194   6.464
 4796POPC   C2B61280  21.606  39.178   6.764
 4796POPC   C3B61281  21.603  39.128   7.064
 4796POPC   C4B61282  21.586  39.220   7.364
 4797POPC   NC361283  43.911  14.401   5.564
 4797POPC   PO461284  43.847  14.381   5.864
 4797POPC   GL161285  43.907  14.374   6.164
 4797POPC   GL261286  43.853  14.568   6.164
 4797POPC   C1A61287  43.860  14.428   6.464
 4797POPC   D2A61288  43.884  14.413   6.764
 4797POPC   C3A61289  43.861  14.452   7.064
 4797POPC   C4A61290  43.934  14.441   7.364
 4797POPC   C1B61291  43.896  14.627   6.464
 4797POPC   C2B61292  43.902  14.684   6.764
 4797POPC   C3B61293  43.883  14.610   7.064
 4797POPC   C4B61294  43.916  14.663   7.364
 4798POPC   NC361295   3.525  15.211   5.564
 4798POPC   PO461296   3.575  15.169   5.864
 4798POPC   GL161297   3.542  15.189   6.164
 4798POPC   GL261298   3.380  15.150   6.164
 4798POPC   C1A61299   3.566  15.225   6.464
 4798POPC   D2A61300   3.530  15.146   6.764
 4798POPC   C3A61301   3.564  15.138   7.064
 4798POPC   C4A61302   3.503  15.210   7.364
 4798POPC   C1B61303   3.293  15.241   6.464
 4798POPC   C2B61304   3.294  15.243   6.764
 4798POPC   C3B61305   3.294  15.170   7.064
 4798POPC   C4B61306   3.302  15.195   7.364
 4799POPC   NC361307  44.696  29.100   5.564
 4799POPC   PO461308  44.659  29.175   5.864
 4799POPC   GL161309  44.678  29.113   6.164
 4799POPC   GL261310  44.681  29.224   6.164
 4799POPC   C1A61311  44.665  29.109   6.464
 4799POPC   D2A61312  44.706  29.160   6.764
 4799POPC   C3A61313  44.705  29.134   7.064
 4799POPC   C4A61314  44.704  29.134   7.364
 4799POPC   C1B61315  44.610  29.376   6.464
 4799POPC   C2B61316  44.611  29.429   6.764
 4799POPC   C3B61317  44.635  29.438   7.064
 4799POPC   C4B61318  44.661  29.390   7.364
 4800POPC   NC361319  33.814  26.003   5.564
 4800POPC   PO461320  33.848  26.013   5.864
 4800POPC   GL161321  33.785  26.053   6.164
 4800POPC   GL261322  33.812  25.929   6.164
 4800POPC   C1A61323  33.836  26.087   6.464
 4800POPC   D2A61324  33.760  26.030   6.764
 4800POPC   C3A61325  33.849  26.014   7.064
 4800POPC   C4A61326  33.847  26.052   7.364
 4800POPC   C1B61327  33.941  25.845   6.464
 4800POPC   C2B61328  33.873  25.848   6.764
 4800POPC   C3B61329  33.906  25.851   7.064
 4800POPC   C4B61330  33.951  25.789   7.364
 4801POPC   NC361331   6.601  21.417   5.564
 4801POPC   PO461332   6.622  21.406   5.864
 4801POPC   GL161333   6.630  21.372   6.164
 4801POPC   GL261334   6.506  21.290   6.164
 4801POPC   C1A61335   6.624  21.405   6.464
 4801POPC   D2A61336   6.672  21.374   6.764
 4801POPC   C3A61337   6.643  21.409   7.064
 4801POPC   C4A61338   6.690  21.397   7.364
 4801POPC   C1B61339   6.425  21.258   6.464
 4801POPC   C2B61340   6.438  21.236   6.764
 4801POPC   C3B61341   6.385  21.294   7.064
 4801POPC   C4B61342   6.389  21.285   7.364
 4802POPC   NC361343  33.034  42.356   5.564
 4802POPC   PO461344  33.001  42.345   5.864
 4802POPC   GL161345  33.038  42.286   6.164
 4802POPC   GL261346  33.023  42.507   6.164
 4802POPC   C1A61347  32.991  42.378   6.464
 4802POPC   D2A61348  33.047  42.329   6.764
 4802POPC   C3A61349  33.033  42.382   7.064
 4802POPC   C4A61350  32.988  42.286   7.364
 4802POPC   C1B61351  33.062  42.545   6.464
 4802POPC   C2B61352  33.041  42.594   6.764
 4802POPC   C3B61353  33.008  42.555   7.064
 4802POPC   C4B61354  32.983  42.627   7.364
 4803POPC   NC361355   1.197  19.073   5.564
 4803POPC   PO461356   1.224  19.089   5.864
 4803POPC   GL161357   1.193  19.045   6.164
 4803POPC   GL261358   1.181  19.201   6.164
 4803POPC   C1A61359   1.165  19.063   6.464
 4803POPC   D2A61360   1.171  19.054   6.764
 4803POPC   C3A61361   1.176  19.083   7.064
 4803POPC   C4A61362   1.223  19.067   7.364
 4803POPC   C1B61363   1.212  19.295   6.464
 4803POPC   C2B61364   1.249  19.280   6.764
 4803POPC   C3B61365   1.250  19.333   7.064
 4803POPC   C4B61366   1.162  19.311   7.364
 4804POPC   NC361367  15.912  33.791   5.564
 4804POPC   PO461368  15.934  33.779   5.864
 4804POPC   GL161369  15.987  33.787   6.164
 4804POPC   GL261370  15.914  33.641   6.164
 4804POPC   C1A61371  15.914  33.787   6.464
 4804POPC   D2A61372  15.915  33.775   6.764
 4804POPC   C3A61373  15.976  33.830   7.064
 4804POPC   C4A61374  15.918  33.850   7.364
 4804POPC   C1B61375  15.922  33.534   6.464
 4804POPC   C2B61376  15.923  33.513   6.764
 4804POPC   C3B61377  15.923  33.501   7.064
 4804POPC   C4B61378  15.959  33.585   7.364
 4805POPC   NC361379  34.557  36.123   5.564
 4805POPC   PO461380  34.586  36.096   5.864
 4805POPC   GL161381  34.614  36.169   6.164
 4805POPC   GL261382  34.656  36.046   6.164
 4805POPC   C1A61383  34.533  36.133   6.464
 4805POPC   D2A61384  34.534  36.098   6.764
 4805POPC   C3A61385  34.539  36.153   7.064
 4805POPC   C4A61386  34.551  36.079   7.364
 4805POPC   C1B61387  34.770  35.958   6.464
 4805POPC   C2B61388  34.844  36.027   6.764
 4805POPC   C3B61389  34.754  36.005   7.064
 4805POPC   C4B61390  34.765  35.995   7.364
 4806POPC   NC361391  32.224  24.452   5.564
 4806POPC   PO461392  32.232  24.459   5.864
 4806POPC   GL161393  32.275  24.517   6.164
 4806POPC   GL261394  32.340  24.503   6.164
 4806POPC   C1A61395  32.259  24.443   6.464
 4806POPC   D2A61396  32.261  24.532   6.764
 4806POPC   C3A61397  32.269  24.465   7.064
 4806POPC   C4A61398  32.223  24.443   7.364
 4806POPC   C1B61399  32.512  24.399   6.464
 4806POPC   C2B61400  32.498  24.469   6.764
 4806POPC   C3B61401  32.484  24.421   7.064
 4806POPC   C4B61402  32.493  24.428   7.364
 4807POPC   NC361403  36.864   0.465   5.564
 4807POPC   PO461404  36.899   0.486   5.864
 4807POPC   GL161405  36.897   0.390   6.164
 4807POPC   GL261406  36.762   0.485   6.164
 4807POPC   C1A61407  36.881   0.397   6.464
 4807POPC   D2A61408  36.935   0.437   6.764
 4807POPC   C3A61409  36.903   0.439   7.064
 4807POPC   C4A61410  36.903   0.427   7.364
 4807POPC   C1B61411  36.615   0.508   6.464
 4807POPC   C2B61412  36.708   0.515   6.764
 4807POPC   C3B61413  36.674   0.535   7.064
 4807POPC   C4B61414  36.690   0.456   7.364
 4808POPC   NC361415  36.924  39.959   5.564
 4808POPC   PO461416  36.927  40.039   5.864
 4808POPC   GL161417  36.891  40.048   6.164
 4808POPC   GL261418  37.014  40.120   6.164
 4808POPC   C1A61419  36.896  40.003   6.464
 4808POPC   D2A61420  36.877  39.975   6.764
 4808POPC   C3A61421  36.899  39.958   7.064
 4808POPC   C4A61422  36.872  40.025   7.364
 4808POPC   C1B61423  37.115  40.193   6.464
 4808POPC   C2B61424  37.057  40.164   6.764
 4808POPC   C3B61425  37.098  40.135   7.064
 4808POPC   C4B61426  37.132  40.194   7.364
 4809POPC   NC361427  27.577  27.623   5.564
 4809POPC   PO461428  27.586  27.588   5.864
 4809POPC   GL161429  27.605  27.581   6.164
 4809POPC   GL261430  27.713  27.526   6.164
 4809POPC   C1A61431  27.552  27.635   6.464
 4809POPC   D2A61432  27.575  27.612   6.764
 4809POPC   C3A61433  27.550  27.606   7.064
 4809POPC   C4A61434  27.581  27.575   7.364
 4809POPC   C1B61435  27.766  27.452   6.464
 4809POPC   C2B61436  27.801  27.426   6.764
 4809POPC   C3B61437  27.811  27.485   7.064
 4809POPC   C4B61438  27.782  27.510   7.364
 4810POPC   NC361439   8.218  33.050   5.564
 4810POPC   PO461440   8.151  33.030   5.864
 4810POPC   GL161441   8.206  32.992   6.164
 4810POPC   GL261442   8.239  33.175   6.164
 4810POPC   C1A61443   8.159  32.994   6.464
 4810POPC   D2A61444   8.242  33.047   6.764
 4810POPC   C3A61445   8.229  33.023   7.064
 4810POPC   C4A61446   8.173  33.006   7.364
 4810POPC   C1B61447   8.297  33.281   6.464
 4810POPC   C2B61448   8.307  33.209   6.764
 4810POPC   C3B61449   8.278  33.265   7.064
 4810POPC   C4B61450   8.313  33.219   7.364
 4811POPC   NC361451  37.672  14.428   5.564
 4811POPC   PO461452  37.722  14.388   5.864
 4811POPC   GL161453  37.726  14.356   6.164
 4811POPC   GL261454  37.604  14.455   6.164
 4811POPC   C1A61455  37.636  14.363   6.464
 4811POPC   D2A61456  37.631  14.412   6.764
 4811POPC   C3A61457  37.689  14.376   7.064
 4811POPC   C4A61458  37.706  14.450   7.364
 4811POPC   C1B61459  37.540  14.614   6.464
 4811POPC   C2B61460  37.450  14.599   6.764
 4811POPC   C3B61461  37.507  14.567   7.064
 4811POPC   C4B61462  37.462  14.587   7.364
 4812POPC   NC361463  43.892  38.420   5.564
 4812POPC   PO461464  43.886  38.487   5.864
 4812POPC   GL161465  43.858  38.454   6.164
 4812POPC   GL261466  44.059  38.450   6.164
 4812POPC   C1A61467  43.860  38.502   6.464
 4812POPC   D2A61468  43.842  38.469   6.764
 4812POPC   C3A61469  43.889  38.504   7.064
 4812POPC   C4A61470  43.907  38.501   7.364
 4812POPC   C1B61471  44.112  38.396   6.464
 4812POPC   C2B61472  44.104  38.485   6.764
 4812POPC   C3B61473  44.180  38.468   7.064
 4812POPC   C4B61474  44.124  38.483   7.364
 4813POPC   NC361475  15.990   8.994   5.564
 4813POPC   PO461476  15.973   9.016   5.864
 4813POPC   GL161477  15.913   9.021   6.164
 4813POPC   GL261478  16.002   9.116   6.164
 4813POPC   C1A61479  15.978   8.953   6.464
 4813POPC   D2A61480  15.940   8.928   6.764
 4813POPC   C3A61481  15.925   8.985   7.064
 4813POPC   C4A61482  15.940   8.962   7.364
 4813POPC   C1B61483  16.026   9.221   6.464
 4813POPC   C2B61484  16.019   9.216   6.764
 4813POPC   C3B61485  16.033   9.248   7.064
 4813POPC   C4B61486  16.085   9.213   7.364
 4814POPC   NC361487  29.190  10.548   5.564
 4814POPC   PO461488  29.183  10.547   5.864
 4814POPC   GL161489  29.112  10.563   6.164
 4814POPC   GL261490  29.059  10.457   6.164
 4814POPC   C1A61491  29.169  10.518   6.464
 4814POPC   D2A61492  29.111  10.542   6.764
 4814POPC   C3A61493  29.170  10.502   7.064
 4814POPC   C4A61494  29.134  10.547   7.364
 4814POPC   C1B61495  28.944  10.338   6.464
 4814POPC   C2B61496  28.929  10.321   6.764
 4814POPC   C3B61497  28.949  10.398   7.064
 4814POPC   C4B61498  29.002  10.366   7.364
 4815POPC   NC361499  40.762  22.152   5.564
 4815POPC   PO461500  40.746  22.177   5.864
 4815POPC   GL161501  40.778  22.142   6.164
 4815POPC   GL261502  40.863  22.185   6.164
 4815POPC   C1A61503  40.809  22.115   6.464
 4815POPC   D2A61504  40.767  22.148   6.764
 4815POPC   C3A61505  40.809  22.211   7.064
 4815POPC   C4A61506  40.810  22.134   7.364
 4815POPC   C1B61507  40.970  22.259   6.464
 4815POPC   C2B61508  41.018  22.319   6.764
 4815POPC   C3B61509  41.021  22.306   7.064
 4815POPC   C4B61510  40.998  22.282   7.364
 4816POPC   NC361511  12.875  22.161   5.564
 4816POPC   PO461512  12.898  22.152   5.864
 4816POPC   GL161513  12.898  22.192   6.164
 4816POPC   GL261514  12.764  22.026   6.164
 4816POPC   C1A61515  12.834  22.136   6.464
 4816POPC   D2A61516  12.896  22.149   6.764
 4816POPC   C3A61517  12.829  22.128   7.064
 4816POPC   C4A61518  12.893  22.210   7.364
 4816POPC   C1B61519  12.662  21.946   6.464
 4816POPC   C2B61520  12.668  21.959   6.764
 4816POPC   C3B61521  12.727  21.997   7.064
 4816POPC   C4B61522  12.662  21.992   7.364
 4817POPC   NC361523  22.202   8.148   5.564
 4817POPC   PO461524  22.177   8.149   5.864
 4817POPC   GL161525  22.212   8.164   6.164
 4817POPC   GL261526  22.292   8.075   6.164
 4817POPC   C1A61527  22.146   8.237   6.464
 4817POPC   D2A61528  22.188   8.216   6.764
 4817POPC   C3A61529  22.142   8.186   7.064
 4817POPC   C4A61530  22.151   8.214   7.364
 4817POPC   C1B61531  22.312   8.044   6.464
 4817POPC   C2B61532  22.374   8.025   6.764
 4817POPC   C3B61533  22.324   7.993   7.064
 4817POPC   C4B61534  22.377   8.021   7.364
 4818POPC   NC361535   4.282  17.475   5.564
 4818POPC   PO461536   4.272  17.488   5.864
 4818POPC   GL161537   4.308  17.519   6.164
 4818POPC   GL261538   4.422  17.610   6.164
 4818POPC   C1A61539   4.308  17.496   6.464
 4818POPC   D2A61540   4.300  17.513   6.764
 4818POPC   C3A61541   4.321  17.464   7.064
 4818POPC   C4A61542   4.334  17.504   7.364
 4818POPC   C1B61543   4.489  17.654   6.464
 4818POPC   C2B61544   4.477  17.652   6.764
 4818POPC   C3B61545   4.510  17.670   7.064
 4818POPC   C4B61546   4.490  17.665   7.364
 4819POPC   NC361547   2.802  22.146   5.564
 4819POPC   PO461548   2.750  22.141   5.864
 4819POPC   GL161549   2.790  22.112   6.164
 4819POPC   GL261550   2.823  22.210   6.164
 4819POPC   C1A61551   2.772  22.142   6.464
 4819POPC   D2A61552   2.767  22.113   6.764
 4819POPC   C3A61553   2.789  22.160   7.064
 4819POPC   C4A61554   2.737  22.150   7.364
 4819POPC   C1B61555   2.933  22.251   6.464
 4819POPC   C2B61556   2.935  22.327   6.764
 4819POPC   C3B61557   2.997  22.285   7.064
 4819POPC   C4B61558   3.015  22.307   7.364
 4820POPC   NC361559  26.067  20.648   5.564
 4820POPC   PO461560  26.080  20.592   5.864
 4820POPC   GL161561  25.996  20.569   6.164
 4820POPC   GL261562  25.985  20.714   6.164
 4820POPC   C1A61563  26.049  20.580   6.464
 4820POPC   D2A61564  26.059  20.639   6.764
 4820POPC   C3A61565  26.080  20.608   7.064
 4820POPC   C4A61566  26.087  20.635   7.364
 4820POPC   C1B61567  25.868  20.721   6.464
 4820POPC   C2B61568  25.866  20.710   6.764
 4820POPC   C3B61569  25.801  20.805   7.064
 4820POPC   C4B61570  25.833  20.707   7.364
 4821POPC   NC361571  21.349  43.915   5.564
 4821POPC   PO461572  21.385  43.929   5.864
 4821POPC   GL161573  21.357  43.868   6.164
 4821POPC   GL261574  21.325  44.056   6.164
 4821POPC   C1A61575  21.422  43.936   6.464
 4821POPC   D2A61576  21.365  43.932   6.764
 4821POPC   C3A61577  21.338  43.866   7.064
 4821POPC   C4A61578  21.406  43.890   7.364
 4821POPC   C1B61579  21.293  44.137   6.464
 4821POPC   C2B61580  21.357  44.107   6.764
 4821POPC   C3B61581  21.378  44.106   7.064
 4821POPC   C4B61582  21.290  44.100   7.364
 4822POPC   NC361583  36.171   1.981   5.564
 4822POPC   PO461584  36.088   1.995   5.864
 4822POPC   GL161585  36.141   2.014   6.164
 4822POPC   GL261586  36.013   2.104   6.164
 4822POPC   C1A61587  36.097   2.024   6.464
 4822POPC   D2A61588  36.099   1.954   6.764
 4822POPC   C3A61589  36.097   2.016   7.064
 4822POPC   C4A61590  36.097   1.947   7.364
 4822POPC   C1B61591  35.932   2.167   6.464
 4822POPC   C2B61592  35.896   2.130   6.764
 4822POPC   C3B61593  35.961   2.190   7.064
 4822POPC   C4B61594  35.964   2.190   7.364
 4823POPC   NC361595  29.892   7.393   5.564
 4823POPC   PO461596  29.967   7.424   5.864
 4823POPC   GL161597  29.912   7.380   6.164
 4823POPC   GL261598  29.975   7.548   6.164
 4823POPC   C1A61599  29.932   7.386   6.464
 4823POPC   D2A61600  29.910   7.444   6.764
 4823POPC   C3A61601  29.941   7.418   7.064
 4823POPC   C4A61602  29.911   7.441   7.364
 4823POPC   C1B61603  30.140   7.565   6.464
 4823POPC   C2B61604  30.100   7.592   6.764
 4823POPC   C3B61605  30.110   7.632   7.064
 4823POPC   C4B61606  30.074   7.622   7.364
 4824POPC   NC361607  26.832  19.861   5.564
 4824POPC   PO461608  26.866  19.872   5.864
 4824POPC   GL161609  26.775  19.818   6.164
 4824POPC   GL261610  26.893  19.785   6.164
 4824POPC   C1A61611  26.803  19.844   6.464
 4824POPC   D2A61612  26.773  19.876   6.764
 4824POPC   C3A61613  26.768  19.794   7.064
 4824POPC   C4A61614  26.774  19.831   7.364
 4824POPC   C1B61615  26.921  19.635   6.464
 4824POPC   C2B61616  26.973  19.599   6.764
 4824POPC   C3B61617  26.934  19.664   7.064
 4824POPC   C4B61618  26.967  19.686   7.364
 4825POPC   NC361619  25.232  18.315   5.564
 4825POPC   PO461620  25.284  18.301   5.864
 4825POPC   GL161621  25.241  18.270   6.164
 4825POPC   GL261622  25.131  18.204   6.164
 4825POPC   C1A61623  25.249  18.237   6.464
 4825POPC   D2A61624  25.314  18.292   6.764
 4825POPC   C3A61625  25.262  18.261   7.064
 4825POPC   C4A61626  25.220  18.278   7.364
 4825POPC   C1B61627  25.002  18.230   6.464
 4825POPC   C2B61628  25.058  18.160   6.764
 4825POPC   C3B61629  25.079  18.234   7.064
 4825POPC   C4B61630  25.044  18.142   7.364
 4826POPC   NC361631  11.292  30.696   5.564
 4826POPC   PO461632  11.279  30.670   5.864
 4826POPC   GL161633  11.347  30.659   6.164
 4826POPC   GL261634  11.388  30.574   6.164
 4826POPC   C1A61635  11.344  30.719   6.464
 4826POPC   D2A61636  11.262  30.722   6.764
 4826POPC   C3A61637  11.347  30.733   7.064
 4826POPC   C4A61638  11.291  30.698   7.364
 4826POPC   C1B61639  11.481  30.558   6.464
 4826POPC   C2B61640  11.509  30.558   6.764
 4826POPC   C3B61641  11.479  30.537   7.064
 4826POPC   C4B61642  11.479  30.506   7.364
 4827POPC   NC361643  25.997  43.931   5.564
 4827POPC   PO461644  26.036  43.862   5.864
 4827POPC   GL161645  26.067  43.845   6.164
 4827POPC   GL261646  25.959  43.826   6.164
 4827POPC   C1A61647  25.993  43.884   6.464
 4827POPC   D2A61648  25.995  43.930   6.764
 4827POPC   C3A61649  26.061  43.935   7.064
 4827POPC   C4A61650  26.047  43.929   7.364
 4827POPC   C1B61651  25.788  43.767   6.464
 4827POPC   C2B61652  25.796  43.747   6.764
 4827POPC   C3B61653  25.769  43.759   7.064
 4827POPC   C4B61654  25.842  43.734   7.364
 4828POPC   NC361655   5.059   8.188   5.564
 4828POPC   PO461656   5.100   8.189   5.864
 4828POPC   GL161657   5.069   8.204   6.164
 4828POPC   GL261658   5.094   8.045   6.164
 4828POPC   C1A61659   5.079   8.173   6.464
 4828POPC   D2A61660   5.062   8.178   6.764
 4828POPC   C3A61661   5.063   8.165   7.064
 4828POPC   C4A61662   5.051   8.166   7.364
 4828POPC   C1B61663   5.042   7.975   6.464
 4828POPC   C2B61664   5.017   7.918   6.764
 4828POPC   C3B61665   5.040   7.954   7.064
 4828POPC   C4B61666   5.019   7.915   7.364
 4829POPC   NC361667  28.373  24.538   5.564
 4829POPC   PO461668  28.417  24.477   5.864
 4829POPC   GL161669  28.319  24.536   6.164
 4829POPC   GL261670  28.350  24.652   6.164
 4829POPC   C1A61671  28.367  24.486   6.464
 4829POPC   D2A61672  28.412  24.513   6.764
 4829POPC   C3A61673  28.390  24.449   7.064
 4829POPC   C4A61674  28.386  24.504   7.364
 4829POPC   C1B61675  28.336  24.706   6.464
 4829POPC   C2B61676  28.380  24.711   6.764
 4829POPC   C3B61677  28.368  24.762   7.064
 4829POPC   C4B61678  28.318  24.778   7.364
 4830POPC   NC361679  44.700   2.739   5.564
 4830POPC   PO461680  44.656   2.729   5.864
 4830POPC   GL161681  44.698   2.801   6.164
 4830POPC   GL261682  44.489   2.739   6.164
 4830POPC   C1A61683  44.646   2.788   6.464
 4830POPC   D2A61684  44.628   2.780   6.764
 4830POPC   C3A61685  44.679   2.745   7.064
 4830POPC   C4A61686  44.702   2.788   7.364
 4830POPC   C1B61687  44.409   2.837   6.464
 4830POPC   C2B61688  44.445   2.827   6.764
 4830POPC   C3B61689  44.456   2.756   7.064
 4830POPC   C4B61690  44.404   2.752   7.364
 4831POPC   NC361691  29.933  33.765   5.564
 4831POPC   PO461692  29.873  33.763   5.864
 4831POPC   GL161693  29.875  33.824   6.164
 4831POPC   GL261694  30.087  33.757   6.164
 4831POPC   C1A61695  29.924  33.757   6.464
 4831POPC   D2A61696  29.970  33.820   6.764
 4831POPC   C3A61697  29.949  33.755   7.064
 4831POPC   C4A61698  29.906  33.801   7.364
 4831POPC   C1B61699  30.153  33.841   6.464
 4831POPC   C2B61700  30.147  33.788   6.764
 4831POPC   C3B61701  30.170  33.795   7.064
 4831POPC   C4B61702  30.141  33.833   7.364
 4832POPC   NC361703  43.863  22.131   5.564
 4832POPC   PO461704  43.846  22.184   5.864
 4832POPC   GL161705  43.912  22.202   6.164
 4832POPC   GL261706  43.787  22.044   6.164
 4832POPC   C1A61707  43.869  22.197   6.464
 4832POPC   D2A61708  43.842  22.121   6.764
 4832POPC   C3A61709  43.930  22.141   7.064
 4832POPC   C4A61710  43.897  22.164   7.364
 4832POPC   C1B61711  43.696  21.938   6.464
 4832POPC   C2B61712  43.718  21.963   6.764
 4832POPC   C3B61713  43.696  21.966   7.064
 4832POPC   C4B61714  43.695  21.961   7.364
 4833POPC   NC361715  10.516  11.265   5.564
 4833POPC   PO461716  10.532  11.315   5.864
 4833POPC   GL161717  10.521  11.254   6.164
 4833POPC   GL261718  10.414  11.244   6.164
 4833POPC   C1A61719  10.485  11.283   6.464
 4833POPC   D2A61720  10.531  11.299   6.764
 4833POPC   C3A61721  10.569  11.342   7.064
 4833POPC   C4A61722  10.508  11.280   7.364
 4833POPC   C1B61723  10.318  11.102   6.464
 4833POPC   C2B61724  10.367  11.102   6.764
 4833POPC   C3B61725  10.381  11.113   7.064
 4833POPC   C4B61726  10.341  11.110   7.364
 4834POPC   NC361727   5.892   1.232   5.564
 4834POPC   PO461728   5.883   1.167   5.864
 4834POPC   GL161729   5.865   1.256   6.164
 4834POPC   GL261730   6.032   1.183   6.164
 4834POPC   C1A61731   5.832   1.229   6.464
 4834POPC   D2A61732   5.836   1.164   6.764
 4834POPC   C3A61733   5.844   1.252   7.064
 4834POPC   C4A61734   5.892   1.234   7.364
 4834POPC   C1B61735   6.157   1.103   6.464
 4834POPC   C2B61736   6.084   1.152   6.764
 4834POPC   C3B61737   6.127   1.178   7.064
 4834POPC   C4B61738   6.072   1.119   7.364
 4835POPC   NC361739  25.252  19.049   5.564
 4835POPC   PO461740  25.272  19.019   5.864
 4835POPC   GL161741  25.295  19.072   6.164
 4835POPC   GL261742  25.187  19.042   6.164
 4835POPC   C1A61743  25.295  19.067   6.464
 4835POPC   D2A61744  25.314  19.039   6.764
 4835POPC   C3A61745  25.303  19.053   7.064
 4835POPC   C4A61746  25.261  19.103   7.364
 4835POPC   C1B61747  25.034  19.093   6.464
 4835POPC   C2B61748  24.981  19.061   6.764
 4835POPC   C3B61749  25.021  19.080   7.064
 4835POPC   C4B61750  25.032  19.110   7.364
 4836POPC   NC361751   5.880  29.149   5.564
 4836POPC   PO461752   5.882  29.098   5.864
 4836POPC   GL161753   5.910  29.149   6.164
 4836POPC   GL261754   5.962  29.066   6.164
 4836POPC   C1A61755   5.838  29.192   6.464
 4836POPC   D2A61756   5.913  29.180   6.764
 4836POPC   C3A61757   5.830  29.142   7.064
 4836POPC   C4A61758   5.901  29.102   7.364
 4836POPC   C1B61759   6.143  29.042   6.464
 4836POPC   C2B61760   6.139  29.089   6.764
 4836POPC   C3B61761   6.093  29.091   7.064
 4836POPC   C4B61762   6.147  29.068   7.364
 4837POPC   NC361763   3.551   5.134   5.564
 4837POPC   PO461764   3.520   5.055   5.864
 4837POPC   GL161765   3.519   5.086   6.164
 4837POPC   GL261766   3.672   5.101   6.164
 4837POPC   C1A61767   3.588   5.111   6.464
 4837POPC   D2A61768   3.549   5.103   6.764
 4837POPC   C3A61769   3.545   5.126   7.064
 4837POPC   C4A61770   3.500   5.064   7.364
 4837POPC   C1B61771   3.791   5.000   6.464
 4837POPC   C2B61772   3.756   5.024   6.764
 4837POPC   C3B61773   3.742   5.038   7.064
 4837POPC   C4B61774   3.815   5.089   7.364
 4838POPC   NC361775  43.130  43.855   5.564
 4838POPC   PO461776  43.141  43.901   5.864
 4838POPC   GL161777  43.081  43.869   6.164
 4838POPC   GL261778  43.047  44.035   6.164
 4838POPC   C1A61779  43.068  43.864   6.464
 4838POPC   D2A61780  43.116  43.895   6.764
 4838POPC   C3A61781  43.099  43.879   7.064
 4838POPC   C4A61782  43.090  43.861   7.364
 4838POPC   C1B61783  42.998  44.115   6.464
 4838POPC   C2B61784  43.075  44.121   6.764
 4838POPC   C3B61785  43.057  44.161   7.064
 4838POPC   C4B61786  43.022  44.106   7.364
 4839POPC   NC361787  44.640  19.808   5.564
 4839POPC   PO461788  44.690  19.793   5.864
 4839POPC   GL161789  44.615  19.843   6.164
 4839POPC   GL261790  44.552  19.807   6.164
 4839POPC   C1A61791  44.695  19.805   6.464
 4839POPC   D2A61792  44.665  19.872   6.764
 4839POPC   C3A61793  44.614  19.823   7.064
 4839POPC   C4A61794  44.697  19.868   7.364
 4839POPC   C1B61795  44.416  19.857   6.464
 4839POPC   C2B61796  44.460  19.784   6.764
 4839POPC   C3B61797  44.446  19.825   7.064
 4839POPC   C4B61798  44.424  19.838   7.364
 4840POPC   NC361799  10.513  12.087   5.564
 4840POPC   PO461800  10.479  12.040   5.864
 4840POPC   GL161801  10.546  12.045   6.164
 4840POPC   GL261802  10.395  12.111   6.164
 4840POPC   C1A61803  10.497  12.112   6.464
 4840POPC   D2A61804  10.558  12.074   6.764
 4840POPC   C3A61805  10.477  12.071   7.064
 4840POPC   C4A61806  10.557  12.075   7.364
 4840POPC   C1B61807  10.352  12.189   6.464
 4840POPC   C2B61808  10.264  12.193   6.764
 4840POPC   C3B61809  10.272  12.172   7.064
 4840POPC   C4B61810  10.319  12.254   7.364
 4841POPC   NC361811  12.902  12.825   5.564
 4841POPC   PO461812  12.811  12.839   5.864
 4841POPC   GL161813  12.857  12.834   6.164
 4841POPC   GL261814  12.740  12.845   6.164
 4841POPC   C1A61815  12.885  12.825   6.464
 4841POPC   D2A61816  12.871  12.819   6.764
 4841POPC   C3A61817  12.848  12.860   7.064
 4841POPC   C4A61818  12.848  12.803   7.364
 4841POPC   C1B61819  12.649  12.892   6.464
 4841POPC   C2B61820  12.582  12.860   6.764
 4841POPC   C3B61821  12.556  12.863   7.064
 4841POPC   C4B61822  12.621  12.889   7.364
 4842POPC   NC361823  13.656  40.047   5.564
 4842POPC   PO461824  13.609  39.957   5.864
 4842POPC   GL161825  13.590  40.000   6.164
 4842POPC   GL261826  13.530  40.130   6.164
 4842POPC   C1A61827  13.582  40.047   6.464
 4842POPC   D2A61828  13.674  40.017   6.764
 4842POPC   C3A61829  13.642  40.013   7.064
 4842POPC   C4A61830  13.615  40.026   7.364
 4842POPC   C1B61831  13.451  40.174   6.464
 4842POPC   C2B61832  13.468  40.192   6.764
 4842POPC   C3B61833  13.471  40.185   7.064
 4842POPC   C4B61834  13.514  40.175   7.364
 4843POPC   NC361835   6.684  19.106   5.564
 4843POPC   PO461836   6.660  19.097   5.864
 4843POPC   GL161837   6.678  19.101   6.164
 4843POPC   GL261838   6.781  19.106   6.164
 4843POPC   C1A61839   6.659  19.083   6.464
 4843POPC   D2A61840   6.660  19.103   6.764
 4843POPC   C3A61841   6.598  19.092   7.064
 4843POPC   C4A61842   6.660  19.071   7.364
 4843POPC   C1B61843   6.864  19.249   6.464
 4843POPC   C2B61844   6.852  19.251   6.764
 4843POPC   C3B61845   6.846  19.196   7.064
 4843POPC   C4B61846   6.797  19.248   7.364
 4844POPC   NC361847   2.723  26.843   5.564
 4844POPC   PO461848   2.770  26.789   5.864
 4844POPC   GL161849   2.761  26.836   6.164
 4844POPC   GL261850   2.690  26.941   6.164
 4844POPC   C1A61851   2.794  26.770   6.464
 4844POPC   D2A61852   2.777  26.783   6.764
 4844POPC   C3A61853   2.794  26.859   7.064
 4844POPC   C4A61854   2.794  26.817   7.364
 4844POPC   C1B61855   2.667  27.047   6.464
 4844POPC   C2B61856   2.608  27.024   6.764
 4844POPC   C3B61857   2.573  27.000   7.064
 4844POPC   C4B61858   2.592  27.016   7.364
 4845POPC   NC361859  33.803   9.005   5.564
 4845POPC   PO461860  33.832   8.936   5.864
 4845POPC   GL161861  33.842   8.926   6.164
 4845POPC   GL261862  33.724   8.944   6.164
 4845POPC   C1A61863  33.821   8.973   6.464
 4845POPC   D2A61864  33.794   8.987   6.764
 4845POPC   C3A61865  33.763   9.010   7.064
 4845POPC   C4A61866  33.757   8.992   7.364
 4845POPC   C1B61867  33.565   9.005   6.464
 4845POPC   C2B61868  33.511   9.002   6.764
 4845POPC   C3B61869  33.515   8.923   7.064
 4845POPC   C4B61870  33.530   8.959   7.364
 4846POPC   NC361871  30.735  14.441   5.564
 4846POPC   PO461872  30.715  14.384   5.864
 4846POPC   GL161873  30.702  14.354   6.164
 4846POPC   GL261874  30.626  14.516   6.164
 4846POPC   C1A61875  30.713  14.404   6.464
 4846POPC   D2A61876  30.651  14.394   6.764
 4846POPC   C3A61877  30.729  14.389   7.064
 4846POPC   C4A61878  30.708  14.387   7.364
 4846POPC   C1B61879  30.681  14.656   6.464
 4846POPC   C2B61880  30.698  14.611   6.764
 4846POPC   C3B61881  30.691  14.696   7.064
 4846POPC   C4B61882  30.667  14.609   7.364
 4847POPC   NC361883  34.598  24.491   5.564
 4847POPC   PO461884  34.580  24.488   5.864
 4847POPC   GL161885  34.542  24.455   6.164
 4847POPC   GL261886  34.518  24.383   6.164
 4847POPC   C1A61887  34.599  24.503   6.464
 4847POPC   D2A61888  34.535  24.450   6.764
 4847POPC   C3A61889  34.563  24.451   7.064
 4847POPC   C4A61890  34.608  24.481   7.364
 4847POPC   C1B61891  34.442  24.299   6.464
 4847POPC   C2B61892  34.456  24.263   6.764
 4847POPC   C3B61893  34.472  24.309   7.064
 4847POPC   C4B61894  34.487  24.260   7.364
 4848POPC   NC361895  26.860  41.550   5.564
 4848POPC   PO461896  26.835  41.514   5.864
 4848POPC   GL161897  26.850  41.509   6.164
 4848POPC   GL261898  26.772  41.484   6.164
 4848POPC   C1A61899  26.838  41.530   6.464
 4848POPC   D2A61900  26.776  41.552   6.764
 4848POPC   C3A61901  26.806  41.554   7.064
 4848POPC   C4A61902  26.782  41.541   7.364
 4848POPC   C1B61903  26.751  41.346   6.464
 4848POPC   C2B61904  26.719  41.336   6.764
 4848POPC   C3B61905  26.712  41.266   7.064
 4848POPC   C4B61906  26.778  41.338   7.364
 4849POPC   NC361907   2.803   5.121   5.564
 4849POPC   PO461908   2.810   5.126   5.864
 4849POPC   GL161909   2.800   5.048   6.164
 4849POPC   GL261910   2.892   4.986   6.164
 4849POPC   C1A61911   2.815   5.089   6.464
 4849POPC   D2A61912   2.744   5.093   6.764
 4849POPC   C3A61913   2.798   5.067   7.064
 4849POPC   C4A61914   2.751   5.105   7.364
 4849POPC   C1B61915   2.927   4.972   6.464
 4849POPC   C2B61916   2.986   4.982   6.764
 4849POPC   C3B61917   2.950   4.972   7.064
 4849POPC   C4B61918   2.949   5.001   7.364
 4850POPC   NC361919  37.716   7.418   5.564
 4850POPC   PO461920  37.710   7.447   5.864
 4850POPC   GL161921  37.643   7.449   6.164
 4850POPC   GL261922  37.793   7.476   6.164
 4850POPC   C1A61923  37.700   7.380   6.464
 4850POPC   D2A61924  37.686   7.412   6.764
 4850POPC   C3A61925  37.638   7.386   7.064
 4850POPC   C4A61926  37.637   7.392   7.364
 4850POPC   C1B61927  37.864   7.564   6.464
 4850POPC   C2B61928  37.813   7.587   6.764
 4850POPC   C3B61929  37.804   7.620   7.064
 4850POPC   C4B61930  37.799   7.581   7.364
 4851POPC   NC361931   6.608  36.854   5.564
 4851POPC   PO461932   6.597  36.880   5.864
 4851POPC   GL161933   6.657  36.928   6.164
 4851POPC   GL261934   6.802  36.861   6.164
 4851POPC   C1A61935   6.647  36.894   6.464
 4851POPC   D2A61936   6.674  36.861   6.764
 4851POPC   C3A61937   6.602  36.891   7.064
 4851POPC   C4A61938   6.633  36.929   7.364
 4851POPC   C1B61939   6.855  36.922   6.464
 4851POPC   C2B61940   6.850  36.949   6.764
 4851POPC   C3B61941   6.927  36.880   7.064
 4851POPC   C4B61942   6.860  36.931   7.364
 4852POPC   NC361943   0.440  42.322   5.564
 4852POPC   PO461944   0.459  42.287   5.864
 4852POPC   GL161945   0.412  42.312   6.164
 4852POPC   GL261946   0.322  42.254   6.164
 4852POPC   C1A61947   0.402  42.367   6.464
 4852POPC   D2A61948   0.395  42.367   6.764
 4852POPC   C3A61949   0.431  42.361   7.064
 4852POPC   C4A61950   0.432  42.364   7.364
 4852POPC   C1B61951   0.261  42.103   6.464
 4852POPC   C2B61952   0.272  42.171   6.764
 4852POPC   C3B61953   0.245  42.137   7.064
 4852POPC   C4B61954   0.272  42.144   7.364
 4853POPC   NC361955  25.235   2.792   5.564
 4853POPC   PO461956  25.233   2.798   5.864
 4853POPC   GL161957  25.307   2.770   6.164
 4853POPC   GL261958  25.392   2.728   6.164
 4853POPC   C1A61959  25.243   2.761   6.464
 4853POPC   D2A61960  25.312   2.745   6.764
 4853POPC   C3A61961  25.235   2.767   7.064
 4853POPC   C4A61962  25.218   2.809   7.364
 4853POPC   C1B61963  25.498   2.703   6.464
 4853POPC   C2B61964  25.495   2.709   6.764
 4853POPC   C3B61965  25.491   2.726   7.064
 4853POPC   C4B61966  25.558   2.701   7.364
 4854POPC   NC361967  36.115   9.707   5.564
 4854POPC   PO461968  36.098   9.710   5.864
 4854POPC   GL161969  36.166   9.781   6.164
 4854POPC   GL261970  35.976   9.784   6.164
 4854POPC   C1A61971  36.126   9.736   6.464
 4854POPC   D2A61972  36.172   9.792   6.764
 4854POPC   C3A61973  36.137   9.712   7.064
 4854POPC   C4A61974  36.158   9.767   7.364
 4854POPC   C1B61975  35.894   9.732   6.464
 4854POPC   C2B61976  35.859   9.769   6.764
 4854POPC   C3B61977  35.928   9.768   7.064
 4854POPC   C4B61978  35.836   9.761   7.364
 4855POPC   NC361979  42.339  44.681   5.564
 4855POPC   PO461980  42.301  44.663   5.864
 4855POPC   GL161981  42.336  44.641   6.164
 4855POPC   GL261982  42.411  44.588   6.164
 4855POPC   C1A61983  42.381  44.687   6.464
 4855POPC   D2A61984  42.323  44.674   6.764
 4855POPC   C3A61985  42.362  44.631   7.064
 4855POPC   C4A61986  42.336  44.665   7.364
 4855POPC   C1B61987  42.529  44.564   6.464
 4855POPC   C2B61988  42.574  44.536   6.764
 4855POPC   C3B61989  42.589  44.575   7.064
 4855POPC   C4B61990  42.572  44.542   7.364
 4856POPC   NC361991  11.253   4.366   5.564
 4856POPC   PO461992  11.317   4.310   5.864
 4856POPC   GL161993  11.315   4.356   6.164
 4856POPC   GL261994  11.301   4.446   6.164
 4856POPC   C1A61995  11.269   4.268   6.464
 4856POPC   D2A61996  11.278   4.302   6.764
 4856POPC   C3A61997  11.293   4.331   7.064
 4856POPC   C4A61998  11.339   4.359   7.364
 4856POPC   C1B61999  11.259   4.552   6.464
 4856POPC   C2B62000  11.223   4.569   6.764
 4856POPC   C3B62001  11.222   4.554   7.064
 4856POPC   C4B62002  11.226   4.526   7.364
 4857POPC   NC362003  26.001  15.219   5.564
 4857POPC   PO462004  26.067  15.168   5.864
 4857POPC   GL162005  26.079  15.227   6.164
 4857POPC   GL262006  26.149  15.064   6.164
 4857POPC   C1A62007  26.051  15.147   6.464
 4857POPC   D2A62008  26.043  15.226   6.764
 4857POPC   C3A62009  26.049  15.132   7.064
 4857POPC   C4A62010  26.008  15.195   7.364
 4857POPC   C1B62011  26.258  15.045   6.464
 4857POPC   C2B62012  26.178  15.009   6.764
 4857POPC   C3B62013  26.259  14.950   7.064
 4857POPC   C4B62014  26.245  14.995   7.364
 4858POPC   NC362015  14.413  15.139   5.564
 4858POPC   PO462016  14.363  15.224   5.864
 4858POPC   GL162017  14.405  15.190   6.164
 4858POPC   GL262018  14.256  15.204   6.164
 4858POPC   C1A62019  14.434  15.138   6.464
 4858POPC   D2A62020  14.450  15.183   6.764
 4858POPC   C3A62021  14.424  15.222   7.064
 4858POPC   C4A62022  14.358  15.192   7.364
 4858POPC   C1B62023  14.208  15.214   6.464
 4858POPC   C2B62024  14.212  15.276   6.764
 4858POPC   C3B62025  14.122  15.255   7.064
 4858POPC   C4B62026  14.116  15.218   7.364
 4859POPC   NC362027  19.031  13.636   5.564
 4859POPC   PO462028  19.067  13.677   5.864
 4859POPC   GL162029  19.054  13.614   6.164
 4859POPC   GL262030  19.169  13.743   6.164
 4859POPC   C1A62031  19.088  13.666   6.464
 4859POPC   D2A62032  19.015  13.617   6.764
 4859POPC   C3A62033  19.019  13.611   7.064
 4859POPC   C4A62034  19.027  13.662   7.364
 4859POPC   C1B62035  19.309  13.729   6.464
 4859POPC   C2B62036  19.245  13.787   6.764
 4859POPC   C3B62037  19.218  13.720   7.064
 4859POPC   C4B62038  19.231  13.767   7.364
 4860POPC   NC362039  27.597  36.869   5.564
 4860POPC   PO462040  27.577  36.944   5.864
 4860POPC   GL162041  27.600  36.950   6.164
 4860POPC   GL262042  27.676  37.029   6.164
 4860POPC   C1A62043  27.609  36.946   6.464
 4860POPC   D2A62044  27.613  36.910   6.764
 4860POPC   C3A62045  27.623  36.921   7.064
 4860POPC   C4A62046  27.580  36.943   7.364
 4860POPC   C1B62047  27.685  37.104   6.464
 4860POPC   C2B62048  27.648  37.126   6.764
 4860POPC   C3B62049  27.667  37.154   7.064
 4860POPC   C4B62050  27.674  37.105   7.364
 4861POPC   NC362051  35.349   1.977   5.564
 4861POPC   PO462052  35.384   1.954   5.864
 4861POPC   GL162053  35.354   1.957   6.164
 4861POPC   GL262054  35.412   1.875   6.164
 4861POPC   C1A62055  35.337   1.962   6.464
 4861POPC   D2A62056  35.369   1.982   6.764
 4861POPC   C3A62057  35.349   1.955   7.064
 4861POPC   C4A62058  35.327   2.020   7.364
 4861POPC   C1B62059  35.548   1.813   6.464
 4861POPC   C2B62060  35.479   1.811   6.764
 4861POPC   C3B62061  35.532   1.819   7.064
 4861POPC   C4B62062  35.544   1.754   7.364
 4862POPC   NC362063  15.182  34.618   5.564
 4862POPC   PO462064  15.152  34.609   5.864
 4862POPC   GL162065  15.165  34.618   6.164
 4862POPC   GL262066  15.115  34.736   6.164
 4862POPC   C1A62067  15.219  34.596   6.464
 4862POPC   D2A62068  15.140  34.541   6.764
 4862POPC   C3A62069  15.140  34.527   7.064
 4862POPC   C4A62070  15.135  34.542   7.364
 4862POPC   C1B62071  15.086  34.844   6.464
 4862POPC   C2B62072  15.045  34.782   6.764
 4862POPC   C3B62073  15.063  34.820   7.064
 4862POPC   C4B62074  15.019  34.845   7.364
 4863POPC   NC362075   5.106  20.586   5.564
 4863POPC   PO462076   5.082  20.624   5.864
 4863POPC   GL162077   5.126  20.611   6.164
 4863POPC   GL262078   4.980  20.642   6.164
 4863POPC   C1A62079   5.081  20.636   6.464
 4863POPC   D2A62080   5.080  20.597   6.764
 4863POPC   C3A62081   5.138  20.568   7.064
 4863POPC   C4A62082   5.122  20.644   7.364
 4863POPC   C1B62083   4.850  20.640   6.464
 4863POPC   C2B62084   4.850  20.649   6.764
 4863POPC   C3B62085   4.891  20.657   7.064
 4863POPC   C4B62086   4.814  20.605   7.364
 4864POPC   NC362087  21.394  11.339   5.564
 4864POPC   PO462088  21.392  11.338   5.864
 4864POPC   GL162089  21.392  11.306   6.164
 4864POPC   GL262090  21.547  11.268   6.164
 4864POPC   C1A62091  21.401  11.288   6.464
 4864POPC   D2A62092  21.359  11.310   6.764
 4864POPC   C3A62093  21.390  11.267   7.064
 4864POPC   C4A62094  21.360  11.295   7.364
 4864POPC   C1B62095  21.663  11.302   6.464
 4864POPC   C2B62096  21.657  11.261   6.764
 4864POPC   C3B62097  21.659  11.316   7.064
 4864POPC   C4B62098  21.649  11.314   7.364
 4865POPC   NC362099  12.884  19.856   5.564
 4865POPC   PO462100  12.815  19.872   5.864
 4865POPC   GL162101  12.814  19.799   6.164
 4865POPC   GL262102  12.971  19.770   6.164
 4865POPC   C1A62103  12.854  19.797   6.464
 4865POPC   D2A62104  12.895  19.877   6.764
 4865POPC   C3A62105  12.898  19.842   7.064
 4865POPC   C4A62106  12.894  19.838   7.364
 4865POPC   C1B62107  13.050  19.754   6.464
 4865POPC   C2B62108  13.104  19.754   6.764
 4865POPC   C3B62109  13.125  19.772   7.064
 4865POPC   C4B62110  13.106  19.739   7.364
 4866POPC   NC362111  17.530  15.145   5.564
 4866POPC   PO462112  17.490  15.167   5.864
 4866POPC   GL162113  17.518  15.170   6.164
 4866POPC   GL262114  17.469  15.045   6.164
 4866POPC   C1A62115  17.494  15.212   6.464
 4866POPC   D2A62116  17.554  15.157   6.764
 4866POPC   C3A62117  17.527  15.197   7.064
 4866POPC   C4A62118  17.535  15.218   7.364
 4866POPC   C1B62119  17.386  14.948   6.464
 4866POPC   C2B62120  17.415  14.949   6.764
 4866POPC   C3B62121  17.381  14.987   7.064
 4866POPC   C4B62122  17.344  14.952   7.364
 4867POPC   NC362123  33.752  11.343   5.564
 4867POPC   PO462124  33.775  11.327   5.864
 4867POPC   GL162125  33.846  11.305   6.164
 4867POPC   GL262126  33.908  11.264   6.164
 4867POPC   C1A62127  33.800  11.316   6.464
 4867POPC   D2A62128  33.830  11.318   6.764
 4867POPC   C3A62129  33.774  11.281   7.064
 4867POPC   C4A62130  33.753  11.269   7.364
 4867POPC   C1B62131  34.020  11.262   6.464
 4867POPC   C2B62132  34.081  11.262   6.764
 4867POPC   C3B62133  33.997  11.255   7.064
 4867POPC   C4B62134  34.037  11.267   7.364
 4868POPC   NC362135  13.614   0.438   5.564
 4868POPC   PO462136  13.610   0.403   5.864
 4868POPC   GL162137  13.660   0.442   6.164
 4868POPC   GL262138  13.494   0.429   6.164
 4868POPC   C1A62139  13.650   0.422   6.464
 4868POPC   D2A62140  13.665   0.421   6.764
 4868POPC   C3A62141  13.652   0.397   7.064
 4868POPC   C4A62142  13.602   0.406   7.364
 4868POPC   C1B62143  13.445   0.308   6.464
 4868POPC   C2B62144  13.423   0.349   6.764
 4868POPC   C3B62145  13.379   0.372   7.064
 4868POPC   C4B62146  13.413   0.289   7.364
 4869POPC   NC362147  12.813  24.478   5.564
 4869POPC   PO462148  12.869  24.448   5.864
 4869POPC   GL162149  12.896  24.470   6.164
 4869POPC   GL262150  12.913  24.416   6.164
 4869POPC   C1A62151  12.805  24.447   6.464
 4869POPC   D2A62152  12.877  24.485   6.764
 4869POPC   C3A62153  12.833  24.522   7.064
 4869POPC   C4A62154  12.813  24.522   7.364
 4869POPC   C1B62155  12.911  24.218   6.464
 4869POPC   C2B62156  12.943  24.265   6.764
 4869POPC   C3B62157  12.896  24.302   7.064
 4869POPC   C4B62158  12.921  24.219   7.364
 4870POPC   NC362159  12.814  44.655   5.564
 4870POPC   PO462160  12.889  44.673   5.864
 4870POPC   GL162161  12.861  44.701   6.164
 4870POPC   GL262162  13.012  44.681   6.164
 4870POPC   C1A62163  12.811  44.690   6.464
 4870POPC   D2A62164  12.823  44.616   6.764
 4870POPC   C3A62165  12.812  44.678   7.064
 4870POPC   C4A62166  12.805  44.620   7.364
 4870POPC   C1B62167  13.126  44.627   6.464
 4870POPC   C2B62168  13.120  44.637   6.764
 4870POPC   C3B62169  13.097  44.607   7.064
 4870POPC   C4B62170  13.071  44.660   7.364
 4871POPC   NC362171  22.185  26.070   5.564
 4871POPC   PO462172  22.136  26.029   5.864
 4871POPC   GL162173  22.146  26.004   6.164
 4871POPC   GL262174  22.135  25.906   6.164
 4871POPC   C1A62175  22.177  26.078   6.464
 4871POPC   D2A62176  22.151  26.044   6.764
 4871POPC   C3A62177  22.130  26.046   7.064
 4871POPC   C4A62178  22.121  26.024   7.364
 4871POPC   C1B62179  22.185  25.839   6.464
 4871POPC   C2B62180  22.114  25.842   6.764
 4871POPC   C3B62181  22.172  25.819   7.064
 4871POPC   C4B62182  22.131  25.833   7.364
 4872POPC   NC362183   5.060  19.058   5.564
 4872POPC   PO462184   5.096  19.033   5.864
 4872POPC   GL162185   5.125  19.083   6.164
 4872POPC   GL262186   4.966  19.042   6.164
 4872POPC   C1A62187   5.061  19.010   6.464
 4872POPC   D2A62188   5.127  19.011   6.764
 4872POPC   C3A62189   5.123  19.042   7.064
 4872POPC   C4A62190   5.108  19.101   7.364
 4872POPC   C1B62191   4.802  19.095   6.464
 4872POPC   C2B62192   4.881  19.077   6.764
 4872POPC   C3B62193   4.814  19.142   7.064
 4872POPC   C4B62194   4.868  19.148   7.364
 4873POPC   NC362195  32.210  36.859   5.564
 4873POPC   PO462196  32.236  36.933   5.864
 4873POPC   GL162197  32.266  36.953   6.164
 4873POPC   GL262198  32.115  36.882   6.164
 4873POPC   C1A62199  32.292  36.907   6.464
 4873POPC   D2A62200  32.283  36.873   6.764
 4873POPC   C3A62201  32.228  36.894   7.064
 4873POPC   C4A62202  32.205  36.875   7.364
 4873POPC   C1B62203  32.015  36.828   6.464
 4873POPC   C2B62204  32.064  36.757   6.764
 4873POPC   C3B62205  31.973  36.838   7.064
 4873POPC   C4B62206  32.067  36.770   7.364
 4874POPC   NC362207   6.607  26.802   5.564
 4874POPC   PO462208   6.661  26.862   5.864
 4874POPC   GL162209   6.617  26.797   6.164
 4874POPC   GL262210   6.622  26.955   6.164
 4874POPC   C1A62211   6.658  26.793   6.464
 4874POPC   D2A62212   6.665  26.832   6.764
 4874POPC   C3A62213   6.608  26.813   7.064
 4874POPC   C4A62214   6.673  26.776   7.364
 4874POPC   C1B62215   6.543  27.071   6.464
 4874POPC   C2B62216   6.535  27.003   6.764
 4874POPC   C3B62217   6.537  27.049   7.064
 4874POPC   C4B62218   6.560  27.007   7.364
 4875POPC   NC362219  30.718  41.571   5.564
 4875POPC   PO462220  30.724  41.574   5.864
 4875POPC   GL162221  30.649  41.573   6.164
 4875POPC   GL262222  30.664  41.483   6.164
 4875POPC   C1A62223  30.743  41.567   6.464
 4875POPC   D2A62224  30.746  41.590   6.764
 4875POPC   C3A62225  30.691  41.518   7.064
 4875POPC   C4A62226  30.682  41.599   7.364
 4875POPC   C1B62227  30.653  41.353   6.464
 4875POPC   C2B62228  30.567  41.306   6.764
 4875POPC   C3B62229  30.638  41.287   7.064
 4875POPC   C4B62230  30.636  41.281   7.364
 4876POPC   NC362231   1.965  32.255   5.564
 4876POPC   PO462232   2.019  32.230   5.864
 4876POPC   GL162233   1.970  32.298   6.164
 4876POPC   GL262234   1.904  32.357   6.164
 4876POPC   C1A62235   1.967  32.259   6.464
 4876POPC   D2A62236   2.016  32.219   6.764
 4876POPC   C3A62237   2.025  32.232   7.064
 4876POPC   C4A62238   1.963  32.291   7.364
 4876POPC   C1B62239   1.887  32.457   6.464
 4876POPC   C2B62240   1.851  32.444   6.764
 4876POPC   C3B62241   1.794  32.473   7.064
 4876POPC   C4B62242   1.871  32.425   7.364
 4877POPC   NC362243  18.327   2.778   5.564
 4877POPC   PO462244  18.274   2.751   5.864
 4877POPC   GL162245  18.273   2.754   6.164
 4877POPC   GL262246  18.352   2.678   6.164
 4877POPC   C1A62247  18.309   2.760   6.464
 4877POPC   D2A62248  18.325   2.761   6.764
 4877POPC   C3A62249  18.320   2.776   7.064
 4877POPC   C4A62250  18.248   2.801   7.364
 4877POPC   C1B62251  18.543   2.639   6.464
 4877POPC   C2B62252  18.518   2.716   6.764
 4877POPC   C3B62253  18.527   2.678   7.064
 4877POPC   C4B62254  18.482   2.701   7.364
 4878POPC   NC362255  25.284  15.193   5.564
 4878POPC   PO462256  25.265  15.140   5.864
 4878POPC   GL162257  25.254  15.222   6.164
 4878POPC   GL262258  25.161  15.166   6.164
 4878POPC   C1A62259  25.256  15.142   6.464
 4878POPC   D2A62260  25.310  15.217   6.764
 4878POPC   C3A62261  25.232  15.190   7.064
 4878POPC   C4A62262  25.256  15.157   7.364
 4878POPC   C1B62263  25.086  15.025   6.464
 4878POPC   C2B62264  25.001  15.105   6.764
 4878POPC   C3B62265  25.029  15.026   7.064
 4878POPC   C4B62266  25.083  15.107   7.364
 4879POPC   NC362267  22.943   3.567   5.564
 4879POPC   PO462268  22.927   3.502   5.864
 4879POPC   GL162269  22.942   3.570   6.164
 4879POPC   GL262270  23.059   3.524   6.164
 4879POPC   C1A62271  22.900   3.555   6.464
 4879POPC   D2A62272  22.936   3.561   6.764
 4879POPC   C3A62273  22.918   3.519   7.064
 4879POPC   C4A62274  22.973   3.583   7.364
 4879POPC   C1B62275  23.146   3.468   6.464
 4879POPC   C2B62276  23.138   3.446   6.764
 4879POPC   C3B62277  23.195   3.448   7.064
 4879POPC   C4B62278  23.196   3.502   7.364
 4880POPC   NC362279  33.027  20.645   5.564
 4880POPC   PO462280  32.999  20.630   5.864
 4880POPC   GL162281  33.053  20.606   6.164
 4880POPC   GL262282  33.017  20.444   6.164
 4880POPC   C1A62283  33.068  20.642   6.464
 4880POPC   D2A62284  33.063  20.605   6.764
 4880POPC   C3A62285  33.021  20.636   7.064
 4880POPC   C4A62286  32.997  20.610   7.364
 4880POPC   C1B62287  33.125  20.389   6.464
 4880POPC   C2B62288  33.126  20.368   6.764
 4880POPC   C3B62289  33.128  20.399   7.064
 4880POPC   C4B62290  33.080  20.379   7.364
 4881POPC   NC362291  15.181  10.485   5.564
 4881POPC   PO462292  15.206  10.532   5.864
 4881POPC   GL162293  15.168  10.534   6.164
 4881POPC   GL262294  15.041  10.640   6.164
 4881POPC   C1A62295  15.205  10.480   6.464
 4881POPC   D2A62296  15.133  10.491   6.764
 4881POPC   C3A62297  15.193  10.504   7.064
 4881POPC   C4A62298  15.185  10.497   7.364
 4881POPC   C1B62299  14.932  10.644   6.464
 4881POPC   C2B62300  14.958  10.709   6.764
 4881POPC   C3B62301  15.000  10.715   7.064
 4881POPC   C4B62302  14.933  10.634   7.364
 4882POPC   NC362303  25.993  36.103   5.564
 4882POPC   PO462304  26.087  36.169   5.864
 4882POPC   GL162305  26.038  36.106   6.164
 4882POPC   GL262306  26.131  36.026   6.164
 4882POPC   C1A62307  26.043  36.166   6.464
 4882POPC   D2A62308  26.058  36.101   6.764
 4882POPC   C3A62309  25.994  36.079   7.064
 4882POPC   C4A62310  26.063  36.119   7.364
 4882POPC   C1B62311  26.204  35.959   6.464
 4882POPC   C2B62312  26.210  35.939   6.764
 4882POPC   C3B62313  26.196  35.955   7.064
 4882POPC   C4B62314  26.155  35.942   7.364
 4883POPC   NC362315  28.343  10.559   5.564
 4883POPC   PO462316  28.381  10.547   5.864
 4883POPC   GL162317  28.324  10.497   6.164
 4883POPC   GL262318  28.254  10.623   6.164
 4883POPC   C1A62319  28.367  10.511   6.464
 4883POPC   D2A62320  28.384  10.508   6.764
 4883POPC   C3A62321  28.320  10.548   7.064
 4883POPC   C4A62322  28.322  10.534   7.364
 4883POPC   C1B62323  28.170  10.657   6.464
 4883POPC   C2B62324  28.156  10.689   6.764
 4883POPC   C3B62325  28.177  10.650   7.064
 4883POPC   C4B62326  28.175  10.619   7.364
 4884POPC   NC362327  29.893   8.954   5.564
 4884POPC   PO462328  29.923   8.996   5.864
 4884POPC   GL162329  29.900   8.957   6.164
 4884POPC   GL262330  30.023   9.063   6.164
 4884POPC   C1A62331  29.958   9.007   6.464
 4884POPC   D2A62332  29.908   8.941   6.764
 4884POPC   C3A62333  29.901   8.955   7.064
 4884POPC   C4A62334  29.957   8.938   7.364
 4884POPC   C1B62335  30.110   9.074   6.464
 4884POPC   C2B62336  30.154   9.107   6.764
 4884POPC   C3B62337  30.156   9.056   7.064
 4884POPC   C4B62338  30.089   9.083   7.364
 4885POPC   NC362339  32.290  13.643   5.564
 4885POPC   PO462340  32.290  13.638   5.864
 4885POPC   GL162341  32.268  13.651   6.164
 4885POPC   GL262342  32.179  13.499   6.164
 4885POPC   C1A62343  32.204  13.605   6.464
 4885POPC   D2A62344  32.255  13.646   6.764
 4885POPC   C3A62345  32.219  13.616   7.064
 4885POPC   C4A62346  32.288  13.604   7.364
 4885POPC   C1B62347  32.203  13.409   6.464
 4885POPC   C2B62348  32.182  13.376   6.764
 4885POPC   C3B62349  32.160  13.363   7.064
 4885POPC   C4B62350  32.161  13.380   7.364
 4886POPC   NC362351  35.391  37.691   5.564
 4886POPC   PO462352  35.329  37.634   5.864
 4886POPC   GL162353  35.386  37.655   6.164
 4886POPC   GL262354  35.320  37.533   6.164
 4886POPC   C1A62355  35.306  37.645   6.464
 4886POPC   D2A62356  35.323  37.704   6.764
 4886POPC   C3A62357  35.394  37.713   7.064
 4886POPC   C4A62358  35.314  37.723   7.364
 4886POPC   C1B62359  35.405  37.404   6.464
 4886POPC   C2B62360  35.399  37.395   6.764
 4886POPC   C3B62361  35.399  37.407   7.064
 4886POPC   C4B62362  35.334  37.403   7.364
 4887POPC   NC362363   1.961  29.117   5.564
 4887POPC   PO462364   2.021  29.192   5.864
 4887POPC   GL162365   1.958  29.120   6.164
 4887POPC   GL262366   2.052  29.268   6.164
 4887POPC   C1A62367   2.020  29.111   6.464
 4887POPC   D2A62368   1.996  29.149   6.764
 4887POPC   C3A62369   2.038  29.131   7.064
 4887POPC   C4A62370   2.010  29.098   7.364
 4887POPC   C1B62371   2.175  29.266   6.464
 4887POPC   C2B62372   2.152  29.317   6.764
 4887POPC   C3B62373   2.172  29.282   7.064
 4887POPC   C4B62374   2.136  29.292   7.364
 4888POPC   NC362375  16.702  23.691   5.564
 4888POPC   PO462376  16.719  23.676   5.864
 4888POPC   GL162377  16.773  23.698   6.164
 4888POPC   GL262378  16.597  23.790   6.164
 4888POPC   C1A62379  16.759  23.753   6.464
 4888POPC   D2A62380  16.709  23.687   6.764
 4888POPC   C3A62381  16.711  23.664   7.064
 4888POPC   C4A62382  16.690  23.727   7.364
 4888POPC   C1B62383  16.519  23.818   6.464
 4888POPC   C2B62384  16.548  23.808   6.764
 4888POPC   C3B62385  16.521  23.864   7.064
 4888POPC   C4B62386  16.550  23.825   7.364
 4889POPC   NC362387   6.649   4.355   5.564
 4889POPC   PO462388   6.658   4.342   5.864
 4889POPC   GL162389   6.644   4.350   6.164
 4889POPC   GL262390   6.608   4.176   6.164
 4889POPC   C1A62391   6.671   4.342   6.464
 4889POPC   D2A62392   6.693   4.315   6.764
 4889POPC   C3A62393   6.667   4.327   7.064
 4889POPC   C4A62394   6.651   4.326   7.364
 4889POPC   C1B62395   6.608   4.096   6.464
 4889POPC   C2B62396   6.620   4.075   6.764
 4889POPC   C3B62397   6.653   4.111   7.064
 4889POPC   C4B62398   6.658   4.099   7.364
 4890POPC   NC362399  25.305   0.457   5.564
 4890POPC   PO462400  25.265   0.456   5.864
 4890POPC   GL162401  25.224   0.391   6.164
 4890POPC   GL262402  25.253   0.573   6.164
 4890POPC   C1A62403  25.276   0.397   6.464
 4890POPC   D2A62404  25.311   0.415   6.764
 4890POPC   C3A62405  25.231   0.472   7.064
 4890POPC   C4A62406  25.262   0.399   7.364
 4890POPC   C1B62407  25.289   0.661   6.464
 4890POPC   C2B62408  25.291   0.686   6.764
 4890POPC   C3B62409  25.354   0.654   7.064
 4890POPC   C4B62410  25.309   0.714   7.364
 4891POPC   NC362411  10.508  31.501   5.564
 4891POPC   PO462412  10.538  31.486   5.864
 4891POPC   GL162413  10.574  31.463   6.164
 4891POPC   GL262414  10.692  31.481   6.164
 4891POPC   C1A62415  10.515  31.508   6.464
 4891POPC   D2A62416  10.506  31.451   6.764
 4891POPC   C3A62417  10.564  31.486   7.064
 4891POPC   C4A62418  10.571  31.424   7.364
 4891POPC   C1B62419  10.813  31.462   6.464
 4891POPC   C2B62420  10.805  31.502   6.764
 4891POPC   C3B62421  10.724  31.464   7.064
 4891POPC   C4B62422  10.813  31.426   7.364
 4892POPC   NC362423   2.002   5.845   5.564
 4892POPC   PO462424   1.954   5.885   5.864
 4892POPC   GL162425   2.014   5.872   6.164
 4892POPC   GL262426   1.863   5.909   6.164
 4892POPC   C1A62427   2.009   5.913   6.464
 4892POPC   D2A62428   1.947   5.845   6.764
 4892POPC   C3A62429   2.022   5.851   7.064
 4892POPC   C4A62430   2.013   5.915   7.364
 4892POPC   C1B62431   1.709   5.890   6.464
 4892POPC   C2B62432   1.696   5.864   6.764
 4892POPC   C3B62433   1.770   5.958   7.064
 4892POPC   C4B62434   1.763   5.944   7.364
 4893POPC   NC362435   6.670  22.924   5.564
 4893POPC   PO462436   6.631  22.914   5.864
 4893POPC   GL162437   6.653  22.941   6.164
 4893POPC   GL262438   6.731  22.878   6.164
 4893POPC   C1A62439   6.597  22.906   6.464
 4893POPC   D2A62440   6.620  22.933   6.764
 4893POPC   C3A62441   6.644  22.969   7.064
 4893POPC   C4A62442   6.630  22.893   7.364
 4893POPC   C1B62443   6.862  22.876   6.464
 4893POPC   C2B62444   6.890  22.891   6.764
 4893POPC   C3B62445   6.852  22.910   7.064
 4893POPC   C4B62446   6.872  22.890   7.364
 4894POPC   NC362447  32.231  29.953   5.564
 4894POPC   PO462448  32.282  29.880   5.864
 4894POPC   GL162449  32.277  29.904   6.164
 4894POPC   GL262450  32.292  29.831   6.164
 4894POPC   C1A62451  32.218  29.893   6.464
 4894POPC   D2A62452  32.203  29.907   6.764
 4894POPC   C3A62453  32.227  29.923   7.064
 4894POPC   C4A62454  32.295  29.875   7.364
 4894POPC   C1B62455  32.358  29.668   6.464
 4894POPC   C2B62456  32.330  29.664   6.764
 4894POPC   C3B62457  32.326  29.716   7.064
 4894POPC   C4B62458  32.342  29.638   7.364
 4895POPC   NC362459  26.863  23.758   5.564
 4895POPC   PO462460  26.790  23.735   5.864
 4895POPC   GL162461  26.846  23.672   6.164
 4895POPC   GL262462  26.741  23.577   6.164
 4895POPC   C1A62463  26.776  23.704   6.464
 4895POPC   D2A62464  26.810  23.746   6.764
 4895POPC   C3A62465  26.791  23.751   7.064
 4895POPC   C4A62466  26.773  23.721   7.364
 4895POPC   C1B62467  26.710  23.512   6.464
 4895POPC   C2B62468  26.708  23.478   6.764
 4895POPC   C3B62469  26.743  23.460   7.064
 4895POPC   C4B62470  26.719  23.478   7.364
 4896POPC   NC362471  31.502  38.447   5.564
 4896POPC   PO462472  31.460  38.410   5.864
 4896POPC   GL162473  31.475  38.476   6.164
 4896POPC   GL262474  31.394  38.310   6.164
 4896POPC   C1A62475  31.501  38.453   6.464
 4896POPC   D2A62476  31.441  38.460   6.764
 4896POPC   C3A62477  31.451  38.448   7.064
 4896POPC   C4A62478  31.457  38.437   7.364
 4896POPC   C1B62479  31.360  38.217   6.464
 4896POPC   C2B62480  31.301  38.203   6.764
 4896POPC   C3B62481  31.310  38.241   7.064
 4896POPC   C4B62482  31.308  38.263   7.364
 4897POPC   NC362483  44.661   1.214   5.564
 4897POPC   PO462484  44.649   1.196   5.864
 4897POPC   GL162485  44.635   1.252   6.164
 4897POPC   GL262486  44.681   1.043   6.164
 4897POPC   C1A62487  44.702   1.225   6.464
 4897POPC   D2A62488  44.701   1.184   6.764
 4897POPC   C3A62489  44.674   1.190   7.064
 4897POPC   C4A62490  44.622   1.164   7.364
 4897POPC   C1B62491  44.685   0.980   6.464
 4897POPC   C2B62492  44.713   1.002   6.764
 4897POPC   C3B62493  44.683   1.005   7.064
 4897POPC   C4B62494  44.735   0.994   7.364
 4898POPC   NC362495   8.933   8.167   5.564
 4898POPC   PO462496   8.988   8.152   5.864
 4898POPC   GL162497   8.964   8.168   6.164
 4898POPC   GL262498   8.998   8.045   6.164
 4898POPC   C1A62499   9.017   8.212   6.464
 4898POPC   D2A62500   8.999   8.229   6.764
 4898POPC   C3A62501   9.020   8.201   7.064
 4898POPC   C4A62502   8.966   8.207   7.364
 4898POPC   C1B62503   8.960   7.899   6.464
 4898POPC   C2B62504   8.919   7.996   6.764
 4898POPC   C3B62505   8.911   7.899   7.064
 4898POPC   C4B62506   8.927   7.935   7.364
 4899POPC   NC362507  12.107   8.214   5.564
 4899POPC   PO462508  12.026   8.155   5.864
 4899POPC   GL162509  12.057   8.161   6.164
 4899POPC   GL262510  12.091   8.336   6.164
 4899POPC   C1A62511  12.052   8.171   6.464
 4899POPC   D2A62512  12.095   8.182   6.764
 4899POPC   C3A62513  12.048   8.246   7.064
 4899POPC   C4A62514  12.064   8.243   7.364
 4899POPC   C1B62515  12.112   8.450   6.464
 4899POPC   C2B62516  12.062   8.437   6.764
 4899POPC   C3B62517  12.088   8.421   7.064
 4899POPC   C4B62518  12.105   8.452   7.364
 4900POPC   NC362519  43.911  36.932   5.564
 4900POPC   PO462520  43.848  36.881   5.864
 4900POPC   GL162521  43.917  36.947   6.164
 4900POPC   GL262522  43.816  36.835   6.164
 4900POPC   C1A62523  43.871  36.896   6.464
 4900POPC   D2A62524  43.894  36.887   6.764
 4900POPC   C3A62525  43.852  36.896   7.064
 4900POPC   C4A62526  43.921  36.902   7.364
 4900POPC   C1B62527  43.746  36.736   6.464
 4900POPC   C2B62528  43.695  36.744   6.764
 4900POPC   C3B62529  43.688  36.687   7.064
 4900POPC   C4B62530  43.729  36.745   7.364
 4901POPC   NC362531  17.490  44.644   5.564
 4901POPC   PO462532  17.515  44.696   5.864
 4901POPC   GL162533  17.463  44.709   6.164
 4901POPC   GL262534  17.570  44.565   6.164
 4901POPC   C1A62535  17.555  44.686   6.464
 4901POPC   D2A62536  17.546  44.690   6.764
 4901POPC   C3A62537  17.480  44.673   7.064
 4901POPC   C4A62538  17.537  44.627   7.364
 4901POPC   C1B62539  17.696  44.480   6.464
 4901POPC   C2B62540  17.705  44.468   6.764
 4901POPC   C3B62541  17.700  44.509   7.064
 4901POPC   C4B62542  17.751  44.541   7.364
 4902POPC   NC362543   9.790   1.189   5.564
 4902POPC   PO462544   9.741   1.237   5.864
 4902POPC   GL162545   9.733   1.167   6.164
 4902POPC   GL262546   9.829   1.318   6.164
 4902POPC   C1A62547   9.796   1.187   6.464
 4902POPC   D2A62548   9.741   1.212   6.764
 4902POPC   C3A62549   9.755   1.184   7.064
 4902POPC   C4A62550   9.779   1.221   7.364
 4902POPC   C1B62551   9.892   1.362   6.464
 4902POPC   C2B62552   9.888   1.354   6.764
 4902POPC   C3B62553   9.971   1.376   7.064
 4902POPC   C4B62554   9.971   1.389   7.364
 4903POPC   NC362555  17.549  31.517   5.564
 4903POPC   PO462556  17.530  31.492   5.864
 4903POPC   GL162557  17.496  31.471   6.164
 4903POPC   GL262558  17.605  31.534   6.164
 4903POPC   C1A62559  17.476  31.439   6.464
 4903POPC   D2A62560  17.479  31.460   6.764
 4903POPC   C3A62561  17.465  31.478   7.064
 4903POPC   C4A62562  17.543  31.458   7.364
 4903POPC   C1B62563  17.725  31.528   6.464
 4903POPC   C2B62564  17.783  31.527   6.764
 4903POPC   C3B62565  17.697  31.559   7.064
 4903POPC   C4B62566  17.707  31.597   7.364
 4904POPC   NC362567  33.806  15.986   5.564
 4904POPC   PO462568  33.844  15.945   5.864
 4904POPC   GL162569  33.772  15.918   6.164
 4904POPC   GL262570  33.738  15.890   6.164
 4904POPC   C1A62571  33.773  15.970   6.464
 4904POPC   D2A62572  33.802  15.992   6.764
 4904POPC   C3A62573  33.831  15.925   7.064
 4904POPC   C4A62574  33.800  15.961   7.364
 4904POPC   C1B62575  33.713  15.689   6.464
 4904POPC   C2B62576  33.715  15.702   6.764
 4904POPC   C3B62577  33.716  15.777   7.064
 4904POPC   C4B62578  33.659  15.725   7.364
 4905POPC   NC362579  28.376   8.199   5.564
 4905POPC   PO462580  28.354   8.243   5.864
 4905POPC   GL162581  28.376   8.166   6.164
 4905POPC   GL262582  28.262   8.174   6.164
 4905POPC   C1A62583  28.394   8.212   6.464
 4905POPC   D2A62584  28.354   8.245   6.764
 4905POPC   C3A62585  28.341   8.195   7.064
 4905POPC   C4A62586  28.355   8.227   7.364
 4905POPC   C1B62587  28.137   8.056   6.464
 4905POPC   C2B62588  28.100   8.072   6.764
 4905POPC   C3B62589  28.111   8.115   7.064
 4905POPC   C4B62590  28.160   8.093   7.364
 4906POPC   NC362591  33.026  27.553   5.564
 4906POPC   PO462592  33.061  27.615   5.864
 4906POPC   GL162593  33.065  27.570   6.164
 4906POPC   GL262594  33.152  27.579   6.164
 4906POPC   C1A62595  33.055  27.592   6.464
 4906POPC   D2A62596  33.016  27.631   6.764
 4906POPC   C3A62597  32.982  27.559   7.064
 4906POPC   C4A62598  33.031  27.577   7.364
 4906POPC   C1B62599  33.298  27.549   6.464
 4906POPC   C2B62600  33.288  27.536   6.764
 4906POPC   C3B62601  33.306  27.450   7.064
 4906POPC   C4B62602  33.226  27.515   7.364
 4907POPC   NC362603  41.595  19.098   5.564
 4907POPC   PO462604  41.526  19.014   5.864
 4907POPC   GL162605  41.564  19.084   6.164
 4907POPC   GL262606  41.395  19.071   6.164
 4907POPC   C1A62607  41.509  19.023   6.464
 4907POPC   D2A62608  41.510  19.097   6.764
 4907POPC   C3A62609  41.553  19.084   7.064
 4907POPC   C4A62610  41.544  19.070   7.364
 4907POPC   C1B62611  41.365  19.177   6.464
 4907POPC   C2B62612  41.304  19.096   6.764
 4907POPC   C3B62613  41.314  19.140   7.064
 4907POPC   C4B62614  41.341  19.137   7.364
 4908POPC   NC362615  15.912  36.120   5.564
 4908POPC   PO462616  15.908  36.148   5.864
 4908POPC   GL162617  15.968  36.080   6.164
 4908POPC   GL262618  16.062  36.093   6.164
 4908POPC   C1A62619  15.966  36.082   6.464
 4908POPC   D2A62620  15.926  36.135   6.764
 4908POPC   C3A62621  15.935  36.079   7.064
 4908POPC   C4A62622  15.914  36.092   7.364
 4908POPC   C1B62623  16.149  35.980   6.464
 4908POPC   C2B62624  16.150  35.935   6.764
 4908POPC   C3B62625  16.105  35.937   7.064
 4908POPC   C4B62626  16.180  35.989   7.364
 4909POPC   NC362627  20.609  15.981   5.564
 4909POPC   PO462628  20.597  15.957   5.864
 4909POPC   GL162629  20.650  15.947   6.164
 4909POPC   GL262630  20.464  15.950   6.164
 4909POPC   C1A62631  20.633  15.930   6.464
 4909POPC   D2A62632  20.585  15.956   6.764
 4909POPC   C3A62633  20.626  15.916   7.064
 4909POPC   C4A62634  20.572  15.961   7.364
 4909POPC   C1B62635  20.406  15.983   6.464
 4909POPC   C2B62636  20.379  15.988   6.764
 4909POPC   C3B62637  20.324  15.981   7.064
 4909POPC   C4B62638  20.404  15.977   7.364
 4910POPC   NC362639  22.149  27.569   5.564
 4910POPC   PO462640  22.192  27.599   5.864
 4910POPC   GL162641  22.172  27.633   6.164
 4910POPC   GL262642  22.291  27.651   6.164
 4910POPC   C1A62643  22.181  27.608   6.464
 4910POPC   D2A62644  22.195  27.560   6.764
 4910POPC   C3A62645  22.123  27.566   7.064
 4910POPC   C4A62646  22.194  27.568   7.364
 4910POPC   C1B62647  22.389  27.761   6.464
 4910POPC   C2B62648  22.339  27.807   6.764
 4910POPC   C3B62649  22.350  27.725   7.064
 4910POPC   C4B62650  22.387  27.733   7.364
 4911POPC   NC362651  34.574  44.691   5.564
 4911POPC   PO462652  34.540  44.659   5.864
 4911POPC   GL162653  34.574  44.622   6.164
 4911POPC   GL262654  34.548  44.544   6.164
 4911POPC   C1A62655  34.549  44.669   6.464
 4911POPC   D2A62656  34.537  44.692   6.764
 4911POPC   C3A62657  34.597  44.704   7.064
 4911POPC   C4A62658  34.565  44.673   7.364
 4911POPC   C1B62659  34.546  44.461   6.464
 4911POPC   C2B62660  34.525  44.426   6.764
 4911POPC   C3B62661  34.520  44.441   7.064
 4911POPC   C4B62662  34.554  44.460   7.364
 4912POPC   NC362663  19.027   2.815   5.564
 4912POPC   PO462664  19.106   2.795   5.864
 4912POPC   GL162665  19.062   2.750   6.164
 4912POPC   GL262666  19.208   2.822   6.164
 4912POPC   C1A62667  19.058   2.719   6.464
 4912POPC   D2A62668  19.056   2.779   6.764
 4912POPC   C3A62669  19.036   2.743   7.064
 4912POPC   C4A62670  19.015   2.769   7.364
 4912POPC   C1B62671  19.311   2.842   6.464
 4912POPC   C2B62672  19.294   2.911   6.764
 4912POPC   C3B62673  19.272   2.895   7.064
 4912POPC   C4B62674  19.301   2.899   7.364
 4913POPC   NC362675  25.313   1.245   5.564
 4913POPC   PO462676  25.301   1.165   5.864
 4913POPC   GL162677  25.257   1.186   6.164
 4913POPC   GL262678  25.157   1.319   6.164
 4913POPC   C1A62679  25.256   1.196   6.464
 4913POPC   D2A62680  25.237   1.232   6.764
 4913POPC   C3A62681  25.310   1.235   7.064
 4913POPC   C4A62682  25.281   1.240   7.364
 4913POPC   C1B62683  25.066   1.358   6.464
 4913POPC   C2B62684  25.024   1.312   6.764
 4913POPC   C3B62685  25.064   1.301   7.064
 4913POPC   C4B62686  25.096   1.312   7.364
 4914POPC   NC362687  15.222  40.032   5.564
 4914POPC   PO462688  15.196  40.052   5.864
 4914POPC   GL162689  15.150  39.997   6.164
 4914POPC   GL262690  15.165  40.090   6.164
 4914POPC   C1A62691  15.156  39.978   6.464
 4914POPC   D2A62692  15.170  39.986   6.764
 4914POPC   C3A62693  15.166  40.001   7.064
 4914POPC   C4A62694  15.181  40.003   7.364
 4914POPC   C1B62695  15.098  40.211   6.464
 4914POPC   C2B62696  15.112  40.241   6.764
 4914POPC   C3B62697  15.161  40.254   7.064
 4914POPC   C4B62698  15.164  40.208   7.364
 4915POPC   NC362699  12.847  22.981   5.564
 4915POPC   PO462700  12.868  22.945   5.864
 4915POPC   GL162701  12.816  22.978   6.164
 4915POPC   GL262702  12.740  22.865   6.164
 4915POPC   C1A62703  12.895  22.944   6.464
 4915POPC   D2A62704  12.894  22.939   6.764
 4915POPC   C3A62705  12.893  22.976   7.064
 4915POPC   C4A62706  12.840  22.955   7.364
 4915POPC   C1B62707  12.676  22.852   6.464
 4915POPC   C2B62708  12.676  22.836   6.764
 4915POPC   C3B62709  12.640  22.772   7.064
 4915POPC   C4B62710  12.673  22.794   7.364
 4916POPC   NC362711  12.120  43.088   5.564
 4916POPC   PO462712  12.076  43.091   5.864
 4916POPC   GL162713  12.099  43.102   6.164
 4916POPC   GL262714  11.975  43.103   6.164
 4916POPC   C1A62715  12.043  43.117   6.464
 4916POPC   D2A62716  12.053  43.092   6.764
 4916POPC   C3A62717  12.057  43.113   7.064
 4916POPC   C4A62718  12.122  43.077   7.364
 4916POPC   C1B62719  11.834  43.142   6.464
 4916POPC   C2B62720  11.843  43.140   6.764
 4916POPC   C3B62721  11.795  43.091   7.064
 4916POPC   C4B62722  11.811  43.146   7.364
 4917POPC   NC362723  10.494   2.740   5.564
 4917POPC   PO462724  10.512   2.745   5.864
 4917POPC   GL162725  10.574   2.789   6.164
 4917POPC   GL262726  10.640   2.792   6.164
 4917POPC   C1A62727  10.482   2.815   6.464
 4917POPC   D2A62728  10.563   2.796   6.764
 4917POPC   C3A62729  10.482   2.727   7.064
 4917POPC   C4A62730  10.541   2.795   7.364
 4917POPC   C1B62731  10.698   2.880   6.464
 4917POPC   C2B62732  10.774   2.905   6.764
 4917POPC   C3B62733  10.687   2.857   7.064
 4917POPC   C4B62734  10.756   2.910   7.364
 4918POPC   NC362735  16.768  16.691   5.564
 4918POPC   PO462736  16.747  16.694   5.864
 4918POPC   GL162737  16.744  16.759   6.164
 4918POPC   GL262738  16.679  16.620   6.164
 4918POPC   C1A62739  16.780  16.705   6.464
 4918POPC   D2A62740  16.766  16.710   6.764
 4918POPC   C3A62741  16.775  16.683   7.064
 4918POPC   C4A62742  16.778  16.701   7.364
 4918POPC   C1B62743  16.683  16.527   6.464
 4918POPC   C2B62744  16.658  16.477   6.764
 4918POPC   C3B62745  16.643  16.452   7.064
 4918POPC   C4B62746  16.692  16.517   7.364
 4919POPC   NC362747  26.013  35.376   5.564
 4919POPC   PO462748  26.055  35.372   5.864
 4919POPC   GL162749  26.044  35.388   6.164
 4919POPC   GL262750  26.001  35.463   6.164
 4919POPC   C1A62751  26.021  35.380   6.464
 4919POPC   D2A62752  26.041  35.397   6.764
 4919POPC   C3A62753  26.054  35.397   7.064
 4919POPC   C4A62754  26.090  35.348   7.364
 4919POPC   C1B62755  25.871  35.583   6.464
 4919POPC   C2B62756  25.841  35.520   6.764
 4919POPC   C3B62757  25.846  35.544   7.064
 4919POPC   C4B62758  25.870  35.524   7.364
 4920POPC   NC362759  29.138  42.325   5.564
 4920POPC   PO462760  29.165  42.341   5.864
 4920POPC   GL162761  29.168  42.340   6.164
 4920POPC   GL262762  29.016  42.391   6.164
 4920POPC   C1A62763  29.101  42.348   6.464
 4920POPC   D2A62764  29.186  42.360   6.764
 4920POPC   C3A62765  29.115  42.354   7.064
 4920POPC   C4A62766  29.192  42.342   7.364
 4920POPC   C1B62767  28.897  42.362   6.464
 4920POPC   C2B62768  28.850  42.344   6.764
 4920POPC   C3B62769  28.889  42.312   7.064
 4920POPC   C4B62770  28.887  42.387   7.364
 4921POPC   NC362771  44.674  15.999   5.564
 4921POPC   PO462772  44.665  15.992   5.864
 4921POPC   GL162773  44.685  15.944   6.164
 4921POPC   GL262774  44.718  16.022   6.164
 4921POPC   C1A62775  44.659  15.973   6.464
 4921POPC   D2A62776  44.675  15.951   6.764
 4921POPC   C3A62777  44.627  16.005   7.064
 4921POPC   C4A62778  44.688  15.955   7.364
 4921POPC   C1B62779  44.774  16.182   6.464
 4921POPC   C2B62780  44.818  16.190   6.764
 4921POPC   C3B62781  44.797  16.204   7.064
 4921POPC   C4B62782  44.798  16.183   7.364
 4922POPC   NC362783   8.240  17.504   5.564
 4922POPC   PO462784   8.230  17.503   5.864
 4922POPC   GL162785   8.165  17.547   6.164
 4922POPC   GL262786   8.254  17.661   6.164
 4922POPC   C1A62787   8.167  17.501   6.464
 4922POPC   D2A62788   8.199  17.510   6.764
 4922POPC   C3A62789   8.234  17.515   7.064
 4922POPC   C4A62790   8.193  17.556   7.364
 4922POPC   C1B62791   8.287  17.727   6.464
 4922POPC   C2B62792   8.272  17.713   6.764
 4922POPC   C3B62793   8.249  17.759   7.064
 4922POPC   C4B62794   8.279  17.762   7.364
 4923POPC   NC362795  33.046  22.971   5.564
 4923POPC   PO462796  32.975  22.966   5.864
 4923POPC   GL162797  33.059  22.968   6.164
 4923POPC   GL262798  33.189  23.013   6.164
 4923POPC   C1A62799  32.986  22.920   6.464
 4923POPC   D2A62800  32.993  22.971   6.764
 4923POPC   C3A62801  33.026  22.963   7.064
 4923POPC   C4A62802  33.033  22.953   7.364
 4923POPC   C1B62803  33.236  22.982   6.464
 4923POPC   C2B62804  33.281  22.982   6.764
 4923POPC   C3B62805  33.265  22.984   7.064
 4923POPC   C4B62806  33.307  23.073   7.364
 4924POPC   NC362807   5.833  30.717   5.564
 4924POPC   PO462808   5.871  30.711   5.864
 4924POPC   GL162809   5.870  30.691   6.164
 4924POPC   GL262810   5.855  30.788   6.164
 4924POPC   C1A62811   5.872  30.698   6.464
 4924POPC   D2A62812   5.832  30.674   6.764
 4924POPC   C3A62813   5.905  30.662   7.064
 4924POPC   C4A62814   5.900  30.735   7.364
 4924POPC   C1B62815   5.818  30.958   6.464
 4924POPC   C2B62816   5.835  30.964   6.764
 4924POPC   C3B62817   5.856  30.989   7.064
 4924POPC   C4B62818   5.893  30.898   7.364
 4925POPC   NC362819  12.124   6.632   5.564
 4925POPC   PO462820  12.079   6.633   5.864
 4925POPC   GL162821  12.118   6.694   6.164
 4925POPC   GL262822  12.163   6.753   6.164
 4925POPC   C1A62823  12.027   6.621   6.464
 4925POPC   D2A62824  12.107   6.672   6.764
 4925POPC   C3A62825  12.113   6.627   7.064
 4925POPC   C4A62826  12.120   6.620   7.364
 4925POPC   C1B62827  12.125   6.903   6.464
 4925POPC   C2B62828  12.138   6.883   6.764
 4925POPC   C3B62829  12.192   6.910   7.064
 4925POPC   C4B62830  12.148   6.904   7.364
 4926POPC   NC362831  36.917  35.302   5.564
 4926POPC   PO462832  36.895  35.400   5.864
 4926POPC   GL162833  36.877  35.334   6.164
 4926POPC   GL262834  37.008  35.273   6.164
 4926POPC   C1A62835  36.905  35.351   6.464
 4926POPC   D2A62836  36.928  35.304   6.764
 4926POPC   C3A62837  36.886  35.325   7.064
 4926POPC   C4A62838  36.858  35.360   7.364
 4926POPC   C1B62839  37.089  35.255   6.464
 4926POPC   C2B62840  37.101  35.226   6.764
 4926POPC   C3B62841  37.126  35.251   7.064
 4926POPC   C4B62842  37.123  35.310   7.364
 4927POPC   NC362843  34.539   8.964   5.564
 4927POPC   PO462844  34.552   8.943   5.864
 4927POPC   GL162845  34.602   8.999   6.164
 4927POPC   GL262846  34.503   8.901   6.164
 4927POPC   C1A62847  34.545   8.967   6.464
 4927POPC   D2A62848  34.583   8.972   6.764
 4927POPC   C3A62849  34.589   8.970   7.064
 4927POPC   C4A62850  34.556   8.928   7.364
 4927POPC   C1B62851  34.313   8.874   6.464
 4927POPC   C2B62852  34.332   8.851   6.764
 4927POPC   C3B62853  34.386   8.804   7.064
 4927POPC   C4B62854  34.380   8.810   7.364
 4928POPC   NC362855   4.347  13.610   5.564
 4928POPC   PO462856   4.315  13.606   5.864
 4928POPC   GL162857   4.315  13.655   6.164
 4928POPC   GL262858   4.347  13.508   6.164
 4928POPC   C1A62859   4.279  13.584   6.464
 4928POPC   D2A62860   4.319  13.658   6.764
 4928POPC   C3A62861   4.331  13.607   7.064
 4928POPC   C4A62862   4.347  13.676   7.364
 4928POPC   C1B62863   4.317  13.337   6.464
 4928POPC   C2B62864   4.346  13.420   6.764
 4928POPC   C3B62865   4.310  13.350   7.064
 4928POPC   C4B62866   4.267  13.398   7.364
 4929POPC   NC362867  29.162  12.894   5.564
 4929POPC   PO462868  29.158  12.883   5.864
 4929POPC   GL162869  29.151  12.862   6.164
 4929POPC   GL262870  29.203  12.953   6.164
 4929POPC   C1A62871  29.119  12.808   6.464
 4929POPC   D2A62872  29.153  12.876   6.764
 4929POPC   C3A62873  29.165  12.818   7.064
 4929POPC   C4A62874  29.182  12.814   7.364
 4929POPC   C1B62875  29.274  13.080   6.464
 4929POPC   C2B62876  29.303  13.066   6.764
 4929POPC   C3B62877  29.333  13.012   7.064
 4929POPC   C4B62878  29.306  13.081   7.364
 4930POPC   NC362879  30.739  43.124   5.564
 4930POPC   PO462880  30.672  43.146   5.864
 4930POPC   GL162881  30.660  43.129   6.164
 4930POPC   GL262882  30.749  43.200   6.164
 4930POPC   C1A62883  30.662  43.125   6.464
 4930POPC   D2A62884  30.648  43.123   6.764
 4930POPC   C3A62885  30.665  43.115   7.064
 4930POPC   C4A62886  30.649  43.155   7.364
 4930POPC   C1B62887  30.750  43.402   6.464
 4930POPC   C2B62888  30.781  43.372   6.764
 4930POPC   C3B62889  30.724  43.365   7.064
 4930POPC   C4B62890  30.757  43.400   7.364
 4931POPC   NC362891  33.066  32.978   5.564
 4931POPC   PO462892  33.007  33.043   5.864
 4931POPC   GL162893  33.059  33.044   6.164
 4931POPC   GL262894  32.941  33.157   6.164
 4931POPC   C1A62895  32.991  32.981   6.464
 4931POPC   D2A62896  33.071  33.027   6.764
 4931POPC   C3A62897  33.046  33.047   7.064
 4931POPC   C4A62898  33.041  32.986   7.364
 4931POPC   C1B62899  32.920  33.203   6.464
 4931POPC   C2B62900  32.923  33.287   6.764
 4931POPC   C3B62901  32.854  33.234   7.064
 4931POPC   C4B62902  32.897  33.226   7.364
 4932POPC   NC362903  19.840  12.890   5.564
 4932POPC   PO462904  19.811  12.833   5.864
 4932POPC   GL162905  19.854  12.894   6.164
 4932POPC   GL262906  19.881  12.763   6.164
 4932POPC   C1A62907  19.819  12.824   6.464
 4932POPC   D2A62908  19.832  12.845   6.764
 4932POPC   C3A62909  19.808  12.839   7.064
 4932POPC   C4A62910  19.792  12.838   7.364
 4932POPC   C1B62911  20.025  12.681   6.464
 4932POPC   C2B62912  20.012  12.676   6.764
 4932POPC   C3B62913  19.986  12.652   7.064
 4932POPC   C4B62914  19.979  12.715   7.364
 4933POPC   NC362915   9.779  28.385   5.564
 4933POPC   PO462916   9.707  28.348   5.864
 4933POPC   GL162917   9.794  28.368   6.164
 4933POPC   GL262918   9.855  28.361   6.164
 4933POPC   C1A62919   9.794  28.380   6.464
 4933POPC   D2A62920   9.762  28.412   6.764
 4933POPC   C3A62921   9.708  28.360   7.064
 4933POPC   C4A62922   9.758  28.391   7.364
 4933POPC   C1B62923   9.963  28.420   6.464
 4933POPC   C2B62924  10.033  28.470   6.764
 4933POPC   C3B62925   9.948  28.399   7.064
 4933POPC   C4B62926   9.943  28.460   7.364
 4934POPC   NC362927  36.909  28.366   5.564
 4934POPC   PO462928  36.930  28.383   5.864
 4934POPC   GL162929  36.920  28.348   6.164
 4934POPC   GL262930  36.927  28.224   6.164
 4934POPC   C1A62931  36.859  28.363   6.464
 4934POPC   D2A62932  36.947  28.404   6.764
 4934POPC   C3A62933  36.953  28.330   7.064
 4934POPC   C4A62934  36.943  28.389   7.364
 4934POPC   C1B62935  36.952  28.152   6.464
 4934POPC   C2B62936  36.967  28.106   6.764
 4934POPC   C3B62937  36.902  28.075   7.064
 4934POPC   C4B62938  36.992  28.081   7.364
 4935POPC   NC362939  33.809   4.337   5.564
 4935POPC   PO462940  33.838   4.338   5.864
 4935POPC   GL162941  33.805   4.365   6.164
 4935POPC   GL262942  33.795   4.220   6.164
 4935POPC   C1A62943  33.784   4.301   6.464
 4935POPC   D2A62944  33.756   4.361   6.764
 4935POPC   C3A62945  33.789   4.313   7.064
 4935POPC   C4A62946  33.771   4.318   7.364
 4935POPC   C1B62947  33.719   4.056   6.464
 4935POPC   C2B62948  33.702   4.062   6.764
 4935POPC   C3B62949  33.708   4.044   7.064
 4935POPC   C4B62950  33.732   4.065   7.364
 4936POPC   NC362951  31.508   1.174   5.564
 4936POPC   PO462952  31.468   1.206   5.864
 4936POPC   GL162953  31.483   1.223   6.164
 4936POPC   GL262954  31.345   1.116   6.164
 4936POPC   C1A62955  31.460   1.178   6.464
 4936POPC   D2A62956  31.467   1.209   6.764
 4936POPC   C3A62957  31.514   1.214   7.064
 4936POPC   C4A62958  31.423   1.242   7.364
 4936POPC   C1B62959  31.267   1.075   6.464
 4936POPC   C2B62960  31.248   1.067   6.764
 4936POPC   C3B62961  31.343   1.065   7.064
 4936POPC   C4B62962  31.255   1.022   7.364
 4937POPC   NC362963   4.347  21.417   5.564
 4937POPC   PO462964   4.321  21.350   5.864
 4937POPC   GL162965   4.362  21.385   6.164
 4937POPC   GL262966   4.436  21.421   6.164
 4937POPC   C1A62967   4.328  21.373   6.464
 4937POPC   D2A62968   4.342  21.397   6.764
 4937POPC   C3A62969   4.307  21.369   7.064
 4937POPC   C4A62970   4.359  21.381   7.364
 4937POPC   C1B62971   4.512  21.552   6.464
 4937POPC   C2B62972   4.494  21.539   6.764
 4937POPC   C3B62973   4.514  21.549   7.064
 4937POPC   C4B62974   4.490  21.524   7.364
 4938POPC   NC362975  31.462  16.741   5.564
 4938POPC   PO462976  31.467  16.767   5.864
 4938POPC   GL162977  31.506  16.735   6.164
 4938POPC   GL262978  31.567  16.778   6.164
 4938POPC   C1A62979  31.487  16.779   6.464
 4938POPC   D2A62980  31.505  16.760   6.764
 4938POPC   C3A62981  31.512  16.768   7.064
 4938POPC   C4A62982  31.496  16.701   7.364
 4938POPC   C1B62983  31.706  16.844   6.464
 4938POPC   C2B62984  31.670  16.848   6.764
 4938POPC   C3B62985  31.669  16.836   7.064
 4938POPC   C4B62986  31.694  16.828   7.364
 4939POPC   NC362987  36.120  21.344   5.564
 4939POPC   PO462988  36.103  21.394   5.864
 4939POPC   GL162989  36.082  21.403   6.164
 4939POPC   GL262990  35.986  21.404   6.164
 4939POPC   C1A62991  36.165  21.372   6.464
 4939POPC   D2A62992  36.148  21.382   6.764
 4939POPC   C3A62993  36.122  21.383   7.064
 4939POPC   C4A62994  36.106  21.344   7.364
 4939POPC   C1B62995  35.869  21.389   6.464
 4939POPC   C2B62996  35.858  21.377   6.764
 4939POPC   C3B62997  35.878  21.417   7.064
 4939POPC   C4B62998  35.856  21.420   7.364
 4940POPC   NC362999  41.552   2.787   5.564
 4940POPC   PO463000  41.607   2.743   5.864
 4940POPC   GL163001  41.592   2.787   6.164
 4940POPC   GL263002  41.471   2.780   6.164
 4940POPC   C1A63003  41.599   2.725   6.464
 4940POPC   D2A63004  41.596   2.799   6.764
 4940POPC   C3A63005  41.579   2.758   7.064
 4940POPC   C4A63006  41.545   2.777   7.364
 4940POPC   C1B63007  41.338   2.872   6.464
 4940POPC   C2B63008  41.288   2.878   6.764
 4940POPC   C3B63009  41.286   2.821   7.064
 4940POPC   C4B63010  41.303   2.854   7.364
 4941POPC   NC363011  25.995   0.441   5.564
 4941POPC   PO463012  26.044   0.433   5.864
 4941POPC   GL163013  26.051   0.472   6.164
 4941POPC   GL263014  26.080   0.538   6.164
 4941POPC   C1A63015  26.025   0.478   6.464
 4941POPC   D2A63016  26.070   0.483   6.764
 4941POPC   C3A63017  26.062   0.466   7.064
 4941POPC   C4A63018  26.045   0.392   7.364
 4941POPC   C1B63019  26.072   0.695   6.464
 4941POPC   C2B63020  26.098   0.686   6.764
 4941POPC   C3B63021  26.008   0.726   7.064
 4941POPC   C4B63022  26.087   0.660   7.364
 4942POPC   NC363023  19.106  12.092   5.564
 4942POPC   PO463024  19.023  12.091   5.864
 4942POPC   GL163025  19.081  12.098   6.164
 4942POPC   GL263026  18.969  11.998   6.164
 4942POPC   C1A63027  19.037  12.110   6.464
 4942POPC   D2A63028  19.059  12.051   6.764
 4942POPC   C3A63029  19.068  12.107   7.064
 4942POPC   C4A63030  19.091  12.112   7.364
 4942POPC   C1B63031  18.926  11.794   6.464
 4942POPC   C2B63032  18.929  11.862   6.764
 4942POPC   C3B63033  18.941  11.864   7.064
 4942POPC   C4B63034  18.977  11.834   7.364
 4943POPC   NC363035   3.523  20.605   5.564
 4943POPC   PO463036   3.545  20.636   5.864
 4943POPC   GL163037   3.499  20.595   6.164
 4943POPC   GL263038   3.541  20.516   6.164
 4943POPC   C1A63039   3.493  20.616   6.464
 4943POPC   D2A63040   3.528  20.645   6.764
 4943POPC   C3A63041   3.501  20.605   7.064
 4943POPC   C4A63042   3.551  20.630   7.364
 4943POPC   C1B63043   3.458  20.351   6.464
 4943POPC   C2B63044   3.424  20.390   6.764
 4943POPC   C3B63045   3.466  20.362   7.064
 4943POPC   C4B63046   3.462  20.332   7.364
 4944POPC   NC363047  18.268  12.091   5.564
 4944POPC   PO463048  18.298  12.039   5.864
 4944POPC   GL163049  18.313  12.089   6.164
 4944POPC   GL263050  18.218  12.225   6.164
 4944POPC   C1A63051  18.278  12.119   6.464
 4944POPC   D2A63052  18.243  12.103   6.764
 4944POPC   C3A63053  18.234  12.120   7.064
 4944POPC   C4A63054  18.297  12.090   7.364
 4944POPC   C1B63055  18.264  12.328   6.464
 4944POPC   C2B63056  18.267  12.358   6.764
 4944POPC   C3B63057  18.236  12.311   7.064
 4944POPC   C4B63058  18.190  12.272   7.364
 4945POPC   NC363059  20.614  23.671   5.564
 4945POPC   PO463060  20.561  23.764   5.864
 4945POPC   GL163061  20.635  23.672   6.164
 4945POPC   GL263062  20.759  23.797   6.164
 4945POPC   C1A63063  20.582  23.708   6.464
 4945POPC   D2A63064  20.621  23.735   6.764
 4945POPC   C3A63065  20.641  23.702   7.064
 4945POPC   C4A63066  20.627  23.732   7.364
 4945POPC   C1B63067  20.797  23.794   6.464
 4945POPC   C2B63068  20.892  23.817   6.764
 4945POPC   C3B63069  20.815  23.767   7.064
 4945POPC   C4B63070  20.798  23.822   7.364
 4946POPC   NC363071  21.413  28.395   5.564
 4946POPC   PO463072  21.413  28.397   5.864
 4946POPC   GL163073  21.349  28.417   6.164
 4946POPC   GL263074  21.482  28.403   6.164
 4946POPC   C1A63075  21.430  28.397   6.464
 4946POPC   D2A63076  21.406  28.393   6.764
 4946POPC   C3A63077  21.390  28.346   7.064
 4946POPC   C4A63078  21.395  28.370   7.364
 4946POPC   C1B63079  21.591  28.578   6.464
 4946POPC   C2B63080  21.602  28.492   6.764
 4946POPC   C3B63081  21.606  28.566   7.064
 4946POPC   C4B63082  21.575  28.517   7.364
 4947POPC   NC363083  35.377  32.254   5.564
 4947POPC   PO463084  35.360  32.220   5.864
 4947POPC   GL163085  35.371  32.286   6.164
 4947POPC   GL263086  35.430  32.208   6.164
 4947POPC   C1A63087  35.324  32.235   6.464
 4947POPC   D2A63088  35.351  32.292   6.764
 4947POPC   C3A63089  35.372  32.239   7.064
 4947POPC   C4A63090  35.376  32.281   7.364
 4947POPC   C1B63091  35.584  32.151   6.464
 4947POPC   C2B63092  35.582  32.214   6.764
 4947POPC   C3B63093  35.593  32.157   7.064
 4947POPC   C4B63094  35.542  32.182   7.364
 4948POPC   NC363095  43.141  31.500   5.564
 4948POPC   PO463096  43.135  31.448   5.864
 4948POPC   GL163097  43.131  31.446   6.164
 4948POPC   GL263098  43.173  31.335   6.164
 4948POPC   C1A63099  43.145  31.504   6.464
 4948POPC   D2A63100  43.118  31.466   6.764
 4948POPC   C3A63101  43.095  31.483   7.064
 4948POPC   C4A63102  43.125  31.516   7.364
 4948POPC   C1B63103  43.137  31.204   6.464
 4948POPC   C2B63104  43.132  31.277   6.764
 4948POPC   C3B63105  43.195  31.265   7.064
 4948POPC   C4B63106  43.222  31.258   7.364
 4949POPC   NC363107  37.631  16.705   5.564
 4949POPC   PO463108  37.647  16.735   5.864
 4949POPC   GL163109  37.655  16.736   6.164
 4949POPC   GL263110  37.765  16.664   6.164
 4949POPC   C1A63111  37.677  16.772   6.464
 4949POPC   D2A63112  37.710  16.693   6.764
 4949POPC   C3A63113  37.705  16.755   7.064
 4949POPC   C4A63114  37.695  16.738   7.364
 4949POPC   C1B63115  37.785  16.513   6.464
 4949POPC   C2B63116  37.741  16.523   6.764
 4949POPC   C3B63117  37.728  16.492   7.064
 4949POPC   C4B63118  37.789  16.523   7.364
 4950POPC   NC363119  26.060  22.112   5.564
 4950POPC   PO463120  26.055  22.190   5.864
 4950POPC   GL163121  26.013  22.149   6.164
 4950POPC   GL263122  25.905  22.056   6.164
 4950POPC   C1A63123  26.077  22.187   6.464
 4950POPC   D2A63124  26.078  22.154   6.764
 4950POPC   C3A63125  26.032  22.195   7.064
 4950POPC   C4A63126  26.053  22.171   7.364
 4950POPC   C1B63127  25.877  21.972   6.464
 4950POPC   C2B63128  25.868  22.005   6.764
 4950POPC   C3B63129  25.826  21.995   7.064
 4950POPC   C4B63130  25.832  21.953   7.364
 4951POPC   NC363131  29.970  10.503   5.564
 4951POPC   PO463132  29.929  10.543   5.864
 4951POPC   GL163133  29.917  10.524   6.164
 4951POPC   GL263134  29.814  10.599   6.164
 4951POPC   C1A63135  29.905  10.481   6.464
 4951POPC   D2A63136  29.932  10.498   6.764
 4951POPC   C3A63137  29.926  10.498   7.064
 4951POPC   C4A63138  29.966  10.548   7.364
 4951POPC   C1B63139  29.759  10.631   6.464
 4951POPC   C2B63140  29.705  10.659   6.764
 4951POPC   C3B63141  29.711  10.636   7.064
 4951POPC   C4B63142  29.760  10.630   7.364
 4952POPC   NC363143  36.888  22.140   5.564
 4952POPC   PO463144  36.950  22.182   5.864
 4952POPC   GL163145  36.876  22.130   6.164
 4952POPC   GL263146  36.830  22.137   6.164
 4952POPC   C1A63147  36.892  22.198   6.464
 4952POPC   D2A63148  36.871  22.207   6.764
 4952POPC   C3A63149  36.929  22.126   7.064
 4952POPC   C4A63150  36.919  22.185   7.364
 4952POPC   C1B63151  36.689  22.140   6.464
 4952POPC   C2B63152  36.617  22.127   6.764
 4952POPC   C3B63153  36.688  22.124   7.064
 4952POPC   C4B63154  36.673  22.153   7.364
 4953POPC   NC363155   8.941  40.771   5.564
 4953POPC   PO463156   8.995  40.799   5.864
 4953POPC   GL163157   8.956  40.801   6.164
 4953POPC   GL263158   9.086  40.725   6.164
 4953POPC   C1A63159   9.015  40.749   6.464
 4953POPC   D2A63160   8.951  40.748   6.764
 4953POPC   C3A63161   8.997  40.758   7.064
 4953POPC   C4A63162   8.929  40.781   7.364
 4953POPC   C1B63163   9.180  40.660   6.464
 4953POPC   C2B63164   9.193  40.698   6.764
 4953POPC   C3B63165   9.188  40.720   7.064
 4953POPC   C4B63166   9.226  40.733   7.364
 4954POPC   NC363167   5.133   2.021   5.564
 4954POPC   PO463168   5.103   2.010   5.864
 4954POPC   GL163169   5.127   2.002   6.164
 4954POPC   GL263170   5.121   1.852   6.164
 4954POPC   C1A63171   5.090   2.027   6.464
 4954POPC   D2A63172   5.086   1.961   6.764
 4954POPC   C3A63173   5.137   1.987   7.064
 4954POPC   C4A63174   5.062   2.005   7.364
 4954POPC   C1B63175   5.238   1.761   6.464
 4954POPC   C2B63176   5.276   1.795   6.764
 4954POPC   C3B63177   5.269   1.772   7.064
 4954POPC   C4B63178   5.189   1.773   7.364
 4955POPC   NC363179  19.065  14.398   5.564
 4955POPC   PO463180  19.074  14.447   5.864
 4955POPC   GL163181  19.102  14.378   6.164
 4955POPC   GL263182  18.958  14.274   6.164
 4955POPC   C1A63183  19.078  14.367   6.464
 4955POPC   D2A63184  19.066  14.417   6.764
 4955POPC   C3A63185  19.026  14.449   7.064
 4955POPC   C4A63186  19.015  14.366   7.364
 4955POPC   C1B63187  18.859  14.208   6.464
 4955POPC   C2B63188  18.877  14.211   6.764
 4955POPC   C3B63189  18.855  14.264   7.064
 4955POPC   C4B63190  18.829  14.226   7.364
 4956POPC   NC363191  40.824  42.299   5.564
 4956POPC   PO463192  40.773  42.307   5.864
 4956POPC   GL163193  40.786  42.294   6.164
 4956POPC   GL263194  40.861  42.304   6.164
 4956POPC   C1A63195  40.783  42.381   6.464
 4956POPC   D2A63196  40.822  42.327   6.764
 4956POPC   C3A63197  40.772  42.297   7.064
 4956POPC   C4A63198  40.762  42.312   7.364
 4956POPC   C1B63199  41.036  42.255   6.464
 4956POPC   C2B63200  40.987  42.258   6.764
 4956POPC   C3B63201  41.047  42.275   7.064
 4956POPC   C4B63202  41.051  42.229   7.364
 4957POPC   NC363203  13.648  34.565   5.564
 4957POPC   PO463204  13.606  34.576   5.864
 4957POPC   GL163205  13.586  34.606   6.164
 4957POPC   GL263206  13.721  34.524   6.164
 4957POPC   C1A63207  13.620  34.609   6.464
 4957POPC   D2A63208  13.667  34.577   6.764
 4957POPC   C3A63209  13.592  34.594   7.064
 4957POPC   C4A63210  13.610  34.579   7.364
 4957POPC   C1B63211  13.867  34.558   6.464
 4957POPC   C2B63212  13.918  34.527   6.764
 4957POPC   C3B63213  13.891  34.518   7.064
 4957POPC   C4B63214  13.854  34.539   7.364
 4958POPC   NC363215  16.716  21.384   5.564
 4958POPC   PO463216  16.717  21.413   5.864
 4958POPC   GL163217  16.707  21.379   6.164
 4958POPC   GL263218  16.786  21.322   6.164
 4958POPC   C1A63219  16.713  21.427   6.464
 4958POPC   D2A63220  16.771  21.397   6.764
 4958POPC   C3A63221  16.698  21.369   7.064
 4958POPC   C4A63222  16.731  21.383   7.364
 4958POPC   C1B63223  16.856  21.212   6.464
 4958POPC   C2B63224  16.921  21.161   6.764
 4958POPC   C3B63225  16.895  21.165   7.064
 4958POPC   C4B63226  16.864  21.196   7.364
 4959POPC   NC363227  19.076  26.038   5.564
 4959POPC   PO463228  19.059  26.055   5.864
 4959POPC   GL163229  19.017  26.004   6.164
 4959POPC   GL263230  19.064  26.135   6.164
 4959POPC   C1A63231  19.094  26.075   6.464
 4959POPC   D2A63232  19.091  26.056   6.764
 4959POPC   C3A63233  19.034  25.998   7.064
 4959POPC   C4A63234  19.092  26.021   7.364
 4959POPC   C1B63235  19.025  26.313   6.464
 4959POPC   C2B63236  19.026  26.261   6.764
 4959POPC   C3B63237  19.002  26.261   7.064
 4959POPC   C4B63238  18.967  26.263   7.364
 4960POPC   NC363239  20.612  18.264   5.564
 4960POPC   PO463240  20.628  18.281   5.864
 4960POPC   GL163241  20.618  18.294   6.164
 4960POPC   GL263242  20.770  18.284   6.164
 4960POPC   C1A63243  20.654  18.313   6.464
 4960POPC   D2A63244  20.621  18.328   6.764
 4960POPC   C3A63245  20.646  18.303   7.064
 4960POPC   C4A63246  20.638  18.301   7.364
 4960POPC   C1B63247  20.830  18.285   6.464
 4960POPC   C2B63248  20.812  18.333   6.764
 4960POPC   C3B63249  20.839  18.293   7.064
 4960POPC   C4B63250  20.827  18.340   7.364
 4961POPC   NC363251   3.560  29.185   5.564
 4961POPC   PO463252   3.502  29.138   5.864
 4961POPC   GL163253   3.504  29.160   6.164
 4961POPC   GL263254   3.594  28.989   6.164
 4961POPC   C1A63255   3.498  29.144   6.464
 4961POPC   D2A63256   3.543  29.133   6.764
 4961POPC   C3A63257   3.548  29.119   7.064
 4961POPC   C4A63258   3.544  29.163   7.364
 4961POPC   C1B63259   3.609  28.912   6.464
 4961POPC   C2B63260   3.587  28.866   6.764
 4961POPC   C3B63261   3.573  28.876   7.064
 4961POPC   C4B63262   3.611  28.883   7.364
 4962POPC   NC363263   9.004  13.630   5.564
 4962POPC   PO463264   8.936  13.605   5.864
 4962POPC   GL163265   8.925  13.591   6.164
 4962POPC   GL263266   9.062  13.535   6.164
 4962POPC   C1A63267   9.010  13.610   6.464
 4962POPC   D2A63268   8.923  13.590   6.764
 4962POPC   C3A63269   9.012  13.623   7.064
 4962POPC   C4A63270   8.923  13.664   7.364
 4962POPC   C1B63271   9.160  13.508   6.464
 4962POPC   C2B63272   9.180  13.495   6.764
 4962POPC   C3B63273   9.166  13.500   7.064
 4962POPC   C4B63274   9.201  13.497   7.364
 4963POPC   NC363275  21.341  12.113   5.564
 4963POPC   PO463276  21.417  12.089   5.864
 4963POPC   GL163277  21.427  12.047   6.164
 4963POPC   GL263278  21.478  12.025   6.164
 4963POPC   C1A63279  21.432  12.086   6.464
 4963POPC   D2A63280  21.399  12.094   6.764
 4963POPC   C3A63281  21.419  12.063   7.064
 4963POPC   C4A63282  21.410  12.095   7.364
 4963POPC   C1B63283  21.591  11.922   6.464
 4963POPC   C2B63284  21.563  11.911   6.764
 4963POPC   C3B63285  21.590  11.910   7.064
 4963POPC   C4B63286  21.601  11.936   7.364
 4964POPC   NC363287  15.957   2.027   5.564
 4964POPC   PO463288  15.971   2.014   5.864
 4964POPC   GL163289  15.971   2.022   6.164
 4964POPC   GL263290  15.964   1.852   6.164
 4964POPC   C1A63291  15.989   1.981   6.464
 4964POPC   D2A63292  15.958   2.038   6.764
 4964POPC   C3A63293  15.932   2.011   7.064
 4964POPC   C4A63294  15.985   2.008   7.364
 4964POPC   C1B63295  15.915   1.728   6.464
 4964POPC   C2B63296  15.947   1.697   6.764
 4964POPC   C3B63297  15.923   1.792   7.064
 4964POPC   C4B63298  15.897   1.791   7.364
 4965POPC   NC363299  21.436   0.431   5.564
 4965POPC   PO463300  21.367   0.463   5.864
 4965POPC   GL163301  21.402   0.435   6.164
 4965POPC   GL263302  21.295   0.350   6.164
 4965POPC   C1A63303  21.397   0.413   6.464
 4965POPC   D2A63304  21.379   0.405   6.764
 4965POPC   C3A63305  21.367   0.467   7.064
 4965POPC   C4A63306  21.380   0.415   7.364
 4965POPC   C1B63307  21.192   0.271   6.464
 4965POPC   C2B63308  21.204   0.303   6.764
 4965POPC   C3B63309  21.163   0.297   7.064
 4965POPC   C4B63310  21.216   0.266   7.364
 4966POPC   NC363311   5.129  15.955   5.564
 4966POPC   PO463312   5.077  15.960   5.864
 4966POPC   GL163313   5.116  15.961   6.164
 4966POPC   GL263314   4.996  16.026   6.164
 4966POPC   C1A63315   5.137  15.914   6.464
 4966POPC   D2A63316   5.121  15.969   6.764
 4966POPC   C3A63317   5.137  15.930   7.064
 4966POPC   C4A63318   5.133  15.930   7.364
 4966POPC   C1B63319   4.910  16.092   6.464
 4966POPC   C2B63320   4.828  16.067   6.764
 4966POPC   C3B63321   4.843  16.069   7.064
 4966POPC   C4B63322   4.831  16.041   7.364
 4967POPC   NC363323  40.825  36.133   5.564
 4967POPC   PO463324  40.756  36.095   5.864
 4967POPC   GL163325  40.832  36.172   6.164
 4967POPC   GL263326  40.698  36.138   6.164
 4967POPC   C1A63327  40.757  36.139   6.464
 4967POPC   D2A63328  40.747  36.163   6.764
 4967POPC   C3A63329  40.774  36.121   7.064
 4967POPC   C4A63330  40.793  36.120   7.364
 4967POPC   C1B63331  40.569  36.210   6.464
 4967POPC   C2B63332  40.570  36.194   6.764
 4967POPC   C3B63333  40.542  36.273   7.064
 4967POPC   C4B63334  40.504  36.206   7.364
 4968POPC   NC363335  32.978   7.399   5.564
 4968POPC   PO463336  32.980   7.412   5.864
 4968POPC   GL163337  33.066   7.375   6.164
 4968POPC   GL263338  32.896   7.488   6.164
 4968POPC   C1A63339  33.037   7.425   6.464
 4968POPC   D2A63340  33.050   7.431   6.764
 4968POPC   C3A63341  32.984   7.376   7.064
 4968POPC   C4A63342  33.073   7.416   7.364
 4968POPC   C1B63343  32.781   7.594   6.464
 4968POPC   C2B63344  32.825   7.608   6.764
 4968POPC   C3B63345  32.849   7.565   7.064
 4968POPC   C4B63346  32.836   7.542   7.364
 4969POPC   NC363347  33.782  15.157   5.564
 4969POPC   PO463348  33.832  15.159   5.864
 4969POPC   GL163349  33.760  15.171   6.164
 4969POPC   GL263350  33.935  15.159   6.164
 4969POPC   C1A63351  33.764  15.228   6.464
 4969POPC   D2A63352  33.846  15.181   6.764
 4969POPC   C3A63353  33.804  15.212   7.064
 4969POPC   C4A63354  33.762  15.186   7.364
 4969POPC   C1B63355  34.025  15.224   6.464
 4969POPC   C2B63356  34.003  15.229   6.764
 4969POPC   C3B63357  34.098  15.183   7.064
 4969POPC   C4B63358  34.052  15.131   7.364
 4970POPC   NC363359  15.963  43.064   5.564
 4970POPC   PO463360  15.931  43.143   5.864
 4970POPC   GL163361  15.948  43.135   6.164
 4970POPC   GL263362  15.896  43.236   6.164
 4970POPC   C1A63363  15.932  43.081   6.464
 4970POPC   D2A63364  15.912  43.096   6.764
 4970POPC   C3A63365  15.966  43.107   7.064
 4970POPC   C4A63366  15.935  43.144   7.364
 4970POPC   C1B63367  15.810  43.292   6.464
 4970POPC   C2B63368  15.771  43.311   6.764
 4970POPC   C3B63369  15.781  43.357   7.064
 4970POPC   C4B63370  15.836  43.277   7.364
 4971POPC   NC363371  37.655  40.003   5.564
 4971POPC   PO463372  37.695  40.022   5.864
 4971POPC   GL163373  37.667  40.002   6.164
 4971POPC   GL263374  37.768  39.998   6.164
 4971POPC   C1A63375  37.666  39.967   6.464
 4971POPC   D2A63376  37.701  40.052   6.764
 4971POPC   C3A63377  37.655  40.039   7.064
 4971POPC   C4A63378  37.709  40.029   7.364
 4971POPC   C1B63379  37.896  40.007   6.464
 4971POPC   C2B63380  37.920  40.005   6.764
 4971POPC   C3B63381  37.955  39.996   7.064
 4971POPC   C4B63382  37.914  39.921   7.364
 4972POPC   NC363383  43.881  43.125   5.564
 4972POPC   PO463384  43.927  43.134   5.864
 4972POPC   GL163385  43.933  43.116   6.164
 4972POPC   GL263386  43.833  43.223   6.164
 4972POPC   C1A63387  43.863  43.095   6.464
 4972POPC   D2A63388  43.919  43.089   6.764
 4972POPC   C3A63389  43.889  43.133   7.064
 4972POPC   C4A63390  43.892  43.079   7.364
 4972POPC   C1B63391  43.669  43.244   6.464
 4972POPC   C2B63392  43.714  43.279   6.764
 4972POPC   C3B63393  43.683  43.272   7.064
 4972POPC   C4B63394  43.693  43.256   7.364
 4973POPC   NC363395  25.285  29.890   5.564
 4973POPC   PO463396  25.272  29.956   5.864
 4973POPC   GL163397  25.265  29.951   6.164
 4973POPC   GL263398  25.191  29.862   6.164
 4973POPC   C1A63399  25.254  29.896   6.464
 4973POPC   D2A63400  25.262  29.889   6.764
 4973POPC   C3A63401  25.221  29.908   7.064
 4973POPC   C4A63402  25.271  29.925   7.364
 4973POPC   C1B63403  25.110  29.717   6.464
 4973POPC   C2B63404  25.106  29.686   6.764
 4973POPC   C3B63405  25.144  29.725   7.064
 4973POPC   C4B63406  25.061  29.734   7.364
 4974POPC   NC363407  26.021  12.112   5.564
 4974POPC   PO463408  25.999  12.090   5.864
 4974POPC   GL163409  26.058  12.043   6.164
 4974POPC   GL263410  26.131  12.178   6.164
 4974POPC   C1A63411  26.046  12.071   6.464
 4974POPC   D2A63412  26.021  12.044   6.764
 4974POPC   C3A63413  26.064  12.078   7.064
 4974POPC   C4A63414  26.064  12.042   7.364
 4974POPC   C1B63415  26.299  12.167   6.464
 4974POPC   C2B63416  26.288  12.249   6.764
 4974POPC   C3B63417  26.261  12.190   7.064
 4974POPC   C4B63418  26.278  12.184   7.364
 4975POPC   NC363419  13.627  33.830   5.564
 4975POPC   PO463420  13.653  33.751   5.864
 4975POPC   GL163421  13.619  33.829   6.164
 4975POPC   GL263422  13.475  33.768   6.164
 4975POPC   C1A63423  13.646  33.836   6.464
 4975POPC   D2A63424  13.665  33.788   6.764
 4975POPC   C3A63425  13.636  33.789   7.064
 4975POPC   C4A63426  13.647  33.753   7.364
 4975POPC   C1B63427  13.351  33.721   6.464
 4975POPC   C2B63428  13.355  33.724   6.764
 4975POPC   C3B63429  13.374  33.778   7.064
 4975POPC   C4B63430  13.386  33.739   7.364
 4976POPC   NC363431  30.702   5.845   5.564
 4976POPC   PO463432  30.720   5.880   5.864
 4976POPC   GL163433  30.668   5.872   6.164
 4976POPC   GL263434  30.532   5.838   6.164
 4976POPC   C1A63435  30.706   5.870   6.464
 4976POPC   D2A63436  30.664   5.833   6.764
 4976POPC   C3A63437  30.698   5.834   7.064
 4976POPC   C4A63438  30.738   5.916   7.364
 4976POPC   C1B63439  30.424   5.811   6.464
 4976POPC   C2B63440  30.491   5.795   6.764
 4976POPC   C3B63441  30.442   5.814   7.064
 4976POPC   C4B63442  30.425   5.815   7.364
 4977POPC   NC363443  36.857  44.695   5.564
 4977POPC   PO463444  36.857  44.640   5.864
 4977POPC   GL163445  36.855  44.677   6.164
 4977POPC   GL263446  36.806  44.623   6.164
 4977POPC   C1A63447  36.870  44.698   6.464
 4977POPC   D2A63448  36.859  44.648   6.764
 4977POPC   C3A63449  36.899  44.685   7.064
 4977POPC   C4A63450  36.949  44.620   7.364
 4977POPC   C1B63451  36.694  44.589   6.464
 4977POPC   C2B63452  36.674  44.611   6.764
 4977POPC   C3B63453  36.701  44.576   7.064
 4977POPC   C4B63454  36.688  44.634   7.364
 4978POPC   NC363455  19.059  33.051   5.564
 4978POPC   PO463456  19.078  33.031   5.864
 4978POPC   GL163457  19.100  33.048   6.164
 4978POPC   GL263458  19.207  32.981   6.164
 4978POPC   C1A63459  19.071  33.063   6.464
 4978POPC   D2A63460  19.018  32.994   6.764
 4978POPC   C3A63461  19.030  33.006   7.064
 4978POPC   C4A63462  19.062  33.053   7.364
 4978POPC   C1B63463  19.331  33.003   6.464
 4978POPC   C2B63464  19.291  32.912   6.764
 4978POPC   C3B63465  19.333  32.974   7.064
 4978POPC   C4B63466  19.345  32.967   7.364
 4979POPC   NC363467  44.623  15.148   5.564
 4979POPC   PO463468  44.657  15.228   5.864
 4979POPC   GL163469  44.677  15.199   6.164
 4979POPC   GL263470  44.647  15.061   6.164
 4979POPC   C1A63471  44.647  15.158   6.464
 4979POPC   D2A63472  44.683  15.180   6.764
 4979POPC   C3A63473  44.702  15.148   7.064
 4979POPC   C4A63474  44.671  15.219   7.364
 4979POPC   C1B63475  44.654  14.963   6.464
 4979POPC   C2B63476  44.684  14.924   6.764
 4979POPC   C3B63477  44.683  14.977   7.064
 4979POPC   C4B63478  44.624  14.888   7.364
 4980POPC   NC363479  28.343  27.626   5.564
 4980POPC   PO463480  28.357  27.573   5.864
 4980POPC   GL163481  28.384  27.591   6.164
 4980POPC   GL263482  28.469  27.722   6.164
 4980POPC   C1A63483  28.344  27.623   6.464
 4980POPC   D2A63484  28.372  27.582   6.764
 4980POPC   C3A63485  28.400  27.624   7.064
 4980POPC   C4A63486  28.335  27.581   7.364
 4980POPC   C1B63487  28.496  27.785   6.464
 4980POPC   C2B63488  28.480  27.838   6.764
 4980POPC   C3B63489  28.500  27.842   7.064
 4980POPC   C4B63490  28.515  27.774   7.364
 4981POPC   NC363491  26.816   8.944   5.564
 4981POPC   PO463492  26.817   8.924   5.864
 4981POPC   GL163493  26.817   8.930   6.164
 4981POPC   GL263494  26.870   8.906   6.164
 4981POPC   C1A63495  26.775   8.970   6.464
 4981POPC   D2A63496  26.845   8.928   6.764
 4981POPC   C3A63497  26.821   8.967   7.064
 4981POPC   C4A63498  26.864   8.977   7.364
 4981POPC   C1B63499  26.964   8.755   6.464
 4981POPC   C2B63500  26.946   8.752   6.764
 4981POPC   C3B63501  26.943   8.735   7.064
 4981POPC   C4B63502  26.961   8.784   7.364
 4982POPC   NC363503   9.780  42.295   5.564
 4982POPC   PO463504   9.699  42.335   5.864
 4982POPC   GL163505   9.754  42.320   6.164
 4982POPC   GL263506   9.820  42.296   6.164
 4982POPC   C1A63507   9.745  42.286   6.464
 4982POPC   D2A63508   9.755  42.371   6.764
 4982POPC   C3A63509   9.757  42.298   7.064
 4982POPC   C4A63510   9.702  42.366   7.364
 4982POPC   C1B63511   9.914  42.191   6.464
 4982POPC   C2B63512   9.925  42.140   6.764
 4982POPC   C3B63513   9.910  42.142   7.064
 4982POPC   C4B63514   9.877  42.166   7.364
 4983POPC   NC363515  25.241  33.815   5.564
 4983POPC   PO463516  25.222  33.792   5.864
 4983POPC   GL163517  25.286  33.843   6.164
 4983POPC   GL263518  25.314  33.950   6.164
 4983POPC   C1A63519  25.263  33.830   6.464
 4983POPC   D2A63520  25.286  33.793   6.764
 4983POPC   C3A63521  25.267  33.768   7.064
 4983POPC   C4A63522  25.220  33.790   7.364
 4983POPC   C1B63523  25.392  34.013   6.464
 4983POPC   C2B63524  25.320  34.040   6.764
 4983POPC   C3B63525  25.350  34.051   7.064
 4983POPC   C4B63526  25.366  34.042   7.364
 4984POPC   NC363527  20.617  30.675   5.564
 4984POPC   PO463528  20.656  30.668   5.864
 4984POPC   GL163529  20.634  30.706   6.164
 4984POPC   GL263530  20.720  30.805   6.164
 4984POPC   C1A63531  20.628  30.738   6.464
 4984POPC   D2A63532  20.647  30.675   6.764
 4984POPC   C3A63533  20.565  30.712   7.064
 4984POPC   C4A63534  20.604  30.661   7.364
 4984POPC   C1B63535  20.724  30.911   6.464
 4984POPC   C2B63536  20.789  30.854   6.764
 4984POPC   C3B63537  20.822  30.855   7.064
 4984POPC   C4B63538  20.794  30.896   7.364
 4985POPC   NC363539  31.450  12.861   5.564
 4985POPC   PO463540  31.489  12.874   5.864
 4985POPC   GL163541  31.467  12.857   6.164
 4985POPC   GL263542  31.595  12.917   6.164
 4985POPC   C1A63543  31.495  12.827   6.464
 4985POPC   D2A63544  31.484  12.850   6.764
 4985POPC   C3A63545  31.480  12.836   7.064
 4985POPC   C4A63546  31.510  12.841   7.364
 4985POPC   C1B63547  31.622  13.023   6.464
 4985POPC   C2B63548  31.612  13.056   6.764
 4985POPC   C3B63549  31.613  13.035   7.064
 4985POPC   C4B63550  31.684  12.994   7.364
 4986POPC   NC363551   1.969   8.220   5.564
 4986POPC   PO463552   2.031   8.232   5.864
 4986POPC   GL163553   1.993   8.155   6.164
 4986POPC   GL263554   2.073   8.211   6.164
 4986POPC   C1A63555   2.016   8.176   6.464
 4986POPC   D2A63556   2.038   8.147   6.764
 4986POPC   C3A63557   1.952   8.205   7.064
 4986POPC   C4A63558   2.010   8.237   7.364
 4986POPC   C1B63559   2.221   8.252   6.464
 4986POPC   C2B63560   2.180   8.276   6.764
 4986POPC   C3B63561   2.192   8.341   7.064
 4986POPC   C4B63562   2.207   8.256   7.364
 4987POPC   NC363563  24.529  12.046   5.564
 4987POPC   PO463564  24.515  12.081   5.864
 4987POPC   GL163565  24.468  12.074   6.164
 4987POPC   GL263566  24.418  12.002   6.164
 4987POPC   C1A63567  24.508  12.084   6.464
 4987POPC   D2A63568  24.453  12.026   6.764
 4987POPC   C3A63569  24.449  12.102   7.064
 4987POPC   C4A63570  24.530  12.087   7.364
 4987POPC   C1B63571  24.365  11.812   6.464
 4987POPC   C2B63572  24.453  11.842   6.764
 4987POPC   C3B63573  24.362  11.873   7.064
 4987POPC   C4B63574  24.380  11.812   7.364
 4988POPC   NC363575   2.732  16.740   5.564
 4988POPC   PO463576   2.720  16.733   5.864
 4988POPC   GL163577   2.779  16.717   6.164
 4988POPC   GL263578   2.832  16.762   6.164
 4988POPC   C1A63579   2.733  16.693   6.464
 4988POPC   D2A63580   2.774  16.763   6.764
 4988POPC   C3A63581   2.774  16.730   7.064
 4988POPC   C4A63582   2.785  16.770   7.364
 4988POPC   C1B63583   2.967  16.846   6.464
 4988POPC   C2B63584   3.020  16.832   6.764
 4988POPC   C3B63585   3.030  16.853   7.064
 4988POPC   C4B63586   2.992  16.836   7.364
 4989POPC   NC363587   6.618  27.546   5.564
 4989POPC   PO463588   6.595  27.598   5.864
 4989POPC   GL163589   6.627  27.573   6.164
 4989POPC   GL263590   6.765  27.597   6.164
 4989POPC   C1A63591   6.656  27.620   6.464
 4989POPC   D2A63592   6.635  27.579   6.764
 4989POPC   C3A63593   6.632  27.563   7.064
 4989POPC   C4A63594   6.673  27.594   7.364
 4989POPC   C1B63595   6.858  27.609   6.464
 4989POPC   C2B63596   6.846  27.572   6.764
 4989POPC   C3B63597   6.936  27.655   7.064
 4989POPC   C4B63598   6.942  27.593   7.364
 4990POPC   NC363599  39.253  19.053   5.564
 4990POPC   PO463600  39.198  19.012   5.864
 4990POPC   GL163601  39.221  19.090   6.164
 4990POPC   GL263602  39.361  19.006   6.164
 4990POPC   C1A63603  39.182  19.058   6.464
 4990POPC   D2A63604  39.253  19.065   6.764
 4990POPC   C3A63605  39.278  19.033   7.064
 4990POPC   C4A63606  39.200  19.074   7.364
 4990POPC   C1B63607  39.440  18.986   6.464
 4990POPC   C2B63608  39.493  19.054   6.764
 4990POPC   C3B63609  39.443  19.036   7.064
 4990POPC   C4B63610  39.448  19.058   7.364
 4991POPC   NC363611  43.868   8.208   5.564
 4991POPC   PO463612  43.846   8.153   5.864
 4991POPC   GL163613  43.857   8.164   6.164
 4991POPC   GL263614  43.986   8.305   6.164
 4991POPC   C1A63615  43.911   8.227   6.464
 4991POPC   D2A63616  43.922   8.148   6.764
 4991POPC   C3A63617  43.906   8.170   7.064
 4991POPC   C4A63618  43.842   8.223   7.364
 4991POPC   C1B63619  44.005   8.401   6.464
 4991POPC   C2B63620  44.053   8.380   6.764
 4991POPC   C3B63621  43.985   8.364   7.064
 4991POPC   C4B63622  44.016   8.396   7.364
 4992POPC   NC363623  19.102  33.752   5.564
 4992POPC   PO463624  19.043  33.828   5.864
 4992POPC   GL163625  19.104  33.800   6.164
 4992POPC   GL263626  19.187  33.748   6.164
 4992POPC   C1A63627  19.101  33.813   6.464
 4992POPC   D2A63628  19.030  33.766   6.764
 4992POPC   C3A63629  19.010  33.769   7.064
 4992POPC   C4A63630  19.087  33.825   7.364
 4992POPC   C1B63631  19.235  33.623   6.464
 4992POPC   C2B63632  19.245  33.660   6.764
 4992POPC   C3B63633  19.249  33.667   7.064
 4992POPC   C4B63634  19.288  33.700   7.364
 4993POPC   NC363635   2.785  23.705   5.564
 4993POPC   PO463636   2.721  23.718   5.864
 4993POPC   GL163637   2.799  23.745   6.164
 4993POPC   GL263638   2.756  23.856   6.164
 4993POPC   C1A63639   2.754  23.740   6.464
 4993POPC   D2A63640   2.794  23.706   6.764
 4993POPC   C3A63641   2.811  23.739   7.064
 4993POPC   C4A63642   2.723  23.715   7.364
 4993POPC   C1B63643   2.730  23.945   6.464
 4993POPC   C2B63644   2.760  23.977   6.764
 4993POPC   C3B63645   2.726  24.006   7.064
 4993POPC   C4B63646   2.711  23.972   7.364
 4994POPC   NC363647  25.234  39.242   5.564
 4994POPC   PO463648  25.270  39.225   5.864
 4994POPC   GL163649  25.258  39.190   6.164
 4994POPC   GL263650  25.291  39.130   6.164
 4994POPC   C1A63651  25.245  39.200   6.464
 4994POPC   D2A63652  25.285  39.217   6.764
 4994POPC   C3A63653  25.289  39.187   7.064
 4994POPC   C4A63654  25.242  39.224   7.364
 4994POPC   C1B63655  25.346  38.980   6.464
 4994POPC   C2B63656  25.380  39.009   6.764
 4994POPC   C3B63657  25.422  38.990   7.064
 4994POPC   C4B63658  25.354  39.019   7.364
 4995POPC   NC363659  36.918   8.162   5.564
 4995POPC   PO463660  36.915   8.180   5.864
 4995POPC   GL163661  36.874   8.184   6.164
 4995POPC   GL263662  36.764   8.207   6.164
 4995POPC   C1A63663  36.881   8.229   6.464
 4995POPC   D2A63664  36.897   8.156   6.764
 4995POPC   C3A63665  36.927   8.221   7.064
 4995POPC   C4A63666  36.948   8.239   7.364
 4995POPC   C1B63667  36.668   8.266   6.464
 4995POPC   C2B63668  36.626   8.252   6.764
 4995POPC   C3B63669  36.701   8.287   7.064
 4995POPC   C4B63670  36.622   8.289   7.364
 4996POPC   NC363671  36.896  36.893   5.564
 4996POPC   PO463672  36.934  36.944   5.864
 4996POPC   GL163673  36.874  36.931   6.164
 4996POPC   GL263674  36.933  37.005   6.164
 4996POPC   C1A63675  36.870  36.918   6.464
 4996POPC   D2A63676  36.890  36.932   6.764
 4996POPC   C3A63677  36.889  36.897   7.064
 4996POPC   C4A63678  36.889  36.909   7.364
 4996POPC   C1B63679  36.950  37.131   6.464
 4996POPC   C2B63680  36.982  37.157   6.764
 4996POPC   C3B63681  36.981  37.099   7.064
 4996POPC   C4B63682  36.954  37.163   7.364
 4997POPC   NC363683  13.656  10.474   5.564
 4997POPC   PO463684  13.628  10.571   5.864
 4997POPC   GL163685  13.658  10.509   6.164
 4997POPC   GL263686  13.589  10.389   6.164
 4997POPC   C1A63687  13.597  10.553   6.464
 4997POPC   D2A63688  13.649  10.542   6.764
 4997POPC   C3A63689  13.653  10.514   7.064
 4997POPC   C4A63690  13.655  10.551   7.364
 4997POPC   C1B63691  13.623  10.225   6.464
 4997POPC   C2B63692  13.663  10.302   6.764
 4997POPC   C3B63693  13.625  10.279   7.064
 4997POPC   C4B63694  13.585  10.227   7.364
 4998POPC   NC363695   8.959  34.600   5.564
 4998POPC   PO463696   8.957  34.532   5.864
 4998POPC   GL163697   8.974  34.590   6.164
 4998POPC   GL263698   9.030  34.446   6.164
 4998POPC   C1A63699   8.980  34.571   6.464
 4998POPC   D2A63700   8.993  34.542   6.764
 4998POPC   C3A63701   8.990  34.536   7.064
 4998POPC   C4A63702   9.013  34.597   7.364
 4998POPC   C1B63703   9.039  34.327   6.464
 4998POPC   C2B63704   9.028  34.355   6.764
 4998POPC   C3B63705   9.000  34.307   7.064
 4998POPC   C4B63706   9.059  34.352   7.364
 4999POPC   NC363707  44.628  42.375   5.564
 4999POPC   PO463708  44.690  42.331   5.864
 4999POPC   GL163709  44.632  42.299   6.164
 4999POPC   GL263710  44.638  42.461   6.164
 4999POPC   C1A63711  44.640  42.353   6.464
 4999POPC   D2A63712  44.704  42.370   6.764
 4999POPC   C3A63713  44.646  42.313   7.064
 4999POPC   C4A63714  44.662  42.286   7.364
 4999POPC   C1B63715  44.723  42.545   6.464
 4999POPC   C2B63716  44.686  42.601   6.764
 4999POPC   C3B63717  44.693  42.609   7.064
 4999POPC   C4B63718  44.650  42.601   7.364
 5000POPC   NC363719  16.779  18.285   5.564
 5000POPC   PO463720  16.770  18.283   5.864
 5000POPC   GL163721  16.767  18.247   6.164
 5000POPC   GL263722  16.699  18.431   6.164
 5000POPC   C1A63723  16.722  18.321   6.464
 5000POPC   D2A63724  16.721  18.276   6.764
 5000POPC   C3A63725  16.712  18.297   7.064
 5000POPC   C4A63726  16.693  18.296   7.364
 5000POPC   C1B63727  16.719  18.503   6.464
 5000POPC   C2B63728  16.735  18.495   6.764
 5000POPC   C3B63729  16.717  18.521   7.064
 5000POPC   C4B63730  16.784  18.538   7.364
 5001POPC   NC363731  12.804  40.024   5.564
 5001POPC   PO463732  12.806  40.041   5.864
 5001POPC   GL163733  12.824  39.962   6.164
 5001POPC   GL263734  12.886  40.067   6.164
 5001POPC   C1A63735  12.829  40.051   6.464
 5001POPC   D2A63736  12.860  40.028   6.764
 5001POPC   C3A63737  12.845  40.023   7.064
 5001POPC   C4A63738  12.835  40.048   7.364
 5001POPC   C1B63739  12.927  40.254   6.464
 5001POPC   C2B63740  13.014  40.239   6.764
 5001POPC   C3B63741  12.982  40.226   7.064
 5001POPC   C4B63742  12.923  40.233   7.364
 5002POPC   NC363743   0.484   6.603   5.564
 5002POPC   PO463744   0.389   6.656   5.864
 5002POPC   GL163745   0.436   6.653   6.164
 5002POPC   GL263746   0.370   6.584   6.164
 5002POPC   C1A63747   0.423   6.628   6.464
 5002POPC   D2A63748   0.448   6.602   6.764
 5002POPC   C3A63749   0.412   6.650   7.064
 5002POPC   C4A63750   0.448   6.610   7.364
 5002POPC   C1B63751   0.237   6.483   6.464
 5002POPC   C2B63752   0.236   6.515   6.764
 5002POPC   C3B63753   0.244   6.474   7.064
 5002POPC   C4B63754   0.252   6.493   7.364
 5003POPC   NC363755  38.441  29.185   5.564
 5003POPC   PO463756  38.424  29.135   5.864
 5003POPC   GL163757  38.413  29.154   6.164
 5003POPC   GL263758  38.319  29.254   6.164
 5003POPC   C1A63759  38.452  29.169   6.464
 5003POPC   D2A63760  38.430  29.133   6.764
 5003POPC   C3A63761  38.429  29.101   7.064
 5003POPC   C4A63762  38.417  29.144   7.364
 5003POPC   C1B63763  38.316  29.296   6.464
 5003POPC   C2B63764  38.309  29.269   6.764
 5003POPC   C3B63765  38.259  29.358   7.064
 5003POPC   C4B63766  38.251  29.272   7.364
 5004POPC   NC363767  31.486   3.576   5.564
 5004POPC   PO463768  31.495   3.586   5.864
 5004POPC   GL163769  31.460   3.577   6.164
 5004POPC   GL263770  31.388   3.434   6.164
 5004POPC   C1A63771  31.490   3.559   6.464
 5004POPC   D2A63772  31.462   3.534   6.764
 5004POPC   C3A63773  31.434   3.518   7.064
 5004POPC   C4A63774  31.458   3.549   7.364
 5004POPC   C1B63775  31.237   3.418   6.464
 5004POPC   C2B63776  31.266   3.381   6.764
 5004POPC   C3B63777  31.310   3.400   7.064
 5004POPC   C4B63778  31.283   3.339   7.364
 5005POPC   NC363779   8.949  24.487   5.564
 5005POPC   PO463780   9.021  24.509   5.864
 5005POPC   GL163781   9.022  24.530   6.164
 5005POPC   GL263782   9.057  24.532   6.164
 5005POPC   C1A63783   8.970  24.447   6.464
 5005POPC   D2A63784   8.996  24.512   6.764
 5005POPC   C3A63785   9.011  24.470   7.064
 5005POPC   C4A63786   9.008  24.496   7.364
 5005POPC   C1B63787   9.247  24.497   6.464
 5005POPC   C2B63788   9.211  24.519   6.764
 5005POPC   C3B63789   9.217  24.568   7.064
 5005POPC   C4B63790   9.195  24.513   7.364
 5006POPC   NC363791  21.342  42.323   5.564
 5006POPC   PO463792  21.338  42.378   5.864
 5006POPC   GL163793  21.429  42.325   6.164
 5006POPC   GL263794  21.273  42.413   6.164
 5006POPC   C1A63795  21.373  42.375   6.464
 5006POPC   D2A63796  21.361  42.356   6.764
 5006POPC   C3A63797  21.385  42.326   7.064
 5006POPC   C4A63798  21.351  42.341   7.364
 5006POPC   C1B63799  21.150  42.382   6.464
 5006POPC   C2B63800  21.158  42.447   6.764
 5006POPC   C3B63801  21.114  42.419   7.064
 5006POPC   C4B63802  21.194  42.447   7.364
 5007POPC   NC363803  33.044   2.749   5.564
 5007POPC   PO463804  33.053   2.759   5.864
 5007POPC   GL163805  32.995   2.720   6.164
 5007POPC   GL263806  32.987   2.865   6.164
 5007POPC   C1A63807  33.060   2.717   6.464
 5007POPC   D2A63808  33.069   2.768   6.764
 5007POPC   C3A63809  33.031   2.754   7.064
 5007POPC   C4A63810  33.062   2.806   7.364
 5007POPC   C1B63811  32.989   3.048   6.464
 5007POPC   C2B63812  33.010   2.966   6.764
 5007POPC   C3B63813  33.016   3.052   7.064
 5007POPC   C4B63814  33.002   3.037   7.364
 5008POPC   NC363815   5.051   1.217   5.564
 5008POPC   PO463816   5.116   1.245   5.864
 5008POPC   GL163817   5.103   1.185   6.164
 5008POPC   GL263818   5.056   1.356   6.164
 5008POPC   C1A63819   5.091   1.179   6.464
 5008POPC   D2A63820   5.065   1.205   6.764
 5008POPC   C3A63821   5.136   1.230   7.064
 5008POPC   C4A63822   5.061   1.201   7.364
 5008POPC   C1B63823   4.974   1.476   6.464
 5008POPC   C2B63824   4.956   1.415   6.764
 5008POPC   C3B63825   4.966   1.447   7.064
 5008POPC   C4B63826   4.964   1.415   7.364
 5009POPC   NC363827   4.342  27.551   5.564
 5009POPC   PO463828   4.322  27.553   5.864
 5009POPC   GL163829   4.274  27.550   6.164
 5009POPC   GL263830   4.325  27.476   6.164
 5009POPC   C1A63831   4.334  27.576   6.464
 5009POPC   D2A63832   4.337  27.622   6.764
 5009POPC   C3A63833   4.309  27.544   7.064
 5009POPC   C4A63834   4.342  27.584   7.364
 5009POPC   C1B63835   4.349  27.308   6.464
 5009POPC   C2B63836   4.332  27.328   6.764
 5009POPC   C3B63837   4.396  27.367   7.064
 5009POPC   C4B63838   4.372  27.392   7.364
 5010POPC   NC363839  40.040  44.709   5.564
 5010POPC   PO463840  40.016  44.692   5.864
 5010POPC   GL163841  39.959  44.643   6.164
 5010POPC   GL263842  40.070  44.748   6.164
 5010POPC   C1A63843  40.029  44.672   6.464
 5010POPC   D2A63844  39.963  44.637   6.764
 5010POPC   C3A63845  40.001  44.623   7.064
 5010POPC   C4A63846  40.031  44.675   7.364
 5010POPC   C1B63847  40.157  44.876   6.464
 5010POPC   C2B63848  40.138  44.835   6.764
 5010POPC   C3B63849  40.103  44.853   7.064
 5010POPC   C4B63850  40.109  44.917   7.364
 5011POPC   NC363851  43.123  35.399   5.564
 5011POPC   PO463852  43.155  35.381   5.864
 5011POPC   GL163853  43.146  35.389   6.164
 5011POPC   GL263854  43.193  35.371   6.164
 5011POPC   C1A63855  43.103  35.390   6.464
 5011POPC   D2A63856  43.152  35.390   6.764
 5011POPC   C3A63857  43.153  35.307   7.064
 5011POPC   C4A63858  43.110  35.332   7.364
 5011POPC   C1B63859  43.395  35.359   6.464
 5011POPC   C2B63860  43.335  35.308   6.764
 5011POPC   C3B63861  43.312  35.318   7.064
 5011POPC   C4B63862  43.406  35.359   7.364
 5012POPC   NC363863   8.222  36.879   5.564
 5012POPC   PO463864   8.152  36.860   5.864
 5012POPC   GL163865   8.186  36.935   6.164
 5012POPC   GL263866   8.201  36.781   6.164
 5012POPC   C1A63867   8.208  36.879   6.464
 5012POPC   D2A63868   8.179  36.932   6.764
 5012POPC   C3A63869   8.213  36.866   7.064
 5012POPC   C4A63870   8.203  36.868   7.364
 5012POPC   C1B63871   8.230  36.641   6.464
 5012POPC   C2B63872   8.182  36.652   6.764
 5012POPC   C3B63873   8.187  36.696   7.064
 5012POPC   C4B63874   8.226  36.658   7.364
 5013POPC   NC363875  18.271  44.635   5.564
 5013POPC   PO463876  18.285  44.654   5.864
 5013POPC   GL163877  18.287  44.632   6.164
 5013POPC   GL263878  18.221  44.587   6.164
 5013POPC   C1A63879  18.291  44.626   6.464
 5013POPC   D2A63880  18.320  44.687   6.764
 5013POPC   C3A63881  18.248  44.670   7.064
 5013POPC   C4A63882  18.236  44.620   7.364
 5013POPC   C1B63883  18.038  44.552   6.464
 5013POPC   C2B63884  18.115  44.480   6.764
 5013POPC   C3B63885  18.105  44.567   7.064
 5013POPC   C4B63886  18.052  44.551   7.364
 5014POPC   NC363887  15.137  16.778   5.564
 5014POPC   PO463888  15.184  16.723   5.864
 5014POPC   GL163889  15.215  16.689   6.164
 5014POPC   GL263890  15.146  16.802   6.164
 5014POPC   C1A63891  15.204  16.775   6.464
 5014POPC   D2A63892  15.151  16.712   6.764
 5014POPC   C3A63893  15.217  16.779   7.064
 5014POPC   C4A63894  15.148  16.696   7.364
 5014POPC   C1B63895  15.138  16.965   6.464
 5014POPC   C2B63896  15.079  16.992   6.764
 5014POPC   C3B63897  15.099  16.941   7.064
 5014POPC   C4B63898  15.046  16.975   7.364
 5015POPC   NC363899  16.765   0.419   5.564
 5015POPC   PO463900  16.770   0.421   5.864
 5015POPC   GL163901  16.756   0.483   6.164
 5015POPC   GL263902  16.805   0.322   6.164
 5015POPC   C1A63903  16.774   0.399   6.464
 5015POPC   D2A63904  16.704   0.393   6.764
 5015POPC   C3A63905  16.690   0.482   7.064
 5015POPC   C4A63906  16.695   0.474   7.364
 5015POPC   C1B63907  16.905   0.217   6.464
 5015POPC   C2B63908  16.943   0.271   6.764
 5015POPC   C3B63909  16.946   0.301   7.064
 5015POPC   C4B63910  16.900   0.223   7.364
 5016POPC   NC363911  19.048  44.696   5.564
 5016POPC   PO463912  19.104  44.629   5.864
 5016POPC   GL163913  19.013  44.616   6.164
 5016POPC   GL263914  19.162  44.665   6.164
 5016POPC   C1A63915  19.063  44.659   6.464
 5016POPC   D2A63916  19.066  44.643   6.764
 5016POPC   C3A63917  19.027  44.673   7.064
 5016POPC   C4A63918  19.064  44.682   7.364
 5016POPC   C1B63919  19.329  44.612   6.464
 5016POPC   C2B63920  19.289  44.604   6.764
 5016POPC   C3B63921  19.356  44.642   7.064
 5016POPC   C4B63922  19.267  44.635   7.364
 5017POPC   NC363923  20.656  26.820   5.564
 5017POPC   PO463924  20.603  26.782   5.864
 5017POPC   GL163925  20.601  26.793   6.164
 5017POPC   GL263926  20.741  26.822   6.164
 5017POPC   C1A63927  20.599  26.840   6.464
 5017POPC   D2A63928  20.589  26.841   6.764
 5017POPC   C3A63929  20.659  26.812   7.064
 5017POPC   C4A63930  20.567  26.800   7.364
 5017POPC   C1B63931  20.839  26.861   6.464
 5017POPC   C2B63932  20.858  26.897   6.764
 5017POPC   C3B63933  20.869  26.839   7.064
 5017POPC   C4B63934  20.824  26.833   7.364
 5018POPC   NC363935  12.110  25.309   5.564
 5018POPC   PO463936  12.058  25.222   5.864
 5018POPC   GL163937  12.062  25.272   6.164
 5018POPC   GL263938  12.120  25.151   6.164
 5018POPC   C1A63939  12.121  25.238   6.464
 5018POPC   D2A63940  12.122  25.305   6.764
 5018POPC   C3A63941  12.033  25.274   7.064
 5018POPC   C4A63942  12.055  25.256   7.364
 5018POPC   C1B63943  12.095  24.983   6.464
 5018POPC   C2B63944  12.084  25.041   6.764
 5018POPC   C3B63945  12.100  24.966   7.064
 5018POPC   C4B63946  12.108  24.987   7.364
 5019POPC   NC363947  22.160   9.753   5.564
 5019POPC   PO463948  22.115   9.730   5.864
 5019POPC   GL163949  22.121   9.722   6.164
 5019POPC   GL263950  22.191   9.864   6.164
 5019POPC   C1A63951  22.150   9.727   6.464
 5019POPC   D2A63952  22.180   9.779   6.764
 5019POPC   C3A63953  22.120   9.785   7.064
 5019POPC   C4A63954  22.150   9.759   7.364
 5019POPC   C1B63955  22.296   9.895   6.464
 5019POPC   C2B63956  22.329   9.901   6.764
 5019POPC   C3B63957  22.339   9.941   7.064
 5019POPC   C4B63958  22.341   9.945   7.364
 5020POPC   NC363959  40.021  43.915   5.564
 5020POPC   PO463960  39.958  43.927   5.864
 5020POPC   GL163961  40.044  43.935   6.164
 5020POPC   GL263962  40.062  43.810   6.164
 5020POPC   C1A63963  40.012  43.909   6.464
 5020POPC   D2A63964  39.993  43.849   6.764
 5020POPC   C3A63965  40.049  43.873   7.064
 5020POPC   C4A63966  39.991  43.930   7.364
 5020POPC   C1B63967  40.150  43.661   6.464
 5020POPC   C2B63968  40.124  43.665   6.764
 5020POPC   C3B63969  40.189  43.647   7.064
 5020POPC   C4B63970  40.147  43.709   7.364
 5021POPC   NC363971   3.562  34.534   5.564
 5021POPC   PO463972   3.572  34.580   5.864
 5021POPC   GL163973   3.587  34.554   6.164
 5021POPC   GL263974   3.686  34.694   6.164
 5021POPC   C1A63975   3.548  34.574   6.464
 5021POPC   D2A63976   3.549  34.585   6.764
 5021POPC   C3A63977   3.514  34.598   7.064
 5021POPC   C4A63978   3.499  34.553   7.364
 5021POPC   C1B63979   3.755  34.754   6.464
 5021POPC   C2B63980   3.744  34.702   6.764
 5021POPC   C3B63981   3.690  34.729   7.064
 5021POPC   C4B63982   3.763  34.774   7.364
 5022POPC   NC363983  31.510  43.140   5.564
 5022POPC   PO463984  31.471  43.128   5.864
 5022POPC   GL163985  31.452  43.095   6.164
 5022POPC   GL263986  31.572  43.137   6.164
 5022POPC   C1A63987  31.483  43.072   6.464
 5022POPC   D2A63988  31.462  43.104   6.764
 5022POPC   C3A63989  31.510  43.119   7.064
 5022POPC   C4A63990  31.489  43.147   7.364
 5022POPC   C1B63991  31.726  43.147   6.464
 5022POPC   C2B63992  31.748  43.129   6.764
 5022POPC   C3B63993  31.744  43.076   7.064
 5022POPC   C4B63994  31.674  43.137   7.364
 5023POPC   NC363995  15.143  26.784   5.564
 5023POPC   PO463996  15.138  26.833   5.864
 5023POPC   GL163997  15.210  26.787   6.164
 5023POPC   GL263998  15.102  26.871   6.164
 5023POPC   C1A63999  15.145  26.807   6.464
 5023POPC   D2A64000  15.199  26.837   6.764
 5023POPC   C3A64001  15.161  26.848   7.064
 5023POPC   C4A64002  15.190  26.845   7.364
 5023POPC   C1B64003  14.960  26.935   6.464
 5023POPC   C2B64004  14.964  26.934   6.764
 5023POPC   C3B64005  14.954  26.868   7.064
 5023POPC   C4B64006  14.931  26.864   7.364
 5024POPC   NC364007   0.429   2.747   5.564
 5024POPC   PO464008   0.435   2.779   5.864
 5024POPC   GL164009   0.431   2.764   6.164
 5024POPC   GL264010   0.579   2.788   6.164
 5024POPC   C1A64011   0.429   2.748   6.464
 5024POPC   D2A64012   0.448   2.807   6.764
 5024POPC   C3A64013   0.421   2.796   7.064
 5024POPC   C4A64014   0.425   2.806   7.364
 5024POPC   C1B64015   0.699   2.872   6.464
 5024POPC   C2B64016   0.654   2.939   6.764
 5024POPC   C3B64017   0.682   2.925   7.064
 5024POPC   C4B64018   0.699   2.895   7.364
 5025POPC   NC364019  24.512  23.717   5.564
 5025POPC   PO464020  24.497  23.737   5.864
 5025POPC   GL164021  24.467  23.685   6.164
 5025POPC   GL264022  24.430  23.560   6.164
 5025POPC   C1A64023  24.477  23.687   6.464
 5025POPC   D2A64024  24.443  23.722   6.764
 5025POPC   C3A64025  24.539  23.670   7.064
 5025POPC   C4A64026  24.476  23.706   7.364
 5025POPC   C1B64027  24.359  23.503   6.464
 5025POPC   C2B64028  24.410  23.480   6.764
 5025POPC   C3B64029  24.416  23.465   7.064
 5025POPC   C4B64030  24.378  23.524   7.364
 5026POPC   NC364031   6.605  15.942   5.564
 5026POPC   PO464032   6.601  15.946   5.864
 5026POPC   GL164033   6.642  15.996   6.164
 5026POPC   GL264034   6.787  15.981   6.164
 5026POPC   C1A64035   6.602  15.911   6.464
 5026POPC   D2A64036   6.666  15.979   6.764
 5026POPC   C3A64037   6.682  15.978   7.064
 5026POPC   C4A64038   6.624  15.992   7.364
 5026POPC   C1B64039   6.880  15.944   6.464
 5026POPC   C2B64040   6.932  15.901   6.764
 5026POPC   C3B64041   6.881  15.906   7.064
 5026POPC   C4B64042   6.875  15.927   7.364
 5027POPC   NC364043  22.963  32.267   5.564
 5027POPC   PO464044  22.909  32.290   5.864
 5027POPC   GL164045  22.983  32.203   6.164
 5027POPC   GL264046  22.940  32.169   6.164
 5027POPC   C1A64047  22.987  32.295   6.464
 5027POPC   D2A64048  22.968  32.281   6.764
 5027POPC   C3A64049  22.929  32.244   7.064
 5027POPC   C4A64050  22.896  32.218   7.364
 5027POPC   C1B64051  22.923  31.958   6.464
 5027POPC   C2B64052  22.915  31.960   6.764
 5027POPC   C3B64053  22.937  31.975   7.064
 5027POPC   C4B64054  22.909  31.969   7.364
 5028POPC   NC364055  13.580  29.947   5.564
 5028POPC   PO464056  13.632  29.917   5.864
 5028POPC   GL164057  13.650  29.954   6.164
 5028POPC   GL264058  13.564  29.976   6.164
 5028POPC   C1A64059  13.641  29.963   6.464
 5028POPC   D2A64060  13.585  29.929   6.764
 5028POPC   C3A64061  13.626  29.881   7.064
 5028POPC   C4A64062  13.652  29.934   7.364
 5028POPC   C1B64063  13.427  30.116   6.464
 5028POPC   C2B64064  13.407  30.068   6.764
 5028POPC   C3B64065  13.415  30.026   7.064
 5028POPC   C4B64066  13.439  30.113   7.364
 5029POPC   NC364067   1.245  16.704   5.564
 5029POPC   PO464068   1.192  16.773   5.864
 5029POPC   GL164069   1.254  16.708   6.164
 5029POPC   GL264070   1.139  16.793   6.164
 5029POPC   C1A64071   1.187  16.765   6.464
 5029POPC   D2A64072   1.257  16.774   6.764
 5029POPC   C3A64073   1.198  16.712   7.064
 5029POPC   C4A64074   1.226  16.713   7.364
 5029POPC   C1B64075   1.076  16.906   6.464
 5029POPC   C2B64076   1.058  16.916   6.764
 5029POPC   C3B64077   1.080  16.918   7.064
 5029POPC   C4B64078   1.027  16.933   7.364
 5030POPC   NC364079  10.529  28.335   5.564
 5030POPC   PO464080  10.526  28.390   5.864
 5030POPC   GL164081  10.564  28.334   6.164
 5030POPC   GL264082  10.639  28.265   6.164
 5030POPC   C1A64083  10.512  28.397   6.464
 5030POPC   D2A64084  10.561  28.364   6.764
 5030POPC   C3A64085  10.530  28.323   7.064
 5030POPC   C4A64086  10.505  28.392   7.364
 5030POPC   C1B64087  10.692  28.163   6.464
 5030POPC   C2B64088  10.682  28.193   6.764
 5030POPC   C3B64089  10.680  28.151   7.064
 5030POPC   C4B64090  10.714  28.182   7.364
 5031POPC   NC364091  26.847  27.622   5.564
 5031POPC   PO464092  26.805  27.604   5.864
 5031POPC   GL164093  26.853  27.577   6.164
 5031POPC   GL264094  26.705  27.472   6.164
 5031POPC   C1A64095  26.864  27.620   6.464
 5031POPC   D2A64096  26.867  27.593   6.764
 5031POPC   C3A64097  26.852  27.593   7.064
 5031POPC   C4A64098  26.839  27.545   7.364
 5031POPC   C1B64099  26.679  27.398   6.464
 5031POPC   C2B64100  26.724  27.337   6.764
 5031POPC   C3B64101  26.721  27.409   7.064
 5031POPC   C4B64102  26.679  27.412   7.364
 5032POPC   NC364103  40.008  36.925   5.564
 5032POPC   PO464104  40.033  36.921   5.864
 5032POPC   GL164105  39.979  36.886   6.164
 5032POPC   GL264106  40.087  36.822   6.164
 5032POPC   C1A64107  40.017  36.873   6.464
 5032POPC   D2A64108  39.980  36.895   6.764
 5032POPC   C3A64109  39.968  36.899   7.064
 5032POPC   C4A64110  39.990  36.858   7.364
 5032POPC   C1B64111  40.248  36.802   6.464
 5032POPC   C2B64112  40.282  36.809   6.764
 5032POPC   C3B64113  40.204  36.793   7.064
 5032POPC   C4B64114  40.221  36.808   7.364
 5033POPC   NC364115   3.577  43.080   5.564
 5033POPC   PO464116   3.543  43.103   5.864
 5033POPC   GL164117   3.566  43.074   6.164
 5033POPC   GL264118   3.594  43.215   6.164
 5033POPC   C1A64119   3.527  43.062   6.464
 5033POPC   D2A64120   3.498  43.141   6.764
 5033POPC   C3A64121   3.502  43.150   7.064
 5033POPC   C4A64122   3.510  43.139   7.364
 5033POPC   C1B64123   3.678  43.312   6.464
 5033POPC   C2B64124   3.606  43.294   6.764
 5033POPC   C3B64125   3.647  43.333   7.064
 5033POPC   C4B64126   3.603  43.372   7.364
 5034POPC   NC364127  32.283  37.711   5.564
 5034POPC   PO464128  32.253  37.727   5.864
 5034POPC   GL164129  32.273  37.722   6.164
 5034POPC   GL264130  32.368  37.674   6.164
 5034POPC   C1A64131  32.235  37.675   6.464
 5034POPC   D2A64132  32.274  37.630   6.764
 5034POPC   C3A64133  32.201  37.679   7.064
 5034POPC   C4A64134  32.255  37.653   7.364
 5034POPC   C1B64135  32.477  37.621   6.464
 5034POPC   C2B64136  32.526  37.689   6.764
 5034POPC   C3B64137  32.529  37.677   7.064
 5034POPC   C4B64138  32.486  37.699   7.364
 5035POPC   NC364139  26.809  26.842   5.564
 5035POPC   PO464140  26.844  26.781   5.864
 5035POPC   GL164141  26.793  26.802   6.164
 5035POPC   GL264142  26.926  26.759   6.164
 5035POPC   C1A64143  26.845  26.862   6.464
 5035POPC   D2A64144  26.770  26.855   6.764
 5035POPC   C3A64145  26.849  26.792   7.064
 5035POPC   C4A64146  26.847  26.863   7.364
 5035POPC   C1B64147  27.075  26.736   6.464
 5035POPC   C2B64148  27.047  26.710   6.764
 5035POPC   C3B64149  27.037  26.770   7.064
 5035POPC   C4B64150  27.009  26.732   7.364
 5036POPC   NC364151  11.273  40.738   5.564
 5036POPC   PO464152  11.318  40.823   5.864
 5036POPC   GL164153  11.324  40.752   6.164
 5036POPC   GL264154  11.339  40.722   6.164
 5036POPC   C1A64155  11.342  40.806   6.464
 5036POPC   D2A64156  11.321  40.808   6.764
 5036POPC   C3A64157  11.329  40.800   7.064
 5036POPC   C4A64158  11.308  40.795   7.364
 5036POPC   C1B64159  11.413  40.602   6.464
 5036POPC   C2B64160  11.422  40.609   6.764
 5036POPC   C3B64161  11.437  40.607   7.064
 5036POPC   C4B64162  11.476  40.589   7.364
 5037POPC   NC364163  35.360  19.081   5.564
 5037POPC   PO464164  35.321  19.056   5.864
 5037POPC   GL164165  35.378  19.109   6.164
 5037POPC   GL264166  35.474  18.962   6.164
 5037POPC   C1A64167  35.361  19.011   6.464
 5037POPC   D2A64168  35.351  19.026   6.764
 5037POPC   C3A64169  35.327  19.037   7.064
 5037POPC   C4A64170  35.393  19.025   7.364
 5037POPC   C1B64171  35.624  18.947   6.464
 5037POPC   C2B64172  35.566  18.915   6.764
 5037POPC   C3B64173  35.571  18.985   7.064
 5037POPC   C4B64174  35.570  18.912   7.364
 5038POPC   NC364175  43.909  26.784   5.564
 5038POPC   PO464176  43.884  26.776   5.864
 5038POPC   GL164177  43.869  26.860   6.164
 5038POPC   GL264178  44.005  26.893   6.164
 5038POPC   C1A64179  43.920  26.852   6.464
 5038POPC   D2A64180  43.878  26.865   6.764
 5038POPC   C3A64181  43.916  26.834   7.064
 5038POPC   C4A64182  43.924  26.804   7.364
 5038POPC   C1B64183  44.151  26.885   6.464
 5038POPC   C2B64184  44.145  26.946   6.764
 5038POPC   C3B64185  44.162  26.926   7.064
 5038POPC   C4B64186  44.131  26.933   7.364
 5039POPC   NC364187  29.963   6.634   5.564
 5039POPC   PO464188  29.965   6.638   5.864
 5039POPC   GL164189  29.949   6.650   6.164
 5039POPC   GL264190  30.009   6.697   6.164
 5039POPC   C1A64191  29.883   6.658   6.464
 5039POPC   D2A64192  29.927   6.613   6.764
 5039POPC   C3A64193  29.925   6.682   7.064
 5039POPC   C4A64194  29.880   6.674   7.364
 5039POPC   C1B64195  30.190   6.713   6.464
 5039POPC   C2B64196  30.146   6.720   6.764
 5039POPC   C3B64197  30.151   6.761   7.064
 5039POPC   C4B64198  30.175   6.668   7.364
 5040POPC   NC364199  29.170  20.612   5.564
 5040POPC   PO464200  29.155  20.653   5.864
 5040POPC   GL164201  29.108  20.636   6.164
 5040POPC   GL264202  29.246  20.603   6.164
 5040POPC   C1A64203  29.109  20.602   6.464
 5040POPC   D2A64204  29.186  20.570   6.764
 5040POPC   C3A64205  29.174  20.657   7.064
 5040POPC   C4A64206  29.110  20.645   7.364
 5040POPC   C1B64207  29.403  20.666   6.464
 5040POPC   C2B64208  29.364  20.666   6.764
 5040POPC   C3B64209  29.369  20.592   7.064
 5040POPC   C4B64210  29.441  20.612   7.364
 5041POPC   NC364211   5.886  15.167   5.564
 5041POPC   PO464212   5.915  15.207   5.864
 5041POPC   GL164213   5.894  15.134   6.164
 5041POPC   GL264214   5.809  15.295   6.164
 5041POPC   C1A64215   5.857  15.157   6.464
 5041POPC   D2A64216   5.868  15.175   6.764
 5041POPC   C3A64217   5.898  15.218   7.064
 5041POPC   C4A64218   5.900  15.144   7.364
 5041POPC   C1B64219   5.662  15.339   6.464
 5041POPC   C2B64220   5.613  15.295   6.764
 5041POPC   C3B64221   5.661  15.359   7.064
 5041POPC   C4B64222   5.688  15.315   7.364
 5042POPC   NC364223  32.286  35.326   5.564
 5042POPC   PO464224  32.278  35.304   5.864
 5042POPC   GL164225  32.215  35.378   6.164
 5042POPC   GL264226  32.118  35.366   6.164
 5042POPC   C1A64227  32.232  35.372   6.464
 5042POPC   D2A64228  32.261  35.329   6.764
 5042POPC   C3A64229  32.234  35.312   7.064
 5042POPC   C4A64230  32.270  35.396   7.364
 5042POPC   C1B64231  32.011  35.364   6.464
 5042POPC   C2B64232  31.968  35.340   6.764
 5042POPC   C3B64233  32.006  35.297   7.064
 5042POPC   C4B64234  32.033  35.311   7.364
 5043POPC   NC364235   6.678  29.169   5.564
 5043POPC   PO464236   6.655  29.120   5.864
 5043POPC   GL164237   6.615  29.145   6.164
 5043POPC   GL264238   6.589  29.002   6.164
 5043POPC   C1A64239   6.672  29.099   6.464
 5043POPC   D2A64240   6.673  29.107   6.764
 5043POPC   C3A64241   6.632  29.151   7.064
 5043POPC   C4A64242   6.686  29.172   7.364
 5043POPC   C1B64243   6.611  28.943   6.464
 5043POPC   C2B64244   6.652  28.862   6.764
 5043POPC   C3B64245   6.621  28.895   7.064
 5043POPC   C4B64246   6.616  28.902   7.364
 5044POPC   NC364247   5.118   6.672   5.564
 5044POPC   PO464248   5.111   6.666   5.864
 5044POPC   GL164249   5.114   6.619   6.164
 5044POPC   GL264250   4.938   6.666   6.164
 5044POPC   C1A64251   5.114   6.632   6.464
 5044POPC   D2A64252   5.073   6.609   6.764
 5044POPC   C3A64253   5.099   6.607   7.064
 5044POPC   C4A64254   5.082   6.691   7.364
 5044POPC   C1B64255   4.812   6.670   6.464
 5044POPC   C2B64256   4.817   6.687   6.764
 5044POPC   C3B64257   4.889   6.729   7.064
 5044POPC   C4B64258   4.846   6.703   7.364
 5045POPC   NC364259  16.743   3.544   5.564
 5045POPC   PO464260  16.776   3.526   5.864
 5045POPC   GL164261  16.727   3.582   6.164
 5045POPC   GL264262  16.863   3.458   6.164
 5045POPC   C1A64263  16.759   3.515   6.464
 5045POPC   D2A64264  16.776   3.536   6.764
 5045POPC   C3A64265  16.748   3.582   7.064
 5045POPC   C4A64266  16.777   3.587   7.364
 5045POPC   C1B64267  16.934   3.477   6.464
 5045POPC   C2B64268  16.982   3.464   6.764
 5045POPC   C3B64269  16.960   3.490   7.064
 5045POPC   C4B64270  17.008   3.509   7.364
 5046POPC   NC364271  38.471  42.289   5.564
 5046POPC   PO464272  38.497  42.350   5.864
 5046POPC   GL164273  38.428  42.368   6.164
 5046POPC   GL264274  38.571  42.335   6.164
 5046POPC   C1A64275  38.422  42.327   6.464
 5046POPC   D2A64276  38.450  42.318   6.764
 5046POPC   C3A64277  38.434  42.380   7.064
 5046POPC   C4A64278  38.478  42.304   7.364
 5046POPC   C1B64279  38.677  42.285   6.464
 5046POPC   C2B64280  38.704  42.308   6.764
 5046POPC   C3B64281  38.693  42.276   7.064
 5046POPC   C4B64282  38.662  42.324   7.364
 5047POPC   NC364283  39.212  15.159   5.564
 5047POPC   PO464284  39.181  15.163   5.864
 5047POPC   GL164285  39.235  15.157   6.164
 5047POPC   GL264286  39.343  15.127   6.164
 5047POPC   C1A64287  39.264  15.167   6.464
 5047POPC   D2A64288  39.244  15.130   6.764
 5047POPC   C3A64289  39.255  15.192   7.064
 5047POPC   C4A64290  39.182  15.211   7.364
 5047POPC   C1B64291  39.493  15.207   6.464
 5047POPC   C2B64292  39.527  15.130   6.764
 5047POPC   C3B64293  39.486  15.140   7.064
 5047POPC   C4B64294  39.525  15.136   7.364
 5048POPC   NC364295  25.294  29.193   5.564
 5048POPC   PO464296  25.291  29.116   5.864
 5048POPC   GL164297  25.260  29.157   6.164
 5048POPC   GL264298  25.117  29.114   6.164
 5048POPC   C1A64299  25.304  29.169   6.464
 5048POPC   D2A64300  25.233  29.109   6.764
 5048POPC   C3A64301  25.272  29.168   7.064
 5048POPC   C4A64302  25.297  29.097   7.364
 5048POPC   C1B64303  25.065  29.111   6.464
 5048POPC   C2B64304  25.035  29.083   6.764
 5048POPC   C3B64305  25.063  29.101   7.064
 5048POPC   C4B64306  25.055  29.133   7.364
 5049POPC   NC364307   5.907  25.275   5.564
 5049POPC   PO464308   5.919  25.217   5.864
 5049POPC   GL164309   5.834  25.296   6.164
 5049POPC   GL264310   5.790  25.289   6.164
 5049POPC   C1A64311   5.832  25.296   6.464
 5049POPC   D2A64312   5.842  25.299   6.764
 5049POPC   C3A64313   5.825  25.237   7.064
 5049POPC   C4A64314   5.873  25.260   7.364
 5049POPC   C1B64315   5.644  25.340   6.464
 5049POPC   C2B64316   5.637  25.339   6.764
 5049POPC   C3B64317   5.632  25.344   7.064
 5049POPC   C4B64318   5.635  25.376   7.364
 5050POPC   NC364319  41.515  37.717   5.564
 5050POPC   PO464320  41.530  37.672   5.864
 5050POPC   GL164321  41.528  37.678   6.164
 5050POPC   GL264322  41.498  37.626   6.164
 5050POPC   C1A64323  41.548  37.633   6.464
 5050POPC   D2A64324  41.565  37.685   6.764
 5050POPC   C3A64325  41.599  37.664   7.064
 5050POPC   C4A64326  41.568  37.691   7.364
 5050POPC   C1B64327  41.424  37.508   6.464
 5050POPC   C2B64328  41.376  37.452   6.764
 5050POPC   C3B64329  41.397  37.517   7.064
 5050POPC   C4B64330  41.347  37.483   7.364
 5051POPC   NC364331  27.591  15.203   5.564
 5051POPC   PO464332  27.631  15.143   5.864
 5051POPC   GL164333  27.559  15.173   6.164
 5051POPC   GL264334  27.650  15.049   6.164
 5051POPC   C1A64335  27.638  15.177   6.464
 5051POPC   D2A64336  27.574  15.194   6.764
 5051POPC   C3A64337  27.547  15.130   7.064
 5051POPC   C4A64338  27.599  15.215   7.364
 5051POPC   C1B64339  27.740  14.994   6.464
 5051POPC   C2B64340  27.746  15.013   6.764
 5051POPC   C3B64341  27.728  14.986   7.064
 5051POPC   C4B64342  27.737  15.000   7.364
 5052POPC   NC364343   2.802   4.288   5.564
 5052POPC   PO464344   2.793   4.333   5.864
 5052POPC   GL164345   2.735   4.364   6.164
 5052POPC   GL264346   2.767   4.209   6.164
 5052POPC   C1A64347   2.742   4.346   6.464
 5052POPC   D2A64348   2.743   4.290   6.764
 5052POPC   C3A64349   2.775   4.300   7.064
 5052POPC   C4A64350   2.782   4.330   7.364
 5052POPC   C1B64351   2.729   4.039   6.464
 5052POPC   C2B64352   2.643   4.072   6.764
 5052POPC   C3B64353   2.649   4.056   7.064
 5052POPC   C4B64354   2.704   4.036   7.364
 5053POPC   NC364355  42.380  15.195   5.564
 5053POPC   PO464356  42.298  15.145   5.864
 5053POPC   GL164357  42.340  15.221   6.164
 5053POPC   GL264358  42.239  15.138   6.164
 5053POPC   C1A64359  42.359  15.204   6.464
 5053POPC   D2A64360  42.294  15.146   6.764
 5053POPC   C3A64361  42.327  15.146   7.064
 5053POPC   C4A64362  42.345  15.136   7.364
 5053POPC   C1B64363  42.092  15.170   6.464
 5053POPC   C2B64364  42.125  15.135   6.764
 5053POPC   C3B64365  42.120  15.190   7.064
 5053POPC   C4B64366  42.095  15.134   7.364
 5054POPC   NC364367   2.718  14.408   5.564
 5054POPC   PO464368   2.720  14.442   5.864
 5054POPC   GL164369   2.793  14.354   6.164
 5054POPC   GL264370   2.734  14.329   6.164
 5054POPC   C1A64371   2.776  14.442   6.464
 5054POPC   D2A64372   2.732  14.376   6.764
 5054POPC   C3A64373   2.814  14.391   7.064
 5054POPC   C4A64374   2.785  14.445   7.364
 5054POPC   C1B64375   2.655  14.202   6.464
 5054POPC   C2B64376   2.695  14.201   6.764
 5054POPC   C3B64377   2.703  14.159   7.064
 5054POPC   C4B64378   2.646  14.122   7.364
 5055POPC   NC364379  27.639  12.053   5.564
 5055POPC   PO464380  27.548  12.112   5.864
 5055POPC   GL164381  27.563  12.029   6.164
 5055POPC   GL264382  27.739  12.059   6.164
 5055POPC   C1A64383  27.561  12.061   6.464
 5055POPC   D2A64384  27.609  12.054   6.764
 5055POPC   C3A64385  27.593  12.032   7.064
 5055POPC   C4A64386  27.580  12.054   7.364
 5055POPC   C1B64387  27.830  12.039   6.464
 5055POPC   C2B64388  27.819  12.024   6.764
 5055POPC   C3B64389  27.814  11.998   7.064
 5055POPC   C4B64390  27.865  12.026   7.364
 5056POPC   NC364391   3.564   2.720   5.564
 5056POPC   PO464392   3.517   2.733   5.864
 5056POPC   GL164393   3.495   2.741   6.164
 5056POPC   GL264394   3.472   2.905   6.164
 5056POPC   C1A64395   3.510   2.760   6.464
 5056POPC   D2A64396   3.524   2.774   6.764
 5056POPC   C3A64397   3.585   2.814   7.064
 5056POPC   C4A64398   3.582   2.767   7.364
 5056POPC   C1B64399   3.513   3.045   6.464
 5056POPC   C2B64400   3.438   3.050   6.764
 5056POPC   C3B64401   3.516   2.997   7.064
 5056POPC   C4B64402   3.501   3.048   7.364
 5057POPC   NC364403   2.771  29.891   5.564
 5057POPC   PO464404   2.814  29.899   5.864
 5057POPC   GL164405   2.794  29.929   6.164
 5057POPC   GL264406   2.781  29.841   6.164
 5057POPC   C1A64407   2.779  29.898   6.464
 5057POPC   D2A64408   2.724  29.964   6.764
 5057POPC   C3A64409   2.745  29.946   7.064
 5057POPC   C4A64410   2.799  29.872   7.364
 5057POPC   C1B64411   2.720  29.700   6.464
 5057POPC   C2B64412   2.800  29.666   6.764
 5057POPC   C3B64413   2.736  29.662   7.064
 5057POPC   C4B64414   2.712  29.654   7.364
 5058POPC   NC364415  42.383  43.878   5.564
 5058POPC   PO464416  42.312  43.932   5.864
 5058POPC   GL164417  42.314  43.930   6.164
 5058POPC   GL264418  42.352  43.718   6.164
 5058POPC   C1A64419  42.363  43.875   6.464
 5058POPC   D2A64420  42.310  43.922   6.764
 5058POPC   C3A64421  42.338  43.903   7.064
 5058POPC   C4A64422  42.320  43.920   7.364
 5058POPC   C1B64423  42.276  43.636   6.464
 5058POPC   C2B64424  42.255  43.634   6.764
 5058POPC   C3B64425  42.288  43.648   7.064
 5058POPC   C4B64426  42.332  43.635   7.364
 5059POPC   NC364427  12.071  24.493   5.564
 5059POPC   PO464428  12.089  24.537   5.864
 5059POPC   GL164429  12.107  24.522   6.164
 5059POPC   GL264430  11.924  24.512   6.164
 5059POPC   C1A64431  12.083  24.524   6.464
 5059POPC   D2A64432  12.045  24.504   6.764
 5059POPC   C3A64433  12.096  24.518   7.064
 5059POPC   C4A64434  12.035  24.534   7.364
 5059POPC   C1B64435  11.826  24.556   6.464
 5059POPC   C2B64436  11.855  24.486   6.764
 5059POPC   C3B64437  11.871  24.565   7.064
 5059POPC   C4B64438  11.858  24.544   7.364
 5060POPC   NC364439   9.001   8.942   5.564
 5060POPC   PO464440   8.987   8.925   5.864
 5060POPC   GL164441   8.951   9.022   6.164
 5060POPC   GL264442   9.086   8.942   6.164
 5060POPC   C1A64443   9.000   9.020   6.464
 5060POPC   D2A64444   8.952   8.931   6.764
 5060POPC   C3A64445   8.963   8.976   7.064
 5060POPC   C4A64446   8.982   8.941   7.364
 5060POPC   C1B64447   9.228   8.977   6.464
 5060POPC   C2B64448   9.267   8.954   6.764
 5060POPC   C3B64449   9.259   8.962   7.064
 5060POPC   C4B64450   9.172   9.014   7.364
 5061POPC   NC364451  23.732  10.542   5.564
 5061POPC   PO464452  23.752  10.487   5.864
 5061POPC   GL164453  23.710  10.566   6.164
 5061POPC   GL264454  23.734  10.432   6.164
 5061POPC   C1A64455  23.751  10.476   6.464
 5061POPC   D2A64456  23.665  10.496   6.764
 5061POPC   C3A64457  23.672  10.545   7.064
 5061POPC   C4A64458  23.758  10.510   7.364
 5061POPC   C1B64459  23.842  10.277   6.464
 5061POPC   C2B64460  23.863  10.344   6.764
 5061POPC   C3B64461  23.769  10.259   7.064
 5061POPC   C4B64462  23.837  10.261   7.364
 5062POPC   NC364463   2.808  37.699   5.564
 5062POPC   PO464464   2.755  37.656   5.864
 5062POPC   GL164465   2.813  37.692   6.164
 5062POPC   GL264466   2.843  37.662   6.164
 5062POPC   C1A64467   2.737  37.680   6.464
 5062POPC   D2A64468   2.741  37.680   6.764
 5062POPC   C3A64469   2.758  37.668   7.064
 5062POPC   C4A64470   2.721  37.707   7.364
 5062POPC   C1B64471   3.016  37.621   6.464
 5062POPC   C2B64472   2.959  37.548   6.764
 5062POPC   C3B64473   2.980  37.629   7.064
 5062POPC   C4B64474   2.985  37.554   7.364
 5063POPC   NC364475  36.926  11.316   5.564
 5063POPC   PO464476  36.889  11.331   5.864
 5063POPC   GL164477  36.916  11.273   6.164
 5063POPC   GL264478  36.837  11.346   6.164
 5063POPC   C1A64479  36.924  11.332   6.464
 5063POPC   D2A64480  36.919  11.269   6.764
 5063POPC   C3A64481  36.898  11.275   7.064
 5063POPC   C4A64482  36.948  11.264   7.364
 5063POPC   C1B64483  36.655  11.406   6.464
 5063POPC   C2B64484  36.623  11.430   6.764
 5063POPC   C3B64485  36.721  11.402   7.064
 5063POPC   C4B64486  36.711  11.394   7.364
 5064POPC   NC364487  23.671  40.775   5.564
 5064POPC   PO464488  23.708  40.802   5.864
 5064POPC   GL164489  23.762  40.792   6.164
 5064POPC   GL264490  23.758  40.669   6.164
 5064POPC   C1A64491  23.682  40.760   6.464
 5064POPC   D2A64492  23.755  40.753   6.764
 5064POPC   C3A64493  23.703  40.774   7.064
 5064POPC   C4A64494  23.705  40.776   7.364
 5064POPC   C1B64495  23.762  40.519   6.464
 5064POPC   C2B64496  23.845  40.527   6.764
 5064POPC   C3B64497  23.791  40.583   7.064
 5064POPC   C4B64498  23.819  40.599   7.364
 5065POPC   NC364499  11.279  29.126   5.564
 5065POPC   PO464500  11.273  29.120   5.864
 5065POPC   GL164501  11.335  29.194   6.164
 5065POPC   GL264502  11.205  29.117   6.164
 5065POPC   C1A64503  11.313  29.101   6.464
 5065POPC   D2A64504  11.344  29.130   6.764
 5065POPC   C3A64505  11.282  29.189   7.064
 5065POPC   C4A64506  11.255  29.138   7.364
 5065POPC   C1B64507  11.072  29.133   6.464
 5065POPC   C2B64508  11.005  29.108   6.764
 5065POPC   C3B64509  11.028  29.198   7.064
 5065POPC   C4B64510  11.065  29.159   7.364
 5066POPC   NC364511  19.862  27.593   5.564
 5066POPC   PO464512  19.868  27.546   5.864
 5066POPC   GL164513  19.846  27.609   6.164
 5066POPC   GL264514  19.796  27.733   6.164
 5066POPC   C1A64515  19.811  27.549   6.464
 5066POPC   D2A64516  19.883  27.554   6.764
 5066POPC   C3A64517  19.838  27.597   7.064
 5066POPC   C4A64518  19.854  27.564   7.364
 5066POPC   C1B64519  19.824  27.872   6.464
 5066POPC   C2B64520  19.882  27.801   6.764
 5066POPC   C3B64521  19.800  27.853   7.064
 5066POPC   C4B64522  19.806  27.866   7.364
 5067POPC   NC364523  39.981  10.566   5.564
 5067POPC   PO464524  39.980  10.502   5.864
 5067POPC   GL164525  39.961  10.535   6.164
 5067POPC   GL264526  39.912  10.631   6.164
 5067POPC   C1A64527  39.972  10.569   6.464
 5067POPC   D2A64528  39.973  10.490   6.764
 5067POPC   C3A64529  40.023  10.555   7.064
 5067POPC   C4A64530  40.046  10.494   7.364
 5067POPC   C1B64531  39.898  10.687   6.464
 5067POPC   C2B64532  39.823  10.686   6.764
 5067POPC   C3B64533  39.850  10.668   7.064
 5067POPC   C4B64534  39.861  10.743   7.364
 5068POPC   NC364535  17.466  26.810   5.564
 5068POPC   PO464536  17.487  26.792   5.864
 5068POPC   GL164537  17.482  26.837   6.164
 5068POPC   GL264538  17.451  26.911   6.164
 5068POPC   C1A64539  17.507  26.778   6.464
 5068POPC   D2A64540  17.516  26.827   6.764
 5068POPC   C3A64541  17.501  26.836   7.064
 5068POPC   C4A64542  17.491  26.848   7.364
 5068POPC   C1B64543  17.363  27.051   6.464
 5068POPC   C2B64544  17.374  27.045   6.764
 5068POPC   C3B64545  17.415  26.999   7.064
 5068POPC   C4B64546  17.392  27.009   7.364
 5069POPC   NC364547  39.250  21.402   5.564
 5069POPC   PO464548  39.251  21.410   5.864
 5069POPC   GL164549  39.187  21.360   6.164
 5069POPC   GL264550  39.323  21.273   6.164
 5069POPC   C1A64551  39.266  21.351   6.464
 5069POPC   D2A64552  39.204  21.413   6.764
 5069POPC   C3A64553  39.276  21.339   7.064
 5069POPC   C4A64554  39.226  21.423   7.364
 5069POPC   C1B64555  39.382  21.249   6.464
 5069POPC   C2B64556  39.398  21.251   6.764
 5069POPC   C3B64557  39.453  21.203   7.064
 5069POPC   C4B64558  39.425  21.199   7.364
 5070POPC   NC364559  21.354  29.947   5.564
 5070POPC   PO464560  21.401  29.932   5.864
 5070POPC   GL164561  21.413  29.951   6.164
 5070POPC   GL264562  21.491  29.993   6.164
 5070POPC   C1A64563  21.357  29.968   6.464
 5070POPC   D2A64564  21.434  29.905   6.764
 5070POPC   C3A64565  21.433  29.959   7.064
 5070POPC   C4A64566  21.363  29.925   7.364
 5070POPC   C1B64567  21.619  30.046   6.464
 5070POPC   C2B64568  21.646  30.066   6.764
 5070POPC   C3B64569  21.625  30.091   7.064
 5070POPC   C4B64570  21.603  30.008   7.364
 5071POPC   NC364571  25.224  22.910   5.564
 5071POPC   PO464572  25.279  22.913   5.864
 5071POPC   GL164573  25.220  22.960   6.164
 5071POPC   GL264574  25.123  22.821   6.164
 5071POPC   C1A64575  25.278  22.904   6.464
 5071POPC   D2A64576  25.242  22.953   6.764
 5071POPC   C3A64577  25.263  22.945   7.064
 5071POPC   C4A64578  25.261  22.934   7.364
 5071POPC   C1B64579  25.119  22.745   6.464
 5071POPC   C2B64580  25.113  22.771   6.764
 5071POPC   C3B64581  25.054  22.749   7.064
 5071POPC   C4B64582  25.082  22.741   7.364
 5072POPC   NC364583   2.754  28.329   5.564
 5072POPC   PO464584   2.730  28.339   5.864
 5072POPC   GL164585   2.762  28.414   6.164
 5072POPC   GL264586   2.683  28.257   6.164
 5072POPC   C1A64587   2.793  28.407   6.464
 5072POPC   D2A64588   2.799  28.336   6.764
 5072POPC   C3A64589   2.728  28.343   7.064
 5072POPC   C4A64590   2.781  28.352   7.364
 5072POPC   C1B64591   2.571  28.197   6.464
 5072POPC   C2B64592   2.566  28.235   6.764
 5072POPC   C3B64593   2.551  28.203   7.064
 5072POPC   C4B64594   2.562  28.239   7.364
 5073POPC   NC364595  18.237  25.248   5.564
 5073POPC   PO464596  18.284  25.296   5.864
 5073POPC   GL164597  18.303  25.237   6.164
 5073POPC   GL264598  18.335  25.400   6.164
 5073POPC   C1A64599  18.277  25.242   6.464
 5073POPC   D2A64600  18.308  25.286   6.764
 5073POPC   C3A64601  18.278  25.275   7.064
 5073POPC   C4A64602  18.255  25.223   7.364
 5073POPC   C1B64603  18.469  25.469   6.464
 5073POPC   C2B64604  18.453  25.463   6.764
 5073POPC   C3B64605  18.397  25.475   7.064
 5073POPC   C4B64606  18.384  25.429   7.364
 5074POPC   NC364607  43.069  36.156   5.564
 5074POPC   PO464608  43.061  36.123   5.864
 5074POPC   GL164609  43.085  36.097   6.164
 5074POPC   GL264610  43.033  36.058   6.164
 5074POPC   C1A64611  43.105  36.079   6.464
 5074POPC   D2A64612  43.106  36.084   6.764
 5074POPC   C3A64613  43.133  36.136   7.064
 5074POPC   C4A64614  43.152  36.104   7.364
 5074POPC   C1B64615  42.865  36.121   6.464
 5074POPC   C2B64616  42.898  36.032   6.764
 5074POPC   C3B64617  42.856  36.116   7.064
 5074POPC   C4B64618  42.890  36.123   7.364
 5075POPC   NC364619  14.440  34.546   5.564
 5075POPC   PO464620  14.356  34.583   5.864
 5075POPC   GL164621  14.441  34.536   6.164
 5075POPC   GL264622  14.377  34.424   6.164
 5075POPC   C1A64623  14.372  34.551   6.464
 5075POPC   D2A64624  14.449  34.599   6.764
 5075POPC   C3A64625  14.384  34.602   7.064
 5075POPC   C4A64626  14.428  34.557   7.364
 5075POPC   C1B64627  14.425  34.370   6.464
 5075POPC   C2B64628  14.368  34.313   6.764
 5075POPC   C3B64629  14.435  34.311   7.064
 5075POPC   C4B64630  14.420  34.282   7.364
 5076POPC   NC364631  29.874  39.961   5.564
 5076POPC   PO464632  29.914  40.048   5.864
 5076POPC   GL164633  29.950  40.016   6.164
 5076POPC   GL264634  29.921  39.938   6.164
 5076POPC   C1A64635  29.952  40.009   6.464
 5076POPC   D2A64636  29.946  40.013   6.764
 5076POPC   C3A64637  29.929  40.056   7.064
 5076POPC   C4A64638  29.921  40.046   7.364
 5076POPC   C1B64639  30.035  39.813   6.464
 5076POPC   C2B64640  30.049  39.757   6.764
 5076POPC   C3B64641  30.041  39.798   7.064
 5076POPC   C4B64642  29.990  39.754   7.364
 5077POPC   NC364643   5.861  14.436   5.564
 5077POPC   PO464644   5.851  14.423   5.864
 5077POPC   GL164645   5.911  14.390   6.164
 5077POPC   GL264646   5.877  14.256   6.164
 5077POPC   C1A64647   5.861  14.441   6.464
 5077POPC   D2A64648   5.823  14.366   6.764
 5077POPC   C3A64649   5.832  14.382   7.064
 5077POPC   C4A64650   5.917  14.359   7.364
 5077POPC   C1B64651   5.835  14.113   6.464
 5077POPC   C2B64652   5.813  14.164   6.764
 5077POPC   C3B64653   5.856  14.150   7.064
 5077POPC   C4B64654   5.811  14.194   7.364
 5078POPC   NC364655  14.379  43.103   5.564
 5078POPC   PO464656  14.378  43.083   5.864
 5078POPC   GL164657  14.433  43.116   6.164
 5078POPC   GL264658  14.472  43.094   6.164
 5078POPC   C1A64659  14.429  43.127   6.464
 5078POPC   D2A64660  14.417  43.148   6.764
 5078POPC   C3A64661  14.368  43.126   7.064
 5078POPC   C4A64662  14.450  43.069   7.364
 5078POPC   C1B64663  14.589  42.942   6.464
 5078POPC   C2B64664  14.630  42.990   6.764
 5078POPC   C3B64665  14.615  42.932   7.064
 5078POPC   C4B64666  14.619  42.994   7.364
 5079POPC   NC364667  10.513  24.519   5.564
 5079POPC   PO464668  10.545  24.464   5.864
 5079POPC   GL164669  10.499  24.482   6.164
 5079POPC   GL264670  10.607  24.384   6.164
 5079POPC   C1A64671  10.486  24.531   6.464
 5079POPC   D2A64672  10.501  24.524   6.764
 5079POPC   C3A64673  10.481  24.492   7.064
 5079POPC   C4A64674  10.500  24.539   7.364
 5079POPC   C1B64675  10.633  24.225   6.464
 5079POPC   C2B64676  10.671  24.253   6.764
 5079POPC   C3B64677  10.585  24.302   7.064
 5079POPC   C4B64678  10.638  24.222   7.364
 5080POPC   NC364679  38.444   8.238   5.564
 5080POPC   PO464680  38.451   8.234   5.864
 5080POPC   GL164681  38.418   8.213   6.164
 5080POPC   GL264682  38.473   8.127   6.164
 5080POPC   C1A64683  38.431   8.223   6.464
 5080POPC   D2A64684  38.460   8.188   6.764
 5080POPC   C3A64685  38.498   8.183   7.064
 5080POPC   C4A64686  38.494   8.164   7.364
 5080POPC   C1B64687  38.593   7.949   6.464
 5080POPC   C2B64688  38.590   7.973   6.764
 5080POPC   C3B64689  38.562   7.927   7.064
 5080POPC   C4B64690  38.530   7.968   7.364
 5081POPC   NC364691  29.924  29.933   5.564
 5081POPC   PO464692  29.902  29.907   5.864
 5081POPC   GL164693  29.895  29.879   6.164
 5081POPC   GL264694  30.053  29.837   6.164
 5081POPC   C1A64695  29.906  29.927   6.464
 5081POPC   D2A64696  29.916  29.871   6.764
 5081POPC   C3A64697  29.919  29.906   7.064
 5081POPC   C4A64698  29.940  29.920   7.364
 5081POPC   C1B64699  30.128  29.766   6.464
 5081POPC   C2B64700  30.065  29.769   6.764
 5081POPC   C3B64701  30.106  29.705   7.064
 5081POPC   C4B64702  30.076  29.764   7.364
 5082POPC   NC364703  35.375   5.087   5.564
 5082POPC   PO464704  35.310   5.098   5.864
 5082POPC   GL164705  35.358   5.079   6.164
 5082POPC   GL264706  35.488   5.018   6.164
 5082POPC   C1A64707  35.365   5.131   6.464
 5082POPC   D2A64708  35.359   5.084   6.764
 5082POPC   C3A64709  35.331   5.137   7.064
 5082POPC   C4A64710  35.384   5.102   7.364
 5082POPC   C1B64711  35.600   5.038   6.464
 5082POPC   C2B64712  35.626   5.022   6.764
 5082POPC   C3B64713  35.591   5.005   7.064
 5082POPC   C4B64714  35.566   4.990   7.364
 5083POPC   NC364715   8.155  33.827   5.564
 5083POPC   PO464716   8.160  33.837   5.864
 5083POPC   GL164717   8.161  33.848   6.164
 5083POPC   GL264718   8.347  33.828   6.164
 5083POPC   C1A64719   8.153  33.775   6.464
 5083POPC   D2A64720   8.167  33.822   6.764
 5083POPC   C3A64721   8.148  33.770   7.064
 5083POPC   C4A64722   8.206  33.769   7.364
 5083POPC   C1B64723   8.481  33.840   6.464
 5083POPC   C2B64724   8.470  33.895   6.764
 5083POPC   C3B64725   8.401  33.884   7.064
 5083POPC   C4B64726   8.438  33.863   7.364
 5084POPC   NC364727  34.610  38.452   5.564
 5084POPC   PO464728  34.577  38.491   5.864
 5084POPC   GL164729  34.566  38.431   6.164
 5084POPC   GL264730  34.462  38.407   6.164
 5084POPC   C1A64731  34.625  38.480   6.464
 5084POPC   D2A64732  34.597  38.456   6.764
 5084POPC   C3A64733  34.590  38.499   7.064
 5084POPC   C4A64734  34.617  38.490   7.364
 5084POPC   C1B64735  34.305  38.345   6.464
 5084POPC   C2B64736  34.381  38.428   6.764
 5084POPC   C3B64737  34.345  38.368   7.064
 5084POPC   C4B64738  34.336  38.382   7.364
 5085POPC   NC364739  12.817  31.457   5.564
 5085POPC   PO464740  12.867  31.507   5.864
 5085POPC   GL164741  12.838  31.517   6.164
 5085POPC   GL264742  13.000  31.446   6.164
 5085POPC   C1A64743  12.823  31.493   6.464
 5085POPC   D2A64744  12.812  31.517   6.764
 5085POPC   C3A64745  12.816  31.486   7.064
 5085POPC   C4A64746  12.890  31.487   7.364
 5085POPC   C1B64747  13.102  31.508   6.464
 5085POPC   C2B64748  13.066  31.495   6.764
 5085POPC   C3B64749  13.123  31.550   7.064
 5085POPC   C4B64750  13.088  31.480   7.364
 5086POPC   NC364751  29.179  34.616   5.564
 5086POPC   PO464752  29.120  34.563   5.864
 5086POPC   GL164753  29.172  34.540   6.164
 5086POPC   GL264754  29.049  34.571   6.164
 5086POPC   C1A64755  29.168  34.584   6.464
 5086POPC   D2A64756  29.147  34.536   6.764
 5086POPC   C3A64757  29.146  34.602   7.064
 5086POPC   C4A64758  29.144  34.624   7.364
 5086POPC   C1B64759  28.904  34.630   6.464
 5086POPC   C2B64760  28.890  34.620   6.764
 5086POPC   C3B64761  28.903  34.605   7.064
 5086POPC   C4B64762  28.871  34.615   7.364
 5087POPC   NC364763   4.330   5.107   5.564
 5087POPC   PO464764   4.367   5.065   5.864
 5087POPC   GL164765   4.300   5.065   6.164
 5087POPC   GL264766   4.227   5.059   6.164
 5087POPC   C1A64767   4.346   5.065   6.464
 5087POPC   D2A64768   4.330   5.065   6.764
 5087POPC   C3A64769   4.346   5.139   7.064
 5087POPC   C4A64770   4.319   5.055   7.364
 5087POPC   C1B64771   4.123   5.029   6.464
 5087POPC   C2B64772   4.045   5.004   6.764
 5087POPC   C3B64773   4.085   5.041   7.064
 5087POPC   C4B64774   4.118   5.063   7.364
 5088POPC   NC364775  39.214  40.735   5.564
 5088POPC   PO464776  39.194  40.828   5.864
 5088POPC   GL164777  39.215  40.832   6.164
 5088POPC   GL264778  39.103  40.726   6.164
 5088POPC   C1A64779  39.252  40.762   6.464
 5088POPC   D2A64780  39.189  40.791   6.764
 5088POPC   C3A64781  39.186  40.765   7.064
 5088POPC   C4A64782  39.210  40.737   7.364
 5088POPC   C1B64783  39.010  40.762   6.464
 5088POPC   C2B64784  39.027  40.699   6.764
 5088POPC   C3B64785  39.019  40.738   7.064
 5088POPC   C4B64786  38.973  40.698   7.364
 5089POPC   NC364787  36.936  42.291   5.564
 5089POPC   PO464788  36.952  42.290   5.864
 5089POPC   GL164789  36.916  42.311   6.164
 5089POPC   GL264790  36.878  42.494   6.164
 5089POPC   C1A64791  36.919  42.301   6.464
 5089POPC   D2A64792  36.880  42.322   6.764
 5089POPC   C3A64793  36.930  42.312   7.064
 5089POPC   C4A64794  36.900  42.371   7.364
 5089POPC   C1B64795  36.846  42.577   6.464
 5089POPC   C2B64796  36.893  42.613   6.764
 5089POPC   C3B64797  36.833  42.602   7.064
 5089POPC   C4B64798  36.826  42.616   7.364
 5090POPC   NC364799  12.123  10.565   5.564
 5090POPC   PO464800  12.047  10.478   5.864
 5090POPC   GL164801  12.044  10.555   6.164
 5090POPC   GL264802  12.210  10.541   6.164
 5090POPC   C1A64803  12.120  10.561   6.464
 5090POPC   D2A64804  12.039  10.504   6.764
 5090POPC   C3A64805  12.106  10.546   7.064
 5090POPC   C4A64806  12.079  10.485   7.364
 5090POPC   C1B64807  12.311  10.479   6.464
 5090POPC   C2B64808  12.294  10.538   6.764
 5090POPC   C3B64809  12.365  10.528   7.064
 5090POPC   C4B64810  12.277  10.522   7.364
 5091POPC   NC364811  25.309  11.346   5.564
 5091POPC   PO464812  25.302  11.293   5.864
 5091POPC   GL164813  25.224  11.338   6.164
 5091POPC   GL264814  25.322  11.351   6.164
 5091POPC   C1A64815  25.279  11.262   6.464
 5091POPC   D2A64816  25.279  11.257   6.764
 5091POPC   C3A64817  25.314  11.319   7.064
 5091POPC   C4A64818  25.230  11.343   7.364
 5091POPC   C1B64819  25.470  11.455   6.464
 5091POPC   C2B64820  25.423  11.519   6.764
 5091POPC   C3B64821  25.399  11.496   7.064
 5091POPC   C4B64822  25.420  11.450   7.364
 5092POPC   NC364823   5.919  16.696   5.564
 5092POPC   PO464824   5.885  16.780   5.864
 5092POPC   GL164825   5.882  16.712   6.164
 5092POPC   GL264826   5.763  16.683   6.164
 5092POPC   C1A64827   5.891  16.722   6.464
 5092POPC   D2A64828   5.825  16.751   6.764
 5092POPC   C3A64829   5.821  16.730   7.064
 5092POPC   C4A64830   5.845  16.715   7.364
 5092POPC   C1B64831   5.665  16.699   6.464
 5092POPC   C2B64832   5.590  16.649   6.764
 5092POPC   C3B64833   5.580  16.653   7.064
 5092POPC   C4B64834   5.675  16.624   7.364
 5093POPC   NC364835  37.686   3.495   5.564
 5093POPC   PO464836  37.672   3.492   5.864
 5093POPC   GL164837  37.717   3.540   6.164
 5093POPC   GL264838  37.617   3.663   6.164
 5093POPC   C1A64839  37.632   3.568   6.464
 5093POPC   D2A64840  37.681   3.573   6.764
 5093POPC   C3A64841  37.663   3.584   7.064
 5093POPC   C4A64842  37.661   3.554   7.364
 5093POPC   C1B64843  37.671   3.799   6.464
 5093POPC   C2B64844  37.617   3.790   6.764
 5093POPC   C3B64845  37.598   3.758   7.064
 5093POPC   C4B64846  37.673   3.788   7.364
 5094POPC   NC364847  31.432  40.750   5.564
 5094POPC   PO464848  31.514  40.806   5.864
 5094POPC   GL164849  31.439  40.814   6.164
 5094POPC   GL264850  31.629  40.768   6.164
 5094POPC   C1A64851  31.479  40.788   6.464
 5094POPC   D2A64852  31.506  40.744   6.764
 5094POPC   C3A64853  31.484  40.812   7.064
 5094POPC   C4A64854  31.447  40.804   7.364
 5094POPC   C1B64855  31.675  40.720   6.464
 5094POPC   C2B64856  31.685  40.732   6.764
 5094POPC   C3B64857  31.735  40.777   7.064
 5094POPC   C4B64858  31.747  40.750   7.364
 5095POPC   NC364859  19.856  15.217   5.564
 5095POPC   PO464860  19.879  15.183   5.864
 5095POPC   GL164861  19.846  15.146   6.164
 5095POPC   GL264862  19.991  15.223   6.164
 5095POPC   C1A64863  19.855  15.179   6.464
 5095POPC   D2A64864  19.818  15.193   6.764
 5095POPC   C3A64865  19.859  15.165   7.064
 5095POPC   C4A64866  19.838  15.226   7.364
 5095POPC   C1B64867  20.074  15.239   6.464
 5095POPC   C2B64868  20.070  15.211   6.764
 5095POPC   C3B64869  20.099  15.163   7.064
 5095POPC   C4B64870  20.075  15.164   7.364
 5096POPC   NC364871  13.639   6.638   5.564
 5096POPC   PO464872  13.655   6.627   5.864
 5096POPC   GL164873  13.620   6.692   6.164
 5096POPC   GL264874  13.497   6.525   6.164
 5096POPC   C1A64875  13.673   6.645   6.464
 5096POPC   D2A64876  13.652   6.647   6.764
 5096POPC   C3A64877  13.669   6.626   7.064
 5096POPC   C4A64878  13.622   6.683   7.364
 5096POPC   C1B64879  13.467   6.502   6.464
 5096POPC   C2B64880  13.465   6.531   6.764
 5096POPC   C3B64881  13.387   6.484   7.064
 5096POPC   C4B64882  13.436   6.480   7.364
 5097POPC   NC364883  43.115  19.821   5.564
 5097POPC   PO464884  43.102  19.804   5.864
 5097POPC   GL164885  43.086  19.860   6.164
 5097POPC   GL264886  43.228  19.891   6.164
 5097POPC   C1A64887  43.159  19.864   6.464
 5097POPC   D2A64888  43.093  19.787   6.764
 5097POPC   C3A64889  43.115  19.862   7.064
 5097POPC   C4A64890  43.131  19.827   7.364
 5097POPC   C1B64891  43.381  19.860   6.464
 5097POPC   C2B64892  43.322  19.835   6.764
 5097POPC   C3B64893  43.394  19.866   7.064
 5097POPC   C4B64894  43.308  19.919   7.364
 5098POPC   NC364895  19.063  23.699   5.564
 5098POPC   PO464896  19.010  23.714   5.864
 5098POPC   GL164897  19.085  23.681   6.164
 5098POPC   GL264898  19.001  23.795   6.164
 5098POPC   C1A64899  19.106  23.665   6.464
 5098POPC   D2A64900  19.068  23.745   6.764
 5098POPC   C3A64901  19.103  23.757   7.064
 5098POPC   C4A64902  19.041  23.757   7.364
 5098POPC   C1B64903  18.899  23.833   6.464
 5098POPC   C2B64904  18.870  23.878   6.764
 5098POPC   C3B64905  18.854  23.901   7.064
 5098POPC   C4B64906  18.823  23.841   7.364
 5099POPC   NC364907  23.705   8.158   5.564
 5099POPC   PO464908  23.719   8.235   5.864
 5099POPC   GL164909  23.696   8.218   6.164
 5099POPC   GL264910  23.592   8.202   6.164
 5099POPC   C1A64911  23.724   8.186   6.464
 5099POPC   D2A64912  23.693   8.173   6.764
 5099POPC   C3A64913  23.727   8.147   7.064
 5099POPC   C4A64914  23.697   8.241   7.364
 5099POPC   C1B64915  23.466   8.166   6.464
 5099POPC   C2B64916  23.503   8.147   6.764
 5099POPC   C3B64917  23.443   8.133   7.064
 5099POPC   C4B64918  23.442   8.163   7.364
 5100POPC   NC364919  28.379  12.026   5.564
 5100POPC   PO464920  28.377  12.038   5.864
 5100POPC   GL164921  28.400  12.056   6.164
 5100POPC   GL264922  28.419  12.030   6.164
 5100POPC   C1A64923  28.389  12.122   6.464
 5100POPC   D2A64924  28.375  12.063   6.764
 5100POPC   C3A64925  28.407  12.101   7.064
 5100POPC   C4A64926  28.378  12.070   7.364
 5100POPC   C1B64927  28.580  11.848   6.464
 5100POPC   C2B64928  28.582  11.849   6.764
 5100POPC   C3B64929  28.517  11.861   7.064
 5100POPC   C4B64930  28.535  11.922   7.364
 5101POPC   NC364931  20.595   7.386   5.564
 5101POPC   PO464932  20.617   7.427   5.864
 5101POPC   GL164933  20.591   7.456   6.164
 5101POPC   GL264934  20.604   7.537   6.164
 5101POPC   C1A64935  20.581   7.373   6.464
 5101POPC   D2A64936  20.645   7.435   6.764
 5101POPC   C3A64937  20.649   7.421   7.064
 5101POPC   C4A64938  20.636   7.395   7.364
 5101POPC   C1B64939  20.663   7.691   6.464
 5101POPC   C2B64940  20.595   7.628   6.764
 5101POPC   C3B64941  20.590   7.644   7.064
 5101POPC   C4B64942  20.636   7.666   7.364
 5102POPC   NC364943  42.304  42.314   5.564
 5102POPC   PO464944  42.357  42.323   5.864
 5102POPC   GL164945  42.355  42.336   6.164
 5102POPC   GL264946  42.355  42.199   6.164
 5102POPC   C1A64947  42.324  42.298   6.464
 5102POPC   D2A64948  42.286  42.320   6.764
 5102POPC   C3A64949  42.292  42.362   7.064
 5102POPC   C4A64950  42.329  42.375   7.364
 5102POPC   C1B64951  42.405  42.092   6.464
 5102POPC   C2B64952  42.474  42.070   6.764
 5102POPC   C3B64953  42.476  42.130   7.064
 5102POPC   C4B64954  42.426  42.088   7.364
 5103POPC   NC364955   8.959  38.501   5.564
 5103POPC   PO464956   8.938  38.410   5.864
 5103POPC   GL164957   9.001  38.503   6.164
 5103POPC   GL264958   8.840  38.339   6.164
 5103POPC   C1A64959   8.933  38.504   6.464
 5103POPC   D2A64960   8.960  38.489   6.764
 5103POPC   C3A64961   8.980  38.426   7.064
 5103POPC   C4A64962   8.981  38.443   7.364
 5103POPC   C1B64963   8.774  38.305   6.464
 5103POPC   C2B64964   8.809  38.248   6.764
 5103POPC   C3B64965   8.846  38.235   7.064
 5103POPC   C4B64966   8.828  38.248   7.364
 5104POPC   NC364967   0.468  22.957   5.564
 5104POPC   PO464968   0.430  22.921   5.864
 5104POPC   GL164969   0.437  22.913   6.164
 5104POPC   GL264970   0.468  23.029   6.164
 5104POPC   C1A64971   0.415  22.933   6.464
 5104POPC   D2A64972   0.468  22.960   6.764
 5104POPC   C3A64973   0.424  22.904   7.064
 5104POPC   C4A64974   0.472  22.898   7.364
 5104POPC   C1B64975   0.428  23.192   6.464
 5104POPC   C2B64976   0.398  23.229   6.764
 5104POPC   C3B64977   0.431  23.189   7.064
 5104POPC   C4B64978   0.401  23.223   7.364
 5105POPC   NC364979  24.520  43.932   5.564
 5105POPC   PO464980  24.451  43.848   5.864
 5105POPC   GL164981  24.442  43.901   6.164
 5105POPC   GL264982  24.639  43.795   6.164
 5105POPC   C1A64983  24.485  43.910   6.464
 5105POPC   D2A64984  24.505  43.909   6.764
 5105POPC   C3A64985  24.473  43.909   7.064
 5105POPC   C4A64986  24.459  43.866   7.364
 5105POPC   C1B64987  24.688  43.772   6.464
 5105POPC   C2B64988  24.702  43.721   6.764
 5105POPC   C3B64989  24.728  43.748   7.064
 5105POPC   C4B64990  24.700  43.721   7.364
 5106POPC   NC364991  30.716  29.935   5.564
 5106POPC   PO464992  30.727  29.899   5.864
 5106POPC   GL164993  30.682  29.915   6.164
 5106POPC   GL264994  30.708  30.056   6.164
 5106POPC   C1A64995  30.715  29.882   6.464
 5106POPC   D2A64996  30.669  29.891   6.764
 5106POPC   C3A64997  30.731  29.881   7.064
 5106POPC   C4A64998  30.708  29.875   7.364
 5106POPC   C1B64999  30.673  30.215   6.464
 5106POPC   C2B65000  30.709  30.146   6.764
 5106POPC   C3B65001  30.669  30.139   7.064
 5106POPC   C4B65002  30.661  30.205   7.364
 5107POPC   NC365003  14.410   3.576   5.564
 5107POPC   PO465004  14.378   3.517   5.864
 5107POPC   GL165005  14.393   3.589   6.164
 5107POPC   GL265006  14.522   3.565   6.164
 5107POPC   C1A65007  14.399   3.575   6.464
 5107POPC   D2A65008  14.412   3.541   6.764
 5107POPC   C3A65009  14.371   3.504   7.064
 5107POPC   C4A65010  14.354   3.506   7.364
 5107POPC   C1B65011  14.676   3.557   6.464
 5107POPC   C2B65012  14.655   3.506   6.764
 5107POPC   C3B65013  14.687   3.550   7.064
 5107POPC   C4B65014  14.679   3.509   7.364
 5108POPC   NC365015  33.779  29.915   5.564
 5108POPC   PO465016  33.764  29.970   5.864
 5108POPC   GL165017  33.769  29.903   6.164
 5108POPC   GL265018  33.748  29.843   6.164
 5108POPC   C1A65019  33.819  29.917   6.464
 5108POPC   D2A65020  33.784  29.897   6.764
 5108POPC   C3A65021  33.752  29.902   7.064
 5108POPC   C4A65022  33.812  29.904   7.364
 5108POPC   C1B65023  33.652  29.751   6.464
 5108POPC   C2B65024  33.668  29.723   6.764
 5108POPC   C3B65025  33.605  29.703   7.064
 5108POPC   C4B65026  33.669  29.780   7.364
 5109POPC   NC365027  14.411  14.426   5.564
 5109POPC   PO465028  14.402  14.453   5.864
 5109POPC   GL165029  14.431  14.397   6.164
 5109POPC   GL265030  14.289  14.277   6.164
 5109POPC   C1A65031  14.376  14.435   6.464
 5109POPC   D2A65032  14.449  14.401   6.764
 5109POPC   C3A65033  14.368  14.417   7.064
 5109POPC   C4A65034  14.395  14.396   7.364
 5109POPC   C1B65035  14.215  14.249   6.464
 5109POPC   C2B65036  14.217  14.233   6.764
 5109POPC   C3B65037  14.233  14.248   7.064
 5109POPC   C4B65038  14.235  14.189   7.364
 5110POPC   NC365039  19.840  23.728   5.564
 5110POPC   PO465040  19.865  23.666   5.864
 5110POPC   GL165041  19.824  23.697   6.164
 5110POPC   GL265042  19.957  23.773   6.164
 5110POPC   C1A65043  19.857  23.748   6.464
 5110POPC   D2A65044  19.857  23.717   6.764
 5110POPC   C3A65045  19.863  23.689   7.064
 5110POPC   C4A65046  19.856  23.717   7.364
 5110POPC   C1B65047  20.028  23.859   6.464
 5110POPC   C2B65048  19.980  23.907   6.764
 5110POPC   C3B65049  20.007  23.898   7.064
 5110POPC   C4B65050  20.045  23.909   7.364
 5111POPC   NC365051   7.372   7.437   5.564
 5111POPC   PO465052   7.443   7.453   5.864
 5111POPC   GL165053   7.437   7.413   6.164
 5111POPC   GL265054   7.302   7.295   6.164
 5111POPC   C1A65055   7.390   7.433   6.464
 5111POPC   D2A65056   7.406   7.378   6.764
 5111POPC   C3A65057   7.464   7.413   7.064
 5111POPC   C4A65058   7.377   7.387   7.364
 5111POPC   C1B65059   7.207   7.291   6.464
 5111POPC   C2B65060   7.259   7.306   6.764
 5111POPC   C3B65061   7.228   7.278   7.064
 5111POPC   C4B65062   7.241   7.259   7.364
 5112POPC   NC365063  25.233  13.621   5.564
 5112POPC   PO465064  25.282  13.624   5.864
 5112POPC   GL165065  25.230  13.587   6.164
 5112POPC   GL265066  25.319  13.728   6.164
 5112POPC   C1A65067  25.254  13.646   6.464
 5112POPC   D2A65068  25.254  13.586   6.764
 5112POPC   C3A65069  25.277  13.629   7.064
 5112POPC   C4A65070  25.260  13.625   7.364
 5112POPC   C1B65071  25.455  13.831   6.464
 5112POPC   C2B65072  25.426  13.778   6.764
 5112POPC   C3B65073  25.470  13.829   7.064
 5112POPC   C4B65074  25.423  13.812   7.364
 5113POPC   NC365075  12.826  12.089   5.564
 5113POPC   PO465076  12.869  12.026   5.864
 5113POPC   GL165077  12.817  12.034   6.164
 5113POPC   GL265078  12.779  12.003   6.164
 5113POPC   C1A65079  12.881  12.037   6.464
 5113POPC   D2A65080  12.843  12.065   6.764
 5113POPC   C3A65081  12.849  12.044   7.064
 5113POPC   C4A65082  12.894  12.119   7.364
 5113POPC   C1B65083  12.638  11.997   6.464
 5113POPC   C2B65084  12.670  12.006   6.764
 5113POPC   C3B65085  12.647  11.966   7.064
 5113POPC   C4B65086  12.591  11.970   7.364
 5114POPC   NC365087  30.662  25.246   5.564
 5114POPC   PO465088  30.696  25.235   5.864
 5114POPC   GL165089  30.733  25.250   6.164
 5114POPC   GL265090  30.648  25.376   6.164
 5114POPC   C1A65091  30.659  25.247   6.464
 5114POPC   D2A65092  30.693  25.273   6.764
 5114POPC   C3A65093  30.711  25.265   7.064
 5114POPC   C4A65094  30.655  25.257   7.364
 5114POPC   C1B65095  30.596  25.496   6.464
 5114POPC   C2B65096  30.590  25.492   6.764
 5114POPC   C3B65097  30.551  25.527   7.064
 5114POPC   C4B65098  30.563  25.456   7.364
 5115POPC   NC365099   8.222  10.559   5.564
 5115POPC   PO465100   8.195  10.485   5.864
 5115POPC   GL165101   8.194  10.562   6.164
 5115POPC   GL265102   8.235  10.416   6.164
 5115POPC   C1A65103   8.225  10.573   6.464
 5115POPC   D2A65104   8.194  10.528   6.764
 5115POPC   C3A65105   8.196  10.564   7.064
 5115POPC   C4A65106   8.153  10.541   7.364
 5115POPC   C1B65107   8.281  10.249   6.464
 5115POPC   C2B65108   8.225  10.254   6.764
 5115POPC   C3B65109   8.272  10.292   7.064
 5115POPC   C4B65110   8.260  10.257   7.364
 5116POPC   NC365111   0.456  14.414   5.564
 5116POPC   PO465112   0.397  14.385   5.864
 5116POPC   GL165113   0.459  14.375   6.164
 5116POPC   GL265114   0.271  14.391   6.164
 5116POPC   C1A65115   0.420  14.432   6.464
 5116POPC   D2A65116   0.436  14.356   6.764
 5116POPC   C3A65117   0.460  14.371   7.064
 5116POPC   C4A65118   0.393  14.410   7.364
 5116POPC   C1B65119   0.178  14.488   6.464
 5116POPC   C2B65120   0.201  14.452   6.764
 5116POPC   C3B65121   0.200  14.468   7.064
 5116POPC   C4B65122   0.228  14.485   7.364
 5117POPC   NC365123  29.946  23.729   5.564
 5117POPC   PO465124  29.916  23.719   5.864
 5117POPC   GL165125  29.938  23.697   6.164
 5117POPC   GL265126  29.829  23.625   6.164
 5117POPC   C1A65127  29.940  23.700   6.464
 5117POPC   D2A65128  29.966  23.729   6.764
 5117POPC   C3A65129  29.874  23.683   7.064
 5117POPC   C4A65130  29.903  23.675   7.364
 5117POPC   C1B65131  29.647  23.648   6.464
 5117POPC   C2B65132  29.660  23.636   6.764
 5117POPC   C3B65133  29.716  23.625   7.064
 5117POPC   C4B65134  29.672  23.610   7.364
 5118POPC   NC365135  43.921   4.356   5.564
 5118POPC   PO465136  43.855   4.339   5.864
 5118POPC   GL165137  43.859   4.335   6.164
 5118POPC   GL265138  44.040   4.395   6.164
 5118POPC   C1A65139  43.877   4.331   6.464
 5118POPC   D2A65140  43.843   4.299   6.764
 5118POPC   C3A65141  43.907   4.345   7.064
 5118POPC   C4A65142  43.859   4.336   7.364
 5118POPC   C1B65143  44.085   4.458   6.464
 5118POPC   C2B65144  44.062   4.443   6.764
 5118POPC   C3B65145  44.078   4.428   7.064
 5118POPC   C4B65146  44.073   4.395   7.364
 5119POPC   NC365147   9.006   1.180   5.564
 5119POPC   PO465148   8.929   1.216   5.864
 5119POPC   GL165149   9.006   1.252   6.164
 5119POPC   GL265150   9.021   1.365   6.164
 5119POPC   C1A65151   9.011   1.226   6.464
 5119POPC   D2A65152   8.951   1.180   6.764
 5119POPC   C3A65153   9.009   1.262   7.064
 5119POPC   C4A65154   8.963   1.189   7.364
 5119POPC   C1B65155   9.057   1.456   6.464
 5119POPC   C2B65156   8.999   1.461   6.764
 5119POPC   C3B65157   9.072   1.481   7.064
 5119POPC   C4B65158   9.068   1.500   7.364
 5120POPC   NC365159  37.671  32.239   5.564
 5120POPC   PO465160  37.672  32.291   5.864
 5120POPC   GL165161  37.694  32.199   6.164
 5120POPC   GL265162  37.507  32.220   6.164
 5120POPC   C1A65163  37.721  32.232   6.464
 5120POPC   D2A65164  37.646  32.254   6.764
 5120POPC   C3A65165  37.726  32.200   7.064
 5120POPC   C4A65166  37.699  32.231   7.364
 5120POPC   C1B65167  37.456  32.279   6.464
 5120POPC   C2B65168  37.394  32.230   6.764
 5120POPC   C3B65169  37.462  32.265   7.064
 5120POPC   C4B65170  37.431  32.277   7.364
 5121POPC   NC365171  36.938  19.825   5.564
 5121POPC   PO465172  36.879  19.810   5.864
 5121POPC   GL165173  36.906  19.853   6.164
 5121POPC   GL265174  36.821  19.728   6.164
 5121POPC   C1A65175  36.946  19.840   6.464
 5121POPC   D2A65176  36.916  19.810   6.764
 5121POPC   C3A65177  36.890  19.878   7.064
 5121POPC   C4A65178  36.919  19.832   7.364
 5121POPC   C1B65179  36.824  19.647   6.464
 5121POPC   C2B65180  36.802  19.617   6.764
 5121POPC   C3B65181  36.776  19.647   7.064
 5121POPC   C4B65182  36.855  19.559   7.364
 5122POPC   NC365183   6.658  17.470   5.564
 5122POPC   PO465184   6.680  17.483   5.864
 5122POPC   GL165185   6.604  17.461   6.164
 5122POPC   GL265186   6.716  17.414   6.164
 5122POPC   C1A65187   6.639  17.507   6.464
 5122POPC   D2A65188   6.680  17.498   6.764
 5122POPC   C3A65189   6.599  17.499   7.064
 5122POPC   C4A65190   6.599  17.552   7.364
 5122POPC   C1B65191   6.873  17.369   6.464
 5122POPC   C2B65192   6.796  17.365   6.764
 5122POPC   C3B65193   6.839  17.379   7.064
 5122POPC   C4B65194   6.798  17.384   7.364
 5123POPC   NC365195  19.828  18.275   5.564
 5123POPC   PO465196  19.872  18.290   5.864
 5123POPC   GL165197  19.854  18.273   6.164
 5123POPC   GL265198  19.840  18.362   6.164
 5123POPC   C1A65199  19.857  18.254   6.464
 5123POPC   D2A65200  19.794  18.248   6.764
 5123POPC   C3A65201  19.846  18.271   7.064
 5123POPC   C4A65202  19.860  18.235   7.364
 5123POPC   C1B65203  19.777  18.504   6.464
 5123POPC   C2B65204  19.772  18.541   6.764
 5123POPC   C3B65205  19.807  18.482   7.064
 5123POPC   C4B65206  19.823  18.543   7.364
 5124POPC   NC365207  42.305   5.082   5.564
 5124POPC   PO465208  42.304   5.048   5.864
 5124POPC   GL165209  42.323   5.077   6.164
 5124POPC   GL265210  42.433   5.026   6.164
 5124POPC   C1A65211  42.297   5.059   6.464
 5124POPC   D2A65212  42.298   5.051   6.764
 5124POPC   C3A65213  42.354   5.052   7.064
 5124POPC   C4A65214  42.344   5.062   7.364
 5124POPC   C1B65215  42.526   5.014   6.464
 5124POPC   C2B65216  42.619   5.048   6.764
 5124POPC   C3B65217  42.575   4.995   7.064
 5124POPC   C4B65218  42.533   4.995   7.364
 5125POPC   NC365219  40.738  33.774   5.564
 5125POPC   PO465220  40.786  33.759   5.864
 5125POPC   GL165221  40.819  33.837   6.164
 5125POPC   GL265222  40.839  33.651   6.164
 5125POPC   C1A65223  40.763  33.812   6.464
 5125POPC   D2A65224  40.827  33.838   6.764
 5125POPC   C3A65225  40.785  33.752   7.064
 5125POPC   C4A65226  40.821  33.775   7.364
 5125POPC   C1B65227  40.867  33.592   6.464
 5125POPC   C2B65228  40.871  33.521   6.764
 5125POPC   C3B65229  40.836  33.535   7.064
 5125POPC   C4B65230  40.885  33.560   7.364
 5126POPC   NC365231   7.394  16.682   5.564
 5126POPC   PO465232   7.431  16.761   5.864
 5126POPC   GL165233   7.448  16.775   6.164
 5126POPC   GL265234   7.527  16.823   6.164
 5126POPC   C1A65235   7.403  16.719   6.464
 5126POPC   D2A65236   7.463  16.693   6.764
 5126POPC   C3A65237   7.469  16.697   7.064
 5126POPC   C4A65238   7.456  16.706   7.364
 5126POPC   C1B65239   7.567  16.934   6.464
 5126POPC   C2B65240   7.628  16.929   6.764
 5126POPC   C3B65241   7.629  16.920   7.064
 5126POPC   C4B65242   7.653  16.922   7.364
 5127POPC   NC365243   9.728  43.908   5.564
 5127POPC   PO465244   9.766  43.915   5.864
 5127POPC   GL165245   9.709  43.925   6.164
 5127POPC   GL265246   9.719  44.050   6.164
 5127POPC   C1A65247   9.736  43.924   6.464
 5127POPC   D2A65248   9.733  43.861   6.764
 5127POPC   C3A65249   9.785  43.895   7.064
 5127POPC   C4A65250   9.776  43.897   7.364
 5127POPC   C1B65251   9.634  44.148   6.464
 5127POPC   C2B65252   9.667  44.163   6.764
 5127POPC   C3B65253   9.619  44.105   7.064
 5127POPC   C4B65254   9.642  44.069   7.364
 5128POPC   NC365255  43.151  40.763   5.564
 5128POPC   PO465256  43.101  40.826   5.864
 5128POPC   GL165257  43.088  40.816   6.164
 5128POPC   GL265258  43.233  40.847   6.164
 5128POPC   C1A65259  43.153  40.785   6.464
 5128POPC   D2A65260  43.148  40.752   6.764
 5128POPC   C3A65261  43.125  40.748   7.064
 5128POPC   C4A65262  43.150  40.765   7.364
 5128POPC   C1B65263  43.382  40.889   6.464
 5128POPC   C2B65264  43.327  40.891   6.764
 5128POPC   C3B65265  43.320  40.890   7.064
 5128POPC   C4B65266  43.306  40.876   7.364
 5129POPC   NC365267  12.111  40.789   5.564
 5129POPC   PO465268  12.078  40.789   5.864
 5129POPC   GL165269  12.046  40.803   6.164
 5129POPC   GL265270  12.207  40.757   6.164
 5129POPC   C1A65271  12.088  40.786   6.464
 5129POPC   D2A65272  12.045  40.807   6.764
 5129POPC   C3A65273  12.031  40.818   7.064
 5129POPC   C4A65274  12.096  40.762   7.364
 5129POPC   C1B65275  12.299  40.685   6.464
 5129POPC   C2B65276  12.257  40.629   6.764
 5129POPC   C3B65277  12.322  40.694   7.064
 5129POPC   C4B65278  12.333  40.666   7.364
 5130POPC   NC365279  38.451  39.275   5.564
 5130POPC   PO465280  38.468  39.222   5.864
 5130POPC   GL165281  38.489  39.206   6.164
 5130POPC   GL265282  38.314  39.161   6.164
 5130POPC   C1A65283  38.488  39.241   6.464
 5130POPC   D2A65284  38.483  39.208   6.764
 5130POPC   C3A65285  38.409  39.275   7.064
 5130POPC   C4A65286  38.499  39.236   7.364
 5130POPC   C1B65287  38.254  39.162   6.464
 5130POPC   C2B65288  38.193  39.111   6.764
 5130POPC   C3B65289  38.198  39.102   7.064
 5130POPC   C4B65290  38.214  39.163   7.364
 5131POPC   NC365291  39.989  21.404   5.564
 5131POPC   PO465292  40.008  21.409   5.864
 5131POPC   GL165293  40.021  21.352   6.164
 5131POPC   GL265294  40.045  21.248   6.164
 5131POPC   C1A65295  40.006  21.369   6.464
 5131POPC   D2A65296  39.961  21.385   6.764
 5131POPC   C3A65297  40.009  21.353   7.064
 5131POPC   C4A65298  40.022  21.416   7.364
 5131POPC   C1B65299  40.144  21.163   6.464
 5131POPC   C2B65300  40.070  21.134   6.764
 5131POPC   C3B65301  40.089  21.142   7.064
 5131POPC   C4B65302  40.113  21.187   7.364
 5132POPC   NC365303  43.089  30.707   5.564
 5132POPC   PO465304  43.114  30.698   5.864
 5132POPC   GL165305  43.103  30.730   6.164
 5132POPC   GL265306  43.061  30.821   6.164
 5132POPC   C1A65307  43.156  30.717   6.464
 5132POPC   D2A65308  43.117  30.728   6.764
 5132POPC   C3A65309  43.119  30.685   7.064
 5132POPC   C4A65310  43.108  30.653   7.364
 5132POPC   C1B65311  43.086  30.974   6.464
 5132POPC   C2B65312  43.033  30.955   6.764
 5132POPC   C3B65313  43.034  30.940   7.064
 5132POPC   C4B65314  43.037  30.982   7.364
 5133POPC   NC365315  28.327  22.147   5.564
 5133POPC   PO465316  28.412  22.137   5.864
 5133POPC   GL165317  28.408  22.132   6.164
 5133POPC   GL265318  28.409  22.258   6.164
 5133POPC   C1A65319  28.403  22.152   6.464
 5133POPC   D2A65320  28.340  22.165   6.764
 5133POPC   C3A65321  28.387  22.121   7.064
 5133POPC   C4A65322  28.377  22.158   7.364
 5133POPC   C1B65323  28.366  22.378   6.464
 5133POPC   C2B65324  28.357  22.389   6.764
 5133POPC   C3B65325  28.386  22.396   7.064
 5133POPC   C4B65326  28.377  22.368   7.364
 5134POPC   NC365327  44.621  20.631   5.564
 5134POPC   PO465328  44.668  20.623   5.864
 5134POPC   GL165329  44.704  20.592   6.164
 5134POPC   GL265330  44.826  20.584   6.164
 5134POPC   C1A65331  44.653  20.626   6.464
 5134POPC   D2A65332  44.689  20.629   6.764
 5134POPC   C3A65333  44.685  20.593   7.064
 5134POPC   C4A65334  44.682  20.622   7.364
 5134POPC   C1B65335  44.860  20.674   6.464
 5134POPC   C2B65336  44.935  20.648   6.764
 5134POPC   C3B65337  44.954  20.653   7.064
 5134POPC   C4B65338  44.871  20.654   7.364
 5135POPC   NC365339  35.323  36.854   5.564
 5135POPC   PO465340  35.307  36.867   5.864
 5135POPC   GL165341  35.308  36.855   6.164
 5135POPC   GL265342  35.201  36.994   6.164
 5135POPC   C1A65343  35.369  36.926   6.464
 5135POPC   D2A65344  35.375  36.854   6.764
 5135POPC   C3A65345  35.338  36.900   7.064
 5135POPC   C4A65346  35.317  36.856   7.364
 5135POPC   C1B65347  35.117  36.953   6.464
 5135POPC   C2B65348  35.144  37.048   6.764
 5135POPC   C3B65349  35.107  36.994   7.064
 5135POPC   C4B65350  35.094  37.031   7.364
 5136POPC   NC365351  34.580  31.435   5.564
 5136POPC   PO465352  34.625  31.460   5.864
 5136POPC   GL165353  34.540  31.453   6.164
 5136POPC   GL265354  34.458  31.598   6.164
 5136POPC   C1A65355  34.587  31.453   6.464
 5136POPC   D2A65356  34.624  31.436   6.764
 5136POPC   C3A65357  34.616  31.457   7.064
 5136POPC   C4A65358  34.622  31.512   7.364
 5136POPC   C1B65359  34.381  31.681   6.464
 5136POPC   C2B65360  34.416  31.656   6.764
 5136POPC   C3B65361  34.366  31.662   7.064
 5136POPC   C4B65362  34.423  31.695   7.364
 5137POPC   NC365363   2.788  41.604   5.564
 5137POPC   PO465364   2.721  41.575   5.864
 5137POPC   GL165365   2.743  41.565   6.164
 5137POPC   GL265366   2.728  41.458   6.164
 5137POPC   C1A65367   2.762  41.595   6.464
 5137POPC   D2A65368   2.747  41.554   6.764
 5137POPC   C3A65369   2.782  41.600   7.064
 5137POPC   C4A65370   2.733  41.557   7.364
 5137POPC   C1B65371   2.719  41.341   6.464
 5137POPC   C2B65372   2.740  41.319   6.764
 5137POPC   C3B65373   2.732  41.307   7.064
 5137POPC   C4B65374   2.764  41.321   7.364
 5138POPC   NC365375  12.864   5.833   5.564
 5138POPC   PO465376  12.862   5.892   5.864
 5138POPC   GL165377  12.832   5.869   6.164
 5138POPC   GL265378  12.760   5.944   6.164
 5138POPC   C1A65379  12.891   5.837   6.464
 5138POPC   D2A65380  12.826   5.891   6.764
 5138POPC   C3A65381  12.817   5.914   7.064
 5138POPC   C4A65382  12.843   5.830   7.364
 5138POPC   C1B65383  12.582   6.004   6.464
 5138POPC   C2B65384  12.625   5.939   6.764
 5138POPC   C3B65385  12.628   6.024   7.064
 5138POPC   C4B65386  12.627   5.965   7.364
 5139POPC   NC365387  35.327  29.152   5.564
 5139POPC   PO465388  35.316  29.104   5.864
 5139POPC   GL165389  35.359  29.176   6.164
 5139POPC   GL265390  35.251  29.246   6.164
 5139POPC   C1A65391  35.341  29.161   6.464
 5139POPC   D2A65392  35.310  29.166   6.764
 5139POPC   C3A65393  35.339  29.183   7.064
 5139POPC   C4A65394  35.338  29.097   7.364
 5139POPC   C1B65395  35.202  29.314   6.464
 5139POPC   C2B65396  35.199  29.367   6.764
 5139POPC   C3B65397  35.185  29.388   7.064
 5139POPC   C4B65398  35.149  29.360   7.364
 5140POPC   NC365399  22.138  41.549   5.564
 5140POPC   PO465400  22.207  41.591   5.864
 5140POPC   GL165401  22.142  41.535   6.164
 5140POPC   GL265402  22.054  41.633   6.164
 5140POPC   C1A65403  22.182  41.557   6.464
 5140POPC   D2A65404  22.204  41.554   6.764
 5140POPC   C3A65405  22.164  41.604   7.064
 5140POPC   C4A65406  22.185  41.511   7.364
 5140POPC   C1B65407  21.968  41.712   6.464
 5140POPC   C2B65408  21.967  41.701   6.764
 5140POPC   C3B65409  21.959  41.655   7.064
 5140POPC   C4B65410  21.962  41.696   7.364
 5141POPC   NC365411  22.982  39.232   5.564
 5141POPC   PO465412  22.930  39.213   5.864
 5141POPC   GL165413  22.928  39.245   6.164
 5141POPC   GL265414  23.028  39.252   6.164
 5141POPC   C1A65415  22.940  39.207   6.464
 5141POPC   D2A65416  22.915  39.255   6.764
 5141POPC   C3A65417  22.908  39.240   7.064
 5141POPC   C4A65418  22.957  39.183   7.364
 5141POPC   C1B65419  23.153  39.218   6.464
 5141POPC   C2B65420  23.211  39.228   6.764
 5141POPC   C3B65421  23.193  39.234   7.064
 5141POPC   C4B65422  23.146  39.263   7.364
 5142POPC   NC365423  19.847   1.236   5.564
 5142POPC   PO465424  19.847   1.237   5.864
 5142POPC   GL165425  19.860   1.231   6.164
 5142POPC   GL265426  19.730   1.172   6.164
 5142POPC   C1A65427  19.858   1.173   6.464
 5142POPC   D2A65428  19.825   1.198   6.764
 5142POPC   C3A65429  19.867   1.254   7.064
 5142POPC   C4A65430  19.879   1.213   7.364
 5142POPC   C1B65431  19.559   1.081   6.464
 5142POPC   C2B65432  19.645   1.099   6.764
 5142POPC   C3B65433  19.598   1.091   7.064
 5142POPC   C4B65434  19.580   1.155   7.364
 5143POPC   NC365435   5.821  36.105   5.564
 5143POPC   PO465436   5.847  36.081   5.864
 5143POPC   GL165437   5.853  36.085   6.164
 5143POPC   GL265438   5.931  36.215   6.164
 5143POPC   C1A65439   5.822  36.168   6.464
 5143POPC   D2A65440   5.846  36.158   6.764
 5143POPC   C3A65441   5.896  36.141   7.064
 5143POPC   C4A65442   5.840  36.128   7.364
 5143POPC   C1B65443   5.930  36.381   6.464
 5143POPC   C2B65444   5.890  36.333   6.764
 5143POPC   C3B65445   5.860  36.405   7.064
 5143POPC   C4B65446   5.945  36.355   7.364
 5144POPC   NC365447  29.914  14.358   5.564
 5144POPC   PO465448  29.892  14.397   5.864
 5144POPC   GL165449  29.923  14.356   6.164
 5144POPC   GL265450  29.844  14.481   6.164
 5144POPC   C1A65451  29.961  14.413   6.464
 5144POPC   D2A65452  29.928  14.417   6.764
 5144POPC   C3A65453  29.896  14.375   7.064
 5144POPC   C4A65454  29.948  14.405   7.364
 5144POPC   C1B65455  29.854  14.671   6.464
 5144POPC   C2B65456  29.817  14.670   6.764
 5144POPC   C3B65457  29.843  14.628   7.064
 5144POPC   C4B65458  29.790  14.634   7.364
 5145POPC   NC365459  37.658  11.346   5.564
 5145POPC   PO465460  37.633  11.317   5.864
 5145POPC   GL165461  37.666  11.257   6.164
 5145POPC   GL265462  37.539  11.293   6.164
 5145POPC   C1A65463  37.684  11.332   6.464
 5145POPC   D2A65464  37.702  11.267   6.764
 5145POPC   C3A65465  37.645  11.251   7.064
 5145POPC   C4A65466  37.696  11.295   7.364
 5145POPC   C1B65467  37.406  11.150   6.464
 5145POPC   C2B65468  37.408  11.166   6.764
 5145POPC   C3B65469  37.413  11.226   7.064
 5145POPC   C4B65470  37.405  11.229   7.364
 5146POPC   NC365471   2.024   2.035   5.564
 5146POPC   PO465472   1.975   2.000   5.864
 5146POPC   GL165473   1.988   2.034   6.164
 5146POPC   GL265474   2.053   1.881   6.164
 5146POPC   C1A65475   2.010   1.968   6.464
 5146POPC   D2A65476   1.971   2.014   6.764
 5146POPC   C3A65477   2.014   2.009   7.064
 5146POPC   C4A65478   2.012   2.016   7.364
 5146POPC   C1B65479   2.155   1.828   6.464
 5146POPC   C2B65480   2.155   1.903   6.764
 5146POPC   C3B65481   2.194   1.809   7.064
 5146POPC   C4B65482   2.224   1.859   7.364
 5147POPC   NC365483  34.584  43.862   5.564
 5147POPC   PO465484  34.613  43.862   5.864
 5147POPC   GL165485  34.625  43.852   6.164
 5147POPC   GL265486  34.646  43.844   6.164
 5147POPC   C1A65487  34.608  43.927   6.464
 5147POPC   D2A65488  34.551  43.904   6.764
 5147POPC   C3A65489  34.606  43.928   7.064
 5147POPC   C4A65490  34.572  43.924   7.364
 5147POPC   C1B65491  34.761  43.716   6.464
 5147POPC   C2B65492  34.772  43.752   6.764
 5147POPC   C3B65493  34.803  43.756   7.064
 5147POPC   C4B65494  34.781  43.763   7.364
 5148POPC   NC365495  44.646  16.714   5.564
 5148POPC   PO465496  44.694  16.735   5.864
 5148POPC   GL165497  44.634  16.763   6.164
 5148POPC   GL265498  44.655  16.882   6.164
 5148POPC   C1A65499  44.692  16.772   6.464
 5148POPC   D2A65500  44.679  16.683   6.764
 5148POPC   C3A65501  44.655  16.707   7.064
 5148POPC   C4A65502  44.707  16.709   7.364
 5148POPC   C1B65503  44.549  16.955   6.464
 5148POPC   C2B65504  44.555  16.962   6.764
 5148POPC   C3B65505  44.584  16.961   7.064
 5148POPC   C4B65506  44.578  16.970   7.364
 5149POPC   NC365507  42.315  12.851   5.564
 5149POPC   PO465508  42.301  12.873   5.864
 5149POPC   GL165509  42.357  12.832   6.164
 5149POPC   GL265510  42.245  12.788   6.164
 5149POPC   C1A65511  42.302  12.868   6.464
 5149POPC   D2A65512  42.380  12.847   6.764
 5149POPC   C3A65513  42.310  12.807   7.064
 5149POPC   C4A65514  42.321  12.874   7.364
 5149POPC   C1B65515  42.110  12.745   6.464
 5149POPC   C2B65516  42.103  12.768   6.764
 5149POPC   C3B65517  42.114  12.747   7.064
 5149POPC   C4B65518  42.068  12.804   7.364
 5150POPC   NC365519  22.921   2.019   5.564
 5150POPC   PO465520  22.976   1.980   5.864
 5150POPC   GL165521  22.971   1.959   6.164
 5150POPC   GL265522  22.849   1.965   6.164
 5150POPC   C1A65523  22.970   2.022   6.464
 5150POPC   D2A65524  22.922   1.948   6.764
 5150POPC   C3A65525  22.986   2.023   7.064
 5150POPC   C4A65526  22.934   1.985   7.364
 5150POPC   C1B65527  22.734   1.838   6.464
 5150POPC   C2B65528  22.752   1.909   6.764
 5150POPC   C3B65529  22.662   1.930   7.064
 5150POPC   C4B65530  22.738   1.858   7.364
 5151POPC   NC365531  43.145  16.696   5.564
 5151POPC   PO465532  43.122  16.711   5.864
 5151POPC   GL165533  43.062  16.764   6.164
 5151POPC   GL265534  42.991  16.715   6.164
 5151POPC   C1A65535  43.137  16.735   6.464
 5151POPC   D2A65536  43.148  16.781   6.764
 5151POPC   C3A65537  43.102  16.715   7.064
 5151POPC   C4A65538  43.150  16.778   7.364
 5151POPC   C1B65539  42.888  16.726   6.464
 5151POPC   C2B65540  42.878  16.744   6.764
 5151POPC   C3B65541  42.908  16.723   7.064
 5151POPC   C4B65542  42.860  16.777   7.364
 5152POPC   NC365543  41.591  24.521   5.564
 5152POPC   PO465544  41.582  24.513   5.864
 5152POPC   GL165545  41.549  24.477   6.164
 5152POPC   GL265546  41.684  24.467   6.164
 5152POPC   C1A65547  41.573  24.482   6.464
 5152POPC   D2A65548  41.557  24.498   6.764
 5152POPC   C3A65549  41.558  24.503   7.064
 5152POPC   C4A65550  41.606  24.501   7.364
 5152POPC   C1B65551  41.818  24.489   6.464
 5152POPC   C2B65552  41.809  24.522   6.764
 5152POPC   C3B65553  41.763  24.492   7.064
 5152POPC   C4B65554  41.778  24.508   7.364
 5153POPC   NC365555  22.977  44.652   5.564
 5153POPC   PO465556  22.978  44.693   5.864
 5153POPC   GL165557  22.930  44.666   6.164
 5153POPC   GL265558  23.043  44.651   6.164
 5153POPC   C1A65559  22.889  44.627   6.464
 5153POPC   D2A65560  22.954  44.670   6.764
 5153POPC   C3A65561  22.985  44.698   7.064
 5153POPC   C4A65562  22.934  44.654   7.364
 5153POPC   C1B65563  23.179  44.591   6.464
 5153POPC   C2B65564  23.226  44.647   6.764
 5153POPC   C3B65565  23.142  44.629   7.064
 5153POPC   C4B65566  23.202  44.587   7.364
 5154POPC   NC365567  29.106  12.031   5.564
 5154POPC   PO465568  29.132  12.035   5.864
 5154POPC   GL165569  29.157  12.078   6.164
 5154POPC   GL265570  29.148  12.157   6.164
 5154POPC   C1A65571  29.101  12.086   6.464
 5154POPC   D2A65572  29.188  12.107   6.764
 5154POPC   C3A65573  29.148  12.059   7.064
 5154POPC   C4A65574  29.181  12.089   7.364
 5154POPC   C1B65575  29.141  12.288   6.464
 5154POPC   C2B65576  29.124  12.315   6.764
 5154POPC   C3B65577  29.174  12.278   7.064
 5154POPC   C4B65578  29.149  12.278   7.364
 5155POPC   NC365579  13.622   4.355   5.564
 5155POPC   PO465580  13.607   4.363   5.864
 5155POPC   GL165581  13.623   4.364   6.164
 5155POPC   GL265582  13.729   4.317   6.164
 5155POPC   C1A65583  13.612   4.346   6.464
 5155POPC   D2A65584  13.583   4.268   6.764
 5155POPC   C3A65585  13.620   4.310   7.064
 5155POPC   C4A65586  13.655   4.331   7.364
 5155POPC   C1B65587  13.912   4.311   6.464
 5155POPC   C2B65588  13.874   4.329   6.764
 5155POPC   C3B65589  13.896   4.359   7.064
 5155POPC   C4B65590  13.874   4.354   7.364
 5156POPC   NC365591  17.473  16.773   5.564
 5156POPC   PO465592  17.471  16.725   5.864
 5156POPC   GL165593  17.460  16.721   6.164
 5156POPC   GL265594  17.373  16.826   6.164
 5156POPC   C1A65595  17.553  16.717   6.464
 5156POPC   D2A65596  17.471  16.683   6.764
 5156POPC   C3A65597  17.550  16.721   7.064
 5156POPC   C4A65598  17.544  16.700   7.364
 5156POPC   C1B65599  17.261  16.841   6.464
 5156POPC   C2B65600  17.337  16.868   6.764
 5156POPC   C3B65601  17.283  16.911   7.064
 5156POPC   C4B65602  17.316  16.889   7.364
 5157POPC   NC365603  43.075  38.462   5.564
 5157POPC   PO465604  43.138  38.468   5.864
 5157POPC   GL165605  43.135  38.458   6.164
 5157POPC   GL265606  43.032  38.394   6.164
 5157POPC   C1A65607  43.146  38.497   6.464
 5157POPC   D2A65608  43.129  38.458   6.764
 5157POPC   C3A65609  43.068  38.429   7.064
 5157POPC   C4A65610  43.078  38.409   7.364
 5157POPC   C1B65611  42.904  38.365   6.464
 5157POPC   C2B65612  42.873  38.376   6.764
 5157POPC   C3B65613  42.828  38.341   7.064
 5157POPC   C4B65614  42.832  38.404   7.364
 5158POPC   NC365615  12.044   2.813   5.564
 5158POPC   PO465616  12.032   2.719   5.864
 5158POPC   GL165617  12.112   2.781   6.164
 5158POPC   GL265618  11.961   2.664   6.164
 5158POPC   C1A65619  12.046   2.758   6.464
 5158POPC   D2A65620  12.065   2.805   6.764
 5158POPC   C3A65621  12.079   2.798   7.064
 5158POPC   C4A65622  12.093   2.789   7.364
 5158POPC   C1B65623  11.850   2.667   6.464
 5158POPC   C2B65624  11.827   2.620   6.764
 5158POPC   C3B65625  11.851   2.625   7.064
 5158POPC   C4B65626  11.830   2.604   7.364
 5159POPC   NC365627  41.564   8.202   5.564
 5159POPC   PO465628  41.583   8.147   5.864
 5159POPC   GL165629  41.515   8.197   6.164
 5159POPC   GL265630  41.499   8.076   6.164
 5159POPC   C1A65631  41.560   8.171   6.464
 5159POPC   D2A65632  41.527   8.211   6.764
 5159POPC   C3A65633  41.543   8.246   7.064
 5159POPC   C4A65634  41.526   8.161   7.364
 5159POPC   C1B65635  41.321   8.059   6.464
 5159POPC   C2B65636  41.370   8.021   6.764
 5159POPC   C3B65637  41.359   8.030   7.064
 5159POPC   C4B65638  41.373   8.090   7.364
 5160POPC   NC365639  36.927  13.664   5.564
 5160POPC   PO465640  36.866  13.580   5.864
 5160POPC   GL165641  36.924  13.600   6.164
 5160POPC   GL265642  37.004  13.608   6.164
 5160POPC   C1A65643  36.905  13.641   6.464
 5160POPC   D2A65644  36.935  13.626   6.764
 5160POPC   C3A65645  36.952  13.673   7.064
 5160POPC   C4A65646  36.877  13.601   7.364
 5160POPC   C1B65647  37.099  13.555   6.464
 5160POPC   C2B65648  37.133  13.517   6.764
 5160POPC   C3B65649  37.153  13.530   7.064
 5160POPC   C4B65650  37.113  13.509   7.364
 5161POPC   NC365651  26.084   1.248   5.564
 5161POPC   PO465652  26.009   1.255   5.864
 5161POPC   GL165653  26.048   1.202   6.164
 5161POPC   GL265654  26.147   1.137   6.164
 5161POPC   C1A65655  26.042   1.184   6.464
 5161POPC   D2A65656  26.017   1.203   6.764
 5161POPC   C3A65657  26.090   1.221   7.064
 5161POPC   C4A65658  26.067   1.186   7.364
 5161POPC   C1B65659  26.226   1.066   6.464
 5161POPC   C2B65660  26.213   1.009   6.764
 5161POPC   C3B65661  26.161   0.986   7.064
 5161POPC   C4B65662  26.153   1.024   7.364
 5162POPC   NC365663  37.636  33.052   5.564
 5162POPC   PO465664  37.672  33.026   5.864
 5162POPC   GL165665  37.665  33.046   6.164
 5162POPC   GL265666  37.672  32.862   6.164
 5162POPC   C1A65667  37.666  33.072   6.464
 5162POPC   D2A65668  37.656  33.023   6.764
 5162POPC   C3A65669  37.656  33.018   7.064
 5162POPC   C4A65670  37.634  33.025   7.364
 5162POPC   C1B65671  37.699  32.775   6.464
 5162POPC   C2B65672  37.719  32.773   6.764
 5162POPC   C3B65673  37.719  32.786   7.064
 5162POPC   C4B65674  37.672  32.766   7.364
 5163POPC   NC365675   8.946   7.415   5.564
 5163POPC   PO465676   8.993   7.422   5.864
 5163POPC   GL165677   8.969   7.379   6.164
 5163POPC   GL265678   9.092   7.335   6.164
 5163POPC   C1A65679   8.934   7.377   6.464
 5163POPC   D2A65680   9.000   7.399   6.764
 5163POPC   C3A65681   8.990   7.414   7.064
 5163POPC   C4A65682   9.004   7.381   7.364
 5163POPC   C1B65683   9.225   7.383   6.464
 5163POPC   C2B65684   9.166   7.326   6.764
 5163POPC   C3B65685   9.181   7.321   7.064
 5163POPC   C4B65686   9.171   7.327   7.364
 5164POPC   NC365687   2.729  29.121   5.564
 5164POPC   PO465688   2.779  29.147   5.864
 5164POPC   GL165689   2.790  29.181   6.164
 5164POPC   GL265690   2.722  29.070   6.164
 5164POPC   C1A65691   2.768  29.141   6.464
 5164POPC   D2A65692   2.804  29.103   6.764
 5164POPC   C3A65693   2.734  29.141   7.064
 5164POPC   C4A65694   2.789  29.166   7.364
 5164POPC   C1B65695   2.688  28.889   6.464
 5164POPC   C2B65696   2.661  28.930   6.764
 5164POPC   C3B65697   2.612  28.884   7.064
 5164POPC   C4B65698   2.687  28.965   7.364
 5165POPC   NC365699  41.585  43.888   5.564
 5165POPC   PO465700  41.526  43.840   5.864
 5165POPC   GL165701  41.539  43.889   6.164
 5165POPC   GL265702  41.543  43.805   6.164
 5165POPC   C1A65703  41.536  43.880   6.464
 5165POPC   D2A65704  41.609  43.885   6.764
 5165POPC   C3A65705  41.587  43.909   7.064
 5165POPC   C4A65706  41.526  43.926   7.364
 5165POPC   C1B65707  41.546  43.611   6.464
 5165POPC   C2B65708  41.566  43.646   6.764
 5165POPC   C3B65709  41.586  43.593   7.064
 5165POPC   C4B65710  41.571  43.640   7.364
 5166POPC   NC365711  29.151  22.194   5.564
 5166POPC   PO465712  29.140  22.159   5.864
 5166POPC   GL165713  29.163  22.171   6.164
 5166POPC   GL265714  29.030  22.145   6.164
 5166POPC   C1A65715  29.180  22.196   6.464
 5166POPC   D2A65716  29.144  22.146   6.764
 5166POPC   C3A65717  29.117  22.160   7.064
 5166POPC   C4A65718  29.192  22.174   7.364
 5166POPC   C1B65719  28.929  22.198   6.464
 5166POPC   C2B65720  28.911  22.167   6.764
 5166POPC   C3B65721  28.853  22.162   7.064
 5166POPC   C4B65722  28.894  22.115   7.364
 5167POPC   NC365723  22.901  43.084   5.564
 5167POPC   PO465724  22.929  43.097   5.864
 5167POPC   GL165725  22.956  43.068   6.164
 5167POPC   GL265726  22.867  43.104   6.164
 5167POPC   C1A65727  22.903  43.094   6.464
 5167POPC   D2A65728  22.902  43.147   6.764
 5167POPC   C3A65729  22.895  43.127   7.064
 5167POPC   C4A65730  22.916  43.098   7.364
 5167POPC   C1B65731  22.750  43.020   6.464
 5167POPC   C2B65732  22.657  43.066   6.764
 5167POPC   C3B65733  22.663  43.019   7.064
 5167POPC   C4B65734  22.678  43.018   7.364
 5168POPC   NC365735  39.269  33.059   5.564
 5168POPC   PO465736  39.280  33.023   5.864
 5168POPC   GL165737  39.208  32.978   6.164
 5168POPC   GL265738  39.312  32.972   6.164
 5168POPC   C1A65739  39.224  33.022   6.464
 5168POPC   D2A65740  39.263  33.034   6.764
 5168POPC   C3A65741  39.214  33.073   7.064
 5168POPC   C4A65742  39.197  33.017   7.364
 5168POPC   C1B65743  39.454  32.964   6.464
 5168POPC   C2B65744  39.486  32.918   6.764
 5168POPC   C3B65745  39.490  32.963   7.064
 5168POPC   C4B65746  39.446  32.977   7.364
 5169POPC   NC365747  22.895  15.989   5.564
 5169POPC   PO465748  22.934  16.002   5.864
 5169POPC   GL165749  22.899  15.971   6.164
 5169POPC   GL265750  22.966  15.807   6.164
 5169POPC   C1A65751  22.915  15.995   6.464
 5169POPC   D2A65752  22.954  15.907   6.764
 5169POPC   C3A65753  22.963  15.995   7.064
 5169POPC   C4A65754  22.921  15.961   7.364
 5169POPC   C1B65755  22.908  15.755   6.464
 5169POPC   C2B65756  22.908  15.756   6.764
 5169POPC   C3B65757  22.873  15.689   7.064
 5169POPC   C4B65758  22.965  15.729   7.364
 5170POPC   NC365759  14.398  16.710   5.564
 5170POPC   PO465760  14.416  16.727   5.864
 5170POPC   GL165761  14.400  16.768   6.164
 5170POPC   GL265762  14.507  16.643   6.164
 5170POPC   C1A65763  14.440  16.769   6.464
 5170POPC   D2A65764  14.379  16.730   6.764
 5170POPC   C3A65765  14.432  16.714   7.064
 5170POPC   C4A65766  14.379  16.702   7.364
 5170POPC   C1B65767  14.551  16.510   6.464
 5170POPC   C2B65768  14.540  16.554   6.764
 5170POPC   C3B65769  14.609  16.526   7.064
 5170POPC   C4B65770  14.521  16.493   7.364
 5171POPC   NC365771  38.490  33.797   5.564
 5171POPC   PO465772  38.406  33.815   5.864
 5171POPC   GL165773  38.406  33.830   6.164
 5171POPC   GL265774  38.481  33.875   6.164
 5171POPC   C1A65775  38.413  33.809   6.464
 5171POPC   D2A65776  38.461  33.773   6.764
 5171POPC   C3A65777  38.429  33.841   7.064
 5171POPC   C4A65778  38.424  33.800   7.364
 5171POPC   C1B65779  38.622  34.005   6.464
 5171POPC   C2B65780  38.652  33.984   6.764
 5171POPC   C3B65781  38.642  34.039   7.064
 5171POPC   C4B65782  38.560  33.984   7.364
 5172POPC   NC365783  30.664   2.785   5.564
 5172POPC   PO465784  30.682   2.754   5.864
 5172POPC   GL165785  30.657   2.776   6.164
 5172POPC   GL265786  30.582   2.740   6.164
 5172POPC   C1A65787  30.690   2.789   6.464
 5172POPC   D2A65788  30.730   2.800   6.764
 5172POPC   C3A65789  30.715   2.807   7.064
 5172POPC   C4A65790  30.716   2.799   7.364
 5172POPC   C1B65791  30.401   2.766   6.464
 5172POPC   C2B65792  30.410   2.672   6.764
 5172POPC   C3B65793  30.411   2.761   7.064
 5172POPC   C4B65794  30.449   2.692   7.364
 5173POPC   NC365795  43.068   8.243   5.564
 5173POPC   PO465796  43.070   8.161   5.864
 5173POPC   GL165797  43.099   8.187   6.164
 5173POPC   GL265798  43.057   8.122   6.164
 5173POPC   C1A65799  43.145   8.196   6.464
 5173POPC   D2A65800  43.122   8.214   6.764
 5173POPC   C3A65801  43.127   8.180   7.064
 5173POPC   C4A65802  43.121   8.230   7.364
 5173POPC   C1B65803  43.007   7.990   6.464
 5173POPC   C2B65804  42.956   7.942   6.764
 5173POPC   C3B65805  42.960   7.975   7.064
 5173POPC   C4B65806  43.021   7.993   7.364
 5174POPC   NC365807  42.328  25.222   5.564
 5174POPC   PO465808  42.306  25.278   5.864
 5174POPC   GL165809  42.308  25.244   6.164
 5174POPC   GL265810  42.364  25.413   6.164
 5174POPC   C1A65811  42.341  25.279   6.464
 5174POPC   D2A65812  42.357  25.235   6.764
 5174POPC   C3A65813  42.299  25.264   7.064
 5174POPC   C4A65814  42.363  25.218   7.364
 5174POPC   C1B65815  42.458  25.515   6.464
 5174POPC   C2B65816  42.512  25.463   6.764
 5174POPC   C3B65817  42.425  25.493   7.064
 5174POPC   C4B65818  42.483  25.502   7.364
 5175POPC   NC365819  30.713  33.011   5.564
 5175POPC   PO465820  30.671  33.020   5.864
 5175POPC   GL165821  30.694  32.997   6.164
 5175POPC   GL265822  30.680  32.942   6.164
 5175POPC   C1A65823  30.681  32.993   6.464
 5175POPC   D2A65824  30.664  33.065   6.764
 5175POPC   C3A65825  30.711  33.071   7.064
 5175POPC   C4A65826  30.683  33.024   7.364
 5175POPC   C1B65827  30.666  32.799   6.464
 5175POPC   C2B65828  30.722  32.759   6.764
 5175POPC   C3B65829  30.713  32.731   7.064
 5175POPC   C4B65830  30.724  32.822   7.364
 5176POPC   NC365831  10.504  39.978   5.564
 5176POPC   PO465832  10.566  40.009   5.864
 5176POPC   GL165833  10.516  40.024   6.164
 5176POPC   GL265834  10.525  39.882   6.164
 5176POPC   C1A65835  10.488  40.049   6.464
 5176POPC   D2A65836  10.529  39.982   6.764
 5176POPC   C3A65837  10.529  39.962   7.064
 5176POPC   C4A65838  10.549  40.022   7.364
 5176POPC   C1B65839  10.556  39.767   6.464
 5176POPC   C2B65840  10.594  39.738   6.764
 5176POPC   C3B65841  10.570  39.795   7.064
 5176POPC   C4B65842  10.558  39.719   7.364
 5177POPC   NC365843  31.471  23.764   5.564
 5177POPC   PO465844  31.468  23.706   5.864
 5177POPC   GL165845  31.473  23.759   6.164
 5177POPC   GL265846  31.532  23.789   6.164
 5177POPC   C1A65847  31.428  23.745   6.464
 5177POPC   D2A65848  31.455  23.743   6.764
 5177POPC   C3A65849  31.448  23.756   7.064
 5177POPC   C4A65850  31.496  23.687   7.364
 5177POPC   C1B65851  31.668  23.836   6.464
 5177POPC   C2B65852  31.723  23.827   6.764
 5177POPC   C3B65853  31.704  23.886   7.064
 5177POPC   C4B65854  31.651  23.866   7.364
 5178POPC   NC365855   1.945  27.615   5.564
 5178POPC   PO465856   1.998  27.551   5.864
 5178POPC   GL165857   1.991  27.643   6.164
 5178POPC   GL265858   1.902  27.469   6.164
 5178POPC   C1A65859   2.026  27.571   6.464
 5178POPC   D2A65860   2.029  27.581   6.764
 5178POPC   C3A65861   1.986  27.628   7.064
 5178POPC   C4A65862   1.987  27.582   7.364
 5178POPC   C1B65863   1.819  27.408   6.464
 5178POPC   C2B65864   1.817  27.392   6.764
 5178POPC   C3B65865   1.817  27.418   7.064
 5178POPC   C4B65866   1.876  27.399   7.364
 5179POPC   NC365867  12.063   4.321   5.564
 5179POPC   PO465868  12.040   4.330   5.864
 5179POPC   GL165869  12.089   4.317   6.164
 5179POPC   GL265870  12.184   4.311   6.164
 5179POPC   C1A65871  12.117   4.335   6.464
 5179POPC   D2A65872  12.030   4.361   6.764
 5179POPC   C3A65873  12.073   4.364   7.064
 5179POPC   C4A65874  12.049   4.313   7.364
 5179POPC   C1B65875  12.310   4.183   6.464
 5179POPC   C2B65876  12.306   4.191   6.764
 5179POPC   C3B65877  12.274   4.200   7.064
 5179POPC   C4B65878  12.345   4.241   7.364
 5180POPC   NC365879  12.047  21.366   5.564
 5180POPC   PO465880  12.044  21.340   5.864
 5180POPC   GL165881  12.073  21.386   6.164
 5180POPC   GL265882  12.013  21.502   6.164
 5180POPC   C1A65883  12.061  21.409   6.464
 5180POPC   D2A65884  12.089  21.407   6.764
 5180POPC   C3A65885  12.113  21.345   7.064
 5180POPC   C4A65886  12.041  21.421   7.364
 5180POPC   C1B65887  11.950  21.585   6.464
 5180POPC   C2B65888  11.943  21.542   6.764
 5180POPC   C3B65889  11.967  21.623   7.064
 5180POPC   C4B65890  11.884  21.596   7.364
 5181POPC   NC365891   7.404  30.744   5.564
 5181POPC   PO465892   7.399  30.688   5.864
 5181POPC   GL165893   7.390  30.728   6.164
 5181POPC   GL265894   7.553  30.653   6.164
 5181POPC   C1A65895   7.391  30.670   6.464
 5181POPC   D2A65896   7.423  30.728   6.764
 5181POPC   C3A65897   7.416  30.693   7.064
 5181POPC   C4A65898   7.464  30.714   7.364
 5181POPC   C1B65899   7.673  30.612   6.464
 5181POPC   C2B65900   7.629  30.600   6.764
 5181POPC   C3B65901   7.642  30.626   7.064
 5181POPC   C4B65902   7.622  30.629   7.364
 5182POPC   NC365903  37.638   9.011   5.564
 5182POPC   PO465904  37.725   9.016   5.864
 5182POPC   GL165905  37.652   8.979   6.164
 5182POPC   GL265906  37.686   9.065   6.164
 5182POPC   C1A65907  37.671   8.946   6.464
 5182POPC   D2A65908  37.630   8.947   6.764
 5182POPC   C3A65909  37.689   9.009   7.064
 5182POPC   C4A65910  37.702   8.973   7.364
 5182POPC   C1B65911  37.683   9.258   6.464
 5182POPC   C2B65912  37.709   9.177   6.764
 5182POPC   C3B65913  37.676   9.211   7.064
 5182POPC   C4B65914  37.710   9.178   7.364
 5183POPC   NC365915  37.644  26.779   5.564
 5183POPC   PO465916  37.689  26.805   5.864
 5183POPC   GL165917  37.722  26.847   6.164
 5183POPC   GL265918  37.636  26.722   6.164
 5183POPC   C1A65919  37.707  26.807   6.464
 5183POPC   D2A65920  37.653  26.778   6.764
 5183POPC   C3A65921  37.713  26.814   7.064
 5183POPC   C4A65922  37.725  26.848   7.364
 5183POPC   C1B65923  37.584  26.591   6.464
 5183POPC   C2B65924  37.541  26.600   6.764
 5183POPC   C3B65925  37.584  26.649   7.064
 5183POPC   C4B65926  37.533  26.589   7.364
 5184POPC   NC365927  26.076   7.440   5.564
 5184POPC   PO465928  26.000   7.422   5.864
 5184POPC   GL165929  26.036   7.371   6.164
 5184POPC   GL265930  25.996   7.263   6.164
 5184POPC   C1A65931  26.002   7.395   6.464
 5184POPC   D2A65932  25.995   7.388   6.764
 5184POPC   C3A65933  26.055   7.457   7.064
 5184POPC   C4A65934  26.073   7.453   7.364
 5184POPC   C1B65935  25.938   7.231   6.464
 5184POPC   C2B65936  25.908   7.173   6.764
 5184POPC   C3B65937  25.939   7.238   7.064
 5184POPC   C4B65938  25.981   7.184   7.364
 5185POPC   NC365939   1.230  25.293   5.564
 5185POPC   PO465940   1.248  25.248   5.864
 5185POPC   GL165941   1.222  25.234   6.164
 5185POPC   GL265942   1.240  25.143   6.164
 5185POPC   C1A65943   1.229  25.282   6.464
 5185POPC   D2A65944   1.245  25.241   6.764
 5185POPC   C3A65945   1.211  25.229   7.064
 5185POPC   C4A65946   1.223  25.228   7.364
 5185POPC   C1B65947   1.311  24.980   6.464
 5185POPC   C2B65948   1.271  25.037   6.764
 5185POPC   C3B65949   1.296  25.042   7.064
 5185POPC   C4B65950   1.263  24.975   7.364
 5186POPC   NC365951   5.854  40.011   5.564
 5186POPC   PO465952   5.858  40.038   5.864
 5186POPC   GL165953   5.867  39.964   6.164
 5186POPC   GL265954   5.746  39.942   6.164
 5186POPC   C1A65955   5.823  40.039   6.464
 5186POPC   D2A65956   5.844  40.007   6.764
 5186POPC   C3A65957   5.874  39.967   7.064
 5186POPC   C4A65958   5.822  40.042   7.364
 5186POPC   C1B65959   5.680  39.881   6.464
 5186POPC   C2B65960   5.610  39.937   6.764
 5186POPC   C3B65961   5.615  39.879   7.064
 5186POPC   C4B65962   5.609  39.861   7.364
 5187POPC   NC365963   3.544  21.414   5.564
 5187POPC   PO465964   3.492  21.419   5.864
 5187POPC   GL165965   3.575  21.390   6.164
 5187POPC   GL265966   3.446  21.391   6.164
 5187POPC   C1A65967   3.514  21.428   6.464
 5187POPC   D2A65968   3.550  21.396   6.764
 5187POPC   C3A65969   3.522  21.367   7.064
 5187POPC   C4A65970   3.525  21.341   7.364
 5187POPC   C1B65971   3.257  21.484   6.464
 5187POPC   C2B65972   3.271  21.459   6.764
 5187POPC   C3B65973   3.281  21.424   7.064
 5187POPC   C4B65974   3.302  21.492   7.364
 5188POPC   NC365975  10.495  10.555   5.564
 5188POPC   PO465976  10.541  10.535   5.864
 5188POPC   GL165977  10.533  10.506   6.164
 5188POPC   GL265978  10.393  10.568   6.164
 5188POPC   C1A65979  10.504  10.550   6.464
 5188POPC   D2A65980  10.495  10.526   6.764
 5188POPC   C3A65981  10.518  10.485   7.064
 5188POPC   C4A65982  10.553  10.476   7.364
 5188POPC   C1B65983  10.282  10.674   6.464
 5188POPC   C2B65984  10.322  10.634   6.764
 5188POPC   C3B65985  10.334  10.656   7.064
 5188POPC   C4B65986  10.301  10.711   7.364
 5189POPC   NC365987  40.759  26.821   5.564
 5189POPC   PO465988  40.787  26.783   5.864
 5189POPC   GL165989  40.832  26.862   6.164
 5189POPC   GL265990  40.848  26.907   6.164
 5189POPC   C1A65991  40.735  26.805   6.464
 5189POPC   D2A65992  40.760  26.865   6.764
 5189POPC   C3A65993  40.795  26.803   7.064
 5189POPC   C4A65994  40.830  26.791   7.364
 5189POPC   C1B65995  40.966  27.031   6.464
 5189POPC   C2B65996  40.928  26.961   6.764
 5189POPC   C3B65997  40.928  26.944   7.064
 5189POPC   C4B65998  40.947  27.007   7.364
 5190POPC   NC365999  15.973  22.936   5.564
 5190POPC   PO466000  15.935  22.937   5.864
 5190POPC   GL166001  15.947  22.987   6.164
 5190POPC   GL266002  16.082  23.019   6.164
 5190POPC   C1A66003  15.953  22.914   6.464
 5190POPC   D2A66004  15.954  22.905   6.764
 5190POPC   C3A66005  15.993  22.975   7.064
 5190POPC   C4A66006  15.933  22.901   7.364
 5190POPC   C1B66007  16.170  23.041   6.464
 5190POPC   C2B66008  16.153  22.988   6.764
 5190POPC   C3B66009  16.168  23.026   7.064
 5190POPC   C4B66010  16.227  23.020   7.364
 5191POPC   NC366011  38.504  40.051   5.564
 5191POPC   PO466012  38.479  39.971   5.864
 5191POPC   GL166013  38.488  40.024   6.164
 5191POPC   GL266014  38.356  40.150   6.164
 5191POPC   C1A66015  38.458  40.019   6.464
 5191POPC   D2A66016  38.408  40.018   6.764
 5191POPC   C3A66017  38.488  39.981   7.064
 5191POPC   C4A66018  38.447  40.011   7.364
 5191POPC   C1B66019  38.264  40.225   6.464
 5191POPC   C2B66020  38.262  40.232   6.764
 5191POPC   C3B66021  38.337  40.210   7.064
 5191POPC   C4B66022  38.271  40.168   7.364
 5192POPC   NC366023  30.688   2.032   5.564
 5192POPC   PO466024  30.667   1.948   5.864
 5192POPC   GL166025  30.675   1.957   6.164
 5192POPC   GL266026  30.740   2.088   6.164
 5192POPC   C1A66027  30.659   1.941   6.464
 5192POPC   D2A66028  30.703   2.000   6.764
 5192POPC   C3A66029  30.739   1.983   7.064
 5192POPC   C4A66030  30.663   1.942   7.364
 5192POPC   C1B66031  30.843   2.207   6.464
 5192POPC   C2B66032  30.779   2.200   6.764
 5192POPC   C3B66033  30.822   2.192   7.064
 5192POPC   C4B66034  30.844   2.231   7.364
 5193POPC   NC366035   0.447  21.349   5.564
 5193POPC   PO466036   0.420  21.353   5.864
 5193POPC   GL166037   0.425  21.413   6.164
 5193POPC   GL266038   0.420  21.546   6.164
 5193POPC   C1A66039   0.403  21.411   6.464
 5193POPC   D2A66040   0.457  21.349   6.764
 5193POPC   C3A66041   0.454  21.384   7.064
 5193POPC   C4A66042   0.395  21.391   7.364
 5193POPC   C1B66043   0.401  21.628   6.464
 5193POPC   C2B66044   0.335  21.588   6.764
 5193POPC   C3B66045   0.387  21.574   7.064
 5193POPC   C4B66046   0.322  21.580   7.364
 5194POPC   NC366047  36.864  17.522   5.564
 5194POPC   PO466048  36.917  17.489   5.864
 5194POPC   GL166049  36.926  17.544   6.164
 5194POPC   GL266050  37.037  17.630   6.164
 5194POPC   C1A66051  36.921  17.465   6.464
 5194POPC   D2A66052  36.864  17.537   6.764
 5194POPC   C3A66053  36.934  17.556   7.064
 5194POPC   C4A66054  36.926  17.509   7.364
 5194POPC   C1B66055  37.134  17.675   6.464
 5194POPC   C2B66056  37.080  17.703   6.764
 5194POPC   C3B66057  37.081  17.668   7.064
 5194POPC   C4B66058  37.046  17.690   7.364
 5195POPC   NC366059  40.764   8.204   5.564
 5195POPC   PO466060  40.783   8.243   5.864
 5195POPC   GL166061  40.775   8.218   6.164
 5195POPC   GL266062  40.761   8.287   6.164
 5195POPC   C1A66063  40.753   8.182   6.464
 5195POPC   D2A66064  40.734   8.186   6.764
 5195POPC   C3A66065  40.818   8.221   7.064
 5195POPC   C4A66066  40.753   8.200   7.364
 5195POPC   C1B66067  40.701   8.481   6.464
 5195POPC   C2B66068  40.764   8.426   6.764
 5195POPC   C3B66069  40.780   8.432   7.064
 5195POPC   C4B66070  40.697   8.490   7.364
 5196POPC   NC366071  42.335  39.270   5.564
 5196POPC   PO466072  42.289  39.235   5.864
 5196POPC   GL166073  42.344  39.246   6.164
 5196POPC   GL266074  42.440  39.260   6.164
 5196POPC   C1A66075  42.332  39.245   6.464
 5196POPC   D2A66076  42.295  39.201   6.764
 5196POPC   C3A66077  42.299  39.186   7.064
 5196POPC   C4A66078  42.313  39.246   7.364
 5196POPC   C1B66079  42.556  39.414   6.464
 5196POPC   C2B66080  42.588  39.342   6.764
 5196POPC   C3B66081  42.552  39.414   7.064
 5196POPC   C4B66082  42.567  39.374   7.364
 5197POPC   NC366083  37.632  30.656   5.564
 5197POPC   PO466084  37.674  30.673   5.864
 5197POPC   GL166085  37.670  30.696   6.164
 5197POPC   GL266086  37.744  30.851   6.164
 5197POPC   C1A66087  37.668  30.724   6.464
 5197POPC   D2A66088  37.708  30.713   6.764
 5197POPC   C3A66089  37.640  30.668   7.064
 5197POPC   C4A66090  37.655  30.660   7.364
 5197POPC   C1B66091  37.803  30.915   6.464
 5197POPC   C2B66092  37.726  30.915   6.764
 5197POPC   C3B66093  37.775  30.925   7.064
 5197POPC   C4B66094  37.747  30.940   7.364
 5198POPC   NC366095   0.389  30.711   5.564
 5198POPC   PO466096   0.390  30.725   5.864
 5198POPC   GL166097   0.454  30.649   6.164
 5198POPC   GL266098   0.590  30.635   6.164
 5198POPC   C1A66099   0.482  30.732   6.464
 5198POPC   D2A66100   0.455  30.740   6.764
 5198POPC   C3A66101   0.444  30.694   7.064
 5198POPC   C4A66102   0.400  30.731   7.364
 5198POPC   C1B66103   0.669  30.627   6.464
 5198POPC   C2B66104   0.723  30.647   6.764
 5198POPC   C3B66105   0.691  30.619   7.064
 5198POPC   C4B66106   0.690  30.680   7.364
 5199POPC   NC366107  34.555  32.998   5.564
 5199POPC   PO466108  34.538  33.009   5.864
 5199POPC   GL166109  34.623  32.988   6.164
 5199POPC   GL266110  34.536  33.124   6.164
 5199POPC   C1A66111  34.587  33.072   6.464
 5199POPC   D2A66112  34.616  33.022   6.764
 5199POPC   C3A66113  34.609  33.073   7.064
 5199POPC   C4A66114  34.559  33.017   7.364
 5199POPC   C1B66115  34.426  33.275   6.464
 5199POPC   C2B66116  34.398  33.217   6.764
 5199POPC   C3B66117  34.384  33.278   7.064
 5199POPC   C4B66118  34.469  33.190   7.364
 5200POPC   NC366119  17.507  13.627   5.564
 5200POPC   PO466120  17.458  13.653   5.864
 5200POPC   GL166121  17.543  13.647   6.164
 5200POPC   GL266122  17.661  13.613   6.164
 5200POPC   C1A66123  17.538  13.609   6.464
 5200POPC   D2A66124  17.496  13.637   6.764
 5200POPC   C3A66125  17.512  13.644   7.064
 5200POPC   C4A66126  17.479  13.652   7.364
 5200POPC   C1B66127  17.786  13.577   6.464
 5200POPC   C2B66128  17.725  13.617   6.764
 5200POPC   C3B66129  17.762  13.565   7.064
 5200POPC   C4B66130  17.755  13.628   7.364
 5201POPC   NC366131  33.031   4.336   5.564
 5201POPC   PO466132  33.043   4.276   5.864
 5201POPC   GL166133  32.985   4.344   6.164
 5201POPC   GL266134  33.063   4.215   6.164
 5201POPC   C1A66135  33.019   4.343   6.464
 5201POPC   D2A66136  33.061   4.346   6.764
 5201POPC   C3A66137  33.024   4.284   7.064
 5201POPC   C4A66138  33.066   4.305   7.364
 5201POPC   C1B66139  33.204   4.110   6.464
 5201POPC   C2B66140  33.171   4.137   6.764
 5201POPC   C3B66141  33.172   4.091   7.064
 5201POPC   C4B66142  33.210   4.096   7.364
 5202POPC   NC366143  29.912   8.238   5.564
 5202POPC   PO466144  29.872   8.172   5.864
 5202POPC   GL166145  29.893   8.187   6.164
 5202POPC   GL266146  29.956   8.270   6.164
 5202POPC   C1A66147  29.966   8.235   6.464
 5202POPC   D2A66148  29.878   8.168   6.764
 5202POPC   C3A66149  29.920   8.243   7.064
 5202POPC   C4A66150  29.958   8.185   7.364
 5202POPC   C1B66151  30.104   8.436   6.464
 5202POPC   C2B66152  30.025   8.393   6.764
 5202POPC   C3B66153  30.068   8.435   7.064
 5202POPC   C4B66154  30.062   8.405   7.364
 5203POPC   NC366155   4.362  43.885   5.564
 5203POPC   PO466156   4.310  43.922   5.864
 5203POPC   GL166157   4.324  43.935   6.164
 5203POPC   GL266158   4.281  43.762   6.164
 5203POPC   C1A66159   4.319  43.892   6.464
 5203POPC   D2A66160   4.322  43.909   6.764
 5203POPC   C3A66161   4.330  43.909   7.064
 5203POPC   C4A66162   4.332  43.870   7.364
 5203POPC   C1B66163   4.212  43.624   6.464
 5203POPC   C2B66164   4.207  43.667   6.764
 5203POPC   C3B66165   4.175  43.647   7.064
 5203POPC   C4B66166   4.197  43.649   7.364
 5204POPC   NC366167  19.040  18.257   5.564
 5204POPC   PO466168  19.072  18.274   5.864
 5204POPC   GL166169  19.078  18.261   6.164
 5204POPC   GL266170  19.100  18.438   6.164
 5204POPC   C1A66171  19.054  18.319   6.464
 5204POPC   D2A66172  19.078  18.277   6.764
 5204POPC   C3A66173  19.059  18.291   7.064
 5204POPC   C4A66174  19.106  18.256   7.364
 5204POPC   C1B66175  19.029  18.540   6.464
 5204POPC   C2B66176  19.049  18.515   6.764
 5204POPC   C3B66177  19.010  18.574   7.064
 5204POPC   C4B66178  19.060  18.574   7.364
 5205POPC   NC366179  30.738  10.498   5.564
 5205POPC   PO466180  30.727  10.532   5.864
 5205POPC   GL166181  30.716  10.528   6.164
 5205POPC   GL266182  30.638  10.417   6.164
 5205POPC   C1A66183  30.647  10.494   6.464
 5205POPC   D2A66184  30.684  10.506   6.764
 5205POPC   C3A66185  30.707  10.494   7.064
 5205POPC   C4A66186  30.672  10.565   7.364
 5205POPC   C1B66187  30.583  10.289   6.464
 5205POPC   C2B66188  30.560  10.298   6.764
 5205POPC   C3B66189  30.562  10.350   7.064
 5205POPC   C4B66190  30.593  10.313   7.364
 5206POPC   NC366191  21.358  24.462   5.564
 5206POPC   PO466192  21.346  24.471   5.864
 5206POPC   GL166193  21.387  24.507   6.164
 5206POPC   GL266194  21.367  24.400   6.164
 5206POPC   C1A66195  21.376  24.517   6.464
 5206POPC   D2A66196  21.340  24.440   6.764
 5206POPC   C3A66197  21.397  24.475   7.064
 5206POPC   C4A66198  21.380  24.500   7.364
 5206POPC   C1B66199  21.262  24.270   6.464
 5206POPC   C2B66200  21.322  24.299   6.764
 5206POPC   C3B66201  21.292  24.272   7.064
 5206POPC   C4B66202  21.338  24.255   7.364
 5207POPC   NC366203   3.531  11.348   5.564
 5207POPC   PO466204   3.526  11.334   5.864
 5207POPC   GL166205   3.551  11.343   6.164
 5207POPC   GL266206   3.436  11.274   6.164
 5207POPC   C1A66207   3.520  11.347   6.464
 5207POPC   D2A66208   3.518  11.277   6.764
 5207POPC   C3A66209   3.572  11.340   7.064
 5207POPC   C4A66210   3.493  11.272   7.364
 5207POPC   C1B66211   3.332  11.291   6.464
 5207POPC   C2B66212   3.255  11.241   6.764
 5207POPC   C3B66213   3.298  11.335   7.064
 5207POPC   C4B66214   3.320  11.236   7.364
 5208POPC   NC366215  40.011  22.921   5.564
 5208POPC   PO466216  40.054  22.901   5.864
 5208POPC   GL166217  39.985  22.946   6.164
 5208POPC   GL266218  40.090  22.940   6.164
 5208POPC   C1A66219  39.976  22.901   6.464
 5208POPC   D2A66220  39.967  22.958   6.764
 5208POPC   C3A66221  40.051  22.956   7.064
 5208POPC   C4A66222  39.977  22.965   7.364
 5208POPC   C1B66223  40.211  22.916   6.464
 5208POPC   C2B66224  40.241  22.862   6.764
 5208POPC   C3B66225  40.296  22.881   7.064
 5208POPC   C4B66226  40.292  22.853   7.364
 5209POPC   NC366227  22.155  43.888   5.564
 5209POPC   PO466228  22.202  43.850   5.864
 5209POPC   GL166229  22.117  43.903   6.164
 5209POPC   GL266230  22.073  43.745   6.164
 5209POPC   C1A66231  22.210  43.916   6.464
 5209POPC   D2A66232  22.206  43.877   6.764
 5209POPC   C3A66233  22.195  43.868   7.064
 5209POPC   C4A66234  22.128  43.924   7.364
 5209POPC   C1B66235  21.997  43.674   6.464
 5209POPC   C2B66236  22.001  43.704   6.764
 5209POPC   C3B66237  22.065  43.720   7.064
 5209POPC   C4B66238  22.059  43.684   7.364
 5210POPC   NC366239  38.440  19.858   5.564
 5210POPC   PO466240  38.440  19.828   5.864
 5210POPC   GL166241  38.429  19.835   6.164
 5210POPC   GL266242  38.377  19.729   6.164
 5210POPC   C1A66243  38.469  19.858   6.464
 5210POPC   D2A66244  38.457  19.863   6.764
 5210POPC   C3A66245  38.486  19.802   7.064
 5210POPC   C4A66246  38.504  19.785   7.364
 5210POPC   C1B66247  38.361  19.593   6.464
 5210POPC   C2B66248  38.405  19.548   6.764
 5210POPC   C3B66249  38.430  19.630   7.064
 5210POPC   C4B66250  38.373  19.552   7.364
 5211POPC   NC366251  32.291  43.909   5.564
 5211POPC   PO466252  32.292  43.878   5.864
 5211POPC   GL166253  32.229  43.916   6.164
 5211POPC   GL266254  32.145  44.035   6.164
 5211POPC   C1A66255  32.227  43.859   6.464
 5211POPC   D2A66256  32.244  43.843   6.764
 5211POPC   C3A66257  32.298  43.872   7.064
 5211POPC   C4A66258  32.268  43.909   7.364
 5211POPC   C1B66259  32.115  44.126   6.464
 5211POPC   C2B66260  32.161  44.116   6.764
 5211POPC   C3B66261  32.110  44.130   7.064
 5211POPC   C4B66262  32.096  44.072   7.364
 5212POPC   NC366263   7.382  38.442   5.564
 5212POPC   PO466264   7.383  38.443   5.864
 5212POPC   GL166265   7.462  38.463   6.164
 5212POPC   GL266266   7.589  38.510   6.164
 5212POPC   C1A66267   7.380  38.433   6.464
 5212POPC   D2A66268   7.376  38.413   6.764
 5212POPC   C3A66269   7.395  38.502   7.064
 5212POPC   C4A66270   7.452  38.408   7.364
 5212POPC   C1B66271   7.674  38.507   6.464
 5212POPC   C2B66272   7.631  38.435   6.764
 5212POPC   C3B66273   7.696  38.456   7.064
 5212POPC   C4B66274   7.673  38.503   7.364
 5213POPC   NC366275  32.996   1.175   5.564
 5213POPC   PO466276  33.049   1.221   5.864
 5213POPC   GL166277  33.042   1.217   6.164
 5213POPC   GL266278  32.910   1.181   6.164
 5213POPC   C1A66279  32.992   1.263   6.464
 5213POPC   D2A66280  33.074   1.224   6.764
 5213POPC   C3A66281  33.063   1.167   7.064
 5213POPC   C4A66282  32.997   1.180   7.364
 5213POPC   C1B66283  32.770   1.048   6.464
 5213POPC   C2B66284  32.839   1.097   6.764
 5213POPC   C3B66285  32.822   1.053   7.064
 5213POPC   C4B66286  32.786   1.030   7.364
 5214POPC   NC366287  29.125  15.999   5.564
 5214POPC   PO466288  29.157  15.906   5.864
 5214POPC   GL166289  29.140  15.978   6.164
 5214POPC   GL266290  29.046  16.049   6.164
 5214POPC   C1A66291  29.126  15.945   6.464
 5214POPC   D2A66292  29.179  15.960   6.764
 5214POPC   C3A66293  29.098  15.965   7.064
 5214POPC   C4A66294  29.172  15.918   7.364
 5214POPC   C1B66295  28.985  16.209   6.464
 5214POPC   C2B66296  29.018  16.200   6.764
 5214POPC   C3B66297  28.980  16.136   7.064
 5214POPC   C4B66298  28.972  16.121   7.364
 5215POPC   NC366299  19.071  21.350   5.564
 5215POPC   PO466300  19.060  21.432   5.864
 5215POPC   GL166301  19.059  21.389   6.164
 5215POPC   GL266302  19.164  21.397   6.164
 5215POPC   C1A66303  19.043  21.378   6.464
 5215POPC   D2A66304  19.086  21.342   6.764
 5215POPC   C3A66305  19.046  21.378   7.064
 5215POPC   C4A66306  19.019  21.404   7.364
 5215POPC   C1B66307  19.334  21.375   6.464
 5215POPC   C2B66308  19.257  21.320   6.764
 5215POPC   C3B66309  19.305  21.313   7.064
 5215POPC   C4B66310  19.278  21.387   7.364
 5216POPC   NC366311  19.804  22.187   5.564
 5216POPC   PO466312  19.853  22.155   5.864
 5216POPC   GL166313  19.880  22.116   6.164
 5216POPC   GL266314  19.774  22.023   6.164
 5216POPC   C1A66315  19.801  22.172   6.464
 5216POPC   D2A66316  19.824  22.113   6.764
 5216POPC   C3A66317  19.862  22.163   7.064
 5216POPC   C4A66318  19.840  22.161   7.364
 5216POPC   C1B66319  19.786  21.883   6.464
 5216POPC   C2B66320  19.798  21.945   6.764
 5216POPC   C3B66321  19.757  21.945   7.064
 5216POPC   C4B66322  19.749  21.878   7.364
 5217POPC   NC366323  12.095  19.843   5.564
 5217POPC   PO466324  12.042  19.839   5.864
 5217POPC   GL166325  12.046  19.855   6.164
 5217POPC   GL266326  11.953  19.869   6.164
 5217POPC   C1A66327  12.095  19.877   6.464
 5217POPC   D2A66328  12.080  19.789   6.764
 5217POPC   C3A66329  12.110  19.817   7.064
 5217POPC   C4A66330  12.074  19.884   7.364
 5217POPC   C1B66331  11.837  19.890   6.464
 5217POPC   C2B66332  11.816  19.925   6.764
 5217POPC   C3B66333  11.828  19.936   7.064
 5217POPC   C4B66334  11.797  19.869   7.364
 5218POPC   NC366335  40.770  22.904   5.564
 5218POPC   PO466336  40.762  22.911   5.864
 5218POPC   GL166337  40.786  22.970   6.164
 5218POPC   GL266338  40.679  22.858   6.164
 5218POPC   C1A66339  40.733  22.972   6.464
 5218POPC   D2A66340  40.832  22.952   6.764
 5218POPC   C3A66341  40.796  22.977   7.064
 5218POPC   C4A66342  40.787  22.920   7.364
 5218POPC   C1B66343  40.650  22.736   6.464
 5218POPC   C2B66344  40.650  22.722   6.764
 5218POPC   C3B66345  40.626  22.763   7.064
 5218POPC   C4B66346  40.703  22.755   7.364
 5219POPC   NC366347  32.199  11.287   5.564
 5219POPC   PO466348  32.217  11.257   5.864
 5219POPC   GL166349  32.207  11.301   6.164
 5219POPC   GL266350  32.335  11.461   6.164
 5219POPC   C1A66351  32.210  11.292   6.464
 5219POPC   D2A66352  32.216  11.264   6.764
 5219POPC   C3A66353  32.199  11.340   7.064
 5219POPC   C4A66354  32.268  11.282   7.364
 5219POPC   C1B66355  32.317  11.522   6.464
 5219POPC   C2B66356  32.333  11.529   6.764
 5219POPC   C3B66357  32.344  11.571   7.064
 5219POPC   C4B66358  32.340  11.526   7.364
 5220POPC   NC366359  31.503  25.266   5.564
 5220POPC   PO466360  31.451  25.282   5.864
 5220POPC   GL166361  31.479  25.266   6.164
 5220POPC   GL266362  31.419  25.357   6.164
 5220POPC   C1A66363  31.520  25.301   6.464
 5220POPC   D2A66364  31.425  25.310   6.764
 5220POPC   C3A66365  31.437  25.240   7.064
 5220POPC   C4A66366  31.518  25.307   7.364
 5220POPC   C1B66367  31.388  25.533   6.464
 5220POPC   C2B66368  31.361  25.530   6.764
 5220POPC   C3B66369  31.401  25.502   7.064
 5220POPC   C4B66370  31.385  25.508   7.364
 5221POPC   NC366371  28.409   7.379   5.564
 5221POPC   PO466372  28.415   7.425   5.864
 5221POPC   GL166373  28.337   7.395   6.164
 5221POPC   GL266374  28.516   7.351   6.164
 5221POPC   C1A66375  28.362   7.389   6.464
 5221POPC   D2A66376  28.336   7.433   6.764
 5221POPC   C3A66377  28.394   7.450   7.064
 5221POPC   C4A66378  28.400   7.396   7.364
 5221POPC   C1B66379  28.582   7.416   6.464
 5221POPC   C2B66380  28.592   7.390   6.764
 5221POPC   C3B66381  28.639   7.411   7.064
 5221POPC   C4B66382  28.603   7.392   7.364
 5222POPC   NC366383  23.757  14.363   5.564
 5222POPC   PO466384  23.699  14.378   5.864
 5222POPC   GL166385  23.730  14.446   6.164
 5222POPC   GL266386  23.806  14.478   6.164
 5222POPC   C1A66387  23.751  14.453   6.464
 5222POPC   D2A66388  23.722  14.435   6.764
 5222POPC   C3A66389  23.741  14.378   7.064
 5222POPC   C4A66390  23.674  14.423   7.364
 5222POPC   C1B66391  23.891  14.626   6.464
 5222POPC   C2B66392  23.865  14.580   6.764
 5222POPC   C3B66393  23.849  14.637   7.064
 5222POPC   C4B66394  23.810  14.643   7.364
 5223POPC   NC366395   7.456  15.131   5.564
 5223POPC   PO466396   7.373  15.161   5.864
 5223POPC   GL166397   7.455  15.136   6.164
 5223POPC   GL266398   7.593  15.214   6.164
 5223POPC   C1A66399   7.419  15.156   6.464
 5223POPC   D2A66400   7.454  15.136   6.764
 5223POPC   C3A66401   7.378  15.199   7.064
 5223POPC   C4A66402   7.414  15.178   7.364
 5223POPC   C1B66403   7.703  15.222   6.464
 5223POPC   C2B66404   7.662  15.239   6.764
 5223POPC   C3B66405   7.693  15.185   7.064
 5223POPC   C4B66406   7.655  15.201   7.364
 5224POPC   NC366407  24.468   8.196   5.564
 5224POPC   PO466408  24.458   8.230   5.864
 5224POPC   GL166409  24.511   8.216   6.164
 5224POPC   GL266410  24.512   8.280   6.164
 5224POPC   C1A66411  24.536   8.154   6.464
 5224POPC   D2A66412  24.515   8.152   6.764
 5224POPC   C3A66413  24.494   8.177   7.064
 5224POPC   C4A66414  24.457   8.194   7.364
 5224POPC   C1B66415  24.476   8.426   6.464
 5224POPC   C2B66416  24.484   8.432   6.764
 5224POPC   C3B66417  24.515   8.436   7.064
 5224POPC   C4B66418  24.442   8.462   7.364
 5225POPC   NC366419  23.745  25.279   5.564
 5225POPC   PO466420  23.759  25.235   5.864
 5225POPC   GL166421  23.724  25.275   6.164
 5225POPC   GL266422  23.810  25.301   6.164
 5225POPC   C1A66423  23.696  25.230   6.464
 5225POPC   D2A66424  23.687  25.255   6.764
 5225POPC   C3A66425  23.724  25.261   7.064
 5225POPC   C4A66426  23.755  25.223   7.364
 5225POPC   C1B66427  23.950  25.328   6.464
 5225POPC   C2B66428  23.987  25.362   6.764
 5225POPC   C3B66429  23.974  25.288   7.064
 5225POPC   C4B66430  23.964  25.321   7.364
 5226POPC   NC366431  28.319   0.451   5.564
 5226POPC   PO466432  28.327   0.458   5.864
 5226POPC   GL166433  28.376   0.397   6.164
 5226POPC   GL266434  28.307   0.311   6.164
 5226POPC   C1A66435  28.401   0.443   6.464
 5226POPC   D2A66436  28.419   0.469   6.764
 5226POPC   C3A66437  28.379   0.432   7.064
 5226POPC   C4A66438  28.351   0.474   7.364
 5226POPC   C1B66439  28.282   0.167   6.464
 5226POPC   C2B66440  28.267   0.254   6.764
 5226POPC   C3B66441  28.300   0.253   7.064
 5226POPC   C4B66442  28.246   0.213   7.364
 5227POPC   NC366443  40.790  43.841   5.564
 5227POPC   PO466444  40.792  43.851   5.864
 5227POPC   GL166445  40.776  43.924   6.164
 5227POPC   GL266446  40.687  43.934   6.164
 5227POPC   C1A66447  40.779  43.855   6.464
 5227POPC   D2A66448  40.742  43.928   6.764
 5227POPC   C3A66449  40.753  43.873   7.064
 5227POPC   C4A66450  40.793  43.855   7.364
 5227POPC   C1B66451  40.503  43.942   6.464
 5227POPC   C2B66452  40.573  43.922   6.764
 5227POPC   C3B66453  40.584  43.943   7.064
 5227POPC   C4B66454  40.559  43.967   7.364
 5228POPC   NC366455   5.860  43.873   5.564
 5228POPC   PO466456   5.865  43.912   5.864
 5228POPC   GL166457   5.857  43.890   6.164
 5228POPC   GL266458   5.951  43.863   6.164
 5228POPC   C1A66459   5.822  43.850   6.464
 5228POPC   D2A66460   5.837  43.852   6.764
 5228POPC   C3A66461   5.820  43.876   7.064
 5228POPC   C4A66462   5.892  43.840   7.364
 5228POPC   C1B66463   6.098  43.898   6.464
 5228POPC   C2B66464   6.159  43.928   6.764
 5228POPC   C3B66465   6.079  43.928   7.064
 5228POPC   C4B66466   6.088  43.921   7.364
 5229POPC   NC366467  29.191  43.870   5.564
 5229POPC   PO466468  29.186  43.930   5.864
 5229POPC   GL166469  29.097  43.841   6.164
 5229POPC   GL266470  29.309  43.960   6.164
 5229POPC   C1A66471  29.169  43.913   6.464
 5229POPC   D2A66472  29.102  43.883   6.764
 5229POPC   C3A66473  29.176  43.857   7.064
 5229POPC   C4A66474  29.143  43.843   7.364
 5229POPC   C1B66475  29.417  43.986   6.464
 5229POPC   C2B66476  29.375  43.993   6.764
 5229POPC   C3B66477  29.416  43.896   7.064
 5229POPC   C4B66478  29.379  43.981   7.364
 5230POPC   NC366479  26.054   2.719   5.564
 5230POPC   PO466480  25.997   2.746   5.864
 5230POPC   GL166481  26.013   2.808   6.164
 5230POPC   GL266482  26.165   2.869   6.164
 5230POPC   C1A66483  26.072   2.801   6.464
 5230POPC   D2A66484  26.040   2.768   6.764
 5230POPC   C3A66485  26.082   2.771   7.064
 5230POPC   C4A66486  26.063   2.766   7.364
 5230POPC   C1B66487  26.223   2.935   6.464
 5230POPC   C2B66488  26.290   2.955   6.764
 5230POPC   C3B66489  26.254   2.897   7.064
 5230POPC   C4B66490  26.244   2.913   7.364
 5231POPC   NC366491   7.450  36.124   5.564
 5231POPC   PO466492   7.382  36.110   5.864
 5231POPC   GL166493   7.433  36.137   6.164
 5231POPC   GL266494   7.324  36.225   6.164
 5231POPC   C1A66495   7.390  36.137   6.464
 5231POPC   D2A66496   7.464  36.143   6.764
 5231POPC   C3A66497   7.403  36.165   7.064
 5231POPC   C4A66498   7.385  36.173   7.364
 5231POPC   C1B66499   7.272  36.375   6.464
 5231POPC   C2B66500   7.347  36.380   6.764
 5231POPC   C3B66501   7.301  36.339   7.064
 5231POPC   C4B66502   7.304  36.374   7.364
 5232POPC   NC366503  19.844  13.618   5.564
 5232POPC   PO466504  19.827  13.616   5.864
 5232POPC   GL166505  19.824  13.673   6.164
 5232POPC   GL266506  19.695  13.502   6.164
 5232POPC   C1A66507  19.869  13.663   6.464
 5232POPC   D2A66508  19.838  13.675   6.764
 5232POPC   C3A66509  19.874  13.649   7.064
 5232POPC   C4A66510  19.877  13.664   7.364
 5232POPC   C1B66511  19.643  13.466   6.464
 5232POPC   C2B66512  19.666  13.499   6.764
 5232POPC   C3B66513  19.620  13.479   7.064
 5232POPC   C4B66514  19.623  13.517   7.364
 5233POPC   NC366515  22.976  35.335   5.564
 5233POPC   PO466516  22.927  35.326   5.864
 5233POPC   GL166517  22.903  35.326   6.164
 5233POPC   GL266518  22.922  35.264   6.164
 5233POPC   C1A66519  22.950  35.346   6.464
 5233POPC   D2A66520  22.902  35.346   6.764
 5233POPC   C3A66521  22.923  35.365   7.064
 5233POPC   C4A66522  22.950  35.304   7.364
 5233POPC   C1B66523  22.992  35.089   6.464
 5233POPC   C2B66524  23.024  35.062   6.764
 5233POPC   C3B66525  23.031  35.091   7.064
 5233POPC   C4B66526  22.984  35.147   7.364
 5234POPC   NC366527   3.502  37.680   5.564
 5234POPC   PO466528   3.492  37.688   5.864
 5234POPC   GL166529   3.508  37.670   6.164
 5234POPC   GL266530   3.537  37.566   6.164
 5234POPC   C1A66531   3.498  37.644   6.464
 5234POPC   D2A66532   3.530  37.669   6.764
 5234POPC   C3A66533   3.525  37.677   7.064
 5234POPC   C4A66534   3.542  37.688   7.364
 5234POPC   C1B66535   3.545  37.440   6.464
 5234POPC   C2B66536   3.484  37.403   6.764
 5234POPC   C3B66537   3.562  37.390   7.064
 5234POPC   C4B66538   3.546  37.476   7.364
 5235POPC   NC366539   0.463   4.298   5.564
 5235POPC   PO466540   0.486   4.309   5.864
 5235POPC   GL166541   0.486   4.303   6.164
 5235POPC   GL266542   0.416   4.174   6.164
 5235POPC   C1A66543   0.388   4.356   6.464
 5235POPC   D2A66544   0.488   4.335   6.764
 5235POPC   C3A66545   0.476   4.333   7.064
 5235POPC   C4A66546   0.399   4.283   7.364
 5235POPC   C1B66547   0.337   4.083   6.464
 5235POPC   C2B66548   0.353   4.029   6.764
 5235POPC   C3B66549   0.360   4.068   7.064
 5235POPC   C4B66550   0.380   4.083   7.364
 5236POPC   NC366551  13.661  33.057   5.564
 5236POPC   PO466552  13.662  32.980   5.864
 5236POPC   GL166553  13.662  33.062   6.164
 5236POPC   GL266554  13.706  32.880   6.164
 5236POPC   C1A66555  13.584  33.024   6.464
 5236POPC   D2A66556  13.669  33.041   6.764
 5236POPC   C3A66557  13.618  33.044   7.064
 5236POPC   C4A66558  13.619  32.990   7.364
 5236POPC   C1B66559  13.738  32.764   6.464
 5236POPC   C2B66560  13.739  32.789   6.764
 5236POPC   C3B66561  13.804  32.836   7.064
 5236POPC   C4B66562  13.746  32.839   7.364
 5237POPC   NC366563  24.478  30.731   5.564
 5237POPC   PO466564  24.457  30.715   5.864
 5237POPC   GL166565  24.514  30.681   6.164
 5237POPC   GL266566  24.359  30.760   6.164
 5237POPC   C1A66567  24.451  30.694   6.464
 5237POPC   D2A66568  24.538  30.736   6.764
 5237POPC   C3A66569  24.453  30.670   7.064
 5237POPC   C4A66570  24.479  30.727   7.364
 5237POPC   C1B66571  24.285  30.798   6.464
 5237POPC   C2B66572  24.268  30.806   6.764
 5237POPC   C3B66573  24.289  30.830   7.064
 5237POPC   C4B66574  24.242  30.832   7.364
 5238POPC   NC366575  12.804   1.174   5.564
 5238POPC   PO466576  12.869   1.246   5.864
 5238POPC   GL166577  12.897   1.227   6.164
 5238POPC   GL266578  12.901   1.098   6.164
 5238POPC   C1A66579  12.886   1.216   6.464
 5238POPC   D2A66580  12.901   1.171   6.764
 5238POPC   C3A66581  12.832   1.203   7.064
 5238POPC   C4A66582  12.846   1.242   7.364
 5238POPC   C1B66583  12.924   0.992   6.464
 5238POPC   C2B66584  12.891   0.973   6.764
 5238POPC   C3B66585  12.922   1.013   7.064
 5238POPC   C4B66586  12.918   0.929   7.364
 5239POPC   NC366587  11.321  24.454   5.564
 5239POPC   PO466588  11.329  24.462   5.864
 5239POPC   GL166589  11.346  24.503   6.164
 5239POPC   GL266590  11.181  24.493   6.164
 5239POPC   C1A66591  11.295  24.516   6.464
 5239POPC   D2A66592  11.253  24.479   6.764
 5239POPC   C3A66593  11.296  24.451   7.064
 5239POPC   C4A66594  11.340  24.485   7.364
 5239POPC   C1B66595  11.040  24.491   6.464
 5239POPC   C2B66596  11.072  24.505   6.764
 5239POPC   C3B66597  11.004  24.480   7.064
 5239POPC   C4B66598  11.082  24.421   7.364
 5240POPC   NC366599  39.987  27.570   5.564
 5240POPC   PO466600  40.042  27.641   5.864
 5240POPC   GL166601  39.969  27.614   6.164
 5240POPC   GL266602  40.030  27.448   6.164
 5240POPC   C1A66603  39.977  27.638   6.464
 5240POPC   D2A66604  40.049  27.601   6.764
 5240POPC   C3A66605  39.986  27.625   7.064
 5240POPC   C4A66606  40.010  27.613   7.364
 5240POPC   C1B66607  40.029  27.363   6.464
 5240POPC   C2B66608  39.991  27.379   6.764
 5240POPC   C3B66609  40.001  27.333   7.064
 5240POPC   C4B66610  40.023  27.312   7.364
 5241POPC   NC366611  36.113   7.423   5.564
 5241POPC   PO466612  36.108   7.468   5.864
 5241POPC   GL166613  36.143   7.447   6.164
 5241POPC   GL266614  36.258   7.528   6.164
 5241POPC   C1A66615  36.140   7.389   6.464
 5241POPC   D2A66616  36.148   7.408   6.764
 5241POPC   C3A66617  36.136   7.450   7.064
 5241POPC   C4A66618  36.093   7.405   7.364
 5241POPC   C1B66619  36.325   7.612   6.464
 5241POPC   C2B66620  36.295   7.527   6.764
 5241POPC   C3B66621  36.317   7.526   7.064
 5241POPC   C4B66622  36.337   7.526   7.364
 5242POPC   NC366623  39.274  39.989   5.564
 5242POPC   PO466624  39.202  39.962   5.864
 5242POPC   GL166625  39.189  39.991   6.164
 5242POPC   GL266626  39.102  40.066   6.164
 5242POPC   C1A66627  39.196  39.991   6.464
 5242POPC   D2A66628  39.191  40.030   6.764
 5242POPC   C3A66629  39.221  39.995   7.064
 5242POPC   C4A66630  39.252  40.021   7.364
 5242POPC   C1B66631  39.031  40.072   6.464
 5242POPC   C2B66632  39.001  40.087   6.764
 5242POPC   C3B66633  39.016  40.071   7.064
 5242POPC   C4B66634  38.985  40.010   7.364
 5243POPC   NC366635  42.357   1.186   5.564
 5243POPC   PO466636  42.323   1.198   5.864
 5243POPC   GL166637  42.287   1.246   6.164
 5243POPC   GL266638  42.240   1.177   6.164
 5243POPC   C1A66639  42.327   1.244   6.464
 5243POPC   D2A66640  42.338   1.164   6.764
 5243POPC   C3A66641  42.381   1.166   7.064
 5243POPC   C4A66642  42.341   1.251   7.364
 5243POPC   C1B66643  42.059   1.241   6.464
 5243POPC   C2B66644  42.077   1.191   6.764
 5243POPC   C3B66645  42.080   1.261   7.064
 5243POPC   C4B66646  42.100   1.255   7.364
 5244POPC   NC366647  23.727   6.624   5.564
 5244POPC   PO466648  23.758   6.596   5.864
 5244POPC   GL166649  23.711   6.618   6.164
 5244POPC   GL266650  23.783   6.733   6.164
 5244POPC   C1A66651  23.723   6.695   6.464
 5244POPC   D2A66652  23.666   6.670   6.764
 5244POPC   C3A66653  23.711   6.660   7.064
 5244POPC   C4A66654  23.681   6.612   7.364
 5244POPC   C1B66655  23.833   6.868   6.464
 5244POPC   C2B66656  23.837   6.877   6.764
 5244POPC   C3B66657  23.842   6.805   7.064
 5244POPC   C4B66658  23.844   6.883   7.364
 5245POPC   NC366659  21.375  10.572   5.564
 5245POPC   PO466660  21.368  10.533   5.864
 5245POPC   GL166661  21.348  10.501   6.164
 5245POPC   GL266662  21.311  10.512   6.164
 5245POPC   C1A66663  21.373  10.531   6.464
 5245POPC   D2A66664  21.414  10.548   6.764
 5245POPC   C3A66665  21.371  10.540   7.064
 5245POPC   C4A66666  21.424  10.510   7.364
 5245POPC   C1B66667  21.131  10.575   6.464
 5245POPC   C2B66668  21.175  10.582   6.764
 5245POPC   C3B66669  21.192  10.586   7.064
 5245POPC   C4B66670  21.189  10.625   7.364
 5246POPC   NC366671  40.759  19.845   5.564
 5246POPC   PO466672  40.752  19.875   5.864
 5246POPC   GL166673  40.785  19.872   6.164
 5246POPC   GL266674  40.678  19.784   6.164
 5246POPC   C1A66675  40.811  19.831   6.464
 5246POPC   D2A66676  40.761  19.859   6.764
 5246POPC   C3A66677  40.745  19.793   7.064
 5246POPC   C4A66678  40.818  19.842   7.364
 5246POPC   C1B66679  40.624  19.604   6.464
 5246POPC   C2B66680  40.580  19.612   6.764
 5246POPC   C3B66681  40.644  19.669   7.064
 5246POPC   C4B66682  40.575  19.611   7.364
 5247POPC   NC366683   6.673   1.947   5.564
 5247POPC   PO466684   6.596   2.009   5.864
 5247POPC   GL166685   6.675   1.986   6.164
 5247POPC   GL266686   6.744   2.076   6.164
 5247POPC   C1A66687   6.686   1.943   6.464
 5247POPC   D2A66688   6.638   2.001   6.764
 5247POPC   C3A66689   6.629   2.033   7.064
 5247POPC   C4A66690   6.657   2.036   7.364
 5247POPC   C1B66691   6.842   2.146   6.464
 5247POPC   C2B66692   6.787   2.152   6.764
 5247POPC   C3B66693   6.793   2.209   7.064
 5247POPC   C4B66694   6.818   2.187   7.364
 5248POPC   NC366695  29.132  22.904   5.564
 5248POPC   PO466696  29.124  22.929   5.864
 5248POPC   GL166697  29.105  22.893   6.164
 5248POPC   GL266698  29.112  22.828   6.164
 5248POPC   C1A66699  29.195  22.967   6.464
 5248POPC   D2A66700  29.132  22.950   6.764
 5248POPC   C3A66701  29.173  22.950   7.064
 5248POPC   C4A66702  29.172  22.988   7.364
 5248POPC   C1B66703  29.128  22.711   6.464
 5248POPC   C2B66704  29.101  22.702   6.764
 5248POPC   C3B66705  29.144  22.701   7.064
 5248POPC   C4B66706  29.059  22.653   7.364
 5249POPC   NC366707   6.652  32.212   5.564
 5249POPC   PO466708   6.637  32.272   5.864
 5249POPC   GL166709   6.676  32.259   6.164
 5249POPC   GL266710   6.579  32.377   6.164
 5249POPC   C1A66711   6.665  32.293   6.464
 5249POPC   D2A66712   6.639  32.244   6.764
 5249POPC   C3A66713   6.598  32.281   7.064
 5249POPC   C4A66714   6.687  32.259   7.364
 5249POPC   C1B66715   6.509  32.459   6.464
 5249POPC   C2B66716   6.449  32.453   6.764
 5249POPC   C3B66717   6.417  32.418   7.064
 5249POPC   C4B66718   6.501  32.437   7.364
 5250POPC   NC366719  39.971  37.697   5.564
 5250POPC   PO466720  39.995  37.663   5.864
 5250POPC   GL166721  39.990  37.638   6.164
 5250POPC   GL266722  39.908  37.746   6.164
 5250POPC   C1A66723  40.006  37.717   6.464
 5250POPC   D2A66724  40.041  37.716   6.764
 5250POPC   C3A66725  40.002  37.678   7.064
 5250POPC   C4A66726  40.025  37.687   7.364
 5250POPC   C1B66727  39.802  37.858   6.464
 5250POPC   C2B66728  39.826  37.812   6.764
 5250POPC   C3B66729  39.837  37.896   7.064
 5250POPC   C4B66730  39.817  37.841   7.364
 5251POPC   NC366731   5.141  11.300   5.564
 5251POPC   PO466732   5.100  11.342   5.864
 5251POPC   GL166733   5.080  11.341   6.164
 5251POPC   GL266734   5.161  11.390   6.164
 5251POPC   C1A66735   5.116  11.346   6.464
 5251POPC   D2A66736   5.107  11.283   6.764
 5251POPC   C3A66737   5.088  11.341   7.064
 5251POPC   C4A66738   5.135  11.340   7.364
 5251POPC   C1B66739   5.208  11.473   6.464
 5251POPC   C2B66740   5.256  11.543   6.764
 5251POPC   C3B66741   5.234  11.536   7.064
 5251POPC   C4B66742   5.176  11.522   7.364
 5252POPC   NC366743  29.946  18.285   5.564
 5252POPC   PO466744  29.968  18.278   5.864
 5252POPC   GL166745  29.958  18.245   6.164
 5252POPC   GL266746  29.972  18.383   6.164
 5252POPC   C1A66747  29.927  18.331   6.464
 5252POPC   D2A66748  29.952  18.299   6.764
 5252POPC   C3A66749  29.906  18.275   7.064
 5252POPC   C4A66750  29.943  18.322   7.364
 5252POPC   C1B66751  30.016  18.476   6.464
 5252POPC   C2B66752  30.044  18.501   6.764
 5252POPC   C3B66753  30.038  18.470   7.064
 5252POPC   C4B66754  30.049  18.551   7.364
 5253POPC   NC366755   4.313  20.639   5.564
 5253POPC   PO466756   4.366  20.619   5.864
 5253POPC   GL166757   4.299  20.617   6.164
 5253POPC   GL266758   4.424  20.491   6.164
 5253POPC   C1A66759   4.338  20.612   6.464
 5253POPC   D2A66760   4.367  20.577   6.764
 5253POPC   C3A66761   4.274  20.589   7.064
 5253POPC   C4A66762   4.328  20.628   7.364
 5253POPC   C1B66763   4.549  20.496   6.464
 5253POPC   C2B66764   4.501  20.443   6.764
 5253POPC   C3B66765   4.548  20.491   7.064
 5253POPC   C4B66766   4.473  20.448   7.364
 5254POPC   NC366767  22.177  26.798   5.564
 5254POPC   PO466768  22.118  26.806   5.864
 5254POPC   GL166769  22.188  26.834   6.164
 5254POPC   GL266770  22.192  26.719   6.164
 5254POPC   C1A66771  22.177  26.839   6.464
 5254POPC   D2A66772  22.183  26.792   6.764
 5254POPC   C3A66773  22.184  26.825   7.064
 5254POPC   C4A66774  22.157  26.829   7.364
 5254POPC   C1B66775  22.323  26.633   6.464
 5254POPC   C2B66776  22.278  26.566   6.764
 5254POPC   C3B66777  22.308  26.559   7.064
 5254POPC   C4B66778  22.311  26.590   7.364
 5255POPC   NC366779   2.006  33.061   5.564
 5255POPC   PO466780   1.999  33.016   5.864
 5255POPC   GL166781   1.962  33.014   6.164
 5255POPC   GL266782   2.015  32.902   6.164
 5255POPC   C1A66783   1.982  33.005   6.464
 5255POPC   D2A66784   1.940  33.032   6.764
 5255POPC   C3A66785   2.025  33.007   7.064
 5255POPC   C4A66786   2.002  32.986   7.364
 5255POPC   C1B66787   2.101  32.808   6.464
 5255POPC   C2B66788   2.141  32.758   6.764
 5255POPC   C3B66789   2.066  32.794   7.064
 5255POPC   C4B66790   2.119  32.850   7.364
 5256POPC   NC366791  15.951   3.590   5.564
 5256POPC   PO466792  15.932   3.507   5.864
 5256POPC   GL166793  15.949   3.497   6.164
 5256POPC   GL266794  15.806   3.530   6.164
 5256POPC   C1A66795  15.960   3.561   6.464
 5256POPC   D2A66796  16.004   3.508   6.764
 5256POPC   C3A66797  15.948   3.510   7.064
 5256POPC   C4A66798  15.978   3.547   7.364
 5256POPC   C1B66799  15.776   3.403   6.464
 5256POPC   C2B66800  15.686   3.397   6.764
 5256POPC   C3B66801  15.785   3.445   7.064
 5256POPC   C4B66802  15.721   3.421   7.364
 5257POPC   NC366803  16.725  13.636   5.564
 5257POPC   PO466804  16.694  13.634   5.864
 5257POPC   GL166805  16.751  13.597   6.164
 5257POPC   GL266806  16.843  13.678   6.164
 5257POPC   C1A66807  16.762  13.603   6.464
 5257POPC   D2A66808  16.710  13.603   6.764
 5257POPC   C3A66809  16.768  13.623   7.064
 5257POPC   C4A66810  16.749  13.580   7.364
 5257POPC   C1B66811  16.888  13.787   6.464
 5257POPC   C2B66812  16.871  13.756   6.764
 5257POPC   C3B66813  16.911  13.828   7.064
 5257POPC   C4B66814  16.916  13.777   7.364
 5258POPC   NC366815   3.497  12.895   5.564
 5258POPC   PO466816   3.581  12.825   5.864
 5258POPC   GL166817   3.536  12.857   6.164
 5258POPC   GL266818   3.465  12.734   6.164
 5258POPC   C1A66819   3.509  12.890   6.464
 5258POPC   D2A66820   3.566  12.858   6.764
 5258POPC   C3A66821   3.561  12.804   7.064
 5258POPC   C4A66822   3.496  12.809   7.364
 5258POPC   C1B66823   3.485  12.592   6.464
 5258POPC   C2B66824   3.420  12.618   6.764
 5258POPC   C3B66825   3.472  12.629   7.064
 5258POPC   C4B66826   3.468  12.613   7.364
 5259POPC   NC366827  32.230  25.264   5.564
 5259POPC   PO466828  32.242  25.262   5.864
 5259POPC   GL166829  32.287  25.249   6.164
 5259POPC   GL266830  32.248  25.138   6.164
 5259POPC   C1A66831  32.281  25.220   6.464
 5259POPC   D2A66832  32.276  25.304   6.764
 5259POPC   C3A66833  32.246  25.289   7.064
 5259POPC   C4A66834  32.284  25.271   7.364
 5259POPC   C1B66835  32.248  25.048   6.464
 5259POPC   C2B66836  32.182  24.971   6.764
 5259POPC   C3B66837  32.223  25.014   7.064
 5259POPC   C4B66838  32.255  24.991   7.364
 5260POPC   NC366839  12.108  15.905   5.564
 5260POPC   PO466840  12.030  15.968   5.864
 5260POPC   GL166841  12.082  15.985   6.164
 5260POPC   GL266842  12.111  15.855   6.164
 5260POPC   C1A66843  12.030  15.935   6.464
 5260POPC   D2A66844  12.086  15.941   6.764
 5260POPC   C3A66845  12.081  15.935   7.064
 5260POPC   C4A66846  12.111  15.927   7.364
 5260POPC   C1B66847  12.161  15.710   6.464
 5260POPC   C2B66848  12.197  15.701   6.764
 5260POPC   C3B66849  12.223  15.771   7.064
 5260POPC   C4B66850  12.173  15.773   7.364
 5261POPC   NC366851   4.302  23.714   5.564
 5261POPC   PO466852   4.337  23.686   5.864
 5261POPC   GL166853   4.340  23.671   6.164
 5261POPC   GL266854   4.272  23.640   6.164
 5261POPC   C1A66855   4.302  23.668   6.464
 5261POPC   D2A66856   4.312  23.670   6.764
 5261POPC   C3A66857   4.285  23.713   7.064
 5261POPC   C4A66858   4.303  23.742   7.364
 5261POPC   C1B66859   4.187  23.506   6.464
 5261POPC   C2B66860   4.147  23.521   6.764
 5261POPC   C3B66861   4.211  23.551   7.064
 5261POPC   C4B66862   4.137  23.462   7.364
 5262POPC   NC366863  25.227  40.792   5.564
 5262POPC   PO466864  25.264  40.735   5.864
 5262POPC   GL166865  25.277  40.782   6.164
 5262POPC   GL266866  25.233  40.669   6.164
 5262POPC   C1A66867  25.297  40.740   6.464
 5262POPC   D2A66868  25.245  40.751   6.764
 5262POPC   C3A66869  25.276  40.778   7.064
 5262POPC   C4A66870  25.277  40.794   7.364
 5262POPC   C1B66871  25.186  40.582   6.464
 5262POPC   C2B66872  25.209  40.566   6.764
 5262POPC   C3B66873  25.250  40.498   7.064
 5262POPC   C4B66874  25.156  40.560   7.364
 5263POPC   NC366875  23.720  30.725   5.564
 5263POPC   PO466876  23.763  30.743   5.864
 5263POPC   GL166877  23.735  30.701   6.164
 5263POPC   GL266878  23.724  30.572   6.164
 5263POPC   C1A66879  23.702  30.700   6.464
 5263POPC   D2A66880  23.719  30.737   6.764
 5263POPC   C3A66881  23.723  30.710   7.064
 5263POPC   C4A66882  23.693  30.668   7.364
 5263POPC   C1B66883  23.731  30.478   6.464
 5263POPC   C2B66884  23.739  30.460   6.764
 5263POPC   C3B66885  23.725  30.452   7.064
 5263POPC   C4B66886  23.761  30.494   7.364
 5264POPC   NC366887   3.564  13.588   5.564
 5264POPC   PO466888   3.502  13.588   5.864
 5264POPC   GL166889   3.538  13.649   6.164
 5264POPC   GL266890   3.469  13.599   6.164
 5264POPC   C1A66891   3.563  13.601   6.464
 5264POPC   D2A66892   3.567  13.670   6.764
 5264POPC   C3A66893   3.507  13.583   7.064
 5264POPC   C4A66894   3.521  13.649   7.364
 5264POPC   C1B66895   3.369  13.426   6.464
 5264POPC   C2B66896   3.328  13.444   6.764
 5264POPC   C3B66897   3.391  13.427   7.064
 5264POPC   C4B66898   3.325  13.483   7.364
 5265POPC   NC366899  39.259  27.566   5.564
 5265POPC   PO466900  39.265  27.553   5.864
 5265POPC   GL166901  39.270  27.581   6.164
 5265POPC   GL266902  39.092  27.576   6.164
 5265POPC   C1A66903  39.251  27.618   6.464
 5265POPC   D2A66904  39.241  27.576   6.764
 5265POPC   C3A66905  39.214  27.627   7.064
 5265POPC   C4A66906  39.230  27.622   7.364
 5265POPC   C1B66907  38.982  27.458   6.464
 5265POPC   C2B66908  39.025  27.437   6.764
 5265POPC   C3B66909  39.006  27.475   7.064
 5265POPC   C4B66910  38.982  27.421   7.364
 5266POPC   NC366911   1.237  22.930   5.564
 5266POPC   PO466912   1.206  22.898   5.864
 5266POPC   GL166913   1.216  22.892   6.164
 5266POPC   GL266914   1.217  22.844   6.164
 5266POPC   C1A66915   1.210  22.967   6.464
 5266POPC   D2A66916   1.241  22.957   6.764
 5266POPC   C3A66917   1.222  22.962   7.064
 5266POPC   C4A66918   1.169  22.953   7.364
 5266POPC   C1B66919   1.239  22.742   6.464
 5266POPC   C2B66920   1.268  22.714   6.764
 5266POPC   C3B66921   1.273  22.646   7.064
 5266POPC   C4B66922   1.298  22.655   7.364
 5267POPC   NC366923  29.953  32.239   5.564
 5267POPC   PO466924  29.897  32.250   5.864
 5267POPC   GL166925  29.930  32.260   6.164
 5267POPC   GL266926  29.845  32.358   6.164
 5267POPC   C1A66927  29.965  32.227   6.464
 5267POPC   D2A66928  29.951  32.257   6.764
 5267POPC   C3A66929  29.947  32.275   7.064
 5267POPC   C4A66930  29.935  32.292   7.364
 5267POPC   C1B66931  29.806  32.457   6.464
 5267POPC   C2B66932  29.846  32.459   6.764
 5267POPC   C3B66933  29.858  32.482   7.064
 5267POPC   C4B66934  29.849  32.480   7.364
 5268POPC   NC366935   0.441  37.633   5.564
 5268POPC   PO466936   0.431  37.692   5.864
 5268POPC   GL166937   0.460  37.657   6.164
 5268POPC   GL266938   0.531  37.685   6.164
 5268POPC   C1A66939   0.425  37.687   6.464
 5268POPC   D2A66940   0.391  37.686   6.764
 5268POPC   C3A66941   0.414  37.634   7.064
 5268POPC   C4A66942   0.478  37.662   7.364
 5268POPC   C1B66943   0.695  37.718   6.464
 5268POPC   C2B66944   0.701  37.768   6.764
 5268POPC   C3B66945   0.692  37.727   7.064
 5268POPC   C4B66946   0.639  37.772   7.364
 5269POPC   NC366947  29.883  20.657   5.564
 5269POPC   PO466948  29.916  20.564   5.864
 5269POPC   GL166949  29.899  20.625   6.164
 5269POPC   GL266950  29.804  20.691   6.164
 5269POPC   C1A66951  29.892  20.589   6.464
 5269POPC   D2A66952  29.957  20.609   6.764
 5269POPC   C3A66953  29.894  20.594   7.064
 5269POPC   C4A66954  29.940  20.637   7.364
 5269POPC   C1B66955  29.725  20.674   6.464
 5269POPC   C2B66956  29.663  20.636   6.764
 5269POPC   C3B66957  29.663  20.703   7.064
 5269POPC   C4B66958  29.653  20.633   7.364
 5270POPC   NC366959   6.660  41.515   5.564
 5270POPC   PO466960   6.694  41.606   5.864
 5270POPC   GL166961   6.692  41.530   6.164
 5270POPC   GL266962   6.653  41.702   6.164
 5270POPC   C1A66963   6.690  41.581   6.464
 5270POPC   D2A66964   6.656  41.551   6.764
 5270POPC   C3A66965   6.650  41.543   7.064
 5270POPC   C4A66966   6.633  41.512   7.364
 5270POPC   C1B66967   6.793  41.772   6.464
 5270POPC   C2B66968   6.740  41.828   6.764
 5270POPC   C3B66969   6.762  41.764   7.064
 5270POPC   C4B66970   6.721  41.817   7.364
 5271POPC   NC366971  11.268  29.955   5.564
 5271POPC   PO466972  11.339  29.942   5.864
 5271POPC   GL166973  11.313  29.914   6.164
 5271POPC   GL266974  11.431  29.986   6.164
 5271POPC   C1A66975  11.301  29.950   6.464
 5271POPC   D2A66976  11.261  29.952   6.764
 5271POPC   C3A66977  11.311  29.938   7.064
 5271POPC   C4A66978  11.259  29.904   7.364
 5271POPC   C1B66979  11.491  30.016   6.464
 5271POPC   C2B66980  11.513  30.052   6.764
 5271POPC   C3B66981  11.509  29.976   7.064
 5271POPC   C4B66982  11.535  30.056   7.364
 5272POPC   NC366983  27.575  22.896   5.564
 5272POPC   PO466984  27.619  22.914   5.864
 5272POPC   GL166985  27.587  22.898   6.164
 5272POPC   GL266986  27.559  23.070   6.164
 5272POPC   C1A66987  27.569  22.899   6.464
 5272POPC   D2A66988  27.624  22.901   6.764
 5272POPC   C3A66989  27.588  22.941   7.064
 5272POPC   C4A66990  27.565  22.974   7.364
 5272POPC   C1B66991  27.589  23.165   6.464
 5272POPC   C2B66992  27.575  23.216   6.764
 5272POPC   C3B66993  27.623  23.152   7.064
 5272POPC   C4B66994  27.538  23.141   7.364
 5273POPC   NC366995  20.631  12.026   5.564
 5273POPC   PO466996  20.637  12.045   5.864
 5273POPC   GL166997  20.567  12.072   6.164
 5273POPC   GL266998  20.462  12.060   6.164
 5273POPC   C1A66999  20.633  12.120   6.464
 5273POPC   D2A67000  20.597  12.066   6.764
 5273POPC   C3A67001  20.586  12.075   7.064
 5273POPC   C4A67002  20.618  12.117   7.364
 5273POPC   C1B67003  20.401  11.991   6.464
 5273POPC   C2B67004  20.363  11.900   6.764
 5273POPC   C3B67005  20.439  11.924   7.064
 5273POPC   C4B67006  20.363  11.897   7.364
 5274POPC   NC367007   6.655   5.112   5.564
 5274POPC   PO467008   6.638   5.109   5.864
 5274POPC   GL167009   6.692   5.085   6.164
 5274POPC   GL267010   6.599   4.956   6.164
 5274POPC   C1A67011   6.682   5.101   6.464
 5274POPC   D2A67012   6.691   5.122   6.764
 5274POPC   C3A67013   6.665   5.055   7.064
 5274POPC   C4A67014   6.681   5.117   7.364
 5274POPC   C1B67015   6.548   4.884   6.464
 5274POPC   C2B67016   6.518   4.835   6.764
 5274POPC   C3B67017   6.537   4.832   7.064
 5274POPC   C4B67018   6.471   4.890   7.364
 5275POPC   NC367019  19.820  31.483   5.564
 5275POPC   PO467020  19.834  31.512   5.864
 5275POPC   GL167021  19.867  31.482   6.164
 5275POPC   GL267022  19.887  31.352   6.164
 5275POPC   C1A67023  19.809  31.512   6.464
 5275POPC   D2A67024  19.827  31.490   6.764
 5275POPC   C3A67025  19.864  31.440   7.064
 5275POPC   C4A67026  19.872  31.463   7.364
 5275POPC   C1B67027  19.861  31.259   6.464
 5275POPC   C2B67028  19.862  31.236   6.764
 5275POPC   C3B67029  19.878  31.196   7.064
 5275POPC   C4B67030  19.887  31.245   7.364
 5276POPC   NC367031  13.598  23.715   5.564
 5276POPC   PO467032  13.598  23.729   5.864
 5276POPC   GL167033  13.591  23.697   6.164
 5276POPC   GL267034  13.528  23.695   6.164
 5276POPC   C1A67035  13.607  23.723   6.464
 5276POPC   D2A67036  13.675  23.729   6.764
 5276POPC   C3A67037  13.644  23.664   7.064
 5276POPC   C4A67038  13.578  23.730   7.364
 5276POPC   C1B67039  13.334  23.726   6.464
 5276POPC   C2B67040  13.338  23.789   6.764
 5276POPC   C3B67041  13.368  23.771   7.064
 5276POPC   C4B67042  13.416  23.789   7.364
 5277POPC   NC367043  35.333  43.149   5.564
 5277POPC   PO467044  35.327  43.078   5.864
 5277POPC   GL167045  35.331  43.127   6.164
 5277POPC   GL267046  35.379  43.214   6.164
 5277POPC   C1A67047  35.351  43.110   6.464
 5277POPC   D2A67048  35.314  43.139   6.764
 5277POPC   C3A67049  35.362  43.077   7.064
 5277POPC   C4A67050  35.351  43.072   7.364
 5277POPC   C1B67051  35.345  43.363   6.464
 5277POPC   C2B67052  35.353  43.361   6.764
 5277POPC   C3B67053  35.365  43.332   7.064
 5277POPC   C4B67054  35.420  43.319   7.364
 5278POPC   NC367055  13.604   2.033   5.564
 5278POPC   PO467056  13.606   1.977   5.864
 5278POPC   GL167057  13.588   2.017   6.164
 5278POPC   GL267058  13.747   1.955   6.164
 5278POPC   C1A67059  13.594   1.993   6.464
 5278POPC   D2A67060  13.586   2.024   6.764
 5278POPC   C3A67061  13.649   2.032   7.064
 5278POPC   C4A67062  13.661   1.984   7.364
 5278POPC   C1B67063  13.824   1.854   6.464
 5278POPC   C2B67064  13.778   1.875   6.764
 5278POPC   C3B67065  13.834   1.803   7.064
 5278POPC   C4B67066  13.775   1.865   7.364
 5279POPC   NC367067  32.993  12.074   5.564
 5279POPC   PO467068  33.017  12.064   5.864
 5279POPC   GL167069  33.005  12.106   6.164
 5279POPC   GL267070  32.883  11.997   6.164
 5279POPC   C1A67071  33.031  12.057   6.464
 5279POPC   D2A67072  33.019  12.047   6.764
 5279POPC   C3A67073  33.057  12.107   7.064
 5279POPC   C4A67074  33.053  12.037   7.364
 5279POPC   C1B67075  32.851  11.912   6.464
 5279POPC   C2B67076  32.790  11.957   6.764
 5279POPC   C3B67077  32.790  11.974   7.064
 5279POPC   C4B67078  32.800  11.956   7.364
 5280POPC   NC367079   5.129  28.347   5.564
 5280POPC   PO467080   5.125  28.381   5.864
 5280POPC   GL167081   5.126  28.362   6.164
 5280POPC   GL267082   5.227  28.395   6.164
 5280POPC   C1A67083   5.070  28.417   6.464
 5280POPC   D2A67084   5.133  28.390   6.764
 5280POPC   C3A67085   5.096  28.359   7.064
 5280POPC   C4A67086   5.140  28.373   7.364
 5280POPC   C1B67087   5.248  28.538   6.464
 5280POPC   C2B67088   5.254  28.545   6.764
 5280POPC   C3B67089   5.334  28.570   7.064
 5280POPC   C4B67090   5.328  28.563   7.364
 5281POPC   NC367091   8.155  37.712   5.564
 5281POPC   PO467092   8.232  37.706   5.864
 5281POPC   GL167093   8.187  37.726   6.164
 5281POPC   GL267094   8.353  37.649   6.164
 5281POPC   C1A67095   8.173  37.640   6.464
 5281POPC   D2A67096   8.228  37.703   6.764
 5281POPC   C3A67097   8.204  37.698   7.064
 5281POPC   C4A67098   8.237  37.677   7.364
 5281POPC   C1B67099   8.422  37.603   6.464
 5281POPC   C2B67100   8.437  37.647   6.764
 5281POPC   C3B67101   8.447  37.597   7.064
 5281POPC   C4B67102   8.449  37.652   7.364
 5282POPC   NC367103  32.278  43.118   5.564
 5282POPC   PO467104  32.211  43.135   5.864
 5282POPC   GL167105  32.280  43.094   6.164
 5282POPC   GL267106  32.133  43.061   6.164
 5282POPC   C1A67107  32.289  43.137   6.464
 5282POPC   D2A67108  32.291  43.139   6.764
 5282POPC   C3A67109  32.289  43.117   7.064
 5282POPC   C4A67110  32.288  43.079   7.364
 5282POPC   C1B67111  32.092  42.980   6.464
 5282POPC   C2B67112  32.027  42.972   6.764
 5282POPC   C3B67113  32.014  42.999   7.064
 5282POPC   C4B67114  32.092  42.933   7.364
 5283POPC   NC367115   8.177   6.692   5.564
 5283POPC   PO467116   8.173   6.679   5.864
 5283POPC   GL167117   8.162   6.668   6.164
 5283POPC   GL267118   8.213   6.474   6.164
 5283POPC   C1A67119   8.239   6.656   6.464
 5283POPC   D2A67120   8.214   6.608   6.764
 5283POPC   C3A67121   8.234   6.650   7.064
 5283POPC   C4A67122   8.217   6.598   7.364
 5283POPC   C1B67123   8.104   6.349   6.464
 5283POPC   C2B67124   8.157   6.353   6.764
 5283POPC   C3B67125   8.142   6.355   7.064
 5283POPC   C4B67126   8.177   6.368   7.364
 5284POPC   NC367127  26.849   1.964   5.564
 5284POPC   PO467128  26.836   2.035   5.864
 5284POPC   GL167129  26.803   1.950   6.164
 5284POPC   GL267130  26.898   2.107   6.164
 5284POPC   C1A67131  26.826   1.991   6.464
 5284POPC   D2A67132  26.824   1.988   6.764
 5284POPC   C3A67133  26.838   2.015   7.064
 5284POPC   C4A67134  26.860   1.985   7.364
 5284POPC   C1B67135  27.040   2.186   6.464
 5284POPC   C2B67136  26.959   2.175   6.764
 5284POPC   C3B67137  27.022   2.172   7.064
 5284POPC   C4B67138  27.034   2.115   7.364
 5285POPC   NC367139  10.513  44.646   5.564
 5285POPC   PO467140  10.546  44.643   5.864
 5285POPC   GL167141  10.490  44.702   6.164
 5285POPC   GL267142  10.599  44.673   6.164
 5285POPC   C1A67143  10.474  44.672   6.464
 5285POPC   D2A67144  10.494  44.620   6.764
 5285POPC   C3A67145  10.562  44.636   7.064
 5285POPC   C4A67146  10.526  44.626   7.364
 5285POPC   C1B67147  10.754  44.611   6.464
 5285POPC   C2B67148  10.763  44.639   6.764
 5285POPC   C3B67149  10.733  44.592   7.064
 5285POPC   C4B67150  10.728  44.666   7.364
 5286POPC   NC367151  22.119  37.645   5.564
 5286POPC   PO467152  22.143  37.637   5.864
 5286POPC   GL167153  22.197  37.653   6.164
 5286POPC   GL267154  22.237  37.657   6.164
 5286POPC   C1A67155  22.207  37.673   6.464
 5286POPC   D2A67156  22.211  37.706   6.764
 5286POPC   C3A67157  22.183  37.640   7.064
 5286POPC   C4A67158  22.140  37.655   7.364
 5286POPC   C1B67159  22.458  37.650   6.464
 5286POPC   C2B67160  22.396  37.622   6.764
 5286POPC   C3B67161  22.383  37.704   7.064
 5286POPC   C4B67162  22.391  37.629   7.364
 5287POPC   NC367163  10.563  37.722   5.564
 5287POPC   PO467164  10.544  37.661   5.864
 5287POPC   GL167165  10.510  37.661   6.164
 5287POPC   GL267166  10.498  37.788   6.164
 5287POPC   C1A67167  10.497  37.656   6.464
 5287POPC   D2A67168  10.479  37.648   6.764
 5287POPC   C3A67169  10.542  37.696   7.064
 5287POPC   C4A67170  10.500  37.684   7.364
 5287POPC   C1B67171  10.586  37.962   6.464
 5287POPC   C2B67172  10.517  37.932   6.764
 5287POPC   C3B67173  10.560  37.961   7.064
 5287POPC   C4B67174  10.582  37.903   7.364
 5288POPC   NC367175   3.501   9.728   5.564
 5288POPC   PO467176   3.536   9.738   5.864
 5288POPC   GL167177   3.560   9.727   6.164
 5288POPC   GL267178   3.421   9.807   6.164
 5288POPC   C1A67179   3.576   9.764   6.464
 5288POPC   D2A67180   3.507   9.758   6.764
 5288POPC   C3A67181   3.495   9.788   7.064
 5288POPC   C4A67182   3.566   9.750   7.364
 5288POPC   C1B67183   3.316   9.903   6.464
 5288POPC   C2B67184   3.352   9.855   6.764
 5288POPC   C3B67185   3.363   9.846   7.064
 5288POPC   C4B67186   3.318   9.856   7.364
 5289POPC   NC367187  31.435  20.566   5.564
 5289POPC   PO467188  31.459  20.574   5.864
 5289POPC   GL167189  31.430  20.577   6.164
 5289POPC   GL267190  31.461  20.441   6.164
 5289POPC   C1A67191  31.466  20.623   6.464
 5289POPC   D2A67192  31.502  20.646   6.764
 5289POPC   C3A67193  31.438  20.561   7.064
 5289POPC   C4A67194  31.464  20.567   7.364
 5289POPC   C1B67195  31.476  20.349   6.464
 5289POPC   C2B67196  31.429  20.356   6.764
 5289POPC   C3B67197  31.434  20.358   7.064
 5289POPC   C4B67198  31.478  20.337   7.364
 5290POPC   NC367199  17.490  34.561   5.564
 5290POPC   PO467200  17.491  34.545   5.864
 5290POPC   GL167201  17.531  34.586   6.164
 5290POPC   GL267202  17.440  34.619   6.164
 5290POPC   C1A67203  17.481  34.603   6.464
 5290POPC   D2A67204  17.495  34.570   6.764
 5290POPC   C3A67205  17.521  34.557   7.064
 5290POPC   C4A67206  17.533  34.551   7.364
 5290POPC   C1B67207  17.313  34.631   6.464
 5290POPC   C2B67208  17.279  34.647   6.764
 5290POPC   C3B67209  17.230  34.667   7.064
 5290POPC   C4B67210  17.326  34.707   7.364
 5291POPC   NC367211  26.791  18.300   5.564
 5291POPC   PO467212  26.780  18.285   5.864
 5291POPC   GL167213  26.781  18.325   6.164
 5291POPC   GL267214  26.769  18.191   6.164
 5291POPC   C1A67215  26.770  18.253   6.464
 5291POPC   D2A67216  26.804  18.265   6.764
 5291POPC   C3A67217  26.771  18.323   7.064
 5291POPC   C4A67218  26.817  18.292   7.364
 5291POPC   C1B67219  26.630  18.088   6.464
 5291POPC   C2B67220  26.697  18.125   6.764
 5291POPC   C3B67221  26.621  18.112   7.064
 5291POPC   C4B67222  26.651  18.063   7.364
 5292POPC   NC367223  13.649  12.089   5.564
 5292POPC   PO467224  13.622  12.116   5.864
 5292POPC   GL167225  13.620  12.108   6.164
 5292POPC   GL267226  13.544  12.114   6.164
 5292POPC   C1A67227  13.671  12.073   6.464
 5292POPC   D2A67228  13.592  12.030   6.764
 5292POPC   C3A67229  13.674  12.086   7.064
 5292POPC   C4A67230  13.597  12.047   7.364
 5292POPC   C1B67231  13.333  12.163   6.464
 5292POPC   C2B67232  13.381  12.149   6.764
 5292POPC   C3B67233  13.381  12.081   7.064
 5292POPC   C4B67234  13.384  12.068   7.364
 5293POPC   NC367235  37.672  21.344   5.564
 5293POPC   PO467236  37.722  21.409   5.864
 5293POPC   GL167237  37.667  21.381   6.164
 5293POPC   GL267238  37.769  21.358   6.164
 5293POPC   C1A67239  37.725  21.427   6.464
 5293POPC   D2A67240  37.696  21.420   6.764
 5293POPC   C3A67241  37.725  21.346   7.064
 5293POPC   C4A67242  37.681  21.402   7.364
 5293POPC   C1B67243  37.889  21.310   6.464
 5293POPC   C2B67244  37.915  21.285   6.764
 5293POPC   C3B67245  37.883  21.314   7.064
 5293POPC   C4B67246  37.932  21.329   7.364
 5294POPC   NC367247  25.248  30.716   5.564
 5294POPC   PO467248  25.295  30.703   5.864
 5294POPC   GL167249  25.250  30.711   6.164
 5294POPC   GL267250  25.145  30.573   6.164
 5294POPC   C1A67251  25.306  30.682   6.464
 5294POPC   D2A67252  25.315  30.680   6.764
 5294POPC   C3A67253  25.233  30.657   7.064
 5294POPC   C4A67254  25.239  30.719   7.364
 5294POPC   C1B67255  25.033  30.508   6.464
 5294POPC   C2B67256  25.114  30.516   6.764
 5294POPC   C3B67257  25.034  30.489   7.064
 5294POPC   C4B67258  25.060  30.507   7.364
 5295POPC   NC367259  21.430   7.460   5.564
 5295POPC   PO467260  21.397   7.388   5.864
 5295POPC   GL167261  21.379   7.389   6.164
 5295POPC   GL267262  21.376   7.271   6.164
 5295POPC   C1A67263  21.408   7.436   6.464
 5295POPC   D2A67264  21.352   7.372   6.764
 5295POPC   C3A67265  21.384   7.444   7.064
 5295POPC   C4A67266  21.337   7.411   7.364
 5295POPC   C1B67267  21.316   7.210   6.464
 5295POPC   C2B67268  21.315   7.203   6.764
 5295POPC   C3B67269  21.296   7.218   7.064
 5295POPC   C4B67270  21.327   7.147   7.364
 5296POPC   NC367271  32.998  36.947   5.564
 5296POPC   PO467272  33.008  36.864   5.864
 5296POPC   GL167273  32.980  36.919   6.164
 5296POPC   GL267274  32.917  36.930   6.164
 5296POPC   C1A67275  33.029  36.870   6.464
 5296POPC   D2A67276  32.992  36.930   6.764
 5296POPC   C3A67277  32.974  36.871   7.064
 5296POPC   C4A67278  32.987  36.888   7.364
 5296POPC   C1B67279  32.826  37.005   6.464
 5296POPC   C2B67280  32.786  37.034   6.764
 5296POPC   C3B67281  32.802  37.029   7.064
 5296POPC   C4B67282  32.782  37.055   7.364
 5297POPC   NC367283  40.048  19.785   5.564
 5297POPC   PO467284  39.962  19.807   5.864
 5297POPC   GL167285  40.020  19.805   6.164
 5297POPC   GL267286  40.060  19.701   6.164
 5297POPC   C1A67287  40.051  19.790   6.464
 5297POPC   D2A67288  40.039  19.846   6.764
 5297POPC   C3A67289  40.026  19.852   7.064
 5297POPC   C4A67290  39.999  19.872   7.364
 5297POPC   C1B67291  40.056  19.562   6.464
 5297POPC   C2B67292  40.114  19.585   6.764
 5297POPC   C3B67293  40.123  19.594   7.064
 5297POPC   C4B67294  40.061  19.642   7.364
 5298POPC   NC367295  20.610  29.887   5.564
 5298POPC   PO467296  20.567  29.919   5.864
 5298POPC   GL167297  20.617  29.883   6.164
 5298POPC   GL267298  20.535  29.807   6.164
 5298POPC   C1A67299  20.603  29.899   6.464
 5298POPC   D2A67300  20.595  29.919   6.764
 5298POPC   C3A67301  20.569  29.966   7.064
 5298POPC   C4A67302  20.581  29.906   7.364
 5298POPC   C1B67303  20.389  29.700   6.464
 5298POPC   C2B67304  20.479  29.786   6.764
 5298POPC   C3B67305  20.437  29.718   7.064
 5298POPC   C4B67306  20.427  29.755   7.364
 5299POPC   NC367307  28.344  29.157   5.564
 5299POPC   PO467308  28.347  29.100   5.864
 5299POPC   GL167309  28.332  29.180   6.164
 5299POPC   GL267310  28.265  29.046   6.164
 5299POPC   C1A67311  28.358  29.106   6.464
 5299POPC   D2A67312  28.349  29.103   6.764
 5299POPC   C3A67313  28.355  29.165   7.064
 5299POPC   C4A67314  28.390  29.138   7.364
 5299POPC   C1B67315  28.118  29.036   6.464
 5299POPC   C2B67316  28.161  29.031   6.764
 5299POPC   C3B67317  28.136  28.969   7.064
 5299POPC   C4B67318  28.196  29.007   7.364
 5300POPC   NC367319  42.289  14.374   5.564
 5300POPC   PO467320  42.346  14.367   5.864
 5300POPC   GL167321  42.310  14.416   6.164
 5300POPC   GL267322  42.240  14.319   6.164
 5300POPC   C1A67323  42.308  14.367   6.464
 5300POPC   D2A67324  42.285  14.432   6.764
 5300POPC   C3A67325  42.376  14.399   7.064
 5300POPC   C4A67326  42.299  14.354   7.364
 5300POPC   C1B67327  42.202  14.210   6.464
 5300POPC   C2B67328  42.218  14.184   6.764
 5300POPC   C3B67329  42.223  14.177   7.064
 5300POPC   C4B67330  42.218  14.218   7.364
 5301POPC   NC367331  18.307  14.361   5.564
 5301POPC   PO467332  18.281  14.428   5.864
 5301POPC   GL167333  18.314  14.358   6.164
 5301POPC   GL267334  18.386  14.450   6.164
 5301POPC   C1A67335  18.278  14.356   6.464
 5301POPC   D2A67336  18.233  14.430   6.764
 5301POPC   C3A67337  18.312  14.435   7.064
 5301POPC   C4A67338  18.247  14.367   7.364
 5301POPC   C1B67339  18.470  14.505   6.464
 5301POPC   C2B67340  18.564  14.447   6.764
 5301POPC   C3B67341  18.540  14.451   7.064
 5301POPC   C4B67342  18.498  14.463   7.364
 5302POPC   NC367343  14.409  12.843   5.564
 5302POPC   PO467344  14.387  12.828   5.864
 5302POPC   GL167345  14.443  12.812   6.164
 5302POPC   GL267346  14.347  12.981   6.164
 5302POPC   C1A67347  14.362  12.839   6.464
 5302POPC   D2A67348  14.416  12.850   6.764
 5302POPC   C3A67349  14.427  12.901   7.064
 5302POPC   C4A67350  14.372  12.824   7.364
 5302POPC   C1B67351  14.335  13.058   6.464
 5302POPC   C2B67352  14.312  13.132   6.764
 5302POPC   C3B67353  14.310  13.073   7.064
 5302POPC   C4B67354  14.357  13.121   7.364
 5303POPC   NC367355  22.978   9.768   5.564
 5303POPC   PO467356  22.945   9.766   5.864
 5303POPC   GL167357  22.955   9.773   6.164
 5303POPC   GL267358  22.961   9.637   6.164
 5303POPC   C1A67359  22.983   9.748   6.464
 5303POPC   D2A67360  22.979   9.775   6.764
 5303POPC   C3A67361  22.895   9.785   7.064
 5303POPC   C4A67362  22.921   9.776   7.364
 5303POPC   C1B67363  22.957   9.475   6.464
 5303POPC   C2B67364  22.984   9.531   6.764
 5303POPC   C3B67365  22.945   9.516   7.064
 5303POPC   C4B67366  22.910   9.527   7.364
 5304POPC   NC367367  44.619  22.191   5.564
 5304POPC   PO467368  44.658  22.112   5.864
 5304POPC   GL167369  44.661  22.171   6.164
 5304POPC   GL267370  44.544  22.202   6.164
 5304POPC   C1A67371  44.665  22.163   6.464
 5304POPC   D2A67372  44.645  22.202   6.764
 5304POPC   C3A67373  44.663  22.145   7.064
 5304POPC   C4A67374  44.644  22.114   7.364
 5304POPC   C1B67375  44.434  22.248   6.464
 5304POPC   C2B67376  44.452  22.282   6.764
 5304POPC   C3B67377  44.496  22.332   7.064
 5304POPC   C4B67378  44.473  22.287   7.364
 5305POPC   NC367379  42.382  35.396   5.564
 5305POPC   PO467380  42.309  35.303   5.864
 5305POPC   GL167381  42.322  35.377   6.164
 5305POPC   GL267382  42.269  35.504   6.164
 5305POPC   C1A67383  42.366  35.311   6.464
 5305POPC   D2A67384  42.368  35.326   6.764
 5305POPC   C3A67385  42.291  35.344   7.064
 5305POPC   C4A67386  42.302  35.366   7.364
 5305POPC   C1B67387  42.173  35.592   6.464
 5305POPC   C2B67388  42.165  35.519   6.764
 5305POPC   C3B67389  42.213  35.608   7.064
 5305POPC   C4B67390  42.161  35.541   7.364
 5306POPC   NC367391   4.323  33.065   5.564
 5306POPC   PO467392   4.283  33.043   5.864
 5306POPC   GL167393   4.296  32.994   6.164
 5306POPC   GL267394   4.390  32.922   6.164
 5306POPC   C1A67395   4.299  33.055   6.464
 5306POPC   D2A67396   4.273  33.026   6.764
 5306POPC   C3A67397   4.361  33.022   7.064
 5306POPC   C4A67398   4.361  32.978   7.364
 5306POPC   C1B67399   4.515  32.836   6.464
 5306POPC   C2B67400   4.428  32.837   6.764
 5306POPC   C3B67401   4.444  32.801   7.064
 5306POPC   C4B67402   4.509  32.802   7.364
 5307POPC   NC367403  18.275  27.566   5.564
 5307POPC   PO467404  18.248  27.584   5.864
 5307POPC   GL167405  18.329  27.603   6.164
 5307POPC   GL267406  18.265  27.465   6.164
 5307POPC   C1A67407  18.305  27.600   6.464
 5307POPC   D2A67408  18.305  27.612   6.764
 5307POPC   C3A67409  18.328  27.607   7.064
 5307POPC   C4A67410  18.272  27.602   7.364
 5307POPC   C1B67411  18.169  27.405   6.464
 5307POPC   C2B67412  18.136  27.364   6.764
 5307POPC   C3B67413  18.118  27.422   7.064
 5307POPC   C4B67414  18.138  27.353   7.364
 5308POPC   NC367415  29.125  17.486   5.564
 5308POPC   PO467416  29.180  17.523   5.864
 5308POPC   GL167417  29.171  17.543   6.164
 5308POPC   GL267418  29.058  17.404   6.164
 5308POPC   C1A67419  29.150  17.472   6.464
 5308POPC   D2A67420  29.117  17.540   6.764
 5308POPC   C3A67421  29.194  17.496   7.064
 5308POPC   C4A67422  29.125  17.465   7.364
 5308POPC   C1B67423  28.919  17.355   6.464
 5308POPC   C2B67424  28.993  17.377   6.764
 5308POPC   C3B67425  28.958  17.308   7.064
 5308POPC   C4B67426  28.966  17.344   7.364
 5309POPC   NC367427   6.596  13.602   5.564
 5309POPC   PO467428   6.684  13.578   5.864
 5309POPC   GL167429   6.597  13.602   6.164
 5309POPC   GL267430   6.621  13.477   6.164
 5309POPC   C1A67431   6.623  13.667   6.464
 5309POPC   D2A67432   6.693  13.613   6.764
 5309POPC   C3A67433   6.672  13.654   7.064
 5309POPC   C4A67434   6.619  13.648   7.364
 5309POPC   C1B67435   6.593  13.410   6.464
 5309POPC   C2B67436   6.573  13.397   6.764
 5309POPC   C3B67437   6.579  13.416   7.064
 5309POPC   C4B67438   6.584  13.412   7.364
 5310POPC   NC367439  21.348  37.639   5.564
 5310POPC   PO467440  21.346  37.723   5.864
 5310POPC   GL167441  21.419  37.707   6.164
 5310POPC   GL267442  21.301  37.565   6.164
 5310POPC   C1A67443  21.347  37.647   6.464
 5310POPC   D2A67444  21.430  37.696   6.764
 5310POPC   C3A67445  21.409  37.658   7.064
 5310POPC   C4A67446  21.428  37.662   7.364
 5310POPC   C1B67447  21.237  37.410   6.464
 5310POPC   C2B67448  21.242  37.462   6.764
 5310POPC   C3B67449  21.255  37.502   7.064
 5310POPC   C4B67450  21.249  37.456   7.364
 5311POPC   NC367451  27.552   0.456   5.564
 5311POPC   PO467452  27.579   0.447   5.864
 5311POPC   GL167453  27.569   0.459   6.164
 5311POPC   GL267454  27.520   0.409   6.164
 5311POPC   C1A67455  27.599   0.413   6.464
 5311POPC   D2A67456  27.561   0.454   6.764
 5311POPC   C3A67457  27.576   0.436   7.064
 5311POPC   C4A67458  27.633   0.399   7.364
 5311POPC   C1B67459  27.338   0.366   6.464
 5311POPC   C2B67460  27.310   0.382   6.764
 5311POPC   C3B67461  27.305   0.397   7.064
 5311POPC   C4B67462  27.373   0.383   7.364
 5312POPC   NC367463  22.207   2.725   5.564
 5312POPC   PO467464  22.136   2.740   5.864
 5312POPC   GL167465  22.135   2.777   6.164
 5312POPC   GL267466  22.265   2.859   6.164
 5312POPC   C1A67467  22.177   2.728   6.464
 5312POPC   D2A67468  22.113   2.798   6.764
 5312POPC   C3A67469  22.207   2.784   7.064
 5312POPC   C4A67470  22.164   2.728   7.364
 5312POPC   C1B67471  22.321   3.016   6.464
 5312POPC   C2B67472  22.335   2.993   6.764
 5312POPC   C3B67473  22.312   3.012   7.064
 5312POPC   C4B67474  22.258   2.949   7.364
 5313POPC   NC367475   7.394   4.272   5.564
 5313POPC   PO467476   7.407   4.283   5.864
 5313POPC   GL167477   7.456   4.330   6.164
 5313POPC   GL267478   7.448   4.397   6.164
 5313POPC   C1A67479   7.420   4.351   6.464
 5313POPC   D2A67480   7.459   4.273   6.764
 5313POPC   C3A67481   7.420   4.279   7.064
 5313POPC   C4A67482   7.451   4.281   7.364
 5313POPC   C1B67483   7.483   4.543   6.464
 5313POPC   C2B67484   7.523   4.505   6.764
 5313POPC   C3B67485   7.481   4.587   7.064
 5313POPC   C4B67486   7.526   4.553   7.364
 5314POPC   NC367487   7.404  15.954   5.564
 5314POPC   PO467488   7.419  15.942   5.864
 5314POPC   GL167489   7.379  15.936   6.164
 5314POPC   GL267490   7.376  15.865   6.164
 5314POPC   C1A67491   7.451  15.952   6.464
 5314POPC   D2A67492   7.463  15.921   6.764
 5314POPC   C3A67493   7.460  16.002   7.064
 5314POPC   C4A67494   7.387  15.994   7.364
 5314POPC   C1B67495   7.384  15.711   6.464
 5314POPC   C2B67496   7.375  15.702   6.764
 5314POPC   C3B67497   7.446  15.661   7.064
 5314POPC   C4B67498   7.383  15.681   7.364
 5315POPC   NC367499  31.454  26.796   5.564
 5315POPC   PO467500  31.438  26.769   5.864
 5315POPC   GL167501  31.516  26.786   6.164
 5315POPC   GL267502  31.606  26.780   6.164
 5315POPC   C1A67503  31.475  26.845   6.464
 5315POPC   D2A67504  31.450  26.777   6.764
 5315POPC   C3A67505  31.512  26.861   7.064
 5315POPC   C4A67506  31.515  26.836   7.364
 5315POPC   C1B67507  31.735  26.767   6.464
 5315POPC   C2B67508  31.679  26.777   6.764
 5315POPC   C3B67509  31.688  26.801   7.064
 5315POPC   C4B67510  31.677  26.797   7.364
 5316POPC   NC367511  13.643  19.024   5.564
 5316POPC   PO467512  13.651  19.012   5.864
 5316POPC   GL167513  13.600  19.087   6.164
 5316POPC   GL267514  13.644  18.953   6.164
 5316POPC   C1A67515  13.581  19.080   6.464
 5316POPC   D2A67516  13.611  19.044   6.764
 5316POPC   C3A67517  13.667  19.099   7.064
 5316POPC   C4A67518  13.618  19.044   7.364
 5316POPC   C1B67519  13.722  18.795   6.464
 5316POPC   C2B67520  13.679  18.784   6.764
 5316POPC   C3B67521  13.747  18.797   7.064
 5316POPC   C4B67522  13.670  18.846   7.364
 5317POPC   NC367523  44.618   3.546   5.564
 5317POPC   PO467524  44.707   3.508   5.864
 5317POPC   GL167525  44.651   3.501   6.164
 5317POPC   GL267526  44.537   3.582   6.164
 5317POPC   C1A67527  44.619   3.578   6.464
 5317POPC   D2A67528  44.708   3.540   6.764
 5317POPC   C3A67529  44.712   3.577   7.064
 5317POPC   C4A67530  44.701   3.510   7.364
 5317POPC   C1B67531  44.468   3.751   6.464
 5317POPC   C2B67532  44.482   3.731   6.764
 5317POPC   C3B67533  44.451   3.761   7.064
 5317POPC   C4B67534  44.526   3.671   7.364
 5318POPC   NC367535  37.707   0.436   5.564
 5318POPC   PO467536  37.715   0.462   5.864
 5318POPC   GL167537  37.699   0.420   6.164
 5318POPC   GL267538  37.611   0.378   6.164
 5318POPC   C1A67539  37.710   0.453   6.464
 5318POPC   D2A67540  37.655   0.454   6.764
 5318POPC   C3A67541  37.710   0.469   7.064
 5318POPC   C4A67542  37.697   0.485   7.364
 5318POPC   C1B67543  37.551   0.208   6.464
 5318POPC   C2B67544  37.557   0.227   6.764
 5318POPC   C3B67545  37.507   0.268   7.064
 5318POPC   C4B67546  37.529   0.181   7.364
 5319POPC   NC367547  26.789  12.110   5.564
 5319POPC   PO467548  26.858  12.109   5.864
 5319POPC   GL167549  26.785  12.083   6.164
 5319POPC   GL267550  26.713  12.079   6.164
 5319POPC   C1A67551  26.782  12.115   6.464
 5319POPC   D2A67552  26.777  12.098   6.764
 5319POPC   C3A67553  26.866  12.073   7.064
 5319POPC   C4A67554  26.802  12.036   7.364
 5319POPC   C1B67555  26.580  12.072   6.464
 5319POPC   C2B67556  26.589  12.076   6.764
 5319POPC   C3B67557  26.578  12.090   7.064
 5319POPC   C4B67558  26.591  12.139   7.364
 5320POPC   NC367559  40.798  16.739   5.564
 5320POPC   PO467560  40.736  16.684   5.864
 5320POPC   GL167561  40.779  16.745   6.164
 5320POPC   GL267562  40.924  16.807   6.164
 5320POPC   C1A67563  40.767  16.728   6.464
 5320POPC   D2A67564  40.752  16.724   6.764
 5320POPC   C3A67565  40.735  16.681   7.064
 5320POPC   C4A67566  40.807  16.682   7.364
 5320POPC   C1B67567  41.061  16.791   6.464
 5320POPC   C2B67568  40.998  16.867   6.764
 5320POPC   C3B67569  40.968  16.827   7.064
 5320POPC   C4B67570  41.026  16.818   7.364
 5321POPC   NC367571  16.759  33.067   5.564
 5321POPC   PO467572  16.685  33.042   5.864
 5321POPC   GL167573  16.775  33.057   6.164
 5321POPC   GL267574  16.748  33.101   6.164
 5321POPC   C1A67575  16.733  33.026   6.464
 5321POPC   D2A67576  16.729  33.003   6.764
 5321POPC   C3A67577  16.745  33.071   7.064
 5321POPC   C4A67578  16.780  32.989   7.364
 5321POPC   C1B67579  16.797  33.280   6.464
 5321POPC   C2B67580  16.850  33.218   6.764
 5321POPC   C3B67581  16.808  33.229   7.064
 5321POPC   C4B67582  16.847  33.220   7.364
 5322POPC   NC367583  10.550   0.421   5.564
 5322POPC   PO467584  10.565   0.405   5.864
 5322POPC   GL167585  10.549   0.480   6.164
 5322POPC   GL267586  10.470   0.357   6.164
 5322POPC   C1A67587  10.534   0.399   6.464
 5322POPC   D2A67588  10.481   0.479   6.764
 5322POPC   C3A67589  10.568   0.433   7.064
 5322POPC   C4A67590  10.557   0.461   7.364
 5322POPC   C1B67591  10.446   0.162   6.464
 5322POPC   C2B67592  10.448   0.241   6.764
 5322POPC   C3B67593  10.402   0.158   7.064
 5322POPC   C4B67594  10.425   0.187   7.364
 5323POPC   NC367595  39.260  15.975   5.564
 5323POPC   PO467596  39.255  15.937   5.864
 5323POPC   GL167597  39.274  15.920   6.164
 5323POPC   GL267598  39.247  16.096   6.164
 5323POPC   C1A67599  39.256  15.954   6.464
 5323POPC   D2A67600  39.203  15.913   6.764
 5323POPC   C3A67601  39.241  15.974   7.064
 5323POPC   C4A67602  39.243  15.917   7.364
 5323POPC   C1B67603  39.239  16.208   6.464
 5323POPC   C2B67604  39.182  16.169   6.764
 5323POPC   C3B67605  39.257  16.197   7.064
 5323POPC   C4B67606  39.224  16.177   7.364
 5324POPC   NC367607   9.775  35.325   5.564
 5324POPC   PO467608   9.702  35.374   5.864
 5324POPC   GL167609   9.744  35.377   6.164
 5324POPC   GL267610   9.752  35.209   6.164
 5324POPC   C1A67611   9.721  35.366   6.464
 5324POPC   D2A67612   9.775  35.356   6.764
 5324POPC   C3A67613   9.722  35.382   7.064
 5324POPC   C4A67614   9.721  35.396   7.364
 5324POPC   C1B67615   9.688  35.056   6.464
 5324POPC   C2B67616   9.742  35.104   6.764
 5324POPC   C3B67617   9.685  35.116   7.064
 5324POPC   C4B67618   9.700  35.074   7.364
 5325POPC   NC367619  16.689  36.933   5.564
 5325POPC   PO467620  16.711  36.915   5.864
 5325POPC   GL167621  16.727  36.931   6.164
 5325POPC   GL267622  16.819  36.870   6.164
 5325POPC   C1A67623  16.773  36.883   6.464
 5325POPC   D2A67624  16.763  36.888   6.764
 5325POPC   C3A67625  16.735  36.886   7.064
 5325POPC   C4A67626  16.699  36.943   7.364
 5325POPC   C1B67627  16.973  36.726   6.464
 5325POPC   C2B67628  16.888  36.714   6.764
 5325POPC   C3B67629  16.972  36.744   7.064
 5325POPC   C4B67630  16.960  36.723   7.364
 5326POPC   NC367631   9.010  19.858   5.564
 5326POPC   PO467632   8.934  19.854   5.864
 5326POPC   GL167633   8.966  19.813   6.164
 5326POPC   GL267634   9.108  19.798   6.164
 5326POPC   C1A67635   8.941  19.810   6.464
 5326POPC   D2A67636   8.968  19.819   6.764
 5326POPC   C3A67637   8.950  19.794   7.064
 5326POPC   C4A67638   8.936  19.870   7.364
 5326POPC   C1B67639   9.191  19.622   6.464
 5326POPC   C2B67640   9.152  19.656   6.764
 5326POPC   C3B67641   9.210  19.674   7.064
 5326POPC   C4B67642   9.191  19.643   7.364
 5327POPC   NC367643  18.236  21.416   5.564
 5327POPC   PO467644  18.279  21.400   5.864
 5327POPC   GL167645  18.288  21.402   6.164
 5327POPC   GL267646  18.439  21.443   6.164
 5327POPC   C1A67647  18.311  21.355   6.464
 5327POPC   D2A67648  18.259  21.369   6.764
 5327POPC   C3A67649  18.258  21.429   7.064
 5327POPC   C4A67650  18.262  21.416   7.364
 5327POPC   C1B67651  18.564  21.442   6.464
 5327POPC   C2B67652  18.535  21.433   6.764
 5327POPC   C3B67653  18.502  21.473   7.064
 5327POPC   C4B67654  18.565  21.505   7.364
 5328POPC   NC367655   3.512  10.531   5.564
 5328POPC   PO467656   3.552  10.534   5.864
 5328POPC   GL167657   3.547  10.535   6.164
 5328POPC   GL267658   3.559  10.633   6.164
 5328POPC   C1A67659   3.513  10.553   6.464
 5328POPC   D2A67660   3.547  10.536   6.764
 5328POPC   C3A67661   3.587  10.556   7.064
 5328POPC   C4A67662   3.550  10.567   7.364
 5328POPC   C1B67663   3.505  10.810   6.464
 5328POPC   C2B67664   3.571  10.751   6.764
 5328POPC   C3B67665   3.524  10.775   7.064
 5328POPC   C4B67666   3.555  10.731   7.364
 5329POPC   NC367667  22.140  32.277   5.564
 5329POPC   PO467668  22.172  32.218   5.864
 5329POPC   GL167669  22.177  32.228   6.164
 5329POPC   GL267670  22.066  32.343   6.164
 5329POPC   C1A67671  22.154  32.252   6.464
 5329POPC   D2A67672  22.177  32.283   6.764
 5329POPC   C3A67673  22.146  32.216   7.064
 5329POPC   C4A67674  22.125  32.241   7.364
 5329POPC   C1B67675  22.075  32.461   6.464
 5329POPC   C2B67676  22.046  32.494   6.764
 5329POPC   C3B67677  21.995  32.504   7.064
 5329POPC   C4B67678  22.055  32.462   7.364
 5330POPC   NC367679   6.659  43.152   5.564
 5330POPC   PO467680   6.623  43.104   5.864
 5330POPC   GL167681   6.630  43.070   6.164
 5330POPC   GL267682   6.549  43.018   6.164
 5330POPC   C1A67683   6.677  43.123   6.464
 5330POPC   D2A67684   6.596  43.122   6.764
 5330POPC   C3A67685   6.676  43.127   7.064
 5330POPC   C4A67686   6.672  43.134   7.364
 5330POPC   C1B67687   6.464  42.888   6.464
 5330POPC   C2B67688   6.516  42.958   6.764
 5330POPC   C3B67689   6.465  42.936   7.064
 5330POPC   C4B67690   6.503  42.955   7.364
 5331POPC   NC367691  41.519  28.334   5.564
 5331POPC   PO467692  41.553  28.397   5.864
 5331POPC   GL167693  41.536  28.377   6.164
 5331POPC   GL267694  41.582  28.252   6.164
 5331POPC   C1A67695  41.542  28.330   6.464
 5331POPC   D2A67696  41.522  28.355   6.764
 5331POPC   C3A67697  41.593  28.335   7.064
 5331POPC   C4A67698  41.566  28.351   7.364
 5331POPC   C1B67699  41.647  28.167   6.464
 5331POPC   C2B67700  41.682  28.201   6.764
 5331POPC   C3B67701  41.657  28.198   7.064
 5331POPC   C4B67702  41.652  28.137   7.364
 5332POPC   NC367703   3.539  19.085   5.564
 5332POPC   PO467704   3.536  19.035   5.864
 5332POPC   GL167705   3.534  19.098   6.164
 5332POPC   GL267706   3.447  19.085   6.164
 5332POPC   C1A67707   3.567  19.037   6.464
 5332POPC   D2A67708   3.571  19.056   6.764
 5332POPC   C3A67709   3.567  19.064   7.064
 5332POPC   C4A67710   3.583  19.016   7.364
 5332POPC   C1B67711   3.328  19.158   6.464
 5332POPC   C2B67712   3.344  19.219   6.764
 5332POPC   C3B67713   3.304  19.180   7.064
 5332POPC   C4B67714   3.283  19.176   7.364
 5333POPC   NC367715  37.655  38.490   5.564
 5333POPC   PO467716  37.687  38.499   5.864
 5333POPC   GL167717  37.674  38.433   6.164
 5333POPC   GL267718  37.633  38.346   6.164
 5333POPC   C1A67719  37.714  38.424   6.464
 5333POPC   D2A67720  37.708  38.476   6.764
 5333POPC   C3A67721  37.693  38.460   7.064
 5333POPC   C4A67722  37.633  38.448   7.364
 5333POPC   C1B67723  37.571  38.207   6.464
 5333POPC   C2B67724  37.594  38.268   6.764
 5333POPC   C3B67725  37.572  38.196   7.064
 5333POPC   C4B67726  37.633  38.173   7.364
 5334POPC   NC367727   1.958  13.670   5.564
 5334POPC   PO467728   2.019  13.655   5.864
 5334POPC   GL167729   2.021  13.655   6.164
 5334POPC   GL267730   1.832  13.666   6.164
 5334POPC   C1A67731   1.952  13.672   6.464
 5334POPC   D2A67732   1.951  13.633   6.764
 5334POPC   C3A67733   2.026  13.621   7.064
 5334POPC   C4A67734   2.001  13.578   7.364
 5334POPC   C1B67735   1.753  13.701   6.464
 5334POPC   C2B67736   1.785  13.703   6.764
 5334POPC   C3B67737   1.716  13.660   7.064
 5334POPC   C4B67738   1.750  13.661   7.364
 5335POPC   NC367739  28.347  21.339   5.564
 5335POPC   PO467740  28.372  21.428   5.864
 5335POPC   GL167741  28.391  21.429   6.164
 5335POPC   GL267742  28.320  21.242   6.164
 5335POPC   C1A67743  28.411  21.434   6.464
 5335POPC   D2A67744  28.329  21.375   6.764
 5335POPC   C3A67745  28.410  21.401   7.064
 5335POPC   C4A67746  28.385  21.407   7.364
 5335POPC   C1B67747  28.285  21.144   6.464
 5335POPC   C2B67748  28.199  21.169   6.764
 5335POPC   C3B67749  28.279  21.155   7.064
 5335POPC   C4B67750  28.236  21.188   7.364
 5336POPC   NC367751  26.019  18.299   5.564
 5336POPC   PO467752  26.003  18.274   5.864
 5336POPC   GL167753  26.064  18.311   6.164
 5336POPC   GL267754  26.119  18.350   6.164
 5336POPC   C1A67755  26.013  18.234   6.464
 5336POPC   D2A67756  26.008  18.298   6.764
 5336POPC   C3A67757  26.038  18.262   7.064
 5336POPC   C4A67758  26.047  18.258   7.364
 5336POPC   C1B67759  26.135  18.511   6.464
 5336POPC   C2B67760  26.125  18.470   6.764
 5336POPC   C3B67761  26.164  18.499   7.064
 5336POPC   C4B67762  26.216  18.496   7.364
 5337POPC   NC367763  27.620  24.482   5.564
 5337POPC   PO467764  27.617  24.509   5.864
 5337POPC   GL167765  27.573  24.466   6.164
 5337POPC   GL267766  27.633  24.356   6.164
 5337POPC   C1A67767  27.636  24.509   6.464
 5337POPC   D2A67768  27.635  24.533   6.764
 5337POPC   C3A67769  27.583  24.534   7.064
 5337POPC   C4A67770  27.620  24.512   7.364
 5337POPC   C1B67771  27.562  24.276   6.464
 5337POPC   C2B67772  27.597  24.218   6.764
 5337POPC   C3B67773  27.635  24.203   7.064
 5337POPC   C4B67774  27.548  24.211   7.364
 5338POPC   NC367775   4.334  31.434   5.564
 5338POPC   PO467776   4.311  31.494   5.864
 5338POPC   GL167777   4.339  31.446   6.164
 5338POPC   GL267778   4.169  31.489   6.164
 5338POPC   C1A67779   4.356  31.518   6.464
 5338POPC   D2A67780   4.322  31.443   6.764
 5338POPC   C3A67781   4.348  31.476   7.064
 5338POPC   C4A67782   4.303  31.516   7.364
 5338POPC   C1B67783   4.109  31.508   6.464
 5338POPC   C2B67784   4.067  31.501   6.764
 5338POPC   C3B67785   4.103  31.556   7.064
 5338POPC   C4B67786   4.091  31.590   7.364
 5339POPC   NC367787   8.998  19.014   5.564
 5339POPC   PO467788   8.951  19.023   5.864
 5339POPC   GL167789   8.988  19.066   6.164
 5339POPC   GL267790   8.924  19.134   6.164
 5339POPC   C1A67791   8.997  19.027   6.464
 5339POPC   D2A67792   8.947  19.068   6.764
 5339POPC   C3A67793   8.931  19.037   7.064
 5339POPC   C4A67794   8.970  19.016   7.364
 5339POPC   C1B67795   8.911  19.269   6.464
 5339POPC   C2B67796   8.909  19.313   6.764
 5339POPC   C3B67797   8.912  19.271   7.064
 5339POPC   C4B67798   8.871  19.255   7.364
 5340POPC   NC367799  19.864  30.743   5.564
 5340POPC   PO467800  19.839  30.711   5.864
 5340POPC   GL167801  19.856  30.684   6.164
 5340POPC   GL267802  19.794  30.767   6.164
 5340POPC   C1A67803  19.845  30.702   6.464
 5340POPC   D2A67804  19.857  30.722   6.764
 5340POPC   C3A67805  19.830  30.679   7.064
 5340POPC   C4A67806  19.793  30.682   7.364
 5340POPC   C1B67807  19.717  30.904   6.464
 5340POPC   C2B67808  19.640  30.897   6.764
 5340POPC   C3B67809  19.703  30.873   7.064
 5340POPC   C4B67810  19.653  30.917   7.364
 5341POPC   NC367811   8.977  27.631   5.564
 5341POPC   PO467812   9.006  27.568   5.864
 5341POPC   GL167813   8.984  27.642   6.164
 5341POPC   GL267814   9.117  27.716   6.164
 5341POPC   C1A67815   8.926  27.604   6.464
 5341POPC   D2A67816   8.998  27.635   6.764
 5341POPC   C3A67817   8.944  27.551   7.064
 5341POPC   C4A67818   8.989  27.641   7.364
 5341POPC   C1B67819   9.150  27.751   6.464
 5341POPC   C2B67820   9.207  27.757   6.764
 5341POPC   C3B67821   9.130  27.742   7.064
 5341POPC   C4B67822   9.153  27.736   7.364
 5342POPC   NC367823  11.335  39.260   5.564
 5342POPC   PO467824  11.341  39.222   5.864
 5342POPC   GL167825  11.309  39.223   6.164
 5342POPC   GL267826  11.456  39.286   6.164
 5342POPC   C1A67827  11.319  39.254   6.464
 5342POPC   D2A67828  11.308  39.268   6.764
 5342POPC   C3A67829  11.277  39.186   7.064
 5342POPC   C4A67830  11.267  39.266   7.364
 5342POPC   C1B67831  11.522  39.278   6.464
 5342POPC   C2B67832  11.508  39.341   6.764
 5342POPC   C3B67833  11.539  39.323   7.064
 5342POPC   C4B67834  11.549  39.257   7.364
 5343POPC   NC367835  27.547   2.718   5.564
 5343POPC   PO467836  27.547   2.795   5.864
 5343POPC   GL167837  27.595   2.780   6.164
 5343POPC   GL267838  27.642   2.670   6.164
 5343POPC   C1A67839  27.581   2.774   6.464
 5343POPC   D2A67840  27.560   2.783   6.764
 5343POPC   C3A67841  27.586   2.729   7.064
 5343POPC   C4A67842  27.594   2.735   7.364
 5343POPC   C1B67843  27.686   2.535   6.464
 5343POPC   C2B67844  27.718   2.562   6.764
 5343POPC   C3B67845  27.742   2.566   7.064
 5343POPC   C4B67846  27.668   2.544   7.364
 5344POPC   NC367847   9.761  29.961   5.564
 5344POPC   PO467848   9.789  29.882   5.864
 5344POPC   GL167849   9.752  29.873   6.164
 5344POPC   GL267850   9.646  30.026   6.164
 5344POPC   C1A67851   9.738  29.885   6.464
 5344POPC   D2A67852   9.726  29.911   6.764
 5344POPC   C3A67853   9.752  29.928   7.064
 5344POPC   C4A67854   9.782  29.933   7.364
 5344POPC   C1B67855   9.518  30.096   6.464
 5344POPC   C2B67856   9.543  30.104   6.764
 5344POPC   C3B67857   9.528  30.033   7.064
 5344POPC   C4B67858   9.585  30.119   7.364
 5345POPC   NC367859  19.047  24.496   5.564
 5345POPC   PO467860  19.017  24.520   5.864
 5345POPC   GL167861  19.042  24.494   6.164
 5345POPC   GL267862  18.990  24.348   6.164
 5345POPC   C1A67863  19.085  24.501   6.464
 5345POPC   D2A67864  19.028  24.494   6.764
 5345POPC   C3A67865  19.092  24.441   7.064
 5345POPC   C4A67866  19.062  24.488   7.364
 5345POPC   C1B67867  19.015  24.228   6.464
 5345POPC   C2B67868  19.023  24.258   6.764
 5345POPC   C3B67869  18.999  24.220   7.064
 5345POPC   C4B67870  19.032  24.230   7.364
 5346POPC   NC367871  35.305  44.669   5.564
 5346POPC   PO467872  35.322  44.666   5.864
 5346POPC   GL167873  35.335  44.701   6.164
 5346POPC   GL267874  35.490  44.653   6.164
 5346POPC   C1A67875  35.322  44.649   6.464
 5346POPC   D2A67876  35.353  44.633   6.764
 5346POPC   C3A67877  35.399  44.711   7.064
 5346POPC   C4A67878  35.381  44.689   7.364
 5346POPC   C1B67879  35.538  44.705   6.464
 5346POPC   C2B67880  35.629  44.716   6.764
 5346POPC   C3B67881  35.550  44.726   7.064
 5346POPC   C4B67882  35.560  44.712   7.364
 5347POPC   NC367883  19.068   3.515   5.564
 5347POPC   PO467884  19.099   3.580   5.864
 5347POPC   GL167885  19.039   3.583   6.164
 5347POPC   GL267886  19.112   3.611   6.164
 5347POPC   C1A67887  19.094   3.551   6.464
 5347POPC   D2A67888  19.031   3.506   6.764
 5347POPC   C3A67889  19.064   3.502   7.064
 5347POPC   C4A67890  19.107   3.537   7.364
 5347POPC   C1B67891  19.236   3.746   6.464
 5347POPC   C2B67892  19.217   3.776   6.764
 5347POPC   C3B67893  19.217   3.759   7.064
 5347POPC   C4B67894  19.228   3.738   7.364
 5348POPC   NC367895  40.762   1.205   5.564
 5348POPC   PO467896  40.792   1.239   5.864
 5348POPC   GL167897  40.830   1.169   6.164
 5348POPC   GL267898  40.627   1.280   6.164
 5348POPC   C1A67899  40.790   1.224   6.464
 5348POPC   D2A67900  40.808   1.218   6.764
 5348POPC   C3A67901  40.741   1.206   7.064
 5348POPC   C4A67902  40.749   1.259   7.364
 5348POPC   C1B67903  40.572   1.288   6.464
 5348POPC   C2B67904  40.533   1.198   6.764
 5348POPC   C3B67905  40.536   1.293   7.064
 5348POPC   C4B67906  40.509   1.199   7.364
 5349POPC   NC367907  26.025  30.686   5.564
 5349POPC   PO467908  25.996  30.741   5.864
 5349POPC   GL167909  26.071  30.743   6.164
 5349POPC   GL267910  26.014  30.614   6.164
 5349POPC   C1A67911  26.010  30.723   6.464
 5349POPC   D2A67912  26.062  30.674   6.764
 5349POPC   C3A67913  26.018  30.685   7.064
 5349POPC   C4A67914  26.046  30.693   7.364
 5349POPC   C1B67915  25.959  30.487   6.464
 5349POPC   C2B67916  26.015  30.490   6.764
 5349POPC   C3B67917  26.031  30.478   7.064
 5349POPC   C4B67918  26.009  30.468   7.364
 5350POPC   NC367919  35.345  43.925   5.564
 5350POPC   PO467920  35.331  43.903   5.864
 5350POPC   GL167921  35.360  43.866   6.164
 5350POPC   GL267922  35.417  43.953   6.164
 5350POPC   C1A67923  35.400  43.893   6.464
 5350POPC   D2A67924  35.313  43.934   6.764
 5350POPC   C3A67925  35.368  43.844   7.064
 5350POPC   C4A67926  35.349  43.913   7.364
 5350POPC   C1B67927  35.521  44.007   6.464
 5350POPC   C2B67928  35.607  44.049   6.764
 5350POPC   C3B67929  35.540  44.014   7.064
 5350POPC   C4B67930  35.519  44.040   7.364
 5351POPC   NC367931   8.167  25.268   5.564
 5351POPC   PO467932   8.154  25.237   5.864
 5351POPC   GL167933   8.214  25.237   6.164
 5351POPC   GL267934   8.134  25.363   6.164
 5351POPC   C1A67935   8.175  25.278   6.464
 5351POPC   D2A67936   8.150  25.291   6.764
 5351POPC   C3A67937   8.148  25.271   7.064
 5351POPC   C4A67938   8.235  25.290   7.364
 5351POPC   C1B67939   7.962  25.437   6.464
 5351POPC   C2B67940   8.006  25.404   6.764
 5351POPC   C3B67941   8.015  25.389   7.064
 5351POPC   C4B67942   8.037  25.375   7.364
 5352POPC   NC367943   5.838  10.565   5.564
 5352POPC   PO467944   5.890  10.487   5.864
 5352POPC   GL167945   5.829  10.507   6.164
 5352POPC   GL267946   5.733  10.565   6.164
 5352POPC   C1A67947   5.909  10.489   6.464
 5352POPC   D2A67948   5.861  10.566   6.764
 5352POPC   C3A67949   5.895  10.524   7.064
 5352POPC   C4A67950   5.871  10.515   7.364
 5352POPC   C1B67951   5.691  10.629   6.464
 5352POPC   C2B67952   5.623  10.638   6.764
 5352POPC   C3B67953   5.604  10.698   7.064
 5352POPC   C4B67954   5.645  10.662   7.364
 5353POPC   NC367955  32.990  40.806   5.564
 5353POPC   PO467956  33.057  40.739   5.864
 5353POPC   GL167957  33.007  40.803   6.164
 5353POPC   GL267958  32.976  40.882   6.164
 5353POPC   C1A67959  33.064  40.753   6.464
 5353POPC   D2A67960  33.030  40.748   6.764
 5353POPC   C3A67961  33.027  40.784   7.064
 5353POPC   C4A67962  33.047  40.825   7.364
 5353POPC   C1B67963  32.868  40.979   6.464
 5353POPC   C2B67964  32.865  40.967   6.764
 5353POPC   C3B67965  32.873  40.993   7.064
 5353POPC   C4B67966  32.910  40.988   7.364
 5354POPC   NC367967  44.656  43.142   5.564
 5354POPC   PO467968  44.705  43.111   5.864
 5354POPC   GL167969  44.614  43.130   6.164
 5354POPC   GL267970  44.725  43.230   6.164
 5354POPC   C1A67971  44.673  43.118   6.464
 5354POPC   D2A67972  44.691  43.105   6.764
 5354POPC   C3A67973  44.650  43.086   7.064
 5354POPC   C4A67974  44.629  43.136   7.364
 5354POPC   C1B67975  44.830  43.334   6.464
 5354POPC   C2B67976  44.838  43.282   6.764
 5354POPC   C3B67977  44.847  43.322   7.064
 5354POPC   C4B67978  44.779  43.303   7.364
 5355POPC   NC367979   2.790  42.306   5.564
 5355POPC   PO467980   2.786  42.334   5.864
 5355POPC   GL167981   2.729  42.304   6.164
 5355POPC   GL267982   2.855  42.361   6.164
 5355POPC   C1A67983   2.786  42.344   6.464
 5355POPC   D2A67984   2.761  42.374   6.764
 5355POPC   C3A67985   2.752  42.349   7.064
 5355POPC   C4A67986   2.788  42.323   7.364
 5355POPC   C1B67987   3.001  42.356   6.464
 5355POPC   C2B67988   3.063  42.348   6.764
 5355POPC   C3B67989   2.974  42.300   7.064
 5355POPC   C4B67990   2.986  42.303   7.364
 5356POPC   NC367991  23.758  26.857   5.564
 5356POPC   PO467992  23.690  26.772   5.864
 5356POPC   GL167993  23.666  26.854   6.164
 5356POPC   GL267994  23.570  26.891   6.164
 5356POPC   C1A67995  23.709  26.777   6.464
 5356POPC   D2A67996  23.699  26.775   6.764
 5356POPC   C3A67997  23.715  26.837   7.064
 5356POPC   C4A67998  23.753  26.801   7.364
 5356POPC   C1B67999  23.519  26.892   6.464
 5356POPC   C2B68000  23.446  26.837   6.764
 5356POPC   C3B68001  23.480  26.886   7.064
 5356POPC   C4B68002  23.507  26.865   7.364
 5357POPC   NC368003   9.771  23.761   5.564
 5357POPC   PO468004   9.776  23.688   5.864
 5357POPC   GL168005   9.714  23.669   6.164
 5357POPC   GL268006   9.877  23.666   6.164
 5357POPC   C1A68007   9.731  23.745   6.464
 5357POPC   D2A68008   9.734  23.700   6.764
 5357POPC   C3A68009   9.787  23.737   7.064
 5357POPC   C4A68010   9.750  23.682   7.364
 5357POPC   C1B68011   9.997  23.573   6.464
 5357POPC   C2B68012   9.959  23.615   6.764
 5357POPC   C3B68013  10.022  23.589   7.064
 5357POPC   C4B68014   9.946  23.618   7.364
 5358POPC   NC368015  11.330  28.381   5.564
 5358POPC   PO468016  11.296  28.345   5.864
 5358POPC   GL168017  11.296  28.331   6.164
 5358POPC   GL268018  11.215  28.270   6.164
 5358POPC   C1A68019  11.326  28.404   6.464
 5358POPC   D2A68020  11.275  28.376   6.764
 5358POPC   C3A68021  11.296  28.414   7.064
 5358POPC   C4A68022  11.275  28.378   7.364
 5358POPC   C1B68023  11.112  28.254   6.464
 5358POPC   C2B68024  11.070  28.263   6.764
 5358POPC   C3B68025  11.089  28.232   7.064
 5358POPC   C4B68026  11.057  28.192   7.364
 5359POPC   NC368027   4.269  16.767   5.564
 5359POPC   PO468028   4.317  16.772   5.864
 5359POPC   GL168029   4.272  16.697   6.164
 5359POPC   GL268030   4.446  16.742   6.164
 5359POPC   C1A68031   4.290  16.699   6.464
 5359POPC   D2A68032   4.343  16.719   6.764
 5359POPC   C3A68033   4.317  16.742   7.064
 5359POPC   C4A68034   4.312  16.727   7.364
 5359POPC   C1B68035   4.498  16.827   6.464
 5359POPC   C2B68036   4.514  16.797   6.764
 5359POPC   C3B68037   4.583  16.848   7.064
 5359POPC   C4B68038   4.578  16.873   7.364
 5360POPC   NC368039  21.350  34.578   5.564
 5360POPC   PO468040  21.418  34.542   5.864
 5360POPC   GL168041  21.436  34.616   6.164
 5360POPC   GL268042  21.262  34.456   6.164
 5360POPC   C1A68043  21.347  34.531   6.464
 5360POPC   D2A68044  21.431  34.595   6.764
 5360POPC   C3A68045  21.433  34.530   7.064
 5360POPC   C4A68046  21.427  34.571   7.364
 5360POPC   C1B68047  21.215  34.372   6.464
 5360POPC   C2B68048  21.235  34.404   6.764
 5360POPC   C3B68049  21.239  34.418   7.064
 5360POPC   C4B68050  21.243  34.448   7.364
 5361POPC   NC368051  35.341  39.983   5.564
 5361POPC   PO468052  35.363  39.985   5.864
 5361POPC   GL168053  35.345  39.968   6.164
 5361POPC   GL268054  35.301  39.858   6.164
 5361POPC   C1A68055  35.313  39.994   6.464
 5361POPC   D2A68056  35.312  40.006   6.764
 5361POPC   C3A68057  35.315  39.963   7.064
 5361POPC   C4A68058  35.394  40.039   7.364
 5361POPC   C1B68059  35.362  39.782   6.464
 5361POPC   C2B68060  35.328  39.738   6.764
 5361POPC   C3B68061  35.313  39.744   7.064
 5361POPC   C4B68062  35.328  39.769   7.364
 5362POPC   NC368063   4.312   8.940   5.564
 5362POPC   PO468064   4.270   9.012   5.864
 5362POPC   GL168065   4.312   8.959   6.164
 5362POPC   GL268066   4.312   9.130   6.164
 5362POPC   C1A68067   4.278   9.020   6.464
 5362POPC   D2A68068   4.275   8.965   6.764
 5362POPC   C3A68069   4.347   9.015   7.064
 5362POPC   C4A68070   4.318   8.951   7.364
 5362POPC   C1B68071   4.346   9.187   6.464
 5362POPC   C2B68072   4.325   9.227   6.764
 5362POPC   C3B68073   4.379   9.225   7.064
 5362POPC   C4B68074   4.370   9.259   7.364
 5363POPC   NC368075  15.973  16.732   5.564
 5363POPC   PO468076  15.980  16.757   5.864
 5363POPC   GL168077  15.987  16.684   6.164
 5363POPC   GL268078  15.948  16.857   6.164
 5363POPC   C1A68079  15.992  16.688   6.464
 5363POPC   D2A68080  15.983  16.709   6.764
 5363POPC   C3A68081  15.917  16.699   7.064
 5363POPC   C4A68082  15.932  16.692   7.364
 5363POPC   C1B68083  15.983  16.941   6.464
 5363POPC   C2B68084  15.946  16.999   6.764
 5363POPC   C3B68085  15.937  16.979   7.064
 5363POPC   C4B68086  15.946  16.976   7.364
 5364POPC   NC368087  26.843  29.133   5.564
 5364POPC   PO468088  26.847  29.183   5.864
 5364POPC   GL168089  26.788  29.153   6.164
 5364POPC   GL268090  26.832  29.017   6.164
 5364POPC   C1A68091  26.781  29.188   6.464
 5364POPC   D2A68092  26.787  29.142   6.764
 5364POPC   C3A68093  26.866  29.174   7.064
 5364POPC   C4A68094  26.789  29.141   7.364
 5364POPC   C1B68095  26.916  28.909   6.464
 5364POPC   C2B68096  26.962  28.904   6.764
 5364POPC   C3B68097  26.898  28.966   7.064
 5364POPC   C4B68098  26.899  28.959   7.364
 5365POPC   NC368099   1.951  12.028   5.564
 5365POPC   PO468100   1.972  12.115   5.864
 5365POPC   GL168101   2.036  12.089   6.164
 5365POPC   GL268102   1.992  11.975   6.164
 5365POPC   C1A68103   2.025  12.076   6.464
 5365POPC   D2A68104   1.984  12.061   6.764
 5365POPC   C3A68105   1.985  12.120   7.064
 5365POPC   C4A68106   1.986  12.066   7.364
 5365POPC   C1B68107   1.990  11.833   6.464
 5365POPC   C2B68108   2.053  11.876   6.764
 5365POPC   C3B68109   1.983  11.879   7.064
 5365POPC   C4B68110   2.005  11.792   7.364
 5366POPC   NC368111  26.089  29.183   5.564
 5366POPC   PO468112  26.005  29.114   5.864
 5366POPC   GL168113  26.007  29.116   6.164
 5366POPC   GL268114  25.912  29.101   6.164
 5366POPC   C1A68115  26.061  29.168   6.464
 5366POPC   D2A68116  26.026  29.162   6.764
 5366POPC   C3A68117  26.073  29.136   7.064
 5366POPC   C4A68118  26.030  29.186   7.364
 5366POPC   C1B68119  25.801  29.100   6.464
 5366POPC   C2B68120  25.830  29.051   6.764
 5366POPC   C3B68121  25.797  29.101   7.064
 5366POPC   C4B68122  25.790  29.015   7.364
 5367POPC   NC368123  13.617  39.239   5.564
 5367POPC   PO468124  13.634  39.260   5.864
 5367POPC   GL168125  13.591  39.194   6.164
 5367POPC   GL268126  13.585  39.127   6.164
 5367POPC   C1A68127  13.676  39.244   6.464
 5367POPC   D2A68128  13.587  39.212   6.764
 5367POPC   C3A68129  13.594  39.232   7.064
 5367POPC   C4A68130  13.663  39.275   7.364
 5367POPC   C1B68131  13.653  39.018   6.464
 5367POPC   C2B68132  13.610  39.026   6.764
 5367POPC   C3B68133  13.593  38.948   7.064
 5367POPC   C4B68134  13.625  38.946   7.364
 5368POPC   NC368135   2.750  33.779   5.564
 5368POPC   PO468136   2.767  33.847   5.864
 5368POPC   GL168137   2.740  33.814   6.164
 5368POPC   GL268138   2.698  33.726   6.164
 5368POPC   C1A68139   2.744  33.751   6.464
 5368POPC   D2A68140   2.754  33.842   6.764
 5368POPC   C3A68141   2.764  33.828   7.064
 5368POPC   C4A68142   2.762  33.766   7.364
 5368POPC   C1B68143   2.664  33.545   6.464
 5368POPC   C2B68144   2.654  33.613   6.764
 5368POPC   C3B68145   2.575  33.553   7.064
 5368POPC   C4B68146   2.585  33.608   7.364
 5369POPC   NC368147  37.701  28.369   5.564
 5369POPC   PO468148  37.708  28.388   5.864
 5369POPC   GL168149  37.640  28.372   6.164
 5369POPC   GL268150  37.779  28.367   6.164
 5369POPC   C1A68151  37.652  28.321   6.464
 5369POPC   D2A68152  37.696  28.350   6.764
 5369POPC   C3A68153  37.706  28.409   7.064
 5369POPC   C4A68154  37.708  28.386   7.364
 5369POPC   C1B68155  37.892  28.458   6.464
 5369POPC   C2B68156  37.916  28.467   6.764
 5369POPC   C3B68157  37.919  28.383   7.064
 5369POPC   C4B68158  37.898  28.400   7.364
 5370POPC   NC368159   4.358   7.468   5.564
 5370POPC   PO468160   4.324   7.453   5.864
 5370POPC   GL168161   4.318   7.429   6.164
 5370POPC   GL268162   4.222   7.303   6.164
 5370POPC   C1A68163   4.324   7.447   6.464
 5370POPC   D2A68164   4.300   7.427   6.764
 5370POPC   C3A68165   4.346   7.441   7.064
 5370POPC   C4A68166   4.303   7.400   7.364
 5370POPC   C1B68167   4.179   7.259   6.464
 5370POPC   C2B68168   4.189   7.257   6.764
 5370POPC   C3B68169   4.136   7.198   7.064
 5370POPC   C4B68170   4.173   7.250   7.364
 5371POPC   NC368171  23.756   1.972   5.564
 5371POPC   PO468172  23.723   1.996   5.864
 5371POPC   GL168173  23.724   1.962   6.164
 5371POPC   GL268174  23.617   2.035   6.164
 5371POPC   C1A68175  23.737   2.029   6.464
 5371POPC   D2A68176  23.692   2.032   6.764
 5371POPC   C3A68177  23.706   1.941   7.064
 5371POPC   C4A68178  23.702   1.962   7.364
 5371POPC   C1B68179  23.562   2.163   6.464
 5371POPC   C2B68180  23.484   2.166   6.764
 5371POPC   C3B68181  23.564   2.190   7.064
 5371POPC   C4B68182  23.516   2.113   7.364
 5372POPC   NC368183  25.292  22.204   5.564
 5372POPC   PO468184  25.249  22.162   5.864
 5372POPC   GL168185  25.234  22.178   6.164
 5372POPC   GL268186  25.143  22.156   6.164
 5372POPC   C1A68187  25.251  22.138   6.464
 5372POPC   D2A68188  25.250  22.143   6.764
 5372POPC   C3A68189  25.224  22.134   7.064
 5372POPC   C4A68190  25.245  22.130   7.364
 5372POPC   C1B68191  24.998  22.158   6.464
 5372POPC   C2B68192  25.054  22.111   6.764
 5372POPC   C3B68193  25.062  22.110   7.064
 5372POPC   C4B68194  24.983  22.156   7.364
 5373POPC   NC368195  29.173  43.130   5.564
 5373POPC   PO468196  29.122  43.104   5.864
 5373POPC   GL168197  29.133  43.143   6.164
 5373POPC   GL268198  29.151  43.040   6.164
 5373POPC   C1A68199  29.125  43.115   6.464
 5373POPC   D2A68200  29.128  43.124   6.764
 5373POPC   C3A68201  29.157  43.081   7.064
 5373POPC   C4A68202  29.178  43.136   7.364
 5373POPC   C1B68203  29.192  42.864   6.464
 5373POPC   C2B68204  29.192  42.904   6.764
 5373POPC   C3B68205  29.180  42.827   7.064
 5373POPC   C4B68206  29.248  42.907   7.364
 5374POPC   NC368207  37.703  22.158   5.564
 5374POPC   PO468208  37.672  22.169   5.864
 5374POPC   GL168209  37.647  22.122   6.164
 5374POPC   GL268210  37.809  22.263   6.164
 5374POPC   C1A68211  37.693  22.126   6.464
 5374POPC   D2A68212  37.728  22.195   6.764
 5374POPC   C3A68213  37.728  22.201   7.064
 5374POPC   C4A68214  37.633  22.133   7.364
 5374POPC   C1B68215  37.918  22.280   6.464
 5374POPC   C2B68216  37.934  22.266   6.764
 5374POPC   C3B68217  37.871  22.337   7.064
 5374POPC   C4B68218  37.847  22.306   7.364
 5375POPC   NC368219  30.668  36.079   5.564
 5375POPC   PO468220  30.744  36.138   5.864
 5375POPC   GL168221  30.658  36.144   6.164
 5375POPC   GL268222  30.735  36.224   6.164
 5375POPC   C1A68223  30.703  36.084   6.464
 5375POPC   D2A68224  30.668  36.135   6.764
 5375POPC   C3A68225  30.674  36.134   7.064
 5375POPC   C4A68226  30.661  36.154   7.364
 5375POPC   C1B68227  30.815  36.388   6.464
 5375POPC   C2B68228  30.764  36.349   6.764
 5375POPC   C3B68229  30.816  36.389   7.064
 5375POPC   C4B68230  30.798  36.395   7.364
 5376POPC   NC368231  12.094  11.349   5.564
 5376POPC   PO468232  12.030  11.282   5.864
 5376POPC   GL168233  12.113  11.277   6.164
 5376POPC   GL268234  12.149  11.233   6.164
 5376POPC   C1A68235  12.107  11.271   6.464
 5376POPC   D2A68236  12.030  11.256   6.764
 5376POPC   C3A68237  12.092  11.268   7.064
 5376POPC   C4A68238  12.084  11.346   7.364
 5376POPC   C1B68239  12.331  11.236   6.464
 5376POPC   C2B68240  12.342  11.215   6.764
 5376POPC   C3B68241  12.294  11.205   7.064
 5376POPC   C4B68242  12.310  11.217   7.364
 5377POPC   NC368243  27.589  36.128   5.564
 5377POPC   PO468244  27.569  36.083   5.864
 5377POPC   GL168245  27.618  36.174   6.164
 5377POPC   GL268246  27.705  36.198   6.164
 5377POPC   C1A68247  27.640  36.082   6.464
 5377POPC   D2A68248  27.560  36.115   6.764
 5377POPC   C3A68249  27.563  36.085   7.064
 5377POPC   C4A68250  27.593  36.132   7.364
 5377POPC   C1B68251  27.838  36.207   6.464
 5377POPC   C2B68252  27.820  36.220   6.764
 5377POPC   C3B68253  27.804  36.208   7.064
 5377POPC   C4B68254  27.824  36.256   7.364
 5378POPC   NC368255  11.276   8.923   5.564
 5378POPC   PO468256  11.279   9.002   5.864
 5378POPC   GL168257  11.305   8.935   6.164
 5378POPC   GL268258  11.460   8.993   6.164
 5378POPC   C1A68259  11.289   8.965   6.464
 5378POPC   D2A68260  11.265   9.006   6.764
 5378POPC   C3A68261  11.280   8.977   7.064
 5378POPC   C4A68262  11.316   8.984   7.364
 5378POPC   C1B68263  11.527   8.940   6.464
 5378POPC   C2B68264  11.531   8.908   6.764
 5378POPC   C3B68265  11.532   8.947   7.064
 5378POPC   C4B68266  11.595   8.984   7.364
 5379POPC   NC368267  33.809  39.963   5.564
 5379POPC   PO468268  33.792  40.041   5.864
 5379POPC   GL168269  33.812  40.048   6.164
 5379POPC   GL268270  33.855  39.930   6.164
 5379POPC   C1A68271  33.823  39.987   6.464
 5379POPC   D2A68272  33.782  39.959   6.764
 5379POPC   C3A68273  33.805  40.047   7.064
 5379POPC   C4A68274  33.827  40.010   7.364
 5379POPC   C1B68275  33.967  39.827   6.464
 5379POPC   C2B68276  33.997  39.839   6.764
 5379POPC   C3B68277  34.032  39.837   7.064
 5379POPC   C4B68278  34.030  39.886   7.364
 5380POPC   NC368279  29.916   2.005   5.564
 5380POPC   PO468280  29.959   2.001   5.864
 5380POPC   GL168281  29.913   2.036   6.164
 5380POPC   GL268282  29.781   1.940   6.164
 5380POPC   C1A68283  29.943   2.029   6.464
 5380POPC   D2A68284  29.916   1.953   6.764
 5380POPC   C3A68285  29.950   1.949   7.064
 5380POPC   C4A68286  29.951   2.029   7.364
 5380POPC   C1B68287  29.682   1.907   6.464
 5380POPC   C2B68288  29.679   1.927   6.764
 5380POPC   C3B68289  29.677   1.894   7.064
 5380POPC   C4B68290  29.639   1.944   7.364
 5381POPC   NC368291   1.951  23.724   5.564
 5381POPC   PO468292   2.010  23.740   5.864
 5381POPC   GL168293   1.994  23.668   6.164
 5381POPC   GL268294   1.893  23.753   6.164
 5381POPC   C1A68295   1.986  23.671   6.464
 5381POPC   D2A68296   1.970  23.711   6.764
 5381POPC   C3A68297   2.021  23.735   7.064
 5381POPC   C4A68298   1.971  23.669   7.364
 5381POPC   C1B68299   1.780  23.783   6.464
 5381POPC   C2B68300   1.768  23.765   6.764
 5381POPC   C3B68301   1.739  23.738   7.064
 5381POPC   C4B68302   1.737  23.778   7.364
 5382POPC   NC368303  38.503   2.722   5.564
 5382POPC   PO468304  38.494   2.753   5.864
 5382POPC   GL168305  38.497   2.722   6.164
 5382POPC   GL268306  38.531   2.760   6.164
 5382POPC   C1A68307  38.484   2.768   6.464
 5382POPC   D2A68308  38.426   2.791   6.764
 5382POPC   C3A68309  38.491   2.802   7.064
 5382POPC   C4A68310  38.443   2.736   7.364
 5382POPC   C1B68311  38.658   2.727   6.464
 5382POPC   C2B68312  38.663   2.703   6.764
 5382POPC   C3B68313  38.688   2.755   7.064
 5382POPC   C4B68314  38.659   2.749   7.364
 5383POPC   NC368315  35.360  15.167   5.564
 5383POPC   PO468316  35.320  15.194   5.864
 5383POPC   GL168317  35.375  15.209   6.164
 5383POPC   GL268318  35.439  15.234   6.164
 5383POPC   C1A68319  35.362  15.142   6.464
 5383POPC   D2A68320  35.371  15.168   6.764
 5383POPC   C3A68321  35.371  15.202   7.064
 5383POPC   C4A68322  35.401  15.148   7.364
 5383POPC   C1B68323  35.558  15.272   6.464
 5383POPC   C2B68324  35.569  15.196   6.764
 5383POPC   C3B68325  35.630  15.225   7.064
 5383POPC   C4B68326  35.607  15.287   7.364
 5384POPC   NC368327  14.387  43.876   5.564
 5384POPC   PO468328  14.412  43.857   5.864
 5384POPC   GL168329  14.360  43.852   6.164
 5384POPC   GL268330  14.481  43.746   6.164
 5384POPC   C1A68331  14.357  43.934   6.464
 5384POPC   D2A68332  14.446  43.852   6.764
 5384POPC   C3A68333  14.412  43.855   7.064
 5384POPC   C4A68334  14.438  43.907   7.364
 5384POPC   C1B68335  14.595  43.663   6.464
 5384POPC   C2B68336  14.574  43.733   6.764
 5384POPC   C3B68337  14.608  43.699   7.064
 5384POPC   C4B68338  14.597  43.667   7.364
 5385POPC   NC368339   6.686  37.686   5.564
 5385POPC   PO468340   6.595  37.716   5.864
 5385POPC   GL168341   6.644  37.703   6.164
 5385POPC   GL268342   6.588  37.536   6.164
 5385POPC   C1A68343   6.616  37.638   6.464
 5385POPC   D2A68344   6.661  37.678   6.764
 5385POPC   C3A68345   6.616  37.668   7.064
 5385POPC   C4A68346   6.651  37.729   7.364
 5385POPC   C1B68347   6.548  37.487   6.464
 5385POPC   C2B68348   6.532  37.477   6.764
 5385POPC   C3B68349   6.528  37.482   7.064
 5385POPC   C4B68350   6.499  37.499   7.364
 5386POPC   NC368351  39.990   1.993   5.564
 5386POPC   PO468352  40.055   1.950   5.864
 5386POPC   GL168353  39.992   2.015   6.164
 5386POPC   GL268354  40.091   2.069   6.164
 5386POPC   C1A68355  40.010   1.980   6.464
 5386POPC   D2A68356  40.030   2.015   6.764
 5386POPC   C3A68357  39.981   2.005   7.064
 5386POPC   C4A68358  39.974   1.958   7.364
 5386POPC   C1B68359  40.152   2.251   6.464
 5386POPC   C2B68360  40.126   2.177   6.764
 5386POPC   C3B68361  40.145   2.197   7.064
 5386POPC   C4B68362  40.166   2.159   7.364
 5387POPC   NC368363  32.998  37.669   5.564
 5387POPC   PO468364  33.048  37.694   5.864
 5387POPC   GL168365  33.020  37.685   6.164
 5387POPC   GL268366  32.883  37.746   6.164
 5387POPC   C1A68367  33.033  37.717   6.464
 5387POPC   D2A68368  33.061  37.697   6.764
 5387POPC   C3A68369  33.070  37.713   7.064
 5387POPC   C4A68370  33.025  37.715   7.364
 5387POPC   C1B68371  32.864  37.865   6.464
 5387POPC   C2B68372  32.858  37.830   6.764
 5387POPC   C3B68373  32.867  37.880   7.064
 5387POPC   C4B68374  32.881  37.822   7.364
 5388POPC   NC368375  21.390  22.926   5.564
 5388POPC   PO468376  21.393  22.902   5.864
 5388POPC   GL168377  21.351  22.940   6.164
 5388POPC   GL268378  21.318  22.801   6.164
 5388POPC   C1A68379  21.433  22.946   6.464
 5388POPC   D2A68380  21.409  22.985   6.764
 5388POPC   C3A68381  21.370  22.937   7.064
 5388POPC   C4A68382  21.431  22.985   7.364
 5388POPC   C1B68383  21.333  22.659   6.464
 5388POPC   C2B68384  21.300  22.671   6.764
 5388POPC   C3B68385  21.295  22.680   7.064
 5388POPC   C4B68386  21.321  22.728   7.364
 5389POPC   NC368387   3.521  15.968   5.564
 5389POPC   PO468388   3.503  15.984   5.864
 5389POPC   GL168389   3.547  15.906   6.164
 5389POPC   GL268390   3.473  15.874   6.164
 5389POPC   C1A68391   3.578  15.978   6.464
 5389POPC   D2A68392   3.590  15.941   6.764
 5389POPC   C3A68393   3.499  16.005   7.064
 5389POPC   C4A68394   3.542  15.990   7.364
 5389POPC   C1B68395   3.527  15.673   6.464
 5389POPC   C2B68396   3.511  15.753   6.764
 5389POPC   C3B68397   3.510  15.672   7.064
 5389POPC   C4B68398   3.516  15.661   7.364
 5390POPC   NC368399   5.860  15.911   5.564
 5390POPC   PO468400   5.877  15.946   5.864
 5390POPC   GL168401   5.864  15.938   6.164
 5390POPC   GL268402   5.971  15.917   6.164
 5390POPC   C1A68403   5.827  16.000   6.464
 5390POPC   D2A68404   5.892  15.945   6.764
 5390POPC   C3A68405   5.823  15.955   7.064
 5390POPC   C4A68406   5.913  15.983   7.364
 5390POPC   C1B68407   6.130  15.927   6.464
 5390POPC   C2B68408   6.160  15.861   6.764
 5390POPC   C3B68409   6.086  15.892   7.064
 5390POPC   C4B68410   6.091  15.847   7.364
 5391POPC   NC368411   9.710   7.415   5.564
 5391POPC   PO468412   9.775   7.382   5.864
 5391POPC   GL168413   9.782   7.416   6.164
 5391POPC   GL268414   9.660   7.377   6.164
 5391POPC   C1A68415   9.762   7.381   6.464
 5391POPC   D2A68416   9.795   7.427   6.764
 5391POPC   C3A68417   9.710   7.399   7.064
 5391POPC   C4A68418   9.722   7.461   7.364
 5391POPC   C1B68419   9.504   7.406   6.464
 5391POPC   C2B68420   9.451   7.392   6.764
 5391POPC   C3B68421   9.481   7.468   7.064
 5391POPC   C4B68422   9.541   7.443   7.364
 5392POPC   NC368423  15.141  38.469   5.564
 5392POPC   PO468424  15.170  38.496   5.864
 5392POPC   GL168425  15.145  38.447   6.164
 5392POPC   GL268426  15.344  38.470   6.164
 5392POPC   C1A68427  15.133  38.484   6.464
 5392POPC   D2A68428  15.199  38.473   6.764
 5392POPC   C3A68429  15.224  38.454   7.064
 5392POPC   C4A68430  15.132  38.498   7.364
 5392POPC   C1B68431  15.461  38.555   6.464
 5392POPC   C2B68432  15.416  38.522   6.764
 5392POPC   C3B68433  15.412  38.535   7.064
 5392POPC   C4B68434  15.375  38.489   7.364
 5393POPC   NC368435   3.546  19.799   5.564
 5393POPC   PO468436   3.506  19.817   5.864
 5393POPC   GL168437   3.527  19.884   6.164
 5393POPC   GL268438   3.512  19.766   6.164
 5393POPC   C1A68439   3.574  19.848   6.464
 5393POPC   D2A68440   3.541  19.829   6.764
 5393POPC   C3A68441   3.552  19.847   7.064
 5393POPC   C4A68442   3.496  19.861   7.364
 5393POPC   C1B68443   3.457  19.651   6.464
 5393POPC   C2B68444   3.387  19.597   6.764
 5393POPC   C3B68445   3.418  19.579   7.064
 5393POPC   C4B68446   3.445  19.579   7.364
 5394POPC   NC368447   8.149   9.791   5.564
 5394POPC   PO468448   8.150   9.735   5.864
 5394POPC   GL168449   8.215   9.738   6.164
 5394POPC   GL268450   8.287   9.796   6.164
 5394POPC   C1A68451   8.217   9.790   6.464
 5394POPC   D2A68452   8.176   9.793   6.764
 5394POPC   C3A68453   8.220   9.789   7.064
 5394POPC   C4A68454   8.189   9.777   7.364
 5394POPC   C1B68455   8.309   9.931   6.464
 5394POPC   C2B68456   8.345   9.914   6.764
 5394POPC   C3B68457   8.354   9.919   7.064
 5394POPC   C4B68458   8.405   9.962   7.364
 5395POPC   NC368459  19.804  20.590   5.564
 5395POPC   PO468460  19.871  20.616   5.864
 5395POPC   GL168461  19.824  20.569   6.164
 5395POPC   GL268462  19.709  20.588   6.164
 5395POPC   C1A68463  19.853  20.578   6.464
 5395POPC   D2A68464  19.873  20.653   6.764
 5395POPC   C3A68465  19.861  20.655   7.064
 5395POPC   C4A68466  19.804  20.652   7.364
 5395POPC   C1B68467  19.599  20.679   6.464
 5395POPC   C2B68468  19.572  20.623   6.764
 5395POPC   C3B68469  19.625  20.591   7.064
 5395POPC   C4B68470  19.631  20.634   7.364
 5396POPC   NC368471  33.768  16.710   5.564
 5396POPC   PO468472  33.804  16.770   5.864
 5396POPC   GL168473  33.781  16.756   6.164
 5396POPC   GL268474  33.869  16.584   6.164
 5396POPC   C1A68475  33.840  16.687   6.464
 5396POPC   D2A68476  33.753  16.768   6.764
 5396POPC   C3A68477  33.755  16.728   7.064
 5396POPC   C4A68478  33.835  16.691   7.364
 5396POPC   C1B68479  33.877  16.524   6.464
 5396POPC   C2B68480  33.879  16.523   6.764
 5396POPC   C3B68481  33.827  16.507   7.064
 5396POPC   C4B68482  33.850  16.491   7.364
 5397POPC   NC368483  27.592  19.047   5.564
 5397POPC   PO468484  27.549  19.020   5.864
 5397POPC   GL168485  27.604  19.019   6.164
 5397POPC   GL268486  27.641  19.170   6.164
 5397POPC   C1A68487  27.620  19.016   6.464
 5397POPC   D2A68488  27.564  19.093   6.764
 5397POPC   C3A68489  27.598  19.101   7.064
 5397POPC   C4A68490  27.590  19.039   7.364
 5397POPC   C1B68491  27.669  19.303   6.464
 5397POPC   C2B68492  27.654  19.316   6.764
 5397POPC   C3B68493  27.651  19.252   7.064
 5397POPC   C4B68494  27.715  19.282   7.364
 5398POPC   NC368495  16.760  35.329   5.564
 5398POPC   PO468496  16.718  35.323   5.864
 5398POPC   GL168497  16.691  35.332   6.164
 5398POPC   GL268498  16.602  35.416   6.164
 5398POPC   C1A68499  16.731  35.330   6.464
 5398POPC   D2A68500  16.762  35.310   6.764
 5398POPC   C3A68501  16.726  35.354   7.064
 5398POPC   C4A68502  16.775  35.340   7.364
 5398POPC   C1B68503  16.488  35.465   6.464
 5398POPC   C2B68504  16.477  35.430   6.764
 5398POPC   C3B68505  16.458  35.463   7.064
 5398POPC   C4B68506  16.457  35.438   7.364
 5399POPC   NC368507  15.958  13.585   5.564
 5399POPC   PO468508  15.937  13.614   5.864
 5399POPC   GL168509  15.994  13.597   6.164
 5399POPC   GL268510  16.019  13.717   6.164
 5399POPC   C1A68511  15.957  13.647   6.464
 5399POPC   D2A68512  15.960  13.618   6.764
 5399POPC   C3A68513  15.954  13.588   7.064
 5399POPC   C4A68514  15.929  13.597   7.364
 5399POPC   C1B68515  16.027  13.884   6.464
 5399POPC   C2B68516  16.029  13.819   6.764
 5399POPC   C3B68517  16.066  13.871   7.064
 5399POPC   C4B68518  16.073  13.891   7.364
 5400POPC   NC368519   5.878   9.728   5.564
 5400POPC   PO468520   5.865   9.752   5.864
 5400POPC   GL168521   5.888   9.713   6.164
 5400POPC   GL268522   5.962   9.727   6.164
 5400POPC   C1A68523   5.853   9.731   6.464
 5400POPC   D2A68524   5.908   9.706   6.764
 5400POPC   C3A68525   5.910   9.783   7.064
 5400POPC   C4A68526   5.837   9.775   7.364
 5400POPC   C1B68527   6.072   9.743   6.464
 5400POPC   C2B68528   6.128   9.669   6.764
 5400POPC   C3B68529   6.123   9.698   7.064
 5400POPC   C4B68530   6.106   9.677   7.364
 5401POPC   NC368531  15.167  41.549   5.564
 5401POPC   PO468532  15.136  41.555   5.864
 5401POPC   GL168533  15.165  41.583   6.164
 5401POPC   GL268534  15.181  41.692   6.164
 5401POPC   C1A68535  15.157  41.528   6.464
 5401POPC   D2A68536  15.172  41.568   6.764
 5401POPC   C3A68537  15.224  41.590   7.064
 5401POPC   C4A68538  15.188  41.567   7.364
 5401POPC   C1B68539  15.173  41.766   6.464
 5401POPC   C2B68540  15.166  41.840   6.764
 5401POPC   C3B68541  15.162  41.754   7.064
 5401POPC   C4B68542  15.132  41.833   7.364
 5402POPC   NC368543  34.589  26.003   5.564
 5402POPC   PO468544  34.596  26.005   5.864
 5402POPC   GL168545  34.617  26.025   6.164
 5402POPC   GL268546  34.485  26.170   6.164
 5402POPC   C1A68547  34.554  26.067   6.464
 5402POPC   D2A68548  34.571  26.016   6.764
 5402POPC   C3A68549  34.545  26.057   7.064
 5402POPC   C4A68550  34.559  26.067   7.364
 5402POPC   C1B68551  34.372  26.181   6.464
 5402POPC   C2B68552  34.358  26.225   6.764
 5402POPC   C3B68553  34.353  26.185   7.064
 5402POPC   C4B68554  34.379  26.247   7.364
 5403POPC   NC368555  44.697  23.696   5.564
 5403POPC   PO468556  44.666  23.666   5.864
 5403POPC   GL168557  44.657  23.673   6.164
 5403POPC   GL268558  44.549  23.790   6.164
 5403POPC   C1A68559  44.695  23.709   6.464
 5403POPC   D2A68560  44.651  23.679   6.764
 5403POPC   C3A68561  44.660  23.763   7.064
 5403POPC   C4A68562  44.672  23.682   7.364
 5403POPC   C1B68563  44.501  23.885   6.464
 5403POPC   C2B68564  44.536  23.906   6.764
 5403POPC   C3B68565  44.525  23.888   7.064
 5403POPC   C4B68566  44.547  23.866   7.364
 5404POPC   NC368567  21.416  22.200   5.564
 5404POPC   PO468568  21.433  22.127   5.864
 5404POPC   GL168569  21.432  22.204   6.164
 5404POPC   GL268570  21.494  22.031   6.164
 5404POPC   C1A68571  21.419  22.172   6.464
 5404POPC   D2A68572  21.407  22.143   6.764
 5404POPC   C3A68573  21.417  22.168   7.064
 5404POPC   C4A68574  21.363  22.184   7.364
 5404POPC   C1B68575  21.501  21.957   6.464
 5404POPC   C2B68576  21.487  21.905   6.764
 5404POPC   C3B68577  21.508  21.961   7.064
 5404POPC   C4B68578  21.546  21.933   7.364
 5405POPC   NC368579   4.365  29.933   5.564
 5405POPC   PO468580   4.305  29.879   5.864
 5405POPC   GL168581   4.335  29.948   6.164
 5405POPC   GL268582   4.451  29.855   6.164
 5405POPC   C1A68583   4.297  29.875   6.464
 5405POPC   D2A68584   4.303  29.961   6.764
 5405POPC   C3A68585   4.287  29.943   7.064
 5405POPC   C4A68586   4.353  29.925   7.364
 5405POPC   C1B68587   4.577  29.921   6.464
 5405POPC   C2B68588   4.591  29.859   6.764
 5405POPC   C3B68589   4.586  29.853   7.064
 5405POPC   C4B68590   4.529  29.849   7.364
 5406POPC   NC368591  26.060  24.471   5.564
 5406POPC   PO468592  25.993  24.505   5.864
 5406POPC   GL168593  25.993  24.496   6.164
 5406POPC   GL268594  26.031  24.372   6.164
 5406POPC   C1A68595  26.042  24.495   6.464
 5406POPC   D2A68596  26.063  24.450   6.764
 5406POPC   C3A68597  25.992  24.441   7.064
 5406POPC   C4A68598  26.009  24.467   7.364
 5406POPC   C1B68599  26.105  24.207   6.464
 5406POPC   C2B68600  26.101  24.283   6.764
 5406POPC   C3B68601  26.066  24.291   7.064
 5406POPC   C4B68602  26.022  24.281   7.364
 5407POPC   NC368603   8.991   4.303   5.564
 5407POPC   PO468604   9.003   4.344   5.864
 5407POPC   GL168605   8.931   4.356   6.164
 5407POPC   GL268606   9.068   4.302   6.164
 5407POPC   C1A68607   8.978   4.335   6.464
 5407POPC   D2A68608   8.940   4.328   6.764
 5407POPC   C3A68609   8.980   4.277   7.064
 5407POPC   C4A68610   9.007   4.319   7.364
 5407POPC   C1B68611   9.195   4.399   6.464
 5407POPC   C2B68612   9.209   4.389   6.764
 5407POPC   C3B68613   9.197   4.359   7.064
 5407POPC   C4B68614   9.217   4.376   7.364
 5408POPC   NC368615  38.472  36.103   5.564
 5408POPC   PO468616  38.454  36.148   5.864
 5408POPC   GL168617  38.494  36.117   6.164
 5408POPC   GL268618  38.391  36.009   6.164
 5408POPC   C1A68619  38.488  36.171   6.464
 5408POPC   D2A68620  38.496  36.176   6.764
 5408POPC   C3A68621  38.451  36.085   7.064
 5408POPC   C4A68622  38.427  36.123   7.364
 5408POPC   C1B68623  38.343  35.910   6.464
 5408POPC   C2B68624  38.373  35.881   6.764
 5408POPC   C3B68625  38.322  35.848   7.064
 5408POPC   C4B68626  38.391  35.924   7.364
 5409POPC   NC368627   4.316  33.840   5.564
 5409POPC   PO468628   4.271  33.781   5.864
 5409POPC   GL168629   4.350  33.753   6.164
 5409POPC   GL268630   4.192  33.908   6.164
 5409POPC   C1A68631   4.321  33.832   6.464
 5409POPC   D2A68632   4.328  33.782   6.764
 5409POPC   C3A68633   4.330  33.761   7.064
 5409POPC   C4A68634   4.326  33.764   7.364
 5409POPC   C1B68635   4.154  33.983   6.464
 5409POPC   C2B68636   4.090  33.980   6.764
 5409POPC   C3B68637   4.125  33.913   7.064
 5409POPC   C4B68638   4.106  34.004   7.364
 5410POPC   NC368639  38.410   1.954   5.564
 5410POPC   PO468640  38.485   1.963   5.864
 5410POPC   GL168641  38.499   1.940   6.164
 5410POPC   GL268642  38.476   1.846   6.164
 5410POPC   C1A68643  38.489   2.010   6.464
 5410POPC   D2A68644  38.474   2.027   6.764
 5410POPC   C3A68645  38.490   2.006   7.064
 5410POPC   C4A68646  38.479   2.014   7.364
 5410POPC   C1B68647  38.439   1.724   6.464
 5410POPC   C2B68648  38.476   1.783   6.764
 5410POPC   C3B68649  38.457   1.730   7.064
 5410POPC   C4B68650  38.533   1.778   7.364
 5411POPC   NC368651   1.977  24.441   5.564
 5411POPC   PO468652   1.948  24.506   5.864
 5411POPC   GL168653   1.976  24.451   6.164
 5411POPC   GL268654   1.963  24.597   6.164
 5411POPC   C1A68655   2.024  24.459   6.464
 5411POPC   D2A68656   2.012  24.479   6.764
 5411POPC   C3A68657   1.992  24.511   7.064
 5411POPC   C4A68658   1.942  24.498   7.364
 5411POPC   C1B68659   1.891  24.714   6.464
 5411POPC   C2B68660   1.880  24.753   6.764
 5411POPC   C3B68661   1.895  24.708   7.064
 5411POPC   C4B68662   1.921  24.709   7.364
 5412POPC   NC368663   9.767  15.954   5.564
 5412POPC   PO468664   9.750  15.934   5.864
 5412POPC   GL168665   9.722  15.989   6.164
 5412POPC   GL268666   9.661  15.907   6.164
 5412POPC   C1A68667   9.790  15.937   6.464
 5412POPC   D2A68668   9.763  15.997   6.764
 5412POPC   C3A68669   9.784  15.964   7.064
 5412POPC   C4A68670   9.705  15.980   7.364
 5412POPC   C1B68671   9.554  15.771   6.464
 5412POPC   C2B68672   9.534  15.779   6.764
 5412POPC   C3B68673   9.538  15.797   7.064
 5412POPC   C4B68674   9.575  15.771   7.364
 5413POPC   NC368675  26.831  24.443   5.564
 5413POPC   PO468676  26.813  24.478   5.864
 5413POPC   GL168677  26.820  24.471   6.164
 5413POPC   GL268678  26.763  24.394   6.164
 5413POPC   C1A68679  26.783  24.532   6.464
 5413POPC   D2A68680  26.855  24.468   6.764
 5413POPC   C3A68681  26.767  24.461   7.064
 5413POPC   C4A68682  26.856  24.469   7.364
 5413POPC   C1B68683  26.614  24.315   6.464
 5413POPC   C2B68684  26.572  24.335   6.764
 5413POPC   C3B68685  26.588  24.374   7.064
 5413POPC   C4B68686  26.600  24.309   7.364
 5414POPC   NC368687   1.997  15.951   5.564
 5414POPC   PO468688   1.972  15.966   5.864
 5414POPC   GL168689   2.009  15.951   6.164
 5414POPC   GL268690   1.995  16.109   6.164
 5414POPC   C1A68691   1.959  15.963   6.464
 5414POPC   D2A68692   1.960  15.998   6.764
 5414POPC   C3A68693   1.991  15.930   7.064
 5414POPC   C4A68694   2.035  15.977   7.364
 5414POPC   C1B68695   2.146  16.187   6.464
 5414POPC   C2B68696   2.054  16.225   6.764
 5414POPC   C3B68697   2.057  16.217   7.064
 5414POPC   C4B68698   2.052  16.133   7.364
 5415POPC   NC368699  20.574  36.138   5.564
 5415POPC   PO468700  20.640  36.088   5.864
 5415POPC   GL168701  20.612  36.102   6.164
 5415POPC   GL268702  20.502  36.113   6.164
 5415POPC   C1A68703  20.635  36.080   6.464
 5415POPC   D2A68704  20.599  36.159   6.764
 5415POPC   C3A68705  20.561  36.097   7.064
 5415POPC   C4A68706  20.568  36.174   7.364
 5415POPC   C1B68707  20.364  35.961   6.464
 5415POPC   C2B68708  20.429  36.017   6.764
 5415POPC   C3B68709  20.423  36.014   7.064
 5415POPC   C4B68710  20.369  36.015   7.364
 5416POPC   NC368711  44.614   1.965   5.564
 5416POPC   PO468712  44.695   2.019   5.864
 5416POPC   GL168713  44.627   1.987   6.164
 5416POPC   GL268714  44.560   1.850   6.164
 5416POPC   C1A68715  44.618   2.009   6.464
 5416POPC   D2A68716  44.657   2.010   6.764
 5416POPC   C3A68717  44.613   2.031   7.064
 5416POPC   C4A68718  44.625   1.995   7.364
 5416POPC   C1B68719  44.564   1.818   6.464
 5416POPC   C2B68720  44.493   1.813   6.764
 5416POPC   C3B68721  44.538   1.755   7.064
 5416POPC   C4B68722  44.584   1.798   7.364
 5417POPC   NC368723  39.992  42.376   5.564
 5417POPC   PO468724  40.030  42.338   5.864
 5417POPC   GL168725  39.987  42.350   6.164
 5417POPC   GL268726  40.133  42.432   6.164
 5417POPC   C1A68727  40.051  42.357   6.464
 5417POPC   D2A68728  39.962  42.355   6.764
 5417POPC   C3A68729  40.035  42.316   7.064
 5417POPC   C4A68730  40.050  42.307   7.364
 5417POPC   C1B68731  40.202  42.459   6.464
 5417POPC   C2B68732  40.231  42.445   6.764
 5417POPC   C3B68733  40.207  42.498   7.064
 5417POPC   C4B68734  40.230  42.484   7.364
 5418POPC   NC368735  19.850  24.523   5.564
 5418POPC   PO468736  19.833  24.448   5.864
 5418POPC   GL168737  19.791  24.481   6.164
 5418POPC   GL268738  19.741  24.393   6.164
 5418POPC   C1A68739  19.881  24.473   6.464
 5418POPC   D2A68740  19.858  24.503   6.764
 5418POPC   C3A68741  19.826  24.504   7.064
 5418POPC   C4A68742  19.834  24.494   7.364
 5418POPC   C1B68743  19.787  24.265   6.464
 5418POPC   C2B68744  19.733  24.289   6.764
 5418POPC   C3B68745  19.773  24.228   7.064
 5418POPC   C4B68746  19.710  24.262   7.364
 5419POPC   NC368747  24.482  29.103   5.564
 5419POPC   PO468748  24.532  29.173   5.864
 5419POPC   GL168749  24.442  29.155   6.164
 5419POPC   GL268750  24.529  29.081   6.164
 5419POPC   C1A68751  24.536  29.135   6.464
 5419POPC   D2A68752  24.454  29.182   6.764
 5419POPC   C3A68753  24.517  29.153   7.064
 5419POPC   C4A68754  24.444  29.117   7.364
 5419POPC   C1B68755  24.639  28.977   6.464
 5419POPC   C2B68756  24.651  28.909   6.764
 5419POPC   C3B68757  24.574  28.982   7.064
 5419POPC   C4B68758  24.603  28.907   7.364
 5420POPC   NC368759   4.325   6.599   5.564
 5420POPC   PO468760   4.286   6.658   5.864
 5420POPC   GL168761   4.285   6.620   6.164
 5420POPC   GL268762   4.190   6.639   6.164
 5420POPC   C1A68763   4.360   6.645   6.464
 5420POPC   D2A68764   4.367   6.682   6.764
 5420POPC   C3A68765   4.318   6.621   7.064
 5420POPC   C4A68766   4.272   6.623   7.364
 5420POPC   C1B68767   4.046   6.633   6.464
 5420POPC   C2B68768   4.028   6.649   6.764
 5420POPC   C3B68769   4.021   6.646   7.064
 5420POPC   C4B68770   4.019   6.652   7.364
 5421POPC   NC368771  43.069  15.908   5.564
 5421POPC   PO468772  43.074  15.937   5.864
 5421POPC   GL168773  43.147  15.916   6.164
 5421POPC   GL268774  43.160  15.867   6.164
 5421POPC   C1A68775  43.084  15.975   6.464
 5421POPC   D2A68776  43.091  15.930   6.764
 5421POPC   C3A68777  43.088  15.932   7.064
 5421POPC   C4A68778  43.146  15.942   7.364
 5421POPC   C1B68779  43.308  15.804   6.464
 5421POPC   C2B68780  43.265  15.750   6.764
 5421POPC   C3B68781  43.267  15.741   7.064
 5421POPC   C4B68782  43.237  15.738   7.364
 5422POPC   NC368783  15.152  35.302   5.564
 5422POPC   PO468784  15.148  35.378   5.864
 5422POPC   GL168785  15.132  35.363   6.164
 5422POPC   GL268786  15.103  35.445   6.164
 5422POPC   C1A68787  15.145  35.331   6.464
 5422POPC   D2A68788  15.188  35.324   6.764
 5422POPC   C3A68789  15.190  35.400   7.064
 5422POPC   C4A68790  15.206  35.388   7.364
 5422POPC   C1B68791  15.156  35.610   6.464
 5422POPC   C2B68792  15.111  35.575   6.764
 5422POPC   C3B68793  15.094  35.578   7.064
 5422POPC   C4B68794  15.117  35.553   7.364
 5423POPC   NC368795  42.343  19.822   5.564
 5423POPC   PO468796  42.349  19.792   5.864
 5423POPC   GL168797  42.354  19.787   6.164
 5423POPC   GL268798  42.259  19.775   6.164
 5423POPC   C1A68799  42.328  19.856   6.464
 5423POPC   D2A68800  42.336  19.807   6.764
 5423POPC   C3A68801  42.375  19.788   7.064
 5423POPC   C4A68802  42.285  19.800   7.364
 5423POPC   C1B68803  42.136  19.711   6.464
 5423POPC   C2B68804  42.125  19.642   6.764
 5423POPC   C3B68805  42.157  19.719   7.064
 5423POPC   C4B68806  42.158  19.701   7.364
 5424POPC   NC368807  17.495  15.995   5.564
 5424POPC   PO468808  17.464  15.987   5.864
 5424POPC   GL168809  17.529  15.963   6.164
 5424POPC   GL268810  17.383  15.968   6.164
 5424POPC   C1A68811  17.531  15.908   6.464
 5424POPC   D2A68812  17.545  15.971   6.764
 5424POPC   C3A68813  17.461  15.966   7.064
 5424POPC   C4A68814  17.461  15.980   7.364
 5424POPC   C1B68815  17.273  15.966   6.464
 5424POPC   C2B68816  17.287  15.936   6.764
 5424POPC   C3B68817  17.235  15.974   7.064
 5424POPC   C4B68818  17.293  15.944   7.364
 5425POPC   NC368819  22.153  44.638   5.564
 5425POPC   PO468820  22.137  44.631   5.864
 5425POPC   GL168821  22.117  44.612   6.164
 5425POPC   GL268822  22.047  44.652   6.164
 5425POPC   C1A68823  22.170  44.681   6.464
 5425POPC   D2A68824  22.208  44.699   6.764
 5425POPC   C3A68825  22.209  44.623   7.064
 5425POPC   C4A68826  22.140  44.627   7.364
 5425POPC   C1B68827  21.903  44.765   6.464
 5425POPC   C2B68828  21.911  44.693   6.764
 5425POPC   C3B68829  21.940  44.707   7.064
 5425POPC   C4B68830  21.907  44.688   7.364
 5426POPC   NC368831   2.029   3.504   5.564
 5426POPC   PO468832   1.970   3.547   5.864
 5426POPC   GL168833   2.021   3.505   6.164
 5426POPC   GL268834   1.915   3.386   6.164
 5426POPC   C1A68835   2.022   3.561   6.464
 5426POPC   D2A68836   1.971   3.522   6.764
 5426POPC   C3A68837   1.945   3.559   7.064
 5426POPC   C4A68838   1.998   3.499   7.364
 5426POPC   C1B68839   1.867   3.325   6.464
 5426POPC   C2B68840   1.900   3.328   6.764
 5426POPC   C3B68841   1.879   3.330   7.064
 5426POPC   C4B68842   1.837   3.278   7.364
 5427POPC   NC368843  38.460  20.585   5.564
 5427POPC   PO468844  38.471  20.575   5.864
 5427POPC   GL168845  38.442  20.590   6.164
 5427POPC   GL268846  38.308  20.495   6.164
 5427POPC   C1A68847  38.500  20.660   6.464
 5427POPC   D2A68848  38.433  20.659   6.764
 5427POPC   C3A68849  38.497  20.645   7.064
 5427POPC   C4A68850  38.464  20.586   7.364
 5427POPC   C1B68851  38.235  20.445   6.464
 5427POPC   C2B68852  38.275  20.484   6.764
 5427POPC   C3B68853  38.216  20.480   7.064
 5427POPC   C4B68854  38.286  20.465   7.364
 5428POPC   NC368855  29.158  39.271   5.564
 5428POPC   PO468856  29.178  39.236   5.864
 5428POPC   GL168857  29.145  39.194   6.164
 5428POPC   GL268858  29.016  39.252   6.164
 5428POPC   C1A68859  29.126  39.268   6.464
 5428POPC   D2A68860  29.121  39.187   6.764
 5428POPC   C3A68861  29.160  39.221   7.064
 5428POPC   C4A68862  29.194  39.205   7.364
 5428POPC   C1B68863  28.909  39.368   6.464
 5428POPC   C2B68864  28.866  39.307   6.764
 5428POPC   C3B68865  28.865  39.280   7.064
 5428POPC   C4B68866  28.903  39.364   7.364
 5429POPC   NC368867  22.956  39.982   5.564
 5429POPC   PO468868  22.950  40.020   5.864
 5429POPC   GL168869  22.906  40.036   6.164
 5429POPC   GL268870  23.014  39.938   6.164
 5429POPC   C1A68871  22.979  40.047   6.464
 5429POPC   D2A68872  22.931  40.024   6.764
 5429POPC   C3A68873  22.983  40.025   7.064
 5429POPC   C4A68874  22.938  39.980   7.364
 5429POPC   C1B68875  23.115  39.800   6.464
 5429POPC   C2B68876  23.049  39.770   6.764
 5429POPC   C3B68877  23.057  39.773   7.064
 5429POPC   C4B68878  23.036  39.770   7.364
 5430POPC   NC368879  36.134  25.286   5.564
 5430POPC   PO468880  36.116  25.249   5.864
 5430POPC   GL168881  36.137  25.286   6.164
 5430POPC   GL268882  36.215  25.234   6.164
 5430POPC   C1A68883  36.151  25.251   6.464
 5430POPC   D2A68884  36.159  25.298   6.764
 5430POPC   C3A68885  36.093  25.269   7.064
 5430POPC   C4A68886  36.127  25.309   7.364
 5430POPC   C1B68887  36.347  25.309   6.464
 5430POPC   C2B68888  36.344  25.312   6.764
 5430POPC   C3B68889  36.419  25.248   7.064
 5430POPC   C4B68890  36.364  25.255   7.364
 5431POPC   NC368891  35.304  18.251   5.564
 5431POPC   PO468892  35.378  18.235   5.864
 5431POPC   GL168893  35.307  18.308   6.164
 5431POPC   GL268894  35.334  18.146   6.164
 5431POPC   C1A68895  35.336  18.285   6.464
 5431POPC   D2A68896  35.329  18.286   6.764
 5431POPC   C3A68897  35.394  18.329   7.064
 5431POPC   C4A68898  35.355  18.273   7.364
 5431POPC   C1B68899  35.362  18.030   6.464
 5431POPC   C2B68900  35.432  18.028   6.764
 5431POPC   C3B68901  35.370  17.994   7.064
 5431POPC   C4B68902  35.361  17.990   7.364
 5432POPC   NC368903   3.578  26.835   5.564
 5432POPC   PO468904   3.571  26.828   5.864
 5432POPC   GL168905   3.524  26.768   6.164
 5432POPC   GL268906   3.675  26.792   6.164
 5432POPC   C1A68907   3.509  26.867   6.464
 5432POPC   D2A68908   3.520  26.839   6.764
 5432POPC   C3A68909   3.578  26.854   7.064
 5432POPC   C4A68910   3.590  26.855   7.364
 5432POPC   C1B68911   3.729  26.712   6.464
 5432POPC   C2B68912   3.816  26.762   6.764
 5432POPC   C3B68913   3.772  26.685   7.064
 5432POPC   C4B68914   3.722  26.762   7.364
 5433POPC   NC368915  16.758   4.276   5.564
 5433POPC   PO468916  16.780   4.301   5.864
 5433POPC   GL168917  16.762   4.273   6.164
 5433POPC   GL268918  16.574   4.311   6.164
 5433POPC   C1A68919  16.719   4.285   6.464
 5433POPC   D2A68920  16.705   4.296   6.764
 5433POPC   C3A68921  16.706   4.345   7.064
 5433POPC   C4A68922  16.693   4.288   7.364
 5433POPC   C1B68923  16.497   4.304   6.464
 5433POPC   C2B68924  16.477   4.376   6.764
 5433POPC   C3B68925  16.435   4.346   7.064
 5433POPC   C4B68926  16.506   4.308   7.364
 5434POPC   NC368927   8.151  12.879   5.564
 5434POPC   PO468928   8.185  12.856   5.864
 5434POPC   GL168929   8.182  12.889   6.164
 5434POPC   GL268930   8.113  12.901   6.164
 5434POPC   C1A68931   8.210  12.863   6.464
 5434POPC   D2A68932   8.199  12.837   6.764
 5434POPC   C3A68933   8.215  12.842   7.064
 5434POPC   C4A68934   8.217  12.856   7.364
 5434POPC   C1B68935   7.991  12.848   6.464
 5434POPC   C2B68936   7.936  12.831   6.764
 5434POPC   C3B68937   7.898  12.878   7.064
 5434POPC   C4B68938   7.969  12.874   7.364
 5435POPC   NC368939   1.943   7.376   5.564
 5435POPC   PO468940   1.980   7.447   5.864
 5435POPC   GL168941   1.952   7.418   6.164
 5435POPC   GL268942   2.138   7.428   6.164
 5435POPC   C1A68943   1.983   7.376   6.464
 5435POPC   D2A68944   1.990   7.381   6.764
 5435POPC   C3A68945   1.963   7.452   7.064
 5435POPC   C4A68946   2.032   7.449   7.364
 5435POPC   C1B68947   2.188   7.575   6.464
 5435POPC   C2B68948   2.249   7.567   6.764
 5435POPC   C3B68949   2.241   7.545   7.064
 5435POPC   C4B68950   2.192   7.548   7.364
 5436POPC   NC368951  35.307  27.560   5.564
 5436POPC   PO468952  35.398  27.635   5.864
 5436POPC   GL168953  35.331  27.625   6.164
 5436POPC   GL268954  35.355  27.747   6.164
 5436POPC   C1A68955  35.350  27.597   6.464
 5436POPC   D2A68956  35.312  27.566   6.764
 5436POPC   C3A68957  35.372  27.578   7.064
 5436POPC   C4A68958  35.309  27.576   7.364
 5436POPC   C1B68959  35.333  27.798   6.464
 5436POPC   C2B68960  35.343  27.873   6.764
 5436POPC   C3B68961  35.378  27.852   7.064
 5436POPC   C4B68962  35.317  27.892   7.364
 5437POPC   NC368963  16.712   2.740   5.564
 5437POPC   PO468964  16.734   2.809   5.864
 5437POPC   GL168965  16.733   2.735   6.164
 5437POPC   GL268966  16.821   2.764   6.164
 5437POPC   C1A68967  16.772   2.766   6.464
 5437POPC   D2A68968  16.757   2.723   6.764
 5437POPC   C3A68969  16.757   2.779   7.064
 5437POPC   C4A68970  16.757   2.794   7.364
 5437POPC   C1B68971  16.944   2.805   6.464
 5437POPC   C2B68972  17.015   2.749   6.764
 5437POPC   C3B68973  16.979   2.740   7.064
 5437POPC   C4B68974  16.973   2.795   7.364
 5438POPC   NC368975  28.414  37.711   5.564
 5438POPC   PO468976  28.355  37.714   5.864
 5438POPC   GL168977  28.339  37.695   6.164
 5438POPC   GL268978  28.298  37.716   6.164
 5438POPC   C1A68979  28.328  37.705   6.464
 5438POPC   D2A68980  28.387  37.709   6.764
 5438POPC   C3A68981  28.351  37.665   7.064
 5438POPC   C4A68982  28.383  37.684   7.364
 5438POPC   C1B68983  28.174  37.781   6.464
 5438POPC   C2B68984  28.113  37.776   6.764
 5438POPC   C3B68985  28.140  37.756   7.064
 5438POPC   C4B68986  28.171  37.796   7.364
 5439POPC   NC368987  21.376  17.527   5.564
 5439POPC   PO468988  21.394  17.491   5.864
 5439POPC   GL168989  21.401  17.525   6.164
 5439POPC   GL268990  21.362  17.573   6.164
 5439POPC   C1A68991  21.387  17.483   6.464
 5439POPC   D2A68992  21.436  17.548   6.764
 5439POPC   C3A68993  21.367  17.462   7.064
 5439POPC   C4A68994  21.424  17.516   7.364
 5439POPC   C1B68995  21.276  17.765   6.464
 5439POPC   C2B68996  21.246  17.753   6.764
 5439POPC   C3B68997  21.224  17.713   7.064
 5439POPC   C4B68998  21.257  17.709   7.364
 5440POPC   NC368999  27.594  15.993   5.564
 5440POPC   PO469000  27.631  15.928   5.864
 5440POPC   GL169001  27.642  15.974   6.164
 5440POPC   GL269002  27.508  16.024   6.164
 5440POPC   C1A69003  27.636  16.004   6.464
 5440POPC   D2A69004  27.579  16.002   6.764
 5440POPC   C3A69005  27.631  15.984   7.064
 5440POPC   C4A69006  27.599  15.964   7.364
 5440POPC   C1B69007  27.417  16.071   6.464
 5440POPC   C2B69008  27.362  16.060   6.764
 5440POPC   C3B69009  27.343  16.084   7.064
 5440POPC   C4B69010  27.351  16.076   7.364
 5441POPC   NC369011   5.836   3.523   5.564
 5441POPC   PO469012   5.856   3.499   5.864
 5441POPC   GL169013   5.888   3.552   6.164
 5441POPC   GL269014   5.889   3.448   6.164
 5441POPC   C1A69015   5.873   3.589   6.464
 5441POPC   D2A69016   5.853   3.587   6.764
 5441POPC   C3A69017   5.841   3.522   7.064
 5441POPC   C4A69018   5.881   3.564   7.364
 5441POPC   C1B69019   5.973   3.331   6.464
 5441POPC   C2B69020   5.943   3.276   6.764
 5441POPC   C3B69021   6.030   3.290   7.064
 5441POPC   C4B69022   6.037   3.321   7.364
 5442POPC   NC369023   7.395  34.550   5.564
 5442POPC   PO469024   7.458  34.532   5.864
 5442POPC   GL169025   7.416  34.621   6.164
 5442POPC   GL269026   7.472  34.705   6.164
 5442POPC   C1A69027   7.415  34.602   6.464
 5442POPC   D2A69028   7.457  34.612   6.764
 5442POPC   C3A69029   7.421  34.553   7.064
 5442POPC   C4A69030   7.380  34.555   7.364
 5442POPC   C1B69031   7.589  34.736   6.464
 5442POPC   C2B69032   7.612  34.784   6.764
 5442POPC   C3B69033   7.660  34.770   7.064
 5442POPC   C4B69034   7.658  34.704   7.364
 5443POPC   NC369035  33.767  38.413   5.564
 5443POPC   PO469036  33.779  38.406   5.864
 5443POPC   GL169037  33.751  38.428   6.164
 5443POPC   GL269038  33.746  38.547   6.164
 5443POPC   C1A69039  33.841  38.481   6.464
 5443POPC   D2A69040  33.827  38.419   6.764
 5443POPC   C3A69041  33.782  38.483   7.064
 5443POPC   C4A69042  33.761  38.424   7.364
 5443POPC   C1B69043  33.608  38.682   6.464
 5443POPC   C2B69044  33.679  38.618   6.764
 5443POPC   C3B69045  33.625  38.645   7.064
 5443POPC   C4B69046  33.630  38.629   7.364
 5444POPC   NC369047  38.413  28.416   5.564
 5444POPC   PO469048  38.450  28.397   5.864
 5444POPC   GL169049  38.443  28.335   6.164
 5444POPC   GL269050  38.368  28.373   6.164
 5444POPC   C1A69051  38.466  28.385   6.464
 5444POPC   D2A69052  38.504  28.339   6.764
 5444POPC   C3A69053  38.432  28.361   7.064
 5444POPC   C4A69054  38.486  28.362   7.364
 5444POPC   C1B69055  38.229  28.384   6.464
 5444POPC   C2B69056  38.249  28.356   6.764
 5444POPC   C3B69057  38.236  28.404   7.064
 5444POPC   C4B69058  38.238  28.397   7.364
 5445POPC   NC369059  34.584  11.269   5.564
 5445POPC   PO469060  34.534  11.283   5.864
 5445POPC   GL169061  34.542  11.305   6.164
 5445POPC   GL269062  34.489  11.361   6.164
 5445POPC   C1A69063  34.606  11.252   6.464
 5445POPC   D2A69064  34.569  11.285   6.764
 5445POPC   C3A69065  34.589  11.344   7.064
 5445POPC   C4A69066  34.625  11.312   7.364
 5445POPC   C1B69067  34.313  11.319   6.464
 5445POPC   C2B69068  34.289  11.363   6.764
 5445POPC   C3B69069  34.325  11.310   7.064
 5445POPC   C4B69070  34.338  11.366   7.364
 5446POPC   NC369071   5.097  29.872   5.564
 5446POPC   PO469072   5.084  29.937   5.864
 5446POPC   GL169073   5.064  29.946   6.164
 5446POPC   GL269074   5.148  29.842   6.164
 5446POPC   C1A69075   5.112  29.881   6.464
 5446POPC   D2A69076   5.045  29.901   6.764
 5446POPC   C3A69077   5.095  29.881   7.064
 5446POPC   C4A69078   5.066  29.957   7.364
 5446POPC   C1B69079   5.282  29.778   6.464
 5446POPC   C2B69080   5.326  29.728   6.764
 5446POPC   C3B69081   5.292  29.808   7.064
 5446POPC   C4B69082   5.249  29.738   7.364
 5447POPC   NC369083   9.711  34.605   5.564
 5447POPC   PO469084   9.792  34.563   5.864
 5447POPC   GL169085   9.776  34.602   6.164
 5447POPC   GL269086   9.727  34.669   6.164
 5447POPC   C1A69087   9.768  34.587   6.464
 5447POPC   D2A69088   9.790  34.588   6.764
 5447POPC   C3A69089   9.796  34.591   7.064
 5447POPC   C4A69090   9.758  34.567   7.364
 5447POPC   C1B69091   9.751  34.856   6.464
 5447POPC   C2B69092   9.751  34.842   6.764
 5447POPC   C3B69093   9.750  34.800   7.064
 5447POPC   C4B69094   9.772  34.843   7.364
 5448POPC   NC369095  20.571  43.113   5.564
 5448POPC   PO469096  20.645  43.113   5.864
 5448POPC   GL169097  20.634  43.143   6.164
 5448POPC   GL269098  20.696  42.993   6.164
 5448POPC   C1A69099  20.613  43.152   6.464
 5448POPC   D2A69100  20.603  43.159   6.764
 5448POPC   C3A69101  20.612  43.065   7.064
 5448POPC   C4A69102  20.649  43.099   7.364
 5448POPC   C1B69103  20.809  42.962   6.464
 5448POPC   C2B69104  20.789  42.897   6.764
 5448POPC   C3B69105  20.730  42.963   7.064
 5448POPC   C4B69106  20.738  42.935   7.364
 5449POPC   NC369107  34.597  17.488   5.564
 5449POPC   PO469108  34.548  17.480   5.864
 5449POPC   GL169109  34.608  17.493   6.164
 5449POPC   GL269110  34.611  17.401   6.164
 5449POPC   C1A69111  34.534  17.466   6.464
 5449POPC   D2A69112  34.615  17.542   6.764
 5449POPC   C3A69113  34.606  17.538   7.064
 5449POPC   C4A69114  34.580  17.476   7.364
 5449POPC   C1B69115  34.638  17.255   6.464
 5449POPC   C2B69116  34.692  17.320   6.764
 5449POPC   C3B69117  34.627  17.224   7.064
 5449POPC   C4B69118  34.653  17.313   7.364
 5450POPC   NC369119   0.404  15.209   5.564
 5450POPC   PO469120   0.396  15.170   5.864
 5450POPC   GL169121   0.409  15.223   6.164
 5450POPC   GL269122   0.458  15.075   6.164
 5450POPC   C1A69123   0.474  15.155   6.464
 5450POPC   D2A69124   0.392  15.190   6.764
 5450POPC   C3A69125   0.420  15.172   7.064
 5450POPC   C4A69126   0.476  15.221   7.364
 5450POPC   C1B69127   0.588  14.953   6.464
 5450POPC   C2B69128   0.550  15.000   6.764
 5450POPC   C3B69129   0.533  14.979   7.064
 5450POPC   C4B69130   0.616  15.012   7.364
 5451POPC   NC369131  12.081  13.659   5.564
 5451POPC   PO469132  12.048  13.631   5.864
 5451POPC   GL169133  12.034  13.584   6.164
 5451POPC   GL269134  12.164  13.663   6.164
 5451POPC   C1A69135  12.084  13.644   6.464
 5451POPC   D2A69136  12.051  13.608   6.764
 5451POPC   C3A69137  12.104  13.674   7.064
 5451POPC   C4A69138  12.102  13.592   7.364
 5451POPC   C1B69139  12.351  13.640   6.464
 5451POPC   C2B69140  12.316  13.707   6.764
 5451POPC   C3B69141  12.319  13.646   7.064
 5451POPC   C4B69142  12.310  13.715   7.364
 5452POPC   NC369143  20.658  28.391   5.564
 5452POPC   PO469144  20.573  28.397   5.864
 5452POPC   GL169145  20.600  28.355   6.164
 5452POPC   GL269146  20.615  28.280   6.164
 5452POPC   C1A69147  20.572  28.331   6.464
 5452POPC   D2A69148  20.603  28.407   6.764
 5452POPC   C3A69149  20.586  28.406   7.064
 5452POPC   C4A69150  20.568  28.319   7.364
 5452POPC   C1B69151  20.704  28.129   6.464
 5452POPC   C2B69152  20.697  28.107   6.764
 5452POPC   C3B69153  20.750  28.165   7.064
 5452POPC   C4B69154  20.703  28.179   7.364
 5453POPC   NC369155   0.414  43.869   5.564
 5453POPC   PO469156   0.398  43.890   5.864
 5453POPC   GL169157   0.423  43.855   6.164
 5453POPC   GL269158   0.396  43.952   6.164
 5453POPC   C1A69159   0.474  43.867   6.464
 5453POPC   D2A69160   0.428  43.913   6.764
 5453POPC   C3A69161   0.469  43.908   7.064
 5453POPC   C4A69162   0.428  43.933   7.364
 5453POPC   C1B69163   0.244  44.086   6.464
 5453POPC   C2B69164   0.306  44.094   6.764
 5453POPC   C3B69165   0.255  44.102   7.064
 5453POPC   C4B69166   0.272  44.049   7.364
 5454POPC   NC369167   5.910  34.542   5.564
 5454POPC   PO469168   5.897  34.530   5.864
 5454POPC   GL169169   5.918  34.623   6.164
 5454POPC   GL269170   5.942  34.635   6.164
 5454POPC   C1A69171   5.883  34.565   6.464
 5454POPC   D2A69172   5.841  34.621   6.764
 5454POPC   C3A69173   5.909  34.570   7.064
 5454POPC   C4A69174   5.847  34.552   7.364
 5454POPC   C1B69175   6.003  34.754   6.464
 5454POPC   C2B69176   6.049  34.733   6.764
 5454POPC   C3B69177   6.009  34.817   7.064
 5454POPC   C4B69178   5.995  34.795   7.364
 5455POPC   NC369179  28.402  44.626   5.564
 5455POPC   PO469180  28.381  44.656   5.864
 5455POPC   GL169181  28.402  44.638   6.164
 5455POPC   GL269182  28.323  44.546   6.164
 5455POPC   C1A69183  28.388  44.619   6.464
 5455POPC   D2A69184  28.348  44.665   6.764
 5455POPC   C3A69185  28.386  44.694   7.064
 5455POPC   C4A69186  28.339  44.630   7.364
 5455POPC   C1B69187  28.184  44.486   6.464
 5455POPC   C2B69188  28.246  44.427   6.764
 5455POPC   C3B69189  28.281  44.472   7.064
 5455POPC   C4B69190  28.260  44.420   7.364
 5456POPC   NC369191  10.563  29.175   5.564
 5456POPC   PO469192  10.548  29.145   5.864
 5456POPC   GL169193  10.474  29.146   6.164
 5456POPC   GL269194  10.474  29.084   6.164
 5456POPC   C1A69195  10.510  29.173   6.464
 5456POPC   D2A69196  10.498  29.170   6.764
 5456POPC   C3A69197  10.508  29.104   7.064
 5456POPC   C4A69198  10.485  29.189   7.364
 5456POPC   C1B69199  10.367  29.023   6.464
 5456POPC   C2B69200  10.368  29.010   6.764
 5456POPC   C3B69201  10.316  28.971   7.064
 5456POPC   C4B69202  10.365  29.022   7.364
 5457POPC   NC369203   3.583  33.022   5.564
 5457POPC   PO469204   3.571  33.063   5.864
 5457POPC   GL169205   3.576  33.039   6.164
 5457POPC   GL269206   3.454  33.085   6.164
 5457POPC   C1A69207   3.550  33.010   6.464
 5457POPC   D2A69208   3.555  33.042   6.764
 5457POPC   C3A69209   3.529  32.986   7.064
 5457POPC   C4A69210   3.584  33.040   7.364
 5457POPC   C1B69211   3.273  33.108   6.464
 5457POPC   C2B69212   3.319  33.072   6.764
 5457POPC   C3B69213   3.277  33.147   7.064
 5457POPC   C4B69214   3.283  33.159   7.364
 5458POPC   NC369215  14.360  22.160   5.564
 5458POPC   PO469216  14.447  22.130   5.864
 5458POPC   GL169217  14.426  22.128   6.164
 5458POPC   GL269218  14.454  22.289   6.164
 5458POPC   C1A69219  14.421  22.169   6.464
 5458POPC   D2A69220  14.438  22.129   6.764
 5458POPC   C3A69221  14.360  22.193   7.064
 5458POPC   C4A69222  14.413  22.193   7.364
 5458POPC   C1B69223  14.561  22.312   6.464
 5458POPC   C2B69224  14.602  22.327   6.764
 5458POPC   C3B69225  14.525  22.380   7.064
 5458POPC   C4B69226  14.543  22.335   7.364
 5459POPC   NC369227   2.020  33.806   5.564
 5459POPC   PO469228   1.977  33.818   5.864
 5459POPC   GL169229   1.953  33.760   6.164
 5459POPC   GL269230   2.132  33.868   6.164
 5459POPC   C1A69231   1.942  33.841   6.464
 5459POPC   D2A69232   2.006  33.764   6.764
 5459POPC   C3A69233   2.001  33.803   7.064
 5459POPC   C4A69234   1.946  33.829   7.364
 5459POPC   C1B69235   2.172  33.922   6.464
 5459POPC   C2B69236   2.235  33.893   6.764
 5459POPC   C3B69237   2.176  33.856   7.064
 5459POPC   C4B69238   2.204  33.941   7.364
 5460POPC   NC369239   8.985  42.310   5.564
 5460POPC   PO469240   8.982  42.383   5.864
 5460POPC   GL169241   8.948  42.377   6.164
 5460POPC   GL269242   8.845  42.413   6.164
 5460POPC   C1A69243   9.007  42.305   6.464
 5460POPC   D2A69244   8.977  42.383   6.764
 5460POPC   C3A69245   9.007  42.288   7.064
 5460POPC   C4A69246   8.939  42.324   7.364
 5460POPC   C1B69247   8.736  42.445   6.464
 5460POPC   C2B69248   8.751  42.480   6.764
 5460POPC   C3B69249   8.769  42.492   7.064
 5460POPC   C4B69250   8.752  42.422   7.364
 5461POPC   NC369251   3.581  27.570   5.564
 5461POPC   PO469252   3.590  27.629   5.864
 5461POPC   GL169253   3.573  27.614   6.164
 5461POPC   GL269254   3.495  27.472   6.164
 5461POPC   C1A69255   3.510  27.637   6.464
 5461POPC   D2A69256   3.499  27.583   6.764
 5461POPC   C3A69257   3.505  27.581   7.064
 5461POPC   C4A69258   3.581  27.587   7.364
 5461POPC   C1B69259   3.399  27.392   6.464
 5461POPC   C2B69260   3.398  27.387   6.764
 5461POPC   C3B69261   3.412  27.378   7.064
 5461POPC   C4B69262   3.416  27.404   7.364
 5462POPC   NC369263  42.304   1.975   5.564
 5462POPC   PO469264  42.383   1.982   5.864
 5462POPC   GL169265  42.341   1.945   6.164
 5462POPC   GL269266  42.233   2.095   6.164
 5462POPC   C1A69267  42.309   1.957   6.464
 5462POPC   D2A69268  42.360   1.958   6.764
 5462POPC   C3A69269  42.375   2.005   7.064
 5462POPC   C4A69270  42.327   1.998   7.364
 5462POPC   C1B69271  42.147   2.145   6.464
 5462POPC   C2B69272  42.156   2.164   6.764
 5462POPC   C3B69273  42.131   2.152   7.064
 5462POPC   C4B69274  42.226   2.159   7.364
 5463POPC   NC369275  43.119  43.132   5.564
 5463POPC   PO469276  43.137  43.078   5.864
 5463POPC   GL169277  43.120  43.119   6.164
 5463POPC   GL269278  42.986  43.017   6.164
 5463POPC   C1A69279  43.122  43.140   6.464
 5463POPC   D2A69280  43.083  43.127   6.764
 5463POPC   C3A69281  43.114  43.141   7.064
 5463POPC   C4A69282  43.077  43.098   7.364
 5463POPC   C1B69283  42.930  43.032   6.464
 5463POPC   C2B69284  42.870  42.960   6.764
 5463POPC   C3B69285  42.877  43.011   7.064
 5463POPC   C4B69286  42.849  43.051   7.364
 5464POPC   NC369287  34.595  15.934   5.564
 5464POPC   PO469288  34.595  15.991   5.864
 5464POPC   GL169289  34.618  15.994   6.164
 5464POPC   GL269290  34.499  16.072   6.164
 5464POPC   C1A69291  34.611  15.915   6.464
 5464POPC   D2A69292  34.565  15.911   6.764
 5464POPC   C3A69293  34.573  15.941   7.064
 5464POPC   C4A69294  34.623  15.952   7.364
 5464POPC   C1B69295  34.322  16.085   6.464
 5464POPC   C2B69296  34.400  16.113   6.764
 5464POPC   C3B69297  34.409  16.124   7.064
 5464POPC   C4B69298  34.326  16.105   7.364
 5465POPC   NC369299   5.838  40.796   5.564
 5465POPC   PO469300   5.879  40.740   5.864
 5465POPC   GL169301   5.899  40.810   6.164
 5465POPC   GL269302   5.761  40.757   6.164
 5465POPC   C1A69303   5.831  40.754   6.464
 5465POPC   D2A69304   5.854  40.739   6.764
 5465POPC   C3A69305   5.821  40.800   7.064
 5465POPC   C4A69306   5.884  40.798   7.364
 5465POPC   C1B69307   5.649  40.820   6.464
 5465POPC   C2B69308   5.613  40.864   6.764
 5465POPC   C3B69309   5.631  40.869   7.064
 5465POPC   C4B69310   5.588  40.800   7.364
 5466POPC   NC369311  40.787   5.868   5.564
 5466POPC   PO469312  40.772   5.913   5.864
 5466POPC   GL169313  40.758   5.907   6.164
 5466POPC   GL269314  40.902   5.870   6.164
 5466POPC   C1A69315  40.782   5.912   6.464
 5466POPC   D2A69316  40.791   5.838   6.764
 5466POPC   C3A69317  40.786   5.866   7.064
 5466POPC   C4A69318  40.798   5.874   7.364
 5466POPC   C1B69319  40.973   5.737   6.464
 5466POPC   C2B69320  41.030   5.771   6.764
 5466POPC   C3B69321  41.043   5.786   7.064
 5466POPC   C4B69322  41.062   5.828   7.364
 5467POPC   NC369323  30.744  26.771   5.564
 5467POPC   PO469324  30.652  26.797   5.864
 5467POPC   GL169325  30.680  26.855   6.164
 5467POPC   GL269326  30.541  26.799   6.164
 5467POPC   C1A69327  30.659  26.770   6.464
 5467POPC   D2A69328  30.728  26.811   6.764
 5467POPC   C3A69329  30.690  26.810   7.064
 5467POPC   C4A69330  30.660  26.852   7.364
 5467POPC   C1B69331  30.413  26.847   6.464
 5467POPC   C2B69332  30.485  26.836   6.764
 5467POPC   C3B69333  30.460  26.797   7.064
 5467POPC   C4B69334  30.482  26.796   7.364
 5468POPC   NC369335  39.196  37.680   5.564
 5468POPC   PO469336  39.280  37.636   5.864
 5468POPC   GL169337  39.275  37.696   6.164
 5468POPC   GL269338  39.332  37.742   6.164
 5468POPC   C1A69339  39.219  37.675   6.464
 5468POPC   D2A69340  39.218  37.656   6.764
 5468POPC   C3A69341  39.223  37.630   7.064
 5468POPC   C4A69342  39.250  37.707   7.364
 5468POPC   C1B69343  39.459  37.777   6.464
 5468POPC   C2B69344  39.412  37.745   6.764
 5468POPC   C3B69345  39.423  37.811   7.064
 5468POPC   C4B69346  39.418  37.807   7.364
 5469POPC   NC369347  19.884  19.080   5.564
 5469POPC   PO469348  19.843  19.021   5.864
 5469POPC   GL169349  19.803  19.099   6.164
 5469POPC   GL269350  19.849  19.182   6.164
 5469POPC   C1A69351  19.869  19.096   6.464
 5469POPC   D2A69352  19.874  19.088   6.764
 5469POPC   C3A69353  19.812  19.063   7.064
 5469POPC   C4A69354  19.823  19.085   7.364
 5469POPC   C1B69355  19.833  19.300   6.464
 5469POPC   C2B69356  19.874  19.257   6.764
 5469POPC   C3B69357  19.843  19.316   7.064
 5469POPC   C4B69358  19.844  19.282   7.364
 5470POPC   NC369359  26.809  36.947   5.564
 5470POPC   PO469360  26.815  36.927   5.864
 5470POPC   GL169361  26.803  36.934   6.164
 5470POPC   GL269362  26.952  36.960   6.164
 5470POPC   C1A69363  26.789  36.909   6.464
 5470POPC   D2A69364  26.784  36.915   6.764
 5470POPC   C3A69365  26.841  36.919   7.064
 5470POPC   C4A69366  26.769  36.928   7.364
 5470POPC   C1B69367  27.026  36.929   6.464
 5470POPC   C2B69368  27.108  36.906   6.764
 5470POPC   C3B69369  27.037  36.934   7.064
 5470POPC   C4B69370  27.024  36.949   7.364
 5471POPC   NC369371  38.436  31.437   5.564
 5471POPC   PO469372  38.406  31.476   5.864
 5471POPC   GL169373  38.472  31.466   6.164
 5471POPC   GL269374  38.436  31.397   6.164
 5471POPC   C1A69375  38.480  31.467   6.464
 5471POPC   D2A69376  38.422  31.492   6.764
 5471POPC   C3A69377  38.472  31.462   7.064
 5471POPC   C4A69378  38.465  31.426   7.364
 5471POPC   C1B69379  38.327  31.269   6.464
 5471POPC   C2B69380  38.315  31.252   6.764
 5471POPC   C3B69381  38.361  31.219   7.064
 5471POPC   C4B69382  38.289  31.292   7.364
 5472POPC   NC369383  12.108  26.066   5.564
 5472POPC   PO469384  12.092  26.022   5.864
 5472POPC   GL169385  12.125  26.041   6.164
 5472POPC   GL269386  12.195  25.967   6.164
 5472POPC   C1A69387  12.076  26.036   6.464
 5472POPC   D2A69388  12.046  26.046   6.764
 5472POPC   C3A69389  12.043  26.051   7.064
 5472POPC   C4A69390  12.081  26.008   7.364
 5472POPC   C1B69391  12.219  25.882   6.464
 5472POPC   C2B69392  12.262  25.885   6.764
 5472POPC   C3B69393  12.265  25.830   7.064
 5472POPC   C4B69394  12.223  25.824   7.364
 5473POPC   NC369395  43.089  22.911   5.564
 5473POPC   PO469396  43.066  22.951   5.864
 5473POPC   GL169397  43.074  22.961   6.164
 5473POPC   GL269398  43.204  22.978   6.164
 5473POPC   C1A69399  43.126  22.975   6.464
 5473POPC   D2A69400  43.127  22.894   6.764
 5473POPC   C3A69401  43.117  22.901   7.064
 5473POPC   C4A69402  43.068  22.971   7.364
 5473POPC   C1B69403  43.335  23.060   6.464
 5473POPC   C2B69404  43.361  23.101   6.764
 5473POPC   C3B69405  43.367  23.063   7.064
 5473POPC   C4B69406  43.356  23.052   7.364
 5474POPC   NC369407   4.365  19.878   5.564
 5474POPC   PO469408   4.313  19.880   5.864
 5474POPC   GL169409   4.275  19.842   6.164
 5474POPC   GL269410   4.249  19.741   6.164
 5474POPC   C1A69411   4.348  19.826   6.464
 5474POPC   D2A69412   4.339  19.813   6.764
 5474POPC   C3A69413   4.366  19.818   7.064
 5474POPC   C4A69414   4.295  19.791   7.364
 5474POPC   C1B69415   4.180  19.679   6.464
 5474POPC   C2B69416   4.156  19.603   6.764
 5474POPC   C3B69417   4.122  19.611   7.064
 5474POPC   C4B69418   4.175  19.676   7.364
 5475POPC   NC369419  25.270  41.536   5.564
 5475POPC   PO469420  25.314  41.509   5.864
 5475POPC   GL169421  25.249  41.524   6.164
 5475POPC   GL269422  25.388  41.549   6.164
 5475POPC   C1A69423  25.236  41.529   6.464
 5475POPC   D2A69424  25.256  41.585   6.764
 5475POPC   C3A69425  25.313  41.544   7.064
 5475POPC   C4A69426  25.248  41.520   7.364
 5475POPC   C1B69427  25.466  41.397   6.464
 5475POPC   C2B69428  25.440  41.486   6.764
 5475POPC   C3B69429  25.492  41.479   7.064
 5475POPC   C4B69430  25.442  41.476   7.364
 5476POPC   NC369431   8.984  15.130   5.564
 5476POPC   PO469432   9.022  15.195   5.864
 5476POPC   GL169433   8.972  15.193   6.164
 5476POPC   GL269434   8.887  15.074   6.164
 5476POPC   C1A69435   9.010  15.197   6.464
 5476POPC   D2A69436   8.977  15.228   6.764
 5476POPC   C3A69437   8.937  15.201   7.064
 5476POPC   C4A69438   9.001  15.190   7.364
 5476POPC   C1B69439   8.800  15.015   6.464
 5476POPC   C2B69440   8.767  15.025   6.764
 5476POPC   C3B69441   8.758  15.038   7.064
 5476POPC   C4B69442   8.824  15.040   7.364
 5477POPC   NC369443  33.072   3.510   5.564
 5477POPC   PO469444  33.011   3.505   5.864
 5477POPC   GL169445  32.981   3.527   6.164
 5477POPC   GL269446  33.101   3.443   6.164
 5477POPC   C1A69447  32.995   3.548   6.464
 5477POPC   D2A69448  33.049   3.587   6.764
 5477POPC   C3A69449  33.036   3.564   7.064
 5477POPC   C4A69450  33.018   3.515   7.364
 5477POPC   C1B69451  33.177   3.404   6.464
 5477POPC   C2B69452  33.172   3.385   6.764
 5477POPC   C3B69453  33.230   3.413   7.064
 5477POPC   C4B69454  33.248   3.412   7.364
 5478POPC   NC369455  18.237  24.468   5.564
 5478POPC   PO469456  18.302  24.489   5.864
 5478POPC   GL169457  18.244  24.452   6.164
 5478POPC   GL269458  18.217  24.393   6.164
 5478POPC   C1A69459  18.307  24.503   6.464
 5478POPC   D2A69460  18.328  24.484   6.764
 5478POPC   C3A69461  18.290  24.451   7.064
 5478POPC   C4A69462  18.269  24.521   7.364
 5478POPC   C1B69463  18.077  24.299   6.464
 5478POPC   C2B69464  18.085  24.323   6.764
 5478POPC   C3B69465  18.115  24.268   7.064
 5478POPC   C4B69466  18.105  24.284   7.364
 5479POPC   NC369467  29.928  36.148   5.564
 5479POPC   PO469468  29.965  36.128   5.864
 5479POPC   GL169469  29.906  36.159   6.164
 5479POPC   GL269470  29.988  36.039   6.164
 5479POPC   C1A69471  29.940  36.101   6.464
 5479POPC   D2A69472  29.921  36.087   6.764
 5479POPC   C3A69473  29.969  36.122   7.064
 5479POPC   C4A69474  29.967  36.118   7.364
 5479POPC   C1B69475  29.990  35.858   6.464
 5479POPC   C2B69476  29.943  35.887   6.764
 5479POPC   C3B69477  29.992  35.876   7.064
 5479POPC   C4B69478  30.016  35.894   7.364
 5480POPC   NC369479   4.314  10.486   5.564
 5480POPC   PO469480   4.304  10.509   5.864
 5480POPC   GL169481   4.297  10.491   6.164
 5480POPC   GL269482   4.373  10.635   6.164
 5480POPC   C1A69483   4.339  10.517   6.464
 5480POPC   D2A69484   4.349  10.488   6.764
 5480POPC   C3A69485   4.315  10.489   7.064
 5480POPC   C4A69486   4.299  10.543   7.364
 5480POPC   C1B69487   4.390  10.766   6.464
 5480POPC   C2B69488   4.385  10.771   6.764
 5480POPC   C3B69489   4.386  10.746   7.064
 5480POPC   C4B69490   4.377  10.756   7.364
 5481POPC   NC369491   6.659  18.331   5.564
 5481POPC   PO469492   6.650  18.249   5.864
 5481POPC   GL169493   6.610  18.311   6.164
 5481POPC   GL269494   6.698  18.244   6.164
 5481POPC   C1A69495   6.597  18.235   6.464
 5481POPC   D2A69496   6.633  18.259   6.764
 5481POPC   C3A69497   6.653  18.266   7.064
 5481POPC   C4A69498   6.625  18.236   7.364
 5481POPC   C1B69499   6.867  18.152   6.464
 5481POPC   C2B69500   6.830  18.086   6.764
 5481POPC   C3B69501   6.865  18.151   7.064
 5481POPC   C4B69502   6.828  18.103   7.364
 5482POPC   NC369503  40.032  14.358   5.564
 5482POPC   PO469504  39.964  14.443   5.864
 5482POPC   GL169505  39.999  14.416   6.164
 5482POPC   GL269506  40.056  14.341   6.164
 5482POPC   C1A69507  40.042  14.402   6.464
 5482POPC   D2A69508  40.020  14.441   6.764
 5482POPC   C3A69509  39.960  14.404   7.064
 5482POPC   C4A69510  40.030  14.408   7.364
 5482POPC   C1B69511  40.152  14.197   6.464
 5482POPC   C2B69512  40.142  14.192   6.764
 5482POPC   C3B69513  40.178  14.171   7.064
 5482POPC   C4B69514  40.180  14.240   7.364
 5483POPC   NC369515  26.047   2.000   5.564
 5483POPC   PO469516  26.087   1.964   5.864
 5483POPC   GL169517  26.020   2.014   6.164
 5483POPC   GL269518  25.974   1.907   6.164
 5483POPC   C1A69519  26.065   1.992   6.464
 5483POPC   D2A69520  26.091   2.033   6.764
 5483POPC   C3A69521  25.993   1.971   7.064
 5483POPC   C4A69522  26.015   1.957   7.364
 5483POPC   C1B69523  25.923   1.789   6.464
 5483POPC   C2B69524  25.889   1.762   6.764
 5483POPC   C3B69525  25.913   1.752   7.064
 5483POPC   C4B69526  25.965   1.806   7.364
 5484POPC   NC369527   8.967  40.003   5.564
 5484POPC   PO469528   8.937  40.015   5.864
 5484POPC   GL169529   8.933  39.967   6.164
 5484POPC   GL269530   9.006  39.909   6.164
 5484POPC   C1A69531   8.983  40.007   6.464
 5484POPC   D2A69532   9.008  40.011   6.764
 5484POPC   C3A69533   8.967  39.997   7.064
 5484POPC   C4A69534   8.990  40.018   7.364
 5484POPC   C1B69535   9.117  39.738   6.464
 5484POPC   C2B69536   9.079  39.770   6.764
 5484POPC   C3B69537   9.027  39.752   7.064
 5484POPC   C4B69538   9.063  39.770   7.364
 5485POPC   NC369539  27.546  14.381   5.564
 5485POPC   PO469540  27.575  14.431   5.864
 5485POPC   GL169541  27.626  14.355   6.164
 5485POPC   GL269542  27.671  14.500   6.164
 5485POPC   C1A69543  27.606  14.358   6.464
 5485POPC   D2A69544  27.578  14.430   6.764
 5485POPC   C3A69545  27.603  14.436   7.064
 5485POPC   C4A69546  27.643  14.405   7.364
 5485POPC   C1B69547  27.724  14.601   6.464
 5485POPC   C2B69548  27.733  14.566   6.764
 5485POPC   C3B69549  27.763  14.579   7.064
 5485POPC   C4B69550  27.733  14.547   7.364
 5486POPC   NC369551  43.100  39.225   5.564
 5486POPC   PO469552  43.154  39.201   5.864
 5486POPC   GL169553  43.125  39.206   6.164
 5486POPC   GL269554  43.214  39.269   6.164
 5486POPC   C1A69555  43.093  39.195   6.464
 5486POPC   D2A69556  43.081  39.243   6.764
 5486POPC   C3A69557  43.148  39.191   7.064
 5486POPC   C4A69558  43.107  39.216   7.364
 5486POPC   C1B69559  43.246  39.416   6.464
 5486POPC   C2B69560  43.245  39.380   6.764
 5486POPC   C3B69561  43.340  39.413   7.064
 5486POPC   C4B69562  43.281  39.448   7.364
 5487POPC   NC369563   6.654   5.907   5.564
 5487POPC   PO469564   6.595   5.909   5.864
 5487POPC   GL169565   6.692   5.847   6.164
 5487POPC   GL269566   6.580   5.826   6.164
 5487POPC   C1A69567   6.610   5.904   6.464
 5487POPC   D2A69568   6.627   5.855   6.764
 5487POPC   C3A69569   6.610   5.914   7.064
 5487POPC   C4A69570   6.616   5.852   7.364
 5487POPC   C1B69571   6.471   5.767   6.464
 5487POPC   C2B69572   6.475   5.742   6.764
 5487POPC   C3B69573   6.450   5.724   7.064
 5487POPC   C4B69574   6.429   5.691   7.364
 5488POPC   NC369575  39.234   3.511   5.564
 5488POPC   PO469576  39.227   3.511   5.864
 5488POPC   GL169577  39.203   3.548   6.164
 5488POPC   GL269578  39.064   3.575   6.164
 5488POPC   C1A69579  39.254   3.569   6.464
 5488POPC   D2A69580  39.273   3.569   6.764
 5488POPC   C3A69581  39.203   3.508   7.064
 5488POPC   C4A69582  39.230   3.557   7.364
 5488POPC   C1B69583  38.942   3.649   6.464
 5488POPC   C2B69584  38.967   3.651   6.764
 5488POPC   C3B69585  39.034   3.618   7.064
 5488POPC   C4B69586  39.037   3.574   7.364
 5489POPC   NC369587  31.443  18.247   5.564
 5489POPC   PO469588  31.445  18.285   5.864
 5489POPC   GL169589  31.462  18.260   6.164
 5489POPC   GL269590  31.538  18.155   6.164
 5489POPC   C1A69591  31.468  18.247   6.464
 5489POPC   D2A69592  31.483  18.317   6.764
 5489POPC   C3A69593  31.466  18.282   7.064
 5489POPC   C4A69594  31.516  18.281   7.364
 5489POPC   C1B69595  31.522  18.004   6.464
 5489POPC   C2B69596  31.600  18.040   6.764
 5489POPC   C3B69597  31.529  18.090   7.064
 5489POPC   C4B69598  31.567  18.061   7.364
 5490POPC   NC369599  23.763  23.707   5.564
 5490POPC   PO469600  23.693  23.740   5.864
 5490POPC   GL169601  23.696  23.757   6.164
 5490POPC   GL269602  23.630  23.725   6.164
 5490POPC   C1A69603  23.747  23.716   6.464
 5490POPC   D2A69604  23.679  23.683   6.764
 5490POPC   C3A69605  23.676  23.760   7.064
 5490POPC   C4A69606  23.677  23.704   7.364
 5490POPC   C1B69607  23.512  23.720   6.464
 5490POPC   C2B69608  23.480  23.723   6.764
 5490POPC   C3B69609  23.433  23.753   7.064
 5490POPC   C4B69610  23.468  23.807   7.364
 5491POPC   NC369611   6.656  29.916   5.564
 5491POPC   PO469612   6.693  29.876   5.864
 5491POPC   GL169613   6.604  29.970   6.164
 5491POPC   GL269614   6.605  29.842   6.164
 5491POPC   C1A69615   6.660  29.954   6.464
 5491POPC   D2A69616   6.686  29.946   6.764
 5491POPC   C3A69617   6.665  29.912   7.064
 5491POPC   C4A69618   6.661  29.898   7.364
 5491POPC   C1B69619   6.472  29.686   6.464
 5491POPC   C2B69620   6.557  29.684   6.764
 5491POPC   C3B69621   6.484  29.663   7.064
 5491POPC   C4B69622   6.514  29.754   7.364
 5492POPC   NC369623   5.095  40.811   5.564
 5492POPC   PO469624   5.119  40.749   5.864
 5492POPC   GL169625   5.110  40.750   6.164
 5492POPC   GL269626   5.110  40.611   6.164
 5492POPC   C1A69627   5.081  40.832   6.464
 5492POPC   D2A69628   5.100  40.805   6.764
 5492POPC   C3A69629   5.104  40.802   7.064
 5492POPC   C4A69630   5.077  40.791   7.364
 5492POPC   C1B69631   5.016  40.536   6.464
 5492POPC   C2B69632   5.039  40.576   6.764
 5492POPC   C3B69633   5.097  40.573   7.064
 5492POPC   C4B69634   5.060  40.549   7.364
 5493POPC   NC369635  34.557  22.926   5.564
 5493POPC   PO469636  34.533  22.895   5.864
 5493POPC   GL169637  34.551  22.893   6.164
 5493POPC   GL269638  34.653  22.854   6.164
 5493POPC   C1A69639  34.595  22.977   6.464
 5493POPC   D2A69640  34.554  22.966   6.764
 5493POPC   C3A69641  34.549  22.983   7.064
 5493POPC   C4A69642  34.545  22.935   7.364
 5493POPC   C1B69643  34.667  22.661   6.464
 5493POPC   C2B69644  34.690  22.679   6.764
 5493POPC   C3B69645  34.651  22.742   7.064
 5493POPC   C4B69646  34.678  22.716   7.364
 5494POPC   NC369647  23.716  32.229   5.564
 5494POPC   PO469648  23.758  32.274   5.864
 5494POPC   GL169649  23.715  32.250   6.164
 5494POPC   GL269650  23.667  32.298   6.164
 5494POPC   C1A69651  23.761  32.237   6.464
 5494POPC   D2A69652  23.760  32.228   6.764
 5494POPC   C3A69653  23.749  32.234   7.064
 5494POPC   C4A69654  23.717  32.270   7.364
 5494POPC   C1B69655  23.570  32.412   6.464
 5494POPC   C2B69656  23.542  32.434   6.764
 5494POPC   C3B69657  23.477  32.370   7.064
 5494POPC   C4B69658  23.527  32.381   7.364
 5495POPC   NC369659  22.114  24.527   5.564
 5495POPC   PO469660  22.193  24.475   5.864
 5495POPC   GL169661  22.169  24.484   6.164
 5495POPC   GL269662  22.047  24.542   6.164
 5495POPC   C1A69663  22.194  24.484   6.464
 5495POPC   D2A69664  22.180  24.461   6.764
 5495POPC   C3A69665  22.175  24.531   7.064
 5495POPC   C4A69666  22.142  24.475   7.364
 5495POPC   C1B69667  21.940  24.638   6.464
 5495POPC   C2B69668  21.978  24.676   6.764
 5495POPC   C3B69669  22.012  24.694   7.064
 5495POPC   C4B69670  22.006  24.673   7.364
 5496POPC   NC369671  10.485  39.268   5.564
 5496POPC   PO469672  10.527  39.262   5.864
 5496POPC   GL169673  10.484  39.265   6.164
 5496POPC   GL269674  10.503  39.143   6.164
 5496POPC   C1A69675  10.558  39.252   6.464
 5496POPC   D2A69676  10.532  39.211   6.764
 5496POPC   C3A69677  10.520  39.267   7.064
 5496POPC   C4A69678  10.545  39.221   7.364
 5496POPC   C1B69679  10.394  39.030   6.464
 5496POPC   C2B69680  10.415  39.038   6.764
 5496POPC   C3B69681  10.384  39.030   7.064
 5496POPC   C4B69682  10.419  39.020   7.364
 5497POPC   NC369683  36.157  44.707   5.564
 5497POPC   PO469684  36.176  44.679   5.864
 5497POPC   GL169685  36.102  44.682   6.164
 5497POPC   GL269686  36.005  44.587   6.164
 5497POPC   C1A69687  36.133  44.642   6.464
 5497POPC   D2A69688  36.127  44.687   6.764
 5497POPC   C3A69689  36.133  44.623   7.064
 5497POPC   C4A69690  36.139  44.706   7.364
 5497POPC   C1B69691  35.884  44.616   6.464
 5497POPC   C2B69692  35.841  44.582   6.764
 5497POPC   C3B69693  35.872  44.605   7.064
 5497POPC   C4B69694  35.865  44.619   7.364
 5498POPC   NC369695  34.605  28.321   5.564
 5498POPC   PO469696  34.584  28.333   5.864
 5498POPC   GL169697  34.590  28.388   6.164
 5498POPC   GL269698  34.597  28.221   6.164
 5498POPC   C1A69699  34.566  28.377   6.464
 5498POPC   D2A69700  34.600  28.375   6.764
 5498POPC   C3A69701  34.593  28.356   7.064
 5498POPC   C4A69702  34.590  28.364   7.364
 5498POPC   C1B69703  34.659  28.171   6.464
 5498POPC   C2B69704  34.703  28.163   6.764
 5498POPC   C3B69705  34.652  28.114   7.064
 5498POPC   C4B69706  34.642  28.104   7.364
 5499POPC   NC369707  17.550  43.865   5.564
 5499POPC   PO469708  17.538  43.887   5.864
 5499POPC   GL169709  17.495  43.886   6.164
 5499POPC   GL269710  17.463  43.953   6.164
 5499POPC   C1A69711  17.554  43.890   6.464
 5499POPC   D2A69712  17.493  43.930   6.764
 5499POPC   C3A69713  17.474  43.851   7.064
 5499POPC   C4A69714  17.510  43.916   7.364
 5499POPC   C1B69715  17.374  44.055   6.464
 5499POPC   C2B69716  17.383  44.037   6.764
 5499POPC   C3B69717  17.349  44.029   7.064
 5499POPC   C4B69718  17.340  44.084   7.364
 5500POPC   NC369719  27.637   8.949   5.564
 5500POPC   PO469720  27.554   8.978   5.864
 5500POPC   GL169721  27.581   8.952   6.164
 5500POPC   GL269722  27.593   8.892   6.164
 5500POPC   C1A69723  27.636   8.992   6.464
 5500POPC   D2A69724  27.620   9.005   6.764
 5500POPC   C3A69725  27.583   8.954   7.064
 5500POPC   C4A69726  27.607   8.926   7.364
 5500POPC   C1B69727  27.548   8.767   6.464
 5500POPC   C2B69728  27.534   8.733   6.764
 5500POPC   C3B69729  27.514   8.722   7.064
 5500POPC   C4B69730  27.515   8.699   7.364
 5501POPC   NC369731  20.629  31.452   5.564
 5501POPC   PO469732  20.652  31.517   5.864
 5501POPC   GL169733  20.642  31.512   6.164
 5501POPC   GL269734  20.508  31.508   6.164
 5501POPC   C1A69735  20.583  31.478   6.464
 5501POPC   D2A69736  20.654  31.490   6.764
 5501POPC   C3A69737  20.595  31.425   7.064
 5501POPC   C4A69738  20.608  31.461   7.364
 5501POPC   C1B69739  20.393  31.490   6.464
 5501POPC   C2B69740  20.395  31.525   6.764
 5501POPC   C3B69741  20.327  31.543   7.064
 5501POPC   C4B69742  20.334  31.528   7.364
 5502POPC   NC369743  32.254   8.995   5.564
 5502POPC   PO469744  32.272   8.999   5.864
 5502POPC   GL169745  32.216   8.990   6.164
 5502POPC   GL269746  32.290   8.839   6.164
 5502POPC   C1A69747  32.199   8.982   6.464
 5502POPC   D2A69748  32.218   9.003   6.764
 5502POPC   C3A69749  32.221   8.977   7.064
 5502POPC   C4A69750  32.232   8.988   7.364
 5502POPC   C1B69751  32.390   8.781   6.464
 5502POPC   C2B69752  32.467   8.843   6.764
 5502POPC   C3B69753  32.439   8.773   7.064
 5502POPC   C4B69754  32.377   8.818   7.364
 5503POPC   NC369755  10.542  36.137   5.564
 5503POPC   PO469756  10.574  36.116   5.864
 5503POPC   GL169757  10.510  36.171   6.164
 5503POPC   GL269758  10.440  36.145   6.164
 5503POPC   C1A69759  10.493  36.147   6.464
 5503POPC   D2A69760  10.543  36.111   6.764
 5503POPC   C3A69761  10.517  36.130   7.064
 5503POPC   C4A69762  10.475  36.165   7.364
 5503POPC   C1B69763  10.265  36.153   6.464
 5503POPC   C2B69764  10.255  36.093   6.764
 5503POPC   C3B69765  10.299  36.167   7.064
 5503POPC   C4B69766  10.289  36.099   7.364
 5504POPC   NC369767  12.073   7.431   5.564
 5504POPC   PO469768  12.048   7.377   5.864
 5504POPC   GL169769  12.092   7.442   6.164
 5504POPC   GL269770  11.947   7.377   6.164
 5504POPC   C1A69771  12.055   7.465   6.464
 5504POPC   D2A69772  12.049   7.421   6.764
 5504POPC   C3A69773  12.095   7.443   7.064
 5504POPC   C4A69774  12.033   7.438   7.364
 5504POPC   C1B69775  11.916   7.248   6.464
 5504POPC   C2B69776  11.889   7.257   6.764
 5504POPC   C3B69777  11.871   7.207   7.064
 5504POPC   C4B69778  11.910   7.285   7.364
 5505POPC   NC369779  17.520  20.573   5.564
 5505POPC   PO469780  17.535  20.644   5.864
 5505POPC   GL169781  17.545  20.626   6.164
 5505POPC   GL269782  17.435  20.633   6.164
 5505POPC   C1A69783  17.461  20.645   6.464
 5505POPC   D2A69784  17.537  20.598   6.764
 5505POPC   C3A69785  17.508  20.620   7.064
 5505POPC   C4A69786  17.524  20.609   7.364
 5505POPC   C1B69787  17.266  20.712   6.464
 5505POPC   C2B69788  17.306  20.783   6.764
 5505POPC   C3B69789  17.340  20.738   7.064
 5505POPC   C4B69790  17.280  20.714   7.364
 5506POPC   NC369791  17.479  22.193   5.564
 5506POPC   PO469792  17.546  22.174   5.864
 5506POPC   GL169793  17.532  22.169   6.164
 5506POPC   GL269794  17.430  22.112   6.164
 5506POPC   C1A69795  17.553  22.187   6.464
 5506POPC   D2A69796  17.523  22.129   6.764
 5506POPC   C3A69797  17.476  22.149   7.064
 5506POPC   C4A69798  17.523  22.165   7.364
 5506POPC   C1B69799  17.226  22.033   6.464
 5506POPC   C2B69800  17.241  22.088   6.764
 5506POPC   C3B69801  17.315  22.083   7.064
 5506POPC   C4B69802  17.317  22.072   7.364
 5507POPC   NC369803  21.388  32.277   5.564
 5507POPC   PO469804  21.357  32.277   5.864
 5507POPC   GL169805  21.402  32.298   6.164
 5507POPC   GL269806  21.364  32.350   6.164
 5507POPC   C1A69807  21.339  32.223   6.464
 5507POPC   D2A69808  21.363  32.206   6.764
 5507POPC   C3A69809  21.416  32.291   7.064
 5507POPC   C4A69810  21.411  32.210   7.364
 5507POPC   C1B69811  21.210  32.489   6.464
 5507POPC   C2B69812  21.236  32.437   6.764
 5507POPC   C3B69813  21.227  32.420   7.064
 5507POPC   C4B69814  21.283  32.454   7.364
 5508POPC   NC369815  43.158  15.182   5.564
 5508POPC   PO469816  43.141  15.188   5.864
 5508POPC   GL169817  43.114  15.133   6.164
 5508POPC   GL269818  43.068  15.329   6.164
 5508POPC   C1A69819  43.084  15.183   6.464
 5508POPC   D2A69820  43.115  15.160   6.764
 5508POPC   C3A69821  43.160  15.207   7.064
 5508POPC   C4A69822  43.080  15.193   7.364
 5508POPC   C1B69823  43.034  15.427   6.464
 5508POPC   C2B69824  43.085  15.425   6.764
 5508POPC   C3B69825  43.017  15.448   7.064
 5508POPC   C4B69826  43.077  15.418   7.364
 5509POPC   NC369827  33.843  19.062   5.564
 5509POPC   PO469828  33.780  19.025   5.864
 5509POPC   GL169829  33.797  19.049   6.164
 5509POPC   GL269830  33.650  19.129   6.164
 5509POPC   C1A69831  33.788  19.009   6.464
 5509POPC   D2A69832  33.754  19.010   6.764
 5509POPC   C3A69833  33.782  19.070   7.064
 5509POPC   C4A69834  33.762  19.039   7.364
 5509POPC   C1B69835  33.549  19.229   6.464
 5509POPC   C2B69836  33.590  19.178   6.764
 5509POPC   C3B69837  33.551  19.223   7.064
 5509POPC   C4B69838  33.560  19.169   7.364
 5510POPC   NC369839   5.905  39.197   5.564
 5510POPC   PO469840   5.890  39.214   5.864
 5510POPC   GL169841   5.912  39.193   6.164
 5510POPC   GL269842   5.908  39.082   6.164
 5510POPC   C1A69843   5.888  39.242   6.464
 5510POPC   D2A69844   5.899  39.228   6.764
 5510POPC   C3A69845   5.856  39.280   7.064
 5510POPC   C4A69846   5.866  39.216   7.364
 5510POPC   C1B69847   5.861  38.944   6.464
 5510POPC   C2B69848   5.836  38.993   6.764
 5510POPC   C3B69849   5.869  39.006   7.064
 5510POPC   C4B69850   5.867  38.956   7.364
 5511POPC   NC369851  35.389  22.171   5.564
 5511POPC   PO469852  35.378  22.170   5.864
 5511POPC   GL169853  35.401  22.167   6.164
 5511POPC   GL269854  35.476  22.234   6.164
 5511POPC   C1A69855  35.341  22.117   6.464
 5511POPC   D2A69856  35.386  22.177   6.764
 5511POPC   C3A69857  35.398  22.198   7.064
 5511POPC   C4A69858  35.386  22.187   7.364
 5511POPC   C1B69859  35.519  22.387   6.464
 5511POPC   C2B69860  35.462  22.370   6.764
 5511POPC   C3B69861  35.457  22.386   7.064
 5511POPC   C4B69862  35.503  22.399   7.364
 5512POPC   NC369863   5.086  27.584   5.564
 5512POPC   PO469864   5.044  27.627   5.864
 5512POPC   GL169865   5.102  27.599   6.164
 5512POPC   GL269866   5.021  27.438   6.164
 5512POPC   C1A69867   5.096  27.640   6.464
 5512POPC   D2A69868   5.134  27.586   6.764
 5512POPC   C3A69869   5.058  27.554   7.064
 5512POPC   C4A69870   5.110  27.583   7.364
 5512POPC   C1B69871   5.038  27.384   6.464
 5512POPC   C2B69872   5.013  27.411   6.764
 5512POPC   C3B69873   5.020  27.335   7.064
 5512POPC   C4B69874   4.990  27.378   7.364
 5513POPC   NC369875  31.497  10.543   5.564
 5513POPC   PO469876  31.423  10.476   5.864
 5513POPC   GL169877  31.471  10.561   6.164
 5513POPC   GL269878  31.586  10.490   6.164
 5513POPC   C1A69879  31.493  10.476   6.464
 5513POPC   D2A69880  31.477  10.475   6.764
 5513POPC   C3A69881  31.449  10.481   7.064
 5513POPC   C4A69882  31.478  10.571   7.364
 5513POPC   C1B69883  31.681  10.441   6.464
 5513POPC   C2B69884  31.757  10.404   6.764
 5513POPC   C3B69885  31.662  10.473   7.064
 5513POPC   C4B69886  31.698  10.449   7.364
 5514POPC   NC369887  14.426   9.743   5.564
 5514POPC   PO469888  14.399   9.752   5.864
 5514POPC   GL169889  14.411   9.760   6.164
 5514POPC   GL269890  14.477   9.869   6.164
 5514POPC   C1A69891  14.391   9.726   6.464
 5514POPC   D2A69892  14.355   9.740   6.764
 5514POPC   C3A69893  14.407   9.732   7.064
 5514POPC   C4A69894  14.362   9.730   7.364
 5514POPC   C1B69895  14.573   9.885   6.464
 5514POPC   C2B69896  14.550   9.875   6.764
 5514POPC   C3B69897  14.586   9.945   7.064
 5514POPC   C4B69898  14.555   9.865   7.364
 5515POPC   NC369899  26.035   8.196   5.564
 5515POPC   PO469900  26.048   8.182   5.864
 5515POPC   GL169901  26.081   8.203   6.164
 5515POPC   GL269902  26.192   8.177   6.164
 5515POPC   C1A69903  26.022   8.225   6.464
 5515POPC   D2A69904  26.088   8.157   6.764
 5515POPC   C3A69905  26.057   8.178   7.064
 5515POPC   C4A69906  26.071   8.220   7.364
 5515POPC   C1B69907  26.325   8.119   6.464
 5515POPC   C2B69908  26.301   8.118   6.764
 5515POPC   C3B69909  26.282   8.162   7.064
 5515POPC   C4B69910  26.261   8.191   7.364
 5516POPC   NC369911  40.807  43.106   5.564
 5516POPC   PO469912  40.764  43.144   5.864
 5516POPC   GL169913  40.817  43.136   6.164
 5516POPC   GL269914  40.814  43.180   6.164
 5516POPC   C1A69915  40.753  43.098   6.464
 5516POPC   D2A69916  40.799  43.077   6.764
 5516POPC   C3A69917  40.815  43.108   7.064
 5516POPC   C4A69918  40.810  43.139   7.364
 5516POPC   C1B69919  40.823  43.310   6.464
 5516POPC   C2B69920  40.863  43.389   6.764
 5516POPC   C3B69921  40.894  43.312   7.064
 5516POPC   C4B69922  40.895  43.310   7.364
 5517POPC   NC369923  43.864  17.472   5.564
 5517POPC   PO469924  43.890  17.555   5.864
 5517POPC   GL169925  43.914  17.468   6.164
 5517POPC   GL269926  43.841  17.386   6.164
 5517POPC   C1A69927  43.936  17.470   6.464
 5517POPC   D2A69928  43.885  17.501   6.764
 5517POPC   C3A69929  43.907  17.478   7.064
 5517POPC   C4A69930  43.847  17.473   7.364
 5517POPC   C1B69931  43.856  17.298   6.464
 5517POPC   C2B69932  43.825  17.252   6.764
 5517POPC   C3B69933  43.810  17.264   7.064
 5517POPC   C4B69934  43.829  17.288   7.364
 5518POPC   NC369935  39.975   5.915   5.564
 5518POPC   PO469936  39.960   5.909   5.864
 5518POPC   GL169937  39.979   5.823   6.164
 5518POPC   GL269938  39.934   6.013   6.164
 5518POPC   C1A69939  40.034   5.897   6.464
 5518POPC   D2A69940  39.962   5.872   6.764
 5518POPC   C3A69941  40.041   5.838   7.064
 5518POPC   C4A69942  40.018   5.878   7.364
 5518POPC   C1B69943  39.931   6.083   6.464
 5518POPC   C2B69944  39.876   6.124   6.764
 5518POPC   C3B69945  39.899   6.059   7.064
 5518POPC   C4B69946  39.903   6.065   7.364
 5519POPC   NC369947  41.574   6.666   5.564
 5519POPC   PO469948  41.560   6.628   5.864
 5519POPC   GL169949  41.520   6.604   6.164
 5519POPC   GL269950  41.462   6.678   6.164
 5519POPC   C1A69951  41.568   6.640   6.464
 5519POPC   D2A69952  41.597   6.603   6.764
 5519POPC   C3A69953  41.558   6.657   7.064
 5519POPC   C4A69954  41.547   6.624   7.364
 5519POPC   C1B69955  41.327   6.814   6.464
 5519POPC   C2B69956  41.374   6.790   6.764
 5519POPC   C3B69957  41.354   6.829   7.064
 5519POPC   C4B69958  41.409   6.760   7.364
 5520POPC   NC369959   3.494   8.162   5.564
 5520POPC   PO469960   3.580   8.172   5.864
 5520POPC   GL169961   3.551   8.201   6.164
 5520POPC   GL269962   3.585   8.029   6.164
 5520POPC   C1A69963   3.564   8.235   6.464
 5520POPC   D2A69964   3.536   8.157   6.764
 5520POPC   C3A69965   3.574   8.170   7.064
 5520POPC   C4A69966   3.576   8.202   7.364
 5520POPC   C1B69967   3.596   7.996   6.464
 5520POPC   C2B69968   3.536   7.940   6.764
 5520POPC   C3B69969   3.560   7.977   7.064
 5520POPC   C4B69970   3.553   7.937   7.364
 5521POPC   NC369971  26.074  19.851   5.564
 5521POPC   PO469972  26.059  19.813   5.864
 5521POPC   GL169973  26.050  19.801   6.164
 5521POPC   GL269974  26.134  19.813   6.164
 5521POPC   C1A69975  26.025  19.838   6.464
 5521POPC   D2A69976  26.038  19.833   6.764
 5521POPC   C3A69977  26.062  19.799   7.064
 5521POPC   C4A69978  26.077  19.860   7.364
 5521POPC   C1B69979  26.234  19.737   6.464
 5521POPC   C2B69980  26.279  19.720   6.764
 5521POPC   C3B69981  26.235  19.758   7.064
 5521POPC   C4B69982  26.272  19.703   7.364
 5522POPC   NC369983   9.001   2.754   5.564
 5522POPC   PO469984   8.942   2.736   5.864
 5522POPC   GL169985   8.978   2.810   6.164
 5522POPC   GL269986   9.096   2.646   6.164
 5522POPC   C1A69987   8.983   2.766   6.464
 5522POPC   D2A69988   8.997   2.769   6.764
 5522POPC   C3A69989   8.967   2.734   7.064
 5522POPC   C4A69990   9.008   2.802   7.364
 5522POPC   C1B69991   9.184   2.621   6.464
 5522POPC   C2B69992   9.157   2.629   6.764
 5522POPC   C3B69993   9.153   2.640   7.064
 5522POPC   C4B69994   9.153   2.601   7.364
 5523POPC   NC369995   9.782  25.223   5.564
 5523POPC   PO469996   9.770  25.314   5.864
 5523POPC   GL169997   9.717  25.257   6.164
 5523POPC   GL269998   9.716  25.376   6.164
 5523POPC   C1A69999   9.737  25.289   6.464
 5523POPC   D2A70000   9.794  25.261   6.764
 5523POPC   C3A70001   9.792  25.277   7.064
 5523POPC   C4A70002   9.738  25.266   7.364
 5523POPC   C1B70003   9.591  25.511   6.464
 5523POPC   C2B70004   9.661  25.463   6.764
 5523POPC   C3B70005   9.584  25.456   7.064
 5523POPC   C4B70006   9.611  25.477   7.364
 5524POPC   NC370007  26.802  19.037   5.564
 5524POPC   PO470008  26.841  19.068   5.864
 5524POPC   GL170009  26.780  19.037   6.164
 5524POPC   GL270010  26.866  18.951   6.164
 5524POPC   C1A70011  26.840  19.011   6.464
 5524POPC   D2A70012  26.767  19.044   6.764
 5524POPC   C3A70013  26.772  19.020   7.064
 5524POPC   C4A70014  26.792  19.040   7.364
 5524POPC   C1B70015  26.981  18.828   6.464
 5524POPC   C2B70016  26.983  18.861   6.764
 5524POPC   C3B70017  26.987  18.833   7.064
 5524POPC   C4B70018  27.017  18.824   7.364
 5525POPC   NC370019   8.994  23.665   5.564
 5525POPC   PO470020   8.967  23.667   5.864
 5525POPC   GL170021   8.973  23.761   6.164
 5525POPC   GL270022   9.102  23.682   6.164
 5525POPC   C1A70023   8.993  23.724   6.464
 5525POPC   D2A70024   8.954  23.681   6.764
 5525POPC   C3A70025   8.999  23.733   7.064
 5525POPC   C4A70026   8.965  23.735   7.364
 5525POPC   C1B70027   9.173  23.623   6.464
 5525POPC   C2B70028   9.186  23.638   6.764
 5525POPC   C3B70029   9.158  23.642   7.064
 5525POPC   C4B70030   9.206  23.605   7.364
 5526POPC   NC370031  32.274   1.196   5.564
 5526POPC   PO470032  32.287   1.242   5.864
 5526POPC   GL170033  32.260   1.244   6.164
 5526POPC   GL270034  32.110   1.310   6.164
 5526POPC   C1A70035  32.255   1.189   6.464
 5526POPC   D2A70036  32.225   1.210   6.764
 5526POPC   C3A70037  32.250   1.169   7.064
 5526POPC   C4A70038  32.262   1.188   7.364
 5526POPC   C1B70039  32.055   1.328   6.464
 5526POPC   C2B70040  32.067   1.280   6.764
 5526POPC   C3B70041  32.071   1.331   7.064
 5526POPC   C4B70042  32.051   1.315   7.364
 5527POPC   NC370043   8.243   0.405   5.564
 5527POPC   PO470044   8.233   0.440   5.864
 5527POPC   GL170045   8.180   0.480   6.164
 5527POPC   GL270046   8.195   0.604   6.164
 5527POPC   C1A70047   8.179   0.471   6.464
 5527POPC   D2A70048   8.159   0.394   6.764
 5527POPC   C3A70049   8.238   0.438   7.064
 5527POPC   C4A70050   8.182   0.407   7.364
 5527POPC   C1B70051   8.135   0.726   6.464
 5527POPC   C2B70052   8.218   0.668   6.764
 5527POPC   C3B70053   8.191   0.703   7.064
 5527POPC   C4B70054   8.190   0.687   7.364
 5528POPC   NC370055  44.687  24.472   5.564
 5528POPC   PO470056  44.686  24.496   5.864
 5528POPC   GL170057  44.706  24.516   6.164
 5528POPC   GL270058  44.580  24.619   6.164
 5528POPC   C1A70059  44.657  24.496   6.464
 5528POPC   D2A70060  44.692  24.519   6.764
 5528POPC   C3A70061  44.653  24.459   7.064
 5528POPC   C4A70062  44.686  24.500   7.364
 5528POPC   C1B70063  44.534  24.738   6.464
 5528POPC   C2B70064  44.583  24.760   6.764
 5528POPC   C3B70065  44.596  24.667   7.064
 5528POPC   C4B70066  44.579  24.721   7.364
 5529POPC   NC370067  39.229  13.601   5.564
 5529POPC   PO470068  39.259  13.662   5.864
 5529POPC   GL170069  39.233  13.663   6.164
 5529POPC   GL270070  39.403  13.662   6.164
 5529POPC   C1A70071  39.205  13.649   6.464
 5529POPC   D2A70072  39.231  13.609   6.764
 5529POPC   C3A70073  39.240  13.651   7.064
 5529POPC   C4A70074  39.191  13.604   7.364
 5529POPC   C1B70075  39.460  13.671   6.464
 5529POPC   C2B70076  39.499  13.677   6.764
 5529POPC   C3B70077  39.502  13.641   7.064
 5529POPC   C4B70078  39.516  13.637   7.364
 5530POPC   NC370079  27.547   1.263   5.564
 5530POPC   PO470080  27.550   1.262   5.864
 5530POPC   GL170081  27.599   1.183   6.164
 5530POPC   GL270082  27.489   1.177   6.164
 5530POPC   C1A70083  27.617   1.244   6.464
 5530POPC   D2A70084  27.637   1.181   6.764
 5530POPC   C3A70085  27.640   1.223   7.064
 5530POPC   C4A70086  27.561   1.201   7.364
 5530POPC   C1B70087  27.377   1.127   6.464
 5530POPC   C2B70088  27.344   1.189   6.764
 5530POPC   C3B70089  27.320   1.132   7.064
 5530POPC   C4B70090  27.314   1.187   7.364
 5531POPC   NC370091  34.567  15.217   5.564
 5531POPC   PO470092  34.588  15.221   5.864
 5531POPC   GL170093  34.625  15.191   6.164
 5531POPC   GL270094  34.642  15.037   6.164
 5531POPC   C1A70095  34.559  15.137   6.464
 5531POPC   D2A70096  34.584  15.155   6.764
 5531POPC   C3A70097  34.597  15.164   7.064
 5531POPC   C4A70098  34.537  15.218   7.364
 5531POPC   C1B70099  34.714  14.896   6.464
 5531POPC   C2B70100  34.653  14.936   6.764
 5531POPC   C3B70101  34.695  14.953   7.064
 5531POPC   C4B70102  34.672  14.940   7.364
 5532POPC   NC370103  18.306  17.478   5.564
 5532POPC   PO470104  18.306  17.472   5.864
 5532POPC   GL170105  18.258  17.482   6.164
 5532POPC   GL270106  18.430  17.544   6.164
 5532POPC   C1A70107  18.319  17.459   6.464
 5532POPC   D2A70108  18.319  17.459   6.764
 5532POPC   C3A70109  18.249  17.542   7.064
 5532POPC   C4A70110  18.311  17.500   7.364
 5532POPC   C1B70111  18.505  17.473   6.464
 5532POPC   C2B70112  18.516  17.464   6.764
 5532POPC   C3B70113  18.568  17.516   7.064
 5532POPC   C4B70114  18.561  17.467   7.364
 5533POPC   NC370115  24.506  12.884   5.564
 5533POPC   PO470116  24.511  12.870   5.864
 5533POPC   GL170117  24.502  12.875   6.164
 5533POPC   GL270118  24.589  12.856   6.164
 5533POPC   C1A70119  24.443  12.889   6.464
 5533POPC   D2A70120  24.499  12.873   6.764
 5533POPC   C3A70121  24.489  12.848   7.064
 5533POPC   C4A70122  24.524  12.897   7.364
 5533POPC   C1B70123  24.769  12.744   6.464
 5533POPC   C2B70124  24.766  12.733   6.764
 5533POPC   C3B70125  24.711  12.799   7.064
 5533POPC   C4B70126  24.750  12.756   7.364
 5534POPC   NC370127  19.820  21.372   5.564
 5534POPC   PO470128  19.867  21.341   5.864
 5534POPC   GL170129  19.812  21.353   6.164
 5534POPC   GL270130  19.772  21.453   6.164
 5534POPC   C1A70131  19.870  21.430   6.464
 5534POPC   D2A70132  19.829  21.419   6.764
 5534POPC   C3A70133  19.804  21.392   7.064
 5534POPC   C4A70134  19.830  21.382   7.364
 5534POPC   C1B70135  19.589  21.545   6.464
 5534POPC   C2B70136  19.605  21.526   6.764
 5534POPC   C3B70137  19.628  21.495   7.064
 5534POPC   C4B70138  19.580  21.530   7.364
 5535POPC   NC370139  25.313  16.005   5.564
 5535POPC   PO470140  25.301  15.938   5.864
 5535POPC   GL170141  25.315  15.969   6.164
 5535POPC   GL270142  25.138  16.090   6.164
 5535POPC   C1A70143  25.297  15.944   6.464
 5535POPC   D2A70144  25.273  15.976   6.764
 5535POPC   C3A70145  25.217  15.955   7.064
 5535POPC   C4A70146  25.297  15.942   7.364
 5535POPC   C1B70147  25.138  16.150   6.464
 5535POPC   C2B70148  25.069  16.102   6.764
 5535POPC   C3B70149  25.083  16.144   7.064
 5535POPC   C4B70150  25.123  16.130   7.364
 5536POPC   NC370151   9.708  14.437   5.564
 5536POPC   PO470152   9.794  14.411   5.864
 5536POPC   GL170153   9.730  14.390   6.164
 5536POPC   GL270154   9.838  14.444   6.164
 5536POPC   C1A70155   9.795  14.422   6.464
 5536POPC   D2A70156   9.754  14.412   6.764
 5536POPC   C3A70157   9.746  14.418   7.064
 5536POPC   C4A70158   9.731  14.416   7.364
 5536POPC   C1B70159   9.991  14.416   6.464
 5536POPC   C2B70160   9.988  14.421   6.764
 5536POPC   C3B70161   9.994  14.470   7.064
 5536POPC   C4B70162   9.998  14.405   7.364
 5537POPC   NC370163  39.972  34.539   5.564
 5537POPC   PO470164  40.003  34.575   5.864
 5537POPC   GL170165  39.965  34.540   6.164
 5537POPC   GL270166  40.034  34.485   6.164
 5537POPC   C1A70167  40.015  34.586   6.464
 5537POPC   D2A70168  40.009  34.560   6.764
 5537POPC   C3A70169  39.964  34.624   7.064
 5537POPC   C4A70170  40.041  34.557   7.364
 5537POPC   C1B70171  39.944  34.311   6.464
 5537POPC   C2B70172  39.958  34.284   6.764
 5537POPC   C3B70173  39.971  34.310   7.064
 5537POPC   C4B70174  39.971  34.362   7.364
 5538POPC   NC370175   2.716  15.137   5.564
 5538POPC   PO470176   2.815  15.132   5.864
 5538POPC   GL170177   2.789  15.197   6.164
 5538POPC   GL270178   2.873  15.266   6.164
 5538POPC   C1A70179   2.791  15.190   6.464
 5538POPC   D2A70180   2.718  15.214   6.764
 5538POPC   C3A70181   2.789  15.220   7.064
 5538POPC   C4A70182   2.741  15.183   7.364
 5538POPC   C1B70183   3.036  15.258   6.464
 5538POPC   C2B70184   3.003  15.264   6.764
 5538POPC   C3B70185   2.988  15.261   7.064
 5538POPC   C4B70186   2.963  15.254   7.364
 5539POPC   NC370187  28.385  18.271   5.564
 5539POPC   PO470188  28.360  18.237   5.864
 5539POPC   GL170189  28.386  18.287   6.164
 5539POPC   GL270190  28.431  18.172   6.164
 5539POPC   C1A70191  28.398  18.235   6.464
 5539POPC   D2A70192  28.365  18.236   6.764
 5539POPC   C3A70193  28.385  18.260   7.064
 5539POPC   C4A70194  28.343  18.236   7.364
 5539POPC   C1B70195  28.567  18.111   6.464
 5539POPC   C2B70196  28.528  18.093   6.764
 5539POPC   C3B70197  28.559  18.109   7.064
 5539POPC   C4B70198  28.549  18.178   7.364
 5540POPC   NC370199  36.124  20.611   5.564
 5540POPC   PO470200  36.107  20.608   5.864
 5540POPC   GL170201  36.170  20.589   6.164
 5540POPC   GL270202  36.137  20.737   6.164
 5540POPC   C1A70203  36.122  20.648   6.464
 5540POPC   D2A70204  36.128  20.658   6.764
 5540POPC   C3A70205  36.145  20.624   7.064
 5540POPC   C4A70206  36.101  20.620   7.364
 5540POPC   C1B70207  36.144  20.895   6.464
 5540POPC   C2B70208  36.159  20.859   6.764
 5540POPC   C3B70209  36.157  20.812   7.064
 5540POPC   C4B70210  36.178  20.889   7.364
 5541POPC   NC370211   2.801  39.198   5.564
 5541POPC   PO470212   2.772  39.280   5.864
 5541POPC   GL170213   2.760  39.200   6.164
 5541POPC   GL270214   2.666  39.223   6.164
 5541POPC   C1A70215   2.747  39.259   6.464
 5541POPC   D2A70216   2.773  39.226   6.764
 5541POPC   C3A70217   2.786  39.245   7.064
 5541POPC   C4A70218   2.760  39.267   7.364
 5541POPC   C1B70219   2.535  39.224   6.464
 5541POPC   C2B70220   2.524  39.259   6.764
 5541POPC   C3B70221   2.535  39.235   7.064
 5541POPC   C4B70222   2.526  39.297   7.364
 5542POPC   NC370223  31.425   0.410   5.564
 5542POPC   PO470224  31.510   0.399   5.864
 5542POPC   GL170225  31.483   0.411   6.164
 5542POPC   GL270226  31.566   0.446   6.164
 5542POPC   C1A70227  31.466   0.396   6.464
 5542POPC   D2A70228  31.454   0.454   6.764
 5542POPC   C3A70229  31.463   0.463   7.064
 5542POPC   C4A70230  31.507   0.467   7.364
 5542POPC   C1B70231  31.690   0.406   6.464
 5542POPC   C2B70232  31.678   0.394   6.764
 5542POPC   C3B70233  31.731   0.400   7.064
 5542POPC   C4B70234  31.723   0.468   7.364
 5543POPC   NC370235  36.934  12.875   5.564
 5543POPC   PO470236  36.915  12.829   5.864
 5543POPC   GL170237  36.948  12.885   6.164
 5543POPC   GL270238  37.036  12.905   6.164
 5543POPC   C1A70239  36.951  12.806   6.464
 5543POPC   D2A70240  36.860  12.807   6.764
 5543POPC   C3A70241  36.926  12.817   7.064
 5543POPC   C4A70242  36.907  12.834   7.364
 5543POPC   C1B70243  37.111  13.075   6.464
 5543POPC   C2B70244  37.073  13.033   6.764
 5543POPC   C3B70245  37.064  13.034   7.064
 5543POPC   C4B70246  37.054  13.039   7.364
 5544POPC   NC370247  12.885  43.862   5.564
 5544POPC   PO470248  12.844  43.901   5.864
 5544POPC   GL170249  12.811  43.933   6.164
 5544POPC   GL270250  12.789  43.958   6.164
 5544POPC   C1A70251  12.816  43.928   6.464
 5544POPC   D2A70252  12.802  43.914   6.764
 5544POPC   C3A70253  12.853  43.905   7.064
 5544POPC   C4A70254  12.840  43.872   7.364
 5544POPC   C1B70255  12.707  44.052   6.464
 5544POPC   C2B70256  12.625  44.056   6.764
 5544POPC   C3B70257  12.625  44.096   7.064
 5544POPC   C4B70258  12.672  44.072   7.364
 5545POPC   NC370259  30.718  36.902   5.564
 5545POPC   PO470260  30.679  36.863   5.864
 5545POPC   GL170261  30.673  36.916   6.164
 5545POPC   GL270262  30.664  36.825   6.164
 5545POPC   C1A70263  30.722  36.920   6.464
 5545POPC   D2A70264  30.693  36.913   6.764
 5545POPC   C3A70265  30.709  36.876   7.064
 5545POPC   C4A70266  30.683  36.888   7.364
 5545POPC   C1B70267  30.623  36.643   6.464
 5545POPC   C2B70268  30.610  36.647   6.764
 5545POPC   C3B70269  30.616  36.633   7.064
 5545POPC   C4B70270  30.560  36.658   7.364
 5546POPC   NC370271  41.545  41.565   5.564
 5546POPC   PO470272  41.600  41.533   5.864
 5546POPC   GL170273  41.511  41.570   6.164
 5546POPC   GL270274  41.459  41.574   6.164
 5546POPC   C1A70275  41.556  41.585   6.464
 5546POPC   D2A70276  41.554  41.523   6.764
 5546POPC   C3A70277  41.564  41.534   7.064
 5546POPC   C4A70278  41.596  41.607   7.364
 5546POPC   C1B70279  41.322  41.610   6.464
 5546POPC   C2B70280  41.365  41.669   6.764
 5546POPC   C3B70281  41.341  41.621   7.064
 5546POPC   C4B70282  41.310  41.697   7.364
 5547POPC   NC370283  14.411  19.058   5.564
 5547POPC   PO470284  14.387  19.108   5.864
 5547POPC   GL170285  14.365  19.097   6.164
 5547POPC   GL270286  14.373  18.905   6.164
 5547POPC   C1A70287  14.383  19.059   6.464
 5547POPC   D2A70288  14.390  19.088   6.764
 5547POPC   C3A70289  14.391  19.015   7.064
 5547POPC   C4A70290  14.380  19.011   7.364
 5547POPC   C1B70291  14.469  18.836   6.464
 5547POPC   C2B70292  14.476  18.762   6.764
 5547POPC   C3B70293  14.399  18.761   7.064
 5547POPC   C4B70294  14.398  18.828   7.364
 5548POPC   NC370295  11.283  33.064   5.564
 5548POPC   PO470296  11.341  33.004   5.864
 5548POPC   GL170297  11.307  33.068   6.164
 5548POPC   GL270298  11.316  32.940   6.164
 5548POPC   C1A70299  11.290  32.996   6.464
 5548POPC   D2A70300  11.279  33.025   6.764
 5548POPC   C3A70301  11.342  33.056   7.064
 5548POPC   C4A70302  11.288  33.002   7.364
 5548POPC   C1B70303  11.355  32.810   6.464
 5548POPC   C2B70304  11.343  32.773   6.764
 5548POPC   C3B70305  11.294  32.802   7.064
 5548POPC   C4B70306  11.289  32.728   7.364
 5549POPC   NC370307  32.995  26.832   5.564
 5549POPC   PO470308  33.000  26.861   5.864
 5549POPC   GL170309  33.057  26.864   6.164
 5549POPC   GL270310  32.952  26.802   6.164
 5549POPC   C1A70311  33.038  26.809   6.464
 5549POPC   D2A70312  32.978  26.787   6.764
 5549POPC   C3A70313  32.974  26.842   7.064
 5549POPC   C4A70314  33.064  26.784   7.364
 5549POPC   C1B70315  32.784  26.790   6.464
 5549POPC   C2B70316  32.807  26.796   6.764
 5549POPC   C3B70317  32.830  26.748   7.064
 5549POPC   C4B70318  32.832  26.791   7.364
 5550POPC   NC370319  29.141  25.218   5.564
 5550POPC   PO470320  29.108  25.270   5.864
 5550POPC   GL170321  29.152  25.305   6.164
 5550POPC   GL270322  29.217  25.121   6.164
 5550POPC   C1A70323  29.191  25.301   6.464
 5550POPC   D2A70324  29.188  25.217   6.764
 5550POPC   C3A70325  29.193  25.261   7.064
 5550POPC   C4A70326  29.170  25.216   7.364
 5550POPC   C1B70327  29.284  25.087   6.464
 5550POPC   C2B70328  29.294  25.076   6.764
 5550POPC   C3B70329  29.268  25.025   7.064
 5550POPC   C4B70330  29.293  25.047   7.364
 5551POPC   NC370331   9.734  13.591   5.564
 5551POPC   PO470332   9.724  13.605   5.864
 5551POPC   GL170333   9.776  13.614   6.164
 5551POPC   GL270334   9.705  13.713   6.164
 5551POPC   C1A70335   9.763  13.620   6.464
 5551POPC   D2A70336   9.719  13.601   6.764
 5551POPC   C3A70337   9.698  13.610   7.064
 5551POPC   C4A70338   9.759  13.586   7.364
 5551POPC   C1B70339   9.720  13.835   6.464
 5551POPC   C2B70340   9.748  13.919   6.764
 5551POPC   C3B70341   9.723  13.846   7.064
 5551POPC   C4B70342   9.786  13.907   7.364
 5552POPC   NC370343  37.718  42.382   5.564
 5552POPC   PO470344  37.710  42.322   5.864
 5552POPC   GL170345  37.631  42.315   6.164
 5552POPC   GL270346  37.596  42.417   6.164
 5552POPC   C1A70347  37.655  42.358   6.464
 5552POPC   D2A70348  37.717  42.308   6.764
 5552POPC   C3A70349  37.641  42.311   7.064
 5552POPC   C4A70350  37.676  42.348   7.364
 5552POPC   C1B70351  37.409  42.434   6.464
 5552POPC   C2B70352  37.457  42.445   6.764
 5552POPC   C3B70353  37.425  42.394   7.064
 5552POPC   C4B70354  37.449  42.469   7.364
 5553POPC   NC370355  27.586  21.398   5.564
 5553POPC   PO470356  27.627  21.348   5.864
 5553POPC   GL170357  27.564  21.398   6.164
 5553POPC   GL270358  27.679  21.427   6.164
 5553POPC   C1A70359  27.635  21.400   6.464
 5553POPC   D2A70360  27.551  21.340   6.764
 5553POPC   C3A70361  27.616  21.426   7.064
 5553POPC   C4A70362  27.591  21.355   7.364
 5553POPC   C1B70363  27.843  21.446   6.464
 5553POPC   C2B70364  27.806  21.474   6.764
 5553POPC   C3B70365  27.827  21.458   7.064
 5553POPC   C4B70366  27.858  21.472   7.364
 5554POPC   NC370367  24.516  22.916   5.564
 5554POPC   PO470368  24.491  22.914   5.864
 5554POPC   GL170369  24.509  22.978   6.164
 5554POPC   GL270370  24.511  22.842   6.164
 5554POPC   C1A70371  24.473  22.985   6.464
 5554POPC   D2A70372  24.441  22.962   6.764
 5554POPC   C3A70373  24.519  22.948   7.064
 5554POPC   C4A70374  24.503  22.895   7.364
 5554POPC   C1B70375  24.549  22.704   6.464
 5554POPC   C2B70376  24.496  22.734   6.764
 5554POPC   C3B70377  24.535  22.730   7.064
 5554POPC   C4B70378  24.493  22.692   7.364
 5555POPC   NC370379   7.445  26.794   5.564
 5555POPC   PO470380   7.410  26.784   5.864
 5555POPC   GL170381   7.417  26.819   6.164
 5555POPC   GL270382   7.350  26.845   6.164
 5555POPC   C1A70383   7.399  26.812   6.464
 5555POPC   D2A70384   7.444  26.807   6.764
 5555POPC   C3A70385   7.414  26.804   7.064
 5555POPC   C4A70386   7.401  26.808   7.364
 5555POPC   C1B70387   7.179  26.929   6.464
 5555POPC   C2B70388   7.224  26.887   6.764
 5555POPC   C3B70389   7.181  26.933   7.064
 5555POPC   C4B70390   7.200  26.861   7.364
 5556POPC   NC370391  19.800   4.339   5.564
 5556POPC   PO470392  19.850   4.360   5.864
 5556POPC   GL170393  19.870   4.329   6.164
 5556POPC   GL270394  19.748   4.442   6.164
 5556POPC   C1A70395  19.814   4.325   6.464
 5556POPC   D2A70396  19.805   4.288   6.764
 5556POPC   C3A70397  19.829   4.365   7.064
 5556POPC   C4A70398  19.861   4.356   7.364
 5556POPC   C1B70399  19.723   4.487   6.464
 5556POPC   C2B70400  19.668   4.513   6.764
 5556POPC   C3B70401  19.698   4.483   7.064
 5556POPC   C4B70402  19.687   4.515   7.364
 5557POPC   NC370403   5.862   0.404   5.564
 5557POPC   PO470404   5.845   0.444   5.864
 5557POPC   GL170405   5.854   0.415   6.164
 5557POPC   GL270406   5.896   0.515   6.164
 5557POPC   C1A70407   5.877   0.401   6.464
 5557POPC   D2A70408   5.881   0.458   6.764
 5557POPC   C3A70409   5.841   0.424   7.064
 5557POPC   C4A70410   5.829   0.482   7.364
 5557POPC   C1B70411   5.901   0.666   6.464
 5557POPC   C2B70412   5.913   0.695   6.764
 5557POPC   C3B70413   5.931   0.677   7.064
 5557POPC   C4B70414   5.867   0.669   7.364
 5558POPC   NC370415  32.218  26.047   5.564
 5558POPC   PO470416  32.224  26.038   5.864
 5558POPC   GL170417  32.209  26.046   6.164
 5558POPC   GL270418  32.230  26.188   6.164
 5558POPC   C1A70419  32.287  26.082   6.464
 5558POPC   D2A70420  32.271  26.059   6.764
 5558POPC   C3A70421  32.212  26.049   7.064
 5558POPC   C4A70422  32.199  26.017   7.364
 5558POPC   C1B70423  32.104  26.304   6.464
 5558POPC   C2B70424  32.141  26.267   6.764
 5558POPC   C3B70425  32.187  26.247   7.064
 5558POPC   C4B70426  32.189  26.296   7.364
 5559POPC   NC370427  31.427  43.854   5.564
 5559POPC   PO470428  31.521  43.886   5.864
 5559POPC   GL170429  31.498  43.916   6.164
 5559POPC   GL270430  31.384  43.984   6.164
 5559POPC   C1A70431  31.457  43.923   6.464
 5559POPC   D2A70432  31.518  43.858   6.764
 5559POPC   C3A70433  31.518  43.935   7.064
 5559POPC   C4A70434  31.520  43.899   7.364
 5559POPC   C1B70435  31.208  44.024   6.464
 5559POPC   C2B70436  31.220  44.001   6.764
 5559POPC   C3B70437  31.199  43.982   7.064
 5559POPC   C4B70438  31.236  44.022   7.364
 5560POPC   NC370439   4.284   2.010   5.564
 5560POPC   PO470440   4.273   1.996   5.864
 5560POPC   GL170441   4.364   1.954   6.164
 5560POPC   GL270442   4.295   2.139   6.164
 5560POPC   C1A70443   4.302   1.999   6.464
 5560POPC   D2A70444   4.289   1.989   6.764
 5560POPC   C3A70445   4.350   2.037   7.064
 5560POPC   C4A70446   4.278   1.968   7.364
 5560POPC   C1B70447   4.151   2.192   6.464
 5560POPC   C2B70448   4.140   2.187   6.764
 5560POPC   C3B70449   4.219   2.221   7.064
 5560POPC   C4B70450   4.130   2.153   7.364
 5561POPC   NC370451  13.617  18.318   5.564
 5561POPC   PO470452  13.678  18.310   5.864
 5561POPC   GL170453  13.615  18.264   6.164
 5561POPC   GL270454  13.494  18.245   6.164
 5561POPC   C1A70455  13.643  18.240   6.464
 5561POPC   D2A70456  13.651  18.264   6.764
 5561POPC   C3A70457  13.599  18.243   7.064
 5561POPC   C4A70458  13.646  18.269   7.364
 5561POPC   C1B70459  13.445  18.163   6.464
 5561POPC   C2B70460  13.387  18.152   6.764
 5561POPC   C3B70461  13.465  18.132   7.064
 5561POPC   C4B70462  13.458  18.179   7.364
 5562POPC   NC370463  17.460   1.963   5.564
 5562POPC   PO470464  17.465   2.037   5.864
 5562POPC   GL170465  17.496   2.010   6.164
 5562POPC   GL270466  17.348   2.000   6.164
 5562POPC   C1A70467  17.468   1.952   6.464
 5562POPC   D2A70468  17.523   1.977   6.764
 5562POPC   C3A70469  17.502   1.993   7.064
 5562POPC   C4A70470  17.550   1.947   7.364
 5562POPC   C1B70471  17.213   2.009   6.464
 5562POPC   C2B70472  17.275   2.066   6.764
 5562POPC   C3B70473  17.305   2.048   7.064
 5562POPC   C4B70474  17.308   2.041   7.364
 5563POPC   NC370475  41.542  26.826   5.564
 5563POPC   PO470476  41.552  26.778   5.864
 5563POPC   GL170477  41.512  26.840   6.164
 5563POPC   GL270478  41.652  26.877   6.164
 5563POPC   C1A70479  41.556  26.833   6.464
 5563POPC   D2A70480  41.527  26.830   6.764
 5563POPC   C3A70481  41.587  26.833   7.064
 5563POPC   C4A70482  41.590  26.862   7.364
 5563POPC   C1B70483  41.809  26.963   6.464
 5563POPC   C2B70484  41.739  26.930   6.764
 5563POPC   C3B70485  41.788  26.975   7.064
 5563POPC   C4B70486  41.796  26.919   7.364
 5564POPC   NC370487   9.795  33.827   5.564
 5564POPC   PO470488   9.730  33.789   5.864
 5564POPC   GL170489   9.792  33.803   6.164
 5564POPC   GL270490   9.624  33.736   6.164
 5564POPC   C1A70491   9.700  33.791   6.464
 5564POPC   D2A70492   9.784  33.785   6.764
 5564POPC   C3A70493   9.720  33.800   7.064
 5564POPC   C4A70494   9.781  33.755   7.364
 5564POPC   C1B70495   9.463  33.696   6.464
 5564POPC   C2B70496   9.550  33.731   6.764
 5564POPC   C3B70497   9.490  33.687   7.064
 5564POPC   C4B70498   9.492  33.672   7.364
 5565POPC   NC370499   5.129  12.120   5.564
 5565POPC   PO470500   5.084  12.097   5.864
 5565POPC   GL170501   5.131  12.096   6.164
 5565POPC   GL270502   5.214  12.138   6.164
 5565POPC   C1A70503   5.072  12.122   6.464
 5565POPC   D2A70504   5.075  12.074   6.764
 5565POPC   C3A70505   5.133  12.075   7.064
 5565POPC   C4A70506   5.046  12.073   7.364
 5565POPC   C1B70507   5.290  12.140   6.464
 5565POPC   C2B70508   5.285  12.207   6.764
 5565POPC   C3B70509   5.352  12.197   7.064
 5565POPC   C4B70510   5.313  12.129   7.364
 5566POPC   NC370511   4.293  41.571   5.564
 5566POPC   PO470512   4.363  41.595   5.864
 5566POPC   GL170513   4.319  41.527   6.164
 5566POPC   GL270514   4.354  41.413   6.164
 5566POPC   C1A70515   4.328  41.596   6.464
 5566POPC   D2A70516   4.326  41.589   6.764
 5566POPC   C3A70517   4.302  41.516   7.064
 5566POPC   C4A70518   4.302  41.582   7.364
 5566POPC   C1B70519   4.444  41.390   6.464
 5566POPC   C2B70520   4.398  41.334   6.764
 5566POPC   C3B70521   4.457  41.301   7.064
 5566POPC   C4B70522   4.404  41.363   7.364
 5567POPC   NC370523  10.569  35.399   5.564
 5567POPC   PO470524  10.569  35.319   5.864
 5567POPC   GL170525  10.519  35.391   6.164
 5567POPC   GL270526  10.496  35.487   6.164
 5567POPC   C1A70527  10.507  35.357   6.464
 5567POPC   D2A70528  10.480  35.374   6.764
 5567POPC   C3A70529  10.525  35.332   7.064
 5567POPC   C4A70530  10.497  35.379   7.364
 5567POPC   C1B70531  10.539  35.554   6.464
 5567POPC   C2B70532  10.532  35.623   6.764
 5567POPC   C3B70533  10.575  35.573   7.064
 5567POPC   C4B70534  10.511  35.588   7.364
 5568POPC   NC370535   7.389   8.147   5.564
 5568POPC   PO470536   7.466   8.219   5.864
 5568POPC   GL170537   7.418   8.198   6.164
 5568POPC   GL270538   7.580   8.219   6.164
 5568POPC   C1A70539   7.385   8.168   6.464
 5568POPC   D2A70540   7.390   8.230   6.764
 5568POPC   C3A70541   7.395   8.161   7.064
 5568POPC   C4A70542   7.388   8.149   7.364
 5568POPC   C1B70543   7.637   8.195   6.464
 5568POPC   C2B70544   7.695   8.191   6.764
 5568POPC   C3B70545   7.641   8.270   7.064
 5568POPC   C4B70546   7.699   8.212   7.364
 5569POPC   NC370547  29.904  40.800   5.564
 5569POPC   PO470548  29.889  40.766   5.864
 5569POPC   GL170549  29.965  40.811   6.164
 5569POPC   GL270550  30.006  40.756   6.164
 5569POPC   C1A70551  29.925  40.761   6.464
 5569POPC   D2A70552  29.909  40.818   6.764
 5569POPC   C3A70553  29.952  40.788   7.064
 5569POPC   C4A70554  29.959  40.794   7.364
 5569POPC   C1B70555  30.113  40.629   6.464
 5569POPC   C2B70556  30.080  40.607   6.764
 5569POPC   C3B70557  30.075  40.606   7.064
 5569POPC   C4B70558  30.137  40.596   7.364
 5570POPC   NC370559  26.022  38.421   5.564
 5570POPC   PO470560  26.060  38.488   5.864
 5570POPC   GL170561  26.091  38.444   6.164
 5570POPC   GL270562  26.144  38.404   6.164
 5570POPC   C1A70563  26.046  38.500   6.464
 5570POPC   D2A70564  26.031  38.477   6.764
 5570POPC   C3A70565  26.007  38.488   7.064
 5570POPC   C4A70566  26.004  38.469   7.364
 5570POPC   C1B70567  26.302  38.310   6.464
 5570POPC   C2B70568  26.287  38.372   6.764
 5570POPC   C3B70569  26.301  38.361   7.064
 5570POPC   C4B70570  26.249  38.323   7.364
 5571POPC   NC370571  31.461   8.161   5.564
 5571POPC   PO470572  31.472   8.242   5.864
 5571POPC   GL170573  31.479   8.165   6.164
 5571POPC   GL270574  31.517   8.140   6.164
 5571POPC   C1A70575  31.475   8.173   6.464
 5571POPC   D2A70576  31.477   8.187   6.764
 5571POPC   C3A70577  31.449   8.177   7.064
 5571POPC   C4A70578  31.447   8.162   7.364
 5571POPC   C1B70579  31.655   8.054   6.464
 5571POPC   C2B70580  31.710   8.059   6.764
 5571POPC   C3B70581  31.659   7.989   7.064
 5571POPC   C4B70582  31.614   8.023   7.364
 5572POPC   NC370583  39.959   0.392   5.564
 5572POPC   PO470584  39.982   0.484   5.864
 5572POPC   GL170585  39.975   0.405   6.164
 5572POPC   GL270586  40.149   0.512   6.164
 5572POPC   C1A70587  40.048   0.474   6.464
 5572POPC   D2A70588  39.965   0.459   6.764
 5572POPC   C3A70589  39.982   0.389   7.064
 5572POPC   C4A70590  39.979   0.480   7.364
 5572POPC   C1B70591  40.234   0.516   6.464
 5572POPC   C2B70592  40.246   0.474   6.764
 5572POPC   C3B70593  40.229   0.534   7.064
 5572POPC   C4B70594  40.241   0.482   7.364
 5573POPC   NC370595  19.095  36.911   5.564
 5573POPC   PO470596  19.073  36.948   5.864
 5573POPC   GL170597  19.039  36.871   6.164
 5573POPC   GL270598  18.968  36.999   6.164
 5573POPC   C1A70599  19.044  36.937   6.464
 5573POPC   D2A70600  19.074  36.935   6.764
 5573POPC   C3A70601  19.044  36.876   7.064
 5573POPC   C4A70602  19.087  36.946   7.364
 5573POPC   C1B70603  18.889  37.136   6.464
 5573POPC   C2B70604  18.939  37.102   6.764
 5573POPC   C3B70605  18.930  37.092   7.064
 5573POPC   C4B70606  18.959  37.132   7.364
 5574POPC   NC370607  37.685  10.503   5.564
 5574POPC   PO470608  37.714  10.540   5.864
 5574POPC   GL170609  37.636  10.538   6.164
 5574POPC   GL270610  37.538  10.568   6.164
 5574POPC   C1A70611  37.629  10.538   6.464
 5574POPC   D2A70612  37.685  10.564   6.764
 5574POPC   C3A70613  37.673  10.563   7.064
 5574POPC   C4A70614  37.706  10.544   7.364
 5574POPC   C1B70615  37.426  10.596   6.464
 5574POPC   C2B70616  37.473  10.538   6.764
 5574POPC   C3B70617  37.394  10.600   7.064
 5574POPC   C4B70618  37.435  10.602   7.364
 5575POPC   NC370619  43.159  24.460   5.564
 5575POPC   PO470620  43.086  24.510   5.864
 5575POPC   GL170621  43.147  24.538   6.164
 5575POPC   GL270622  43.183  24.625   6.164
 5575POPC   C1A70623  43.142  24.499   6.464
 5575POPC   D2A70624  43.066  24.514   6.764
 5575POPC   C3A70625  43.067  24.506   7.064
 5575POPC   C4A70626  43.100  24.537   7.364
 5575POPC   C1B70627  43.183  24.676   6.464
 5575POPC   C2B70628  43.188  24.690   6.764
 5575POPC   C3B70629  43.212  24.752   7.064
 5575POPC   C4B70630  43.222  24.695   7.364
 5576POPC   NC370631  15.939  31.426   5.564
 5576POPC   PO470632  15.919  31.472   5.864
 5576POPC   GL170633  15.913  31.505   6.164
 5576POPC   GL270634  16.094  31.361   6.164
 5576POPC   C1A70635  15.947  31.487   6.464
 5576POPC   D2A70636  15.953  31.519   6.764
 5576POPC   C3A70637  15.927  31.438   7.064
 5576POPC   C4A70638  15.976  31.464   7.364
 5576POPC   C1B70639  16.175  31.297   6.464
 5576POPC   C2B70640  16.187  31.323   6.764
 5576POPC   C3B70641  16.135  31.270   7.064
 5576POPC   C4B70642  16.134  31.272   7.364
 5577POPC   NC370643  36.903  12.089   5.564
 5577POPC   PO470644  36.946  12.052   5.864
 5577POPC   GL170645  36.894  12.074   6.164
 5577POPC   GL270646  36.759  12.138   6.164
 5577POPC   C1A70647  36.857  12.104   6.464
 5577POPC   D2A70648  36.871  12.096   6.764
 5577POPC   C3A70649  36.885  12.028   7.064
 5577POPC   C4A70650  36.883  12.064   7.364
 5577POPC   C1B70651  36.647  12.132   6.464
 5577POPC   C2B70652  36.711  12.130   6.764
 5577POPC   C3B70653  36.712  12.133   7.064
 5577POPC   C4B70654  36.640  12.218   7.364
 5578POPC   NC370655  39.186   5.829   5.564
 5578POPC   PO470656  39.191   5.867   5.864
 5578POPC   GL170657  39.254   5.878   6.164
 5578POPC   GL270658  39.293   5.788   6.164
 5578POPC   C1A70659  39.223   5.856   6.464
 5578POPC   D2A70660  39.281   5.906   6.764
 5578POPC   C3A70661  39.212   5.885   7.064
 5578POPC   C4A70662  39.192   5.823   7.364
 5578POPC   C1B70663  39.431   5.736   6.464
 5578POPC   C2B70664  39.484   5.730   6.764
 5578POPC   C3B70665  39.461   5.686   7.064
 5578POPC   C4B70666  39.426   5.761   7.364
 5579POPC   NC370667  40.770  27.620   5.564
 5579POPC   PO470668  40.745  27.610   5.864
 5579POPC   GL170669  40.766  27.570   6.164
 5579POPC   GL270670  40.687  27.663   6.164
 5579POPC   C1A70671  40.750  27.563   6.464
 5579POPC   D2A70672  40.789  27.587   6.764
 5579POPC   C3A70673  40.789  27.563   7.064
 5579POPC   C4A70674  40.767  27.617   7.364
 5579POPC   C1B70675  40.646  27.778   6.464
 5579POPC   C2B70676  40.626  27.829   6.764
 5579POPC   C3B70677  40.642  27.810   7.064
 5579POPC   C4B70678  40.605  27.820   7.364
 5580POPC   NC370679  40.770  10.564   5.564
 5580POPC   PO470680  40.794  10.509   5.864
 5580POPC   GL170681  40.793  10.506   6.164
 5580POPC   GL270682  40.882  10.525   6.164
 5580POPC   C1A70683  40.815  10.499   6.464
 5580POPC   D2A70684  40.830  10.480   6.764
 5580POPC   C3A70685  40.764  10.526   7.064
 5580POPC   C4A70686  40.817  10.546   7.364
 5580POPC   C1B70687  41.075  10.498   6.464
 5580POPC   C2B70688  41.037  10.446   6.764
 5580POPC   C3B70689  41.000  10.536   7.064
 5580POPC   C4B70690  41.034  10.504   7.364
 5581POPC   NC370691   1.226  43.156   5.564
 5581POPC   PO470692   1.227  43.062   5.864
 5581POPC   GL170693   1.222  43.135   6.164
 5581POPC   GL270694   1.368  43.149   6.164
 5581POPC   C1A70695   1.226  43.094   6.464
 5581POPC   D2A70696   1.225  43.152   6.764
 5581POPC   C3A70697   1.196  43.095   7.064
 5581POPC   C4A70698   1.213  43.142   7.364
 5581POPC   C1B70699   1.499  43.079   6.464
 5581POPC   C2B70700   1.473  43.113   6.764
 5581POPC   C3B70701   1.508  43.125   7.064
 5581POPC   C4B70702   1.492  43.152   7.364
 5582POPC   NC370703  43.150  33.005   5.564
 5582POPC   PO470704  43.097  32.997   5.864
 5582POPC   GL170705  43.155  33.036   6.164
 5582POPC   GL270706  43.194  33.131   6.164
 5582POPC   C1A70707  43.124  32.993   6.464
 5582POPC   D2A70708  43.113  32.996   6.764
 5582POPC   C3A70709  43.152  32.992   7.064
 5582POPC   C4A70710  43.072  33.044   7.364
 5582POPC   C1B70711  43.257  33.147   6.464
 5582POPC   C2B70712  43.348  33.212   6.764
 5582POPC   C3B70713  43.322  33.184   7.064
 5582POPC   C4B70714  43.275  33.227   7.364
 5583POPC   NC370715   5.855  32.296   5.564
 5583POPC   PO470716   5.905  32.288   5.864
 5583POPC   GL170717   5.843  32.235   6.164
 5583POPC   GL270718   5.979  32.276   6.164
 5583POPC   C1A70719   5.868  32.292   6.464
 5583POPC   D2A70720   5.881  32.267   6.764
 5583POPC   C3A70721   5.835  32.199   7.064
 5583POPC   C4A70722   5.862  32.275   7.364
 5583POPC   C1B70723   6.152  32.180   6.464
 5583POPC   C2B70724   6.146  32.237   6.764
 5583POPC   C3B70725   6.084  32.178   7.064
 5583POPC   C4B70726   6.084  32.236   7.364
 5584POPC   NC370727   3.562  16.746   5.564
 5584POPC   PO470728   3.521  16.701   5.864
 5584POPC   GL170729   3.513  16.714   6.164
 5584POPC   GL270730   3.536  16.600   6.164
 5584POPC   C1A70731   3.513  16.738   6.464
 5584POPC   D2A70732   3.511  16.717   6.764
 5584POPC   C3A70733   3.530  16.696   7.064
 5584POPC   C4A70734   3.509  16.709   7.364
 5584POPC   C1B70735   3.473  16.511   6.464
 5584POPC   C2B70736   3.412  16.481   6.764
 5584POPC   C3B70737   3.487  16.521   7.064
 5584POPC   C4B70738   3.460  16.522   7.364
 5585POPC   NC370739  31.457  26.011   5.564
 5585POPC   PO470740  31.473  26.035   5.864
 5585POPC   GL170741  31.493  26.042   6.164
 5585POPC   GL270742  31.545  26.021   6.164
 5585POPC   C1A70743  31.489  25.997   6.464
 5585POPC   D2A70744  31.441  25.992   6.764
 5585POPC   C3A70745  31.450  26.025   7.064
 5585POPC   C4A70746  31.467  26.036   7.364
 5585POPC   C1B70747  31.694  25.893   6.464
 5585POPC   C2B70748  31.696  25.931   6.764
 5585POPC   C3B70749  31.708  25.935   7.064
 5585POPC   C4B70750  31.721  25.893   7.364
 5586POPC   NC370751  29.180   2.807   5.564
 5586POPC   PO470752  29.105   2.809   5.864
 5586POPC   GL170753  29.181   2.793   6.164
 5586POPC   GL270754  29.039   2.789   6.164
 5586POPC   C1A70755  29.141   2.767   6.464
 5586POPC   D2A70756  29.116   2.787   6.764
 5586POPC   C3A70757  29.108   2.739   7.064
 5586POPC   C4A70758  29.160   2.723   7.364
 5586POPC   C1B70759  28.879   2.711   6.464
 5586POPC   C2B70760  28.880   2.754   6.764
 5586POPC   C3B70761  28.855   2.690   7.064
 5586POPC   C4B70762  28.890   2.714   7.364
 5587POPC   NC370763   0.437  15.953   5.564
 5587POPC   PO470764   0.488  15.935   5.864
 5587POPC   GL170765   0.441  15.951   6.164
 5587POPC   GL270766   0.305  15.954   6.164
 5587POPC   C1A70767   0.389  15.992   6.464
 5587POPC   D2A70768   0.407  15.992   6.764
 5587POPC   C3A70769   0.415  15.994   7.064
 5587POPC   C4A70770   0.420  15.915   7.364
 5587POPC   C1B70771   0.234  16.007   6.464
 5587POPC   C2B70772   0.211  15.989   6.764
 5587POPC   C3B70773   0.209  15.972   7.064
 5587POPC   C4B70774   0.167  16.007   7.364
 5588POPC   NC370775  10.481  14.380   5.564
 5588POPC   PO470776  10.484  14.426   5.864
 5588POPC   GL170777  10.558  14.417   6.164
 5588POPC   GL270778  10.528  14.538   6.164
 5588POPC   C1A70779  10.536  14.380   6.464
 5588POPC   D2A70780  10.518  14.442   6.764
 5588POPC   C3A70781  10.535  14.422   7.064
 5588POPC   C4A70782  10.479  14.436   7.364
 5588POPC   C1B70783  10.576  14.648   6.464
 5588POPC   C2B70784  10.506  14.654   6.764
 5588POPC   C3B70785  10.558  14.610   7.064
 5588POPC   C4B70786  10.510  14.676   7.364
 5589POPC   NC370787   3.532  24.534   5.564
 5589POPC   PO470788   3.497  24.493   5.864
 5589POPC   GL170789   3.496  24.478   6.164
 5589POPC   GL270790   3.604  24.549   6.164
 5589POPC   C1A70791   3.493  24.443   6.464
 5589POPC   D2A70792   3.542  24.443   6.764
 5589POPC   C3A70793   3.531  24.503   7.064
 5589POPC   C4A70794   3.508  24.472   7.364
 5589POPC   C1B70795   3.723  24.664   6.464
 5589POPC   C2B70796   3.757  24.659   6.764
 5589POPC   C3B70797   3.770  24.595   7.064
 5589POPC   C4B70798   3.721  24.656   7.364
 5590POPC   NC370799  15.996   4.341   5.564
 5590POPC   PO470800  15.941   4.299   5.864
 5590POPC   GL170801  15.908   4.331   6.164
 5590POPC   GL270802  15.902   4.230   6.164
 5590POPC   C1A70803  15.948   4.272   6.464
 5590POPC   D2A70804  16.000   4.347   6.764
 5590POPC   C3A70805  15.940   4.295   7.064
 5590POPC   C4A70806  15.950   4.311   7.364
 5590POPC   C1B70807  15.827   4.129   6.464
 5590POPC   C2B70808  15.924   4.074   6.764
 5590POPC   C3B70809  15.914   4.112   7.064
 5590POPC   C4B70810  15.905   4.130   7.364
 5591POPC   NC370811  22.978  42.290   5.564
 5591POPC   PO470812  22.968  42.346   5.864
 5591POPC   GL170813  22.953  42.317   6.164
 5591POPC   GL270814  23.076  42.363   6.164
 5591POPC   C1A70815  22.965  42.289   6.464
 5591POPC   D2A70816  22.968  42.314   6.764
 5591POPC   C3A70817  22.968  42.328   7.064
 5591POPC   C4A70818  22.925  42.324   7.364
 5591POPC   C1B70819  23.187  42.437   6.464
 5591POPC   C2B70820  23.132  42.458   6.764
 5591POPC   C3B70821  23.127  42.420   7.064
 5591POPC   C4B70822  23.190  42.415   7.364
 5592POPC   NC370823   8.158  15.143   5.564
 5592POPC   PO470824   8.205  15.218   5.864
 5592POPC   GL170825   8.157  15.142   6.164
 5592POPC   GL270826   8.304  15.108   6.164
 5592POPC   C1A70827   8.182  15.153   6.464
 5592POPC   D2A70828   8.181  15.205   6.764
 5592POPC   C3A70829   8.176  15.174   7.064
 5592POPC   C4A70830   8.201  15.217   7.364
 5592POPC   C1B70831   8.448  15.141   6.464
 5592POPC   C2B70832   8.443  15.093   6.764
 5592POPC   C3B70833   8.410  15.116   7.064
 5592POPC   C4B70834   8.401  15.155   7.364
 5593POPC   NC370835   8.956  21.383   5.564
 5593POPC   PO470836   8.939  21.347   5.864
 5593POPC   GL170837   8.953  21.432   6.164
 5593POPC   GL270838   9.093  21.491   6.164
 5593POPC   C1A70839   8.949  21.411   6.464
 5593POPC   D2A70840   9.000  21.342   6.764
 5593POPC   C3A70841   9.004  21.372   7.064
 5593POPC   C4A70842   8.926  21.343   7.364
 5593POPC   C1B70843   9.230  21.539   6.464
 5593POPC   C2B70844   9.215  21.523   6.764
 5593POPC   C3B70845   9.132  21.567   7.064
 5593POPC   C4B70846   9.190  21.504   7.364
 5594POPC   NC370847  37.668  39.267   5.564
 5594POPC   PO470848  37.639  39.201   5.864
 5594POPC   GL170849  37.690  39.252   6.164
 5594POPC   GL270850  37.714  39.373   6.164
 5594POPC   C1A70851  37.638  39.246   6.464
 5594POPC   D2A70852  37.717  39.251   6.764
 5594POPC   C3A70853  37.663  39.272   7.064
 5594POPC   C4A70854  37.652  39.183   7.364
 5594POPC   C1B70855  37.762  39.426   6.464
 5594POPC   C2B70856  37.747  39.441   6.764
 5594POPC   C3B70857  37.755  39.437   7.064
 5594POPC   C4B70858  37.736  39.427   7.364
 5595POPC   NC370859  40.766  29.955   5.564
 5595POPC   PO470860  40.762  29.923   5.864
 5595POPC   GL170861  40.817  29.884   6.164
 5595POPC   GL270862  40.890  29.996   6.164
 5595POPC   C1A70863  40.820  29.936   6.464
 5595POPC   D2A70864  40.775  29.955   6.764
 5595POPC   C3A70865  40.737  29.947   7.064
 5595POPC   C4A70866  40.752  29.948   7.364
 5595POPC   C1B70867  40.951  30.143   6.464
 5595POPC   C2B70868  40.948  30.129   6.764
 5595POPC   C3B70869  40.914  30.103   7.064
 5595POPC   C4B70870  40.862  30.123   7.364
 5596POPC   NC370871  33.845   5.844   5.564
 5596POPC   PO470872  33.786   5.824   5.864
 5596POPC   GL170873  33.842   5.887   6.164
 5596POPC   GL270874  33.846   6.001   6.164
 5596POPC   C1A70875  33.789   5.882   6.464
 5596POPC   D2A70876  33.816   5.870   6.764
 5596POPC   C3A70877  33.847   5.905   7.064
 5596POPC   C4A70878  33.765   5.833   7.364
 5596POPC   C1B70879  33.838   6.162   6.464
 5596POPC   C2B70880  33.872   6.125   6.764
 5596POPC   C3B70881  33.839   6.161   7.064
 5596POPC   C4B70882  33.820   6.136   7.364
 5597POPC   NC370883   7.444  41.587   5.564
 5597POPC   PO470884   7.379  41.598   5.864
 5597POPC   GL170885   7.467  41.543   6.164
 5597POPC   GL270886   7.361  41.477   6.164
 5597POPC   C1A70887   7.372  41.548   6.464
 5597POPC   D2A70888   7.404  41.562   6.764
 5597POPC   C3A70889   7.376  41.519   7.064
 5597POPC   C4A70890   7.382  41.603   7.364
 5597POPC   C1B70891   7.353  41.290   6.464
 5597POPC   C2B70892   7.370  41.363   6.764
 5597POPC   C3B70893   7.307  41.338   7.064
 5597POPC   C4B70894   7.365  41.308   7.364
 5598POPC   NC370895  20.610  22.201   5.564
 5598POPC   PO470896  20.582  22.157   5.864
 5598POPC   GL170897  20.593  22.121   6.164
 5598POPC   GL270898  20.466  22.202   6.164
 5598POPC   C1A70899  20.654  22.129   6.464
 5598POPC   D2A70900  20.586  22.121   6.764
 5598POPC   C3A70901  20.643  22.147   7.064
 5598POPC   C4A70902  20.659  22.171   7.364
 5598POPC   C1B70903  20.385  22.195   6.464
 5598POPC   C2B70904  20.363  22.265   6.764
 5598POPC   C3B70905  20.376  22.262   7.064
 5598POPC   C4B70906  20.344  22.239   7.364
 5599POPC   NC370907  30.670  21.408   5.564
 5599POPC   PO470908  30.738  21.363   5.864
 5599POPC   GL170909  30.692  21.376   6.164
 5599POPC   GL270910  30.858  21.328   6.164
 5599POPC   C1A70911  30.706  21.353   6.464
 5599POPC   D2A70912  30.716  21.417   6.764
 5599POPC   C3A70913  30.666  21.398   7.064
 5599POPC   C4A70914  30.730  21.397   7.364
 5599POPC   C1B70915  30.976  21.329   6.464
 5599POPC   C2B70916  30.910  21.367   6.764
 5599POPC   C3B70917  30.960  21.370   7.064
 5599POPC   C4B70918  30.904  21.311   7.364
 5600POPC   NC370919   8.157  34.585   5.564
 5600POPC   PO470920   8.161  34.594   5.864
 5600POPC   GL170921   8.235  34.563   6.164
 5600POPC   GL270922   8.141  34.689   6.164
 5600POPC   C1A70923   8.204  34.609   6.464
 5600POPC   D2A70924   8.197  34.540   6.764
 5600POPC   C3A70925   8.193  34.591   7.064
 5600POPC   C4A70926   8.169  34.530   7.364
 5600POPC   C1B70927   8.033  34.769   6.464
 5600POPC   C2B70928   8.058  34.772   6.764
 5600POPC   C3B70929   8.100  34.825   7.064
 5600POPC   C4B70930   8.034  34.821   7.364
 5601POPC   NC370931  30.746  33.762   5.564
 5601POPC   PO470932  30.740  33.783   5.864
 5601POPC   GL170933  30.664  33.787   6.164
 5601POPC   GL270934  30.793  33.788   6.164
 5601POPC   C1A70935  30.725  33.813   6.464
 5601POPC   D2A70936  30.730  33.818   6.764
 5601POPC   C3A70937  30.715  33.848   7.064
 5601POPC   C4A70938  30.722  33.782   7.364
 5601POPC   C1B70939  30.954  33.787   6.464
 5601POPC   C2B70940  30.975  33.771   6.764
 5601POPC   C3B70941  30.984  33.809   7.064
 5601POPC   C4B70942  30.993  33.818   7.364
 5602POPC   NC370943  38.413  11.315   5.564
 5602POPC   PO470944  38.479  11.275   5.864
 5602POPC   GL170945  38.498  11.293   6.164
 5602POPC   GL270946  38.615  11.282   6.164
 5602POPC   C1A70947  38.456  11.287   6.464
 5602POPC   D2A70948  38.489  11.313   6.764
 5602POPC   C3A70949  38.450  11.297   7.064
 5602POPC   C4A70950  38.491  11.261   7.364
 5602POPC   C1B70951  38.723  11.230   6.464
 5602POPC   C2B70952  38.715  11.259   6.764
 5602POPC   C3B70953  38.680  11.178   7.064
 5602POPC   C4B70954  38.660  11.205   7.364
 5603POPC   NC370955  43.850   5.905   5.564
 5603POPC   PO470956  43.872   5.915   5.864
 5603POPC   GL170957  43.861   5.917   6.164
 5603POPC   GL270958  43.863   5.989   6.164
 5603POPC   C1A70959  43.930   5.847   6.464
 5603POPC   D2A70960  43.841   5.911   6.764
 5603POPC   C3A70961  43.837   5.871   7.064
 5603POPC   C4A70962  43.850   5.908   7.364
 5603POPC   C1B70963  43.873   6.143   6.464
 5603POPC   C2B70964  43.846   6.098   6.764
 5603POPC   C3B70965  43.799   6.095   7.064
 5603POPC   C4B70966  43.817   6.122   7.364
 5604POPC   NC370967  33.031  43.864   5.564
 5604POPC   PO470968  33.058  43.888   5.864
 5604POPC   GL170969  33.013  43.883   6.164
 5604POPC   GL270970  33.116  44.033   6.164
 5604POPC   C1A70971  33.004  43.929   6.464
 5604POPC   D2A70972  33.025  43.935   6.764
 5604POPC   C3A70973  32.982  43.906   7.064
 5604POPC   C4A70974  33.005  43.847   7.364
 5604POPC   C1B70975  33.150  44.166   6.464
 5604POPC   C2B70976  33.128  44.099   6.764
 5604POPC   C3B70977  33.088  44.148   7.064
 5604POPC   C4B70978  33.149  44.113   7.364
 5605POPC   NC370979  23.690  27.612   5.564
 5605POPC   PO470980  23.722  27.637   5.864
 5605POPC   GL170981  23.666  27.545   6.164
 5605POPC   GL270982  23.634  27.607   6.164
 5605POPC   C1A70983  23.758  27.603   6.464
 5605POPC   D2A70984  23.728  27.639   6.764
 5605POPC   C3A70985  23.722  27.572   7.064
 5605POPC   C4A70986  23.736  27.606   7.364
 5605POPC   C1B70987  23.493  27.529   6.464
 5605POPC   C2B70988  23.420  27.595   6.764
 5605POPC   C3B70989  23.425  27.580   7.064
 5605POPC   C4B70990  23.449  27.498   7.364
 5606POPC   NC370991  39.269   9.755   5.564
 5606POPC   PO470992  39.215   9.745   5.864
 5606POPC   GL170993  39.227   9.796   6.164
 5606POPC   GL270994  39.116   9.834   6.164
 5606POPC   C1A70995  39.244   9.793   6.464
 5606POPC   D2A70996  39.248   9.744   6.764
 5606POPC   C3A70997  39.237   9.788   7.064
 5606POPC   C4A70998  39.197   9.699   7.364
 5606POPC   C1B70999  39.035   9.934   6.464
 5606POPC   C2B71000  38.998   9.894   6.764
 5606POPC   C3B71001  38.988   9.920   7.064
 5606POPC   C4B71002  39.026   9.906   7.364
 5607POPC   NC371003   1.940  44.648   5.564
 5607POPC   PO471004   1.986  44.627   5.864
 5607POPC   GL171005   1.961  44.631   6.164
 5607POPC   GL271006   2.098  44.664   6.164
 5607POPC   C1A71007   1.953  44.642   6.464
 5607POPC   D2A71008   2.001  44.669   6.764
 5607POPC   C3A71009   2.026  44.706   7.064
 5607POPC   C4A71010   2.024  44.682   7.364
 5607POPC   C1B71011   2.230  44.568   6.464
 5607POPC   C2B71012   2.250  44.584   6.764
 5607POPC   C3B71013   2.253  44.533   7.064
 5607POPC   C4B71014   2.194  44.531   7.364
 5608POPC   NC371015  18.305  18.257   5.564
 5608POPC   PO471016  18.233  18.328   5.864
 5608POPC   GL171017  18.277  18.300   6.164
 5608POPC   GL271018  18.178  18.395   6.164
 5608POPC   C1A71019  18.291  18.252   6.464
 5608POPC   D2A71020  18.270  18.304   6.764
 5608POPC   C3A71021  18.321  18.323   7.064
 5608POPC   C4A71022  18.234  18.301   7.364
 5608POPC   C1B71023  18.064  18.407   6.464
 5608POPC   C2B71024  18.092  18.440   6.764
 5608POPC   C3B71025  18.067  18.457   7.064
 5608POPC   C4B71026  18.072  18.453   7.364
 5609POPC   NC371027  15.175  20.645   5.564
 5609POPC   PO471028  15.161  20.563   5.864
 5609POPC   GL171029  15.158  20.623   6.164
 5609POPC   GL271030  15.260  20.724   6.164
 5609POPC   C1A71031  15.209  20.612   6.464
 5609POPC   D2A71032  15.200  20.632   6.764
 5609POPC   C3A71033  15.210  20.576   7.064
 5609POPC   C4A71034  15.214  20.614   7.364
 5609POPC   C1B71035  15.321  20.792   6.464
 5609POPC   C2B71036  15.269  20.802   6.764
 5609POPC   C3B71037  15.271  20.846   7.064
 5609POPC   C4B71038  15.331  20.854   7.364
 5610POPC   NC371039  31.493  39.988   5.564
 5610POPC   PO471040  31.485  40.048   5.864
 5610POPC   GL171041  31.483  40.001   6.164
 5610POPC   GL271042  31.474  40.107   6.164
 5610POPC   C1A71043  31.507  39.974   6.464
 5610POPC   D2A71044  31.433  39.996   6.764
 5610POPC   C3A71045  31.519  40.053   7.064
 5610POPC   C4A71046  31.513  40.023   7.364
 5610POPC   C1B71047  31.402  40.283   6.464
 5610POPC   C2B71048  31.409  40.235   6.764
 5610POPC   C3B71049  31.428  40.226   7.064
 5610POPC   C4B71050  31.346  40.195   7.364
 5611POPC   NC371051  31.464  41.550   5.564
 5611POPC   PO471052  31.428  41.571   5.864
 5611POPC   GL171053  31.452  41.521   6.164
 5611POPC   GL271054  31.548  41.419   6.164
 5611POPC   C1A71055  31.517  41.542   6.464
 5611POPC   D2A71056  31.519  41.596   6.764
 5611POPC   C3A71057  31.446  41.522   7.064
 5611POPC   C4A71058  31.457  41.538   7.364
 5611POPC   C1B71059  31.571  41.320   6.464
 5611POPC   C2B71060  31.622  41.307   6.764
 5611POPC   C3B71061  31.600  41.321   7.064
 5611POPC   C4B71062  31.642  41.318   7.364
 5612POPC   NC371063  28.368  36.929   5.564
 5612POPC   PO471064  28.352  36.886   5.864
 5612POPC   GL171065  28.330  36.925   6.164
 5612POPC   GL271066  28.388  36.797   6.164
 5612POPC   C1A71067  28.376  36.950   6.464
 5612POPC   D2A71068  28.377  36.862   6.764
 5612POPC   C3A71069  28.367  36.875   7.064
 5612POPC   C4A71070  28.334  36.922   7.364
 5612POPC   C1B71071  28.424  36.708   6.464
 5612POPC   C2B71072  28.513  36.648   6.764
 5612POPC   C3B71073  28.467  36.676   7.064
 5612POPC   C4B71074  28.440  36.658   7.364
 5613POPC   NC371075   1.962  19.850   5.564
 5613POPC   PO471076   2.006  19.847   5.864
 5613POPC   GL171077   2.028  19.843   6.164
 5613POPC   GL271078   2.035  19.914   6.164
 5613POPC   C1A71079   1.961  19.787   6.464
 5613POPC   D2A71080   2.009  19.869   6.764
 5613POPC   C3A71081   2.009  19.811   7.064
 5613POPC   C4A71082   1.951  19.798   7.364
 5613POPC   C1B71083   2.152  20.094   6.464
 5613POPC   C2B71084   2.131  20.051   6.764
 5613POPC   C3B71085   2.138  20.097   7.064
 5613POPC   C4B71086   2.071  20.099   7.364
 5614POPC   NC371087  10.488   8.237   5.564
 5614POPC   PO471088  10.524   8.164   5.864
 5614POPC   GL171089  10.489   8.159   6.164
 5614POPC   GL271090  10.417   8.253   6.164
 5614POPC   C1A71091  10.540   8.212   6.464
 5614POPC   D2A71092  10.528   8.225   6.764
 5614POPC   C3A71093  10.502   8.212   7.064
 5614POPC   C4A71094  10.561   8.161   7.364
 5614POPC   C1B71095  10.358   8.367   6.464
 5614POPC   C2B71096  10.287   8.369   6.764
 5614POPC   C3B71097  10.349   8.343   7.064
 5614POPC   C4B71098  10.326   8.371   7.364
 5615POPC   NC371099  39.267   9.011   5.564
 5615POPC   PO471100  39.234   8.999   5.864
 5615POPC   GL171101  39.281   8.957   6.164
 5615POPC   GL271102  39.192   9.102   6.164
 5615POPC   C1A71103  39.232   8.966   6.464
 5615POPC   D2A71104  39.228   8.957   6.764
 5615POPC   C3A71105  39.196   8.989   7.064
 5615POPC   C4A71106  39.198   8.977   7.364
 5615POPC   C1B71107  39.113   9.194   6.464
 5615POPC   C2B71108  39.060   9.204   6.764
 5615POPC   C3B71109  39.112   9.211   7.064
 5615POPC   C4B71110  39.145   9.237   7.364
 5616POPC   NC371111  17.491  33.798   5.564
 5616POPC   PO471112  17.485  33.848   5.864
 5616POPC   GL171113  17.462  33.797   6.164
 5616POPC   GL271114  17.466  33.694   6.164
 5616POPC   C1A71115  17.515  33.804   6.464
 5616POPC   D2A71116  17.517  33.775   6.764
 5616POPC   C3A71117  17.550  33.808   7.064
 5616POPC   C4A71118  17.459  33.788   7.364
 5616POPC   C1B71119  17.479  33.575   6.464
 5616POPC   C2B71120  17.504  33.547   6.764
 5616POPC   C3B71121  17.489  33.571   7.064
 5616POPC   C4B71122  17.468  33.512   7.364
 5617POPC   NC371123  37.652  12.052   5.564
 5617POPC   PO471124  37.709  12.094   5.864
 5617POPC   GL171125  37.705  12.056   6.164
 5617POPC   GL271126  37.614  12.182   6.164
 5617POPC   C1A71127  37.653  12.034   6.464
 5617POPC   D2A71128  37.665  12.113   6.764
 5617POPC   C3A71129  37.717  12.096   7.064
 5617POPC   C4A71130  37.630  12.045   7.364
 5617POPC   C1B71131  37.525  12.230   6.464
 5617POPC   C2B71132  37.493  12.199   6.764
 5617POPC   C3B71133  37.444  12.284   7.064
 5617POPC   C4B71134  37.535  12.280   7.364
 5618POPC   NC371135  13.600  32.285   5.564
 5618POPC   PO471136  13.606  32.278   5.864
 5618POPC   GL171137  13.594  32.230   6.164
 5618POPC   GL271138  13.739  32.340   6.164
 5618POPC   C1A71139  13.609  32.282   6.464
 5618POPC   D2A71140  13.676  32.218   6.764
 5618POPC   C3A71141  13.655  32.243   7.064
 5618POPC   C4A71142  13.666  32.216   7.364
 5618POPC   C1B71143  13.747  32.432   6.464
 5618POPC   C2B71144  13.728  32.409   6.764
 5618POPC   C3B71145  13.749  32.437   7.064
 5618POPC   C4B71146  13.803  32.406   7.364
 5619POPC   NC371147  20.652  40.042   5.564
 5619POPC   PO471148  20.622  39.987   5.864
 5619POPC   GL171149  20.589  39.965   6.164
 5619POPC   GL271150  20.520  39.993   6.164
 5619POPC   C1A71151  20.609  39.991   6.464
 5619POPC   D2A71152  20.624  39.957   6.764
 5619POPC   C3A71153  20.638  39.998   7.064
 5619POPC   C4A71154  20.583  39.972   7.364
 5619POPC   C1B71155  20.375  39.899   6.464
 5619POPC   C2B71156  20.368  39.973   6.764
 5619POPC   C3B71157  20.412  39.950   7.064
 5619POPC   C4B71158  20.391  39.884   7.364
 5620POPC   NC371159  41.554   5.856   5.564
 5620POPC   PO471160  41.538   5.826   5.864
 5620POPC   GL171161  41.590   5.842   6.164
 5620POPC   GL271162  41.627   5.989   6.164
 5620POPC   C1A71163  41.553   5.889   6.464
 5620POPC   D2A71164  41.577   5.890   6.764
 5620POPC   C3A71165  41.525   5.897   7.064
 5620POPC   C4A71166  41.532   5.832   7.364
 5620POPC   C1B71167  41.724   6.040   6.464
 5620POPC   C2B71168  41.715   6.057   6.764
 5620POPC   C3B71169  41.761   6.053   7.064
 5620POPC   C4B71170  41.710   6.047   7.364
 5621POPC   NC371171  32.256  29.113   5.564
 5621POPC   PO471172  32.270  29.138   5.864
 5621POPC   GL171173  32.217  29.154   6.164
 5621POPC   GL271174  32.224  29.298   6.164
 5621POPC   C1A71175  32.289  29.112   6.464
 5621POPC   D2A71176  32.218  29.103   6.764
 5621POPC   C3A71177  32.237  29.161   7.064
 5621POPC   C4A71178  32.213  29.106   7.364
 5621POPC   C1B71179  32.283  29.441   6.464
 5621POPC   C2B71180  32.237  29.376   6.764
 5621POPC   C3B71181  32.293  29.443   7.064
 5621POPC   C4B71182  32.309  29.371   7.364
 5622POPC   NC371183  33.825  25.234   5.564
 5622POPC   PO471184  33.793  25.301   5.864
 5622POPC   GL171185  33.808  25.268   6.164
 5622POPC   GL271186  33.769  25.402   6.164
 5622POPC   C1A71187  33.788  25.305   6.464
 5622POPC   D2A71188  33.788  25.217   6.764
 5622POPC   C3A71189  33.819  25.280   7.064
 5622POPC   C4A71190  33.825  25.260   7.364
 5622POPC   C1B71191  33.668  25.462   6.464
 5622POPC   C2B71192  33.663  25.512   6.764
 5622POPC   C3B71193  33.665  25.508   7.064
 5622POPC   C4B71194  33.724  25.538   7.364
 5623POPC   NC371195   7.374   0.405   5.564
 5623POPC   PO471196   7.376   0.396   5.864
 5623POPC   GL171197   7.380   0.403   6.164
 5623POPC   GL271198   7.457   0.298   6.164
 5623POPC   C1A71199   7.378   0.432   6.464
 5623POPC   D2A71200   7.434   0.448   6.764
 5623POPC   C3A71201   7.462   0.468   7.064
 5623POPC   C4A71202   7.469   0.389   7.364
 5623POPC   C1B71203   7.588   0.231   6.464
 5623POPC   C2B71204   7.537   0.263   6.764
 5623POPC   C3B71205   7.633   0.295   7.064
 5623POPC   C4B71206   7.605   0.264   7.364
 5624POPC   NC371207  40.756   6.619   5.564
 5624POPC   PO471208  40.825   6.638   5.864
 5624POPC   GL171209  40.797   6.648   6.164
 5624POPC   GL271210  40.840   6.759   6.164
 5624POPC   C1A71211  40.827   6.684   6.464
 5624POPC   D2A71212  40.822   6.670   6.764
 5624POPC   C3A71213  40.803   6.617   7.064
 5624POPC   C4A71214  40.743   6.689   7.364
 5624POPC   C1B71215  40.931   6.881   6.464
 5624POPC   C2B71216  40.903   6.875   6.764
 5624POPC   C3B71217  40.911   6.836   7.064
 5624POPC   C4B71218  40.848   6.906   7.364
 5625POPC   NC371219  33.839  31.451   5.564
 5625POPC   PO471220  33.771  31.470   5.864
 5625POPC   GL171221  33.759  31.513   6.164
 5625POPC   GL271222  33.933  31.449   6.164
 5625POPC   C1A71223  33.767  31.440   6.464
 5625POPC   D2A71224  33.751  31.457   6.764
 5625POPC   C3A71225  33.836  31.482   7.064
 5625POPC   C4A71226  33.804  31.467   7.364
 5625POPC   C1B71227  34.052  31.382   6.464
 5625POPC   C2B71228  34.010  31.454   6.764
 5625POPC   C3B71229  34.076  31.458   7.064
 5625POPC   C4B71230  34.011  31.437   7.364
 5626POPC   NC371231  22.115  40.015   5.564
 5626POPC   PO471232  22.194  39.985   5.864
 5626POPC   GL171233  22.173  39.962   6.164
 5626POPC   GL271234  22.206  39.901   6.164
 5626POPC   C1A71235  22.120  40.020   6.464
 5626POPC   D2A71236  22.172  40.056   6.764
 5626POPC   C3A71237  22.203  39.965   7.064
 5626POPC   C4A71238  22.182  40.027   7.364
 5626POPC   C1B71239  22.173  39.741   6.464
 5626POPC   C2B71240  22.148  39.768   6.764
 5626POPC   C3B71241  22.171  39.769   7.064
 5626POPC   C4B71242  22.130  39.742   7.364
 5627POPC   NC371243  16.696  36.114   5.564
 5627POPC   PO471244  16.688  36.139   5.864
 5627POPC   GL171245  16.763  36.109   6.164
 5627POPC   GL271246  16.730  36.219   6.164
 5627POPC   C1A71247  16.761  36.090   6.464
 5627POPC   D2A71248  16.697  36.142   6.764
 5627POPC   C3A71249  16.690  36.080   7.064
 5627POPC   C4A71250  16.757  36.091   7.364
 5627POPC   C1B71251  16.732  36.335   6.464
 5627POPC   C2B71252  16.661  36.333   6.764
 5627POPC   C3B71253  16.749  36.400   7.064
 5627POPC   C4B71254  16.744  36.405   7.364
 5628POPC   NC371255   0.427  40.775   5.564
 5628POPC   PO471256   0.455  40.752   5.864
 5628POPC   GL171257   0.436  40.769   6.164
 5628POPC   GL271258   0.323  40.783   6.164
 5628POPC   C1A71259   0.477  40.762   6.464
 5628POPC   D2A71260   0.472  40.824   6.764
 5628POPC   C3A71261   0.448  40.816   7.064
 5628POPC   C4A71262   0.404  40.743   7.364
 5628POPC   C1B71263   0.202  40.871   6.464
 5628POPC   C2B71264   0.236  40.821   6.764
 5628POPC   C3B71265   0.220  40.870   7.064
 5628POPC   C4B71266   0.155  40.819   7.364
 5629POPC   NC371267   1.177  20.591   5.564
 5629POPC   PO471268   1.170  20.568   5.864
 5629POPC   GL171269   1.200  20.582   6.164
 5629POPC   GL271270   1.306  20.720   6.164
 5629POPC   C1A71271   1.215  20.626   6.464
 5629POPC   D2A71272   1.188  20.614   6.764
 5629POPC   C3A71273   1.198  20.655   7.064
 5629POPC   C4A71274   1.257  20.569   7.364
 5629POPC   C1B71275   1.315  20.815   6.464
 5629POPC   C2B71276   1.291  20.866   6.764
 5629POPC   C3B71277   1.287  20.801   7.064
 5629POPC   C4B71278   1.328  20.875   7.364
 5630POPC   NC371279   8.246   4.275   5.564
 5630POPC   PO471280   8.204   4.359   5.864
 5630POPC   GL171281   8.147   4.323   6.164
 5630POPC   GL271282   8.364   4.236   6.164
 5630POPC   C1A71283   8.185   4.288   6.464
 5630POPC   D2A71284   8.188   4.343   6.764
 5630POPC   C3A71285   8.173   4.268   7.064
 5630POPC   C4A71286   8.177   4.364   7.364
 5630POPC   C1B71287   8.448   4.261   6.464
 5630POPC   C2B71288   8.396   4.265   6.764
 5630POPC   C3B71289   8.416   4.263   7.064
 5630POPC   C4B71290   8.389   4.274   7.364
 5631POPC   NC371291  36.858  30.659   5.564
 5631POPC   PO471292  36.948  30.677   5.864
 5631POPC   GL171293  36.936  30.723   6.164
 5631POPC   GL271294  36.997  30.701   6.164
 5631POPC   C1A71295  36.890  30.684   6.464
 5631POPC   D2A71296  36.905  30.717   6.764
 5631POPC   C3A71297  36.899  30.691   7.064
 5631POPC   C4A71298  36.887  30.712   7.364
 5631POPC   C1B71299  37.106  30.658   6.464
 5631POPC   C2B71300  37.199  30.699   6.764
 5631POPC   C3B71301  37.116  30.653   7.064
 5631POPC   C4B71302  37.201  30.645   7.364
 5632POPC   NC371303  12.096  14.427   5.564
 5632POPC   PO471304  12.053  14.356   5.864
 5632POPC   GL171305  12.035  14.408   6.164
 5632POPC   GL271306  11.942  14.474   6.164
 5632POPC   C1A71307  12.048  14.452   6.464
 5632POPC   D2A71308  12.061  14.359   6.764
 5632POPC   C3A71309  12.065  14.406   7.064
 5632POPC   C4A71310  12.093  14.431   7.364
 5632POPC   C1B71311  11.863  14.451   6.464
 5632POPC   C2B71312  11.825  14.493   6.764
 5632POPC   C3B71313  11.797  14.493   7.064
 5632POPC   C4B71314  11.878  14.467   7.364
 5633POPC   NC371315  35.370  22.970   5.564
 5633POPC   PO471316  35.310  22.927   5.864
 5633POPC   GL171317  35.393  22.919   6.164
 5633POPC   GL271318  35.233  22.929   6.164
 5633POPC   C1A71319  35.341  22.970   6.464
 5633POPC   D2A71320  35.350  22.902   6.764
 5633POPC   C3A71321  35.366  22.911   7.064
 5633POPC   C4A71322  35.366  22.934   7.364
 5633POPC   C1B71323  35.098  22.871   6.464
 5633POPC   C2B71324  35.107  22.919   6.764
 5633POPC   C3B71325  35.093  22.922   7.064
 5633POPC   C4B71326  35.059  22.860   7.364
 5634POPC   NC371327  39.996  29.883   5.564
 5634POPC   PO471328  39.993  29.917   5.864
 5634POPC   GL171329  39.972  29.885   6.164
 5634POPC   GL271330  39.879  29.955   6.164
 5634POPC   C1A71331  40.037  29.915   6.464
 5634POPC   D2A71332  39.961  29.881   6.764
 5634POPC   C3A71333  40.013  29.913   7.064
 5634POPC   C4A71334  40.057  29.961   7.364
 5634POPC   C1B71335  39.766  30.083   6.464
 5634POPC   C2B71336  39.817  30.061   6.764
 5634POPC   C3B71337  39.831  30.083   7.064
 5634POPC   C4B71338  39.801  30.002   7.364
 5635POPC   NC371339  25.281  25.996   5.564
 5635POPC   PO471340  25.278  26.029   5.864
 5635POPC   GL171341  25.269  26.078   6.164
 5635POPC   GL271342  25.171  26.048   6.164
 5635POPC   C1A71343  25.225  25.997   6.464
 5635POPC   D2A71344  25.270  25.997   6.764
 5635POPC   C3A71345  25.257  26.000   7.064
 5635POPC   C4A71346  25.287  26.079   7.364
 5635POPC   C1B71347  25.022  25.939   6.464
 5635POPC   C2B71348  25.026  25.913   6.764
 5635POPC   C3B71349  25.049  25.981   7.064
 5635POPC   C4B71350  25.066  25.952   7.364
 5636POPC   NC371351   4.280  26.827   5.564
 5636POPC   PO471352   4.349  26.785   5.864
 5636POPC   GL171353   4.338  26.846   6.164
 5636POPC   GL271354   4.184  26.818   6.164
 5636POPC   C1A71355   4.281  26.858   6.464
 5636POPC   D2A71356   4.275  26.774   6.764
 5636POPC   C3A71357   4.348  26.837   7.064
 5636POPC   C4A71358   4.304  26.788   7.364
 5636POPC   C1B71359   4.100  26.810   6.464
 5636POPC   C2B71360   4.026  26.859   6.764
 5636POPC   C3B71361   4.095  26.797   7.064
 5636POPC   C4B71362   4.072  26.865   7.364
 5637POPC   NC371363  34.625  29.149   5.564
 5637POPC   PO471364  34.530  29.116   5.864
 5637POPC   GL171365  34.582  29.148   6.164
 5637POPC   GL271366  34.538  29.308   6.164
 5637POPC   C1A71367  34.547  29.146   6.464
 5637POPC   D2A71368  34.606  29.163   6.764
 5637POPC   C3A71369  34.538  29.153   7.064
 5637POPC   C4A71370  34.586  29.151   7.364
 5637POPC   C1B71371  34.529  29.361   6.464
 5637POPC   C2B71372  34.486  29.440   6.764
 5637POPC   C3B71373  34.507  29.372   7.064
 5637POPC   C4B71374  34.579  29.425   7.364
 5638POPC   NC371375  40.041  13.611   5.564
 5638POPC   PO471376  40.000  13.599   5.864
 5638POPC   GL171377  40.022  13.653   6.164
 5638POPC   GL271378  40.147  13.712   6.164
 5638POPC   C1A71379  40.057  13.663   6.464
 5638POPC   D2A71380  40.029  13.661   6.764
 5638POPC   C3A71381  39.986  13.595   7.064
 5638POPC   C4A71382  40.055  13.634   7.364
 5638POPC   C1B71383  40.202  13.748   6.464
 5638POPC   C2B71384  40.263  13.769   6.764
 5638POPC   C3B71385  40.261  13.705   7.064
 5638POPC   C4B71386  40.201  13.789   7.364
 5639POPC   NC371387   3.568  38.415   5.564
 5639POPC   PO471388   3.547  38.481   5.864
 5639POPC   GL171389   3.587  38.430   6.164
 5639POPC   GL271390   3.563  38.319   6.164
 5639POPC   C1A71391   3.546  38.465   6.464
 5639POPC   D2A71392   3.495  38.489   6.764
 5639POPC   C3A71393   3.543  38.462   7.064
 5639POPC   C4A71394   3.542  38.423   7.364
 5639POPC   C1B71395   3.576  38.259   6.464
 5639POPC   C2B71396   3.607  38.243   6.764
 5639POPC   C3B71397   3.574  38.175   7.064
 5639POPC   C4B71398   3.620  38.258   7.364
 5640POPC   NC371399  12.895  33.007   5.564
 5640POPC   PO471400  12.815  33.014   5.864
 5640POPC   GL171401  12.819  33.051   6.164
 5640POPC   GL271402  12.740  33.015   6.164
 5640POPC   C1A71403  12.851  33.028   6.464
 5640POPC   D2A71404  12.874  33.058   6.764
 5640POPC   C3A71405  12.826  33.011   7.064
 5640POPC   C4A71406  12.872  32.999   7.364
 5640POPC   C1B71407  12.597  33.097   6.464
 5640POPC   C2B71408  12.622  33.119   6.764
 5640POPC   C3B71409  12.574  33.041   7.064
 5640POPC   C4B71410  12.632  33.030   7.364
 5641POPC   NC371411  33.053   8.209   5.564
 5641POPC   PO471412  33.000   8.218   5.864
 5641POPC   GL171413  33.050   8.147   6.164
 5641POPC   GL271414  33.030   8.103   6.164
 5641POPC   C1A71415  33.050   8.194   6.464
 5641POPC   D2A71416  33.052   8.214   6.764
 5641POPC   C3A71417  33.051   8.240   7.064
 5641POPC   C4A71418  33.034   8.156   7.364
 5641POPC   C1B71419  32.995   7.949   6.464
 5641POPC   C2B71420  32.991   7.927   6.764
 5641POPC   C3B71421  32.975   7.988   7.064
 5641POPC   C4B71422  32.941   7.952   7.364
 5642POPC   NC371423  33.028  30.685   5.564
 5642POPC   PO471424  33.039  30.648   5.864
 5642POPC   GL171425  32.990  30.691   6.164
 5642POPC   GL271426  32.874  30.688   6.164
 5642POPC   C1A71427  33.052  30.728   6.464
 5642POPC   D2A71428  32.981  30.746   6.764
 5642POPC   C3A71429  33.049  30.735   7.064
 5642POPC   C4A71430  32.988  30.677   7.364
 5642POPC   C1B71431  32.785  30.591   6.464
 5642POPC   C2B71432  32.759  30.555   6.764
 5642POPC   C3B71433  32.834  30.587   7.064
 5642POPC   C4B71434  32.803  30.628   7.364
 5643POPC   NC371435  13.637  15.193   5.564
 5643POPC   PO471436  13.639  15.160   5.864
 5643POPC   GL171437  13.617  15.160   6.164
 5643POPC   GL271438  13.618  15.097   6.164
 5643POPC   C1A71439  13.593  15.191   6.464
 5643POPC   D2A71440  13.665  15.193   6.764
 5643POPC   C3A71441  13.578  15.221   7.064
 5643POPC   C4A71442  13.616  15.131   7.364
 5643POPC   C1B71443  13.557  14.958   6.464
 5643POPC   C2B71444  13.553  14.952   6.764
 5643POPC   C3B71445  13.564  14.967   7.064
 5643POPC   C4B71446  13.604  14.918   7.364
 5644POPC   NC371447   5.050  34.603   5.564
 5644POPC   PO471448   5.061  34.554   5.864
 5644POPC   GL171449   5.090  34.532   6.164
 5644POPC   GL271450   5.151  34.668   6.164
 5644POPC   C1A71451   5.056  34.540   6.464
 5644POPC   D2A71452   5.051  34.605   6.764
 5644POPC   C3A71453   5.052  34.536   7.064
 5644POPC   C4A71454   5.092  34.527   7.364
 5644POPC   C1B71455   5.259  34.749   6.464
 5644POPC   C2B71456   5.291  34.719   6.764
 5644POPC   C3B71457   5.294  34.727   7.064
 5644POPC   C4B71458   5.266  34.760   7.364
 5645POPC   NC371459  36.081  29.906   5.564
 5645POPC   PO471460  36.094  29.955   5.864
 5645POPC   GL171461  36.138  29.883   6.164
 5645POPC   GL271462  35.990  29.981   6.164
 5645POPC   C1A71463  36.103  29.894   6.464
 5645POPC   D2A71464  36.116  29.886   6.764
 5645POPC   C3A71465  36.156  29.968   7.064
 5645POPC   C4A71466  36.169  29.940   7.364
 5645POPC   C1B71467  35.888  29.925   6.464
 5645POPC   C2B71468  35.885  29.958   6.764
 5645POPC   C3B71469  35.832  29.987   7.064
 5645POPC   C4B71470  35.920  29.960   7.364
 5646POPC   NC371471  33.039  10.554   5.564
 5646POPC   PO471472  32.988  10.538   5.864
 5646POPC   GL171473  33.067  10.506   6.164
 5646POPC   GL271474  33.122  10.550   6.164
 5646POPC   C1A71475  32.977  10.571   6.464
 5646POPC   D2A71476  33.058  10.551   6.764
 5646POPC   C3A71477  33.002  10.571   7.064
 5646POPC   C4A71478  33.025  10.478   7.364
 5646POPC   C1B71479  33.240  10.573   6.464
 5646POPC   C2B71480  33.317  10.544   6.764
 5646POPC   C3B71481  33.226  10.555   7.064
 5646POPC   C4B71482  33.284  10.576   7.364
 5647POPC   NC371483   1.245   2.719   5.564
 5647POPC   PO471484   1.226   2.785   5.864
 5647POPC   GL171485   1.194   2.772   6.164
 5647POPC   GL271486   1.154   2.653   6.164
 5647POPC   C1A71487   1.191   2.760   6.464
 5647POPC   D2A71488   1.263   2.763   6.764
 5647POPC   C3A71489   1.194   2.784   7.064
 5647POPC   C4A71490   1.180   2.742   7.364
 5647POPC   C1B71491   1.006   2.542   6.464
 5647POPC   C2B71492   1.035   2.619   6.764
 5647POPC   C3B71493   1.057   2.544   7.064
 5647POPC   C4B71494   1.063   2.603   7.364
 5648POPC   NC371495   8.170  35.394   5.564
 5648POPC   PO471496   8.215  35.393   5.864
 5648POPC   GL171497   8.172  35.354   6.164
 5648POPC   GL271498   8.367  35.305   6.164
 5648POPC   C1A71499   8.169  35.385   6.464
 5648POPC   D2A71500   8.239  35.370   6.764
 5648POPC   C3A71501   8.211  35.388   7.064
 5648POPC   C4A71502   8.190  35.314   7.364
 5648POPC   C1B71503   8.411  35.312   6.464
 5648POPC   C2B71504   8.451  35.298   6.764
 5648POPC   C3B71505   8.484  35.290   7.064
 5648POPC   C4B71506   8.435  35.265   7.364
 5649POPC   NC371507  22.116  34.562   5.564
 5649POPC   PO471508  22.184  34.624   5.864
 5649POPC   GL171509  22.185  34.538   6.164
 5649POPC   GL271510  22.104  34.498   6.164
 5649POPC   C1A71511  22.211  34.613   6.464
 5649POPC   D2A71512  22.128  34.558   6.764
 5649POPC   C3A71513  22.174  34.604   7.064
 5649POPC   C4A71514  22.135  34.530   7.364
 5649POPC   C1B71515  21.902  34.408   6.464
 5649POPC   C2B71516  21.899  34.439   6.764
 5649POPC   C3B71517  21.952  34.462   7.064
 5649POPC   C4B71518  21.979  34.490   7.364
 5650POPC   NC371519   9.009  30.730   5.564
 5650POPC   PO471520   8.987  30.704   5.864
 5650POPC   GL171521   8.923  30.719   6.164
 5650POPC   GL271522   8.992  30.783   6.164
 5650POPC   C1A71523   8.997  30.698   6.464
 5650POPC   D2A71524   8.970  30.734   6.764
 5650POPC   C3A71525   9.016  30.743   7.064
 5650POPC   C4A71526   8.942  30.728   7.364
 5650POPC   C1B71527   8.933  30.990   6.464
 5650POPC   C2B71528   8.934  30.986   6.764
 5650POPC   C3B71529   8.914  30.936   7.064
 5650POPC   C4B71530   8.959  30.982   7.364
 5651POPC   NC371531  40.015   5.127   5.564
 5651POPC   PO471532  40.036   5.050   5.864
 5651POPC   GL171533  40.044   5.136   6.164
 5651POPC   GL271534  40.089   5.132   6.164
 5651POPC   C1A71535  39.990   5.074   6.464
 5651POPC   D2A71536  40.014   5.075   6.764
 5651POPC   C3A71537  40.017   5.097   7.064
 5651POPC   C4A71538  39.995   5.074   7.364
 5651POPC   C1B71539  40.226   5.074   6.464
 5651POPC   C2B71540  40.239   5.100   6.764
 5651POPC   C3B71541  40.232   5.123   7.064
 5651POPC   C4B71542  40.261   5.040   7.364
 5652POPC   NC371543  14.377  26.856   5.564
 5652POPC   PO471544  14.382  26.852   5.864
 5652POPC   GL171545  14.374  26.784   6.164
 5652POPC   GL271546  14.407  26.927   6.164
 5652POPC   C1A71547  14.428  26.866   6.464
 5652POPC   D2A71548  14.382  26.820   6.764
 5652POPC   C3A71549  14.416  26.861   7.064
 5652POPC   C4A71550  14.424  26.784   7.364
 5652POPC   C1B71551  14.340  27.107   6.464
 5652POPC   C2B71552  14.410  27.103   6.764
 5652POPC   C3B71553  14.393  27.105   7.064
 5652POPC   C4B71554  14.366  27.030   7.364
 5653POPC   NC371555   1.953  18.306   5.564
 5653POPC   PO471556   2.028  18.302   5.864
 5653POPC   GL171557   1.943  18.277   6.164
 5653POPC   GL271558   2.011  18.352   6.164
 5653POPC   C1A71559   2.008  18.318   6.464
 5653POPC   D2A71560   1.985  18.326   6.764
 5653POPC   C3A71561   1.961  18.332   7.064
 5653POPC   C4A71562   1.953  18.314   7.364
 5653POPC   C1B71563   2.077  18.522   6.464
 5653POPC   C2B71564   2.074  18.476   6.764
 5653POPC   C3B71565   2.121  18.498   7.064
 5653POPC   C4B71566   2.120  18.550   7.364
 5654POPC   NC371567  41.578  32.239   5.564
 5654POPC   PO471568  41.537  32.238   5.864
 5654POPC   GL171569  41.570  32.294   6.164
 5654POPC   GL271570  41.682  32.250   6.164
 5654POPC   C1A71571  41.600  32.280   6.464
 5654POPC   D2A71572  41.528  32.260   6.764
 5654POPC   C3A71573  41.553  32.292   7.064
 5654POPC   C4A71574  41.569  32.239   7.364
 5654POPC   C1B71575  41.817  32.275   6.464
 5654POPC   C2B71576  41.788  32.233   6.764
 5654POPC   C3B71577  41.771  32.205   7.064
 5654POPC   C4B71578  41.832  32.295   7.364
 5655POPC   NC371579  43.930  30.732   5.564
 5655POPC   PO471580  43.886  30.715   5.864
 5655POPC   GL171581  43.935  30.673   6.164
 5655POPC   GL271582  43.944  30.750   6.164
 5655POPC   C1A71583  43.905  30.686   6.464
 5655POPC   D2A71584  43.928  30.740   6.764
 5655POPC   C3A71585  43.869  30.706   7.064
 5655POPC   C4A71586  43.923  30.693   7.364
 5655POPC   C1B71587  44.079  30.869   6.464
 5655POPC   C2B71588  44.078  30.867   6.764
 5655POPC   C3B71589  44.084  30.793   7.064
 5655POPC   C4B71590  44.055  30.819   7.364
 5656POPC   NC371591  12.828  43.142   5.564
 5656POPC   PO471592  12.870  43.097   5.864
 5656POPC   GL171593  12.835  43.136   6.164
 5656POPC   GL271594  12.828  43.173   6.164
 5656POPC   C1A71595  12.823  43.062   6.464
 5656POPC   D2A71596  12.887  43.093   6.764
 5656POPC   C3A71597  12.820  43.128   7.064
 5656POPC   C4A71598  12.873  43.159   7.364
 5656POPC   C1B71599  12.734  43.313   6.464
 5656POPC   C2B71600  12.688  43.322   6.764
 5656POPC   C3B71601  12.729  43.294   7.064
 5656POPC   C4B71602  12.728  43.309   7.364
 5657POPC   NC371603  12.125  17.494   5.564
 5657POPC   PO471604  12.106  17.546   5.864
 5657POPC   GL171605  12.030  17.492   6.164
 5657POPC   GL271606  11.967  17.627   6.164
 5657POPC   C1A71607  12.112  17.478   6.464
 5657POPC   D2A71608  12.107  17.546   6.764
 5657POPC   C3A71609  12.048  17.550   7.064
 5657POPC   C4A71610  12.117  17.520   7.364
 5657POPC   C1B71611  11.935  17.696   6.464
 5657POPC   C2B71612  11.931  17.673   6.764
 5657POPC   C3B71613  11.876  17.680   7.064
 5657POPC   C4B71614  11.902  17.686   7.364
 5658POPC   NC371615  24.525  13.586   5.564
 5658POPC   PO471616  24.517  13.673   5.864
 5658POPC   GL171617  24.473  13.612   6.164
 5658POPC   GL271618  24.401  13.680   6.164
 5658POPC   C1A71619  24.441  13.668   6.464
 5658POPC   D2A71620  24.505  13.578   6.764
 5658POPC   C3A71621  24.532  13.623   7.064
 5658POPC   C4A71622  24.524  13.654   7.364
 5658POPC   C1B71623  24.279  13.743   6.464
 5658POPC   C2B71624  24.321  13.810   6.764
 5658POPC   C3B71625  24.269  13.807   7.064
 5658POPC   C4B71626  24.315  13.751   7.364
 5659POPC   NC371627   8.957   5.050   5.564
 5659POPC   PO471628   9.014   5.135   5.864
 5659POPC   GL171629   9.012   5.090   6.164
 5659POPC   GL271630   8.800   5.065   6.164
 5659POPC   C1A71631   8.946   5.051   6.464
 5659POPC   D2A71632   8.934   5.047   6.764
 5659POPC   C3A71633   8.983   5.097   7.064
 5659POPC   C4A71634   9.015   5.119   7.364
 5659POPC   C1B71635   8.736   5.078   6.464
 5659POPC   C2B71636   8.728   5.143   6.764
 5659POPC   C3B71637   8.720   5.069   7.064
 5659POPC   C4B71638   8.689   5.056   7.364
 5660POPC   NC371639  38.464  43.152   5.564
 5660POPC   PO471640  38.475  43.154   5.864
 5660POPC   GL171641  38.461  43.067   6.164
 5660POPC   GL271642  38.454  42.977   6.164
 5660POPC   C1A71643  38.409  43.150   6.464
 5660POPC   D2A71644  38.409  43.089   6.764
 5660POPC   C3A71645  38.485  43.088   7.064
 5660POPC   C4A71646  38.470  43.156   7.364
 5660POPC   C1B71647  38.350  42.861   6.464
 5660POPC   C2B71648  38.405  42.868   6.764
 5660POPC   C3B71649  38.388  42.912   7.064
 5660POPC   C4B71650  38.377  42.892   7.364
 5661POPC   NC371651  39.219  22.192   5.564
 5661POPC   PO471652  39.206  22.193   5.864
 5661POPC   GL171653  39.275  22.192   6.164
 5661POPC   GL271654  39.184  22.235   6.164
 5661POPC   C1A71655  39.246  22.192   6.464
 5661POPC   D2A71656  39.223  22.155   6.764
 5661POPC   C3A71657  39.271  22.198   7.064
 5661POPC   C4A71658  39.183  22.200   7.364
 5661POPC   C1B71659  39.062  22.334   6.464
 5661POPC   C2B71660  39.089  22.408   6.764
 5661POPC   C3B71661  39.088  22.344   7.064
 5661POPC   C4B71662  39.070  22.389   7.364
 5662POPC   NC371663  34.619  34.537   5.564
 5662POPC   PO471664  34.587  34.589   5.864
 5662POPC   GL171665  34.568  34.623   6.164
 5662POPC   GL271666  34.519  34.529   6.164
 5662POPC   C1A71667  34.586  34.624   6.464
 5662POPC   D2A71668  34.612  34.608   6.764
 5662POPC   C3A71669  34.625  34.547   7.064
 5662POPC   C4A71670  34.604  34.576   7.364
 5662POPC   C1B71671  34.404  34.447   6.464
 5662POPC   C2B71672  34.380  34.429   6.764
 5662POPC   C3B71673  34.369  34.366   7.064
 5662POPC   C4B71674  34.361  34.427   7.364
 5663POPC   NC371675  18.304   1.201   5.564
 5663POPC   PO471676  18.330   1.209   5.864
 5663POPC   GL171677  18.301   1.224   6.164
 5663POPC   GL271678  18.364   1.213   6.164
 5663POPC   C1A71679  18.248   1.169   6.464
 5663POPC   D2A71680  18.333   1.263   6.764
 5663POPC   C3A71681  18.305   1.208   7.064
 5663POPC   C4A71682  18.298   1.201   7.364
 5663POPC   C1B71683  18.530   1.199   6.464
 5663POPC   C2B71684  18.485   1.245   6.764
 5663POPC   C3B71685  18.561   1.225   7.064
 5663POPC   C4B71686  18.554   1.240   7.364
 5664POPC   NC371687   5.896  44.679   5.564
 5664POPC   PO471688   5.912  44.626   5.864
 5664POPC   GL171689   5.858  44.642   6.164
 5664POPC   GL271690   5.741  44.625   6.164
 5664POPC   C1A71691   5.852  44.662   6.464
 5664POPC   D2A71692   5.899  44.641   6.764
 5664POPC   C3A71693   5.909  44.639   7.064
 5664POPC   C4A71694   5.852  44.673   7.364
 5664POPC   C1B71695   5.628  44.705   6.464
 5664POPC   C2B71696   5.578  44.713   6.764
 5664POPC   C3B71697   5.576  44.636   7.064
 5664POPC   C4B71698   5.602  44.678   7.364
 5665POPC   NC371699  11.344  31.506   5.564
 5665POPC   PO471700  11.260  31.487   5.864
 5665POPC   GL171701  11.274  31.513   6.164
 5665POPC   GL271702  11.260  31.642   6.164
 5665POPC   C1A71703  11.252  31.505   6.464
 5665POPC   D2A71704  11.290  31.443   6.764
 5665POPC   C3A71705  11.312  31.477   7.064
 5665POPC   C4A71706  11.255  31.477   7.364
 5665POPC   C1B71707  11.243  31.689   6.464
 5665POPC   C2B71708  11.340  31.675   6.764
 5665POPC   C3B71709  11.333  31.735   7.064
 5665POPC   C4B71710  11.260  31.722   7.364
 5666POPC   NC371711  18.235  26.085   5.564
 5666POPC   PO471712  18.324  26.044   5.864
 5666POPC   GL171713  18.260  26.079   6.164
 5666POPC   GL271714  18.198  25.997   6.164
 5666POPC   C1A71715  18.323  26.079   6.464
 5666POPC   D2A71716  18.277  25.992   6.764
 5666POPC   C3A71717  18.236  26.044   7.064
 5666POPC   C4A71718  18.271  26.073   7.364
 5666POPC   C1B71719  18.020  25.959   6.464
 5666POPC   C2B71720  18.094  25.978   6.764
 5666POPC   C3B71721  17.999  25.977   7.064
 5666POPC   C4B71722  18.048  25.980   7.364
 5667POPC   NC371723  41.561  27.630   5.564
 5667POPC   PO471724  41.526  27.568   5.864
 5667POPC   GL171725  41.601  27.551   6.164
 5667POPC   GL271726  41.410  27.546   6.164
 5667POPC   C1A71727  41.604  27.558   6.464
 5667POPC   D2A71728  41.577  27.581   6.764
 5667POPC   C3A71729  41.517  27.597   7.064
 5667POPC   C4A71730  41.519  27.568   7.364
 5667POPC   C1B71731  41.289  27.543   6.464
 5667POPC   C2B71732  41.295  27.508   6.764
 5667POPC   C3B71733  41.311  27.578   7.064
 5667POPC   C4B71734  41.296  27.563   7.364
 5668POPC   NC371735  18.298  26.831   5.564
 5668POPC   PO471736  18.292  26.847   5.864
 5668POPC   GL171737  18.253  26.778   6.164
 5668POPC   GL271738  18.405  26.729   6.164
 5668POPC   C1A71739  18.264  26.864   6.464
 5668POPC   D2A71740  18.254  26.800   6.764
 5668POPC   C3A71741  18.255  26.839   7.064
 5668POPC   C4A71742  18.261  26.790   7.364
 5668POPC   C1B71743  18.529  26.742   6.464
 5668POPC   C2B71744  18.564  26.778   6.764
 5668POPC   C3B71745  18.473  26.780   7.064
 5668POPC   C4B71746  18.495  26.744   7.364
 5669POPC   NC371747  16.689  12.091   5.564
 5669POPC   PO471748  16.752  12.028   5.864
 5669POPC   GL171749  16.767  12.084   6.164
 5669POPC   GL271750  16.631  12.189   6.164
 5669POPC   C1A71751  16.742  12.097   6.464
 5669POPC   D2A71752  16.747  12.074   6.764
 5669POPC   C3A71753  16.732  12.075   7.064
 5669POPC   C4A71754  16.767  12.099   7.364
 5669POPC   C1B71755  16.648  12.334   6.464
 5669POPC   C2B71756  16.603  12.342   6.764
 5669POPC   C3B71757  16.654  12.315   7.064
 5669POPC   C4B71758  16.585  12.314   7.364
 5670POPC   NC371759  12.877  29.167   5.564
 5670POPC   PO471760  12.897  29.125   5.864
 5670POPC   GL171761  12.832  29.150   6.164
 5670POPC   GL271762  12.687  29.121   6.164
 5670POPC   C1A71763  12.860  29.156   6.464
 5670POPC   D2A71764  12.895  29.176   6.764
 5670POPC   C3A71765  12.870  29.191   7.064
 5670POPC   C4A71766  12.864  29.141   7.364
 5670POPC   C1B71767  12.617  29.110   6.464
 5670POPC   C2B71768  12.640  29.082   6.764
 5670POPC   C3B71769  12.613  29.100   7.064
 5670POPC   C4B71770  12.583  29.132   7.364
 5671POPC   NC371771  23.668  15.222   5.564
 5671POPC   PO471772  23.690  15.200   5.864
 5671POPC   GL171773  23.698  15.131   6.164
 5671POPC   GL271774  23.882  15.167   6.164
 5671POPC   C1A71775  23.687  15.137   6.464
 5671POPC   D2A71776  23.749  15.132   6.764
 5671POPC   C3A71777  23.686  15.185   7.064
 5671POPC   C4A71778  23.708  15.199   7.364
 5671POPC   C1B71779  24.004  15.128   6.464
 5671POPC   C2B71780  23.923  15.119   6.764
 5671POPC   C3B71781  23.932  15.183   7.064
 5671POPC   C4B71782  23.965  15.195   7.364
 5672POPC   NC371783   5.839  26.804   5.564
 5672POPC   PO471784   5.862  26.773   5.864
 5672POPC   GL171785   5.896  26.807   6.164
 5672POPC   GL271786   5.805  26.987   6.164
 5672POPC   C1A71787   5.867  26.781   6.464
 5672POPC   D2A71788   5.906  26.855   6.764
 5672POPC   C3A71789   5.883  26.806   7.064
 5672POPC   C4A71790   5.906  26.768   7.364
 5672POPC   C1B71791   5.819  27.098   6.464
 5672POPC   C2B71792   5.829  27.032   6.764
 5672POPC   C3B71793   5.758  27.055   7.064
 5672POPC   C4B71794   5.768  27.051   7.364
 5673POPC   NC371795  26.027  13.591   5.564
 5673POPC   PO471796  26.080  13.630   5.864
 5673POPC   GL171797  26.054  13.581   6.164
 5673POPC   GL271798  25.913  13.654   6.164
 5673POPC   C1A71799  26.046  13.624   6.464
 5673POPC   D2A71800  26.029  13.666   6.764
 5673POPC   C3A71801  26.054  13.660   7.064
 5673POPC   C4A71802  26.067  13.652   7.364
 5673POPC   C1B71803  25.783  13.774   6.464
 5673POPC   C2B71804  25.844  13.767   6.764
 5673POPC   C3B71805  25.830  13.783   7.064
 5673POPC   C4B71806  25.797  13.710   7.364
 5674POPC   NC371807  39.218  42.335   5.564
 5674POPC   PO471808  39.187  42.302   5.864
 5674POPC   GL171809  39.206  42.296   6.164
 5674POPC   GL271810  39.160  42.208   6.164
 5674POPC   C1A71811  39.241  42.351   6.464
 5674POPC   D2A71812  39.278  42.324   6.764
 5674POPC   C3A71813  39.199  42.311   7.064
 5674POPC   C4A71814  39.279  42.362   7.364
 5674POPC   C1B71815  39.130  42.134   6.464
 5674POPC   C2B71816  39.135  42.135   6.764
 5674POPC   C3B71817  39.155  42.135   7.064
 5674POPC   C4B71818  39.098  42.138   7.364
 5675POPC   NC371819  44.667  25.307   5.564
 5675POPC   PO471820  44.645  25.228   5.864
 5675POPC   GL171821  44.690  25.291   6.164
 5675POPC   GL271822  44.532  25.301   6.164
 5675POPC   C1A71823  44.652  25.255   6.464
 5675POPC   D2A71824  44.674  25.247   6.764
 5675POPC   C3A71825  44.657  25.248   7.064
 5675POPC   C4A71826  44.662  25.245   7.364
 5675POPC   C1B71827  44.380  25.332   6.464
 5675POPC   C2B71828  44.411  25.293   6.764
 5675POPC   C3B71829  44.377  25.292   7.064
 5675POPC   C4B71830  44.400  25.348   7.364
 5676POPC   NC371831  37.633  13.606   5.564
 5676POPC   PO471832  37.634  13.626   5.864
 5676POPC   GL171833  37.650  13.672   6.164
 5676POPC   GL271834  37.631  13.738   6.164
 5676POPC   C1A71835  37.686  13.597   6.464
 5676POPC   D2A71836  37.679  13.619   6.764
 5676POPC   C3A71837  37.696  13.624   7.064
 5676POPC   C4A71838  37.645  13.579   7.364
 5676POPC   C1B71839  37.627  13.834   6.464
 5676POPC   C2B71840  37.644  13.887   6.764
 5676POPC   C3B71841  37.680  13.912   7.064
 5676POPC   C4B71842  37.656  13.900   7.364
 5677POPC   NC371843   1.243   2.029   5.564
 5677POPC   PO471844   1.213   1.955   5.864
 5677POPC   GL171845   1.258   1.947   6.164
 5677POPC   GL271846   1.313   2.071   6.164
 5677POPC   C1A71847   1.190   1.942   6.464
 5677POPC   D2A71848   1.230   2.018   6.764
 5677POPC   C3A71849   1.215   1.986   7.064
 5677POPC   C4A71850   1.168   1.965   7.364
 5677POPC   C1B71851   1.453   2.128   6.464
 5677POPC   C2B71852   1.358   2.112   6.764
 5677POPC   C3B71853   1.366   2.105   7.064
 5677POPC   C4B71854   1.451   2.166   7.364
 5678POPC   NC371855  33.811  26.851   5.564
 5678POPC   PO471856  33.848  26.811   5.864
 5678POPC   GL171857  33.821  26.809   6.164
 5678POPC   GL271858  33.930  26.874   6.164
 5678POPC   C1A71859  33.832  26.843   6.464
 5678POPC   D2A71860  33.762  26.850   6.764
 5678POPC   C3A71861  33.798  26.831   7.064
 5678POPC   C4A71862  33.793  26.859   7.364
 5678POPC   C1B71863  34.051  26.986   6.464
 5678POPC   C2B71864  34.056  26.937   6.764
 5678POPC   C3B71865  33.965  26.934   7.064
 5678POPC   C4B71866  34.035  26.985   7.364
 5679POPC   NC371867  13.579  44.697   5.564
 5679POPC   PO471868  13.676  44.657   5.864
 5679POPC   GL171869  13.662  44.690   6.164
 5679POPC   GL271870  13.491  44.696   6.164
 5679POPC   C1A71871  13.594  44.627   6.464
 5679POPC   D2A71872  13.658  44.617   6.764
 5679POPC   C3A71873  13.597  44.712   7.064
 5679POPC   C4A71874  13.635  44.624   7.364
 5679POPC   C1B71875  13.432  44.792   6.464
 5679POPC   C2B71876  13.441  44.770   6.764
 5679POPC   C3B71877  13.414  44.809   7.064
 5679POPC   C4B71878  13.401  44.810   7.364
 5680POPC   NC371879   8.199   1.966   5.564
 5680POPC   PO471880   8.169   1.957   5.864
 5680POPC   GL171881   8.192   1.980   6.164
 5680POPC   GL271882   8.231   1.946   6.164
 5680POPC   C1A71883   8.201   2.006   6.464
 5680POPC   D2A71884   8.198   1.979   6.764
 5680POPC   C3A71885   8.188   1.950   7.064
 5680POPC   C4A71886   8.198   1.945   7.364
 5680POPC   C1B71887   8.389   1.842   6.464
 5680POPC   C2B71888   8.345   1.799   6.764
 5680POPC   C3B71889   8.369   1.847   7.064
 5680POPC   C4B71890   8.397   1.773   7.364
 5681POPC   NC371891  34.550   2.013   5.564
 5681POPC   PO471892  34.529   2.017   5.864
 5681POPC   GL171893  34.622   2.001   6.164
 5681POPC   GL271894  34.648   1.905   6.164
 5681POPC   C1A71895  34.528   1.997   6.464
 5681POPC   D2A71896  34.584   1.946   6.764
 5681POPC   C3A71897  34.609   2.031   7.064
 5681POPC   C4A71898  34.613   1.975   7.364
 5681POPC   C1B71899  34.778   1.819   6.464
 5681POPC   C2B71900  34.748   1.809   6.764
 5681POPC   C3B71901  34.693   1.844   7.064
 5681POPC   C4B71902  34.759   1.819   7.364
 5682POPC   NC371903  26.015  15.955   5.564
 5682POPC   PO471904  26.048  16.005   5.864
 5682POPC   GL171905  26.087  15.934   6.164
 5682POPC   GL271906  25.976  15.841   6.164
 5682POPC   C1A71907  26.044  15.961   6.464
 5682POPC   D2A71908  26.055  15.972   6.764
 5682POPC   C3A71909  26.071  15.999   7.064
 5682POPC   C4A71910  26.090  15.970   7.364
 5682POPC   C1B71911  25.973  15.703   6.464
 5682POPC   C2B71912  26.005  15.712   6.764
 5682POPC   C3B71913  25.949  15.726   7.064
 5682POPC   C4B71914  26.002  15.700   7.364
 5683POPC   NC371915  44.618   6.601   5.564
 5683POPC   PO471916  44.654   6.650   5.864
 5683POPC   GL171917  44.695   6.620   6.164
 5683POPC   GL271918  44.774   6.532   6.164
 5683POPC   C1A71919  44.709   6.645   6.464
 5683POPC   D2A71920  44.642   6.685   6.764
 5683POPC   C3A71921  44.668   6.609   7.064
 5683POPC   C4A71922  44.706   6.640   7.364
 5683POPC   C1B71923  44.800   6.429   6.464
 5683POPC   C2B71924  44.766   6.464   6.764
 5683POPC   C3B71925  44.762   6.434   7.064
 5683POPC   C4B71926  44.845   6.451   7.364
 5684POPC   NC371927  10.485   6.633   5.564
 5684POPC   PO471928  10.529   6.642   5.864
 5684POPC   GL171929  10.531   6.684   6.164
 5684POPC   GL271930  10.636   6.698   6.164
 5684POPC   C1A71931  10.536   6.653   6.464
 5684POPC   D2A71932  10.478   6.680   6.764
 5684POPC   C3A71933  10.573   6.683   7.064
 5684POPC   C4A71934  10.540   6.612   7.364
 5684POPC   C1B71935  10.696   6.800   6.464
 5684POPC   C2B71936  10.697   6.814   6.764
 5684POPC   C3B71937  10.752   6.809   7.064
 5684POPC   C4B71938  10.693   6.758   7.364
 5685POPC   NC371939  22.139   5.919   5.564
 5685POPC   PO471940  22.181   5.838   5.864
 5685POPC   GL171941  22.126   5.837   6.164
 5685POPC   GL271942  22.150   5.752   6.164
 5685POPC   C1A71943  22.159   5.823   6.464
 5685POPC   D2A71944  22.200   5.831   6.764
 5685POPC   C3A71945  22.151   5.888   7.064
 5685POPC   C4A71946  22.161   5.894   7.364
 5685POPC   C1B71947  22.097   5.640   6.464
 5685POPC   C2B71948  22.141   5.641   6.764
 5685POPC   C3B71949  22.130   5.594   7.064
 5685POPC   C4B71950  22.052   5.586   7.364
 5686POPC   NC371951  26.012  28.376   5.564
 5686POPC   PO471952  26.043  28.399   5.864
 5686POPC   GL171953  26.010  28.414   6.164
 5686POPC   GL271954  25.910  28.457   6.164
 5686POPC   C1A71955  26.084  28.343   6.464
 5686POPC   D2A71956  26.006  28.351   6.764
 5686POPC   C3A71957  26.048  28.357   7.064
 5686POPC   C4A71958  26.036  28.415   7.364
 5686POPC   C1B71959  25.796  28.498   6.464
 5686POPC   C2B71960  25.775  28.463   6.764
 5686POPC   C3B71961  25.796  28.447   7.064
 5686POPC   C4B71962  25.855  28.469   7.364
 5687POPC   NC371963  33.806  14.433   5.564
 5687POPC   PO471964  33.832  14.357   5.864
 5687POPC   GL171965  33.842  14.429   6.164
 5687POPC   GL271966  33.710  14.443   6.164
 5687POPC   C1A71967  33.847  14.410   6.464
 5687POPC   D2A71968  33.810  14.427   6.764
 5687POPC   C3A71969  33.764  14.408   7.064
 5687POPC   C4A71970  33.825  14.438   7.364
 5687POPC   C1B71971  33.548  14.556   6.464
 5687POPC   C2B71972  33.627  14.499   6.764
 5687POPC   C3B71973  33.590  14.512   7.064
 5687POPC   C4B71974  33.564  14.543   7.364
 5688POPC   NC371975  23.689  38.427   5.564
 5688POPC   PO471976  23.721  38.491   5.864
 5688POPC   GL171977  23.725  38.494   6.164
 5688POPC   GL271978  23.653  38.546   6.164
 5688POPC   C1A71979  23.761  38.435   6.464
 5688POPC   D2A71980  23.722  38.449   6.764
 5688POPC   C3A71981  23.693  38.407   7.064
 5688POPC   C4A71982  23.744  38.486   7.364
 5688POPC   C1B71983  23.612  38.654   6.464
 5688POPC   C2B71984  23.596  38.687   6.764
 5688POPC   C3B71985  23.575  38.624   7.064
 5688POPC   C4B71986  23.556  38.634   7.364
 5689POPC   NC371987   5.849  43.103   5.564
 5689POPC   PO471988   5.915  43.071   5.864
 5689POPC   GL171989   5.873  43.066   6.164
 5689POPC   GL271990   5.761  43.012   6.164
 5689POPC   C1A71991   5.875  43.100   6.464
 5689POPC   D2A71992   5.872  43.137   6.764
 5689POPC   C3A71993   5.828  43.145   7.064
 5689POPC   C4A71994   5.850  43.137   7.364
 5689POPC   C1B71995   5.754  42.897   6.464
 5689POPC   C2B71996   5.691  42.906   6.764
 5689POPC   C3B71997   5.740  42.898   7.064
 5689POPC   C4B71998   5.746  42.933   7.364
 5690POPC   NC371999  13.654  25.273   5.564
 5690POPC   PO472000  13.658  25.305   5.864
 5690POPC   GL172001  13.612  25.232   6.164
 5690POPC   GL272002  13.501  25.164   6.164
 5690POPC   C1A72003  13.673  25.264   6.464
 5690POPC   D2A72004  13.611  25.312   6.764
 5690POPC   C3A72005  13.635  25.296   7.064
 5690POPC   C4A72006  13.601  25.230   7.364
 5690POPC   C1B72007  13.416  25.054   6.464
 5690POPC   C2B72008  13.424  25.115   6.764
 5690POPC   C3B72009  13.417  25.088   7.064
 5690POPC   C4B72010  13.429  25.130   7.364
 5691POPC   NC372011  18.258   7.377   5.564
 5691POPC   PO472012  18.299   7.373   5.864
 5691POPC   GL172013  18.288   7.453   6.164
 5691POPC   GL272014  18.131   7.390   6.164
 5691POPC   C1A72015  18.292   7.433   6.464
 5691POPC   D2A72016  18.322   7.372   6.764
 5691POPC   C3A72017  18.311   7.409   7.064
 5691POPC   C4A72018  18.311   7.405   7.364
 5691POPC   C1B72019  18.019   7.379   6.464
 5691POPC   C2B72020  18.050   7.413   6.764
 5691POPC   C3B72021  18.059   7.459   7.064
 5691POPC   C4B72022  17.992   7.466   7.364
 5692POPC   NC372023  32.243  17.552   5.564
 5692POPC   PO472024  32.212  17.473   5.864
 5692POPC   GL172025  32.259  17.467   6.164
 5692POPC   GL272026  32.256  17.654   6.164
 5692POPC   C1A72027  32.278  17.542   6.464
 5692POPC   D2A72028  32.211  17.554   6.764
 5692POPC   C3A72029  32.255  17.490   7.064
 5692POPC   C4A72030  32.229  17.458   7.364
 5692POPC   C1B72031  32.322  17.782   6.464
 5692POPC   C2B72032  32.299  17.702   6.764
 5692POPC   C3B72033  32.255  17.783   7.064
 5692POPC   C4B72034  32.253  17.705   7.364
 5693POPC   NC372035  33.773   9.705   5.564
 5693POPC   PO472036  33.790   9.751   5.864
 5693POPC   GL172037  33.752   9.715   6.164
 5693POPC   GL272038  33.656   9.807   6.164
 5693POPC   C1A72039  33.791   9.738   6.464
 5693POPC   D2A72040  33.774   9.724   6.764
 5693POPC   C3A72041  33.752   9.750   7.064
 5693POPC   C4A72042  33.794   9.771   7.364
 5693POPC   C1B72043  33.587   9.792   6.464
 5693POPC   C2B72044  33.507   9.786   6.764
 5693POPC   C3B72045  33.601   9.769   7.064
 5693POPC   C4B72046  33.509   9.804   7.364
 5694POPC   NC372047  19.786   0.463   5.564
 5694POPC   PO472048  19.787   0.432   5.864
 5694POPC   GL172049  19.819   0.425   6.164
 5694POPC   GL272050  19.681   0.372   6.164
 5694POPC   C1A72051  19.830   0.389   6.464
 5694POPC   D2A72052  19.857   0.389   6.764
 5694POPC   C3A72053  19.833   0.480   7.064
 5694POPC   C4A72054  19.866   0.407   7.364
 5694POPC   C1B72055  19.620   0.423   6.464
 5694POPC   C2B72056  19.628   0.373   6.764
 5694POPC   C3B72057  19.564   0.367   7.064
 5694POPC   C4B72058  19.574   0.385   7.364
 5695POPC   NC372059  10.528  32.249   5.564
 5695POPC   PO472060  10.529  32.292   5.864
 5695POPC   GL172061  10.525  32.238   6.164
 5695POPC   GL272062  10.387  32.257   6.164
 5695POPC   C1A72063  10.543  32.233   6.464
 5695POPC   D2A72064  10.496  32.262   6.764
 5695POPC   C3A72065  10.555  32.199   7.064
 5695POPC   C4A72066  10.559  32.259   7.364
 5695POPC   C1B72067  10.325  32.328   6.464
 5695POPC   C2B72068  10.295  32.322   6.764
 5695POPC   C3B72069  10.306  32.324   7.064
 5695POPC   C4B72070  10.298  32.323   7.364
 5696POPC   NC372071  23.726   0.464   5.564
 5696POPC   PO472072  23.745   0.454   5.864
 5696POPC   GL172073  23.670   0.458   6.164
 5696POPC   GL272074  23.600   0.362   6.164
 5696POPC   C1A72075  23.701   0.482   6.464
 5696POPC   D2A72076  23.708   0.487   6.764
 5696POPC   C3A72077  23.735   0.472   7.064
 5696POPC   C4A72078  23.759   0.389   7.364
 5696POPC   C1B72079  23.430   0.356   6.464
 5696POPC   C2B72080  23.421   0.384   6.764
 5696POPC   C3B72081  23.440   0.411   7.064
 5696POPC   C4B72082  23.427   0.374   7.364
 5697POPC   NC372083  36.097  38.494   5.564
 5697POPC   PO472084  36.112  38.485   5.864
 5697POPC   GL172085  36.156  38.463   6.164
 5697POPC   GL272086  36.262  38.364   6.164
 5697POPC   C1A72087  36.172  38.493   6.464
 5697POPC   D2A72088  36.127  38.416   6.764
 5697POPC   C3A72089  36.111  38.483   7.064
 5697POPC   C4A72090  36.143  38.504   7.364
 5697POPC   C1B72091  36.322  38.368   6.464
 5697POPC   C2B72092  36.325  38.375   6.764
 5697POPC   C3B72093  36.347  38.377   7.064
 5697POPC   C4B72094  36.381  38.295   7.364
 5698POPC   NC372095  35.345  34.565   5.564
 5698POPC   PO472096  35.308  34.613   5.864
 5698POPC   GL172097  35.347  34.533   6.164
 5698POPC   GL272098  35.203  34.611   6.164
 5698POPC   C1A72099  35.343  34.589   6.464
 5698POPC   D2A72100  35.399  34.568   6.764
 5698POPC   C3A72101  35.387  34.620   7.064
 5698POPC   C4A72102  35.338  34.557   7.364
 5698POPC   C1B72103  35.121  34.659   6.464
 5698POPC   C2B72104  35.156  34.656   6.764
 5698POPC   C3B72105  35.154  34.668   7.064
 5698POPC   C4B72106  35.174  34.704   7.364
 5699POPC   NC372107  12.834  27.612   5.564
 5699POPC   PO472108  12.844  27.622   5.864
 5699POPC   GL172109  12.820  27.637   6.164
 5699POPC   GL272110  12.780  27.512   6.164
 5699POPC   C1A72111  12.893  27.641   6.464
 5699POPC   D2A72112  12.818  27.546   6.764
 5699POPC   C3A72113  12.818  27.623   7.064
 5699POPC   C4A72114  12.869  27.618   7.364
 5699POPC   C1B72115  12.633  27.469   6.464
 5699POPC   C2B72116  12.619  27.491   6.764
 5699POPC   C3B72117  12.612  27.525   7.064
 5699POPC   C4B72118  12.669  27.471   7.364
 5700POPC   NC372119   9.773  36.917   5.564
 5700POPC   PO472120   9.755  36.916   5.864
 5700POPC   GL172121   9.731  36.889   6.164
 5700POPC   GL272122   9.587  36.899   6.164
 5700POPC   C1A72123   9.771  36.900   6.464
 5700POPC   D2A72124   9.762  36.898   6.764
 5700POPC   C3A72125   9.786  36.950   7.064
 5700POPC   C4A72126   9.743  36.946   7.364
 5700POPC   C1B72127   9.543  36.919   6.464
 5700POPC   C2B72128   9.465  36.913   6.764
 5700POPC   C3B72129   9.472  36.960   7.064
 5700POPC   C4B72130   9.516  36.959   7.364
 5701POPC   NC372131  44.670  33.007   5.564
 5701POPC   PO472132  44.654  33.013   5.864
 5701POPC   GL172133  44.676  33.003   6.164
 5701POPC   GL272134  44.743  32.972   6.164
 5701POPC   C1A72135  44.639  33.003   6.464
 5701POPC   D2A72136  44.637  33.043   6.764
 5701POPC   C3A72137  44.613  33.025   7.064
 5701POPC   C4A72138  44.614  33.036   7.364
 5701POPC   C1B72139  44.779  32.869   6.464
 5701POPC   C2B72140  44.777  32.818   6.764
 5701POPC   C3B72141  44.815  32.857   7.064
 5701POPC   C4B72142  44.821  32.866   7.364
 5702POPC   NC372143   8.156  29.966   5.564
 5702POPC   PO472144   8.179  29.901   5.864
 5702POPC   GL172145   8.206  29.908   6.164
 5702POPC   GL272146   8.327  29.982   6.164
 5702POPC   C1A72147   8.176  29.926   6.464
 5702POPC   D2A72148   8.199  29.938   6.764
 5702POPC   C3A72149   8.235  29.958   7.064
 5702POPC   C4A72150   8.148  29.908   7.364
 5702POPC   C1B72151   8.485  29.970   6.464
 5702POPC   C2B72152   8.398  30.015   6.764
 5702POPC   C3B72153   8.396  29.974   7.064
 5702POPC   C4B72154   8.413  29.993   7.364
 5703POPC   NC372155  23.734  15.923   5.564
 5703POPC   PO472156  23.687  15.973   5.864
 5703POPC   GL172157  23.705  15.933   6.164
 5703POPC   GL272158  23.642  16.033   6.164
 5703POPC   C1A72159  23.743  15.966   6.464
 5703POPC   D2A72160  23.737  15.926   6.764
 5703POPC   C3A72161  23.710  15.986   7.064
 5703POPC   C4A72162  23.753  15.926   7.364
 5703POPC   C1B72163  23.530  16.149   6.464
 5703POPC   C2B72164  23.572  16.158   6.764
 5703POPC   C3B72165  23.605  16.203   7.064
 5703POPC   C4B72166  23.598  16.145   7.364
 5704POPC   NC372167   8.973  32.204   5.564
 5704POPC   PO472168   8.927  32.251   5.864
 5704POPC   GL172169   9.018  32.202   6.164
 5704POPC   GL272170   9.045  32.118   6.164
 5704POPC   C1A72171   9.017  32.207   6.464
 5704POPC   D2A72172   9.005  32.216   6.764
 5704POPC   C3A72173   8.968  32.250   7.064
 5704POPC   C4A72174   8.937  32.201   7.364
 5704POPC   C1B72175   9.169  32.084   6.464
 5704POPC   C2B72176   9.119  32.088   6.764
 5704POPC   C3B72177   9.146  32.037   7.064
 5704POPC   C4B72178   9.197  32.066   7.364
 5705POPC   NC372179  32.991  14.372   5.564
 5705POPC   PO472180  33.010  14.382   5.864
 5705POPC   GL172181  33.019  14.402   6.164
 5705POPC   GL272182  33.109  14.306   6.164
 5705POPC   C1A72183  33.051  14.430   6.464
 5705POPC   D2A72184  33.029  14.376   6.764
 5705POPC   C3A72185  33.070  14.407   7.064
 5705POPC   C4A72186  33.070  14.390   7.364
 5705POPC   C1B72187  33.184  14.227   6.464
 5705POPC   C2B72188  33.118  14.235   6.764
 5705POPC   C3B72189  33.177  14.170   7.064
 5705POPC   C4B72190  33.187  14.176   7.364
 5706POPC   NC372191  31.476  36.911   5.564
 5706POPC   PO472192  31.509  36.945   5.864
 5706POPC   GL172193  31.484  36.953   6.164
 5706POPC   GL272194  31.351  36.807   6.164
 5706POPC   C1A72195  31.440  36.904   6.464
 5706POPC   D2A72196  31.470  36.931   6.764
 5706POPC   C3A72197  31.444  36.897   7.064
 5706POPC   C4A72198  31.511  36.912   7.364
 5706POPC   C1B72199  31.307  36.743   6.464
 5706POPC   C2B72200  31.236  36.730   6.764
 5706POPC   C3B72201  31.285  36.774   7.064
 5706POPC   C4B72202  31.238  36.729   7.364
 5707POPC   NC372203  15.965   8.222   5.564
 5707POPC   PO472204  15.989   8.147   5.864
 5707POPC   GL172205  15.984   8.188   6.164
 5707POPC   GL272206  16.018   8.107   6.164
 5707POPC   C1A72207  15.954   8.176   6.464
 5707POPC   D2A72208  15.940   8.161   6.764
 5707POPC   C3A72209  15.976   8.186   7.064
 5707POPC   C4A72210  15.932   8.200   7.364
 5707POPC   C1B72211  15.968   7.902   6.464
 5707POPC   C2B72212  16.010   7.936   6.764
 5707POPC   C3B72213  15.960   7.916   7.064
 5707POPC   C4B72214  16.012   7.905   7.364
 5708POPC   NC372215  41.539  31.479   5.564
 5708POPC   PO472216  41.572  31.507   5.864
 5708POPC   GL172217  41.531  31.491   6.164
 5708POPC   GL272218  41.531  31.371   6.164
 5708POPC   C1A72219  41.557  31.484   6.464
 5708POPC   D2A72220  41.600  31.460   6.764
 5708POPC   C3A72221  41.549  31.501   7.064
 5708POPC   C4A72222  41.577  31.455   7.364
 5708POPC   C1B72223  41.616  31.221   6.464
 5708POPC   C2B72224  41.575  31.216   6.764
 5708POPC   C3B72225  41.607  31.235   7.064
 5708POPC   C4B72226  41.633  31.247   7.364
 5709POPC   NC372227   4.313  44.687   5.564
 5709POPC   PO472228   4.268  44.630   5.864
 5709POPC   GL172229   4.329  44.704   6.164
 5709POPC   GL272230   4.378  44.760   6.164
 5709POPC   C1A72231   4.304  44.686   6.464
 5709POPC   D2A72232   4.352  44.634   6.764
 5709POPC   C3A72233   4.267  44.667   7.064
 5709POPC   C4A72234   4.353  44.663   7.364
 5709POPC   C1B72235   4.419  44.873   6.464
 5709POPC   C2B72236   4.444  44.899   6.764
 5709POPC   C3B72237   4.350  44.920   7.064
 5709POPC   C4B72238   4.408  44.933   7.364
 5710POPC   NC372239  22.900  22.968   5.564
 5710POPC   PO472240  22.962  22.974   5.864
 5710POPC   GL172241  22.944  22.899   6.164
 5710POPC   GL272242  23.020  22.958   6.164
 5710POPC   C1A72243  22.891  22.976   6.464
 5710POPC   D2A72244  22.962  22.892   6.764
 5710POPC   C3A72245  22.907  22.964   7.064
 5710POPC   C4A72246  22.949  22.909   7.364
 5710POPC   C1B72247  23.157  23.027   6.464
 5710POPC   C2B72248  23.167  22.984   6.764
 5710POPC   C3B72249  23.212  23.074   7.064
 5710POPC   C4B72250  23.180  23.075   7.364
 5711POPC   NC372251  36.950  38.477   5.564
 5711POPC   PO472252  36.948  38.439   5.864
 5711POPC   GL172253  36.858  38.408   6.164
 5711POPC   GL272254  36.900  38.590   6.164
 5711POPC   C1A72255  36.879  38.500   6.464
 5711POPC   D2A72256  36.888  38.425   6.764
 5711POPC   C3A72257  36.931  38.447   7.064
 5711POPC   C4A72258  36.859  38.454   7.364
 5711POPC   C1B72259  36.842  38.689   6.464
 5711POPC   C2B72260  36.846  38.687   6.764
 5711POPC   C3B72261  36.836  38.663   7.064
 5711POPC   C4B72262  36.858  38.695   7.364
 5712POPC   NC372263  36.868  18.274   5.564
 5712POPC   PO472264  36.916  18.287   5.864
 5712POPC   GL172265  36.948  18.277   6.164
 5712POPC   GL272266  36.886  18.129   6.164
 5712POPC   C1A72267  36.924  18.330   6.464
 5712POPC   D2A72268  36.921  18.276   6.764
 5712POPC   C3A72269  36.932  18.281   7.064
 5712POPC   C4A72270  36.882  18.323   7.364
 5712POPC   C1B72271  36.900  18.069   6.464
 5712POPC   C2B72272  36.944  18.081   6.764
 5712POPC   C3B72273  36.970  18.035   7.064
 5712POPC   C4B72274  36.903  18.077   7.364
 5713POPC   NC372275  31.465  11.335   5.564
 5713POPC   PO472276  31.520  11.268   5.864
 5713POPC   GL172277  31.507  11.302   6.164
 5713POPC   GL272278  31.398  11.366   6.164
 5713POPC   C1A72279  31.492  11.297   6.464
 5713POPC   D2A72280  31.436  11.293   6.764
 5713POPC   C3A72281  31.435  11.276   7.064
 5713POPC   C4A72282  31.486  11.311   7.364
 5713POPC   C1B72283  31.266  11.391   6.464
 5713POPC   C2B72284  31.194  11.393   6.764
 5713POPC   C3B72285  31.240  11.385   7.064
 5713POPC   C4B72286  31.254  11.392   7.364
 5714POPC   NC372287  14.416   1.196   5.564
 5714POPC   PO472288  14.357   1.165   5.864
 5714POPC   GL172289  14.413   1.240   6.164
 5714POPC   GL272290  14.240   1.231   6.164
 5714POPC   C1A72291  14.428   1.200   6.464
 5714POPC   D2A72292  14.446   1.175   6.764
 5714POPC   C3A72293  14.444   1.257   7.064
 5714POPC   C4A72294  14.373   1.227   7.364
 5714POPC   C1B72295  14.177   1.340   6.464
 5714POPC   C2B72296  14.151   1.288   6.764
 5714POPC   C3B72297  14.153   1.273   7.064
 5714POPC   C4B72298  14.182   1.351   7.364
 5715POPC   NC372299  41.585  43.135   5.564
 5715POPC   PO472300  41.527  43.154   5.864
 5715POPC   GL172301  41.580  43.155   6.164
 5715POPC   GL272302  41.605  43.205   6.164
 5715POPC   C1A72303  41.511  43.070   6.464
 5715POPC   D2A72304  41.515  43.072   6.764
 5715POPC   C3A72305  41.576  43.109   7.064
 5715POPC   C4A72306  41.590  43.118   7.364
 5715POPC   C1B72307  41.621  43.394   6.464
 5715POPC   C2B72308  41.611  43.407   6.764
 5715POPC   C3B72309  41.604  43.392   7.064
 5715POPC   C4B72310  41.574  43.392   7.364
 5716POPC   NC372311  36.111  34.583   5.564
 5716POPC   PO472312  36.117  34.582   5.864
 5716POPC   GL172313  36.094  34.544   6.164
 5716POPC   GL272314  36.148  34.485   6.164
 5716POPC   C1A72315  36.121  34.589   6.464
 5716POPC   D2A72316  36.119  34.560   6.764
 5716POPC   C3A72317  36.102  34.557   7.064
 5716POPC   C4A72318  36.090  34.536   7.364
 5716POPC   C1B72319  36.049  34.291   6.464
 5716POPC   C2B72320  36.039  34.324   6.764
 5716POPC   C3B72321  36.113  34.310   7.064
 5716POPC   C4B72322  36.099  34.350   7.364
 5717POPC   NC372323  36.129  12.818   5.564
 5717POPC   PO472324  36.144  12.871   5.864
 5717POPC   GL172325  36.111  12.829   6.164
 5717POPC   GL272326  36.132  12.776   6.164
 5717POPC   C1A72327  36.092  12.838   6.464
 5717POPC   D2A72328  36.144  12.836   6.764
 5717POPC   C3A72329  36.109  12.897   7.064
 5717POPC   C4A72330  36.108  12.805   7.364
 5717POPC   C1B72331  36.064  12.607   6.464
 5717POPC   C2B72332  36.056  12.587   6.764
 5717POPC   C3B72333  36.034  12.588   7.064
 5717POPC   C4B72334  36.082  12.624   7.364
 5718POPC   NC372335  44.670  21.352   5.564
 5718POPC   PO472336  44.707  21.367   5.864
 5718POPC   GL172337  44.708  21.369   6.164
 5718POPC   GL272338  44.702  21.460   6.164
 5718POPC   C1A72339  44.710  21.388   6.464
 5718POPC   D2A72340  44.671  21.354   6.764
 5718POPC   C3A72341  44.658  21.381   7.064
 5718POPC   C4A72342  44.680  21.346   7.364
 5718POPC   C1B72343  44.809  21.610   6.464
 5718POPC   C2B72344  44.790  21.619   6.764
 5718POPC   C3B72345  44.761  21.571   7.064
 5718POPC   C4B72346  44.846  21.638   7.364
 5719POPC   NC372347  43.079   8.984   5.564
 5719POPC   PO472348  43.075   8.937   5.864
 5719POPC   GL172349  43.110   8.959   6.164
 5719POPC   GL272350  43.154   8.907   6.164
 5719POPC   C1A72351  43.123   9.014   6.464
 5719POPC   D2A72352  43.100   9.008   6.764
 5719POPC   C3A72353  43.137   8.974   7.064
 5719POPC   C4A72354  43.113   8.939   7.364
 5719POPC   C1B72355  43.247   8.760   6.464
 5719POPC   C2B72356  43.223   8.706   6.764
 5719POPC   C3B72357  43.197   8.715   7.064
 5719POPC   C4B72358  43.217   8.708   7.364
 5720POPC   NC372359  32.987  28.381   5.564
 5720POPC   PO472360  33.035  28.347   5.864
 5720POPC   GL172361  32.980  28.350   6.164
 5720POPC   GL272362  32.929  28.373   6.164
 5720POPC   C1A72363  33.031  28.351   6.464
 5720POPC   D2A72364  32.981  28.356   6.764
 5720POPC   C3A72365  33.019  28.382   7.064
 5720POPC   C4A72366  32.992  28.358   7.364
 5720POPC   C1B72367  32.756  28.432   6.464
 5720POPC   C2B72368  32.782  28.436   6.764
 5720POPC   C3B72369  32.804  28.501   7.064
 5720POPC   C4B72370  32.774  28.507   7.364
 5721POPC   NC372371  33.054  43.159   5.564
 5721POPC   PO472372  33.033  43.156   5.864
 5721POPC   GL172373  33.064  43.135   6.164
 5721POPC   GL272374  32.856  43.071   6.164
 5721POPC   C1A72375  33.035  43.098   6.464
 5721POPC   D2A72376  33.047  43.157   6.764
 5721POPC   C3A72377  32.994  43.061   7.064
 5721POPC   C4A72378  33.055  43.117   7.364
 5721POPC   C1B72379  32.733  43.132   6.464
 5721POPC   C2B72380  32.811  43.130   6.764
 5721POPC   C3B72381  32.742  43.131   7.064
 5721POPC   C4B72382  32.730  43.159   7.364
 5722POPC   NC372383  22.188   0.440   5.564
 5722POPC   PO472384  22.156   0.413   5.864
 5722POPC   GL172385  22.130   0.441   6.164
 5722POPC   GL272386  22.056   0.298   6.164
 5722POPC   C1A72387  22.126   0.417   6.464
 5722POPC   D2A72388  22.120   0.391   6.764
 5722POPC   C3A72389  22.166   0.444   7.064
 5722POPC   C4A72390  22.132   0.394   7.364
 5722POPC   C1B72391  22.048   0.263   6.464
 5722POPC   C2B72392  22.055   0.182   6.764
 5722POPC   C3B72393  22.033   0.180   7.064
 5722POPC   C4B72394  22.036   0.206   7.364
 5723POPC   NC372395  37.637  29.929   5.564
 5723POPC   PO472396  37.680  29.910   5.864
 5723POPC   GL172397  37.695  29.894   6.164
 5723POPC   GL272398  37.662  30.051   6.164
 5723POPC   C1A72399  37.673  29.896   6.464
 5723POPC   D2A72400  37.728  29.959   6.764
 5723POPC   C3A72401  37.720  29.920   7.064
 5723POPC   C4A72402  37.716  29.935   7.364
 5723POPC   C1B72403  37.783  30.114   6.464
 5723POPC   C2B72404  37.754  30.126   6.764
 5723POPC   C3B72405  37.723  30.148   7.064
 5723POPC   C4B72406  37.743  30.183   7.364
 5724POPC   NC372407  36.900  10.523   5.564
 5724POPC   PO472408  36.869  10.561   5.864
 5724POPC   GL172409  36.911  10.555   6.164
 5724POPC   GL272410  36.786  10.592   6.164
 5724POPC   C1A72411  36.922  10.547   6.464
 5724POPC   D2A72412  36.858  10.566   6.764
 5724POPC   C3A72413  36.940  10.567   7.064
 5724POPC   C4A72414  36.949  10.571   7.364
 5724POPC   C1B72415  36.650  10.654   6.464
 5724POPC   C2B72416  36.682  10.596   6.764
 5724POPC   C3B72417  36.655  10.632   7.064
 5724POPC   C4B72418  36.718  10.631   7.364
 5725POPC   NC372419  29.119  23.736   5.564
 5725POPC   PO472420  29.159  23.754   5.864
 5725POPC   GL172421  29.191  23.719   6.164
 5725POPC   GL272422  29.159  23.605   6.164
 5725POPC   C1A72423  29.155  23.697   6.464
 5725POPC   D2A72424  29.122  23.723   6.764
 5725POPC   C3A72425  29.157  23.674   7.064
 5725POPC   C4A72426  29.169  23.700   7.364
 5725POPC   C1B72427  29.148  23.436   6.464
 5725POPC   C2B72428  29.152  23.441   6.764
 5725POPC   C3B72429  29.202  23.420   7.064
 5725POPC   C4B72430  29.194  23.430   7.364
 5726POPC   NC372431  33.813  28.370   5.564
 5726POPC   PO472432  33.792  28.338   5.864
 5726POPC   GL172433  33.794  28.367   6.164
 5726POPC   GL272434  33.738  28.467   6.164
 5726POPC   C1A72435  33.823  28.360   6.464
 5726POPC   D2A72436  33.844  28.417   6.764
 5726POPC   C3A72437  33.801  28.405   7.064
 5726POPC   C4A72438  33.792  28.403   7.364
 5726POPC   C1B72439  33.649  28.576   6.464
 5726POPC   C2B72440  33.621  28.577   6.764
 5726POPC   C3B72441  33.650  28.548   7.064
 5726POPC   C4B72442  33.649  28.505   7.364
 5727POPC   NC372443  33.820  33.753   5.564
 5727POPC   PO472444  33.850  33.780   5.864
 5727POPC   GL172445  33.836  33.771   6.164
 5727POPC   GL272446  33.930  33.840   6.164
 5727POPC   C1A72447  33.755  33.806   6.464
 5727POPC   D2A72448  33.771  33.795   6.764
 5727POPC   C3A72449  33.838  33.836   7.064
 5727POPC   C4A72450  33.766  33.792   7.364
 5727POPC   C1B72451  34.049  33.841   6.464
 5727POPC   C2B72452  34.020  33.798   6.764
 5727POPC   C3B72453  34.085  33.778   7.064
 5727POPC   C4B72454  34.098  33.793   7.364
 5728POPC   NC372455  34.611  26.803   5.564
 5728POPC   PO472456  34.536  26.819   5.864
 5728POPC   GL172457  34.597  26.775   6.164
 5728POPC   GL272458  34.708  26.822   6.164
 5728POPC   C1A72459  34.613  26.772   6.464
 5728POPC   D2A72460  34.537  26.849   6.764
 5728POPC   C3A72461  34.600  26.798   7.064
 5728POPC   C4A72462  34.623  26.786   7.364
 5728POPC   C1B72463  34.827  26.912   6.464
 5728POPC   C2B72464  34.849  26.895   6.764
 5728POPC   C3B72465  34.803  26.911   7.064
 5728POPC   C4B72466  34.836  26.911   7.364
 5729POPC   NC372467  15.149   4.287   5.564
 5729POPC   PO472468  15.219   4.324   5.864
 5729POPC   GL172469  15.214   4.324   6.164
 5729POPC   GL272470  15.062   4.277   6.164
 5729POPC   C1A72471  15.135   4.352   6.464
 5729POPC   D2A72472  15.217   4.270   6.764
 5729POPC   C3A72473  15.177   4.310   7.064
 5729POPC   C4A72474  15.171   4.331   7.364
 5729POPC   C1B72475  14.935   4.270   6.464
 5729POPC   C2B72476  14.967   4.342   6.764
 5729POPC   C3B72477  14.978   4.279   7.064
 5729POPC   C4B72478  14.920   4.351   7.364
 5730POPC   NC372479  19.851   7.441   5.564
 5730POPC   PO472480  19.839   7.442   5.864
 5730POPC   GL172481  19.844   7.450   6.164
 5730POPC   GL272482  19.978   7.509   6.164
 5730POPC   C1A72483  19.820   7.371   6.464
 5730POPC   D2A72484  19.813   7.422   6.764
 5730POPC   C3A72485  19.799   7.388   7.064
 5730POPC   C4A72486  19.825   7.427   7.364
 5730POPC   C1B72487  20.080   7.535   6.464
 5730POPC   C2B72488  19.989   7.550   6.764
 5730POPC   C3B72489  20.079   7.545   7.064
 5730POPC   C4B72490  20.061   7.537   7.364
 5731POPC   NC372491   9.001  15.982   5.564
 5731POPC   PO472492   8.958  15.951   5.864
 5731POPC   GL172493   8.951  15.944   6.164
 5731POPC   GL272494   9.144  15.913   6.164
 5731POPC   C1A72495   8.968  15.916   6.464
 5731POPC   D2A72496   9.004  15.914   6.764
 5731POPC   C3A72497   8.984  15.906   7.064
 5731POPC   C4A72498   8.991  15.920   7.364
 5731POPC   C1B72499   9.264  15.945   6.464
 5731POPC   C2B72500   9.181  15.963   6.764
 5731POPC   C3B72501   9.223  15.888   7.064
 5731POPC   C4B72502   9.192  15.885   7.364
 5732POPC   NC372503  12.102   5.906   5.564
 5732POPC   PO472504  12.100   5.823   5.864
 5732POPC   GL172505  12.100   5.851   6.164
 5732POPC   GL272506  12.005   5.741   6.164
 5732POPC   C1A72507  12.046   5.874   6.464
 5732POPC   D2A72508  12.031   5.881   6.764
 5732POPC   C3A72509  12.123   5.904   7.064
 5732POPC   C4A72510  12.117   5.822   7.364
 5732POPC   C1B72511  11.903   5.726   6.464
 5732POPC   C2B72512  11.901   5.714   6.764
 5732POPC   C3B72513  11.909   5.679   7.064
 5732POPC   C4B72514  11.894   5.739   7.364
 5733POPC   NC372515   5.862  38.413   5.564
 5733POPC   PO472516   5.884  38.454   5.864
 5733POPC   GL172517   5.820  38.465   6.164
 5733POPC   GL272518   5.946  38.389   6.164
 5733POPC   C1A72519   5.876  38.426   6.464
 5733POPC   D2A72520   5.887  38.429   6.764
 5733POPC   C3A72521   5.905  38.440   7.064
 5733POPC   C4A72522   5.869  38.467   7.364
 5733POPC   C1B72523   6.098  38.265   6.464
 5733POPC   C2B72524   6.026  38.249   6.764
 5733POPC   C3B72525   6.098  38.332   7.064
 5733POPC   C4B72526   6.103  38.287   7.364
 5734POPC   NC372527   8.210  25.995   5.564
 5734POPC   PO472528   8.196  26.049   5.864
 5734POPC   GL172529   8.202  26.050   6.164
 5734POPC   GL272530   8.200  25.904   6.164
 5734POPC   C1A72531   8.154  26.010   6.464
 5734POPC   D2A72532   8.243  26.045   6.764
 5734POPC   C3A72533   8.178  26.044   7.064
 5734POPC   C4A72534   8.164  25.996   7.364
 5734POPC   C1B72535   8.182  25.834   6.464
 5734POPC   C2B72536   8.167  25.742   6.764
 5734POPC   C3B72537   8.245  25.787   7.064
 5734POPC   C4B72538   8.160  25.747   7.364
 5735POPC   NC372539   2.786   2.796   5.564
 5735POPC   PO472540   2.724   2.764   5.864
 5735POPC   GL172541   2.737   2.805   6.164
 5735POPC   GL272542   2.635   2.831   6.164
 5735POPC   C1A72543   2.747   2.780   6.464
 5735POPC   D2A72544   2.759   2.808   6.764
 5735POPC   C3A72545   2.799   2.807   7.064
 5735POPC   C4A72546   2.758   2.799   7.364
 5735POPC   C1B72547   2.526   2.838   6.464
 5735POPC   C2B72548   2.499   2.878   6.764
 5735POPC   C3B72549   2.497   2.888   7.064
 5735POPC   C4B72550   2.566   2.901   7.364
 5736POPC   NC372551  40.828  15.135   5.564
 5736POPC   PO472552  40.789  15.161   5.864
 5736POPC   GL172553  40.811  15.195   6.164
 5736POPC   GL272554  40.704  15.246   6.164
 5736POPC   C1A72555  40.789  15.213   6.464
 5736POPC   D2A72556  40.829  15.189   6.764
 5736POPC   C3A72557  40.802  15.130   7.064
 5736POPC   C4A72558  40.778  15.203   7.364
 5736POPC   C1B72559  40.596  15.295   6.464
 5736POPC   C2B72560  40.515  15.270   6.764
 5736POPC   C3B72561  40.543  15.310   7.064
 5736POPC   C4B72562  40.550  15.328   7.364
 5737POPC   NC372563  43.935  24.477   5.564
 5737POPC   PO472564  43.868  24.507   5.864
 5737POPC   GL172565  43.902  24.505   6.164
 5737POPC   GL272566  43.945  24.388   6.164
 5737POPC   C1A72567  43.851  24.442   6.464
 5737POPC   D2A72568  43.906  24.466   6.764
 5737POPC   C3A72569  43.874  24.443   7.064
 5737POPC   C4A72570  43.927  24.470   7.364
 5737POPC   C1B72571  44.090  24.339   6.464
 5737POPC   C2B72572  44.042  24.333   6.764
 5737POPC   C3B72573  44.108  24.306   7.064
 5737POPC   C4B72574  44.134  24.296   7.364
 5738POPC   NC372575   0.434   8.219   5.564
 5738POPC   PO472576   0.427   8.195   5.864
 5738POPC   GL172577   0.482   8.195   6.164
 5738POPC   GL272578   0.392   8.121   6.164
 5738POPC   C1A72579   0.389   8.164   6.464
 5738POPC   D2A72580   0.402   8.184   6.764
 5738POPC   C3A72581   0.471   8.227   7.064
 5738POPC   C4A72582   0.398   8.151   7.364
 5738POPC   C1B72583   0.335   7.982   6.464
 5738POPC   C2B72584   0.301   7.952   6.764
 5738POPC   C3B72585   0.370   7.960   7.064
 5738POPC   C4B72586   0.315   7.913   7.364
 5739POPC   NC372587  27.571   9.707   5.564
 5739POPC   PO472588  27.583   9.739   5.864
 5739POPC   GL172589  27.611   9.745   6.164
 5739POPC   GL272590  27.538   9.629   6.164
 5739POPC   C1A72591  27.621   9.763   6.464
 5739POPC   D2A72592  27.604   9.730   6.764
 5739POPC   C3A72593  27.562   9.792   7.064
 5739POPC   C4A72594  27.557   9.743   7.364
 5739POPC   C1B72595  27.366   9.557   6.464
 5739POPC   C2B72596  27.423   9.534   6.764
 5739POPC   C3B72597  27.431   9.572   7.064
 5739POPC   C4B72598  27.387   9.584   7.364
 5740POPC   NC372599  44.679  18.282   5.564
 5740POPC   PO472600  44.656  18.297   5.864
 5740POPC   GL172601  44.706  18.239   6.164
 5740POPC   GL272602  44.721  18.164   6.164
 5740POPC   C1A72603  44.705  18.254   6.464
 5740POPC   D2A72604  44.639  18.252   6.764
 5740POPC   C3A72605  44.671  18.326   7.064
 5740POPC   C4A72606  44.622  18.276   7.364
 5740POPC   C1B72607  44.772  18.071   6.464
 5740POPC   C2B72608  44.722  18.024   6.764
 5740POPC   C3B72609  44.697  18.055   7.064
 5740POPC   C4B72610  44.705  18.053   7.364
 5741POPC   NC372611  29.907   1.262   5.564
 5741POPC   PO472612  29.922   1.258   5.864
 5741POPC   GL172613  29.969   1.188   6.164
 5741POPC   GL272614  29.962   1.294   6.164
 5741POPC   C1A72615  29.871   1.202   6.464
 5741POPC   D2A72616  29.958   1.169   6.764
 5741POPC   C3A72617  29.968   1.215   7.064
 5741POPC   C4A72618  29.931   1.221   7.364
 5741POPC   C1B72619  29.918   1.506   6.464
 5741POPC   C2B72620  29.979   1.481   6.764
 5741POPC   C3B72621  29.913   1.458   7.064
 5741POPC   C4B72622  29.971   1.429   7.364
 5742POPC   NC372623  14.402  36.870   5.564
 5742POPC   PO472624  14.416  36.908   5.864
 5742POPC   GL172625  14.429  36.900   6.164
 5742POPC   GL272626  14.461  36.777   6.164
 5742POPC   C1A72627  14.374  36.903   6.464
 5742POPC   D2A72628  14.411  36.910   6.764
 5742POPC   C3A72629  14.402  36.918   7.064
 5742POPC   C4A72630  14.417  36.871   7.364
 5742POPC   C1B72631  14.520  36.703   6.464
 5742POPC   C2B72632  14.494  36.661   6.764
 5742POPC   C3B72633  14.463  36.671   7.064
 5742POPC   C4B72634  14.457  36.645   7.364
 5743POPC   NC372635  19.089  32.215   5.564
 5743POPC   PO472636  19.046  32.253   5.864
 5743POPC   GL172637  19.092  32.246   6.164
 5743POPC   GL272638  18.975  32.302   6.164
 5743POPC   C1A72639  19.034  32.242   6.464
 5743POPC   D2A72640  19.033  32.268   6.764
 5743POPC   C3A72641  19.078  32.296   7.064
 5743POPC   C4A72642  19.028  32.240   7.364
 5743POPC   C1B72643  18.828  32.377   6.464
 5743POPC   C2B72644  18.831  32.345   6.764
 5743POPC   C3B72645  18.870  32.371   7.064
 5743POPC   C4B72646  18.809  32.377   7.364
 5744POPC   NC372647   0.481  38.480   5.564
 5744POPC   PO472648   0.445  38.502   5.864
 5744POPC   GL172649   0.424  38.412   6.164
 5744POPC   GL272650   0.555  38.455   6.164
 5744POPC   C1A72651   0.397  38.446   6.464
 5744POPC   D2A72652   0.467  38.450   6.764
 5744POPC   C3A72653   0.406  38.432   7.064
 5744POPC   C4A72654   0.435  38.493   7.364
 5744POPC   C1B72655   0.705  38.459   6.464
 5744POPC   C2B72656   0.726  38.416   6.764
 5744POPC   C3B72657   0.699  38.428   7.064
 5744POPC   C4B72658   0.665  38.379   7.364
 5745POPC   NC372659   8.932   0.435   5.564
 5745POPC   PO472660   8.925   0.459   5.864
 5745POPC   GL172661   8.923   0.446   6.164
 5745POPC   GL272662   8.987   0.333   6.164
 5745POPC   C1A72663   9.021   0.448   6.464
 5745POPC   D2A72664   8.932   0.487   6.764
 5745POPC   C3A72665   8.993   0.409   7.064
 5745POPC   C4A72666   8.927   0.479   7.364
 5745POPC   C1B72667   8.991   0.205   6.464
 5745POPC   C2B72668   8.939   0.222   6.764
 5745POPC   C3B72669   8.991   0.171   7.064
 5745POPC   C4B72670   8.975   0.232   7.364
 5746POPC   NC372671  42.373   8.203   5.564
 5746POPC   PO472672  42.369   8.170   5.864
 5746POPC   GL172673  42.291   8.170   6.164
 5746POPC   GL272674  42.324   8.084   6.164
 5746POPC   C1A72675  42.384   8.148   6.464
 5746POPC   D2A72676  42.329   8.161   6.764
 5746POPC   C3A72677  42.312   8.234   7.064
 5746POPC   C4A72678  42.308   8.177   7.364
 5746POPC   C1B72679  42.220   7.991   6.464
 5746POPC   C2B72680  42.233   7.979   6.764
 5746POPC   C3B72681  42.232   7.919   7.064
 5746POPC   C4B72682  42.251   7.986   7.364
 5747POPC   NC372683  36.087  33.825   5.564
 5747POPC   PO472684  36.123  33.849   5.864
 5747POPC   GL172685  36.154  33.823   6.164
 5747POPC   GL272686  36.273  33.699   6.164
 5747POPC   C1A72687  36.078  33.776   6.464
 5747POPC   D2A72688  36.177  33.796   6.764
 5747POPC   C3A72689  36.107  33.791   7.064
 5747POPC   C4A72690  36.147  33.833   7.364
 5747POPC   C1B72691  36.382  33.687   6.464
 5747POPC   C2B72692  36.323  33.694   6.764
 5747POPC   C3B72693  36.380  33.655   7.064
 5747POPC   C4B72694  36.355  33.637   7.364
 5748POPC   NC372695  41.591  39.224   5.564
 5748POPC   PO472696  41.596  39.266   5.864
 5748POPC   GL172697  41.596  39.193   6.164
 5748POPC   GL272698  41.548  39.365   6.164
 5748POPC   C1A72699  41.520  39.233   6.464
 5748POPC   D2A72700  41.523  39.234   6.764
 5748POPC   C3A72701  41.606  39.194   7.064
 5748POPC   C4A72702  41.589  39.197   7.364
 5748POPC   C1B72703  41.482  39.481   6.464
 5748POPC   C2B72704  41.491  39.441   6.764
 5748POPC   C3B72705  41.529  39.474   7.064
 5748POPC   C4B72706  41.518  39.437   7.364
 5749POPC   NC372707  36.133  36.871   5.564
 5749POPC   PO472708  36.144  36.928   5.864
 5749POPC   GL172709  36.135  36.859   6.164
 5749POPC   GL272710  36.200  36.985   6.164
 5749POPC   C1A72711  36.132  36.869   6.464
 5749POPC   D2A72712  36.152  36.859   6.764
 5749POPC   C3A72713  36.177  36.938   7.064
 5749POPC   C4A72714  36.177  36.925   7.364
 5749POPC   C1B72715  36.201  37.116   6.464
 5749POPC   C2B72716  36.194  37.101   6.764
 5749POPC   C3B72717  36.183  37.089   7.064
 5749POPC   C4B72718  36.182  37.098   7.364
 5750POPC   NC372719  16.780  17.509   5.564
 5750POPC   PO472720  16.714  17.544   5.864
 5750POPC   GL172721  16.777  17.530   6.164
 5750POPC   GL272722  16.772  17.400   6.164
 5750POPC   C1A72723  16.696  17.485   6.464
 5750POPC   D2A72724  16.761  17.507   6.764
 5750POPC   C3A72725  16.710  17.487   7.064
 5750POPC   C4A72726  16.684  17.541   7.364
 5750POPC   C1B72727  16.943  17.359   6.464
 5750POPC   C2B72728  16.908  17.303   6.764
 5750POPC   C3B72729  16.884  17.367   7.064
 5750POPC   C4B72730  16.882  17.310   7.364
 5751POPC   NC372731   8.184  22.927   5.564
 5751POPC   PO472732   8.152  22.939   5.864
 5751POPC   GL172733   8.224  22.890   6.164
 5751POPC   GL272734   8.294  22.819   6.164
 5751POPC   C1A72735   8.202  22.936   6.464
 5751POPC   D2A72736   8.214  22.941   6.764
 5751POPC   C3A72737   8.185  22.908   7.064
 5751POPC   C4A72738   8.172  22.925   7.364
 5751POPC   C1B72739   8.386  22.809   6.464
 5751POPC   C2B72740   8.358  22.781   6.764
 5751POPC   C3B72741   8.349  22.798   7.064
 5751POPC   C4B72742   8.398  22.804   7.364
 5752POPC   NC372743  30.734  39.204   5.564
 5752POPC   PO472744  30.696  39.249   5.864
 5752POPC   GL172745  30.738  39.267   6.164
 5752POPC   GL272746  30.598  39.314   6.164
 5752POPC   C1A72747  30.690  39.204   6.464
 5752POPC   D2A72748  30.666  39.188   6.764
 5752POPC   C3A72749  30.670  39.209   7.064
 5752POPC   C4A72750  30.663  39.259   7.364
 5752POPC   C1B72751  30.575  39.492   6.464
 5752POPC   C2B72752  30.563  39.434   6.764
 5752POPC   C3B72753  30.612  39.461   7.064
 5752POPC   C4B72754  30.600  39.433   7.364
 5753POPC   NC372755  17.532  26.063   5.564
 5753POPC   PO472756  17.518  26.068   5.864
 5753POPC   GL172757  17.546  26.047   6.164
 5753POPC   GL272758  17.562  26.192   6.164
 5753POPC   C1A72759  17.538  26.065   6.464
 5753POPC   D2A72760  17.499  26.059   6.764
 5753POPC   C3A72761  17.557  26.005   7.064
 5753POPC   C4A72762  17.522  26.006   7.364
 5753POPC   C1B72763  17.602  26.314   6.464
 5753POPC   C2B72764  17.564  26.244   6.764
 5753POPC   C3B72765  17.560  26.258   7.064
 5753POPC   C4B72766  17.573  26.287   7.364
 5754POPC   NC372767  15.924  10.564   5.564
 5754POPC   PO472768  15.949  10.574   5.864
 5754POPC   GL172769  15.925  10.559   6.164
 5754POPC   GL272770  15.795  10.518   6.164
 5754POPC   C1A72771  15.910  10.508   6.464
 5754POPC   D2A72772  15.924  10.561   6.764
 5754POPC   C3A72773  15.909  10.482   7.064
 5754POPC   C4A72774  15.943  10.525   7.364
 5754POPC   C1B72775  15.703  10.370   6.464
 5754POPC   C2B72776  15.738  10.431   6.764
 5754POPC   C3B72777  15.685  10.397   7.064
 5754POPC   C4B72778  15.746  10.412   7.364
 5755POPC   NC372779  28.344   1.240   5.564
 5755POPC   PO472780  28.378   1.217   5.864
 5755POPC   GL172781  28.348   1.182   6.164
 5755POPC   GL272782  28.480   1.202   6.164
 5755POPC   C1A72783  28.341   1.189   6.464
 5755POPC   D2A72784  28.352   1.174   6.764
 5755POPC   C3A72785  28.339   1.216   7.064
 5755POPC   C4A72786  28.379   1.200   7.364
 5755POPC   C1B72787  28.611   1.160   6.464
 5755POPC   C2B72788  28.601   1.152   6.764
 5755POPC   C3B72789  28.564   1.098   7.064
 5755POPC   C4B72790  28.610   1.077   7.364
 5756POPC   NC372791  32.982  22.176   5.564
 5756POPC   PO472792  33.020  22.154   5.864
 5756POPC   GL172793  33.053  22.174   6.164
 5756POPC   GL272794  33.009  22.011   6.164
 5756POPC   C1A72795  32.986  22.189   6.464
 5756POPC   D2A72796  32.992  22.198   6.764
 5756POPC   C3A72797  33.023  22.206   7.064
 5756POPC   C4A72798  33.048  22.166   7.364
 5756POPC   C1B72799  33.081  21.953   6.464
 5756POPC   C2B72800  33.047  21.946   6.764
 5756POPC   C3B72801  33.104  21.965   7.064
 5756POPC   C4B72802  33.067  21.928   7.364
 5757POPC   NC372803  36.946  15.149   5.564
 5757POPC   PO472804  36.905  15.211   5.864
 5757POPC   GL172805  36.864  15.187   6.164
 5757POPC   GL272806  36.967  15.313   6.164
 5757POPC   C1A72807  36.926  15.216   6.464
 5757POPC   D2A72808  36.938  15.160   6.764
 5757POPC   C3A72809  36.865  15.161   7.064
 5757POPC   C4A72810  36.899  15.189   7.364
 5757POPC   C1B72811  36.921  15.471   6.464
 5757POPC   C2B72812  36.950  15.458   6.764
 5757POPC   C3B72813  36.981  15.387   7.064
 5757POPC   C4B72814  36.978  15.402   7.364
 5758POPC   NC372815   5.832  22.155   5.564
 5758POPC   PO472816   5.895  22.190   5.864
 5758POPC   GL172817   5.827  22.114   6.164
 5758POPC   GL272818   5.803  22.079   6.164
 5758POPC   C1A72819   5.839  22.166   6.464
 5758POPC   D2A72820   5.820  22.202   6.764
 5758POPC   C3A72821   5.879  22.201   7.064
 5758POPC   C4A72822   5.861  22.193   7.364
 5758POPC   C1B72823   5.766  21.963   6.464
 5758POPC   C2B72824   5.713  21.889   6.764
 5758POPC   C3B72825   5.751  21.930   7.064
 5758POPC   C4B72826   5.720  21.973   7.364
 5759POPC   NC372827  38.477  30.705   5.564
 5759POPC   PO472828  38.434  30.727   5.864
 5759POPC   GL172829  38.410  30.746   6.164
 5759POPC   GL272830  38.468  30.590   6.164
 5759POPC   C1A72831  38.505  30.687   6.464
 5759POPC   D2A72832  38.439  30.709   6.764
 5759POPC   C3A72833  38.420  30.703   7.064
 5759POPC   C4A72834  38.469  30.647   7.364
 5759POPC   C1B72835  38.422  30.499   6.464
 5759POPC   C2B72836  38.376  30.422   6.764
 5759POPC   C3B72837  38.458  30.477   7.064
 5759POPC   C4B72838  38.391  30.489   7.364
 5760POPC   NC372839  32.998  40.022   5.564
 5760POPC   PO472840  33.035  39.977   5.864
 5760POPC   GL172841  33.031  39.978   6.164
 5760POPC   GL272842  32.980  40.104   6.164
 5760POPC   C1A72843  33.003  40.007   6.464
 5760POPC   D2A72844  32.985  39.983   6.764
 5760POPC   C3A72845  32.990  39.976   7.064
 5760POPC   C4A72846  32.985  39.977   7.364
 5760POPC   C1B72847  32.788  40.206   6.464
 5760POPC   C2B72848  32.883  40.166   6.764
 5760POPC   C3B72849  32.793  40.166   7.064
 5760POPC   C4B72850  32.861  40.137   7.364
 5761POPC   NC372851  35.379  15.927   5.564
 5761POPC   PO472852  35.319  15.948   5.864
 5761POPC   GL172853  35.379  15.955   6.164
 5761POPC   GL272854  35.306  15.814   6.164
 5761POPC   C1A72855  35.367  15.985   6.464
 5761POPC   D2A72856  35.314  15.942   6.764
 5761POPC   C3A72857  35.396  15.944   7.064
 5761POPC   C4A72858  35.302  15.933   7.364
 5761POPC   C1B72859  35.205  15.719   6.464
 5761POPC   C2B72860  35.221  15.734   6.764
 5761POPC   C3B72861  35.173  15.775   7.064
 5761POPC   C4B72862  35.173  15.785   7.364
 5762POPC   NC372863  12.058  22.115   5.564
 5762POPC   PO472864  12.119  22.149   5.864
 5762POPC   GL172865  12.092  22.199   6.164
 5762POPC   GL272866  12.082  22.060   6.164
 5762POPC   C1A72867  12.080  22.140   6.464
 5762POPC   D2A72868  12.114  22.169   6.764
 5762POPC   C3A72869  12.126  22.121   7.064
 5762POPC   C4A72870  12.114  22.124   7.364
 5762POPC   C1B72871  12.180  21.943   6.464
 5762POPC   C2B72872  12.173  21.930   6.764
 5762POPC   C3B72873  12.192  21.954   7.064
 5762POPC   C4B72874  12.131  21.911   7.364
 5763POPC   NC372875  36.169   5.066   5.564
 5763POPC   PO472876  36.107   5.129   5.864
 5763POPC   GL172877  36.087   5.123   6.164
 5763POPC   GL272878  36.143   4.980   6.164
 5763POPC   C1A72879  36.168   5.050   6.464
 5763POPC   D2A72880  36.122   5.119   6.764
 5763POPC   C3A72881  36.118   5.126   7.064
 5763POPC   C4A72882  36.153   5.097   7.364
 5763POPC   C1B72883  36.077   4.852   6.464
 5763POPC   C2B72884  36.116   4.877   6.764
 5763POPC   C3B72885  36.074   4.826   7.064
 5763POPC   C4B72886  36.064   4.836   7.364
 5764POPC   NC372887  43.889   6.678   5.564
 5764POPC   PO472888  43.914   6.614   5.864
 5764POPC   GL172889  43.910   6.683   6.164
 5764POPC   GL272890  43.736   6.751   6.164
 5764POPC   C1A72891  43.934   6.688   6.464
 5764POPC   D2A72892  43.855   6.674   6.764
 5764POPC   C3A72893  43.861   6.663   7.064
 5764POPC   C4A72894  43.885   6.693   7.364
 5764POPC   C1B72895  43.700   6.779   6.464
 5764POPC   C2B72896  43.675   6.713   6.764
 5764POPC   C3B72897  43.709   6.787   7.064
 5764POPC   C4B72898  43.674   6.799   7.364
 5765POPC   NC372899  31.441   2.000   5.564
 5765POPC   PO472900  31.426   1.966   5.864
 5765POPC   GL172901  31.489   1.975   6.164
 5765POPC   GL272902  31.477   1.836   6.164
 5765POPC   C1A72903  31.462   1.948   6.464
 5765POPC   D2A72904  31.504   1.972   6.764
 5765POPC   C3A72905  31.496   1.958   7.064
 5765POPC   C4A72906  31.471   2.002   7.364
 5765POPC   C1B72907  31.362   1.744   6.464
 5765POPC   C2B72908  31.358   1.730   6.764
 5765POPC   C3B72909  31.392   1.759   7.064
 5765POPC   C4B72910  31.368   1.787   7.364
 5766POPC   NC372911  44.633  29.872   5.564
 5766POPC   PO472912  44.695  29.904   5.864
 5766POPC   GL172913  44.645  29.970   6.164
 5766POPC   GL272914  44.594  29.980   6.164
 5766POPC   C1A72915  44.623  29.934   6.464
 5766POPC   D2A72916  44.639  29.926   6.764
 5766POPC   C3A72917  44.650  29.912   7.064
 5766POPC   C4A72918  44.620  29.916   7.364
 5766POPC   C1B72919  44.493  30.089   6.464
 5766POPC   C2B72920  44.508  30.061   6.764
 5766POPC   C3B72921  44.503  30.128   7.064
 5766POPC   C4B72922  44.502  30.118   7.364
 5767POPC   NC372923  18.242  22.963   5.564
 5767POPC   PO472924  18.318  22.925   5.864
 5767POPC   GL172925  18.238  22.930   6.164
 5767POPC   GL272926  18.380  22.984   6.164
 5767POPC   C1A72927  18.262  22.935   6.464
 5767POPC   D2A72928  18.270  22.984   6.764
 5767POPC   C3A72929  18.325  22.959   7.064
 5767POPC   C4A72930  18.293  22.906   7.364
 5767POPC   C1B72931  18.500  22.984   6.464
 5767POPC   C2B72932  18.503  23.039   6.764
 5767POPC   C3B72933  18.521  23.000   7.064
 5767POPC   C4B72934  18.555  23.044   7.364
 5768POPC   NC372935  43.114   9.725   5.564
 5768POPC   PO472936  43.062   9.737   5.864
 5768POPC   GL172937  43.099   9.712   6.164
 5768POPC   GL272938  43.157   9.620   6.164
 5768POPC   C1A72939  43.082   9.705   6.464
 5768POPC   D2A72940  43.128   9.749   6.764
 5768POPC   C3A72941  43.123   9.788   7.064
 5768POPC   C4A72942  43.098   9.763   7.364
 5768POPC   C1B72943  43.219   9.536   6.464
 5768POPC   C2B72944  43.215   9.492   6.764
 5768POPC   C3B72945  43.247   9.569   7.064
 5768POPC   C4B72946  43.233   9.490   7.364
 5769POPC   NC372947  15.950  12.839   5.564
 5769POPC   PO472948  15.917  12.832   5.864
 5769POPC   GL172949  15.918  12.893   6.164
 5769POPC   GL272950  15.978  12.776   6.164
 5769POPC   C1A72951  15.934  12.890   6.464
 5769POPC   D2A72952  15.989  12.887   6.764
 5769POPC   C3A72953  15.924  12.899   7.064
 5769POPC   C4A72954  15.911  12.814   7.364
 5769POPC   C1B72955  16.050  12.646   6.464
 5769POPC   C2B72956  16.076  12.596   6.764
 5769POPC   C3B72957  16.039  12.671   7.064
 5769POPC   C4B72958  16.066  12.634   7.364
 5770POPC   NC372959  26.800  11.339   5.564
 5770POPC   PO472960  26.801  11.294   5.864
 5770POPC   GL172961  26.843  11.342   6.164
 5770POPC   GL272962  26.815  11.398   6.164
 5770POPC   C1A72963  26.864  11.284   6.464
 5770POPC   D2A72964  26.850  11.326   6.764
 5770POPC   C3A72965  26.841  11.298   7.064
 5770POPC   C4A72966  26.867  11.313   7.364
 5770POPC   C1B72967  26.784  11.521   6.464
 5770POPC   C2B72968  26.741  11.526   6.764
 5770POPC   C3B72969  26.757  11.579   7.064
 5770POPC   C4B72970  26.795  11.540   7.364
 5771POPC   NC372971   7.438  12.813   5.564
 5771POPC   PO472972   7.413  12.859   5.864
 5771POPC   GL172973   7.430  12.803   6.164
 5771POPC   GL272974   7.463  12.765   6.164
 5771POPC   C1A72975   7.408  12.806   6.464
 5771POPC   D2A72976   7.452  12.804   6.764
 5771POPC   C3A72977   7.434  12.814   7.064
 5771POPC   C4A72978   7.387  12.809   7.364
 5771POPC   C1B72979   7.544  12.625   6.464
 5771POPC   C2B72980   7.544  12.663   6.764
 5771POPC   C3B72981   7.518  12.672   7.064
 5771POPC   C4B72982   7.562  12.642   7.364
 5772POPC   NC372983  29.142  40.825   5.564
 5772POPC   PO472984  29.108  40.735   5.864
 5772POPC   GL172985  29.106  40.794   6.164
 5772POPC   GL272986  29.230  40.760   6.164
 5772POPC   C1A72987  29.096  40.763   6.464
 5772POPC   D2A72988  29.149  40.756   6.764
 5772POPC   C3A72989  29.147  40.792   7.064
 5772POPC   C4A72990  29.143  40.737   7.364
 5772POPC   C1B72991  29.377  40.799   6.464
 5772POPC   C2B72992  29.397  40.812   6.764
 5772POPC   C3B72993  29.406  40.774   7.064
 5772POPC   C4B72994  29.440  40.802   7.364
 5773POPC   NC372995  40.804  21.336   5.564
 5773POPC   PO472996  40.786  21.385   5.864
 5773POPC   GL172997  40.773  21.416   6.164
 5773POPC   GL272998  40.756  21.308   6.164
 5773POPC   C1A72999  40.829  21.432   6.464
 5773POPC   D2A73000  40.767  21.378   6.764
 5773POPC   C3A73001  40.791  21.403   7.064
 5773POPC   C4A73002  40.791  21.361   7.364
 5773POPC   C1B73003  40.752  21.177   6.464
 5773POPC   C2B73004  40.692  21.150   6.764
 5773POPC   C3B73005  40.680  21.109   7.064
 5773POPC   C4B73006  40.729  21.121   7.364
 5774POPC   NC373007   5.912   8.938   5.564
 5774POPC   PO473008   5.888   9.019   5.864
 5774POPC   GL173009   5.850   9.000   6.164
 5774POPC   GL273010   5.754   8.911   6.164
 5774POPC   C1A73011   5.824   8.940   6.464
 5774POPC   D2A73012   5.907   9.009   6.764
 5774POPC   C3A73013   5.914   8.957   7.064
 5774POPC   C4A73014   5.855   8.998   7.364
 5774POPC   C1B73015   5.642   8.882   6.464
 5774POPC   C2B73016   5.663   8.801   6.764
 5774POPC   C3B73017   5.647   8.797   7.064
 5774POPC   C4B73018   5.652   8.846   7.364
 5775POPC   NC373019  16.704  20.660   5.564
 5775POPC   PO473020  16.739  20.577   5.864
 5775POPC   GL173021  16.685  20.565   6.164
 5775POPC   GL273022  16.701  20.475   6.164
 5775POPC   C1A73023  16.685  20.600   6.464
 5775POPC   D2A73024  16.726  20.640   6.764
 5775POPC   C3A73025  16.757  20.613   7.064
 5775POPC   C4A73026  16.727  20.567   7.364
 5775POPC   C1B73027  16.653  20.410   6.464
 5775POPC   C2B73028  16.716  20.320   6.764
 5775POPC   C3B73029  16.691  20.339   7.064
 5775POPC   C4B73030  16.720  20.375   7.364
 5776POPC   NC373031  15.958  11.287   5.564
 5776POPC   PO473032  15.984  11.319   5.864
 5776POPC   GL173033  15.950  11.337   6.164
 5776POPC   GL273034  16.013  11.451   6.164
 5776POPC   C1A73035  15.926  11.254   6.464
 5776POPC   D2A73036  15.913  11.279   6.764
 5776POPC   C3A73037  15.950  11.297   7.064
 5776POPC   C4A73038  15.911  11.262   7.364
 5776POPC   C1B73039  16.050  11.537   6.464
 5776POPC   C2B73040  16.089  11.486   6.764
 5776POPC   C3B73041  16.006  11.510   7.064
 5776POPC   C4B73042  16.073  11.508   7.364
 5777POPC   NC373043  12.901  17.462   5.564
 5777POPC   PO473044  12.864  17.462   5.864
 5777POPC   GL173045  12.852  17.505   6.164
 5777POPC   GL273046  12.729  17.563   6.164
 5777POPC   C1A73047  12.820  17.530   6.464
 5777POPC   D2A73048  12.893  17.458   6.764
 5777POPC   C3A73049  12.835  17.545   7.064
 5777POPC   C4A73050  12.894  17.521   7.364
 5777POPC   C1B73051  12.580  17.573   6.464
 5777POPC   C2B73052  12.607  17.513   6.764
 5777POPC   C3B73053  12.636  17.537   7.064
 5777POPC   C4B73054  12.573  17.492   7.364
 5778POPC   NC373055   6.660  35.338   5.564
 5778POPC   PO473056   6.636  35.400   5.864
 5778POPC   GL173057   6.656  35.366   6.164
 5778POPC   GL273058   6.721  35.280   6.164
 5778POPC   C1A73059   6.612  35.338   6.464
 5778POPC   D2A73060   6.634  35.339   6.764
 5778POPC   C3A73061   6.619  35.388   7.064
 5778POPC   C4A73062   6.631  35.317   7.364
 5778POPC   C1B73063   6.859  35.208   6.464
 5778POPC   C2B73064   6.814  35.214   6.764
 5778POPC   C3B73065   6.847  35.197   7.064
 5778POPC   C4B73066   6.845  35.243   7.364
 5779POPC   NC373067  34.613  40.772   5.564
 5779POPC   PO473068  34.616  40.818   5.864
 5779POPC   GL173069  34.593  40.760   6.164
 5779POPC   GL273070  34.677  40.779   6.164
 5779POPC   C1A73071  34.579  40.764   6.464
 5779POPC   D2A73072  34.565  40.737   6.764
 5779POPC   C3A73073  34.557  40.827   7.064
 5779POPC   C4A73074  34.562  40.777   7.364
 5779POPC   C1B73075  34.791  40.666   6.464
 5779POPC   C2B73076  34.810  40.716   6.764
 5779POPC   C3B73077  34.804  40.651   7.064
 5779POPC   C4B73078  34.783  40.667   7.364
 5780POPC   NC373079  31.498  24.530   5.564
 5780POPC   PO473080  31.472  24.490   5.864
 5780POPC   GL173081  31.486  24.499   6.164
 5780POPC   GL273082  31.489  24.596   6.164
 5780POPC   C1A73083  31.477  24.460   6.464
 5780POPC   D2A73084  31.483  24.469   6.764
 5780POPC   C3A73085  31.475  24.498   7.064
 5780POPC   C4A73086  31.439  24.481   7.364
 5780POPC   C1B73087  31.517  24.781   6.464
 5780POPC   C2B73088  31.532  24.771   6.764
 5780POPC   C3B73089  31.468  24.695   7.064
 5780POPC   C4B73090  31.504  24.786   7.364
 5781POPC   NC373091  28.385   3.530   5.564
 5781POPC   PO473092  28.416   3.586   5.864
 5781POPC   GL173093  28.325   3.498   6.164
 5781POPC   GL273094  28.242   3.605   6.164
 5781POPC   C1A73095  28.341   3.501   6.464
 5781POPC   D2A73096  28.401   3.535   6.764
 5781POPC   C3A73097  28.369   3.534   7.064
 5781POPC   C4A73098  28.356   3.520   7.364
 5781POPC   C1B73099  28.137   3.716   6.464
 5781POPC   C2B73100  28.142   3.731   6.764
 5781POPC   C3B73101  28.208   3.641   7.064
 5781POPC   C4B73102  28.128   3.726   7.364
 5782POPC   NC373103  11.343  35.352   5.564
 5782POPC   PO473104  11.282  35.342   5.864
 5782POPC   GL173105  11.268  35.366   6.164
 5782POPC   GL273106  11.204  35.231   6.164
 5782POPC   C1A73107  11.345  35.391   6.464
 5782POPC   D2A73108  11.322  35.314   6.764
 5782POPC   C3A73109  11.266  35.332   7.064
 5782POPC   C4A73110  11.307  35.324   7.364
 5782POPC   C1B73111  11.047  35.256   6.464
 5782POPC   C2B73112  11.109  35.247   6.764
 5782POPC   C3B73113  11.087  35.177   7.064
 5782POPC   C4B73114  11.097  35.247   7.364
 5783POPC   NC373115  39.272  12.027   5.564
 5783POPC   PO473116  39.261  12.107   5.864
 5783POPC   GL173117  39.226  12.112   6.164
 5783POPC   GL273118  39.323  11.992   6.164
 5783POPC   C1A73119  39.270  12.029   6.464
 5783POPC   D2A73120  39.184  12.094   6.764
 5783POPC   C3A73121  39.201  12.038   7.064
 5783POPC   C4A73122  39.229  12.116   7.364
 5783POPC   C1B73123  39.345  11.889   6.464
 5783POPC   C2B73124  39.411  11.837   6.764
 5783POPC   C3B73125  39.339  11.920   7.064
 5783POPC   C4B73126  39.326  11.898   7.364
 5784POPC   NC373127   4.348  32.225   5.564
 5784POPC   PO473128   4.342  32.285   5.864
 5784POPC   GL173129   4.314  32.263   6.164
 5784POPC   GL273130   4.338  32.126   6.164
 5784POPC   C1A73131   4.302  32.223   6.464
 5784POPC   D2A73132   4.331  32.237   6.764
 5784POPC   C3A73133   4.355  32.233   7.064
 5784POPC   C4A73134   4.286  32.296   7.364
 5784POPC   C1B73135   4.339  32.015   6.464
 5784POPC   C2B73136   4.308  32.007   6.764
 5784POPC   C3B73137   4.248  31.959   7.064
 5784POPC   C4B73138   4.298  32.047   7.364
 5785POPC   NC373139  18.246   5.861   5.564
 5785POPC   PO473140  18.259   5.887   5.864
 5785POPC   GL173141  18.311   5.820   6.164
 5785POPC   GL273142  18.196   5.837   6.164
 5785POPC   C1A73143  18.295   5.855   6.464
 5785POPC   D2A73144  18.319   5.843   6.764
 5785POPC   C3A73145  18.303   5.893   7.064
 5785POPC   C4A73146  18.328   5.847   7.364
 5785POPC   C1B73147  18.048   5.931   6.464
 5785POPC   C2B73148  18.044   5.938   6.764
 5785POPC   C3B73149  18.002   5.915   7.064
 5785POPC   C4B73150  18.066   5.856   7.364
 5786POPC   NC373151  28.358   9.761   5.564
 5786POPC   PO473152  28.341   9.776   5.864
 5786POPC   GL173153  28.367   9.720   6.164
 5786POPC   GL273154  28.258   9.696   6.164
 5786POPC   C1A73155  28.348   9.703   6.464
 5786POPC   D2A73156  28.370   9.721   6.764
 5786POPC   C3A73157  28.400   9.703   7.064
 5786POPC   C4A73158  28.409   9.719   7.364
 5786POPC   C1B73159  28.222   9.583   6.464
 5786POPC   C2B73160  28.191   9.585   6.764
 5786POPC   C3B73161  28.201   9.614   7.064
 5786POPC   C4B73162  28.177   9.534   7.364
 5787POPC   NC373163  38.411  41.549   5.564
 5787POPC   PO473164  38.423  41.572   5.864
 5787POPC   GL173165  38.432  41.529   6.164
 5787POPC   GL273166  38.369  41.515   6.164
 5787POPC   C1A73167  38.438  41.546   6.464
 5787POPC   D2A73168  38.471  41.564   6.764
 5787POPC   C3A73169  38.445  41.531   7.064
 5787POPC   C4A73170  38.485  41.529   7.364
 5787POPC   C1B73171  38.177  41.489   6.464
 5787POPC   C2B73172  38.249  41.547   6.764
 5787POPC   C3B73173  38.198  41.481   7.064
 5787POPC   C4B73174  38.173  41.498   7.364
 5788POPC   NC373175  15.968  36.906   5.564
 5788POPC   PO473176  15.929  36.865   5.864
 5788POPC   GL173177  15.923  36.858   6.164
 5788POPC   GL273178  15.872  36.933   6.164
 5788POPC   C1A73179  15.968  36.907   6.464
 5788POPC   D2A73180  15.943  36.878   6.764
 5788POPC   C3A73181  15.917  36.854   7.064
 5788POPC   C4A73182  15.978  36.943   7.364
 5788POPC   C1B73183  15.698  37.059   6.464
 5788POPC   C2B73184  15.732  36.997   6.764
 5788POPC   C3B73185  15.697  37.066   7.064
 5788POPC   C4B73186  15.705  37.059   7.364
 5789POPC   NC373187  42.287  30.741   5.564
 5789POPC   PO473188  42.323  30.726   5.864
 5789POPC   GL173189  42.286  30.683   6.164
 5789POPC   GL273190  42.374  30.587   6.164
 5789POPC   C1A73191  42.322  30.693   6.464
 5789POPC   D2A73192  42.333  30.673   6.764
 5789POPC   C3A73193  42.316  30.677   7.064
 5789POPC   C4A73194  42.362  30.694   7.364
 5789POPC   C1B73195  42.311  30.473   6.464
 5789POPC   C2B73196  42.329  30.419   6.764
 5789POPC   C3B73197  42.362  30.460   7.064
 5789POPC   C4B73198  42.370  30.414   7.364
 5790POPC   NC373199  12.049  26.807   5.564
 5790POPC   PO473200  12.052  26.837   5.864
 5790POPC   GL173201  12.054  26.845   6.164
 5790POPC   GL273202  12.227  26.801   6.164
 5790POPC   C1A73203  12.072  26.775   6.464
 5790POPC   D2A73204  12.058  26.805   6.764
 5790POPC   C3A73205  12.066  26.840   7.064
 5790POPC   C4A73206  12.102  26.857   7.364
 5790POPC   C1B73207  12.273  26.690   6.464
 5790POPC   C2B73208  12.345  26.743   6.764
 5790POPC   C3B73209  12.334  26.756   7.064
 5790POPC   C4B73210  12.298  26.772   7.364
 5791POPC   NC373211  43.065  28.372   5.564
 5791POPC   PO473212  43.129  28.375   5.864
 5791POPC   GL173213  43.133  28.400   6.164
 5791POPC   GL273214  43.127  28.472   6.164
 5791POPC   C1A73215  43.070  28.332   6.464
 5791POPC   D2A73216  43.068  28.352   6.764
 5791POPC   C3A73217  43.064  28.357   7.064
 5791POPC   C4A73218  43.101  28.404   7.364
 5791POPC   C1B73219  43.047  28.602   6.464
 5791POPC   C2B73220  43.031  28.604   6.764
 5791POPC   C3B73221  43.104  28.663   7.064
 5791POPC   C4B73222  43.047  28.663   7.364
 5792POPC   NC373223  36.128   6.623   5.564
 5792POPC   PO473224  36.103   6.642   5.864
 5792POPC   GL173225  36.177   6.661   6.164
 5792POPC   GL273226  36.016   6.753   6.164
 5792POPC   C1A73227  36.098   6.606   6.464
 5792POPC   D2A73228  36.125   6.686   6.764
 5792POPC   C3A73229  36.087   6.695   7.064
 5792POPC   C4A73230  36.122   6.629   7.364
 5792POPC   C1B73231  35.968   6.831   6.464
 5792POPC   C2B73232  35.925   6.834   6.764
 5792POPC   C3B73233  35.933   6.823   7.064
 5792POPC   C4B73234  35.950   6.879   7.364
 5793POPC   NC373235  24.522  18.314   5.564
 5793POPC   PO473236  24.456  18.303   5.864
 5793POPC   GL173237  24.517  18.312   6.164
 5793POPC   GL273238  24.385  18.323   6.164
 5793POPC   C1A73239  24.489  18.246   6.464
 5793POPC   D2A73240  24.526  18.262   6.764
 5793POPC   C3A73241  24.482  18.237   7.064
 5793POPC   C4A73242  24.496  18.326   7.364
 5793POPC   C1B73243  24.258  18.285   6.464
 5793POPC   C2B73244  24.227  18.333   6.764
 5793POPC   C3B73245  24.220  18.299   7.064
 5793POPC   C4B73246  24.219  18.360   7.364
 5794POPC   NC373247  31.467   2.749   5.564
 5794POPC   PO473248  31.484   2.730   5.864
 5794POPC   GL173249  31.431   2.780   6.164
 5794POPC   GL273250  31.591   2.778   6.164
 5794POPC   C1A73251  31.520   2.791   6.464
 5794POPC   D2A73252  31.485   2.800   6.764
 5794POPC   C3A73253  31.497   2.770   7.064
 5794POPC   C4A73254  31.476   2.788   7.364
 5794POPC   C1B73255  31.750   2.725   6.464
 5794POPC   C2B73256  31.712   2.712   6.764
 5794POPC   C3B73257  31.761   2.729   7.064
 5794POPC   C4B73258  31.758   2.694   7.364
 5795POPC   NC373259   3.578  29.935   5.564
 5795POPC   PO473260   3.504  29.877   5.864
 5795POPC   GL173261   3.510  29.956   6.164
 5795POPC   GL273262   3.674  29.889   6.164
 5795POPC   C1A73263   3.547  29.926   6.464
 5795POPC   D2A73264   3.542  29.903   6.764
 5795POPC   C3A73265   3.500  29.918   7.064
 5795POPC   C4A73266   3.558  29.943   7.364
 5795POPC   C1B73267   3.816  29.841   6.464
 5795POPC   C2B73268   3.743  29.818   6.764
 5795POPC   C3B73269   3.761  29.810   7.064
 5795POPC   C4B73270   3.815  29.901   7.364
 5796POPC   NC373271  38.499  22.195   5.564
 5796POPC   PO473272  38.448  22.156   5.864
 5796POPC   GL173273  38.466  22.205   6.164
 5796POPC   GL273274  38.387  22.236   6.164
 5796POPC   C1A73275  38.436  22.119   6.464
 5796POPC   D2A73276  38.430  22.127   6.764
 5796POPC   C3A73277  38.443  22.148   7.064
 5796POPC   C4A73278  38.422  22.163   7.364
 5796POPC   C1B73279  38.259  22.349   6.464
 5796POPC   C2B73280  38.233  22.361   6.764
 5796POPC   C3B73281  38.304  22.305   7.064
 5796POPC   C4B73282  38.293  22.323   7.364
 5797POPC   NC373283  28.373  14.439   5.564
 5797POPC   PO473284  28.342  14.396   5.864
 5797POPC   GL173285  28.321  14.364   6.164
 5797POPC   GL273286  28.409  14.320   6.164
 5797POPC   C1A73287  28.385  14.360   6.464
 5797POPC   D2A73288  28.339  14.366   6.764
 5797POPC   C3A73289  28.415  14.432   7.064
 5797POPC   C4A73290  28.374  14.452   7.364
 5797POPC   C1B73291  28.431  14.199   6.464
 5797POPC   C2B73292  28.457  14.197   6.764
 5797POPC   C3B73293  28.484  14.156   7.064
 5797POPC   C4B73294  28.490  14.171   7.364
 5798POPC   NC373295  13.635  21.345   5.564
 5798POPC   PO473296  13.671  21.411   5.864
 5798POPC   GL173297  13.639  21.426   6.164
 5798POPC   GL273298  13.692  21.258   6.164
 5798POPC   C1A73299  13.649  21.388   6.464
 5798POPC   D2A73300  13.625  21.425   6.764
 5798POPC   C3A73301  13.627  21.385   7.064
 5798POPC   C4A73302  13.581  21.402   7.364
 5798POPC   C1B73303  13.771  21.244   6.464
 5798POPC   C2B73304  13.794  21.249   6.764
 5798POPC   C3B73305  13.782  21.177   7.064
 5798POPC   C4B73306  13.816  21.170   7.364
 5799POPC   NC373307  14.425   7.391   5.564
 5799POPC   PO473308  14.442   7.375   5.864
 5799POPC   GL173309  14.453   7.388   6.164
 5799POPC   GL273310  14.489   7.379   6.164
 5799POPC   C1A73311  14.383   7.418   6.464
 5799POPC   D2A73312  14.384   7.450   6.764
 5799POPC   C3A73313  14.425   7.382   7.064
 5799POPC   C4A73314  14.438   7.379   7.364
 5799POPC   C1B73315  14.613   7.263   6.464
 5799POPC   C2B73316  14.590   7.253   6.764
 5799POPC   C3B73317  14.589   7.254   7.064
 5799POPC   C4B73318  14.635   7.314   7.364
 5800POPC   NC373319  13.648   2.809   5.564
 5800POPC   PO473320  13.673   2.789   5.864
 5800POPC   GL173321  13.671   2.741   6.164
 5800POPC   GL273322  13.625   2.633   6.164
 5800POPC   C1A73323  13.600   2.733   6.464
 5800POPC   D2A73324  13.677   2.776   6.764
 5800POPC   C3A73325  13.675   2.789   7.064
 5800POPC   C4A73326  13.618   2.762   7.364
 5800POPC   C1B73327  13.664   2.566   6.464
 5800POPC   C2B73328  13.596   2.517   6.764
 5800POPC   C3B73329  13.621   2.524   7.064
 5800POPC   C4B73330  13.648   2.540   7.364
 5801POPC   NC373331   2.795  38.438   5.564
 5801POPC   PO473332   2.797  38.469   5.864
 5801POPC   GL173333   2.784  38.475   6.164
 5801POPC   GL273334   2.831  38.560   6.164
 5801POPC   C1A73335   2.767  38.450   6.464
 5801POPC   D2A73336   2.769  38.471   6.764
 5801POPC   C3A73337   2.795  38.444   7.064
 5801POPC   C4A73338   2.720  38.498   7.364
 5801POPC   C1B73339   2.976  38.547   6.464
 5801POPC   C2B73340   2.981  38.604   6.764
 5801POPC   C3B73341   2.961  38.591   7.064
 5801POPC   C4B73342   2.959  38.632   7.364
 5802POPC   NC373343  36.164  28.322   5.564
 5802POPC   PO473344  36.155  28.413   5.864
 5802POPC   GL173345  36.149  28.373   6.164
 5802POPC   GL273346  36.295  28.431   6.164
 5802POPC   C1A73347  36.084  28.405   6.464
 5802POPC   D2A73348  36.098  28.372   6.764
 5802POPC   C3A73349  36.127  28.382   7.064
 5802POPC   C4A73350  36.090  28.326   7.364
 5802POPC   C1B73351  36.357  28.445   6.464
 5802POPC   C2B73352  36.321  28.477   6.764
 5802POPC   C3B73353  36.365  28.482   7.064
 5802POPC   C4B73354  36.411  28.399   7.364
 5803POPC   NC373355   6.597  43.880   5.564
 5803POPC   PO473356   6.692  43.881   5.864
 5803POPC   GL173357   6.608  43.838   6.164
 5803POPC   GL273358   6.724  43.854   6.164
 5803POPC   C1A73359   6.607  43.910   6.464
 5803POPC   D2A73360   6.596  43.866   6.764
 5803POPC   C3A73361   6.600  43.897   7.064
 5803POPC   C4A73362   6.685  43.884   7.364
 5803POPC   C1B73363   6.833  43.829   6.464
 5803POPC   C2B73364   6.888  43.794   6.764
 5803POPC   C3B73365   6.863  43.760   7.064
 5803POPC   C4B73366   6.915  43.751   7.364
 5804POPC   NC373367  30.737   1.198   5.564
 5804POPC   PO473368  30.735   1.246   5.864
 5804POPC   GL173369  30.739   1.203   6.164
 5804POPC   GL273370  30.673   1.365   6.164
 5804POPC   C1A73371  30.720   1.164   6.464
 5804POPC   D2A73372  30.656   1.256   6.764
 5804POPC   C3A73373  30.742   1.212   7.064
 5804POPC   C4A73374  30.652   1.239   7.364
 5804POPC   C1B73375  30.624   1.448   6.464
 5804POPC   C2B73376  30.636   1.448   6.764
 5804POPC   C3B73377  30.631   1.440   7.064
 5804POPC   C4B73378  30.600   1.483   7.364
 5805POPC   NC373379  18.245  12.901   5.564
 5805POPC   PO473380  18.313  12.875   5.864
 5805POPC   GL173381  18.268  12.885   6.164
 5805POPC   GL273382  18.373  12.777   6.164
 5805POPC   C1A73383  18.309  12.893   6.464
 5805POPC   D2A73384  18.312  12.830   6.764
 5805POPC   C3A73385  18.295  12.901   7.064
 5805POPC   C4A73386  18.261  12.891   7.364
 5805POPC   C1B73387  18.461  12.652   6.464
 5805POPC   C2B73388  18.448  12.697   6.764
 5805POPC   C3B73389  18.479  12.691   7.064
 5805POPC   C4B73390  18.441  12.654   7.364
 5806POPC   NC373391  33.795  22.124   5.564
 5806POPC   PO473392  33.796  22.188   5.864
 5806POPC   GL173393  33.816  22.181   6.164
 5806POPC   GL273394  33.684  22.230   6.164
 5806POPC   C1A73395  33.805  22.156   6.464
 5806POPC   D2A73396  33.751  22.183   6.764
 5806POPC   C3A73397  33.780  22.183   7.064
 5806POPC   C4A73398  33.761  22.198   7.364
 5806POPC   C1B73399  33.629  22.335   6.464
 5806POPC   C2B73400  33.638  22.322   6.764
 5806POPC   C3B73401  33.604  22.298   7.064
 5806POPC   C4B73402  33.600  22.303   7.364
 5807POPC   NC373403  15.145   5.819   5.564
 5807POPC   PO473404  15.225   5.892   5.864
 5807POPC   GL173405  15.180   5.908   6.164
 5807POPC   GL273406  15.153   5.747   6.164
 5807POPC   C1A73407  15.194   5.894   6.464
 5807POPC   D2A73408  15.218   5.849   6.764
 5807POPC   C3A73409  15.156   5.829   7.064
 5807POPC   C4A73410  15.223   5.844   7.364
 5807POPC   C1B73411  15.211   5.594   6.464
 5807POPC   C2B73412  15.177   5.580   6.764
 5807POPC   C3B73413  15.158   5.612   7.064
 5807POPC   C4B73414  15.212   5.610   7.364
 5808POPC   NC373415  20.640  12.880   5.564
 5808POPC   PO473416  20.569  12.812   5.864
 5808POPC   GL173417  20.618  12.838   6.164
 5808POPC   GL273418  20.456  12.824   6.164
 5808POPC   C1A73419  20.601  12.901   6.464
 5808POPC   D2A73420  20.655  12.899   6.764
 5808POPC   C3A73421  20.628  12.852   7.064
 5808POPC   C4A73422  20.600  12.811   7.364
 5808POPC   C1B73423  20.356  12.719   6.464
 5808POPC   C2B73424  20.361  12.783   6.764
 5808POPC   C3B73425  20.416  12.723   7.064
 5808POPC   C4B73426  20.421  12.798   7.364
 5809POPC   NC373427  35.325   9.760   5.564
 5809POPC   PO473428  35.316   9.728   5.864
 5809POPC   GL173429  35.346   9.760   6.164
 5809POPC   GL273430  35.316   9.853   6.164
 5809POPC   C1A73431  35.401   9.743   6.464
 5809POPC   D2A73432  35.341   9.778   6.764
 5809POPC   C3A73433  35.383   9.739   7.064
 5809POPC   C4A73434  35.306   9.751   7.364
 5809POPC   C1B73435  35.326   9.972   6.464
 5809POPC   C2B73436  35.288  10.045   6.764
 5809POPC   C3B73437  35.312  10.046   7.064
 5809POPC   C4B73438  35.321   9.980   7.364
 5810POPC   NC373439  35.311  35.355   5.564
 5810POPC   PO473440  35.378  35.345   5.864
 5810POPC   GL173441  35.315  35.399   6.164
 5810POPC   GL273442  35.304  35.235   6.164
 5810POPC   C1A73443  35.341  35.371   6.464
 5810POPC   D2A73444  35.338  35.306   6.764
 5810POPC   C3A73445  35.344  35.320   7.064
 5810POPC   C4A73446  35.328  35.307   7.364
 5810POPC   C1B73447  35.311  35.118   6.464
 5810POPC   C2B73448  35.294  35.148   6.764
 5810POPC   C3B73449  35.319  35.142   7.064
 5810POPC   C4B73450  35.262  35.127   7.364
 5811POPC   NC373451  17.536  19.863   5.564
 5811POPC   PO473452  17.496  19.807   5.864
 5811POPC   GL173453  17.501  19.859   6.164
 5811POPC   GL273454  17.422  19.921   6.164
 5811POPC   C1A73455  17.520  19.848   6.464
 5811POPC   D2A73456  17.546  19.862   6.764
 5811POPC   C3A73457  17.521  19.802   7.064
 5811POPC   C4A73458  17.508  19.874   7.364
 5811POPC   C1B73459  17.335  19.971   6.464
 5811POPC   C2B73460  17.278  19.966   6.764
 5811POPC   C3B73461  17.290  19.957   7.064
 5811POPC   C4B73462  17.313  19.970   7.364
 5812POPC   NC373463  36.100  26.002   5.564
 5812POPC   PO473464  36.099  26.069   5.864
 5812POPC   GL173465  36.163  26.072   6.164
 5812POPC   GL273466  36.229  26.083   6.164
 5812POPC   C1A73467  36.159  26.078   6.464
 5812POPC   D2A73468  36.123  26.064   6.764
 5812POPC   C3A73469  36.118  26.068   7.064
 5812POPC   C4A73470  36.134  26.019   7.364
 5812POPC   C1B73471  36.341  26.171   6.464
 5812POPC   C2B73472  36.299  26.230   6.764
 5812POPC   C3B73473  36.358  26.139   7.064
 5812POPC   C4B73474  36.300  26.180   7.364
 5813POPC   NC373475  17.541   2.789   5.564
 5813POPC   PO473476  17.531   2.752   5.864
 5813POPC   GL173477  17.480   2.782   6.164
 5813POPC   GL273478  17.537   2.857   6.164
 5813POPC   C1A73479  17.522   2.736   6.464
 5813POPC   D2A73480  17.473   2.777   6.764
 5813POPC   C3A73481  17.556   2.729   7.064
 5813POPC   C4A73482  17.515   2.801   7.364
 5813POPC   C1B73483  17.574   3.024   6.464
 5813POPC   C2B73484  17.563   2.988   6.764
 5813POPC   C3B73485  17.479   3.035   7.064
 5813POPC   C4B73486  17.496   3.037   7.364
 5814POPC   NC373487  20.563   3.555   5.564
 5814POPC   PO473488  20.602   3.506   5.864
 5814POPC   GL173489  20.582   3.565   6.164
 5814POPC   GL273490  20.519   3.437   6.164
 5814POPC   C1A73491  20.643   3.500   6.464
 5814POPC   D2A73492  20.651   3.536   6.764
 5814POPC   C3A73493  20.634   3.589   7.064
 5814POPC   C4A73494  20.565   3.544   7.364
 5814POPC   C1B73495  20.486   3.371   6.464
 5814POPC   C2B73496  20.492   3.371   6.764
 5814POPC   C3B73497  20.424   3.376   7.064
 5814POPC   C4B73498  20.491   3.329   7.364
 5815POPC   NC373499   4.327  12.106   5.564
 5815POPC   PO473500   4.277  12.041   5.864
 5815POPC   GL173501   4.335  12.123   6.164
 5815POPC   GL273502   4.466  12.029   6.164
 5815POPC   C1A73503   4.280  12.069   6.464
 5815POPC   D2A73504   4.333  12.120   6.764
 5815POPC   C3A73505   4.327  12.054   7.064
 5815POPC   C4A73506   4.274  12.119   7.364
 5815POPC   C1B73507   4.527  11.967   6.464
 5815POPC   C2B73508   4.550  11.972   6.764
 5815POPC   C3B73509   4.595  12.009   7.064
 5815POPC   C4B73510   4.573  12.010   7.364
 5816POPC   NC373511  42.362   2.764   5.564
 5816POPC   PO473512  42.316   2.725   5.864
 5816POPC   GL173513  42.378   2.808   6.164
 5816POPC   GL273514  42.247   2.648   6.164
 5816POPC   C1A73515  42.348   2.731   6.464
 5816POPC   D2A73516  42.384   2.793   6.764
 5816POPC   C3A73517  42.320   2.807   7.064
 5816POPC   C4A73518  42.380   2.782   7.364
 5816POPC   C1B73519  42.199   2.484   6.464
 5816POPC   C2B73520  42.220   2.508   6.764
 5816POPC   C3B73521  42.270   2.527   7.064
 5816POPC   C4B73522  42.290   2.548   7.364
 5817POPC   NC373523   2.034   8.942   5.564
 5817POPC   PO473524   1.943   9.008   5.864
 5817POPC   GL173525   1.995   8.964   6.164
 5817POPC   GL273526   1.926   8.907   6.164
 5817POPC   C1A73527   1.967   8.990   6.464
 5817POPC   D2A73528   1.952   8.972   6.764
 5817POPC   C3A73529   1.955   8.987   7.064
 5817POPC   C4A73530   1.972   9.010   7.364
 5817POPC   C1B73531   1.783   8.791   6.464
 5817POPC   C2B73532   1.749   8.790   6.764
 5817POPC   C3B73533   1.782   8.833   7.064
 5817POPC   C4B73534   1.781   8.807   7.364
 5818POPC   NC373535   2.036   1.189   5.564
 5818POPC   PO473536   1.948   1.237   5.864
 5818POPC   GL173537   2.016   1.203   6.164
 5818POPC   GL273538   1.896   1.310   6.164
 5818POPC   C1A73539   2.036   1.264   6.464
 5818POPC   D2A73540   2.020   1.183   6.764
 5818POPC   C3A73541   1.975   1.207   7.064
 5818POPC   C4A73542   2.012   1.255   7.364
 5818POPC   C1B73543   1.910   1.442   6.464
 5818POPC   C2B73544   1.901   1.452   6.764
 5818POPC   C3B73545   1.896   1.421   7.064
 5818POPC   C4B73546   1.863   1.495   7.364
 5819POPC   NC373547  15.191  12.895   5.564
 5819POPC   PO473548  15.158  12.822   5.864
 5819POPC   GL173549  15.208  12.892   6.164
 5819POPC   GL273550  15.215  12.749   6.164
 5819POPC   C1A73551  15.216  12.888   6.464
 5819POPC   D2A73552  15.201  12.894   6.764
 5819POPC   C3A73553  15.226  12.892   7.064
 5819POPC   C4A73554  15.213  12.833   7.364
 5819POPC   C1B73555  15.266  12.632   6.464
 5819POPC   C2B73556  15.275  12.657   6.764
 5819POPC   C3B73557  15.329  12.593   7.064
 5819POPC   C4B73558  15.326  12.645   7.364
 5820POPC   NC373559   3.513  41.555   5.564
 5820POPC   PO473560   3.510  41.530   5.864
 5820POPC   GL173561   3.579  41.602   6.164
 5820POPC   GL273562   3.631  41.505   6.164
 5820POPC   C1A73563   3.538  41.514   6.464
 5820POPC   D2A73564   3.580  41.594   6.764
 5820POPC   C3A73565   3.559  41.604   7.064
 5820POPC   C4A73566   3.541  41.529   7.364
 5820POPC   C1B73567   3.802  41.416   6.464
 5820POPC   C2B73568   3.710  41.451   6.764
 5820POPC   C3B73569   3.781  41.413   7.064
 5820POPC   C4B73570   3.774  41.485   7.364
 5821POPC   NC373571  41.523  40.774   5.564
 5821POPC   PO473572  41.588  40.740   5.864
 5821POPC   GL173573  41.607  40.756   6.164
 5821POPC   GL273574  41.532  40.716   6.164
 5821POPC   C1A73575  41.586  40.801   6.464
 5821POPC   D2A73576  41.526  40.801   6.764
 5821POPC   C3A73577  41.517  40.821   7.064
 5821POPC   C4A73578  41.564  40.762   7.364
 5821POPC   C1B73579  41.443  40.622   6.464
 5821POPC   C2B73580  41.373  40.546   6.764
 5821POPC   C3B73581  41.403  40.534   7.064
 5821POPC   C4B73582  41.436  40.603   7.364
 5822POPC   NC373583  39.979  36.098   5.564
 5822POPC   PO473584  39.973  36.152   5.864
 5822POPC   GL173585  40.027  36.143   6.164
 5822POPC   GL273586  39.988  36.254   6.164
 5822POPC   C1A73587  40.041  36.167   6.464
 5822POPC   D2A73588  40.023  36.095   6.764
 5822POPC   C3A73589  40.043  36.099   7.064
 5822POPC   C4A73590  39.997  36.151   7.364
 5822POPC   C1B73591  40.016  36.365   6.464
 5822POPC   C2B73592  39.981  36.381   6.764
 5822POPC   C3B73593  39.940  36.389   7.064
 5822POPC   C4B73594  39.993  36.406   7.364
 5823POPC   NC373595  32.270  27.632   5.564
 5823POPC   PO473596  32.271  27.579   5.864
 5823POPC   GL173597  32.271  27.634   6.164
 5823POPC   GL273598  32.102  27.620   6.164
 5823POPC   C1A73599  32.201  27.639   6.464
 5823POPC   D2A73600  32.289  27.568   6.764
 5823POPC   C3A73601  32.296  27.585   7.064
 5823POPC   C4A73602  32.254  27.577   7.364
 5823POPC   C1B73603  32.052  27.590   6.464
 5823POPC   C2B73604  32.002  27.612   6.764
 5823POPC   C3B73605  31.964  27.605   7.064
 5823POPC   C4B73606  31.964  27.624   7.364
 5824POPC   NC373607  44.614  13.672   5.564
 5824POPC   PO473608  44.699  13.648   5.864
 5824POPC   GL173609  44.659  13.616   6.164
 5824POPC   GL273610  44.595  13.501   6.164
 5824POPC   C1A73611  44.658  13.610   6.464
 5824POPC   D2A73612  44.668  13.656   6.764
 5824POPC   C3A73613  44.670  13.590   7.064
 5824POPC   C4A73614  44.670  13.649   7.364
 5824POPC   C1B73615  44.491  13.422   6.464
 5824POPC   C2B73616  44.551  13.468   6.764
 5824POPC   C3B73617  44.494  13.443   7.064
 5824POPC   C4B73618  44.507  13.415   7.364
 5825POPC   NC373619  25.243  16.738   5.564
 5825POPC   PO473620  25.267  16.740   5.864
 5825POPC   GL173621  25.228  16.730   6.164
 5825POPC   GL273622  25.261  16.635   6.164
 5825POPC   C1A73623  25.237  16.729   6.464
 5825POPC   D2A73624  25.256  16.725   6.764
 5825POPC   C3A73625  25.268  16.730   7.064
 5825POPC   C4A73626  25.315  16.731   7.364
 5825POPC   C1B73627  25.209  16.444   6.464
 5825POPC   C2B73628  25.186  16.501   6.764
 5825POPC   C3B73629  25.252  16.486   7.064
 5825POPC   C4B73630  25.176  16.528   7.364
 5826POPC   NC373631  12.102   1.195   5.564
 5826POPC   PO473632  12.064   1.233   5.864
 5826POPC   GL173633  12.075   1.246   6.164
 5826POPC   GL273634  12.169   1.334   6.164
 5826POPC   C1A73635  12.054   1.166   6.464
 5826POPC   D2A73636  12.126   1.180   6.764
 5826POPC   C3A73637  12.087   1.168   7.064
 5826POPC   C4A73638  12.089   1.191   7.364
 5826POPC   C1B73639  12.159   1.467   6.464
 5826POPC   C2B73640  12.148   1.424   6.764
 5826POPC   C3B73641  12.153   1.427   7.064
 5826POPC   C4B73642  12.209   1.443   7.364
 5827POPC   NC373643  39.967  16.766   5.564
 5827POPC   PO473644  39.993  16.735   5.864
 5827POPC   GL173645  40.000  16.747   6.164
 5827POPC   GL273646  40.114  16.590   6.164
 5827POPC   C1A73647  40.052  16.695   6.464
 5827POPC   D2A73648  39.980  16.740   6.764
 5827POPC   C3A73649  40.017  16.763   7.064
 5827POPC   C4A73650  40.030  16.765   7.364
 5827POPC   C1B73651  40.206  16.520   6.464
 5827POPC   C2B73652  40.159  16.562   6.764
 5827POPC   C3B73653  40.130  16.524   7.064
 5827POPC   C4B73654  40.159  16.578   7.364
 5828POPC   NC373655  41.601  17.501   5.564
 5828POPC   PO473656  41.551  17.465   5.864
 5828POPC   GL173657  41.530  17.545   6.164
 5828POPC   GL273658  41.435  17.453   6.164
 5828POPC   C1A73659  41.572  17.506   6.464
 5828POPC   D2A73660  41.538  17.479   6.764
 5828POPC   C3A73661  41.562  17.525   7.064
 5828POPC   C4A73662  41.586  17.540   7.364
 5828POPC   C1B73663  41.355  17.429   6.464
 5828POPC   C2B73664  41.307  17.338   6.764
 5828POPC   C3B73665  41.380  17.383   7.064
 5828POPC   C4B73666  41.362  17.367   7.364
 5829POPC   NC373667  31.453  22.208   5.564
 5829POPC   PO473668  31.519  22.203   5.864
 5829POPC   GL173669  31.459  22.212   6.164
 5829POPC   GL273670  31.368  22.236   6.164
 5829POPC   C1A73671  31.456  22.206   6.464
 5829POPC   D2A73672  31.505  22.128   6.764
 5829POPC   C3A73673  31.468  22.199   7.064
 5829POPC   C4A73674  31.508  22.174   7.364
 5829POPC   C1B73675  31.307  22.364   6.464
 5829POPC   C2B73676  31.401  22.398   6.764
 5829POPC   C3B73677  31.368  22.349   7.064
 5829POPC   C4B73678  31.388  22.427   7.364
 5830POPC   NC373679  15.228  23.678   5.564
 5830POPC   PO473680  15.147  23.704   5.864
 5830POPC   GL173681  15.211  23.679   6.164
 5830POPC   GL273682  15.177  23.625   6.164
 5830POPC   C1A73683  15.129  23.718   6.464
 5830POPC   D2A73684  15.132  23.706   6.764
 5830POPC   C3A73685  15.208  23.695   7.064
 5830POPC   C4A73686  15.169  23.745   7.364
 5830POPC   C1B73687  15.115  23.462   6.464
 5830POPC   C2B73688  15.071  23.490   6.764
 5830POPC   C3B73689  15.122  23.499   7.064
 5830POPC   C4B73690  15.133  23.428   7.364
 5831POPC   NC373691  44.652  32.223   5.564
 5831POPC   PO473692  44.707  32.278   5.864
 5831POPC   GL173693  44.680  32.288   6.164
 5831POPC   GL273694  44.817  32.232   6.164
 5831POPC   C1A73695  44.699  32.250   6.464
 5831POPC   D2A73696  44.613  32.293   6.764
 5831POPC   C3A73697  44.706  32.293   7.064
 5831POPC   C4A73698  44.642  32.285   7.364
 5831POPC   C1B73699  44.938  32.312   6.464
 5831POPC   C2B73700  44.882  32.333   6.764
 5831POPC   C3B73701  44.925  32.291   7.064
 5831POPC   C4B73702  44.885  32.260   7.364
 5832POPC   NC373703   8.962  26.061   5.564
 5832POPC   PO473704   8.959  26.038   5.864
 5832POPC   GL173705   8.939  26.033   6.164
 5832POPC   GL273706   8.883  26.048   6.164
 5832POPC   C1A73707   8.964  26.013   6.464
 5832POPC   D2A73708   8.924  26.064   6.764
 5832POPC   C3A73709   8.985  26.081   7.064
 5832POPC   C4A73710   8.940  26.015   7.364
 5832POPC   C1B73711   8.729  26.067   6.464
 5832POPC   C2B73712   8.714  26.068   6.764
 5832POPC   C3B73713   8.683  26.078   7.064
 5832POPC   C4B73714   8.679  26.074   7.364
 5833POPC   NC373715  43.154  42.300   5.564
 5833POPC   PO473716  43.073  42.378   5.864
 5833POPC   GL173717  43.109  42.370   6.164
 5833POPC   GL273718  43.073  42.180   6.164
 5833POPC   C1A73719  43.116  42.326   6.464
 5833POPC   D2A73720  43.150  42.345   6.764
 5833POPC   C3A73721  43.086  42.357   7.064
 5833POPC   C4A73722  43.126  42.290   7.364
 5833POPC   C1B73723  43.040  42.117   6.464
 5833POPC   C2B73724  43.073  42.120   6.764
 5833POPC   C3B73725  43.035  42.048   7.064
 5833POPC   C4B73726  43.015  42.068   7.364
 5834POPC   NC373727   9.719  12.842   5.564
 5834POPC   PO473728   9.723  12.815   5.864
 5834POPC   GL173729   9.703  12.866   6.164
 5834POPC   GL273730   9.605  12.764   6.164
 5834POPC   C1A73731   9.782  12.868   6.464
 5834POPC   D2A73732   9.740  12.828   6.764
 5834POPC   C3A73733   9.795  12.817   7.064
 5834POPC   C4A73734   9.725  12.836   7.364
 5834POPC   C1B73735   9.587  12.706   6.464
 5834POPC   C2B73736   9.551  12.710   6.764
 5834POPC   C3B73737   9.549  12.719   7.064
 5834POPC   C4B73738   9.589  12.667   7.364
 5835POPC   NC373739  40.004   4.358   5.564
 5835POPC   PO473740  39.984   4.278   5.864
 5835POPC   GL173741  39.970   4.316   6.164
 5835POPC   GL273742  39.924   4.319   6.164
 5835POPC   C1A73743  40.051   4.342   6.464
 5835POPC   D2A73744  40.037   4.316   6.764
 5835POPC   C3A73745  39.988   4.366   7.064
 5835POPC   C4A73746  40.036   4.356   7.364
 5835POPC   C1B73747  39.734   4.365   6.464
 5835POPC   C2B73748  39.748   4.375   6.764
 5835POPC   C3B73749  39.815   4.332   7.064
 5835POPC   C4B73750  39.735   4.353   7.364
 5836POPC   NC373751  12.803  42.289   5.564
 5836POPC   PO473752  12.874  42.321   5.864
 5836POPC   GL173753  12.837  42.345   6.164
 5836POPC   GL273754  12.801  42.425   6.164
 5836POPC   C1A73755  12.871  42.321   6.464
 5836POPC   D2A73756  12.873  42.380   6.764
 5836POPC   C3A73757  12.802  42.384   7.064
 5836POPC   C4A73758  12.846  42.324   7.364
 5836POPC   C1B73759  12.699  42.512   6.464
 5836POPC   C2B73760  12.654  42.527   6.764
 5836POPC   C3B73761  12.668  42.506   7.064
 5836POPC   C4B73762  12.615  42.458   7.364
 5837POPC   NC373763  15.174  24.511   5.564
 5837POPC   PO473764  15.174  24.492   5.864
 5837POPC   GL173765  15.203  24.481   6.164
 5837POPC   GL273766  15.073  24.476   6.164
 5837POPC   C1A73767  15.134  24.441   6.464
 5837POPC   D2A73768  15.212  24.473   6.764
 5837POPC   C3A73769  15.183  24.464   7.064
 5837POPC   C4A73770  15.188  24.465   7.364
 5837POPC   C1B73771  14.898  24.450   6.464
 5837POPC   C2B73772  14.910  24.411   6.764
 5837POPC   C3B73773  14.916  24.471   7.064
 5837POPC   C4B73774  14.983  24.452   7.364
 5838POPC   NC373775  28.322   8.949   5.564
 5838POPC   PO473776  28.330   9.018   5.864
 5838POPC   GL173777  28.363   9.007   6.164
 5838POPC   GL273778  28.297   8.892   6.164
 5838POPC   C1A73779  28.328   9.010   6.464
 5838POPC   D2A73780  28.363   9.013   6.764
 5838POPC   C3A73781  28.388   8.940   7.064
 5838POPC   C4A73782  28.398   8.976   7.364
 5838POPC   C1B73783  28.186   8.763   6.464
 5838POPC   C2B73784  28.225   8.801   6.764
 5838POPC   C3B73785  28.247   8.767   7.064
 5838POPC   C4B73786  28.186   8.807   7.364
 5839POPC   NC373787   5.113  18.261   5.564
 5839POPC   PO473788   5.051  18.258   5.864
 5839POPC   GL173789   5.044  18.275   6.164
 5839POPC   GL273790   5.033  18.431   6.164
 5839POPC   C1A73791   5.068  18.271   6.464
 5839POPC   D2A73792   5.076  18.238   6.764
 5839POPC   C3A73793   5.051  18.235   7.064
 5839POPC   C4A73794   5.077  18.320   7.364
 5839POPC   C1B73795   4.986  18.544   6.464
 5839POPC   C2B73796   4.993  18.526   6.764
 5839POPC   C3B73797   4.995  18.539   7.064
 5839POPC   C4B73798   5.012  18.565   7.364
 5840POPC   NC373799   4.315  37.630   5.564
 5840POPC   PO473800   4.334  37.720   5.864
 5840POPC   GL173801   4.289  37.678   6.164
 5840POPC   GL273802   4.421  37.720   6.164
 5840POPC   C1A73803   4.338  37.661   6.464
 5840POPC   D2A73804   4.302  37.637   6.764
 5840POPC   C3A73805   4.367  37.658   7.064
 5840POPC   C4A73806   4.281  37.679   7.364
 5840POPC   C1B73807   4.521  37.693   6.464
 5840POPC   C2B73808   4.560  37.755   6.764
 5840POPC   C3B73809   4.609  37.729   7.064
 5840POPC   C4B73810   4.524  37.701   7.364
 5841POPC   NC373811   5.869   1.969   5.564
 5841POPC   PO473812   5.842   2.015   5.864
 5841POPC   GL173813   5.857   2.017   6.164
 5841POPC   GL273814   5.764   2.089   6.164
 5841POPC   C1A73815   5.864   2.010   6.464
 5841POPC   D2A73816   5.902   1.985   6.764
 5841POPC   C3A73817   5.883   1.944   7.064
 5841POPC   C4A73818   5.911   2.005   7.364
 5841POPC   C1B73819   5.748   2.148   6.464
 5841POPC   C2B73820   5.674   2.152   6.764
 5841POPC   C3B73821   5.682   2.171   7.064
 5841POPC   C4B73822   5.711   2.180   7.364
 5842POPC   NC373823   8.948   5.825   5.564
 5842POPC   PO473824   8.962   5.827   5.864
 5842POPC   GL173825   8.950   5.893   6.164
 5842POPC   GL273826   8.880   5.795   6.164
 5842POPC   C1A73827   8.976   5.879   6.464
 5842POPC   D2A73828   8.932   5.829   6.764
 5842POPC   C3A73829   8.951   5.873   7.064
 5842POPC   C4A73830   9.000   5.909   7.364
 5842POPC   C1B73831   8.734   5.702   6.464
 5842POPC   C2B73832   8.786   5.711   6.764
 5842POPC   C3B73833   8.796   5.737   7.064
 5842POPC   C4B73834   8.805   5.675   7.364
 5843POPC   NC373835  41.585   9.720   5.564
 5843POPC   PO473836  41.604   9.719   5.864
 5843POPC   GL173837  41.556   9.753   6.164
 5843POPC   GL273838  41.645   9.615   6.164
 5843POPC   C1A73839  41.587   9.767   6.464
 5843POPC   D2A73840  41.586   9.777   6.764
 5843POPC   C3A73841  41.588   9.750   7.064
 5843POPC   C4A73842  41.523   9.772   7.364
 5843POPC   C1B73843  41.748   9.563   6.464
 5843POPC   C2B73844  41.751   9.564   6.764
 5843POPC   C3B73845  41.663   9.503   7.064
 5843POPC   C4B73846  41.670   9.530   7.364
 5844POPC   NC373847   0.471  40.030   5.564
 5844POPC   PO473848   0.424  40.032   5.864
 5844POPC   GL173849   0.468  40.019   6.164
 5844POPC   GL273850   0.391  39.949   6.164
 5844POPC   C1A73851   0.405  39.973   6.464
 5844POPC   D2A73852   0.476  40.015   6.764
 5844POPC   C3A73853   0.461  40.019   7.064
 5844POPC   C4A73854   0.447  40.044   7.364
 5844POPC   C1B73855   0.286  39.809   6.464
 5844POPC   C2B73856   0.278  39.820   6.764
 5844POPC   C3B73857   0.294  39.863   7.064
 5844POPC   C4B73858   0.289  39.859   7.364
 5845POPC   NC373859  38.418   1.209   5.564
 5845POPC   PO473860  38.471   1.172   5.864
 5845POPC   GL173861  38.438   1.240   6.164
 5845POPC   GL273862  38.553   1.107   6.164
 5845POPC   C1A73863  38.431   1.236   6.464
 5845POPC   D2A73864  38.419   1.171   6.764
 5845POPC   C3A73865  38.408   1.188   7.064
 5845POPC   C4A73866  38.502   1.187   7.364
 5845POPC   C1B73867  38.696   1.094   6.464
 5845POPC   C2B73868  38.646   1.064   6.764
 5845POPC   C3B73869  38.681   1.070   7.064
 5845POPC   C4B73870  38.613   1.009   7.364
 5846POPC   NC373871  22.171  29.884   5.564
 5846POPC   PO473872  22.137  29.926   5.864
 5846POPC   GL173873  22.129  29.896   6.164
 5846POPC   GL273874  22.244  29.896   6.164
 5846POPC   C1A73875  22.126  29.948   6.464
 5846POPC   D2A73876  22.204  29.906   6.764
 5846POPC   C3A73877  22.184  29.924   7.064
 5846POPC   C4A73878  22.178  29.877   7.364
 5846POPC   C1B73879  22.435  29.899   6.464
 5846POPC   C2B73880  22.411  29.882   6.764
 5846POPC   C3B73881  22.397  29.882   7.064
 5846POPC   C4B73882  22.459  29.925   7.364
 5847POPC   NC373883   6.677   1.166   5.564
 5847POPC   PO473884   6.606   1.200   5.864
 5847POPC   GL173885   6.598   1.192   6.164
 5847POPC   GL273886   6.559   1.299   6.164
 5847POPC   C1A73887   6.616   1.243   6.464
 5847POPC   D2A73888   6.624   1.241   6.764
 5847POPC   C3A73889   6.597   1.203   7.064
 5847POPC   C4A73890   6.649   1.234   7.364
 5847POPC   C1B73891   6.436   1.416   6.464
 5847POPC   C2B73892   6.452   1.419   6.764
 5847POPC   C3B73893   6.429   1.387   7.064
 5847POPC   C4B73894   6.484   1.405   7.364
 5848POPC   NC373895  27.632  28.400   5.564
 5848POPC   PO473896  27.593  28.375   5.864
 5848POPC   GL173897  27.574  28.333   6.164
 5848POPC   GL273898  27.640  28.495   6.164
 5848POPC   C1A73899  27.623  28.354   6.464
 5848POPC   D2A73900  27.597  28.329   6.764
 5848POPC   C3A73901  27.554  28.332   7.064
 5848POPC   C4A73902  27.568  28.354   7.364
 5848POPC   C1B73903  27.803  28.550   6.464
 5848POPC   C2B73904  27.795  28.565   6.764
 5848POPC   C3B73905  27.748  28.597   7.064
 5848POPC   C4B73906  27.738  28.569   7.364
 5849POPC   NC373907  43.890  28.376   5.564
 5849POPC   PO473908  43.852  28.379   5.864
 5849POPC   GL173909  43.851  28.353   6.164
 5849POPC   GL273910  43.892  28.443   6.164
 5849POPC   C1A73911  43.934  28.391   6.464
 5849POPC   D2A73912  43.892  28.402   6.764
 5849POPC   C3A73913  43.895  28.328   7.064
 5849POPC   C4A73914  43.934  28.407   7.364
 5849POPC   C1B73915  43.949  28.612   6.464
 5849POPC   C2B73916  43.893  28.641   6.764
 5849POPC   C3B73917  43.974  28.640   7.064
 5849POPC   C4B73918  43.957  28.660   7.364
 5850POPC   NC373919  30.697  15.181   5.564
 5850POPC   PO473920  30.684  15.187   5.864
 5850POPC   GL173921  30.724  15.144   6.164
 5850POPC   GL273922  30.837  15.208   6.164
 5850POPC   C1A73923  30.735  15.164   6.464
 5850POPC   D2A73924  30.716  15.164   6.764
 5850POPC   C3A73925  30.672  15.166   7.064
 5850POPC   C4A73926  30.674  15.153   7.364
 5850POPC   C1B73927  30.917  15.121   6.464
 5850POPC   C2B73928  30.897  15.157   6.764
 5850POPC   C3B73929  30.987  15.123   7.064
 5850POPC   C4B73930  30.969  15.174   7.364
 5851POPC   NC373931  43.864  29.931   5.564
 5851POPC   PO473932  43.892  29.929   5.864
 5851POPC   GL173933  43.848  29.944   6.164
 5851POPC   GL273934  43.741  29.976   6.164
 5851POPC   C1A73935  43.898  29.877   6.464
 5851POPC   D2A73936  43.885  29.894   6.764
 5851POPC   C3A73937  43.858  29.961   7.064
 5851POPC   C4A73938  43.926  29.894   7.364
 5851POPC   C1B73939  43.593  29.942   6.464
 5851POPC   C2B73940  43.652  29.977   6.764
 5851POPC   C3B73941  43.623  29.915   7.064
 5851POPC   C4B73942  43.604  29.963   7.364
 5852POPC   NC373943  43.075  40.001   5.564
 5852POPC   PO473944  43.120  39.995   5.864
 5852POPC   GL173945  43.142  39.972   6.164
 5852POPC   GL273946  43.077  39.892   6.164
 5852POPC   C1A73947  43.094  39.960   6.464
 5852POPC   D2A73948  43.119  40.034   6.764
 5852POPC   C3A73949  43.114  39.969   7.064
 5852POPC   C4A73950  43.086  39.967   7.364
 5852POPC   C1B73951  43.049  39.720   6.464
 5852POPC   C2B73952  42.989  39.807   6.764
 5852POPC   C3B73953  43.073  39.815   7.064
 5852POPC   C4B73954  43.050  39.797   7.364
 5853POPC   NC373955  35.389   8.191   5.564
 5853POPC   PO473956  35.377   8.193   5.864
 5853POPC   GL173957  35.328   8.158   6.164
 5853POPC   GL273958  35.332   8.362   6.164
 5853POPC   C1A73959  35.345   8.212   6.464
 5853POPC   D2A73960  35.329   8.245   6.764
 5853POPC   C3A73961  35.356   8.176   7.064
 5853POPC   C4A73962  35.375   8.235   7.364
 5853POPC   C1B73963  35.403   8.407   6.464
 5853POPC   C2B73964  35.426   8.482   6.764
 5853POPC   C3B73965  35.419   8.431   7.064
 5853POPC   C4B73966  35.406   8.463   7.364
 5854POPC   NC373967  39.963  17.508   5.564
 5854POPC   PO473968  40.008  17.542   5.864
 5854POPC   GL173969  40.054  17.508   6.164
 5854POPC   GL273970  39.937  17.667   6.164
 5854POPC   C1A73971  40.032  17.532   6.464
 5854POPC   D2A73972  39.996  17.477   6.764
 5854POPC   C3A73973  39.999  17.541   7.064
 5854POPC   C4A73974  39.982  17.556   7.364
 5854POPC   C1B73975  39.943  17.727   6.464
 5854POPC   C2B73976  39.916  17.754   6.764
 5854POPC   C3B73977  39.960  17.718   7.064
 5854POPC   C4B73978  39.901  17.795   7.364
 5855POPC   NC373979  22.947  16.682   5.564
 5855POPC   PO473980  22.964  16.706   5.864
 5855POPC   GL173981  22.893  16.734   6.164
 5855POPC   GL273982  22.822  16.625   6.164
 5855POPC   C1A73983  22.896  16.719   6.464
 5855POPC   D2A73984  22.895  16.727   6.764
 5855POPC   C3A73985  22.923  16.692   7.064
 5855POPC   C4A73986  22.909  16.758   7.364
 5855POPC   C1B73987  22.731  16.597   6.464
 5855POPC   C2B73988  22.732  16.577   6.764
 5855POPC   C3B73989  22.769  16.564   7.064
 5855POPC   C4B73990  22.729  16.568   7.364
 5856POPC   NC373991  29.149  29.164   5.564
 5856POPC   PO473992  29.113  29.147   5.864
 5856POPC   GL173993  29.106  29.152   6.164
 5856POPC   GL273994  29.236  29.100   6.164
 5856POPC   C1A73995  29.162  29.147   6.464
 5856POPC   D2A73996  29.158  29.164   6.764
 5856POPC   C3A73997  29.160  29.143   7.064
 5856POPC   C4A73998  29.137  29.189   7.364
 5856POPC   C1B73999  29.395  29.106   6.464
 5856POPC   C2B74000  29.340  29.117   6.764
 5856POPC   C3B74001  29.422  29.064   7.064
 5856POPC   C4B74002  29.434  29.095   7.364
 5857POPC   NC374003  30.651  16.709   5.564
 5857POPC   PO474004  30.664  16.707   5.864
 5857POPC   GL174005  30.700  16.697   6.164
 5857POPC   GL274006  30.645  16.835   6.164
 5857POPC   C1A74007  30.664  16.729   6.464
 5857POPC   D2A74008  30.667  16.738   6.764
 5857POPC   C3A74009  30.656  16.709   7.064
 5857POPC   C4A74010  30.665  16.707   7.364
 5857POPC   C1B74011  30.507  16.966   6.464
 5857POPC   C2B74012  30.501  16.874   6.764
 5857POPC   C3B74013  30.535  16.968   7.064
 5857POPC   C4B74014  30.493  16.970   7.364
 5858POPC   NC374015  19.045   2.034   5.564
 5858POPC   PO474016  19.044   2.033   5.864
 5858POPC   GL174017  19.063   1.999   6.164
 5858POPC   GL274018  19.149   2.081   6.164
 5858POPC   C1A74019  19.052   1.985   6.464
 5858POPC   D2A74020  19.033   1.940   6.764
 5858POPC   C3A74021  19.080   1.983   7.064
 5858POPC   C4A74022  19.042   1.951   7.364
 5858POPC   C1B74023  19.295   2.102   6.464
 5858POPC   C2B74024  19.222   2.160   6.764
 5858POPC   C3B74025  19.285   2.130   7.064
 5858POPC   C4B74026  19.255   2.153   7.364
 5859POPC   NC374027  39.235  20.599   5.564
 5859POPC   PO474028  39.238  20.599   5.864
 5859POPC   GL174029  39.266  20.580   6.164
 5859POPC   GL274030  39.200  20.779   6.164
 5859POPC   C1A74031  39.230  20.594   6.464
 5859POPC   D2A74032  39.275  20.602   6.764
 5859POPC   C3A74033  39.221  20.576   7.064
 5859POPC   C4A74034  39.199  20.620   7.364
 5859POPC   C1B74035  39.170  20.833   6.464
 5859POPC   C2B74036  39.180  20.818   6.764
 5859POPC   C3B74037  39.169  20.850   7.064
 5859POPC   C4B74038  39.149  20.890   7.364
 5860POPC   NC374039  31.456  19.872   5.564
 5860POPC   PO474040  31.480  19.804   5.864
 5860POPC   GL174041  31.446  19.832   6.164
 5860POPC   GL274042  31.357  19.722   6.164
 5860POPC   C1A74043  31.493  19.822   6.464
 5860POPC   D2A74044  31.504  19.853   6.764
 5860POPC   C3A74045  31.521  19.856   7.064
 5860POPC   C4A74046  31.428  19.840   7.364
 5860POPC   C1B74047  31.257  19.632   6.464
 5860POPC   C2B74048  31.256  19.608   6.764
 5860POPC   C3B74049  31.299  19.696   7.064
 5860POPC   C4B74050  31.302  19.652   7.364
 5861POPC   NC374051  42.359   0.403   5.564
 5861POPC   PO474052  42.291   0.433   5.864
 5861POPC   GL174053  42.369   0.460   6.164
 5861POPC   GL274054  42.293   0.339   6.164
 5861POPC   C1A74055  42.346   0.478   6.464
 5861POPC   D2A74056  42.336   0.441   6.764
 5861POPC   C3A74057  42.358   0.406   7.064
 5861POPC   C4A74058  42.331   0.421   7.364
 5861POPC   C1B74059  42.184   0.232   6.464
 5861POPC   C2B74060  42.247   0.205   6.764
 5861POPC   C3B74061  42.230   0.163   7.064
 5861POPC   C4B74062  42.236   0.197   7.364
 5862POPC   NC374063  19.015  20.586   5.564
 5862POPC   PO474064  19.050  20.624   5.864
 5862POPC   GL174065  19.060  20.582   6.164
 5862POPC   GL274066  19.077  20.765   6.164
 5862POPC   C1A74067  19.010  20.613   6.464
 5862POPC   D2A74068  19.029  20.632   6.764
 5862POPC   C3A74069  19.107  20.607   7.064
 5862POPC   C4A74070  19.099  20.578   7.364
 5862POPC   C1B74071  19.107  20.884   6.464
 5862POPC   C2B74072  19.158  20.879   6.764
 5862POPC   C3B74073  19.128  20.848   7.064
 5862POPC   C4B74074  19.100  20.802   7.364
 5863POPC   NC374075  26.063  42.335   5.564
 5863POPC   PO474076  26.055  42.306   5.864
 5863POPC   GL174077  26.089  42.309   6.164
 5863POPC   GL274078  26.160  42.303   6.164
 5863POPC   C1A74079  26.057  42.318   6.464
 5863POPC   D2A74080  26.006  42.346   6.764
 5863POPC   C3A74081  26.049  42.294   7.064
 5863POPC   C4A74082  26.078  42.339   7.364
 5863POPC   C1B74083  26.307  42.289   6.464
 5863POPC   C2B74084  26.304  42.275   6.764
 5863POPC   C3B74085  26.265  42.245   7.064
 5863POPC   C4B74086  26.258  42.228   7.364
 5864POPC   NC374087  22.142  14.409   5.564
 5864POPC   PO474088  22.155  14.409   5.864
 5864POPC   GL174089  22.162  14.431   6.164
 5864POPC   GL274090  22.086  14.542   6.164
 5864POPC   C1A74091  22.200  14.423   6.464
 5864POPC   D2A74092  22.187  14.418   6.764
 5864POPC   C3A74093  22.178  14.400   7.064
 5864POPC   C4A74094  22.159  14.361   7.364
 5864POPC   C1B74095  22.056  14.574   6.464
 5864POPC   C2B74096  22.027  14.642   6.764
 5864POPC   C3B74097  21.969  14.590   7.064
 5864POPC   C4B74098  22.031  14.628   7.364
 5865POPC   NC374099  22.961   0.447   5.564
 5865POPC   PO474100  22.904   0.415   5.864
 5865POPC   GL174101  22.946   0.429   6.164
 5865POPC   GL274102  23.000   0.521   6.164
 5865POPC   C1A74103  22.959   0.452   6.464
 5865POPC   D2A74104  22.962   0.439   6.764
 5865POPC   C3A74105  22.972   0.480   7.064
 5865POPC   C4A74106  22.945   0.460   7.364
 5865POPC   C1B74107  23.025   0.715   6.464
 5865POPC   C2B74108  23.022   0.675   6.764
 5865POPC   C3B74109  23.010   0.685   7.064
 5865POPC   C4B74110  22.974   0.657   7.364
 5866POPC   NC374111  13.592  42.353   5.564
 5866POPC   PO474112  13.670  42.292   5.864
 5866POPC   GL174113  13.618  42.329   6.164
 5866POPC   GL274114  13.716  42.335   6.164
 5866POPC   C1A74115  13.656  42.305   6.464
 5866POPC   D2A74116  13.656  42.299   6.764
 5866POPC   C3A74117  13.592  42.372   7.064
 5866POPC   C4A74118  13.604  42.315   7.364
 5866POPC   C1B74119  13.876  42.299   6.464
 5866POPC   C2B74120  13.906  42.328   6.764
 5866POPC   C3B74121  13.839  42.367   7.064
 5866POPC   C4B74122  13.828  42.311   7.364
 5867POPC   NC374123  13.674  40.751   5.564
 5867POPC   PO474124  13.591  40.788   5.864
 5867POPC   GL174125  13.598  40.767   6.164
 5867POPC   GL274126  13.629  40.872   6.164
 5867POPC   C1A74127  13.620  40.738   6.464
 5867POPC   D2A74128  13.622  40.764   6.764
 5867POPC   C3A74129  13.616  40.744   7.064
 5867POPC   C4A74130  13.614  40.796   7.364
 5867POPC   C1B74131  13.663  41.017   6.464
 5867POPC   C2B74132  13.678  40.987   6.764
 5867POPC   C3B74133  13.651  40.988   7.064
 5867POPC   C4B74134  13.645  40.996   7.364
 5868POPC   NC374135  18.265  43.857   5.564
 5868POPC   PO474136  18.263  43.881   5.864
 5868POPC   GL174137  18.276  43.843   6.164
 5868POPC   GL274138  18.276  43.980   6.164
 5868POPC   C1A74139  18.278  43.893   6.464
 5868POPC   D2A74140  18.314  43.855   6.764
 5868POPC   C3A74141  18.327  43.869   7.064
 5868POPC   C4A74142  18.325  43.922   7.364
 5868POPC   C1B74143  18.273  44.097   6.464
 5868POPC   C2B74144  18.253  44.175   6.764
 5868POPC   C3B74145  18.270  44.157   7.064
 5868POPC   C4B74146  18.270  44.180   7.364
 5869POPC   NC374147  40.831  36.879   5.564
 5869POPC   PO474148  40.828  36.909   5.864
 5869POPC   GL174149  40.793  36.934   6.164
 5869POPC   GL274150  40.700  36.783   6.164
 5869POPC   C1A74151  40.791  36.855   6.464
 5869POPC   D2A74152  40.827  36.887   6.764
 5869POPC   C3A74153  40.746  36.869   7.064
 5869POPC   C4A74154  40.769  36.949   7.364
 5869POPC   C1B74155  40.739  36.662   6.464
 5869POPC   C2B74156  40.719  36.674   6.764
 5869POPC   C3B74157  40.649  36.637   7.064
 5869POPC   C4B74158  40.726  36.702   7.364
 5870POPC   NC374159   8.939  22.201   5.564
 5870POPC   PO474160   9.006  22.147   5.864
 5870POPC   GL174161   8.996  22.128   6.164
 5870POPC   GL274162   8.812  22.217   6.164
 5870POPC   C1A74163   8.975  22.151   6.464
 5870POPC   D2A74164   8.937  22.175   6.764
 5870POPC   C3A74165   9.013  22.161   7.064
 5870POPC   C4A74166   8.940  22.152   7.364
 5870POPC   C1B74167   8.725  22.295   6.464
 5870POPC   C2B74168   8.724  22.282   6.764
 5870POPC   C3B74169   8.709  22.276   7.064
 5870POPC   C4B74170   8.719  22.279   7.364
 5871POPC   NC374171  24.465  32.987   5.564
 5871POPC   PO474172  24.501  32.984   5.864
 5871POPC   GL174173  24.524  33.036   6.164
 5871POPC   GL274174  24.362  33.012   6.164
 5871POPC   C1A74175  24.443  33.056   6.464
 5871POPC   D2A74176  24.447  33.041   6.764
 5871POPC   C3A74177  24.450  33.025   7.064
 5871POPC   C4A74178  24.515  33.057   7.364
 5871POPC   C1B74179  24.271  33.084   6.464
 5871POPC   C2B74180  24.280  33.102   6.764
 5871POPC   C3B74181  24.252  33.017   7.064
 5871POPC   C4B74182  24.253  33.102   7.364
 5872POPC   NC374183   0.418  23.689   5.564
 5872POPC   PO474184   0.436  23.739   5.864
 5872POPC   GL174185   0.446  23.764   6.164
 5872POPC   GL274186   0.332  23.862   6.164
 5872POPC   C1A74187   0.435  23.685   6.464
 5872POPC   D2A74188   0.422  23.747   6.764
 5872POPC   C3A74189   0.424  23.719   7.064
 5872POPC   C4A74190   0.400  23.746   7.364
 5872POPC   C1B74191   0.276  23.923   6.464
 5872POPC   C2B74192   0.286  23.968   6.764
 5872POPC   C3B74193   0.322  23.889   7.064
 5872POPC   C4B74194   0.285  23.874   7.364
 5873POPC   NC374195   5.104   2.759   5.564
 5873POPC   PO474196   5.108   2.789   5.864
 5873POPC   GL174197   5.136   2.736   6.164
 5873POPC   GL274198   5.007   2.726   6.164
 5873POPC   C1A74199   5.114   2.783   6.464
 5873POPC   D2A74200   5.126   2.763   6.764
 5873POPC   C3A74201   5.065   2.720   7.064
 5873POPC   C4A74202   5.057   2.753   7.364
 5873POPC   C1B74203   4.816   2.776   6.464
 5873POPC   C2B74204   4.883   2.792   6.764
 5873POPC   C3B74205   4.813   2.809   7.064
 5873POPC   C4B74206   4.892   2.811   7.364
 5874POPC   NC374207  15.133  19.807   5.564
 5874POPC   PO474208  15.161  19.819   5.864
 5874POPC   GL174209  15.205  19.855   6.164
 5874POPC   GL274210  15.292  19.895   6.164
 5874POPC   C1A74211  15.217  19.848   6.464
 5874POPC   D2A74212  15.209  19.786   6.764
 5874POPC   C3A74213  15.214  19.842   7.064
 5874POPC   C4A74214  15.182  19.790   7.364
 5874POPC   C1B74215  15.314  20.004   6.464
 5874POPC   C2B74216  15.286  20.028   6.764
 5874POPC   C3B74217  15.297  20.043   7.064
 5874POPC   C4B74218  15.346  20.017   7.364
 5875POPC   NC374219  14.418  37.668   5.564
 5875POPC   PO474220  14.382  37.642   5.864
 5875POPC   GL174221  14.415  37.718   6.164
 5875POPC   GL274222  14.510  37.666   6.164
 5875POPC   C1A74223  14.401  37.703   6.464
 5875POPC   D2A74224  14.387  37.670   6.764
 5875POPC   C3A74225  14.441  37.685   7.064
 5875POPC   C4A74226  14.434  37.710   7.364
 5875POPC   C1B74227  14.676  37.607   6.464
 5875POPC   C2B74228  14.646  37.592   6.764
 5875POPC   C3B74229  14.637  37.546   7.064
 5875POPC   C4B74230  14.643  37.603   7.364
 5876POPC   NC374231  39.262  36.157   5.564
 5876POPC   PO474232  39.249  36.094   5.864
 5876POPC   GL174233  39.206  36.146   6.164
 5876POPC   GL274234  39.348  36.200   6.164
 5876POPC   C1A74235  39.245  36.141   6.464
 5876POPC   D2A74236  39.277  36.149   6.764
 5876POPC   C3A74237  39.271  36.126   7.064
 5876POPC   C4A74238  39.236  36.101   7.364
 5876POPC   C1B74239  39.442  36.232   6.464
 5876POPC   C2B74240  39.466  36.246   6.764
 5876POPC   C3B74241  39.492  36.210   7.064
 5876POPC   C4B74242  39.463  36.231   7.364
 5877POPC   NC374243  29.874  31.431   5.564
 5877POPC   PO474244  29.885  31.510   5.864
 5877POPC   GL174245  29.891  31.452   6.164
 5877POPC   GL274246  29.763  31.484   6.164
 5877POPC   C1A74247  29.889  31.442   6.464
 5877POPC   D2A74248  29.884  31.447   6.764
 5877POPC   C3A74249  29.928  31.510   7.064
 5877POPC   C4A74250  29.909  31.477   7.364
 5877POPC   C1B74251  29.628  31.505   6.464
 5877POPC   C2B74252  29.650  31.480   6.764
 5877POPC   C3B74253  29.642  31.474   7.064
 5877POPC   C4B74254  29.641  31.542   7.364
 5878POPC   NC374255  22.176  15.166   5.564
 5878POPC   PO474256  22.113  15.218   5.864
 5878POPC   GL174257  22.127  15.194   6.164
 5878POPC   GL274258  22.169  15.028   6.164
 5878POPC   C1A74259  22.158  15.199   6.464
 5878POPC   D2A74260  22.141  15.223   6.764
 5878POPC   C3A74261  22.210  15.224   7.064
 5878POPC   C4A74262  22.188  15.197   7.364
 5878POPC   C1B74263  22.171  14.924   6.464
 5878POPC   C2B74264  22.131  14.884   6.764
 5878POPC   C3B74265  22.146  14.927   7.064
 5878POPC   C4B74266  22.101  14.897   7.364
 5879POPC   NC374267   1.979  28.397   5.564
 5879POPC   PO474268   1.947  28.418   5.864
 5879POPC   GL174269   2.002  28.326   6.164
 5879POPC   GL274270   2.079  28.242   6.164
 5879POPC   C1A74271   1.973  28.413   6.464
 5879POPC   D2A74272   1.940  28.344   6.764
 5879POPC   C3A74273   2.026  28.335   7.064
 5879POPC   C4A74274   2.014  28.339   7.364
 5879POPC   C1B74275   2.117  28.175   6.464
 5879POPC   C2B74276   2.135  28.151   6.764
 5879POPC   C3B74277   2.137  28.202   7.064
 5879POPC   C4B74278   2.102  28.150   7.364
 5880POPC   NC374279  44.646  19.087   5.564
 5880POPC   PO474280  44.646  19.052   5.864
 5880POPC   GL174281  44.667  19.094   6.164
 5880POPC   GL274282  44.717  19.017   6.164
 5880POPC   C1A74283  44.698  19.051   6.464
 5880POPC   D2A74284  44.675  19.075   6.764
 5880POPC   C3A74285  44.616  19.090   7.064
 5880POPC   C4A74286  44.657  19.050   7.364
 5880POPC   C1B74287  44.838  18.894   6.464
 5880POPC   C2B74288  44.895  18.884   6.764
 5880POPC   C3B74289  44.859  18.849   7.064
 5880POPC   C4B74290  44.882  18.858   7.364
 5881POPC   NC374291  33.054  11.273   5.564
 5881POPC   PO474292  33.064  11.324   5.864
 5881POPC   GL174293  33.062  11.303   6.164
 5881POPC   GL274294  32.990  11.137   6.164
 5881POPC   C1A74295  33.052  11.327   6.464
 5881POPC   D2A74296  33.070  11.256   6.764
 5881POPC   C3A74297  32.977  11.324   7.064
 5881POPC   C4A74298  32.982  11.267   7.364
 5881POPC   C1B74299  32.917  11.059   6.464
 5881POPC   C2B74300  32.955  11.114   6.764
 5881POPC   C3B74301  32.950  11.063   7.064
 5881POPC   C4B74302  32.972  11.090   7.364
 5882POPC   NC374303  40.753  24.491   5.564
 5882POPC   PO474304  40.737  24.464   5.864
 5882POPC   GL174305  40.768  24.466   6.164
 5882POPC   GL274306  40.852  24.535   6.164
 5882POPC   C1A74307  40.809  24.468   6.464
 5882POPC   D2A74308  40.782  24.505   6.764
 5882POPC   C3A74309  40.734  24.458   7.064
 5882POPC   C4A74310  40.753  24.455   7.364
 5882POPC   C1B74311  41.002  24.582   6.464
 5882POPC   C2B74312  40.945  24.678   6.764
 5882POPC   C3B74313  40.997  24.648   7.064
 5882POPC   C4B74314  41.010  24.660   7.364
 5883POPC   NC374315  43.154  27.625   5.564
 5883POPC   PO474316  43.156  27.641   5.864
 5883POPC   GL174317  43.118  27.587   6.164
 5883POPC   GL274318  43.024  27.567   6.164
 5883POPC   C1A74319  43.080  27.556   6.464
 5883POPC   D2A74320  43.153  27.641   6.764
 5883POPC   C3A74321  43.126  27.566   7.064
 5883POPC   C4A74322  43.103  27.623   7.364
 5883POPC   C1B74323  42.922  27.503   6.464
 5883POPC   C2B74324  42.878  27.493   6.764
 5883POPC   C3B74325  42.904  27.552   7.064
 5883POPC   C4B74326  42.890  27.508   7.364
 5884POPC   NC374327   7.447  31.494   5.564
 5884POPC   PO474328   7.418  31.478   5.864
 5884POPC   GL174329   7.449  31.518   6.164
 5884POPC   GL274330   7.423  31.611   6.164
 5884POPC   C1A74331   7.385  31.496   6.464
 5884POPC   D2A74332   7.424  31.522   6.764
 5884POPC   C3A74333   7.409  31.451   7.064
 5884POPC   C4A74334   7.412  31.437   7.364
 5884POPC   C1B74335   7.500  31.725   6.464
 5884POPC   C2B74336   7.487  31.725   6.764
 5884POPC   C3B74337   7.450  31.682   7.064
 5884POPC   C4B74338   7.447  31.730   7.364
 5885POPC   NC374339   8.987  22.925   5.564
 5885POPC   PO474340   8.995  22.945   5.864
 5885POPC   GL174341   9.015  22.901   6.164
 5885POPC   GL274342   8.914  22.776   6.164
 5885POPC   C1A74343   8.961  22.958   6.464
 5885POPC   D2A74344   8.997  22.946   6.764
 5885POPC   C3A74345   8.929  22.959   7.064
 5885POPC   C4A74346   8.930  22.934   7.364
 5885POPC   C1B74347   8.813  22.751   6.464
 5885POPC   C2B74348   8.816  22.741   6.764
 5885POPC   C3B74349   8.818  22.687   7.064
 5885POPC   C4B74350   8.821  22.695   7.364
 5886POPC   NC374351  19.067  27.614   5.564
 5886POPC   PO474352  19.072  27.548   5.864
 5886POPC   GL174353  19.069  27.549   6.164
 5886POPC   GL274354  19.060  27.503   6.164
 5886POPC   C1A74355  19.026  27.565   6.464
 5886POPC   D2A74356  19.088  27.641   6.764
 5886POPC   C3A74357  19.107  27.564   7.064
 5886POPC   C4A74358  19.082  27.605   7.364
 5886POPC   C1B74359  19.057  27.323   6.464
 5886POPC   C2B74360  19.012  27.310   6.764
 5886POPC   C3B74361  19.042  27.315   7.064
 5886POPC   C4B74362  19.045  27.310   7.364
 5887POPC   NC374363  39.273  17.527   5.564
 5887POPC   PO474364  39.264  17.549   5.864
 5887POPC   GL174365  39.208  17.536   6.164
 5887POPC   GL274366  39.395  17.501   6.164
 5887POPC   C1A74367  39.279  17.481   6.464
 5887POPC   D2A74368  39.195  17.531   6.764
 5887POPC   C3A74369  39.231  17.461   7.064
 5887POPC   C4A74370  39.240  17.545   7.364
 5887POPC   C1B74371  39.485  17.393   6.464
 5887POPC   C2B74372  39.478  17.376   6.764
 5887POPC   C3B74373  39.482  17.451   7.064
 5887POPC   C4B74374  39.424  17.462   7.364
 5888POPC   NC374375  21.435  26.056   5.564
 5888POPC   PO474376  21.363  26.040   5.864
 5888POPC   GL174377  21.399  26.026   6.164
 5888POPC   GL274378  21.545  25.981   6.164
 5888POPC   C1A74379  21.366  26.039   6.464
 5888POPC   D2A74380  21.380  26.049   6.764
 5888POPC   C3A74381  21.424  26.043   7.064
 5888POPC   C4A74382  21.387  26.018   7.364
 5888POPC   C1B74383  21.603  25.948   6.464
 5888POPC   C2B74384  21.652  25.993   6.764
 5888POPC   C3B74385  21.618  25.951   7.064
 5888POPC   C4B74386  21.620  25.963   7.364
 5889POPC   NC374387  40.746  39.213   5.564
 5889POPC   PO474388  40.791  39.245   5.864
 5889POPC   GL174389  40.772  39.182   6.164
 5889POPC   GL274390  40.796  39.131   6.164
 5889POPC   C1A74391  40.778  39.234   6.464
 5889POPC   D2A74392  40.827  39.201   6.764
 5889POPC   C3A74393  40.794  39.256   7.064
 5889POPC   C4A74394  40.810  39.206   7.364
 5889POPC   C1B74395  40.884  39.009   6.464
 5889POPC   C2B74396  40.812  38.968   6.764
 5889POPC   C3B74397  40.862  39.021   7.064
 5889POPC   C4B74398  40.807  38.952   7.364
 5890POPC   NC374399  35.307  21.368   5.564
 5890POPC   PO474400  35.304  21.427   5.864
 5890POPC   GL174401  35.327  21.340   6.164
 5890POPC   GL274402  35.363  21.495   6.164
 5890POPC   C1A74403  35.311  21.398   6.464
 5890POPC   D2A74404  35.377  21.400   6.764
 5890POPC   C3A74405  35.327  21.396   7.064
 5890POPC   C4A74406  35.400  21.397   7.364
 5890POPC   C1B74407  35.335  21.668   6.464
 5890POPC   C2B74408  35.392  21.590   6.764
 5890POPC   C3B74409  35.354  21.675   7.064
 5890POPC   C4B74410  35.370  21.685   7.364
 5891POPC   NC374411  26.040  37.712   5.564
 5891POPC   PO474412  26.004  37.663   5.864
 5891POPC   GL174413  26.086  37.726   6.164
 5891POPC   GL274414  26.023  37.845   6.164
 5891POPC   C1A74415  26.022  37.681   6.464
 5891POPC   D2A74416  26.064  37.726   6.764
 5891POPC   C3A74417  26.023  37.675   7.064
 5891POPC   C4A74418  26.057  37.661   7.364
 5891POPC   C1B74419  26.004  37.920   6.464
 5891POPC   C2B74420  25.983  37.925   6.764
 5891POPC   C3B74421  25.935  37.892   7.064
 5891POPC   C4B74422  25.948  37.896   7.364
 5892POPC   NC374423  30.690  43.861   5.564
 5892POPC   PO474424  30.687  43.917   5.864
 5892POPC   GL174425  30.729  43.936   6.164
 5892POPC   GL274426  30.802  43.828   6.164
 5892POPC   C1A74427  30.739  43.895   6.464
 5892POPC   D2A74428  30.709  43.864   6.764
 5892POPC   C3A74429  30.688  43.901   7.064
 5892POPC   C4A74430  30.653  43.856   7.364
 5892POPC   C1B74431  30.908  43.852   6.464
 5892POPC   C2B74432  30.958  43.841   6.764
 5892POPC   C3B74433  30.905  43.852   7.064
 5892POPC   C4B74434  30.918  43.820   7.364
 5893POPC   NC374435  10.519  41.589   5.564
 5893POPC   PO474436  10.572  41.605   5.864
 5893POPC   GL174437  10.555  41.557   6.164
 5893POPC   GL274438  10.556  41.470   6.164
 5893POPC   C1A74439  10.490  41.544   6.464
 5893POPC   D2A74440  10.485  41.577   6.764
 5893POPC   C3A74441  10.520  41.534   7.064
 5893POPC   C4A74442  10.539  41.584   7.364
 5893POPC   C1B74443  10.727  41.396   6.464
 5893POPC   C2B74444  10.695  41.358   6.764
 5893POPC   C3B74445  10.666  41.334   7.064
 5893POPC   C4B74446  10.715  41.339   7.364
 5894POPC   NC374447  15.932  26.838   5.564
 5894POPC   PO474448  15.995  26.801   5.864
 5894POPC   GL174449  15.973  26.829   6.164
 5894POPC   GL274450  15.946  26.699   6.164
 5894POPC   C1A74451  15.940  26.784   6.464
 5894POPC   D2A74452  15.992  26.777   6.764
 5894POPC   C3A74453  15.921  26.862   7.064
 5894POPC   C4A74454  15.983  26.794   7.364
 5894POPC   C1B74455  15.986  26.620   6.464
 5894POPC   C2B74456  16.058  26.595   6.764
 5894POPC   C3B74457  16.004  26.592   7.064
 5894POPC   C4B74458  16.072  26.558   7.364
 5895POPC   NC374459   4.349   9.778   5.564
 5895POPC   PO474460   4.359   9.714   5.864
 5895POPC   GL174461   4.357   9.754   6.164
 5895POPC   GL274462   4.230   9.732   6.164
 5895POPC   C1A74463   4.310   9.786   6.464
 5895POPC   D2A74464   4.317   9.790   6.764
 5895POPC   C3A74465   4.301   9.727   7.064
 5895POPC   C4A74466   4.270   9.748   7.364
 5895POPC   C1B74467   4.077   9.649   6.464
 5895POPC   C2B74468   4.085   9.600   6.764
 5895POPC   C3B74469   4.114   9.642   7.064
 5895POPC   C4B74470   4.068   9.658   7.364
 5896POPC   NC374471  33.816  21.411   5.564
 5896POPC   PO474472  33.837  21.366   5.864
 5896POPC   GL174473  33.845  21.392   6.164
 5896POPC   GL274474  33.882  21.294   6.164
 5896POPC   C1A74475  33.824  21.424   6.464
 5896POPC   D2A74476  33.815  21.412   6.764
 5896POPC   C3A74477  33.842  21.385   7.064
 5896POPC   C4A74478  33.758  21.361   7.364
 5896POPC   C1B74479  33.971  21.258   6.464
 5896POPC   C2B74480  34.039  21.207   6.764
 5896POPC   C3B74481  34.039  21.231   7.064
 5896POPC   C4B74482  34.043  21.211   7.364
 5897POPC   NC374483  27.622  37.671   5.564
 5897POPC   PO474484  27.599  37.697   5.864
 5897POPC   GL174485  27.595  37.646   6.164
 5897POPC   GL274486  27.448  37.627   6.164
 5897POPC   C1A74487  27.638  37.701   6.464
 5897POPC   D2A74488  27.556  37.695   6.764
 5897POPC   C3A74489  27.618  37.679   7.064
 5897POPC   C4A74490  27.605  37.703   7.364
 5897POPC   C1B74491  27.389  37.563   6.464
 5897POPC   C2B74492  27.366  37.553   6.764
 5897POPC   C3B74493  27.338  37.569   7.064
 5897POPC   C4B74494  27.348  37.562   7.364
 5898POPC   NC374495  43.902  32.256   5.564
 5898POPC   PO474496  43.928  32.260   5.864
 5898POPC   GL174497  43.864  32.200   6.164
 5898POPC   GL274498  43.944  32.396   6.164
 5898POPC   C1A74499  43.870  32.214   6.464
 5898POPC   D2A74500  43.889  32.249   6.764
 5898POPC   C3A74501  43.869  32.285   7.064
 5898POPC   C4A74502  43.934  32.290   7.364
 5898POPC   C1B74503  43.920  32.498   6.464
 5898POPC   C2B74504  43.913  32.479   6.764
 5898POPC   C3B74505  43.990  32.500   7.064
 5898POPC   C4B74506  43.969  32.537   7.364
 5899POPC   NC374507  17.486  25.231   5.564
 5899POPC   PO474508  17.514  25.236   5.864
 5899POPC   GL174509  17.470  25.266   6.164
 5899POPC   GL274510  17.503  25.367   6.164
 5899POPC   C1A74511  17.509  25.257   6.464
 5899POPC   D2A74512  17.461  25.268   6.764
 5899POPC   C3A74513  17.555  25.286   7.064
 5899POPC   C4A74514  17.538  25.313   7.364
 5899POPC   C1B74515  17.416  25.468   6.464
 5899POPC   C2B74516  17.437  25.513   6.764
 5899POPC   C3B74517  17.391  25.527   7.064
 5899POPC   C4B74518  17.400  25.500   7.364
 5900POPC   NC374519  10.506   9.012   5.564
 5900POPC   PO474520  10.553   9.000   5.864
 5900POPC   GL174521  10.569   9.021   6.164
 5900POPC   GL274522  10.540   8.814   6.164
 5900POPC   C1A74523  10.491   8.995   6.464
 5900POPC   D2A74524  10.533   8.960   6.764
 5900POPC   C3A74525  10.561   8.982   7.064
 5900POPC   C4A74526  10.524   8.977   7.364
 5900POPC   C1B74527  10.531   8.760   6.464
 5900POPC   C2B74528  10.532   8.732   6.764
 5900POPC   C3B74529  10.537   8.753   7.064
 5900POPC   C4B74530  10.487   8.762   7.364
 5901POPC   NC374531   4.343   4.291   5.564
 5901POPC   PO474532   4.274   4.319   5.864
 5901POPC   GL174533   4.353   4.308   6.164
 5901POPC   GL274534   4.438   4.375   6.164
 5901POPC   C1A74535   4.274   4.358   6.464
 5901POPC   D2A74536   4.312   4.290   6.764
 5901POPC   C3A74537   4.333   4.316   7.064
 5901POPC   C4A74538   4.318   4.284   7.364
 5901POPC   C1B74539   4.590   4.403   6.464
 5901POPC   C2B74540   4.564   4.437   6.764
 5901POPC   C3B74541   4.541   4.382   7.064
 5901POPC   C4B74542   4.560   4.366   7.364
 5902POPC   NC374543  15.137   8.982   5.564
 5902POPC   PO474544  15.198   8.934   5.864
 5902POPC   GL174545  15.212   8.979   6.164
 5902POPC   GL274546  15.006   8.987   6.164
 5902POPC   C1A74547  15.193   8.961   6.464
 5902POPC   D2A74548  15.186   9.004   6.764
 5902POPC   C3A74549  15.217   8.928   7.064
 5902POPC   C4A74550  15.205   8.992   7.364
 5902POPC   C1B74551  14.897   9.032   6.464
 5902POPC   C2B74552  14.955   9.062   6.764
 5902POPC   C3B74553  14.904   9.050   7.064
 5902POPC   C4B74554  14.965   9.026   7.364
 5903POPC   NC374555   9.718   3.548   5.564
 5903POPC   PO474556   9.772   3.517   5.864
 5903POPC   GL174557   9.777   3.511   6.164
 5903POPC   GL274558   9.745   3.384   6.164
 5903POPC   C1A74559   9.742   3.505   6.464
 5903POPC   D2A74560   9.783   3.494   6.764
 5903POPC   C3A74561   9.766   3.492   7.064
 5903POPC   C4A74562   9.747   3.576   7.364
 5903POPC   C1B74563   9.762   3.278   6.464
 5903POPC   C2B74564   9.743   3.315   6.764
 5903POPC   C3B74565   9.791   3.246   7.064
 5903POPC   C4B74566   9.743   3.312   7.364
 5904POPC   NC374567  14.404  23.762   5.564
 5904POPC   PO474568  14.405  23.689   5.864
 5904POPC   GL174569  14.439  23.704   6.164
 5904POPC   GL274570  14.386  23.835   6.164
 5904POPC   C1A74571  14.411  23.674   6.464
 5904POPC   D2A74572  14.449  23.696   6.764
 5904POPC   C3A74573  14.359  23.742   7.064
 5904POPC   C4A74574  14.375  23.667   7.364
 5904POPC   C1B74575  14.438  23.951   6.464
 5904POPC   C2B74576  14.421  23.944   6.764
 5904POPC   C3B74577  14.468  24.000   7.064
 5904POPC   C4B74578  14.415  23.914   7.364
 5905POPC   NC374579  29.878  43.877   5.564
 5905POPC   PO474580  29.875  43.913   5.864
 5905POPC   GL174581  29.929  43.874   6.164
 5905POPC   GL274582  29.835  43.856   6.164
 5905POPC   C1A74583  29.932  43.882   6.464
 5905POPC   D2A74584  29.898  43.886   6.764
 5905POPC   C3A74585  29.910  43.858   7.064
 5905POPC   C4A74586  29.923  43.877   7.364
 5905POPC   C1B74587  29.626  43.967   6.464
 5905POPC   C2B74588  29.661  43.898   6.764
 5905POPC   C3B74589  29.684  43.921   7.064
 5905POPC   C4B74590  29.686  43.956   7.364
 5906POPC   NC374591   5.891  23.673   5.564
 5906POPC   PO474592   5.902  23.672   5.864
 5906POPC   GL174593   5.911  23.759   6.164
 5906POPC   GL274594   5.921  23.874   6.164
 5906POPC   C1A74595   5.846  23.744   6.464
 5906POPC   D2A74596   5.903  23.733   6.764
 5906POPC   C3A74597   5.854  23.751   7.064
 5906POPC   C4A74598   5.835  23.721   7.364
 5906POPC   C1B74599   5.945  23.962   6.464
 5906POPC   C2B74600   5.941  23.947   6.764
 5906POPC   C3B74601   5.963  23.954   7.064
 5906POPC   C4B74602   5.929  23.917   7.364
 5907POPC   NC374603  27.614  19.831   5.564
 5907POPC   PO474604  27.552  19.839   5.864
 5907POPC   GL174605  27.560  19.864   6.164
 5907POPC   GL274606  27.494  19.796   6.164
 5907POPC   C1A74607  27.630  19.860   6.464
 5907POPC   D2A74608  27.570  19.869   6.764
 5907POPC   C3A74609  27.546  19.845   7.064
 5907POPC   C4A74610  27.615  19.803   7.364
 5907POPC   C1B74611  27.367  19.873   6.464
 5907POPC   C2B74612  27.356  19.778   6.764
 5907POPC   C3B74613  27.381  19.853   7.064
 5907POPC   C4B74614  27.318  19.802   7.364
 5908POPC   NC374615  17.529  24.512   5.564
 5908POPC   PO474616  17.478  24.511   5.864
 5908POPC   GL174617  17.482  24.531   6.164
 5908POPC   GL274618  17.604  24.501   6.164
 5908POPC   C1A74619  17.529  24.518   6.464
 5908POPC   D2A74620  17.514  24.463   6.764
 5908POPC   C3A74621  17.484  24.475   7.064
 5908POPC   C4A74622  17.496  24.442   7.364
 5908POPC   C1B74623  17.741  24.381   6.464
 5908POPC   C2B74624  17.784  24.390   6.764
 5908POPC   C3B74625  17.748  24.436   7.064
 5908POPC   C4B74626  17.774  24.420   7.364
 5909POPC   NC374627  14.433   2.815   5.564
 5909POPC   PO474628  14.366   2.794   5.864
 5909POPC   GL174629  14.367   2.747   6.164
 5909POPC   GL274630  14.280   2.710   6.164
 5909POPC   C1A74631  14.429   2.739   6.464
 5909POPC   D2A74632  14.441   2.762   6.764
 5909POPC   C3A74633  14.390   2.782   7.064
 5909POPC   C4A74634  14.354   2.784   7.364
 5909POPC   C1B74635  14.220   2.627   6.464
 5909POPC   C2B74636  14.157   2.639   6.764
 5909POPC   C3B74637  14.218   2.632   7.064
 5909POPC   C4B74638  14.232   2.639   7.364
 5910POPC   NC374639  15.944  34.533   5.564
 5910POPC   PO474640  15.954  34.591   5.864
 5910POPC   GL174641  15.951  34.547   6.164
 5910POPC   GL274642  16.115  34.632   6.164
 5910POPC   C1A74643  15.962  34.587   6.464
 5910POPC   D2A74644  15.907  34.623   6.764
 5910POPC   C3A74645  15.974  34.607   7.064
 5910POPC   C4A74646  16.000  34.535   7.364
 5910POPC   C1B74647  16.202  34.618   6.464
 5910POPC   C2B74648  16.172  34.655   6.764
 5910POPC   C3B74649  16.164  34.643   7.064
 5910POPC   C4B74650  16.230  34.605   7.364
 5911POPC   NC374651  14.382  36.159   5.564
 5911POPC   PO474652  14.443  36.109   5.864
 5911POPC   GL174653  14.387  36.092   6.164
 5911POPC   GL274654  14.434  36.006   6.164
 5911POPC   C1A74655  14.451  36.177   6.464
 5911POPC   D2A74656  14.434  36.162   6.764
 5911POPC   C3A74657  14.383  36.095   7.064
 5911POPC   C4A74658  14.409  36.086   7.364
 5911POPC   C1B74659  14.411  35.897   6.464
 5911POPC   C2B74660  14.423  35.832   6.764
 5911POPC   C3B74661  14.413  35.897   7.064
 5911POPC   C4B74662  14.342  35.906   7.364
 5912POPC   NC374663   9.732   1.999   5.564
 5912POPC   PO474664   9.752   1.974   5.864
 5912POPC   GL174665   9.763   2.002   6.164
 5912POPC   GL274666   9.876   1.909   6.164
 5912POPC   C1A74667   9.751   1.965   6.464
 5912POPC   D2A74668   9.766   1.971   6.764
 5912POPC   C3A74669   9.719   1.998   7.064
 5912POPC   C4A74670   9.734   1.956   7.364
 5912POPC   C1B74671   9.982   1.866   6.464
 5912POPC   C2B74672   9.950   1.793   6.764
 5912POPC   C3B74673   9.981   1.832   7.064
 5912POPC   C4B74674   9.969   1.831   7.364
 5913POPC   NC374675   5.839  26.025   5.564
 5913POPC   PO474676   5.874  26.067   5.864
 5913POPC   GL174677   5.835  25.994   6.164
 5913POPC   GL274678   5.920  25.912   6.164
 5913POPC   C1A74679   5.840  26.078   6.464
 5913POPC   D2A74680   5.827  26.004   6.764
 5913POPC   C3A74681   5.902  26.024   7.064
 5913POPC   C4A74682   5.879  26.038   7.364
 5913POPC   C1B74683   5.976  25.800   6.464
 5913POPC   C2B74684   5.944  25.827   6.764
 5913POPC   C3B74685   5.909  25.836   7.064
 5913POPC   C4B74686   5.942  25.773   7.364
 5914POPC   NC374687  20.658   1.236   5.564
 5914POPC   PO474688  20.573   1.216   5.864
 5914POPC   GL174689  20.561   1.236   6.164
 5914POPC   GL274690  20.713   1.282   6.164
 5914POPC   C1A74691  20.659   1.179   6.464
 5914POPC   D2A74692  20.603   1.256   6.764
 5914POPC   C3A74693  20.603   1.237   7.064
 5914POPC   C4A74694  20.643   1.203   7.364
 5914POPC   C1B74695  20.753   1.455   6.464
 5914POPC   C2B74696  20.709   1.384   6.764
 5914POPC   C3B74697  20.799   1.462   7.064
 5914POPC   C4B74698  20.745   1.442   7.364
 5915POPC   NC374699  29.178  11.315   5.564
 5915POPC   PO474700  29.180  11.258   5.864
 5915POPC   GL174701  29.170  11.308   6.164
 5915POPC   GL274702  29.270  11.338   6.164
 5915POPC   C1A74703  29.116  11.315   6.464
 5915POPC   D2A74704  29.142  11.326   6.764
 5915POPC   C3A74705  29.151  11.319   7.064
 5915POPC   C4A74706  29.108  11.322   7.364
 5915POPC   C1B74707  29.431  11.256   6.464
 5915POPC   C2B74708  29.363  11.293   6.764
 5915POPC   C3B74709  29.381  11.319   7.064
 5915POPC   C4B74710  29.440  11.248   7.364
 5916POPC   NC374711   6.674   0.470   5.564
 5916POPC   PO474712   6.689   0.396   5.864
 5916POPC   GL174713   6.601   0.437   6.164
 5916POPC   GL274714   6.616   0.595   6.164
 5916POPC   C1A74715   6.608   0.466   6.464
 5916POPC   D2A74716   6.686   0.420   6.764
 5916POPC   C3A74717   6.629   0.487   7.064
 5916POPC   C4A74718   6.603   0.464   7.364
 5916POPC   C1B74719   6.707   0.694   6.464
 5916POPC   C2B74720   6.621   0.670   6.764
 5916POPC   C3B74721   6.702   0.688   7.064
 5916POPC   C4B74722   6.706   0.674   7.364
 5917POPC   NC374723  22.119  22.939   5.564
 5917POPC   PO474724  22.201  22.944   5.864
 5917POPC   GL174725  22.206  22.894   6.164
 5917POPC   GL274726  22.080  22.834   6.164
 5917POPC   C1A74727  22.118  22.900   6.464
 5917POPC   D2A74728  22.134  22.988   6.764
 5917POPC   C3A74729  22.141  22.924   7.064
 5917POPC   C4A74730  22.186  22.959   7.364
 5917POPC   C1B74731  21.993  22.764   6.464
 5917POPC   C2B74732  21.926  22.799   6.764
 5917POPC   C3B74733  22.006  22.793   7.064
 5917POPC   C4B74734  21.927  22.815   7.364
 5918POPC   NC374735   8.188  20.562   5.564
 5918POPC   PO474736   8.242  20.610   5.864
 5918POPC   GL174737   8.181  20.585   6.164
 5918POPC   GL274738   8.193  20.475   6.164
 5918POPC   C1A74739   8.224  20.619   6.464
 5918POPC   D2A74740   8.202  20.628   6.764
 5918POPC   C3A74741   8.221  20.607   7.064
 5918POPC   C4A74742   8.185  20.591   7.364
 5918POPC   C1B74743   8.266  20.399   6.464
 5918POPC   C2B74744   8.202  20.380   6.764
 5918POPC   C3B74745   8.247  20.367   7.064
 5918POPC   C4B74746   8.218  20.398   7.364
 5919POPC   NC374747  43.075   7.443   5.564
 5919POPC   PO474748  43.117   7.393   5.864
 5919POPC   GL174749  43.128   7.458   6.164
 5919POPC   GL274750  43.115   7.495   6.164
 5919POPC   C1A74751  43.154   7.440   6.464
 5919POPC   D2A74752  43.080   7.410   6.764
 5919POPC   C3A74753  43.069   7.417   7.064
 5919POPC   C4A74754  43.078   7.441   7.364
 5919POPC   C1B74755  43.025   7.689   6.464
 5919POPC   C2B74756  43.045   7.674   6.764
 5919POPC   C3B74757  43.097   7.671   7.064
 5919POPC   C4B74758  43.068   7.619   7.364
 5920POPC   NC374759  20.630  25.992   5.564
 5920POPC   PO474760  20.642  26.059   5.864
 5920POPC   GL174761  20.642  26.042   6.164
 5920POPC   GL274762  20.464  26.014   6.164
 5920POPC   C1A74763  20.597  26.059   6.464
 5920POPC   D2A74764  20.629  26.065   6.764
 5920POPC   C3A74765  20.639  26.057   7.064
 5920POPC   C4A74766  20.603  26.023   7.364
 5920POPC   C1B74767  20.355  26.051   6.464
 5920POPC   C2B74768  20.339  26.077   6.764
 5920POPC   C3B74769  20.360  26.028   7.064
 5920POPC   C4B74770  20.400  26.018   7.364
 5921POPC   NC374771  32.270  40.742   5.564
 5921POPC   PO474772  32.227  40.756   5.864
 5921POPC   GL174773  32.231  40.766   6.164
 5921POPC   GL274774  32.347  40.698   6.164
 5921POPC   C1A74775  32.264  40.827   6.464
 5921POPC   D2A74776  32.221  40.736   6.764
 5921POPC   C3A74777  32.285  40.753   7.064
 5921POPC   C4A74778  32.212  40.796   7.364
 5921POPC   C1B74779  32.372  40.589   6.464
 5921POPC   C2B74780  32.377  40.549   6.764
 5921POPC   C3B74781  32.423  40.589   7.064
 5921POPC   C4B74782  32.373  40.526   7.364
 5922POPC   NC374783  34.615  10.570   5.564
 5922POPC   PO474784  34.588  10.485   5.864
 5922POPC   GL174785  34.612  10.514   6.164
 5922POPC   GL274786  34.599  10.434   6.164
 5922POPC   C1A74787  34.581  10.476   6.464
 5922POPC   D2A74788  34.599  10.550   6.764
 5922POPC   C3A74789  34.537  10.566   7.064
 5922POPC   C4A74790  34.615  10.487   7.364
 5922POPC   C1B74791  34.670  10.272   6.464
 5922POPC   C2B74792  34.742  10.301   6.764
 5922POPC   C3B74793  34.699  10.328   7.064
 5922POPC   C4B74794  34.651  10.313   7.364
 5923POPC   NC374795   9.767  39.213   5.564
 5923POPC   PO474796   9.738  39.267   5.864
 5923POPC   GL174797   9.747  39.274   6.164
 5923POPC   GL274798   9.819  39.333   6.164
 5923POPC   C1A74799   9.717  39.268   6.464
 5923POPC   D2A74800   9.742  39.186   6.764
 5923POPC   C3A74801   9.752  39.261   7.064
 5923POPC   C4A74802   9.753  39.237   7.364
 5923POPC   C1B74803   9.840  39.436   6.464
 5923POPC   C2B74804   9.874  39.446   6.764
 5923POPC   C3B74805   9.905  39.434   7.064
 5923POPC   C4B74806   9.860  39.472   7.364
 5924POPC   NC374807  12.117  15.145   5.564
 5924POPC   PO474808  12.053  15.189   5.864
 5924POPC   GL174809  12.084  15.158   6.164
 5924POPC   GL274810  12.137  15.240   6.164
 5924POPC   C1A74811  12.068  15.204   6.464
 5924POPC   D2A74812  12.078  15.183   6.764
 5924POPC   C3A74813  12.036  15.216   7.064
 5924POPC   C4A74814  12.087  15.177   7.364
 5924POPC   C1B74815  12.179  15.368   6.464
 5924POPC   C2B74816  12.212  15.436   6.764
 5924POPC   C3B74817  12.203  15.394   7.064
 5924POPC   C4B74818  12.245  15.366   7.364
 5925POPC   NC374819   0.442  31.489   5.564
 5925POPC   PO474820   0.388  31.449   5.864
 5925POPC   GL174821   0.433  31.505   6.164
 5925POPC   GL274822   0.492  31.632   6.164
 5925POPC   C1A74823   0.405  31.514   6.464
 5925POPC   D2A74824   0.474  31.455   6.764
 5925POPC   C3A74825   0.454  31.432   7.064
 5925POPC   C4A74826   0.399  31.519   7.364
 5925POPC   C1B74827   0.477  31.769   6.464
 5925POPC   C2B74828   0.480  31.771   6.764
 5925POPC   C3B74829   0.439  31.771   7.064
 5925POPC   C4B74830   0.420  31.693   7.364
 5926POPC   NC374831  10.505  43.111   5.564
 5926POPC   PO474832  10.525  43.098   5.864
 5926POPC   GL174833  10.541  43.103   6.164
 5926POPC   GL274834  10.469  43.173   6.164
 5926POPC   C1A74835  10.537  43.086   6.464
 5926POPC   D2A74836  10.507  43.074   6.764
 5926POPC   C3A74837  10.526  43.079   7.064
 5926POPC   C4A74838  10.546  43.091   7.364
 5926POPC   C1B74839  10.427  43.340   6.464
 5926POPC   C2B74840  10.385  43.308   6.764
 5926POPC   C3B74841  10.424  43.294   7.064
 5926POPC   C4B74842  10.424  43.315   7.364
 5927POPC   NC374843  21.351  23.687   5.564
 5927POPC   PO474844  21.359  23.687   5.864
 5927POPC   GL174845  21.346  23.746   6.164
 5927POPC   GL274846  21.424  23.815   6.164
 5927POPC   C1A74847  21.398  23.712   6.464
 5927POPC   D2A74848  21.352  23.689   6.764
 5927POPC   C3A74849  21.373  23.698   7.064
 5927POPC   C4A74850  21.368  23.761   7.364
 5927POPC   C1B74851  21.539  23.882   6.464
 5927POPC   C2B74852  21.546  23.890   6.764
 5927POPC   C3B74853  21.541  23.962   7.064
 5927POPC   C4B74854  21.578  23.911   7.364
 5928POPC   NC374855  33.052  19.059   5.564
 5928POPC   PO474856  32.996  19.023   5.864
 5928POPC   GL174857  32.977  19.099   6.164
 5928POPC   GL274858  32.855  19.012   6.164
 5928POPC   C1A74859  33.025  19.048   6.464
 5928POPC   D2A74860  33.005  19.095   6.764
 5928POPC   C3A74861  32.981  19.019   7.064
 5928POPC   C4A74862  33.017  19.032   7.364
 5928POPC   C1B74863  32.735  19.005   6.464
 5928POPC   C2B74864  32.772  19.057   6.764
 5928POPC   C3B74865  32.784  19.031   7.064
 5928POPC   C4B74866  32.748  19.042   7.364
 5929POPC   NC374867  43.107  17.508   5.564
 5929POPC   PO474868  43.136  17.486   5.864
 5929POPC   GL174869  43.077  17.541   6.164
 5929POPC   GL274870  43.180  17.529   6.164
 5929POPC   C1A74871  43.116  17.532   6.464
 5929POPC   D2A74872  43.065  17.480   6.764
 5929POPC   C3A74873  43.099  17.466   7.064
 5929POPC   C4A74874  43.093  17.543   7.364
 5929POPC   C1B74875  43.362  17.580   6.464
 5929POPC   C2B74876  43.385  17.552   6.764
 5929POPC   C3B74877  43.305  17.622   7.064
 5929POPC   C4B74878  43.390  17.646   7.364
 5930POPC   NC374879  40.786  31.516   5.564
 5930POPC   PO474880  40.818  31.496   5.864
 5930POPC   GL174881  40.821  31.510   6.164
 5930POPC   GL274882  40.763  31.623   6.164
 5930POPC   C1A74883  40.758  31.438   6.464
 5930POPC   D2A74884  40.778  31.493   6.764
 5930POPC   C3A74885  40.756  31.498   7.064
 5930POPC   C4A74886  40.740  31.463   7.364
 5930POPC   C1B74887  40.671  31.699   6.464
 5930POPC   C2B74888  40.695  31.708   6.764
 5930POPC   C3B74889  40.682  31.738   7.064
 5930POPC   C4B74890  40.750  31.696   7.364
 5931POPC   NC374891  29.913  33.063   5.564
 5931POPC   PO474892  29.922  33.000   5.864
 5931POPC   GL174893  29.899  32.975   6.164
 5931POPC   GL274894  29.948  32.933   6.164
 5931POPC   C1A74895  29.953  33.044   6.464
 5931POPC   D2A74896  29.919  33.039   6.764
 5931POPC   C3A74897  29.883  33.068   7.064
 5931POPC   C4A74898  29.935  32.997   7.364
 5931POPC   C1B74899  30.020  32.758   6.464
 5931POPC   C2B74900  30.025  32.767   6.764
 5931POPC   C3B74901  29.997  32.799   7.064
 5931POPC   C4B74902  30.026  32.750   7.364
 5932POPC   NC374903  14.377   8.940   5.564
 5932POPC   PO474904  14.358   8.936   5.864
 5932POPC   GL174905  14.422   8.931   6.164
 5932POPC   GL274906  14.441   8.864   6.164
 5932POPC   C1A74907  14.368   8.968   6.464
 5932POPC   D2A74908  14.390   8.976   6.764
 5932POPC   C3A74909  14.401   9.000   7.064
 5932POPC   C4A74910  14.407   8.993   7.364
 5932POPC   C1B74911  14.491   8.783   6.464
 5932POPC   C2B74912  14.515   8.722   6.764
 5932POPC   C3B74913  14.557   8.727   7.064
 5932POPC   C4B74914  14.497   8.777   7.364
 5933POPC   NC374915   2.751   1.177   5.564
 5933POPC   PO474916   2.752   1.165   5.864
 5933POPC   GL174917   2.780   1.236   6.164
 5933POPC   GL274918   2.684   1.185   6.164
 5933POPC   C1A74919   2.797   1.254   6.464
 5933POPC   D2A74920   2.812   1.256   6.764
 5933POPC   C3A74921   2.764   1.236   7.064
 5933POPC   C4A74922   2.742   1.205   7.364
 5933POPC   C1B74923   2.515   1.179   6.464
 5933POPC   C2B74924   2.561   1.200   6.764
 5933POPC   C3B74925   2.565   1.206   7.064
 5933POPC   C4B74926   2.558   1.188   7.364
 5934POPC   NC374927  19.809   6.672   5.564
 5934POPC   PO474928  19.828   6.682   5.864
 5934POPC   GL174929  19.851   6.675   6.164
 5934POPC   GL274930  19.685   6.532   6.164
 5934POPC   C1A74931  19.845   6.688   6.464
 5934POPC   D2A74932  19.863   6.663   6.764
 5934POPC   C3A74933  19.817   6.604   7.064
 5934POPC   C4A74934  19.814   6.663   7.364
 5934POPC   C1B74935  19.590   6.472   6.464
 5934POPC   C2B74936  19.612   6.539   6.764
 5934POPC   C3B74937  19.633   6.487   7.064
 5934POPC   C4B74938  19.575   6.491   7.364
 5935POPC   NC374939  15.931  40.738   5.564
 5935POPC   PO474940  15.913  40.749   5.864
 5935POPC   GL174941  15.909  40.789   6.164
 5935POPC   GL274942  15.809  40.790   6.164
 5935POPC   C1A74943  15.977  40.739   6.464
 5935POPC   D2A74944  15.999  40.761   6.764
 5935POPC   C3A74945  15.949  40.762   7.064
 5935POPC   C4A74946  15.997  40.807   7.364
 5935POPC   C1B74947  15.746  40.837   6.464
 5935POPC   C2B74948  15.698  40.786   6.764
 5935POPC   C3B74949  15.705  40.868   7.064
 5935POPC   C4B74950  15.752  40.801   7.364
 5936POPC   NC374951  14.416   4.333   5.564
 5936POPC   PO474952  14.418   4.330   5.864
 5936POPC   GL174953  14.433   4.346   6.164
 5936POPC   GL274954  14.502   4.256   6.164
 5936POPC   C1A74955  14.393   4.341   6.464
 5936POPC   D2A74956  14.385   4.296   6.764
 5936POPC   C3A74957  14.417   4.287   7.064
 5936POPC   C4A74958  14.365   4.334   7.364
 5936POPC   C1B74959  14.581   4.074   6.464
 5936POPC   C2B74960  14.554   4.102   6.764
 5936POPC   C3B74961  14.512   4.109   7.064
 5936POPC   C4B74962  14.526   4.090   7.364
 5937POPC   NC374963  41.554   1.170   5.564
 5937POPC   PO474964  41.597   1.182   5.864
 5937POPC   GL174965  41.575   1.208   6.164
 5937POPC   GL274966  41.658   1.215   6.164
 5937POPC   C1A74967  41.563   1.221   6.464
 5937POPC   D2A74968  41.535   1.232   6.764
 5937POPC   C3A74969  41.592   1.180   7.064
 5937POPC   C4A74970  41.552   1.203   7.364
 5937POPC   C1B74971  41.831   1.154   6.464
 5937POPC   C2B74972  41.767   1.145   6.764
 5937POPC   C3B74973  41.794   1.132   7.064
 5937POPC   C4B74974  41.834   1.178   7.364
 5938POPC   NC374975  33.753   0.457   5.564
 5938POPC   PO474976  33.824   0.483   5.864
 5938POPC   GL174977  33.838   0.440   6.164
 5938POPC   GL274978  33.663   0.451   6.164
 5938POPC   C1A74979  33.810   0.481   6.464
 5938POPC   D2A74980  33.794   0.411   6.764
 5938POPC   C3A74981  33.764   0.480   7.064
 5938POPC   C4A74982  33.847   0.409   7.364
 5938POPC   C1B74983  33.567   0.534   6.464
 5938POPC   C2B74984  33.578   0.603   6.764
 5938POPC   C3B74985  33.559   0.504   7.064
 5938POPC   C4B74986  33.563   0.583   7.364
 5939POPC   NC374987  35.399  10.517   5.564
 5939POPC   PO474988  35.389  10.554   5.864
 5939POPC   GL174989  35.310  10.510   6.164
 5939POPC   GL274990  35.237  10.532   6.164
 5939POPC   C1A74991  35.302  10.477   6.464
 5939POPC   D2A74992  35.382  10.507   6.764
 5939POPC   C3A74993  35.351  10.476   7.064
 5939POPC   C4A74994  35.351  10.481   7.364
 5939POPC   C1B74995  35.151  10.570   6.464
 5939POPC   C2B74996  35.064  10.525   6.764
 5939POPC   C3B74997  35.150  10.545   7.064
 5939POPC   C4B74998  35.138  10.593   7.364
 5940POPC   NC374999  27.559  43.923   5.564
 5940POPC   PO475000  27.608  43.902   5.864
 5940POPC   GL175001  27.633  43.900   6.164
 5940POPC   GL275002  27.634  43.811   6.164
 5940POPC   C1A75003  27.571  43.901   6.464
 5940POPC   D2A75004  27.566  43.907   6.764
 5940POPC   C3A75005  27.635  43.862   7.064
 5940POPC   C4A75006  27.596  43.840   7.364
 5940POPC   C1B75007  27.631  43.644   6.464
 5940POPC   C2B75008  27.664  43.637   6.764
 5940POPC   C3B75009  27.655  43.679   7.064
 5940POPC   C4B75010  27.648  43.639   7.364
 5941POPC   NC375011  11.292   6.682   5.564
 5941POPC   PO475012  11.325   6.675   5.864
 5941POPC   GL175013  11.304   6.651   6.164
 5941POPC   GL275014  11.201   6.697   6.164
 5941POPC   C1A75015  11.252   6.664   6.464
 5941POPC   D2A75016  11.335   6.623   6.764
 5941POPC   C3A75017  11.287   6.692   7.064
 5941POPC   C4A75018  11.252   6.603   7.364
 5941POPC   C1B75019  11.107   6.812   6.464
 5941POPC   C2B75020  11.111   6.762   6.764
 5941POPC   C3B75021  11.116   6.779   7.064
 5941POPC   C4B75022  11.048   6.757   7.364
 5942POPC   NC375023  13.598  24.501   5.564
 5942POPC   PO475024  13.627  24.465   5.864
 5942POPC   GL175025  13.662  24.445   6.164
 5942POPC   GL275026  13.640  24.375   6.164
 5942POPC   C1A75027  13.611  24.476   6.464
 5942POPC   D2A75028  13.578  24.527   6.764
 5942POPC   C3A75029  13.650  24.522   7.064
 5942POPC   C4A75030  13.633  24.479   7.364
 5942POPC   C1B75031  13.543  24.296   6.464
 5942POPC   C2B75032  13.581  24.278   6.764
 5942POPC   C3B75033  13.582  24.228   7.064
 5942POPC   C4B75034  13.569  24.253   7.364
 5943POPC   NC375035  24.515  25.260   5.564
 5943POPC   PO475036  24.497  25.312   5.864
 5943POPC   GL175037  24.506  25.298   6.164
 5943POPC   GL275038  24.399  25.397   6.164
 5943POPC   C1A75039  24.489  25.220   6.464
 5943POPC   D2A75040  24.461  25.272   6.764
 5943POPC   C3A75041  24.500  25.291   7.064
 5943POPC   C4A75042  24.524  25.257   7.364
 5943POPC   C1B75043  24.445  25.505   6.464
 5943POPC   C2B75044  24.366  25.541   6.764
 5943POPC   C3B75045  24.358  25.488   7.064
 5943POPC   C4B75046  24.424  25.514   7.364
 5944POPC   NC375047  11.266   7.440   5.564
 5944POPC   PO475048  11.322   7.400   5.864
 5944POPC   GL175049  11.283   7.373   6.164
 5944POPC   GL275050  11.187   7.530   6.164
 5944POPC   C1A75051  11.285   7.376   6.464
 5944POPC   D2A75052  11.310   7.387   6.764
 5944POPC   C3A75053  11.290   7.440   7.064
 5944POPC   C4A75054  11.305   7.385   7.364
 5944POPC   C1B75055  11.159   7.607   6.464
 5944POPC   C2B75056  11.179   7.576   6.764
 5944POPC   C3B75057  11.102   7.591   7.064
 5944POPC   C4B75058  11.149   7.584   7.364
 5945POPC   NC375059   7.465  17.467   5.564
 5945POPC   PO475060   7.437  17.498   5.864
 5945POPC   GL175061   7.435  17.458   6.164
 5945POPC   GL275062   7.544  17.500   6.164
 5945POPC   C1A75063   7.390  17.464   6.464
 5945POPC   D2A75064   7.420  17.543   6.764
 5945POPC   C3A75065   7.462  17.513   7.064
 5945POPC   C4A75066   7.390  17.515   7.364
 5945POPC   C1B75067   7.700  17.611   6.464
 5945POPC   C2B75068   7.668  17.604   6.764
 5945POPC   C3B75069   7.693  17.619   7.064
 5945POPC   C4B75070   7.664  17.587   7.364
 5946POPC   NC375071  40.016  31.437   5.564
 5946POPC   PO475072  40.053  31.437   5.864
 5946POPC   GL175073  39.991  31.514   6.164
 5946POPC   GL275074  40.017  31.343   6.164
 5946POPC   C1A75075  39.984  31.458   6.464
 5946POPC   D2A75076  40.027  31.459   6.764
 5946POPC   C3A75077  40.011  31.499   7.064
 5946POPC   C4A75078  39.993  31.504   7.364
 5946POPC   C1B75079  40.036  31.192   6.464
 5946POPC   C2B75080  39.969  31.203   6.764
 5946POPC   C3B75081  40.019  31.258   7.064
 5946POPC   C4B75082  40.025  31.259   7.364
 5947POPC   NC375083  16.709   6.610   5.564
 5947POPC   PO475084  16.732   6.647   5.864
 5947POPC   GL175085  16.759   6.596   6.164
 5947POPC   GL275086  16.769   6.523   6.164
 5947POPC   C1A75087  16.767   6.678   6.464
 5947POPC   D2A75088  16.705   6.682   6.764
 5947POPC   C3A75089  16.709   6.622   7.064
 5947POPC   C4A75090  16.753   6.674   7.364
 5947POPC   C1B75091  16.775   6.397   6.464
 5947POPC   C2B75092  16.765   6.415   6.764
 5947POPC   C3B75093  16.783   6.429   7.064
 5947POPC   C4B75094  16.756   6.368   7.364
 5948POPC   NC375095  15.142  42.379   5.564
 5948POPC   PO475096  15.173  42.378   5.864
 5948POPC   GL175097  15.167  42.315   6.164
 5948POPC   GL275098  15.080  42.323   6.164
 5948POPC   C1A75099  15.195  42.379   6.464
 5948POPC   D2A75100  15.221  42.364   6.764
 5948POPC   C3A75101  15.174  42.311   7.064
 5948POPC   C4A75102  15.154  42.373   7.364
 5948POPC   C1B75103  14.962  42.259   6.464
 5948POPC   C2B75104  14.970  42.277   6.764
 5948POPC   C3B75105  14.991  42.258   7.064
 5948POPC   C4B75106  14.990  42.226   7.364
 5949POPC   NC375107  21.409  15.141   5.564
 5949POPC   PO475108  21.362  15.211   5.864
 5949POPC   GL175109  21.399  15.203   6.164
 5949POPC   GL275110  21.322  15.091   6.164
 5949POPC   C1A75111  21.430  15.181   6.464
 5949POPC   D2A75112  21.371  15.229   6.764
 5949POPC   C3A75113  21.365  15.157   7.064
 5949POPC   C4A75114  21.436  15.182   7.364
 5949POPC   C1B75115  21.291  14.922   6.464
 5949POPC   C2B75116  21.293  14.948   6.764
 5949POPC   C3B75117  21.217  14.932   7.064
 5949POPC   C4B75118  21.268  14.942   7.364
 5950POPC   NC375119  14.373  18.312   5.564
 5950POPC   PO475120  14.427  18.245   5.864
 5950POPC   GL175121  14.371  18.250   6.164
 5950POPC   GL275122  14.453  18.151   6.164
 5950POPC   C1A75123  14.453  18.308   6.464
 5950POPC   D2A75124  14.377  18.246   6.764
 5950POPC   C3A75125  14.416  18.310   7.064
 5950POPC   C4A75126  14.375  18.319   7.364
 5950POPC   C1B75127  14.482  18.012   6.464
 5950POPC   C2B75128  14.434  18.063   6.764
 5950POPC   C3B75129  14.456  18.012   7.064
 5950POPC   C4B75130  14.470  18.013   7.364
 5951POPC   NC375131  22.172  35.386   5.564
 5951POPC   PO475132  22.142  35.353   5.864
 5951POPC   GL175133  22.118  35.383   6.164
 5951POPC   GL275134  22.172  35.525   6.164
 5951POPC   C1A75135  22.207  35.401   6.464
 5951POPC   D2A75136  22.126  35.328   6.764
 5951POPC   C3A75137  22.169  35.345   7.064
 5951POPC   C4A75138  22.123  35.349   7.364
 5951POPC   C1B75139  22.112  35.600   6.464
 5951POPC   C2B75140  22.128  35.624   6.764
 5951POPC   C3B75141  22.101  35.555   7.064
 5951POPC   C4B75142  22.093  35.650   7.364
 5952POPC   NC375143   1.223   6.659   5.564
 5952POPC   PO475144   1.172   6.613   5.864
 5952POPC   GL175145   1.202   6.619   6.164
 5952POPC   GL275146   1.362   6.593   6.164
 5952POPC   C1A75147   1.259   6.652   6.464
 5952POPC   D2A75148   1.184   6.683   6.764
 5952POPC   C3A75149   1.245   6.613   7.064
 5952POPC   C4A75150   1.247   6.691   7.364
 5952POPC   C1B75151   1.418   6.566   6.464
 5952POPC   C2B75152   1.415   6.625   6.764
 5952POPC   C3B75153   1.425   6.551   7.064
 5952POPC   C4B75154   1.425   6.535   7.364
 5953POPC   NC375155  42.314  15.964   5.564
 5953POPC   PO475156  42.343  15.949   5.864
 5953POPC   GL175157  42.314  15.944   6.164
 5953POPC   GL275158  42.297  15.883   6.164
 5953POPC   C1A75159  42.326  15.963   6.464
 5953POPC   D2A75160  42.350  15.961   6.764
 5953POPC   C3A75161  42.376  15.965   7.064
 5953POPC   C4A75162  42.333  15.968   7.364
 5953POPC   C1B75163  42.183  15.750   6.464
 5953POPC   C2B75164  42.220  15.695   6.764
 5953POPC   C3B75165  42.248  15.763   7.064
 5953POPC   C4B75166  42.188  15.716   7.364
 5954POPC   NC375167  43.875  35.382   5.564
 5954POPC   PO475168  43.853  35.330   5.864
 5954POPC   GL175169  43.934  35.306   6.164
 5954POPC   GL275170  43.960  35.503   6.164
 5954POPC   C1A75171  43.861  35.366   6.464
 5954POPC   D2A75172  43.904  35.381   6.764
 5954POPC   C3A75173  43.836  35.326   7.064
 5954POPC   C4A75174  43.897  35.365   7.364
 5954POPC   C1B75175  43.988  35.641   6.464
 5954POPC   C2B75176  43.939  35.616   6.764
 5954POPC   C3B75177  43.940  35.567   7.064
 5954POPC   C4B75178  43.923  35.585   7.364
 5955POPC   NC375179  15.944   5.861   5.564
 5955POPC   PO475180  15.945   5.893   5.864
 5955POPC   GL175181  15.913   5.875   6.164
 5955POPC   GL275182  16.122   5.919   6.164
 5955POPC   C1A75183  15.989   5.847   6.464
 5955POPC   D2A75184  15.974   5.820   6.764
 5955POPC   C3A75185  15.918   5.840   7.064
 5955POPC   C4A75186  15.921   5.848   7.364
 5955POPC   C1B75187  16.178   5.950   6.464
 5955POPC   C2B75188  16.154   5.906   6.764
 5955POPC   C3B75189  16.245   5.909   7.064
 5955POPC   C4B75190  16.191   5.858   7.364
 5956POPC   NC375191  32.241   2.734   5.564
 5956POPC   PO475192  32.246   2.732   5.864
 5956POPC   GL175193  32.266   2.722   6.164
 5956POPC   GL275194  32.306   2.694   6.164
 5956POPC   C1A75195  32.240   2.783   6.464
 5956POPC   D2A75196  32.217   2.764   6.764
 5956POPC   C3A75197  32.246   2.781   7.064
 5956POPC   C4A75198  32.264   2.728   7.364
 5956POPC   C1B75199  32.314   2.524   6.464
 5956POPC   C2B75200  32.317   2.522   6.764
 5956POPC   C3B75201  32.339   2.558   7.064
 5956POPC   C4B75202  32.400   2.553   7.364
 5957POPC   NC375203  29.912  38.471   5.564
 5957POPC   PO475204  29.926  38.463   5.864
 5957POPC   GL175205  29.948  38.485   6.164
 5957POPC   GL275206  30.001  38.466   6.164
 5957POPC   C1A75207  29.877  38.461   6.464
 5957POPC   D2A75208  29.873  38.437   6.764
 5957POPC   C3A75209  29.925  38.501   7.064
 5957POPC   C4A75210  29.953  38.407   7.364
 5957POPC   C1B75211  30.200  38.403   6.464
 5957POPC   C2B75212  30.134  38.363   6.764
 5957POPC   C3B75213  30.160  38.384   7.064
 5957POPC   C4B75214  30.184  38.434   7.364
 5958POPC   NC375215  22.965  25.295   5.564
 5958POPC   PO475216  22.914  25.254   5.864
 5958POPC   GL175217  22.916  25.243   6.164
 5958POPC   GL275218  22.854  25.173   6.164
 5958POPC   C1A75219  22.932  25.258   6.464
 5958POPC   D2A75220  22.979  25.264   6.764
 5958POPC   C3A75221  22.930  25.252   7.064
 5958POPC   C4A75222  22.891  25.277   7.364
 5958POPC   C1B75223  22.825  25.006   6.464
 5958POPC   C2B75224  22.837  24.993   6.764
 5958POPC   C3B75225  22.889  25.027   7.064
 5958POPC   C4B75226  22.826  25.001   7.364
 5959POPC   NC375227  36.907  31.465   5.564
 5959POPC   PO475228  36.951  31.515   5.864
 5959POPC   GL175229  36.879  31.521   6.164
 5959POPC   GL275230  36.865  31.613   6.164
 5959POPC   C1A75231  36.934  31.515   6.464
 5959POPC   D2A75232  36.887  31.475   6.764
 5959POPC   C3A75233  36.907  31.512   7.064
 5959POPC   C4A75234  36.872  31.481   7.364
 5959POPC   C1B75235  36.788  31.634   6.464
 5959POPC   C2B75236  36.744  31.693   6.764
 5959POPC   C3B75237  36.735  31.694   7.064
 5959POPC   C4B75238  36.696  31.643   7.364
 5960POPC   NC375239  13.590  36.104   5.564
 5960POPC   PO475240  13.595  36.142   5.864
 5960POPC   GL175241  13.579  36.156   6.164
 5960POPC   GL275242  13.529  36.018   6.164
 5960POPC   C1A75243  13.673  36.114   6.464
 5960POPC   D2A75244  13.620  36.137   6.764
 5960POPC   C3A75245  13.667  36.163   7.064
 5960POPC   C4A75246  13.579  36.126   7.364
 5960POPC   C1B75247  13.388  35.935   6.464
 5960POPC   C2B75248  13.478  35.968   6.764
 5960POPC   C3B75249  13.458  35.957   7.064
 5960POPC   C4B75250  13.432  35.958   7.364
 5961POPC   NC375251   5.095  44.695   5.564
 5961POPC   PO475252   5.084  44.694   5.864
 5961POPC   GL175253   5.110  44.648   6.164
 5961POPC   GL275254   5.014  44.761   6.164
 5961POPC   C1A75255   5.128  44.617   6.464
 5961POPC   D2A75256   5.079  44.659   6.764
 5961POPC   C3A75257   5.048  44.698   7.064
 5961POPC   C4A75258   5.138  44.651   7.364
 5961POPC   C1B75259   4.873  44.770   6.464
 5961POPC   C2B75260   4.864  44.783   6.764
 5961POPC   C3B75261   4.889  44.740   7.064
 5961POPC   C4B75262   4.902  44.767   7.364
 5962POPC   NC375263  13.661   8.168   5.564
 5962POPC   PO475264  13.588   8.184   5.864
 5962POPC   GL175265  13.623   8.210   6.164
 5962POPC   GL275266  13.613   8.293   6.164
 5962POPC   C1A75267  13.607   8.218   6.464
 5962POPC   D2A75268  13.598   8.195   6.764
 5962POPC   C3A75269  13.630   8.207   7.064
 5962POPC   C4A75270  13.651   8.166   7.364
 5962POPC   C1B75271  13.603   8.425   6.464
 5962POPC   C2B75272  13.548   8.477   6.764
 5962POPC   C3B75273  13.623   8.456   7.064
 5962POPC   C4B75274  13.553   8.408   7.364
 5963POPC   NC375275  38.495  12.826   5.564
 5963POPC   PO475276  38.504  12.822   5.864
 5963POPC   GL175277  38.411  12.814   6.164
 5963POPC   GL275278  38.492  12.781   6.164
 5963POPC   C1A75279  38.460  12.825   6.464
 5963POPC   D2A75280  38.499  12.825   6.764
 5963POPC   C3A75281  38.438  12.857   7.064
 5963POPC   C4A75282  38.475  12.854   7.364
 5963POPC   C1B75283  38.570  12.674   6.464
 5963POPC   C2B75284  38.547  12.652   6.764
 5963POPC   C3B75285  38.599  12.668   7.064
 5963POPC   C4B75286  38.572  12.604   7.364
 5964POPC   NC375287   8.159  27.602   5.564
 5964POPC   PO475288   8.201  27.610   5.864
 5964POPC   GL175289   8.199  27.605   6.164
 5964POPC   GL275290   8.209  27.669   6.164
 5964POPC   C1A75291   8.167  27.625   6.464
 5964POPC   D2A75292   8.237  27.558   6.764
 5964POPC   C3A75293   8.233  27.596   7.064
 5964POPC   C4A75294   8.177  27.561   7.364
 5964POPC   C1B75295   8.234  27.887   6.464
 5964POPC   C2B75296   8.178  27.793   6.764
 5964POPC   C3B75297   8.196  27.869   7.064
 5964POPC   C4B75298   8.224  27.809   7.364
 5965POPC   NC375299  22.163  25.309   5.564
 5965POPC   PO475300  22.200  25.306   5.864
 5965POPC   GL175301  22.171  25.303   6.164
 5965POPC   GL275302  22.279  25.223   6.164
 5965POPC   C1A75303  22.201  25.239   6.464
 5965POPC   D2A75304  22.131  25.231   6.764
 5965POPC   C3A75305  22.201  25.233   7.064
 5965POPC   C4A75306  22.194  25.263   7.364
 5965POPC   C1B75307  22.396  25.223   6.464
 5965POPC   C2B75308  22.386  25.245   6.764
 5965POPC   C3B75309  22.378  25.212   7.064
 5965POPC   C4B75310  22.387  25.204   7.364
 5966POPC   NC375311  24.520  34.625   5.564
 5966POPC   PO475312  24.524  34.552   5.864
 5966POPC   GL175313  24.443  34.529   6.164
 5966POPC   GL275314  24.380  34.651   6.164
 5966POPC   C1A75315  24.476  34.623   6.464
 5966POPC   D2A75316  24.531  34.583   6.764
 5966POPC   C3A75317  24.456  34.600   7.064
 5966POPC   C4A75318  24.526  34.540   7.364
 5966POPC   C1B75319  24.302  34.723   6.464
 5966POPC   C2B75320  24.307  34.727   6.764
 5966POPC   C3B75321  24.281  34.690   7.064
 5966POPC   C4B75322  24.281  34.677   7.364
 5967POPC   NC375323  33.820  41.565   5.564
 5967POPC   PO475324  33.785  41.545   5.864
 5967POPC   GL175325  33.798  41.584   6.164
 5967POPC   GL275326  33.733  41.483   6.164
 5967POPC   C1A75327  33.840  41.514   6.464
 5967POPC   D2A75328  33.794  41.571   6.764
 5967POPC   C3A75329  33.750  41.514   7.064
 5967POPC   C4A75330  33.794  41.534   7.364
 5967POPC   C1B75331  33.625  41.435   6.464
 5967POPC   C2B75332  33.568  41.399   6.764
 5967POPC   C3B75333  33.567  41.386   7.064
 5967POPC   C4B75334  33.594  41.404   7.364
 5968POPC   NC375335   7.462  11.281   5.564
 5968POPC   PO475336   7.373  11.289   5.864
 5968POPC   GL175337   7.440  11.339   6.164
 5968POPC   GL275338   7.462  11.391   6.164
 5968POPC   C1A75339   7.377  11.304   6.464
 5968POPC   D2A75340   7.401  11.309   6.764
 5968POPC   C3A75341   7.460  11.325   7.064
 5968POPC   C4A75342   7.429  11.313   7.364
 5968POPC   C1B75343   7.500  11.508   6.464
 5968POPC   C2B75344   7.572  11.485   6.764
 5968POPC   C3B75345   7.569  11.474   7.064
 5968POPC   C4B75346   7.526  11.558   7.364
 5969POPC   NC375347  21.358  25.268   5.564
 5969POPC   PO475348  21.414  25.253   5.864
 5969POPC   GL175349  21.356  25.302   6.164
 5969POPC   GL275350  21.405  25.347   6.164
 5969POPC   C1A75351  21.421  25.232   6.464
 5969POPC   D2A75352  21.350  25.303   6.764
 5969POPC   C3A75353  21.342  25.231   7.064
 5969POPC   C4A75354  21.346  25.232   7.364
 5969POPC   C1B75355  21.488  25.479   6.464
 5969POPC   C2B75356  21.434  25.542   6.764
 5969POPC   C3B75357  21.459  25.547   7.064
 5969POPC   C4B75358  21.460  25.461   7.364
 5970POPC   NC375359  33.850  18.277   5.564
 5970POPC   PO475360  33.800  18.288   5.864
 5970POPC   GL175361  33.796  18.283   6.164
 5970POPC   GL275362  33.830  18.157   6.164
 5970POPC   C1A75363  33.844  18.260   6.464
 5970POPC   D2A75364  33.782  18.322   6.764
 5970POPC   C3A75365  33.793  18.291   7.064
 5970POPC   C4A75366  33.779  18.269   7.364
 5970POPC   C1B75367  33.845  18.005   6.464
 5970POPC   C2B75368  33.891  17.999   6.764
 5970POPC   C3B75369  33.835  18.003   7.064
 5970POPC   C4B75370  33.818  18.055   7.364
 5971POPC   NC375371   5.137  43.887   5.564
 5971POPC   PO475372   5.138  43.905   5.864
 5971POPC   GL175373   5.059  43.850   6.164
 5971POPC   GL275374   5.208  43.830   6.164
 5971POPC   C1A75375   5.121  43.837   6.464
 5971POPC   D2A75376   5.115  43.901   6.764
 5971POPC   C3A75377   5.075  43.873   7.064
 5971POPC   C4A75378   5.062  43.865   7.364
 5971POPC   C1B75379   5.302  43.711   6.464
 5971POPC   C2B75380   5.335  43.695   6.764
 5971POPC   C3B75381   5.289  43.758   7.064
 5971POPC   C4B75382   5.319  43.777   7.364
 5972POPC   NC375383  14.410  26.010   5.564
 5972POPC   PO475384  14.388  26.061   5.864
 5972POPC   GL175385  14.447  26.053   6.164
 5972POPC   GL275386  14.483  26.157   6.164
 5972POPC   C1A75387  14.406  26.072   6.464
 5972POPC   D2A75388  14.392  26.009   6.764
 5972POPC   C3A75389  14.427  26.071   7.064
 5972POPC   C4A75390  14.423  26.062   7.364
 5972POPC   C1B75391  14.590  26.199   6.464
 5972POPC   C2B75392  14.558  26.277   6.764
 5972POPC   C3B75393  14.585  26.247   7.064
 5972POPC   C4B75394  14.512  26.243   7.364
 5973POPC   NC375395  29.915  39.230   5.564
 5973POPC   PO475396  29.896  39.212   5.864
 5973POPC   GL175397  29.929  39.263   6.164
 5973POPC   GL275398  30.052  39.229   6.164
 5973POPC   C1A75399  29.959  39.221   6.464
 5973POPC   D2A75400  29.930  39.218   6.764
 5973POPC   C3A75401  29.947  39.214   7.064
 5973POPC   C4A75402  29.907  39.274   7.364
 5973POPC   C1B75403  30.136  39.330   6.464
 5973POPC   C2B75404  30.165  39.345   6.764
 5973POPC   C3B75405  30.180  39.363   7.064
 5973POPC   C4B75406  30.119  39.331   7.364
 5974POPC   NC375407  40.793   8.990   5.564
 5974POPC   PO475408  40.831   8.936   5.864
 5974POPC   GL175409  40.759   9.020   6.164
 5974POPC   GL275410  40.770   8.898   6.164
 5974POPC   C1A75411  40.776   8.941   6.464
 5974POPC   D2A75412  40.810   8.971   6.764
 5974POPC   C3A75413  40.816   8.965   7.064
 5974POPC   C4A75414  40.817   9.017   7.364
 5974POPC   C1B75415  40.778   8.732   6.464
 5974POPC   C2B75416  40.803   8.732   6.764
 5974POPC   C3B75417  40.771   8.679   7.064
 5974POPC   C4B75418  40.830   8.771   7.364
 5975POPC   NC375419  22.977  37.676   5.564
 5975POPC   PO475420  22.894  37.630   5.864
 5975POPC   GL175421  22.908  37.689   6.164
 5975POPC   GL275422  22.844  37.562   6.164
 5975POPC   C1A75423  22.916  37.673   6.464
 5975POPC   D2A75424  22.917  37.667   6.764
 5975POPC   C3A75425  22.901  37.665   7.064
 5975POPC   C4A75426  22.915  37.698   7.364
 5975POPC   C1B75427  22.785  37.465   6.464
 5975POPC   C2B75428  22.810  37.502   6.764
 5975POPC   C3B75429  22.832  37.426   7.064
 5975POPC   C4B75430  22.830  37.491   7.364
 5976POPC   NC375431  35.330   4.341   5.564
 5976POPC   PO475432  35.357   4.319   5.864
 5976POPC   GL175433  35.329   4.339   6.164
 5976POPC   GL275434  35.367   4.411   6.164
 5976POPC   C1A75435  35.388   4.350   6.464
 5976POPC   D2A75436  35.393   4.327   6.764
 5976POPC   C3A75437  35.384   4.338   7.064
 5976POPC   C4A75438  35.357   4.357   7.364
 5976POPC   C1B75439  35.420   4.576   6.464
 5976POPC   C2B75440  35.439   4.508   6.764
 5976POPC   C3B75441  35.447   4.522   7.064
 5976POPC   C4B75442  35.428   4.585   7.364
 5977POPC   NC375443  36.157  14.391   5.564
 5977POPC   PO475444  36.089  14.435   5.864
 5977POPC   GL175445  36.157  14.372   6.164
 5977POPC   GL275446  36.158  14.352   6.164
 5977POPC   C1A75447  36.150  14.363   6.464
 5977POPC   D2A75448  36.100  14.402   6.764
 5977POPC   C3A75449  36.085  14.358   7.064
 5977POPC   C4A75450  36.122  14.418   7.364
 5977POPC   C1B75451  36.257  14.201   6.464
 5977POPC   C2B75452  36.311  14.196   6.764
 5977POPC   C3B75453  36.250  14.202   7.064
 5977POPC   C4B75454  36.295  14.218   7.364
 5978POPC   NC375455  25.285  28.417   5.564
 5978POPC   PO475456  25.243  28.370   5.864
 5978POPC   GL175457  25.264  28.361   6.164
 5978POPC   GL275458  25.293  28.529   6.164
 5978POPC   C1A75459  25.272  28.353   6.464
 5978POPC   D2A75460  25.278  28.358   6.764
 5978POPC   C3A75461  25.226  28.362   7.064
 5978POPC   C4A75462  25.247  28.344   7.364
 5978POPC   C1B75463  25.376  28.603   6.464
 5978POPC   C2B75464  25.384  28.642   6.764
 5978POPC   C3B75465  25.320  28.631   7.064
 5978POPC   C4B75466  25.351  28.554   7.364
 5979POPC   NC375467  20.614  34.606   5.564
 5979POPC   PO475468  20.576  34.575   5.864
 5979POPC   GL175469  20.660  34.616   6.164
 5979POPC   GL275470  20.659  34.646   6.164
 5979POPC   C1A75471  20.636  34.560   6.464
 5979POPC   D2A75472  20.645  34.607   6.764
 5979POPC   C3A75473  20.660  34.596   7.064
 5979POPC   C4A75474  20.582  34.590   7.364
 5979POPC   C1B75475  20.687  34.786   6.464
 5979POPC   C2B75476  20.715  34.817   6.764
 5979POPC   C3B75477  20.709  34.849   7.064
 5979POPC   C4B75478  20.651  34.823   7.364
 5980POPC   NC375479  43.086  25.260   5.564
 5980POPC   PO475480  43.119  25.306   5.864
 5980POPC   GL175481  43.086  25.252   6.164
 5980POPC   GL275482  43.207  25.358   6.164
 5980POPC   C1A75483  43.155  25.216   6.464
 5980POPC   D2A75484  43.091  25.266   6.764
 5980POPC   C3A75485  43.129  25.306   7.064
 5980POPC   C4A75486  43.089  25.265   7.364
 5980POPC   C1B75487  43.279  25.479   6.464
 5980POPC   C2B75488  43.237  25.489   6.764
 5980POPC   C3B75489  43.249  25.517   7.064
 5980POPC   C4B75490  43.237  25.472   7.364
 5981POPC   NC375491  19.034   5.045   5.564
 5981POPC   PO475492  19.071   5.096   5.864
 5981POPC   GL175493  19.098   5.054   6.164
 5981POPC   GL275494  19.010   5.009   6.164
 5981POPC   C1A75495  19.096   5.106   6.464
 5981POPC   D2A75496  19.031   5.122   6.764
 5981POPC   C3A75497  19.060   5.074   7.064
 5981POPC   C4A75498  19.070   5.113   7.364
 5981POPC   C1B75499  18.934   4.825   6.464
 5981POPC   C2B75500  19.009   4.844   6.764
 5981POPC   C3B75501  18.924   4.817   7.064
 5981POPC   C4B75502  18.960   4.872   7.364
 5982POPC   NC375503  24.479   2.745   5.564
 5982POPC   PO475504  24.515   2.776   5.864
 5982POPC   GL175505  24.476   2.776   6.164
 5982POPC   GL275506  24.597   2.769   6.164
 5982POPC   C1A75507  24.524   2.770   6.464
 5982POPC   D2A75508  24.472   2.765   6.764
 5982POPC   C3A75509  24.447   2.732   7.064
 5982POPC   C4A75510  24.501   2.738   7.364
 5982POPC   C1B75511  24.781   2.814   6.464
 5982POPC   C2B75512  24.739   2.769   6.764
 5982POPC   C3B75513  24.787   2.795   7.064
 5982POPC   C4B75514  24.765   2.771   7.364
 5983POPC   NC375515  19.824  14.452   5.564
 5983POPC   PO475516  19.828  14.366   5.864
 5983POPC   GL175517  19.827  14.425   6.164
 5983POPC   GL275518  19.775  14.348   6.164
 5983POPC   C1A75519  19.806  14.414   6.464
 5983POPC   D2A75520  19.810  14.373   6.764
 5983POPC   C3A75521  19.878  14.364   7.064
 5983POPC   C4A75522  19.874  14.419   7.364
 5983POPC   C1B75523  19.624  14.229   6.464
 5983POPC   C2B75524  19.676  14.249   6.764
 5983POPC   C3B75525  19.599  14.208   7.064
 5983POPC   C4B75526  19.599  14.241   7.364
 5984POPC   NC375527  34.624  29.917   5.564
 5984POPC   PO475528  34.561  29.884   5.864
 5984POPC   GL175529  34.541  29.964   6.164
 5984POPC   GL275530  34.538  29.794   6.164
 5984POPC   C1A75531  34.611  29.918   6.464
 5984POPC   D2A75532  34.623  29.969   6.764
 5984POPC   C3A75533  34.562  29.917   7.064
 5984POPC   C4A75534  34.559  29.917   7.364
 5984POPC   C1B75535  34.522  29.623   6.464
 5984POPC   C2B75536  34.583  29.629   6.764
 5984POPC   C3B75537  34.577  29.645   7.064
 5984POPC   C4B75538  34.567  29.718   7.364
 5985POPC   NC375539   4.361  38.424   5.564
 5985POPC   PO475540   4.291  38.443   5.864
 5985POPC   GL175541   4.338  38.422   6.164
 5985POPC   GL275542   4.281  38.320   6.164
 5985POPC   C1A75543   4.311  38.486   6.464
 5985POPC   D2A75544   4.359  38.465   6.764
 5985POPC   C3A75545   4.343  38.467   7.064
 5985POPC   C4A75546   4.291  38.425   7.364
 5985POPC   C1B75547   4.118  38.301   6.464
 5985POPC   C2B75548   4.147  38.238   6.764
 5985POPC   C3B75549   4.131  38.258   7.064
 5985POPC   C4B75550   4.120  38.258   7.364
 5986POPC   NC375551   2.737  26.077   5.564
 5986POPC   PO475552   2.786  26.004   5.864
 5986POPC   GL175553   2.785  26.075   6.164
 5986POPC   GL275554   2.878  26.003   6.164
 5986POPC   C1A75555   2.804  26.003   6.464
 5986POPC   D2A75556   2.785  26.023   6.764
 5986POPC   C3A75557   2.757  26.074   7.064
 5986POPC   C4A75558   2.719  26.078   7.364
 5986POPC   C1B75559   3.013  25.908   6.464
 5986POPC   C2B75560   3.003  25.924   6.764
 5986POPC   C3B75561   2.990  25.873   7.064
 5986POPC   C4B75562   2.937  25.858   7.364
 5987POPC   NC375563   8.217  15.916   5.564
 5987POPC   PO475564   8.216  15.955   5.864
 5987POPC   GL175565   8.194  15.944   6.164
 5987POPC   GL275566   8.175  16.030   6.164
 5987POPC   C1A75567   8.163  15.914   6.464
 5987POPC   D2A75568   8.201  15.942   6.764
 5987POPC   C3A75569   8.172  15.953   7.064
 5987POPC   C4A75570   8.213  15.933   7.364
 5987POPC   C1B75571   8.237  16.180   6.464
 5987POPC   C2B75572   8.187  16.223   6.764
 5987POPC   C3B75573   8.195  16.181   7.064
 5987POPC   C4B75574   8.179  16.196   7.364
 5988POPC   NC375575   8.173  31.516   5.564
 5988POPC   PO475576   8.217  31.428   5.864
 5988POPC   GL175577   8.153  31.515   6.164
 5988POPC   GL275578   8.186  31.322   6.164
 5988POPC   C1A75579   8.221  31.437   6.464
 5988POPC   D2A75580   8.234  31.497   6.764
 5988POPC   C3A75581   8.246  31.471   7.064
 5988POPC   C4A75582   8.208  31.448   7.364
 5988POPC   C1B75583   8.116  31.203   6.464
 5988POPC   C2B75584   8.067  31.261   6.764
 5988POPC   C3B75585   8.109  31.285   7.064
 5988POPC   C4B75586   8.049  31.234   7.364
 5989POPC   NC375587   8.938  29.191   5.564
 5989POPC   PO475588   8.975  29.127   5.864
 5989POPC   GL175589   9.017  29.176   6.164
 5989POPC   GL275590   8.891  29.106   6.164
 5989POPC   C1A75591   8.930  29.122   6.464
 5989POPC   D2A75592   9.004  29.170   6.764
 5989POPC   C3A75593   8.978  29.127   7.064
 5989POPC   C4A75594   8.998  29.098   7.364
 5989POPC   C1B75595   8.779  29.037   6.464
 5989POPC   C2B75596   8.723  29.043   6.764
 5989POPC   C3B75597   8.753  28.992   7.064
 5989POPC   C4B75598   8.782  28.988   7.364
 5990POPC   NC375599  33.796  17.529   5.564
 5990POPC   PO475600  33.761  17.497   5.864
 5990POPC   GL175601  33.769  17.495   6.164
 5990POPC   GL275602  33.916  17.569   6.164
 5990POPC   C1A75603  33.778  17.549   6.464
 5990POPC   D2A75604  33.818  17.552   6.764
 5990POPC   C3A75605  33.822  17.480   7.064
 5990POPC   C4A75606  33.820  17.530   7.364
 5990POPC   C1B75607  33.962  17.697   6.464
 5990POPC   C2B75608  33.916  17.658   6.764
 5990POPC   C3B75609  33.925  17.737   7.064
 5990POPC   C4B75610  33.935  17.727   7.364
 5991POPC   NC375611  40.768   5.074   5.564
 5991POPC   PO475612  40.775   5.128   5.864
 5991POPC   GL175613  40.742   5.116   6.164
 5991POPC   GL275614  40.910   5.022   6.164
 5991POPC   C1A75615  40.807   5.093   6.464
 5991POPC   D2A75616  40.799   5.120   6.764
 5991POPC   C3A75617  40.773   5.091   7.064
 5991POPC   C4A75618  40.828   5.076   7.364
 5991POPC   C1B75619  41.051   4.963   6.464
 5991POPC   C2B75620  40.975   5.031   6.764
 5991POPC   C3B75621  41.014   4.949   7.064
 5991POPC   C4B75622  40.990   4.969   7.364
 5992POPC   NC375623  43.914  25.273   5.564
 5992POPC   PO475624  43.846  25.263   5.864
 5992POPC   GL175625  43.887  25.278   6.164
 5992POPC   GL275626  43.780  25.161   6.164
 5992POPC   C1A75627  43.930  25.272   6.464
 5992POPC   D2A75628  43.911  25.262   6.764
 5992POPC   C3A75629  43.838  25.287   7.064
 5992POPC   C4A75630  43.845  25.309   7.364
 5992POPC   C1B75631  43.750  25.111   6.464
 5992POPC   C2B75632  43.702  25.064   6.764
 5992POPC   C3B75633  43.709  25.041   7.064
 5992POPC   C4B75634  43.709  25.089   7.364
 5993POPC   NC375635  24.514  26.776   5.564
 5993POPC   PO475636  24.523  26.796   5.864
 5993POPC   GL175637  24.538  26.771   6.164
 5993POPC   GL275638  24.536  26.958   6.164
 5993POPC   C1A75639  24.529  26.851   6.464
 5993POPC   D2A75640  24.505  26.770   6.764
 5993POPC   C3A75641  24.456  26.864   7.064
 5993POPC   C4A75642  24.531  26.783   7.364
 5993POPC   C1B75643  24.599  27.008   6.464
 5993POPC   C2B75644  24.581  27.105   6.764
 5993POPC   C3B75645  24.599  27.028   7.064
 5993POPC   C4B75646  24.580  27.012   7.364
 5994POPC   NC375647  30.724  11.272   5.564
 5994POPC   PO475648  30.740  11.318   5.864
 5994POPC   GL175649  30.649  11.284   6.164
 5994POPC   GL275650  30.598  11.391   6.164
 5994POPC   C1A75651  30.679  11.335   6.464
 5994POPC   D2A75652  30.732  11.276   6.764
 5994POPC   C3A75653  30.671  11.252   7.064
 5994POPC   C4A75654  30.720  11.336   7.364
 5994POPC   C1B75655  30.575  11.454   6.464
 5994POPC   C2B75656  30.508  11.493   6.764
 5994POPC   C3B75657  30.509  11.479   7.064
 5994POPC   C4B75658  30.522  11.458   7.364
 5995POPC   NC375659  18.307  31.452   5.564
 5995POPC   PO475660  18.248  31.476   5.864
 5995POPC   GL175661  18.276  31.443   6.164
 5995POPC   GL275662  18.413  31.448   6.164
 5995POPC   C1A75663  18.319  31.521   6.464
 5995POPC   D2A75664  18.299  31.484   6.764
 5995POPC   C3A75665  18.284  31.431   7.064
 5995POPC   C4A75666  18.255  31.514   7.364
 5995POPC   C1B75667  18.495  31.455   6.464
 5995POPC   C2B75668  18.517  31.387   6.764
 5995POPC   C3B75669  18.560  31.424   7.064
 5995POPC   C4B75670  18.528  31.398   7.364
 5996POPC   NC375671  39.188  19.834   5.564
 5996POPC   PO475672  39.230  19.839   5.864
 5996POPC   GL175673  39.240  19.852   6.164
 5996POPC   GL275674  39.129  19.737   6.164
 5996POPC   C1A75675  39.222  19.837   6.464
 5996POPC   D2A75676  39.201  19.852   6.764
 5996POPC   C3A75677  39.236  19.876   7.064
 5996POPC   C4A75678  39.212  19.864   7.364
 5996POPC   C1B75679  39.083  19.668   6.464
 5996POPC   C2B75680  39.083  19.677   6.764
 5996POPC   C3B75681  39.056  19.706   7.064
 5996POPC   C4B75682  39.052  19.621   7.364
 5997POPC   NC375683   3.568  39.191   5.564
 5997POPC   PO475684   3.494  39.214   5.864
 5997POPC   GL175685   3.542  39.261   6.164
 5997POPC   GL275686   3.691  39.193   6.164
 5997POPC   C1A75687   3.579  39.261   6.464
 5997POPC   D2A75688   3.574  39.200   6.764
 5997POPC   C3A75689   3.571  39.251   7.064
 5997POPC   C4A75690   3.492  39.255   7.364
 5997POPC   C1B75691   3.730  39.065   6.464
 5997POPC   C2B75692   3.777  39.070   6.764
 5997POPC   C3B75693   3.786  39.124   7.064
 5997POPC   C4B75694   3.711  39.088   7.364
 5998POPC   NC375695  36.153  37.675   5.564
 5998POPC   PO475696  36.121  37.658   5.864
 5998POPC   GL175697  36.122  37.650   6.164
 5998POPC   GL275698  36.015  37.625   6.164
 5998POPC   C1A75699  36.153  37.660   6.464
 5998POPC   D2A75700  36.161  37.721   6.764
 5998POPC   C3A75701  36.087  37.651   7.064
 5998POPC   C4A75702  36.166  37.713   7.364
 5998POPC   C1B75703  35.859  37.628   6.464
 5998POPC   C2B75704  35.866  37.670   6.764
 5998POPC   C3B75705  35.864  37.630   7.064
 5998POPC   C4B75706  35.840  37.626   7.364
 5999POPC   NC375707  29.183  37.711   5.564
 5999POPC   PO475708  29.155  37.651   5.864
 5999POPC   GL175709  29.129  37.633   6.164
 5999POPC   GL275710  29.304  37.740   6.164
 5999POPC   C1A75711  29.178  37.667   6.464
 5999POPC   D2A75712  29.140  37.670   6.764
 5999POPC   C3A75713  29.165  37.726   7.064
 5999POPC   C4A75714  29.149  37.642   7.364
 5999POPC   C1B75715  29.424  37.725   6.464
 5999POPC   C2B75716  29.374  37.764   6.764
 5999POPC   C3B75717  29.426  37.733   7.064
 5999POPC   C4B75718  29.354  37.690   7.364
 6000POPC   NC375719  42.363  17.509   5.564
 6000POPC   PO475720  42.373  17.462   5.864
 6000POPC   GL175721  42.359  17.507   6.164
 6000POPC   GL275722  42.392  17.416   6.164
 6000POPC   C1A75723  42.353  17.535   6.464
 6000POPC   D2A75724  42.325  17.474   6.764
 6000POPC   C3A75725  42.364  17.497   7.064
 6000POPC   C4A75726  42.317  17.483   7.364
 6000POPC   C1B75727  42.365  17.213   6.464
 6000POPC   C2B75728  42.339  17.255   6.764
 6000POPC   C3B75729  42.342  17.239   7.064
 6000POPC   C4B75730  42.354  17.263   7.364
 6001POPC   NC375731  43.907  42.376   5.564
 6001POPC   PO475732  43.904  42.337   5.864
 6001POPC   GL175733  43.855  42.352   6.164
 6001POPC   GL275734  43.799  42.421   6.164
 6001POPC   C1A75735  43.853  42.309   6.464
 6001POPC   D2A75736  43.910  42.296   6.764
 6001POPC   C3A75737  43.864  42.326   7.064
 6001POPC   C4A75738  43.936  42.326   7.364
 6001POPC   C1B75739  43.695  42.434   6.464
 6001POPC   C2B75740  43.713  42.476   6.764
 6001POPC   C3B75741  43.686  42.459   7.064
 6001POPC   C4B75742  43.644  42.426   7.364
 6002POPC   NC375743  41.555   5.090   5.564
 6002POPC   PO475744  41.530   5.131   5.864
 6002POPC   GL175745  41.607   5.107   6.164
 6002POPC   GL275746  41.652   5.110   6.164
 6002POPC   C1A75747  41.516   5.056   6.464
 6002POPC   D2A75748  41.569   5.135   6.764
 6002POPC   C3A75749  41.578   5.113   7.064
 6002POPC   C4A75750  41.581   5.077   7.364
 6002POPC   C1B75751  41.818   5.179   6.464
 6002POPC   C2B75752  41.850   5.107   6.764
 6002POPC   C3B75753  41.764   5.125   7.064
 6002POPC   C4B75754  41.760   5.128   7.364
 6003POPC   NC375755  15.152  39.214   5.564
 6003POPC   PO475756  15.136  39.186   5.864
 6003POPC   GL175757  15.170  39.266   6.164
 6003POPC   GL275758  15.068  39.270   6.164
 6003POPC   C1A75759  15.173  39.224   6.464
 6003POPC   D2A75760  15.209  39.255   6.764
 6003POPC   C3A75761  15.155  39.211   7.064
 6003POPC   C4A75762  15.133  39.186   7.364
 6003POPC   C1B75763  14.968  39.360   6.464
 6003POPC   C2B75764  14.895  39.289   6.764
 6003POPC   C3B75765  14.954  39.360   7.064
 6003POPC   C4B75766  14.987  39.279   7.364
 6004POPC   NC375767   1.252  17.502   5.564
 6004POPC   PO475768   1.176  17.492   5.864
 6004POPC   GL175769   1.207  17.507   6.164
 6004POPC   GL275770   1.074  17.583   6.164
 6004POPC   C1A75771   1.190  17.502   6.464
 6004POPC   D2A75772   1.244  17.473   6.764
 6004POPC   C3A75773   1.205  17.551   7.064
 6004POPC   C4A75774   1.244  17.550   7.364
 6004POPC   C1B75775   0.999  17.655   6.464
 6004POPC   C2B75776   0.953  17.661   6.764
 6004POPC   C3B75777   0.970  17.639   7.064
 6004POPC   C4B75778   1.041  17.632   7.364
 6005POPC   NC375779  11.276  25.223   5.564
 6005POPC   PO475780  11.347  25.300   5.864
 6005POPC   GL175781  11.313  25.261   6.164
 6005POPC   GL275782  11.226  25.340   6.164
 6005POPC   C1A75783  11.286  25.309   6.464
 6005POPC   D2A75784  11.287  25.288   6.764
 6005POPC   C3A75785  11.325  25.227   7.064
 6005POPC   C4A75786  11.266  25.256   7.364
 6005POPC   C1B75787  11.134  25.442   6.464
 6005POPC   C2B75788  11.131  25.512   6.764
 6005POPC   C3B75789  11.179  25.501   7.064
 6005POPC   C4B75790  11.160  25.488   7.364
 6006POPC   NC375791  32.275   4.276   5.564
 6006POPC   PO475792  32.200   4.291   5.864
 6006POPC   GL175793  32.254   4.346   6.164
 6006POPC   GL275794  32.260   4.165   6.164
 6006POPC   C1A75795  32.279   4.300   6.464
 6006POPC   D2A75796  32.218   4.339   6.764
 6006POPC   C3A75797  32.236   4.290   7.064
 6006POPC   C4A75798  32.258   4.289   7.364
 6006POPC   C1B75799  32.240   4.117   6.464
 6006POPC   C2B75800  32.217   4.113   6.764
 6006POPC   C3B75801  32.201   4.092   7.064
 6006POPC   C4B75802  32.232   4.122   7.364
 6007POPC   NC375803  33.002  25.310   5.564
 6007POPC   PO475804  33.066  25.232   5.864
 6007POPC   GL175805  33.018  25.296   6.164
 6007POPC   GL275806  32.901  25.372   6.164
 6007POPC   C1A75807  32.985  25.252   6.464
 6007POPC   D2A75808  33.051  25.282   6.764
 6007POPC   C3A75809  33.052  25.291   7.064
 6007POPC   C4A75810  33.018  25.222   7.364
 6007POPC   C1B75811  32.779  25.372   6.464
 6007POPC   C2B75812  32.798  25.365   6.764
 6007POPC   C3B75813  32.831  25.447   7.064
 6007POPC   C4B75814  32.820  25.457   7.364
 6008POPC   NC375815  18.312   4.313   5.564
 6008POPC   PO475816  18.297   4.336   5.864
 6008POPC   GL175817  18.332   4.348   6.164
 6008POPC   GL275818  18.270   4.408   6.164
 6008POPC   C1A75819  18.241   4.349   6.464
 6008POPC   D2A75820  18.265   4.360   6.764
 6008POPC   C3A75821  18.243   4.275   7.064
 6008POPC   C4A75822  18.248   4.324   7.364
 6008POPC   C1B75823  18.242   4.573   6.464
 6008POPC   C2B75824  18.258   4.529   6.764
 6008POPC   C3B75825  18.233   4.586   7.064
 6008POPC   C4B75826  18.228   4.597   7.364
 6009POPC   NC375827  20.644  35.339   5.564
 6009POPC   PO475828  20.634  35.355   5.864
 6009POPC   GL175829  20.656  35.346   6.164
 6009POPC   GL275830  20.661  35.272   6.164
 6009POPC   C1A75831  20.641  35.358   6.464
 6009POPC   D2A75832  20.595  35.364   6.764
 6009POPC   C3A75833  20.655  35.391   7.064
 6009POPC   C4A75834  20.581  35.370   7.364
 6009POPC   C1B75835  20.587  35.076   6.464
 6009POPC   C2B75836  20.606  35.063   6.764
 6009POPC   C3B75837  20.599  35.055   7.064
 6009POPC   C4B75838  20.604  35.058   7.364
 6010POPC   NC375839   3.503  22.898   5.564
 6010POPC   PO475840   3.505  22.926   5.864
 6010POPC   GL175841   3.525  22.964   6.164
 6010POPC   GL275842   3.609  22.860   6.164
 6010POPC   C1A75843   3.542  22.978   6.464
 6010POPC   D2A75844   3.526  22.924   6.764
 6010POPC   C3A75845   3.525  22.970   7.064
 6010POPC   C4A75846   3.521  22.913   7.364
 6010POPC   C1B75847   3.690  22.777   6.464
 6010POPC   C2B75848   3.732  22.724   6.764
 6010POPC   C3B75849   3.695  22.698   7.064
 6010POPC   C4B75850   3.647  22.759   7.364
 6011POPC   NC375851  16.767  33.805   5.564
 6011POPC   PO475852  16.748  33.773   5.864
 6011POPC   GL175853  16.733  33.832   6.164
 6011POPC   GL275854  16.618  33.692   6.164
 6011POPC   C1A75855  16.707  33.759   6.464
 6011POPC   D2A75856  16.742  33.754   6.764
 6011POPC   C3A75857  16.762  33.809   7.064
 6011POPC   C4A75858  16.700  33.829   7.364
 6011POPC   C1B75859  16.516  33.582   6.464
 6011POPC   C2B75860  16.590  33.646   6.764
 6011POPC   C3B75861  16.561  33.603   7.064
 6011POPC   C4B75862  16.517  33.630   7.364
 6012POPC   NC375863  15.944  21.379   5.564
 6012POPC   PO475864  15.969  21.341   5.864
 6012POPC   GL175865  16.000  21.434   6.164
 6012POPC   GL275866  15.988  21.257   6.164
 6012POPC   C1A75867  15.971  21.340   6.464
 6012POPC   D2A75868  15.920  21.393   6.764
 6012POPC   C3A75869  16.003  21.369   7.064
 6012POPC   C4A75870  15.999  21.414   7.364
 6012POPC   C1B75871  16.056  21.152   6.464
 6012POPC   C2B75872  16.055  21.167   6.764
 6012POPC   C3B75873  16.052  21.154   7.064
 6012POPC   C4B75874  16.087  21.125   7.364
 6013POPC   NC375875  13.604  17.553   5.564
 6013POPC   PO475876  13.671  17.553   5.864
 6013POPC   GL175877  13.646  17.472   6.164
 6013POPC   GL275878  13.633  17.669   6.164
 6013POPC   C1A75879  13.628  17.496   6.464
 6013POPC   D2A75880  13.656  17.510   6.764
 6013POPC   C3A75881  13.656  17.521   7.064
 6013POPC   C4A75882  13.591  17.516   7.364
 6013POPC   C1B75883  13.639  17.776   6.464
 6013POPC   C2B75884  13.617  17.774   6.764
 6013POPC   C3B75885  13.607  17.734   7.064
 6013POPC   C4B75886  13.592  17.783   7.364
 6014POPC   NC375887  15.919  25.283   5.564
 6014POPC   PO475888  15.941  25.288   5.864
 6014POPC   GL175889  15.975  25.314   6.164
 6014POPC   GL275890  15.841  25.174   6.164
 6014POPC   C1A75891  15.908  25.247   6.464
 6014POPC   D2A75892  15.921  25.223   6.764
 6014POPC   C3A75893  15.935  25.290   7.064
 6014POPC   C4A75894  15.996  25.258   7.364
 6014POPC   C1B75895  15.821  25.089   6.464
 6014POPC   C2B75896  15.816  25.119   6.764
 6014POPC   C3B75897  15.729  25.131   7.064
 6014POPC   C4B75898  15.811  25.097   7.364
 6015POPC   NC375899   2.763  12.859   5.564
 6015POPC   PO475900   2.800  12.821   5.864
 6015POPC   GL175901   2.790  12.849   6.164
 6015POPC   GL275902   2.890  12.885   6.164
 6015POPC   C1A75903   2.811  12.847   6.464
 6015POPC   D2A75904   2.766  12.879   6.764
 6015POPC   C3A75905   2.729  12.847   7.064
 6015POPC   C4A75906   2.716  12.842   7.364
 6015POPC   C1B75907   2.960  12.967   6.464
 6015POPC   C2B75908   2.998  12.990   6.764
 6015POPC   C3B75909   2.984  12.938   7.064
 6015POPC   C4B75910   2.994  12.924   7.364
 6016POPC   NC375911  25.260  26.835   5.564
 6016POPC   PO475912  25.220  26.810   5.864
 6016POPC   GL175913  25.297  26.860   6.164
 6016POPC   GL275914  25.289  26.666   6.164
 6016POPC   C1A75915  25.229  26.866   6.464
 6016POPC   D2A75916  25.218  26.776   6.764
 6016POPC   C3A75917  25.292  26.786   7.064
 6016POPC   C4A75918  25.254  26.781   7.364
 6016POPC   C1B75919  25.427  26.576   6.464
 6016POPC   C2B75920  25.374  26.562   6.764
 6016POPC   C3B75921  25.385  26.639   7.064
 6016POPC   C4B75922  25.340  26.588   7.364
 6017POPC   NC375923  22.210  31.437   5.564
 6017POPC   PO475924  22.158  31.455   5.864
 6017POPC   GL175925  22.190  31.497   6.164
 6017POPC   GL275926  22.068  31.338   6.164
 6017POPC   C1A75927  22.208  31.464   6.464
 6017POPC   D2A75928  22.203  31.478   6.764
 6017POPC   C3A75929  22.185  31.518   7.064
 6017POPC   C4A75930  22.157  31.479   7.364
 6017POPC   C1B75931  22.022  31.209   6.464
 6017POPC   C2B75932  22.047  31.220   6.764
 6017POPC   C3B75933  22.096  31.204   7.064
 6017POPC   C4B75934  22.002  31.234   7.364
 6018POPC   NC375935  42.339  38.450   5.564
 6018POPC   PO475936  42.333  38.407   5.864
 6018POPC   GL175937  42.371  38.469   6.164
 6018POPC   GL275938  42.185  38.524   6.164
 6018POPC   C1A75939  42.321  38.499   6.464
 6018POPC   D2A75940  42.376  38.500   6.764
 6018POPC   C3A75941  42.291  38.410   7.064
 6018POPC   C4A75942  42.374  38.413   7.364
 6018POPC   C1B75943  42.064  38.518   6.464
 6018POPC   C2B75944  42.148  38.589   6.764
 6018POPC   C3B75945  42.087  38.580   7.064
 6018POPC   C4B75946  42.139  38.530   7.364
 6019POPC   NC375947   5.122  16.693   5.564
 6019POPC   PO475948   5.046  16.694   5.864
 6019POPC   GL175949   5.121  16.770   6.164
 6019POPC   GL275950   5.088  16.863   6.164
 6019POPC   C1A75951   5.066  16.726   6.464
 6019POPC   D2A75952   5.129  16.742   6.764
 6019POPC   C3A75953   5.077  16.728   7.064
 6019POPC   C4A75954   5.045  16.727   7.364
 6019POPC   C1B75955   5.143  16.973   6.464
 6019POPC   C2B75956   5.082  16.967   6.764
 6019POPC   C3B75957   5.150  16.965   7.064
 6019POPC   C4B75958   5.143  16.988   7.364
 6020POPC   NC375959  31.520  36.139   5.564
 6020POPC   PO475960  31.444  36.106   5.864
 6020POPC   GL175961  31.454  36.116   6.164
 6020POPC   GL275962  31.379  36.264   6.164
 6020POPC   C1A75963  31.480  36.095   6.464
 6020POPC   D2A75964  31.514  36.100   6.764
 6020POPC   C3A75965  31.484  36.166   7.064
 6020POPC   C4A75966  31.516  36.102   7.364
 6020POPC   C1B75967  31.350  36.372   6.464
 6020POPC   C2B75968  31.369  36.350   6.764
 6020POPC   C3B75969  31.330  36.330   7.064
 6020POPC   C4B75970  31.320  36.386   7.364
 6021POPC   NC375971  10.522   4.354   5.564
 6021POPC   PO475972  10.476   4.321   5.864
 6021POPC   GL175973  10.478   4.300   6.164
 6021POPC   GL275974  10.612   4.333   6.164
 6021POPC   C1A75975  10.478   4.316   6.464
 6021POPC   D2A75976  10.564   4.317   6.764
 6021POPC   C3A75977  10.495   4.342   7.064
 6021POPC   C4A75978  10.510   4.293   7.364
 6021POPC   C1B75979  10.766   4.244   6.464
 6021POPC   C2B75980  10.755   4.290   6.764
 6021POPC   C3B75981  10.762   4.245   7.064
 6021POPC   C4B75982  10.795   4.283   7.364
 6022POPC   NC375983  42.318  33.754   5.564
 6022POPC   PO475984  42.376  33.806   5.864
 6022POPC   GL175985  42.286  33.791   6.164
 6022POPC   GL275986  42.327  33.648   6.164
 6022POPC   C1A75987  42.384  33.756   6.464
 6022POPC   D2A75988  42.331  33.796   6.764
 6022POPC   C3A75989  42.360  33.834   7.064
 6022POPC   C4A75990  42.306  33.803   7.364
 6022POPC   C1B75991  42.263  33.526   6.464
 6022POPC   C2B75992  42.250  33.614   6.764
 6022POPC   C3B75993  42.224  33.563   7.064
 6022POPC   C4B75994  42.221  33.538   7.364
 6023POPC   NC375995  20.567   5.827   5.564
 6023POPC   PO475996  20.589   5.833   5.864
 6023POPC   GL175997  20.660   5.902   6.164
 6023POPC   GL275998  20.543   5.983   6.164
 6023POPC   C1A75999  20.598   5.857   6.464
 6023POPC   D2A76000  20.584   5.824   6.764
 6023POPC   C3A76001  20.652   5.825   7.064
 6023POPC   C4A76002  20.579   5.825   7.364
 6023POPC   C1B76003  20.507   6.100   6.464
 6023POPC   C2B76004  20.444   6.046   6.764
 6023POPC   C3B76005  20.465   6.055   7.064
 6023POPC   C4B76006  20.490   6.079   7.364
 6024POPC   NC376007  27.573  25.304   5.564
 6024POPC   PO476008  27.566  25.310   5.864
 6024POPC   GL176009  27.593  25.269   6.164
 6024POPC   GL276010  27.489  25.365   6.164
 6024POPC   C1A76011  27.629  25.254   6.464
 6024POPC   D2A76012  27.572  25.264   6.764
 6024POPC   C3A76013  27.622  25.311   7.064
 6024POPC   C4A76014  27.564  25.249   7.364
 6024POPC   C1B76015  27.405  25.399   6.464
 6024POPC   C2B76016  27.384  25.380   6.764
 6024POPC   C3B76017  27.386  25.405   7.064
 6024POPC   C4B76018  27.428  25.387   7.364
 6025POPC   NC376019   2.778  10.475   5.564
 6025POPC   PO476020   2.718  10.499   5.864
 6025POPC   GL176021   2.724  10.507   6.164
 6025POPC   GL276022   2.787  10.396   6.164
 6025POPC   C1A76023   2.721  10.560   6.464
 6025POPC   D2A76024   2.782  10.502   6.764
 6025POPC   C3A76025   2.794  10.551   7.064
 6025POPC   C4A76026   2.717  10.539   7.364
 6025POPC   C1B76027   2.838  10.306   6.464
 6025POPC   C2B76028   2.810  10.257   6.764
 6025POPC   C3B76029   2.839  10.239   7.064
 6025POPC   C4B76030   2.775  10.236   7.364
 6026POPC   NC376031  12.892  35.339   5.564
 6026POPC   PO476032  12.814  35.385   5.864
 6026POPC   GL176033  12.846  35.381   6.164
 6026POPC   GL276034  12.782  35.495   6.164
 6026POPC   C1A76035  12.823  35.351   6.464
 6026POPC   D2A76036  12.826  35.313   6.764
 6026POPC   C3A76037  12.879  35.307   7.064
 6026POPC   C4A76038  12.852  35.356   7.364
 6026POPC   C1B76039  12.757  35.561   6.464
 6026POPC   C2B76040  12.682  35.617   6.764
 6026POPC   C3B76041  12.723  35.523   7.064
 6026POPC   C4B76042  12.713  35.604   7.364
 6027POPC   NC376043  38.447   6.692   5.564
 6027POPC   PO476044  38.479   6.679   5.864
 6027POPC   GL176045  38.463   6.611   6.164
 6027POPC   GL276046  38.523   6.665   6.164
 6027POPC   C1A76047  38.447   6.614   6.464
 6027POPC   D2A76048  38.455   6.671   6.764
 6027POPC   C3A76049  38.451   6.671   7.064
 6027POPC   C4A76050  38.409   6.635   7.364
 6027POPC   C1B76051  38.715   6.763   6.464
 6027POPC   C2B76052  38.640   6.793   6.764
 6027POPC   C3B76053  38.651   6.783   7.064
 6027POPC   C4B76054  38.621   6.776   7.364
 6028POPC   NC376055   2.012  12.809   5.564
 6028POPC   PO476056   2.029  12.803   5.864
 6028POPC   GL176057   1.978  12.835   6.164
 6028POPC   GL276058   1.977  12.713   6.164
 6028POPC   C1A76059   1.988  12.821   6.464
 6028POPC   D2A76060   1.974  12.883   6.764
 6028POPC   C3A76061   2.008  12.807   7.064
 6028POPC   C4A76062   1.951  12.900   7.364
 6028POPC   C1B76063   1.954  12.578   6.464
 6028POPC   C2B76064   1.967  12.608   6.764
 6028POPC   C3B76065   2.021  12.566   7.064
 6028POPC   C4B76066   1.986  12.624   7.364
 6029POPC   NC376067  18.293  19.025   5.564
 6029POPC   PO476068  18.332  19.099   5.864
 6029POPC   GL176069  18.251  19.075   6.164
 6029POPC   GL276070  18.314  18.908   6.164
 6029POPC   C1A76071  18.304  19.016   6.464
 6029POPC   D2A76072  18.276  19.033   6.764
 6029POPC   C3A76073  18.245  19.037   7.064
 6029POPC   C4A76074  18.260  19.031   7.364
 6029POPC   C1B76075  18.410  18.802   6.464
 6029POPC   C2B76076  18.364  18.795   6.764
 6029POPC   C3B76077  18.433  18.844   7.064
 6029POPC   C4B76078  18.351  18.816   7.364
 6030POPC   NC376079  15.219   3.548   5.564
 6030POPC   PO476080  15.180   3.541   5.864
 6030POPC   GL176081  15.225   3.553   6.164
 6030POPC   GL276082  15.195   3.681   6.164
 6030POPC   C1A76083  15.189   3.536   6.464
 6030POPC   D2A76084  15.156   3.569   6.764
 6030POPC   C3A76085  15.142   3.573   7.064
 6030POPC   C4A76086  15.197   3.557   7.364
 6030POPC   C1B76087  15.154   3.812   6.464
 6030POPC   C2B76088  15.159   3.786   6.764
 6030POPC   C3B76089  15.150   3.756   7.064
 6030POPC   C4B76090  15.137   3.837   7.364
 6031POPC   NC376091  22.902  29.159   5.564
 6031POPC   PO476092  22.950  29.174   5.864
 6031POPC   GL176093  22.980  29.126   6.164
 6031POPC   GL276094  23.047  29.031   6.164
 6031POPC   C1A76095  22.950  29.155   6.464
 6031POPC   D2A76096  22.986  29.120   6.764
 6031POPC   C3A76097  22.974  29.157   7.064
 6031POPC   C4A76098  22.931  29.162   7.364
 6031POPC   C1B76099  23.172  29.016   6.464
 6031POPC   C2B76100  23.163  28.964   6.764
 6031POPC   C3B76101  23.115  28.943   7.064
 6031POPC   C4B76102  23.117  28.996   7.364
 6032POPC   NC376103  31.447  44.679   5.564
 6032POPC   PO476104  31.504  44.661   5.864
 6032POPC   GL176105  31.463  44.622   6.164
 6032POPC   GL276106  31.541  44.528   6.164
 6032POPC   C1A76107  31.493  44.645   6.464
 6032POPC   D2A76108  31.494  44.628   6.764
 6032POPC   C3A76109  31.426  44.679   7.064
 6032POPC   C4A76110  31.521  44.682   7.364
 6032POPC   C1B76111  31.667  44.480   6.464
 6032POPC   C2B76112  31.630  44.486   6.764
 6032POPC   C3B76113  31.646  44.433   7.064
 6032POPC   C4B76114  31.669  44.473   7.364
 6033POPC   NC376115  28.374  39.995   5.564
 6033POPC   PO476116  28.391  40.041   5.864
 6033POPC   GL176117  28.387  39.976   6.164
 6033POPC   GL276118  28.460  40.022   6.164
 6033POPC   C1A76119  28.324  40.007   6.464
 6033POPC   D2A76120  28.374  40.031   6.764
 6033POPC   C3A76121  28.389  40.004   7.064
 6033POPC   C4A76122  28.366  40.039   7.364
 6033POPC   C1B76123  28.621  39.997   6.464
 6033POPC   C2B76124  28.622  39.992   6.764
 6033POPC   C3B76125  28.593  40.013   7.064
 6033POPC   C4B76126  28.619  39.984   7.364
 6034POPC   NC376127  26.069  43.139   5.564
 6034POPC   PO476128  26.058  43.117   5.864
 6034POPC   GL176129  26.089  43.103   6.164
 6034POPC   GL276130  26.047  43.237   6.164
 6034POPC   C1A76131  26.062  43.076   6.464
 6034POPC   D2A76132  26.043  43.065   6.764
 6034POPC   C3A76133  26.000  43.140   7.064
 6034POPC   C4A76134  26.071  43.114   7.364
 6034POPC   C1B76135  25.978  43.373   6.464
 6034POPC   C2B76136  25.917  43.331   6.764
 6034POPC   C3B76137  25.954  43.343   7.064
 6034POPC   C4B76138  25.918  43.336   7.364
 6035POPC   NC376139   8.147  43.103   5.564
 6035POPC   PO476140   8.176  43.150   5.864
 6035POPC   GL176141   8.230  43.073   6.164
 6035POPC   GL276142   8.112  42.988   6.164
 6035POPC   C1A76143   8.218  43.111   6.464
 6035POPC   D2A76144   8.209  43.109   6.764
 6035POPC   C3A76145   8.172  43.144   7.064
 6035POPC   C4A76146   8.150  43.073   7.364
 6035POPC   C1B76147   7.995  42.932   6.464
 6035POPC   C2B76148   7.965  42.996   6.764
 6035POPC   C3B76149   8.038  42.943   7.064
 6035POPC   C4B76150   8.021  42.936   7.364
 6036POPC   NC376151  36.173   1.188   5.564
 6036POPC   PO476152  36.138   1.217   5.864
 6036POPC   GL176153  36.142   1.169   6.164
 6036POPC   GL276154  36.098   1.100   6.164
 6036POPC   C1A76155  36.080   1.243   6.464
 6036POPC   D2A76156  36.104   1.198   6.764
 6036POPC   C3A76157  36.119   1.217   7.064
 6036POPC   C4A76158  36.173   1.241   7.364
 6036POPC   C1B76159  36.079   0.979   6.464
 6036POPC   C2B76160  36.064   1.005   6.764
 6036POPC   C3B76161  36.108   0.925   7.064
 6036POPC   C4B76162  36.065   0.973   7.364
 6037POPC   NC376163  19.852  36.865   5.564
 6037POPC   PO476164  19.856  36.900   5.864
 6037POPC   GL176165  19.864  36.884   6.164
 6037POPC   GL276166  19.705  36.886   6.164
 6037POPC   C1A76167  19.859  36.877   6.464
 6037POPC   D2A76168  19.824  36.916   6.764
 6037POPC   C3A76169  19.830  36.949   7.064
 6037POPC   C4A76170  19.868  36.898   7.364
 6037POPC   C1B76171  19.566  36.830   6.464
 6037POPC   C2B76172  19.558  36.812   6.764
 6037POPC   C3B76173  19.589  36.815   7.064
 6037POPC   C4B76174  19.573  36.836   7.364
 6038POPC   NC376175  19.834   1.945   5.564
 6038POPC   PO476176  19.791   2.015   5.864
 6038POPC   GL176177  19.789   1.949   6.164
 6038POPC   GL276178  19.732   1.939   6.164
 6038POPC   C1A76179  19.850   2.006   6.464
 6038POPC   D2A76180  19.858   2.029   6.764
 6038POPC   C3A76181  19.859   2.008   7.064
 6038POPC   C4A76182  19.837   2.025   7.364
 6038POPC   C1B76183  19.668   1.876   6.464
 6038POPC   C2B76184  19.681   1.842   6.764
 6038POPC   C3B76185  19.670   1.862   7.064
 6038POPC   C4B76186  19.595   1.822   7.364
 6039POPC   NC376187   6.658   6.608   5.564
 6039POPC   PO476188   6.632   6.657   5.864
 6039POPC   GL176189   6.638   6.632   6.164
 6039POPC   GL276190   6.764   6.688   6.164
 6039POPC   C1A76191   6.604   6.655   6.464
 6039POPC   D2A76192   6.597   6.606   6.764
 6039POPC   C3A76193   6.633   6.683   7.064
 6039POPC   C4A76194   6.609   6.641   7.364
 6039POPC   C1B76195   6.853   6.779   6.464
 6039POPC   C2B76196   6.879   6.743   6.764
 6039POPC   C3B76197   6.907   6.781   7.064
 6039POPC   C4B76198   6.819   6.749   7.364
 6040POPC   NC376199  36.128  41.511   5.564
 6040POPC   PO476200  36.140  41.509   5.864
 6040POPC   GL176201  36.125  41.559   6.164
 6040POPC   GL276202  36.151  41.469   6.164
 6040POPC   C1A76203  36.154  41.532   6.464
 6040POPC   D2A76204  36.087  41.519   6.764
 6040POPC   C3A76205  36.137  41.603   7.064
 6040POPC   C4A76206  36.115  41.598   7.364
 6040POPC   C1B76207  36.093  41.317   6.464
 6040POPC   C2B76208  36.089  41.282   6.764
 6040POPC   C3B76209  36.110  41.335   7.064
 6040POPC   C4B76210  36.076  41.323   7.364
 6041POPC   NC376211  29.186  19.050   5.564
 6041POPC   PO476212  29.103  19.051   5.864
 6041POPC   GL176213  29.148  19.027   6.164
 6041POPC   GL276214  29.041  18.993   6.164
 6041POPC   C1A76215  29.133  19.056   6.464
 6041POPC   D2A76216  29.099  19.102   6.764
 6041POPC   C3A76217  29.125  19.042   7.064
 6041POPC   C4A76218  29.095  19.035   7.364
 6041POPC   C1B76219  28.983  18.857   6.464
 6041POPC   C2B76220  28.912  18.920   6.764
 6041POPC   C3B76221  28.958  18.931   7.064
 6041POPC   C4B76222  28.927  18.926   7.364
 6042POPC   NC376223  29.113  44.695   5.564
 6042POPC   PO476224  29.167  44.692   5.864
 6042POPC   GL176225  29.182  44.617   6.164
 6042POPC   GL276226  29.256  44.655   6.164
 6042POPC   C1A76227  29.131  44.685   6.464
 6042POPC   D2A76228  29.112  44.625   6.764
 6042POPC   C3A76229  29.169  44.629   7.064
 6042POPC   C4A76230  29.135  44.636   7.364
 6042POPC   C1B76231  29.423  44.662   6.464
 6042POPC   C2B76232  29.432  44.717   6.764
 6042POPC   C3B76233  29.439  44.638   7.064
 6042POPC   C4B76234  29.371  44.694   7.364
 6043POPC   NC376235  10.535  30.664   5.564
 6043POPC   PO476236  10.481  30.659   5.864
 6043POPC   GL176237  10.513  30.738   6.164
 6043POPC   GL276238  10.389  30.722   6.164
 6043POPC   C1A76239  10.565  30.707   6.464
 6043POPC   D2A76240  10.561  30.659   6.764
 6043POPC   C3A76241  10.573  30.722   7.064
 6043POPC   C4A76242  10.561  30.680   7.364
 6043POPC   C1B76243  10.247  30.686   6.464
 6043POPC   C2B76244  10.239  30.673   6.764
 6043POPC   C3B76245  10.267  30.663   7.064
 6043POPC   C4B76246  10.255  30.613   7.364
 6044POPC   NC376247  11.258   2.020   5.564
 6044POPC   PO476248  11.286   2.016   5.864
 6044POPC   GL176249  11.300   1.954   6.164
 6044POPC   GL276250  11.369   2.143   6.164
 6044POPC   C1A76251  11.338   1.997   6.464
 6044POPC   D2A76252  11.265   2.010   6.764
 6044POPC   C3A76253  11.273   2.027   7.064
 6044POPC   C4A76254  11.348   1.991   7.364
 6044POPC   C1B76255  11.392   2.253   6.464
 6044POPC   C2B76256  11.341   2.245   6.764
 6044POPC   C3B76257  11.366   2.275   7.064
 6044POPC   C4B76258  11.406   2.243   7.364
 6045POPC   NC376259  41.517  20.568   5.564
 6045POPC   PO476260  41.566  20.583   5.864
 6045POPC   GL176261  41.557  20.592   6.164
 6045POPC   GL276262  41.486  20.563   6.164
 6045POPC   C1A76263  41.554  20.624   6.464
 6045POPC   D2A76264  41.568  20.630   6.764
 6045POPC   C3A76265  41.515  20.622   7.064
 6045POPC   C4A76266  41.599  20.575   7.364
 6045POPC   C1B76267  41.297  20.590   6.464
 6045POPC   C2B76268  41.277  20.513   6.764
 6045POPC   C3B76269  41.350  20.563   7.064
 6045POPC   C4B76270  41.341  20.535   7.364
 6046POPC   NC376271   3.521  33.847   5.564
 6046POPC   PO476272   3.495  33.846   5.864
 6046POPC   GL176273   3.551  33.816   6.164
 6046POPC   GL276274   3.405  33.791   6.164
 6046POPC   C1A76275   3.574  33.791   6.464
 6046POPC   D2A76276   3.523  33.827   6.764
 6046POPC   C3A76277   3.560  33.815   7.064
 6046POPC   C4A76278   3.494  33.799   7.364
 6046POPC   C1B76279   3.301  33.757   6.464
 6046POPC   C2B76280   3.275  33.732   6.764
 6046POPC   C3B76281   3.261  33.744   7.064
 6046POPC   C4B76282   3.298  33.743   7.364
 6047POPC   NC376283  32.248  19.060   5.564
 6047POPC   PO476284  32.283  19.014   5.864
 6047POPC   GL176285  32.282  19.014   6.164
 6047POPC   GL276286  32.109  18.993   6.164
 6047POPC   C1A76287  32.280  19.091   6.464
 6047POPC   D2A76288  32.273  19.086   6.764
 6047POPC   C3A76289  32.211  19.011   7.064
 6047POPC   C4A76290  32.248  19.075   7.364
 6047POPC   C1B76291  32.041  19.035   6.464
 6047POPC   C2B76292  31.976  18.959   6.764
 6047POPC   C3B76293  32.022  19.031   7.064
 6047POPC   C4B76294  32.013  19.031   7.364
 6048POPC   NC376295  40.017  41.533   5.564
 6048POPC   PO476296  40.027  41.545   5.864
 6048POPC   GL176297  40.013  41.576   6.164
 6048POPC   GL276298  40.134  41.619   6.164
 6048POPC   C1A76299  40.044  41.519   6.464
 6048POPC   D2A76300  39.982  41.539   6.764
 6048POPC   C3A76301  40.008  41.540   7.064
 6048POPC   C4A76302  40.045  41.599   7.364
 6048POPC   C1B76303  40.258  41.570   6.464
 6048POPC   C2B76304  40.246  41.550   6.764
 6048POPC   C3B76305  40.215  41.573   7.064
 6048POPC   C4B76306  40.268  41.597   7.364
 6049POPC   NC376307  36.173  27.633   5.564
 6049POPC   PO476308  36.168  27.615   5.864
 6049POPC   GL176309  36.162  27.602   6.164
 6049POPC   GL276310  36.138  27.458   6.164
 6049POPC   C1A76311  36.101  27.550   6.464
 6049POPC   D2A76312  36.095  27.622   6.764
 6049POPC   C3A76313  36.164  27.555   7.064
 6049POPC   C4A76314  36.118  27.622   7.364
 6049POPC   C1B76315  36.199  27.303   6.464
 6049POPC   C2B76316  36.133  27.379   6.764
 6049POPC   C3B76317  36.165  27.305   7.064
 6049POPC   C4B76318  36.140  27.351   7.364
 6050POPC   NC376319  37.681  34.572   5.564
 6050POPC   PO476320  37.677  34.553   5.864
 6050POPC   GL176321  37.641  34.594   6.164
 6050POPC   GL276322  37.747  34.490   6.164
 6050POPC   C1A76323  37.632  34.571   6.464
 6050POPC   D2A76324  37.694  34.592   6.764
 6050POPC   C3A76325  37.667  34.609   7.064
 6050POPC   C4A76326  37.651  34.587   7.364
 6050POPC   C1B76327  37.820  34.401   6.464
 6050POPC   C2B76328  37.839  34.360   6.764
 6050POPC   C3B76329  37.773  34.368   7.064
 6050POPC   C4B76330  37.812  34.365   7.364
 6051POPC   NC376331   2.032   6.610   5.564
 6051POPC   PO476332   1.976   6.679   5.864
 6051POPC   GL176333   1.952   6.688   6.164
 6051POPC   GL276334   1.958   6.571   6.164
 6051POPC   C1A76335   2.013   6.616   6.464
 6051POPC   D2A76336   2.025   6.658   6.764
 6051POPC   C3A76337   1.981   6.653   7.064
 6051POPC   C4A76338   1.955   6.602   7.364
 6051POPC   C1B76339   1.852   6.434   6.464
 6051POPC   C2B76340   1.850   6.370   6.764
 6051POPC   C3B76341   1.872   6.423   7.064
 6051POPC   C4B76342   1.895   6.385   7.364
 6052POPC   NC376343  18.238  36.911   5.564
 6052POPC   PO476344  18.280  36.927   5.864
 6052POPC   GL176345  18.235  36.890   6.164
 6052POPC   GL276346  18.258  37.026   6.164
 6052POPC   C1A76347  18.290  36.943   6.464
 6052POPC   D2A76348  18.290  36.897   6.764
 6052POPC   C3A76349  18.274  36.918   7.064
 6052POPC   C4A76350  18.242  36.866   7.364
 6052POPC   C1B76351  18.244  37.124   6.464
 6052POPC   C2B76352  18.261  37.172   6.764
 6052POPC   C3B76353  18.235  37.110   7.064
 6052POPC   C4B76354  18.248  37.153   7.364
 6053POPC   NC376355  22.974  12.077   5.564
 6053POPC   PO476356  22.902  12.098   5.864
 6053POPC   GL176357  22.928  12.115   6.164
 6053POPC   GL276358  22.829  12.035   6.164
 6053POPC   C1A76359  22.909  12.036   6.464
 6053POPC   D2A76360  22.977  12.038   6.764
 6053POPC   C3A76361  22.893  12.070   7.064
 6053POPC   C4A76362  22.944  12.122   7.364
 6053POPC   C1B76363  22.720  12.049   6.464
 6053POPC   C2B76364  22.689  12.106   6.764
 6053POPC   C3B76365  22.734  12.115   7.064
 6053POPC   C4B76366  22.737  12.120   7.364
 6054POPC   NC376367  39.967  35.391   5.564
 6054POPC   PO476368  39.970  35.328   5.864
 6054POPC   GL176369  39.975  35.304   6.164
 6054POPC   GL276370  40.056  35.236   6.164
 6054POPC   C1A76371  40.049  35.337   6.464
 6054POPC   D2A76372  39.964  35.381   6.764
 6054POPC   C3A76373  39.975  35.380   7.064
 6054POPC   C4A76374  40.024  35.340   7.364
 6054POPC   C1B76375  40.087  35.092   6.464
 6054POPC   C2B76376  40.081  35.095   6.764
 6054POPC   C3B76377  40.072  35.102   7.064
 6054POPC   C4B76378  40.062  35.126   7.364
 6055POPC   NC376379  19.086  43.921   5.564
 6055POPC   PO476380  19.075  43.856   5.864
 6055POPC   GL176381  19.044  43.855   6.164
 6055POPC   GL276382  18.966  43.761   6.164
 6055POPC   C1A76383  19.018  43.909   6.464
 6055POPC   D2A76384  19.103  43.910   6.764
 6055POPC   C3A76385  19.043  43.912   7.064
 6055POPC   C4A76386  19.066  43.881   7.364
 6055POPC   C1B76387  18.854  43.643   6.464
 6055POPC   C2B76388  18.883  43.685   6.764
 6055POPC   C3B76389  18.944  43.684   7.064
 6055POPC   C4B76390  18.872  43.740   7.364
 6056POPC   NC376391  14.405  13.601   5.564
 6056POPC   PO476392  14.377  13.579   5.864
 6056POPC   GL176393  14.398  13.637   6.164
 6056POPC   GL276394  14.499  13.508   6.164
 6056POPC   C1A76395  14.413  13.621   6.464
 6056POPC   D2A76396  14.362  13.669   6.764
 6056POPC   C3A76397  14.364  13.619   7.064
 6056POPC   C4A76398  14.411  13.582   7.364
 6056POPC   C1B76399  14.549  13.519   6.464
 6056POPC   C2B76400  14.561  13.509   6.764
 6056POPC   C3B76401  14.565  13.434   7.064
 6056POPC   C4B76402  14.643  13.518   7.364
 6057POPC   NC376403  43.931  15.146   5.564
 6057POPC   PO476404  43.857  15.199   5.864
 6057POPC   GL176405  43.932  15.195   6.164
 6057POPC   GL276406  44.014  15.213   6.164
 6057POPC   C1A76407  43.846  15.141   6.464
 6057POPC   D2A76408  43.897  15.165   6.764
 6057POPC   C3A76409  43.870  15.165   7.064
 6057POPC   C4A76410  43.844  15.217   7.364
 6057POPC   C1B76411  44.106  15.180   6.464
 6057POPC   C2B76412  44.098  15.120   6.764
 6057POPC   C3B76413  44.148  15.118   7.064
 6057POPC   C4B76414  44.163  15.114   7.364
 6058POPC   NC376415  22.920  29.950   5.564
 6058POPC   PO476416  22.986  29.906   5.864
 6058POPC   GL176417  22.890  29.943   6.164
 6058POPC   GL276418  23.094  29.950   6.164
 6058POPC   C1A76419  22.921  29.945   6.464
 6058POPC   D2A76420  22.942  29.886   6.764
 6058POPC   C3A76421  22.889  29.944   7.064
 6058POPC   C4A76422  22.900  29.886   7.364
 6058POPC   C1B76423  23.170  29.857   6.464
 6058POPC   C2B76424  23.213  29.879   6.764
 6058POPC   C3B76425  23.155  29.895   7.064
 6058POPC   C4B76426  23.143  29.859   7.364
 6059POPC   NC376427  23.725  28.369   5.564
 6059POPC   PO476428  23.686  28.348   5.864
 6059POPC   GL176429  23.726  28.416   6.164
 6059POPC   GL276430  23.884  28.377   6.164
 6059POPC   C1A76431  23.699  28.320   6.464
 6059POPC   D2A76432  23.726  28.418   6.764
 6059POPC   C3A76433  23.758  28.391   7.064
 6059POPC   C4A76434  23.710  28.326   7.364
 6059POPC   C1B76435  23.957  28.382   6.464
 6059POPC   C2B76436  23.964  28.325   6.764
 6059POPC   C3B76437  23.917  28.393   7.064
 6059POPC   C4B76438  23.972  28.330   7.364
 6060POPC   NC376439  12.048  30.671   5.564
 6060POPC   PO476440  12.034  30.700   5.864
 6060POPC   GL176441  12.046  30.712   6.164
 6060POPC   GL276442  11.952  30.665   6.164
 6060POPC   C1A76443  12.103  30.667   6.464
 6060POPC   D2A76444  12.035  30.732   6.764
 6060POPC   C3A76445  12.097  30.685   7.064
 6060POPC   C4A76446  12.055  30.666   7.364
 6060POPC   C1B76447  11.891  30.569   6.464
 6060POPC   C2B76448  11.894  30.568   6.764
 6060POPC   C3B76449  11.874  30.595   7.064
 6060POPC   C4B76450  11.892  30.606   7.364
 6061POPC   NC376451  28.342  20.637   5.564
 6061POPC   PO476452  28.414  20.572   5.864
 6061POPC   GL176453  28.392  20.598   6.164
 6061POPC   GL276454  28.479  20.642   6.164
 6061POPC   C1A76455  28.325  20.623   6.464
 6061POPC   D2A76456  28.341  20.639   6.764
 6061POPC   C3A76457  28.360  20.646   7.064
 6061POPC   C4A76458  28.338  20.590   7.364
 6061POPC   C1B76459  28.659  20.618   6.464
 6061POPC   C2B76460  28.654  20.595   6.764
 6061POPC   C3B76461  28.583  20.624   7.064
 6061POPC   C4B76462  28.583  20.649   7.364
 6062POPC   NC376463  18.314   3.557   5.564
 6062POPC   PO476464  18.312   3.584   5.864
 6062POPC   GL176465  18.260   3.565   6.164
 6062POPC   GL276466  18.236   3.670   6.164
 6062POPC   C1A76467  18.293   3.513   6.464
 6062POPC   D2A76468  18.261   3.533   6.764
 6062POPC   C3A76469  18.249   3.565   7.064
 6062POPC   C4A76470  18.287   3.531   7.364
 6062POPC   C1B76471  18.121   3.730   6.464
 6062POPC   C2B76472  18.129   3.705   6.764
 6062POPC   C3B76473  18.108   3.742   7.064
 6062POPC   C4B76474  18.109   3.765   7.364
 6063POPC   NC376475  35.325  28.395   5.564
 6063POPC   PO476476  35.352  28.377   5.864
 6063POPC   GL176477  35.351  28.358   6.164
 6063POPC   GL276478  35.217  28.403   6.164
 6063POPC   C1A76479  35.322  28.352   6.464
 6063POPC   D2A76480  35.384  28.352   6.764
 6063POPC   C3A76481  35.386  28.363   7.064
 6063POPC   C4A76482  35.323  28.410   7.364
 6063POPC   C1B76483  35.083  28.431   6.464
 6063POPC   C2B76484  35.127  28.460   6.764
 6063POPC   C3B76485  35.105  28.476   7.064
 6063POPC   C4B76486  35.090  28.439   7.364
 6064POPC   NC376487   1.236   8.176   5.564
 6064POPC   PO476488   1.207   8.161   5.864
 6064POPC   GL176489   1.194   8.233   6.164
 6064POPC   GL276490   1.049   8.195   6.164
 6064POPC   C1A76491   1.256   8.172   6.464
 6064POPC   D2A76492   1.229   8.214   6.764
 6064POPC   C3A76493   1.215   8.200   7.064
 6064POPC   C4A76494   1.173   8.240   7.364
 6064POPC   C1B76495   0.938   8.140   6.464
 6064POPC   C2B76496   0.941   8.213   6.764
 6064POPC   C3B76497   0.917   8.169   7.064
 6064POPC   C4B76498   0.999   8.196   7.364
 6065POPC   NC376499  41.562  38.412   5.564
 6065POPC   PO476500  41.514  38.408   5.864
 6065POPC   GL176501  41.546  38.489   6.164
 6065POPC   GL276502  41.492  38.559   6.164
 6065POPC   C1A76503  41.542  38.505   6.464
 6065POPC   D2A76504  41.599  38.417   6.764
 6065POPC   C3A76505  41.569  38.479   7.064
 6065POPC   C4A76506  41.544  38.438   7.364
 6065POPC   C1B76507  41.445  38.641   6.464
 6065POPC   C2B76508  41.428  38.727   6.764
 6065POPC   C3B76509  41.513  38.686   7.064
 6065POPC   C4B76510  41.429  38.717   7.364
 6066POPC   NC376511  19.070  19.049   5.564
 6066POPC   PO476512  19.047  19.062   5.864
 6066POPC   GL176513  19.057  19.066   6.164
 6066POPC   GL276514  19.075  19.155   6.164
 6066POPC   C1A76515  19.033  19.012   6.464
 6066POPC   D2A76516  19.082  19.039   6.764
 6066POPC   C3A76517  19.082  19.067   7.064
 6066POPC   C4A76518  19.042  19.086   7.364
 6066POPC   C1B76519  19.034  19.338   6.464
 6066POPC   C2B76520  18.992  19.263   6.764
 6066POPC   C3B76521  19.052  19.264   7.064
 6066POPC   C4B76522  18.995  19.305   7.364
 6067POPC   NC376523  38.424  10.573   5.564
 6067POPC   PO476524  38.442  10.531   5.864
 6067POPC   GL176525  38.425  10.564   6.164
 6067POPC   GL276526  38.481  10.690   6.164
 6067POPC   C1A76527  38.418  10.511   6.464
 6067POPC   D2A76528  38.422  10.534   6.764
 6067POPC   C3A76529  38.408  10.506   7.064
 6067POPC   C4A76530  38.456  10.550   7.364
 6067POPC   C1B76531  38.505  10.823   6.464
 6067POPC   C2B76532  38.435  10.743   6.764
 6067POPC   C3B76533  38.431  10.780   7.064
 6067POPC   C4B76534  38.474  10.746   7.364
 6068POPC   NC376535  40.820  19.072   5.564
 6068POPC   PO476536  40.815  19.040   5.864
 6068POPC   GL176537  40.744  19.016   6.164
 6068POPC   GL276538  40.655  18.955   6.164
 6068POPC   C1A76539  40.758  19.010   6.464
 6068POPC   D2A76540  40.737  19.028   6.764
 6068POPC   C3A76541  40.769  19.026   7.064
 6068POPC   C4A76542  40.795  19.045   7.364
 6068POPC   C1B76543  40.636  18.900   6.464
 6068POPC   C2B76544  40.604  18.932   6.764
 6068POPC   C3B76545  40.631  18.939   7.064
 6068POPC   C4B76546  40.581  18.915   7.364
 6069POPC   NC376547  20.595  33.783   5.564
 6069POPC   PO476548  20.660  33.765   5.864
 6069POPC   GL176549  20.645  33.821   6.164
 6069POPC   GL276550  20.496  33.804   6.164
 6069POPC   C1A76551  20.584  33.805   6.464
 6069POPC   D2A76552  20.631  33.822   6.764
 6069POPC   C3A76553  20.613  33.800   7.064
 6069POPC   C4A76554  20.569  33.833   7.364
 6069POPC   C1B76555  20.333  33.735   6.464
 6069POPC   C2B76556  20.359  33.771   6.764
 6069POPC   C3B76557  20.369  33.785   7.064
 6069POPC   C4B76558  20.335  33.718   7.364
 6070POPC   NC376559  33.756  43.116   5.564
 6070POPC   PO476560  33.751  43.159   5.864
 6070POPC   GL176561  33.765  43.147   6.164
 6070POPC   GL276562  33.656  43.143   6.164
 6070POPC   C1A76563  33.787  43.129   6.464
 6070POPC   D2A76564  33.802  43.134   6.764
 6070POPC   C3A76565  33.762  43.107   7.064
 6070POPC   C4A76566  33.833  43.088   7.364
 6070POPC   C1B76567  33.545  43.176   6.464
 6070POPC   C2B76568  33.516  43.123   6.764
 6070POPC   C3B76569  33.539  43.160   7.064
 6070POPC   C4B76570  33.543  43.162   7.364
 6071POPC   NC376571  19.014   4.346   5.564
 6071POPC   PO476572  19.039   4.304   5.864
 6071POPC   GL176573  19.035   4.342   6.164
 6071POPC   GL276574  19.063   4.192   6.164
 6071POPC   C1A76575  19.014   4.294   6.464
 6071POPC   D2A76576  19.031   4.342   6.764
 6071POPC   C3A76577  19.096   4.359   7.064
 6071POPC   C4A76578  19.102   4.289   7.364
 6071POPC   C1B76579  19.015   4.099   6.464
 6071POPC   C2B76580  18.997   4.078   6.764
 6071POPC   C3B76581  19.073   4.090   7.064
 6071POPC   C4B76582  19.011   4.116   7.364
 6072POPC   NC376583  12.811  34.613   5.564
 6072POPC   PO476584  12.891  34.599   5.864
 6072POPC   GL176585  12.814  34.550   6.164
 6072POPC   GL276586  12.761  34.673   6.164
 6072POPC   C1A76587  12.806  34.572   6.464
 6072POPC   D2A76588  12.855  34.535   6.764
 6072POPC   C3A76589  12.842  34.555   7.064
 6072POPC   C4A76590  12.811  34.564   7.364
 6072POPC   C1B76591  12.674  34.745   6.464
 6072POPC   C2B76592  12.758  34.770   6.764
 6072POPC   C3B76593  12.691  34.788   7.064
 6072POPC   C4B76594  12.675  34.780   7.364
 6073POPC   NC376595  12.894  40.816   5.564
 6073POPC   PO476596  12.850  40.763   5.864
 6073POPC   GL176597  12.901  40.770   6.164
 6073POPC   GL276598  12.848  40.861   6.164
 6073POPC   C1A76599  12.888  40.766   6.464
 6073POPC   D2A76600  12.856  40.831   6.764
 6073POPC   C3A76601  12.840  40.756   7.064
 6073POPC   C4A76602  12.888  40.825   7.364
 6073POPC   C1B76603  12.773  41.007   6.464
 6073POPC   C2B76604  12.790  41.043   6.764
 6073POPC   C3B76605  12.740  41.067   7.064
 6073POPC   C4B76606  12.743  40.999   7.364
 6074POPC   NC376607  30.649   4.280   5.564
 6074POPC   PO476608  30.743   4.338   5.864
 6074POPC   GL176609  30.746   4.339   6.164
 6074POPC   GL276610  30.548   4.389   6.164
 6074POPC   C1A76611  30.668   4.285   6.464
 6074POPC   D2A76612  30.647   4.336   6.764
 6074POPC   C3A76613  30.710   4.346   7.064
 6074POPC   C4A76614  30.698   4.348   7.364
 6074POPC   C1B76615  30.479   4.443   6.464
 6074POPC   C2B76616  30.415   4.419   6.764
 6074POPC   C3B76617  30.495   4.448   7.064
 6074POPC   C4B76618  30.506   4.444   7.364
 6075POPC   NC376619   3.520   4.332   5.564
 6075POPC   PO476620   3.544   4.272   5.864
 6075POPC   GL176621   3.545   4.338   6.164
 6075POPC   GL276622   3.604   4.263   6.164
 6075POPC   C1A76623   3.574   4.293   6.464
 6075POPC   D2A76624   3.591   4.285   6.764
 6075POPC   C3A76625   3.586   4.344   7.064
 6075POPC   C4A76626   3.587   4.294   7.364
 6075POPC   C1B76627   3.772   4.210   6.464
 6075POPC   C2B76628   3.717   4.179   6.764
 6075POPC   C3B76629   3.724   4.224   7.064
 6075POPC   C4B76630   3.733   4.191   7.364
 6076POPC   NC376631  11.267  33.766   5.564
 6076POPC   PO476632  11.315  33.823   5.864
 6076POPC   GL176633  11.295  33.790   6.164
 6076POPC   GL276634  11.439  33.884   6.164
 6076POPC   C1A76635  11.251  33.826   6.464
 6076POPC   D2A76636  11.280  33.849   6.764
 6076POPC   C3A76637  11.253  33.810   7.064
 6076POPC   C4A76638  11.342  33.761   7.364
 6076POPC   C1B76639  11.562  33.892   6.464
 6076POPC   C2B76640  11.556  33.868   6.764
 6076POPC   C3B76641  11.500  33.933   7.064
 6076POPC   C4B76642  11.554  33.902   7.364
 6077POPC   NC376643  20.627  24.536   5.564
 6077POPC   PO476644  20.588  24.538   5.864
 6077POPC   GL176645  20.601  24.494   6.164
 6077POPC   GL276646  20.738  24.419   6.164
 6077POPC   C1A76647  20.592  24.476   6.464
 6077POPC   D2A76648  20.658  24.539   6.764
 6077POPC   C3A76649  20.624  24.479   7.064
 6077POPC   C4A76650  20.642  24.441   7.364
 6077POPC   C1B76651  20.812  24.339   6.464
 6077POPC   C2B76652  20.820  24.319   6.764
 6077POPC   C3B76653  20.771  24.354   7.064
 6077POPC   C4B76654  20.851  24.283   7.364
 6078POPC   NC376655  42.364  28.323   5.564
 6078POPC   PO476656  42.338  28.402   5.864
 6078POPC   GL176657  42.348  28.379   6.164
 6078POPC   GL276658  42.407  28.355   6.164
 6078POPC   C1A76659  42.378  28.355   6.464
 6078POPC   D2A76660  42.291  28.342   6.764
 6078POPC   C3A76661  42.294  28.401   7.064
 6078POPC   C4A76662  42.363  28.358   7.364
 6078POPC   C1B76663  42.558  28.289   6.464
 6078POPC   C2B76664  42.556  28.321   6.764
 6078POPC   C3B76665  42.523  28.268   7.064
 6078POPC   C4B76666  42.559  28.317   7.364
 6079POPC   NC376667  19.856  19.810   5.564
 6079POPC   PO476668  19.789  19.823   5.864
 6079POPC   GL176669  19.812  19.849   6.164
 6079POPC   GL276670  19.820  19.956   6.164
 6079POPC   C1A76671  19.826  19.801   6.464
 6079POPC   D2A76672  19.866  19.842   6.764
 6079POPC   C3A76673  19.815  19.877   7.064
 6079POPC   C4A76674  19.883  19.876   7.364
 6079POPC   C1B76675  19.845  20.079   6.464
 6079POPC   C2B76676  19.893  20.071   6.764
 6079POPC   C3B76677  19.820  20.092   7.064
 6079POPC   C4B76678  19.806  20.106   7.364
 6080POPC   NC376679  15.939  12.100   5.564
 6080POPC   PO476680  15.992  12.115   5.864
 6080POPC   GL176681  15.954  12.095   6.164
 6080POPC   GL276682  15.903  11.926   6.164
 6080POPC   C1A76683  15.935  12.111   6.464
 6080POPC   D2A76684  15.905  12.056   6.764
 6080POPC   C3A76685  15.993  12.067   7.064
 6080POPC   C4A76686  15.998  12.031   7.364
 6080POPC   C1B76687  15.840  11.898   6.464
 6080POPC   C2B76688  15.811  11.857   6.764
 6080POPC   C3B76689  15.811  11.888   7.064
 6080POPC   C4B76690  15.854  11.807   7.364
 6081POPC   NC376691  27.623  44.632   5.564
 6081POPC   PO476692  27.573  44.698   5.864
 6081POPC   GL176693  27.596  44.641   6.164
 6081POPC   GL276694  27.691  44.729   6.164
 6081POPC   C1A76695  27.599  44.639   6.464
 6081POPC   D2A76696  27.641  44.617   6.764
 6081POPC   C3A76697  27.562  44.642   7.064
 6081POPC   C4A76698  27.562  44.705   7.364
 6081POPC   C1B76699  27.770  44.829   6.464
 6081POPC   C2B76700  27.718  44.860   6.764
 6081POPC   C3B76701  27.753  44.854   7.064
 6081POPC   C4B76702  27.796  44.901   7.364
 6082POPC   NC376703  19.049  22.188   5.564
 6082POPC   PO476704  19.019  22.200   5.864
 6082POPC   GL176705  19.076  22.159   6.164
 6082POPC   GL276706  19.127  22.025   6.164
 6082POPC   C1A76707  19.033  22.208   6.464
 6082POPC   D2A76708  19.035  22.164   6.764
 6082POPC   C3A76709  19.020  22.147   7.064
 6082POPC   C4A76710  19.068  22.196   7.364
 6082POPC   C1B76711  19.097  21.914   6.464
 6082POPC   C2B76712  19.150  21.903   6.764
 6082POPC   C3B76713  19.115  21.965   7.064
 6082POPC   C4B76714  19.151  21.944   7.364
 6083POPC   NC376715  23.736   2.787   5.564
 6083POPC   PO476716  23.720   2.784   5.864
 6083POPC   GL176717  23.734   2.752   6.164
 6083POPC   GL276718  23.565   2.732   6.164
 6083POPC   C1A76719  23.717   2.725   6.464
 6083POPC   D2A76720  23.728   2.748   6.764
 6083POPC   C3A76721  23.685   2.788   7.064
 6083POPC   C4A76722  23.747   2.815   7.364
 6083POPC   C1B76723  23.506   2.762   6.464
 6083POPC   C2B76724  23.434   2.763   6.764
 6083POPC   C3B76725  23.447   2.763   7.064
 6083POPC   C4B76726  23.457   2.732   7.364
 6084POPC   NC376727  43.921  41.570   5.564
 6084POPC   PO476728  43.848  41.536   5.864
 6084POPC   GL176729  43.845  41.518   6.164
 6084POPC   GL276730  43.893  41.721   6.164
 6084POPC   C1A76731  43.924  41.574   6.464
 6084POPC   D2A76732  43.857  41.577   6.764
 6084POPC   C3A76733  43.866  41.605   7.064
 6084POPC   C4A76734  43.859  41.528   7.364
 6084POPC   C1B76735  43.814  41.800   6.464
 6084POPC   C2B76736  43.859  41.777   6.764
 6084POPC   C3B76737  43.825  41.823   7.064
 6084POPC   C4B76738  43.824  41.791   7.364
 6085POPC   NC376739  32.255  14.395   5.564
 6085POPC   PO476740  32.234  14.427   5.864
 6085POPC   GL176741  32.199  14.379   6.164
 6085POPC   GL276742  32.141  14.318   6.164
 6085POPC   C1A76743  32.287  14.446   6.464
 6085POPC   D2A76744  32.269  14.425   6.764
 6085POPC   C3A76745  32.297  14.363   7.064
 6085POPC   C4A76746  32.268  14.366   7.364
 6085POPC   C1B76747  31.990  14.310   6.464
 6085POPC   C2B76748  31.992  14.310   6.764
 6085POPC   C3B76749  31.992  14.253   7.064
 6085POPC   C4B76750  32.063  14.259   7.364
 6086POPC   NC376751  21.379  31.509   5.564
 6086POPC   PO476752  21.391  31.491   5.864
 6086POPC   GL176753  21.408  31.445   6.164
 6086POPC   GL276754  21.273  31.396   6.164
 6086POPC   C1A76755  21.362  31.514   6.464
 6086POPC   D2A76756  21.350  31.519   6.764
 6086POPC   C3A76757  21.412  31.424   7.064
 6086POPC   C4A76758  21.359  31.453   7.364
 6086POPC   C1B76759  21.191  31.374   6.464
 6086POPC   C2B76760  21.208  31.395   6.764
 6086POPC   C3B76761  21.192  31.403   7.064
 6086POPC   C4B76762  21.142  31.328   7.364
 6087POPC   NC376763   0.460  26.846   5.564
 6087POPC   PO476764   0.412  26.841   5.864
 6087POPC   GL176765   0.399  26.819   6.164
 6087POPC   GL276766   0.378  26.689   6.164
 6087POPC   C1A76767   0.472  26.797   6.464
 6087POPC   D2A76768   0.467  26.770   6.764
 6087POPC   C3A76769   0.444  26.835   7.064
 6087POPC   C4A76770   0.421  26.776   7.364
 6087POPC   C1B76771   0.237  26.604   6.464
 6087POPC   C2B76772   0.221  26.659   6.764
 6087POPC   C3B76773   0.233  26.683   7.064
 6087POPC   C4B76774   0.296  26.618   7.364
 6088POPC   NC376775  24.501  16.774   5.564
 6088POPC   PO476776  24.447  16.768   5.864
 6088POPC   GL176777  24.492  16.714   6.164
 6088POPC   GL276778  24.594  16.859   6.164
 6088POPC   C1A76779  24.534  16.734   6.464
 6088POPC   D2A76780  24.527  16.690   6.764
 6088POPC   C3A76781  24.495  16.716   7.064
 6088POPC   C4A76782  24.501  16.769   7.364
 6088POPC   C1B76783  24.655  16.881   6.464
 6088POPC   C2B76784  24.668  16.904   6.764
 6088POPC   C3B76785  24.707  16.894   7.064
 6088POPC   C4B76786  24.629  16.879   7.364
 6089POPC   NC376787  24.465   0.431   5.564
 6089POPC   PO476788  24.505   0.461   5.864
 6089POPC   GL176789  24.488   0.455   6.164
 6089POPC   GL276790  24.371   0.497   6.164
 6089POPC   C1A76791  24.446   0.449   6.464
 6089POPC   D2A76792  24.470   0.469   6.764
 6089POPC   C3A76793  24.460   0.411   7.064
 6089POPC   C4A76794  24.457   0.475   7.364
 6089POPC   C1B76795  24.279   0.629   6.464
 6089POPC   C2B76796  24.261   0.588   6.764
 6089POPC   C3B76797  24.351   0.631   7.064
 6089POPC   C4B76798  24.300   0.625   7.364
 6090POPC   NC376799  25.223  23.678   5.564
 6090POPC   PO476800  25.274  23.678   5.864
 6090POPC   GL176801  25.246  23.672   6.164
 6090POPC   GL276802  25.101  23.706   6.164
 6090POPC   C1A76803  25.262  23.711   6.464
 6090POPC   D2A76804  25.281  23.675   6.764
 6090POPC   C3A76805  25.263  23.715   7.064
 6090POPC   C4A76806  25.297  23.683   7.364
 6090POPC   C1B76807  25.049  23.693   6.464
 6090POPC   C2B76808  24.982  23.657   6.764
 6090POPC   C3B76809  25.032  23.612   7.064
 6090POPC   C4B76810  24.984  23.643   7.364
 6091POPC   NC376811   7.397   1.197   5.564
 6091POPC   PO476812   7.379   1.200   5.864
 6091POPC   GL176813   7.396   1.193   6.164
 6091POPC   GL276814   7.403   1.138   6.164
 6091POPC   C1A76815   7.390   1.232   6.464
 6091POPC   D2A76816   7.383   1.197   6.764
 6091POPC   C3A76817   7.374   1.226   7.064
 6091POPC   C4A76818   7.454   1.187   7.364
 6091POPC   C1B76819   7.415   0.981   6.464
 6091POPC   C2B76820   7.473   0.969   6.764
 6091POPC   C3B76821   7.428   0.953   7.064
 6091POPC   C4B76822   7.381   0.987   7.364
 6092POPC   NC376823  36.119  22.974   5.564
 6092POPC   PO476824  36.100  22.910   5.864
 6092POPC   GL176825  36.118  22.933   6.164
 6092POPC   GL276826  35.979  22.866   6.164
 6092POPC   C1A76827  36.095  22.948   6.464
 6092POPC   D2A76828  36.135  22.984   6.764
 6092POPC   C3A76829  36.137  22.936   7.064
 6092POPC   C4A76830  36.123  22.894   7.364
 6092POPC   C1B76831  35.908  22.812   6.464
 6092POPC   C2B76832  35.866  22.771   6.764
 6092POPC   C3B76833  35.871  22.855   7.064
 6092POPC   C4B76834  35.946  22.845   7.364
 6093POPC   NC376835  18.273  32.200   5.564
 6093POPC   PO476836  18.316  32.231   5.864
 6093POPC   GL176837  18.295  32.209   6.164
 6093POPC   GL276838  18.322  32.150   6.164
 6093POPC   C1A76839  18.327  32.236   6.464
 6093POPC   D2A76840  18.329  32.199   6.764
 6093POPC   C3A76841  18.324  32.295   7.064
 6093POPC   C4A76842  18.292  32.271   7.364
 6093POPC   C1B76843  18.385  31.982   6.464
 6093POPC   C2B76844  18.392  32.027   6.764
 6093POPC   C3B76845  18.419  32.064   7.064
 6093POPC   C4B76846  18.429  32.059   7.364
 6094POPC   NC376847   0.436  41.560   5.564
 6094POPC   PO476848   0.429  41.541   5.864
 6094POPC   GL176849   0.389  41.573   6.164
 6094POPC   GL276850   0.340  41.512   6.164
 6094POPC   C1A76851   0.410  41.602   6.464
 6094POPC   D2A76852   0.422  41.599   6.764
 6094POPC   C3A76853   0.459  41.522   7.064
 6094POPC   C4A76854   0.479  41.600   7.364
 6094POPC   C1B76855   0.200  41.468   6.464
 6094POPC   C2B76856   0.223  41.516   6.764
 6094POPC   C3B76857   0.174  41.452   7.064
 6094POPC   C4B76858   0.161  41.501   7.364
 6095POPC   NC376859  31.440   6.675   5.564
 6095POPC   PO476860  31.469   6.654   5.864
 6095POPC   GL176861  31.450   6.665   6.164
 6095POPC   GL276862  31.577   6.637   6.164
 6095POPC   C1A76863  31.467   6.627   6.464
 6095POPC   D2A76864  31.497   6.655   6.764
 6095POPC   C3A76865  31.512   6.668   7.064
 6095POPC   C4A76866  31.514   6.679   7.364
 6095POPC   C1B76867  31.687   6.650   6.464
 6095POPC   C2B76868  31.708   6.634   6.764
 6095POPC   C3B76869  31.729   6.654   7.064
 6095POPC   C4B76870  31.677   6.646   7.364
 6096POPC   NC376871   4.312  39.214   5.564
 6096POPC   PO476872   4.277  39.253   5.864
 6096POPC   GL176873   4.357  39.259   6.164
 6096POPC   GL276874   4.467  39.233   6.164
 6096POPC   C1A76875   4.335  39.272   6.464
 6096POPC   D2A76876   4.309  39.218   6.764
 6096POPC   C3A76877   4.299  39.271   7.064
 6096POPC   C4A76878   4.290  39.251   7.364
 6096POPC   C1B76879   4.525  39.320   6.464
 6096POPC   C2B76880   4.528  39.281   6.764
 6096POPC   C3B76881   4.588  39.297   7.064
 6096POPC   C4B76882   4.563  39.363   7.364
 6097POPC   NC376883  33.064  21.357   5.564
 6097POPC   PO476884  33.054  21.368   5.864
 6097POPC   GL176885  32.979  21.387   6.164
 6097POPC   GL276886  33.166  21.441   6.164
 6097POPC   C1A76887  33.031  21.430   6.464
 6097POPC   D2A76888  33.058  21.383   6.764
 6097POPC   C3A76889  33.030  21.346   7.064
 6097POPC   C4A76890  32.987  21.404   7.364
 6097POPC   C1B76891  33.264  21.472   6.464
 6097POPC   C2B76892  33.286  21.545   6.764
 6097POPC   C3B76893  33.262  21.534   7.064
 6097POPC   C4B76894  33.226  21.484   7.364
 6098POPC   NC376895  12.816  38.476   5.564
 6098POPC   PO476896  12.860  38.480   5.864
 6098POPC   GL176897  12.852  38.409   6.164
 6098POPC   GL276898  12.934  38.539   6.164
 6098POPC   C1A76899  12.856  38.473   6.464
 6098POPC   D2A76900  12.890  38.448   6.764
 6098POPC   C3A76901  12.884  38.454   7.064
 6098POPC   C4A76902  12.806  38.437   7.364
 6098POPC   C1B76903  13.090  38.609   6.464
 6098POPC   C2B76904  13.091  38.589   6.764
 6098POPC   C3B76905  13.071  38.553   7.064
 6098POPC   C4B76906  13.017  38.620   7.364
 6099POPC   NC376907  18.289  15.942   5.564
 6099POPC   PO476908  18.272  15.941   5.864
 6099POPC   GL176909  18.271  15.958   6.164
 6099POPC   GL276910  18.210  16.088   6.164
 6099POPC   C1A76911  18.246  15.914   6.464
 6099POPC   D2A76912  18.247  15.992   6.764
 6099POPC   C3A76913  18.299  15.907   7.064
 6099POPC   C4A76914  18.293  15.918   7.364
 6099POPC   C1B76915  18.071  16.147   6.464
 6099POPC   C2B76916  18.114  16.115   6.764
 6099POPC   C3B76917  18.072  16.126   7.064
 6099POPC   C4B76918  18.132  16.112   7.364
 6100POPC   NC376919  26.774  38.482   5.564
 6100POPC   PO476920  26.809  38.424   5.864
 6100POPC   GL176921  26.770  38.454   6.164
 6100POPC   GL276922  26.681  38.460   6.164
 6100POPC   C1A76923  26.851  38.435   6.464
 6100POPC   D2A76924  26.776  38.419   6.764
 6100POPC   C3A76925  26.799  38.466   7.064
 6100POPC   C4A76926  26.819  38.494   7.364
 6100POPC   C1B76927  26.541  38.565   6.464
 6100POPC   C2B76928  26.583  38.538   6.764
 6100POPC   C3B76929  26.572  38.565   7.064
 6100POPC   C4B76930  26.553  38.575   7.364
 6101POPC   NC376931   5.062  15.167   5.564
 6101POPC   PO476932   5.105  15.166   5.864
 6101POPC   GL176933   5.108  15.170   6.164
 6101POPC   GL276934   4.998  15.203   6.164
 6101POPC   C1A76935   5.056  15.173   6.464
 6101POPC   D2A76936   5.099  15.158   6.764
 6101POPC   C3A76937   5.107  15.190   7.064
 6101POPC   C4A76938   5.051  15.224   7.364
 6101POPC   C1B76939   4.831  15.232   6.464
 6101POPC   C2B76940   4.867  15.187   6.764
 6101POPC   C3B76941   4.814  15.205   7.064
 6101POPC   C4B76942   4.829  15.224   7.364
 6102POPC   NC376943   8.941  37.636   5.564
 6102POPC   PO476944   8.996  37.681   5.864
 6102POPC   GL176945   9.005  37.630   6.164
 6102POPC   GL276946   9.073  37.812   6.164
 6102POPC   C1A76947   8.930  37.643   6.464
 6102POPC   D2A76948   8.957  37.689   6.764
 6102POPC   C3A76949   8.970  37.713   7.064
 6102POPC   C4A76950   8.987  37.669   7.364
 6102POPC   C1B76951   9.054  37.931   6.464
 6102POPC   C2B76952   9.121  37.869   6.764
 6102POPC   C3B76953   9.075  37.924   7.064
 6102POPC   C4B76954   9.050  37.946   7.364
 6103POPC   NC376955   6.645  33.068   5.564
 6103POPC   PO476956   6.684  33.060   5.864
 6103POPC   GL176957   6.663  33.020   6.164
 6103POPC   GL276958   6.816  33.013   6.164
 6103POPC   C1A76959   6.648  33.073   6.464
 6103POPC   D2A76960   6.666  33.031   6.764
 6103POPC   C3A76961   6.597  32.991   7.064
 6103POPC   C4A76962   6.675  32.988   7.364
 6103POPC   C1B76963   6.858  33.010   6.464
 6103POPC   C2B76964   6.885  32.928   6.764
 6103POPC   C3B76965   6.921  32.984   7.064
 6103POPC   C4B76966   6.921  32.935   7.364
 6104POPC   NC376967  42.358  10.498   5.564
 6104POPC   PO476968  42.338  10.483   5.864
 6104POPC   GL176969  42.285  10.496   6.164
 6104POPC   GL276970  42.267  10.435   6.164
 6104POPC   C1A76971  42.348  10.544   6.464
 6104POPC   D2A76972  42.339  10.533   6.764
 6104POPC   C3A76973  42.370  10.544   7.064
 6104POPC   C4A76974  42.324  10.494   7.364
 6104POPC   C1B76975  42.195  10.320   6.464
 6104POPC   C2B76976  42.190  10.351   6.764
 6104POPC   C3B76977  42.193  10.362   7.064
 6104POPC   C4B76978  42.155  10.345   7.364
 6105POPC   NC376979  12.072  41.523   5.564
 6105POPC   PO476980  12.094  41.523   5.864
 6105POPC   GL176981  12.121  41.527   6.164
 6105POPC   GL276982  12.008  41.477   6.164
 6105POPC   C1A76983  12.107  41.518   6.464
 6105POPC   D2A76984  12.084  41.516   6.764
 6105POPC   C3A76985  12.073  41.533   7.064
 6105POPC   C4A76986  12.091  41.512   7.364
 6105POPC   C1B76987  11.994  41.319   6.464
 6105POPC   C2B76988  11.967  41.328   6.764
 6105POPC   C3B76989  11.979  41.366   7.064
 6105POPC   C4B76990  11.998  41.292   7.364
 6106POPC   NC376991  15.211   7.389   5.564
 6106POPC   PO476992  15.219   7.413   5.864
 6106POPC   GL176993  15.201   7.391   6.164
 6106POPC   GL276994  15.246   7.507   6.164
 6106POPC   C1A76995  15.192   7.378   6.464
 6106POPC   D2A76996  15.136   7.451   6.764
 6106POPC   C3A76997  15.159   7.406   7.064
 6106POPC   C4A76998  15.188   7.450   7.364
 6106POPC   C1B76999  15.311   7.679   6.464
 6106POPC   C2B77000  15.327   7.585   6.764
 6106POPC   C3B77001  15.293   7.637   7.064
 6106POPC   C4B77002  15.323   7.599   7.364
 6107POPC   NC377003  40.809   2.026   5.564
 6107POPC   PO477004  40.831   1.981   5.864
 6107POPC   GL177005  40.743   2.035   6.164
 6107POPC   GL277006  40.947   2.051   6.164
 6107POPC   C1A77007  40.808   2.007   6.464
 6107POPC   D2A77008  40.741   1.986   6.764
 6107POPC   C3A77009  40.800   1.940   7.064
 6107POPC   C4A77010  40.777   2.038   7.364
 6107POPC   C1B77011  41.017   1.998   6.464
 6107POPC   C2B77012  41.002   2.036   6.764
 6107POPC   C3B77013  41.007   2.086   7.064
 6107POPC   C4B77014  40.996   2.012   7.364
 6108POPC   NC377015  44.711  28.389   5.564
 6108POPC   PO477016  44.688  28.320   5.864
 6108POPC   GL177017  44.689  28.399   6.164
 6108POPC   GL277018  44.707  28.461   6.164
 6108POPC   C1A77019  44.612  28.391   6.464
 6108POPC   D2A77020  44.640  28.354   6.764
 6108POPC   C3A77021  44.651  28.410   7.064
 6108POPC   C4A77022  44.659  28.370   7.364
 6108POPC   C1B77023  44.728  28.629   6.464
 6108POPC   C2B77024  44.696  28.582   6.764
 6108POPC   C3B77025  44.686  28.627   7.064
 6108POPC   C4B77026  44.682  28.595   7.364
 6109POPC   NC377027  12.891   6.677   5.564
 6109POPC   PO477028  12.884   6.645   5.864
 6109POPC   GL177029  12.832   6.606   6.164
 6109POPC   GL277030  12.850   6.478   6.164
 6109POPC   C1A77031  12.859   6.672   6.464
 6109POPC   D2A77032  12.875   6.650   6.764
 6109POPC   C3A77033  12.808   6.632   7.064
 6109POPC   C4A77034  12.819   6.639   7.364
 6109POPC   C1B77035  12.941   6.440   6.464
 6109POPC   C2B77036  12.943   6.394   6.764
 6109POPC   C3B77037  12.954   6.453   7.064
 6109POPC   C4B77038  12.966   6.404   7.364
 6110POPC   NC377039  29.153  26.071   5.564
 6110POPC   PO477040  29.150  26.020   5.864
 6110POPC   GL177041  29.176  26.037   6.164
 6110POPC   GL277042  29.107  25.946   6.164
 6110POPC   C1A77043  29.096  26.040   6.464
 6110POPC   D2A77044  29.133  26.090   6.764
 6110POPC   C3A77045  29.150  26.089   7.064
 6110POPC   C4A77046  29.144  26.008   7.364
 6110POPC   C1B77047  29.117  25.788   6.464
 6110POPC   C2B77048  29.056  25.764   6.764
 6110POPC   C3B77049  29.096  25.750   7.064
 6110POPC   C4B77050  29.104  25.753   7.364
 6111POPC   NC377051  15.955  15.980   5.564
 6111POPC   PO477052  15.994  15.975   5.864
 6111POPC   GL177053  16.004  15.934   6.164
 6111POPC   GL277054  16.074  15.994   6.164
 6111POPC   C1A77055  15.943  15.906   6.464
 6111POPC   D2A77056  15.939  16.004   6.764
 6111POPC   C3A77057  15.981  15.993   7.064
 6111POPC   C4A77058  15.981  15.926   7.364
 6111POPC   C1B77059  16.229  15.985   6.464
 6111POPC   C2B77060  16.204  16.027   6.764
 6111POPC   C3B77061  16.233  16.034   7.064
 6111POPC   C4B77062  16.169  15.975   7.364
 6112POPC   NC377063  15.190  18.258   5.564
 6112POPC   PO477064  15.166  18.279   5.864
 6112POPC   GL177065  15.174  18.243   6.164
 6112POPC   GL277066  15.063  18.189   6.164
 6112POPC   C1A77067  15.162  18.238   6.464
 6112POPC   D2A77068  15.163  18.269   6.764
 6112POPC   C3A77069  15.136  18.310   7.064
 6112POPC   C4A77070  15.163  18.240   7.364
 6112POPC   C1B77071  14.995  18.081   6.464
 6112POPC   C2B77072  15.079  18.102   6.764
 6112POPC   C3B77073  15.033  18.035   7.064
 6112POPC   C4B77074  15.025  18.052   7.364
 6113POPC   NC377075  30.677  38.443   5.564
 6113POPC   PO477076  30.664  38.487   5.864
 6113POPC   GL177077  30.696  38.481   6.164
 6113POPC   GL277078  30.780  38.588   6.164
 6113POPC   C1A77079  30.741  38.406   6.464
 6113POPC   D2A77080  30.707  38.436   6.764
 6113POPC   C3A77081  30.739  38.437   7.064
 6113POPC   C4A77082  30.690  38.474   7.364
 6113POPC   C1B77083  30.832  38.695   6.464
 6113POPC   C2B77084  30.843  38.685   6.764
 6113POPC   C3B77085  30.809  38.637   7.064
 6113POPC   C4B77086  30.821  38.699   7.364
 6114POPC   NC377087  12.901  26.780   5.564
 6114POPC   PO477088  12.901  26.774   5.864
 6114POPC   GL177089  12.881  26.827   6.164
 6114POPC   GL277090  12.971  26.934   6.164
 6114POPC   C1A77091  12.857  26.777   6.464
 6114POPC   D2A77092  12.821  26.823   6.764
 6114POPC   C3A77093  12.813  26.809   7.064
 6114POPC   C4A77094  12.873  26.796   7.364
 6114POPC   C1B77095  13.025  26.928   6.464
 6114POPC   C2B77096  13.020  26.983   6.764
 6114POPC   C3B77097  13.009  26.950   7.064
 6114POPC   C4B77098  13.040  26.938   7.364
 6115POPC   NC377099  29.114  30.719   5.564
 6115POPC   PO477100  29.128  30.746   5.864
 6115POPC   GL177101  29.126  30.727   6.164
 6115POPC   GL277102  29.147  30.588   6.164
 6115POPC   C1A77103  29.124  30.655   6.464
 6115POPC   D2A77104  29.195  30.671   6.764
 6115POPC   C3A77105  29.169  30.716   7.064
 6115POPC   C4A77106  29.156  30.686   7.364
 6115POPC   C1B77107  29.083  30.432   6.464
 6115POPC   C2B77108  29.108  30.461   6.764
 6115POPC   C3B77109  29.093  30.492   7.064
 6115POPC   C4B77110  29.109  30.478   7.364
 6116POPC   NC377111  43.887   1.231   5.564
 6116POPC   PO477112  43.885   1.207   5.864
 6116POPC   GL177113  43.854   1.176   6.164
 6116POPC   GL277114  43.814   1.209   6.164
 6116POPC   C1A77115  43.923   1.174   6.464
 6116POPC   D2A77116  43.855   1.263   6.764
 6116POPC   C3A77117  43.882   1.214   7.064
 6116POPC   C4A77118  43.921   1.209   7.364
 6116POPC   C1B77119  43.674   1.162   6.464
 6116POPC   C2B77120  43.694   1.115   6.764
 6116POPC   C3B77121  43.663   1.128   7.064
 6116POPC   C4B77122  43.629   1.071   7.364
 6117POPC   NC377123   2.810  25.256   5.564
 6117POPC   PO477124   2.734  25.261   5.864
 6117POPC   GL177125   2.774  25.277   6.164
 6117POPC   GL277126   2.694  25.340   6.164
 6117POPC   C1A77127   2.803  25.224   6.464
 6117POPC   D2A77128   2.720  25.236   6.764
 6117POPC   C3A77129   2.721  25.258   7.064
 6117POPC   C4A77130   2.747  25.244   7.364
 6117POPC   C1B77131   2.732  25.536   6.464
 6117POPC   C2B77132   2.738  25.517   6.764
 6117POPC   C3B77133   2.731  25.544   7.064
 6117POPC   C4B77134   2.730  25.492   7.364
 6118POPC   NC377135  26.855  43.921   5.564
 6118POPC   PO477136  26.776  43.898   5.864
 6118POPC   GL177137  26.851  43.923   6.164
 6118POPC   GL277138  26.673  43.892   6.164
 6118POPC   C1A77139  26.789  43.896   6.464
 6118POPC   D2A77140  26.844  43.854   6.764
 6118POPC   C3A77141  26.797  43.855   7.064
 6118POPC   C4A77142  26.863  43.898   7.364
 6118POPC   C1B77143  26.539  43.873   6.464
 6118POPC   C2B77144  26.542  43.871   6.764
 6118POPC   C3B77145  26.615  43.874   7.064
 6118POPC   C4B77146  26.597  43.822   7.364
 6119POPC   NC377147  22.137  32.984   5.564
 6119POPC   PO477148  22.177  32.976   5.864
 6119POPC   GL177149  22.162  32.994   6.164
 6119POPC   GL277150  22.066  32.962   6.164
 6119POPC   C1A77151  22.202  32.982   6.464
 6119POPC   D2A77152  22.173  33.011   6.764
 6119POPC   C3A77153  22.203  33.012   7.064
 6119POPC   C4A77154  22.173  32.993   7.364
 6119POPC   C1B77155  21.968  32.893   6.464
 6119POPC   C2B77156  21.970  32.944   6.764
 6119POPC   C3B77157  21.947  32.947   7.064
 6119POPC   C4B77158  21.915  32.926   7.364
 6120POPC   NC377159  34.546   1.220   5.564
 6120POPC   PO477160  34.568   1.190   5.864
 6120POPC   GL177161  34.571   1.243   6.164
 6120POPC   GL277162  34.676   1.171   6.164
 6120POPC   C1A77163  34.606   1.237   6.464
 6120POPC   D2A77164  34.582   1.245   6.764
 6120POPC   C3A77165  34.534   1.217   7.064
 6120POPC   C4A77166  34.546   1.204   7.364
 6120POPC   C1B77167  34.756   1.090   6.464
 6120POPC   C2B77168  34.800   1.018   6.764
 6120POPC   C3B77169  34.822   1.106   7.064
 6120POPC   C4B77170  34.786   1.098   7.364
 6121POPC   NC377171  35.392  39.207   5.564
 6121POPC   PO477172  35.396  39.203   5.864
 6121POPC   GL177173  35.351  39.195   6.164
 6121POPC   GL277174  35.192  39.164   6.164
 6121POPC   C1A77175  35.367  39.214   6.464
 6121POPC   D2A77176  35.316  39.204   6.764
 6121POPC   C3A77177  35.302  39.240   7.064
 6121POPC   C4A77178  35.332  39.259   7.364
 6121POPC   C1B77179  35.096  39.210   6.464
 6121POPC   C2B77180  35.132  39.222   6.764
 6121POPC   C3B77181  35.061  39.192   7.064
 6121POPC   C4B77182  35.129  39.152   7.364
 6122POPC   NC377183  11.254  40.034   5.564
 6122POPC   PO477184  11.251  40.013   5.864
 6122POPC   GL177185  11.325  39.976   6.164
 6122POPC   GL277186  11.269  40.139   6.164
 6122POPC   C1A77187  11.276  39.997   6.464
 6122POPC   D2A77188  11.347  40.011   6.764
 6122POPC   C3A77189  11.316  40.040   7.064
 6122POPC   C4A77190  11.292  39.986   7.364
 6122POPC   C1B77191  11.182  40.230   6.464
 6122POPC   C2B77192  11.146  40.177   6.764
 6122POPC   C3B77193  11.188  40.242   7.064
 6122POPC   C4B77194  11.180  40.199   7.364
 6123POPC   NC377195  33.754  19.851   5.564
 6123POPC   PO477196  33.813  19.810   5.864
 6123POPC   GL177197  33.842  19.795   6.164
 6123POPC   GL277198  33.780  19.742   6.164
 6123POPC   C1A77199  33.781  19.803   6.464
 6123POPC   D2A77200  33.787  19.788   6.764
 6123POPC   C3A77201  33.815  19.809   7.064
 6123POPC   C4A77202  33.764  19.849   7.364
 6123POPC   C1B77203  33.693  19.562   6.464
 6123POPC   C2B77204  33.749  19.649   6.764
 6123POPC   C3B77205  33.663  19.648   7.064
 6123POPC   C4B77206  33.718  19.592   7.364
 6124POPC   NC377207  26.786  26.079   5.564
 6124POPC   PO477208  26.788  26.029   5.864
 6124POPC   GL177209  26.843  25.994   6.164
 6124POPC   GL277210  26.802  25.965   6.164
 6124POPC   C1A77211  26.844  26.065   6.464
 6124POPC   D2A77212  26.823  26.048   6.764
 6124POPC   C3A77213  26.799  26.087   7.064
 6124POPC   C4A77214  26.857  26.024   7.364
 6124POPC   C1B77215  26.761  25.784   6.464
 6124POPC   C2B77216  26.776  25.761   6.764
 6124POPC   C3B77217  26.841  25.789   7.064
 6124POPC   C4B77218  26.827  25.808   7.364
 6125POPC   NC377219  10.538  13.620   5.564
 6125POPC   PO477220  10.519  13.668   5.864
 6125POPC   GL177221  10.503  13.645   6.164
 6125POPC   GL277222  10.605  13.637   6.164
 6125POPC   C1A77223  10.571  13.656   6.464
 6125POPC   D2A77224  10.518  13.600   6.764
 6125POPC   C3A77225  10.545  13.579   7.064
 6125POPC   C4A77226  10.532  13.584   7.364
 6125POPC   C1B77227  10.732  13.524   6.464
 6125POPC   C2B77228  10.764  13.575   6.764
 6125POPC   C3B77229  10.731  13.556   7.064
 6125POPC   C4B77230  10.773  13.529   7.364
 6126POPC   NC377231  29.926  22.926   5.564
 6126POPC   PO477232  29.888  22.897   5.864
 6126POPC   GL177233  29.934  22.893   6.164
 6126POPC   GL277234  29.889  23.022   6.164
 6126POPC   C1A77235  29.907  22.975   6.464
 6126POPC   D2A77236  29.901  22.946   6.764
 6126POPC   C3A77237  29.967  22.975   7.064
 6126POPC   C4A77238  29.909  22.915   7.364
 6126POPC   C1B77239  29.804  23.144   6.464
 6126POPC   C2B77240  29.748  23.171   6.764
 6126POPC   C3B77241  29.768  23.099   7.064
 6126POPC   C4B77242  29.785  23.177   7.364
 6127POPC   NC377243  33.822  44.647   5.564
 6127POPC   PO477244  33.777  44.676   5.864
 6127POPC   GL177245  33.846  44.636   6.164
 6127POPC   GL277246  33.672  44.693   6.164
 6127POPC   C1A77247  33.789  44.701   6.464
 6127POPC   D2A77248  33.776  44.710   6.764
 6127POPC   C3A77249  33.792  44.685   7.064
 6127POPC   C4A77250  33.767  44.704   7.364
 6127POPC   C1B77251  33.626  44.812   6.464
 6127POPC   C2B77252  33.622  44.820   6.764
 6127POPC   C3B77253  33.596  44.772   7.064
 6127POPC   C4B77254  33.604  44.774   7.364
 6128POPC   NC377255  12.865  15.135   5.564
 6128POPC   PO477256  12.885  15.205   5.864
 6128POPC   GL177257  12.887  15.223   6.164
 6128POPC   GL277258  12.831  15.282   6.164
 6128POPC   C1A77259  12.891  15.146   6.464
 6128POPC   D2A77260  12.877  15.194   6.764
 6128POPC   C3A77261  12.820  15.213   7.064
 6128POPC   C4A77262  12.851  15.188   7.364
 6128POPC   C1B77263  12.769  15.466   6.464
 6128POPC   C2B77264  12.816  15.412   6.764
 6128POPC   C3B77265  12.804  15.420   7.064
 6128POPC   C4B77266  12.828  15.378   7.364
 6129POPC   NC377267  43.930  40.763   5.564
 6129POPC   PO477268  43.885  40.816   5.864
 6129POPC   GL177269  43.902  40.804   6.164
 6129POPC   GL277270  43.788  40.906   6.164
 6129POPC   C1A77271  43.925  40.806   6.464
 6129POPC   D2A77272  43.898  40.767   6.764
 6129POPC   C3A77273  43.863  40.805   7.064
 6129POPC   C4A77274  43.890  40.828   7.364
 6129POPC   C1B77275  43.748  41.017   6.464
 6129POPC   C2B77276  43.734  40.996   6.764
 6129POPC   C3B77277  43.740  41.007   7.064
 6129POPC   C4B77278  43.769  41.020   7.364
 6130POPC   NC377279  23.712   5.850   5.564
 6130POPC   PO477280  23.758   5.899   5.864
 6130POPC   GL177281  23.666   5.835   6.164
 6130POPC   GL277282  23.804   5.931   6.164
 6130POPC   C1A77283  23.704   5.864   6.464
 6130POPC   D2A77284  23.697   5.906   6.764
 6130POPC   C3A77285  23.703   5.909   7.064
 6130POPC   C4A77286  23.680   5.904   7.364
 6130POPC   C1B77287  23.896   6.070   6.464
 6130POPC   C2B77288  23.821   6.065   6.764
 6130POPC   C3B77289  23.848   6.036   7.064
 6130POPC   C4B77290  23.813   6.126   7.364
 6131POPC   NC377291  34.601  30.693   5.564
 6131POPC   PO477292  34.530  30.691   5.864
 6131POPC   GL177293  34.527  30.719   6.164
 6131POPC   GL277294  34.619  30.599   6.164
 6131POPC   C1A77295  34.566  30.652   6.464
 6131POPC   D2A77296  34.550  30.743   6.764
 6131POPC   C3A77297  34.557  30.728   7.064
 6131POPC   C4A77298  34.596  30.713   7.364
 6131POPC   C1B77299  34.629  30.457   6.464
 6131POPC   C2B77300  34.589  30.408   6.764
 6131POPC   C3B77301  34.556  30.436   7.064
 6131POPC   C4B77302  34.559  30.490   7.364
 6132POPC   NC377303  28.405  43.874   5.564
 6132POPC   PO477304  28.338  43.843   5.864
 6132POPC   GL177305  28.405  43.838   6.164
 6132POPC   GL277306  28.413  44.027   6.164
 6132POPC   C1A77307  28.360  43.905   6.464
 6132POPC   D2A77308  28.327  43.912   6.764
 6132POPC   C3A77309  28.348  43.856   7.064
 6132POPC   C4A77310  28.393  43.886   7.364
 6132POPC   C1B77311  28.474  44.110   6.464
 6132POPC   C2B77312  28.462  44.108   6.764
 6132POPC   C3B77313  28.426  44.092   7.064
 6132POPC   C4B77314  28.418  44.094   7.364
 6133POPC   NC377315   3.546  14.452   5.564
 6133POPC   PO477316   3.560  14.394   5.864
 6133POPC   GL177317   3.574  14.404   6.164
 6133POPC   GL277318   3.437  14.474   6.164
 6133POPC   C1A77319   3.503  14.421   6.464
 6133POPC   D2A77320   3.557  14.377   6.764
 6133POPC   C3A77321   3.506  14.364   7.064
 6133POPC   C4A77322   3.589  14.406   7.364
 6133POPC   C1B77323   3.346  14.433   6.464
 6133POPC   C2B77324   3.310  14.419   6.764
 6133POPC   C3B77325   3.291  14.502   7.064
 6133POPC   C4B77326   3.297  14.506   7.364
 6134POPC   NC377327   8.228  43.913   5.564
 6134POPC   PO477328   8.147  43.930   5.864
 6134POPC   GL177329   8.212  43.851   6.164
 6134POPC   GL277330   8.281  43.988   6.164
 6134POPC   C1A77331   8.164  43.875   6.464
 6134POPC   D2A77332   8.166  43.923   6.764
 6134POPC   C3A77333   8.173  43.850   7.064
 6134POPC   C4A77334   8.175  43.875   7.364
 6134POPC   C1B77335   8.411  44.050   6.464
 6134POPC   C2B77336   8.390  44.039   6.764
 6134POPC   C3B77337   8.424  44.049   7.064
 6134POPC   C4B77338   8.410  44.010   7.364
 6135POPC   NC377339  43.911   5.075   5.564
 6135POPC   PO477340  43.847   5.101   5.864
 6135POPC   GL177341  43.916   5.065   6.164
 6135POPC   GL277342  43.974   4.980   6.164
 6135POPC   C1A77343  43.839   5.082   6.464
 6135POPC   D2A77344  43.870   5.090   6.764
 6135POPC   C3A77345  43.897   5.097   7.064
 6135POPC   C4A77346  43.858   5.049   7.364
 6135POPC   C1B77347  43.946   4.903   6.464
 6135POPC   C2B77348  43.963   4.866   6.764
 6135POPC   C3B77349  43.977   4.847   7.064
 6135POPC   C4B77350  43.988   4.906   7.364
 6136POPC   NC377351  32.975  13.593   5.564
 6136POPC   PO477352  32.976  13.596   5.864
 6136POPC   GL177353  33.009  13.645   6.164
 6136POPC   GL277354  33.124  13.550   6.164
 6136POPC   C1A77355  32.985  13.627   6.464
 6136POPC   D2A77356  33.028  13.578   6.764
 6136POPC   C3A77357  33.000  13.620   7.064
 6136POPC   C4A77358  33.014  13.622   7.364
 6136POPC   C1B77359  33.238  13.439   6.464
 6136POPC   C2B77360  33.160  13.400   6.764
 6136POPC   C3B77361  33.155  13.450   7.064
 6136POPC   C4B77362  33.229  13.492   7.364
 6137POPC   NC377363  12.847   2.737   5.564
 6137POPC   PO477364  12.895   2.747   5.864
 6137POPC   GL177365  12.832   2.751   6.164
 6137POPC   GL277366  12.742   2.754   6.164
 6137POPC   C1A77367  12.860   2.789   6.464
 6137POPC   D2A77368  12.883   2.808   6.764
 6137POPC   C3A77369  12.846   2.772   7.064
 6137POPC   C4A77370  12.868   2.738   7.364
 6137POPC   C1B77371  12.593   2.719   6.464
 6137POPC   C2B77372  12.559   2.672   6.764
 6137POPC   C3B77373  12.646   2.673   7.064
 6137POPC   C4B77374  12.641   2.717   7.364
 6138POPC   NC377375  15.957  15.194   5.564
 6138POPC   PO477376  15.982  15.173   5.864
 6138POPC   GL177377  15.996  15.153   6.164
 6138POPC   GL277378  15.981  15.318   6.164
 6138POPC   C1A77379  15.922  15.154   6.464
 6138POPC   D2A77380  15.981  15.143   6.764
 6138POPC   C3A77381  15.942  15.184   7.064
 6138POPC   C4A77382  15.967  15.160   7.364
 6138POPC   C1B77383  16.088  15.436   6.464
 6138POPC   C2B77384  16.131  15.441   6.764
 6138POPC   C3B77385  16.131  15.442   7.064
 6138POPC   C4B77386  16.053  15.425   7.364
 6139POPC   NC377387  21.377   5.086   5.564
 6139POPC   PO477388  21.417   5.062   5.864
 6139POPC   GL177389  21.345   5.062   6.164
 6139POPC   GL277390  21.291   4.977   6.164
 6139POPC   C1A77391  21.374   5.124   6.464
 6139POPC   D2A77392  21.424   5.117   6.764
 6139POPC   C3A77393  21.364   5.121   7.064
 6139POPC   C4A77394  21.411   5.054   7.364
 6139POPC   C1B77395  21.279   4.867   6.464
 6139POPC   C2B77396  21.324   4.908   6.764
 6139POPC   C3B77397  21.239   4.836   7.064
 6139POPC   C4B77398  21.235   4.878   7.364
 6140POPC   NC377399  19.027  29.180   5.564
 6140POPC   PO477400  19.092  29.102   5.864
 6140POPC   GL177401  19.022  29.100   6.164
 6140POPC   GL277402  19.120  29.281   6.164
 6140POPC   C1A77403  19.030  29.098   6.464
 6140POPC   D2A77404  19.045  29.191   6.764
 6140POPC   C3A77405  19.057  29.139   7.064
 6140POPC   C4A77406  19.071  29.136   7.364
 6140POPC   C1B77407  19.211  29.362   6.464
 6140POPC   C2B77408  19.183  29.364   6.764
 6140POPC   C3B77409  19.210  29.340   7.064
 6140POPC   C4B77410  19.172  29.380   7.364
 6141POPC   NC377411  22.889   6.610   5.564
 6141POPC   PO477412  22.906   6.646   5.864
 6141POPC   GL177413  22.914   6.605   6.164
 6141POPC   GL277414  22.895   6.487   6.164
 6141POPC   C1A77415  22.944   6.642   6.464
 6141POPC   D2A77416  22.951   6.629   6.764
 6141POPC   C3A77417  22.904   6.651   7.064
 6141POPC   C4A77418  22.951   6.612   7.364
 6141POPC   C1B77419  22.950   6.418   6.464
 6141POPC   C2B77420  22.895   6.439   6.764
 6141POPC   C3B77421  22.894   6.378   7.064
 6141POPC   C4B77422  22.953   6.444   7.364
 6142POPC   NC377423  36.159  32.261   5.564
 6142POPC   PO477424  36.115  32.237   5.864
 6142POPC   GL177425  36.122  32.209   6.164
 6142POPC   GL277426  36.147  32.375   6.164
 6142POPC   C1A77427  36.177  32.232   6.464
 6142POPC   D2A77428  36.105  32.218   6.764
 6142POPC   C3A77429  36.137  32.234   7.064
 6142POPC   C4A77430  36.148  32.243   7.364
 6142POPC   C1B77431  36.076  32.496   6.464
 6142POPC   C2B77432  36.118  32.501   6.764
 6142POPC   C3B77433  36.067  32.507   7.064
 6142POPC   C4B77434  36.060  32.533   7.364
 6143POPC   NC377435  21.378  12.846   5.564
 6143POPC   PO477436  21.415  12.881   5.864
 6143POPC   GL177437  21.415  12.883   6.164
 6143POPC   GL277438  21.262  12.803   6.164
 6143POPC   C1A77439  21.338  12.807   6.464
 6143POPC   D2A77440  21.410  12.805   6.764
 6143POPC   C3A77441  21.368  12.841   7.064
 6143POPC   C4A77442  21.419  12.861   7.364
 6143POPC   C1B77443  21.123  12.748   6.464
 6143POPC   C2B77444  21.206  12.702   6.764
 6143POPC   C3B77445  21.204  12.675   7.064
 6143POPC   C4B77446  21.145  12.752   7.364
 6144POPC   NC377447  35.373  29.889   5.564
 6144POPC   PO477448  35.375  29.960   5.864
 6144POPC   GL177449  35.389  29.948   6.164
 6144POPC   GL277450  35.457  29.866   6.164
 6144POPC   C1A77451  35.335  29.939   6.464
 6144POPC   D2A77452  35.372  29.903   6.764
 6144POPC   C3A77453  35.318  29.879   7.064
 6144POPC   C4A77454  35.318  29.880   7.364
 6144POPC   C1B77455  35.587  29.756   6.464
 6144POPC   C2B77456  35.494  29.716   6.764
 6144POPC   C3B77457  35.530  29.768   7.064
 6144POPC   C4B77458  35.516  29.770   7.364
 6145POPC   NC377459   4.289  15.207   5.564
 6145POPC   PO477460   4.275  15.149   5.864
 6145POPC   GL177461   4.321  15.145   6.164
 6145POPC   GL277462   4.190  15.163   6.164
 6145POPC   C1A77463   4.289  15.202   6.464
 6145POPC   D2A77464   4.352  15.196   6.764
 6145POPC   C3A77465   4.310  15.220   7.064
 6145POPC   C4A77466   4.353  15.131   7.364
 6145POPC   C1B77467   4.076  15.030   6.464
 6145POPC   C2B77468   4.117  15.119   6.764
 6145POPC   C3B77469   4.051  15.038   7.064
 6145POPC   C4B77470   4.069  15.066   7.364
 6146POPC   NC377471  26.835   7.427   5.564
 6146POPC   PO477472  26.782   7.375   5.864
 6146POPC   GL177473  26.816   7.419   6.164
 6146POPC   GL277474  26.769   7.495   6.164
 6146POPC   C1A77475  26.788   7.400   6.464
 6146POPC   D2A77476  26.800   7.438   6.764
 6146POPC   C3A77477  26.772   7.441   7.064
 6146POPC   C4A77478  26.862   7.416   7.364
 6146POPC   C1B77479  26.745   7.674   6.464
 6146POPC   C2B77480  26.709   7.655   6.764
 6146POPC   C3B77481  26.712   7.674   7.064
 6146POPC   C4B77482  26.674   7.683   7.364
 6147POPC   NC377483  43.887  29.149   5.564
 6147POPC   PO477484  43.909  29.192   5.864
 6147POPC   GL177485  43.928  29.153   6.164
 6147POPC   GL277486  43.758  29.121   6.164
 6147POPC   C1A77487  43.854  29.113   6.464
 6147POPC   D2A77488  43.898  29.142   6.764
 6147POPC   C3A77489  43.870  29.113   7.064
 6147POPC   C4A77490  43.878  29.159   7.364
 6147POPC   C1B77491  43.594  29.137   6.464
 6147POPC   C2B77492  43.646  29.130   6.764
 6147POPC   C3B77493  43.685  29.117   7.064
 6147POPC   C4B77494  43.620  29.126   7.364
 6148POPC   NC377495  29.901  35.324   5.564
 6148POPC   PO477496  29.958  35.311   5.864
 6148POPC   GL177497  29.936  35.324   6.164
 6148POPC   GL277498  30.008  35.358   6.164
 6148POPC   C1A77499  29.965  35.307   6.464
 6148POPC   D2A77500  29.930  35.329   6.764
 6148POPC   C3A77501  29.921  35.395   7.064
 6148POPC   C4A77502  29.932  35.381   7.364
 6148POPC   C1B77503  30.151  35.342   6.464
 6148POPC   C2B77504  30.179  35.366   6.764
 6148POPC   C3B77505  30.180  35.379   7.064
 6148POPC   C4B77506  30.191  35.331   7.364
 6149POPC   NC377507   4.271  22.118   5.564
 6149POPC   PO477508   4.325  22.136   5.864
 6149POPC   GL177509   4.325  22.130   6.164
 6149POPC   GL277510   4.480  22.140   6.164
 6149POPC   C1A77511   4.352  22.171   6.464
 6149POPC   D2A77512   4.299  22.156   6.764
 6149POPC   C3A77513   4.276  22.153   7.064
 6149POPC   C4A77514   4.341  22.128   7.364
 6149POPC   C1B77515   4.536  22.130   6.464
 6149POPC   C2B77516   4.603  22.116   6.764
 6149POPC   C3B77517   4.572  22.144   7.064
 6149POPC   C4B77518   4.601  22.160   7.364
 6150POPC   NC377519  38.436  13.662   5.564
 6150POPC   PO477520  38.425  13.677   5.864
 6150POPC   GL177521  38.495  13.579   6.164
 6150POPC   GL277522  38.331  13.659   6.164
 6150POPC   C1A77523  38.483  13.671   6.464
 6150POPC   D2A77524  38.446  13.581   6.764
 6150POPC   C3A77525  38.494  13.602   7.064
 6150POPC   C4A77526  38.505  13.668   7.364
 6150POPC   C1B77527  38.232  13.656   6.464
 6150POPC   C2B77528  38.235  13.590   6.764
 6150POPC   C3B77529  38.188  13.666   7.064
 6150POPC   C4B77530  38.166  13.635   7.364
 6151POPC   NC377531  16.774   8.149   5.564
 6151POPC   PO477532  16.689   8.237   5.864
 6151POPC   GL177533  16.770   8.199   6.164
 6151POPC   GL277534  16.643   8.204   6.164
 6151POPC   C1A77535  16.713   8.192   6.464
 6151POPC   D2A77536  16.765   8.156   6.764
 6151POPC   C3A77537  16.725   8.215   7.064
 6151POPC   C4A77538  16.744   8.207   7.364
 6151POPC   C1B77539  16.452   8.141   6.464
 6151POPC   C2B77540  16.435   8.208   6.764
 6151POPC   C3B77541  16.445   8.177   7.064
 6151POPC   C4B77542  16.438   8.199   7.364
 6152POPC   NC377543  36.861  41.509   5.564
 6152POPC   PO477544  36.943  41.539   5.864
 6152POPC   GL177545  36.873  41.600   6.164
 6152POPC   GL277546  36.864  41.657   6.164
 6152POPC   C1A77547  36.892  41.550   6.464
 6152POPC   D2A77548  36.911  41.577   6.764
 6152POPC   C3A77549  36.914  41.570   7.064
 6152POPC   C4A77550  36.925  41.598   7.364
 6152POPC   C1B77551  36.755  41.746   6.464
 6152POPC   C2B77552  36.709  41.749   6.764
 6152POPC   C3B77553  36.774  41.770   7.064
 6152POPC   C4B77554  36.726  41.742   7.364
 6153POPC   NC377555  36.859  26.015   5.564
 6153POPC   PO477556  36.950  26.052   5.864
 6153POPC   GL177557  36.920  26.077   6.164
 6153POPC   GL277558  36.842  25.948   6.164
 6153POPC   C1A77559  36.900  26.083   6.464
 6153POPC   D2A77560  36.940  26.037   6.764
 6153POPC   C3A77561  36.920  26.053   7.064
 6153POPC   C4A77562  36.934  26.058   7.364
 6153POPC   C1B77563  36.704  25.940   6.464
 6153POPC   C2B77564  36.733  25.897   6.764
 6153POPC   C3B77565  36.747  25.881   7.064
 6153POPC   C4B77566  36.661  25.880   7.364
 6154POPC   NC377567  26.825  13.664   5.564
 6154POPC   PO477568  26.821  13.632   5.864
 6154POPC   GL177569  26.774  13.598   6.164
 6154POPC   GL277570  26.911  13.531   6.164
 6154POPC   C1A77571  26.806  13.602   6.464
 6154POPC   D2A77572  26.843  13.620   6.764
 6154POPC   C3A77573  26.792  13.591   7.064
 6154POPC   C4A77574  26.847  13.595   7.364
 6154POPC   C1B77575  26.904  13.367   6.464
 6154POPC   C2B77576  26.890  13.368   6.764
 6154POPC   C3B77577  26.926  13.387   7.064
 6154POPC   C4B77578  26.916  13.354   7.364
 6155POPC   NC377579  10.497  26.044   5.564
 6155POPC   PO477580  10.562  26.014   5.864
 6155POPC   GL177581  10.558  26.041   6.164
 6155POPC   GL277582  10.520  25.950   6.164
 6155POPC   C1A77583  10.571  26.075   6.464
 6155POPC   D2A77584  10.544  26.019   6.764
 6155POPC   C3A77585  10.560  26.045   7.064
 6155POPC   C4A77586  10.502  25.996   7.364
 6155POPC   C1B77587  10.528  25.839   6.464
 6155POPC   C2B77588  10.547  25.788   6.764
 6155POPC   C3B77589  10.563  25.745   7.064
 6155POPC   C4B77590  10.582  25.754   7.364
 6156POPC   NC377591  36.078  15.942   5.564
 6156POPC   PO477592  36.165  15.989   5.864
 6156POPC   GL177593  36.150  15.989   6.164
 6156POPC   GL277594  36.221  15.946   6.164
 6156POPC   C1A77595  36.156  15.945   6.464
 6156POPC   D2A77596  36.174  15.935   6.764
 6156POPC   C3A77597  36.089  15.974   7.064
 6156POPC   C4A77598  36.120  15.939   7.364
 6156POPC   C1B77599  36.382  15.811   6.464
 6156POPC   C2B77600  36.360  15.882   6.764
 6156POPC   C3B77601  36.395  15.816   7.064
 6156POPC   C4B77602  36.397  15.838   7.364
 6157POPC   NC377603  18.258  19.842   5.564
 6157POPC   PO477604  18.251  19.788   5.864
 6157POPC   GL177605  18.318  19.853   6.164
 6157POPC   GL277606  18.388  19.785   6.164
 6157POPC   C1A77607  18.257  19.877   6.464
 6157POPC   D2A77608  18.258  19.822   6.764
 6157POPC   C3A77609  18.276  19.790   7.064
 6157POPC   C4A77610  18.241  19.789   7.364
 6157POPC   C1B77611  18.425  19.594   6.464
 6157POPC   C2B77612  18.458  19.645   6.764
 6157POPC   C3B77613  18.434  19.631   7.064
 6157POPC   C4B77614  18.468  19.615   7.364
 6158POPC   NC377615   9.020  31.508   5.564
 6158POPC   PO477616   9.022  31.466   5.864
 6158POPC   GL177617   8.954  31.436   6.164
 6158POPC   GL277618   8.922  31.537   6.164
 6158POPC   C1A77619   8.983  31.457   6.464
 6158POPC   D2A77620   8.976  31.479   6.764
 6158POPC   C3A77621   8.968  31.498   7.064
 6158POPC   C4A77622   8.999  31.499   7.364
 6158POPC   C1B77623   8.870  31.680   6.464
 6158POPC   C2B77624   8.860  31.708   6.764
 6158POPC   C3B77625   8.876  31.684   7.064
 6158POPC   C4B77626   8.868  31.712   7.364
 6159POPC   NC377627  38.440  35.377   5.564
 6159POPC   PO477628  38.471  35.307   5.864
 6159POPC   GL177629  38.501  35.380   6.164
 6159POPC   GL277630  38.295  35.269   6.164
 6159POPC   C1A77631  38.466  35.371   6.464
 6159POPC   D2A77632  38.491  35.367   6.764
 6159POPC   C3A77633  38.501  35.332   7.064
 6159POPC   C4A77634  38.475  35.383   7.364
 6159POPC   C1B77635  38.267  35.227   6.464
 6159POPC   C2B77636  38.243  35.274   6.764
 6159POPC   C3B77637  38.215  35.240   7.064
 6159POPC   C4B77638  38.262  35.296   7.364
 6160POPC   NC377639  43.880  33.839   5.564
 6160POPC   PO477640  43.930  33.838   5.864
 6160POPC   GL177641  43.863  33.754   6.164
 6160POPC   GL277642  44.043  33.802   6.164
 6160POPC   C1A77643  43.847  33.808   6.464
 6160POPC   D2A77644  43.867  33.773   6.764
 6160POPC   C3A77645  43.854  33.797   7.064
 6160POPC   C4A77646  43.928  33.776   7.364
 6160POPC   C1B77647  44.153  33.855   6.464
 6160POPC   C2B77648  44.124  33.895   6.764
 6160POPC   C3B77649  44.155  33.856   7.064
 6160POPC   C4B77650  44.096  33.898   7.364
 6161POPC   NC377651  33.754  39.222   5.564
 6161POPC   PO477652  33.847  39.248   5.864
 6161POPC   GL177653  33.778  39.222   6.164
 6161POPC   GL277654  33.798  39.143   6.164
 6161POPC   C1A77655  33.782  39.232   6.464
 6161POPC   D2A77656  33.770  39.218   6.764
 6161POPC   C3A77657  33.756  39.232   7.064
 6161POPC   C4A77658  33.782  39.248   7.364
 6161POPC   C1B77659  33.832  38.980   6.464
 6161POPC   C2B77660  33.814  38.961   6.764
 6161POPC   C3B77661  33.813  38.982   7.064
 6161POPC   C4B77662  33.783  39.028   7.364
 6162POPC   NC377663  44.616  22.912   5.564
 6162POPC   PO477664  44.648  22.934   5.864
 6162POPC   GL177665  44.699  22.939   6.164
 6162POPC   GL277666  44.595  23.062   6.164
 6162POPC   C1A77667  44.620  22.952   6.464
 6162POPC   D2A77668  44.680  22.911   6.764
 6162POPC   C3A77669  44.658  22.959   7.064
 6162POPC   C4A77670  44.626  22.888   7.364
 6162POPC   C1B77671  44.653  23.155   6.464
 6162POPC   C2B77672  44.582  23.150   6.764
 6162POPC   C3B77673  44.583  23.212   7.064
 6162POPC   C4B77674  44.608  23.191   7.364
 6163POPC   NC377675  23.710  24.489   5.564
 6163POPC   PO477676  23.725  24.509   5.864
 6163POPC   GL177677  23.726  24.538   6.164
 6163POPC   GL277678  23.812  24.509   6.164
 6163POPC   C1A77679  23.752  24.507   6.464
 6163POPC   D2A77680  23.673  24.466   6.764
 6163POPC   C3A77681  23.666  24.532   7.064
 6163POPC   C4A77682  23.715  24.492   7.364
 6163POPC   C1B77683  23.926  24.625   6.464
 6163POPC   C2B77684  23.938  24.556   6.764
 6163POPC   C3B77685  23.961  24.568   7.064
 6163POPC   C4B77686  23.985  24.611   7.364
 6164POPC   NC377687   1.226  26.054   5.564
 6164POPC   PO477688   1.173  26.002   5.864
 6164POPC   GL177689   1.259  26.082   6.164
 6164POPC   GL277690   1.153  25.963   6.164
 6164POPC   C1A77691   1.176  26.087   6.464
 6164POPC   D2A77692   1.183  26.055   6.764
 6164POPC   C3A77693   1.237  26.014   7.064
 6164POPC   C4A77694   1.214  26.009   7.364
 6164POPC   C1B77695   0.997  25.925   6.464
 6164POPC   C2B77696   1.014  25.849   6.764
 6164POPC   C3B77697   1.018  25.912   7.064
 6164POPC   C4B77698   1.025  25.855   7.364
 6165POPC   NC377699  22.182   6.633   5.564
 6165POPC   PO477700  22.135   6.641   5.864
 6165POPC   GL177701  22.189   6.667   6.164
 6165POPC   GL277702  22.160   6.514   6.164
 6165POPC   C1A77703  22.115   6.633   6.464
 6165POPC   D2A77704  22.142   6.670   6.764
 6165POPC   C3A77705  22.204   6.681   7.064
 6165POPC   C4A77706  22.203   6.639   7.364
 6165POPC   C1B77707  22.135   6.415   6.464
 6165POPC   C2B77708  22.185   6.385   6.764
 6165POPC   C3B77709  22.114   6.356   7.064
 6165POPC   C4B77710  22.128   6.412   7.364
 6166POPC   NC377711  13.590   1.168   5.564
 6166POPC   PO477712  13.621   1.241   5.864
 6166POPC   GL177713  13.599   1.237   6.164
 6166POPC   GL277714  13.568   1.145   6.164
 6166POPC   C1A77715  13.602   1.253   6.464
 6166POPC   D2A77716  13.670   1.210   6.764
 6166POPC   C3A77717  13.672   1.204   7.064
 6166POPC   C4A77718  13.580   1.194   7.364
 6166POPC   C1B77719  13.466   1.014   6.464
 6166POPC   C2B77720  13.496   0.998   6.764
 6166POPC   C3B77721  13.466   0.958   7.064
 6166POPC   C4B77722  13.491   1.021   7.364
 6167POPC   NC377723  43.900  27.610   5.564
 6167POPC   PO477724  43.909  27.548   5.864
 6167POPC   GL177725  43.858  27.577   6.164
 6167POPC   GL277726  43.794  27.447   6.164
 6167POPC   C1A77727  43.847  27.543   6.464
 6167POPC   D2A77728  43.893  27.568   6.764
 6167POPC   C3A77729  43.885  27.568   7.064
 6167POPC   C4A77730  43.848  27.610   7.364
 6167POPC   C1B77731  43.714  27.378   6.464
 6167POPC   C2B77732  43.765  27.365   6.764
 6167POPC   C3B77733  43.721  27.361   7.064
 6167POPC   C4B77734  43.759  27.369   7.364
 6168POPC   NC377735  36.106   2.796   5.564
 6168POPC   PO477736  36.123   2.754   5.864
 6168POPC   GL177737  36.095   2.777   6.164
 6168POPC   GL277738  36.038   2.903   6.164
 6168POPC   C1A77739  36.106   2.775   6.464
 6168POPC   D2A77740  36.168   2.815   6.764
 6168POPC   C3A77741  36.163   2.756   7.064
 6168POPC   C4A77742  36.083   2.776   7.364
 6168POPC   C1B77743  36.029   3.026   6.464
 6168POPC   C2B77744  36.077   2.962   6.764
 6168POPC   C3B77745  36.015   3.034   7.064
 6168POPC   C4B77746  36.054   2.980   7.364
 6169POPC   NC377747  16.692   2.019   5.564
 6169POPC   PO477748  16.723   1.991   5.864
 6169POPC   GL177749  16.712   1.986   6.164
 6169POPC   GL277750  16.682   2.083   6.164
 6169POPC   C1A77751  16.748   2.017   6.464
 6169POPC   D2A77752  16.698   2.028   6.764
 6169POPC   C3A77753  16.694   2.033   7.064
 6169POPC   C4A77754  16.711   2.016   7.364
 6169POPC   C1B77755  16.754   2.240   6.464
 6169POPC   C2B77756  16.731   2.262   6.764
 6169POPC   C3B77757  16.689   2.204   7.064
 6169POPC   C4B77758  16.734   2.209   7.364
 6170POPC   NC377759  30.734  23.737   5.564
 6170POPC   PO477760  30.663  23.688   5.864
 6170POPC   GL177761  30.678  23.736   6.164
 6170POPC   GL277762  30.812  23.656   6.164
 6170POPC   C1A77763  30.650  23.698   6.464
 6170POPC   D2A77764  30.667  23.690   6.764
 6170POPC   C3A77765  30.727  23.737   7.064
 6170POPC   C4A77766  30.728  23.716   7.364
 6170POPC   C1B77767  30.967  23.621   6.464
 6170POPC   C2B77768  30.984  23.688   6.764
 6170POPC   C3B77769  30.949  23.703   7.064
 6170POPC   C4B77770  30.919  23.608   7.364
 6171POPC   NC377771  43.893  37.699   5.564
 6171POPC   PO477772  43.858  37.663   5.864
 6171POPC   GL177773  43.926  37.650   6.164
 6171POPC   GL277774  44.039  37.638   6.164
 6171POPC   C1A77775  43.856  37.703   6.464
 6171POPC   D2A77776  43.910  37.713   6.764
 6171POPC   C3A77777  43.846  37.716   7.064
 6171POPC   C4A77778  43.917  37.728   7.364
 6171POPC   C1B77779  44.088  37.537   6.464
 6171POPC   C2B77780  44.064  37.524   6.764
 6171POPC   C3B77781  44.150  37.612   7.064
 6171POPC   C4B77782  44.096  37.597   7.364
 6172POPC   NC377783   5.842   8.210   5.564
 6172POPC   PO477784   5.870   8.171   5.864
 6172POPC   GL177785   5.844   8.160   6.164
 6172POPC   GL277786   5.882   8.097   6.164
 6172POPC   C1A77787   5.871   8.183   6.464
 6172POPC   D2A77788   5.903   8.224   6.764
 6172POPC   C3A77789   5.905   8.231   7.064
 6172POPC   C4A77790   5.840   8.190   7.364
 6172POPC   C1B77791   5.991   7.965   6.464
 6172POPC   C2B77792   5.979   8.009   6.764
 6172POPC   C3B77793   5.956   8.012   7.064
 6172POPC   C4B77794   5.957   7.933   7.364
 6173POPC   NC377795   0.404  26.048   5.564
 6173POPC   PO477796   0.477  25.999   5.864
 6173POPC   GL177797   0.433  26.087   6.164
 6173POPC   GL277798   0.334  26.104   6.164
 6173POPC   C1A77799   0.388  26.034   6.464
 6173POPC   D2A77800   0.424  26.068   6.764
 6173POPC   C3A77801   0.471  26.009   7.064
 6173POPC   C4A77802   0.412  26.071   7.364
 6173POPC   C1B77803   0.154  26.053   6.464
 6173POPC   C2B77804   0.159  26.103   6.764
 6173POPC   C3B77805   0.199  26.133   7.064
 6173POPC   C4B77806   0.168  26.064   7.364
 6174POPC   NC377807  25.226   1.979   5.564
 6174POPC   PO477808  25.258   2.017   5.864
 6174POPC   GL177809  25.261   2.021   6.164
 6174POPC   GL277810  25.223   1.851   6.164
 6174POPC   C1A77811  25.247   1.981   6.464
 6174POPC   D2A77812  25.228   1.954   6.764
 6174POPC   C3A77813  25.246   1.956   7.064
 6174POPC   C4A77814  25.220   1.947   7.364
 6174POPC   C1B77815  25.133   1.788   6.464
 6174POPC   C2B77816  25.113   1.801   6.764
 6174POPC   C3B77817  25.168   1.817   7.064
 6174POPC   C4B77818  25.109   1.812   7.364
 6175POPC   NC377819  17.467  43.152   5.564
 6175POPC   PO477820  17.499  43.138   5.864
 6175POPC   GL177821  17.498  43.098   6.164
 6175POPC   GL277822  17.385  43.197   6.164
 6175POPC   C1A77823  17.540  43.137   6.464
 6175POPC   D2A77824  17.538  43.066   6.764
 6175POPC   C3A77825  17.458  43.104   7.064
 6175POPC   C4A77826  17.529  43.065   7.364
 6175POPC   C1B77827  17.354  43.292   6.464
 6175POPC   C2B77828  17.366  43.318   6.764
 6175POPC   C3B77829  17.308  43.301   7.064
 6175POPC   C4B77830  17.344  43.315   7.364
 6176POPC   NC377831  14.446   5.856   5.564
 6176POPC   PO477832  14.416   5.840   5.864
 6176POPC   GL177833  14.381   5.830   6.164
 6176POPC   GL277834  14.246   5.887   6.164
 6176POPC   C1A77835  14.381   5.863   6.464
 6176POPC   D2A77836  14.380   5.854   6.764
 6176POPC   C3A77837  14.404   5.826   7.064
 6176POPC   C4A77838  14.408   5.847   7.364
 6176POPC   C1B77839  14.160   5.876   6.464
 6176POPC   C2B77840  14.174   5.935   6.764
 6176POPC   C3B77841  14.163   5.862   7.064
 6176POPC   C4B77842  14.179   5.858   7.364
 6177POPC   NC377843  36.098   5.899   5.564
 6177POPC   PO477844  36.086   5.873   5.864
 6177POPC   GL177845  36.093   5.905   6.164
 6177POPC   GL277846  36.268   5.814   6.164
 6177POPC   C1A77847  36.120   5.839   6.464
 6177POPC   D2A77848  36.090   5.838   6.764
 6177POPC   C3A77849  36.159   5.840   7.064
 6177POPC   C4A77850  36.100   5.845   7.364
 6177POPC   C1B77851  36.368   5.749   6.464
 6177POPC   C2B77852  36.348   5.768   6.764
 6177POPC   C3B77853  36.335   5.674   7.064
 6177POPC   C4B77854  36.300   5.731   7.364
 6178POPC   NC377855  19.808  26.860   5.564
 6178POPC   PO477856  19.787  26.771   5.864
 6178POPC   GL177857  19.811  26.812   6.164
 6178POPC   GL277858  19.853  26.680   6.164
 6178POPC   C1A77859  19.819  26.813   6.464
 6178POPC   D2A77860  19.793  26.790   6.764
 6178POPC   C3A77861  19.814  26.865   7.064
 6178POPC   C4A77862  19.858  26.847   7.364
 6178POPC   C1B77863  19.914  26.583   6.464
 6178POPC   C2B77864  19.875  26.569   6.764
 6178POPC   C3B77865  19.893  26.542   7.064
 6178POPC   C4B77866  19.871  26.550   7.364
 6179POPC   NC377867   6.670  12.071   5.564
 6179POPC   PO477868   6.617  12.070   5.864
 6179POPC   GL177869   6.661  12.083   6.164
 6179POPC   GL277870   6.575  12.218   6.164
 6179POPC   C1A77871   6.624  12.050   6.464
 6179POPC   D2A77872   6.694  12.078   6.764
 6179POPC   C3A77873   6.604  12.056   7.064
 6179POPC   C4A77874   6.637  12.065   7.364
 6179POPC   C1B77875   6.531  12.278   6.464
 6179POPC   C2B77876   6.524  12.265   6.764
 6179POPC   C3B77877   6.553  12.335   7.064
 6179POPC   C4B77878   6.573  12.335   7.364
 6180POPC   NC377879  41.597  29.919   5.564
 6180POPC   PO477880  41.583  29.875   5.864
 6180POPC   GL177881  41.607  29.955   6.164
 6180POPC   GL277882  41.435  29.838   6.164
 6180POPC   C1A77883  41.544  29.913   6.464
 6180POPC   D2A77884  41.588  29.872   6.764
 6180POPC   C3A77885  41.577  29.903   7.064
 6180POPC   C4A77886  41.558  29.952   7.364
 6180POPC   C1B77887  41.331  29.741   6.464
 6180POPC   C2B77888  41.320  29.796   6.764
 6180POPC   C3B77889  41.350  29.716   7.064
 6180POPC   C4B77890  41.344  29.763   7.364
 6181POPC   NC377891  43.093  23.724   5.564
 6181POPC   PO477892  43.156  23.687   5.864
 6181POPC   GL177893  43.123  23.763   6.164
 6181POPC   GL277894  43.133  23.613   6.164
 6181POPC   C1A77895  43.117  23.698   6.464
 6181POPC   D2A77896  43.122  23.737   6.764
 6181POPC   C3A77897  43.136  23.712   7.064
 6181POPC   C4A77898  43.108  23.701   7.364
 6181POPC   C1B77899  43.155  23.463   6.464
 6181POPC   C2B77900  43.177  23.473   6.764
 6181POPC   C3B77901  43.179  23.446   7.064
 6181POPC   C4B77902  43.227  23.487   7.364
 6182POPC   NC377903  14.414  29.912   5.564
 6182POPC   PO477904  14.361  29.896   5.864
 6182POPC   GL177905  14.364  29.935   6.164
 6182POPC   GL277906  14.353  29.778   6.164
 6182POPC   C1A77907  14.409  29.928   6.464
 6182POPC   D2A77908  14.362  29.920   6.764
 6182POPC   C3A77909  14.404  29.939   7.064
 6182POPC   C4A77910  14.444  29.951   7.364
 6182POPC   C1B77911  14.380  29.705   6.464
 6182POPC   C2B77912  14.346  29.651   6.764
 6182POPC   C3B77913  14.355  29.706   7.064
 6182POPC   C4B77914  14.369  29.639   7.364
 6183POPC   NC377915  40.056  39.237   5.564
 6183POPC   PO477916  40.021  39.191   5.864
 6183POPC   GL177917  39.970  39.223   6.164
 6183POPC   GL277918  39.907  39.278   6.164
 6183POPC   C1A77919  39.957  39.182   6.464
 6183POPC   D2A77920  40.011  39.279   6.764
 6183POPC   C3A77921  40.026  39.190   7.064
 6183POPC   C4A77922  39.973  39.182   7.364
 6183POPC   C1B77923  39.747  39.310   6.464
 6183POPC   C2B77924  39.814  39.374   6.764
 6183POPC   C3B77925  39.746  39.298   7.064
 6183POPC   C4B77926  39.747  39.371   7.364
 6184POPC   NC377927  29.871  34.614   5.564
 6184POPC   PO477928  29.880  34.564   5.864
 6184POPC   GL177929  29.903  34.595   6.164
 6184POPC   GL277930  30.011  34.521   6.164
 6184POPC   C1A77931  29.883  34.534   6.464
 6184POPC   D2A77932  29.901  34.530   6.764
 6184POPC   C3A77933  29.925  34.537   7.064
 6184POPC   C4A77934  29.910  34.529   7.364
 6184POPC   C1B77935  30.089  34.458   6.464
 6184POPC   C2B77936  30.145  34.424   6.764
 6184POPC   C3B77937  30.087  34.416   7.064
 6184POPC   C4B77938  30.121  34.443   7.364
 6185POPC   NC377939   9.758  22.897   5.564
 6185POPC   PO477940   9.734  22.973   5.864
 6185POPC   GL177941   9.759  22.907   6.164
 6185POPC   GL277942   9.646  22.846   6.164
 6185POPC   C1A77943   9.737  22.940   6.464
 6185POPC   D2A77944   9.786  22.889   6.764
 6185POPC   C3A77945   9.756  22.979   7.064
 6185POPC   C4A77946   9.775  22.930   7.364
 6185POPC   C1B77947   9.504  22.850   6.464
 6185POPC   C2B77948   9.513  22.773   6.764
 6185POPC   C3B77949   9.541  22.770   7.064
 6185POPC   C4B77950   9.517  22.835   7.364
 6186POPC   NC377951  17.480  14.419   5.564
 6186POPC   PO477952  17.504  14.402   5.864
 6186POPC   GL177953  17.546  14.400   6.164
 6186POPC   GL277954  17.601  14.275   6.164
 6186POPC   C1A77955  17.512  14.393   6.464
 6186POPC   D2A77956  17.537  14.381   6.764
 6186POPC   C3A77957  17.524  14.453   7.064
 6186POPC   C4A77958  17.483  14.362   7.364
 6186POPC   C1B77959  17.680  14.201   6.464
 6186POPC   C2B77960  17.639  14.167   6.764
 6186POPC   C3B77961  17.713  14.241   7.064
 6186POPC   C4B77962  17.690  14.212   7.364
 6187POPC   NC377963  29.189  41.525   5.564
 6187POPC   PO477964  29.124  41.556   5.864
 6187POPC   GL177965  29.186  41.599   6.164
 6187POPC   GL277966  29.044  41.638   6.164
 6187POPC   C1A77967  29.165  41.544   6.464
 6187POPC   D2A77968  29.178  41.511   6.764
 6187POPC   C3A77969  29.138  41.605   7.064
 6187POPC   C4A77970  29.153  41.596   7.364
 6187POPC   C1B77971  28.986  41.722   6.464
 6187POPC   C2B77972  29.017  41.777   6.764
 6187POPC   C3B77973  28.992  41.733   7.064
 6187POPC   C4B77974  29.017  41.747   7.364
 6188POPC   NC377975  26.078  14.440   5.564
 6188POPC   PO477976  25.998  14.392   5.864
 6188POPC   GL177977  26.089  14.363   6.164
 6188POPC   GL277978  25.999  14.284   6.164
 6188POPC   C1A77979  26.062  14.394   6.464
 6188POPC   D2A77980  26.079  14.384   6.764
 6188POPC   C3A77981  26.010  14.387   7.064
 6188POPC   C4A77982  26.026  14.389   7.364
 6188POPC   C1B77983  25.866  14.217   6.464
 6188POPC   C2B77984  25.881  14.177   6.764
 6188POPC   C3B77985  25.952  14.149   7.064
 6188POPC   C4B77986  25.903  14.149   7.364
 6189POPC   NC377987   1.996  29.933   5.564
 6189POPC   PO477988   1.941  29.943   5.864
 6189POPC   GL177989   2.005  29.920   6.164
 6189POPC   GL277990   1.827  29.925   6.164
 6189POPC   C1A77991   1.989  29.926   6.464
 6189POPC   D2A77992   1.989  29.876   6.764
 6189POPC   C3A77993   2.013  29.957   7.064
 6189POPC   C4A77994   1.949  29.936   7.364
 6189POPC   C1B77995   1.728  29.864   6.464
 6189POPC   C2B77996   1.772  29.843   6.764
 6189POPC   C3B77997   1.779  29.846   7.064
 6189POPC   C4B77998   1.790  29.875   7.364
 6190POPC   NC377999   8.973  10.508   5.564
 6190POPC   PO478000   8.962  10.527   5.864
 6190POPC   GL178001   9.021  10.501   6.164
 6190POPC   GL278002   9.051  10.471   6.164
 6190POPC   C1A78003   8.936  10.540   6.464
 6190POPC   D2A78004   9.010  10.546   6.764
 6190POPC   C3A78005   8.972  10.491   7.064
 6190POPC   C4A78006   8.944  10.531   7.364
 6190POPC   C1B78007   9.205  10.500   6.464
 6190POPC   C2B78008   9.224  10.444   6.764
 6190POPC   C3B78009   9.167  10.503   7.064
 6190POPC   C4B78010   9.234  10.491   7.364
 6191POPC   NC378011  30.680  15.979   5.564
 6191POPC   PO478012  30.741  15.949   5.864
 6191POPC   GL178013  30.740  15.989   6.164
 6191POPC   GL278014  30.663  16.052   6.164
 6191POPC   C1A78015  30.701  15.926   6.464
 6191POPC   D2A78016  30.689  15.939   6.764
 6191POPC   C3A78017  30.696  15.957   7.064
 6191POPC   C4A78018  30.671  15.960   7.364
 6191POPC   C1B78019  30.633  16.173   6.464
 6191POPC   C2B78020  30.615  16.209   6.764
 6191POPC   C3B78021  30.617  16.198   7.064
 6191POPC   C4B78022  30.589  16.180   7.364
 6192POPC   NC378023  13.630  43.865   5.564
 6192POPC   PO478024  13.664  43.843   5.864
 6192POPC   GL178025  13.667  43.929   6.164
 6192POPC   GL278026  13.641  43.792   6.164
 6192POPC   C1A78027  13.667  43.926   6.464
 6192POPC   D2A78028  13.624  43.847   6.764
 6192POPC   C3A78029  13.664  43.847   7.064
 6192POPC   C4A78030  13.595  43.903   7.364
 6192POPC   C1B78031  13.606  43.603   6.464
 6192POPC   C2B78032  13.635  43.605   6.764
 6192POPC   C3B78033  13.646  43.618   7.064
 6192POPC   C4B78034  13.695  43.629   7.364
 6193POPC   NC378035  22.210  23.743   5.564
 6193POPC   PO478036  22.114  23.743   5.864
 6193POPC   GL178037  22.113  23.696   6.164
 6193POPC   GL278038  22.066  23.712   6.164
 6193POPC   C1A78039  22.127  23.754   6.464
 6193POPC   D2A78040  22.132  23.673   6.764
 6193POPC   C3A78041  22.179  23.734   7.064
 6193POPC   C4A78042  22.160  23.759   7.364
 6193POPC   C1B78043  21.922  23.635   6.464
 6193POPC   C2B78044  21.921  23.668   6.764
 6193POPC   C3B78045  21.948  23.720   7.064
 6193POPC   C4B78046  21.867  23.689   7.364
 6194POPC   NC378047  22.191   7.408   5.564
 6194POPC   PO478048  22.132   7.408   5.864
 6194POPC   GL178049  22.211   7.465   6.164
 6194POPC   GL278050  22.012   7.415   6.164
 6194POPC   C1A78051  22.171   7.384   6.464
 6194POPC   D2A78052  22.202   7.420   6.764
 6194POPC   C3A78053  22.135   7.450   7.064
 6194POPC   C4A78054  22.171   7.373   7.364
 6194POPC   C1B78055  21.908   7.368   6.464
 6194POPC   C2B78056  21.896   7.353   6.764
 6194POPC   C3B78057  21.947   7.352   7.064
 6194POPC   C4B78058  21.926   7.330   7.364
 6195POPC   NC378059  15.153  12.109   5.564
 6195POPC   PO478060  15.167  12.124   5.864
 6195POPC   GL178061  15.213  12.116   6.164
 6195POPC   GL278062  15.112  12.138   6.164
 6195POPC   C1A78063  15.183  12.094   6.464
 6195POPC   D2A78064  15.130  12.105   6.764
 6195POPC   C3A78065  15.194  12.060   7.064
 6195POPC   C4A78066  15.177  12.106   7.364
 6195POPC   C1B78067  14.976  12.290   6.464
 6195POPC   C2B78068  14.989  12.270   6.764
 6195POPC   C3B78069  15.043  12.292   7.064
 6195POPC   C4B78070  15.003  12.201   7.364
 6196POPC   NC378071   1.237  28.355   5.564
 6196POPC   PO478072   1.165  28.404   5.864
 6196POPC   GL178073   1.202  28.418   6.164
 6196POPC   GL278074   1.281  28.250   6.164
 6196POPC   C1A78075   1.173  28.410   6.464
 6196POPC   D2A78076   1.168  28.377   6.764
 6196POPC   C3A78077   1.251  28.327   7.064
 6196POPC   C4A78078   1.218  28.368   7.364
 6196POPC   C1B78079   1.260  28.175   6.464
 6196POPC   C2B78080   1.287  28.182   6.764
 6196POPC   C3B78081   1.336  28.106   7.064
 6196POPC   C4B78082   1.291  28.156   7.364
 6197POPC   NC378083  19.807   5.851   5.564
 6197POPC   PO478084  19.860   5.855   5.864
 6197POPC   GL178085  19.871   5.919   6.164
 6197POPC   GL278086  19.771   6.001   6.164
 6197POPC   C1A78087  19.789   5.858   6.464
 6197POPC   D2A78088  19.857   5.833   6.764
 6197POPC   C3A78089  19.824   5.887   7.064
 6197POPC   C4A78090  19.852   5.839   7.364
 6197POPC   C1B78091  19.725   6.113   6.464
 6197POPC   C2B78092  19.790   6.072   6.764
 6197POPC   C3B78093  19.724   6.104   7.064
 6197POPC   C4B78094  19.728   6.068   7.364
 6198POPC   NC378095   7.446  18.315   5.564
 6198POPC   PO478096   7.459  18.295   5.864
 6198POPC   GL178097   7.435  18.256   6.164
 6198POPC   GL278098   7.527  18.384   6.164
 6198POPC   C1A78099   7.449  18.272   6.464
 6198POPC   D2A78100   7.391  18.300   6.764
 6198POPC   C3A78101   7.383  18.279   7.064
 6198POPC   C4A78102   7.389  18.315   7.364
 6198POPC   C1B78103   7.629  18.496   6.464
 6198POPC   C2B78104   7.553  18.432   6.764
 6198POPC   C3B78105   7.554  18.482   7.064
 6198POPC   C4B78106   7.627  18.443   7.364
 6199POPC   NC378107  39.198  30.686   5.564
 6199POPC   PO478108  39.245  30.735   5.864
 6199POPC   GL178109  39.202  30.683   6.164
 6199POPC   GL278110  39.352  30.657   6.164
 6199POPC   C1A78111  39.198  30.690   6.464
 6199POPC   D2A78112  39.278  30.651   6.764
 6199POPC   C3A78113  39.263  30.678   7.064
 6199POPC   C4A78114  39.193  30.724   7.364
 6199POPC   C1B78115  39.508  30.618   6.464
 6199POPC   C2B78116  39.508  30.603   6.764
 6199POPC   C3B78117  39.466  30.650   7.064
 6199POPC   C4B78118  39.455  30.635   7.364
 6200POPC   NC378119  43.073  37.692   5.564
 6200POPC   PO478120  43.124  37.660   5.864
 6200POPC   GL178121  43.094  37.642   6.164
 6200POPC   GL278122  43.267  37.659   6.164
 6200POPC   C1A78123  43.101  37.712   6.464
 6200POPC   D2A78124  43.112  37.636   6.764
 6200POPC   C3A78125  43.086  37.644   7.064
 6200POPC   C4A78126  43.094  37.648   7.364
 6200POPC   C1B78127  43.319  37.673   6.464
 6200POPC   C2B78128  43.347  37.611   6.764
 6200POPC   C3B78129  43.318  37.637   7.064
 6200POPC   C4B78130  43.393  37.601   7.364
 6201POPC   NC378131   2.731  44.653   5.564
 6201POPC   PO478132   2.724  44.696   5.864
 6201POPC   GL178133   2.760  44.698   6.164
 6201POPC   GL278134   2.849  44.655   6.164
 6201POPC   C1A78135   2.774  44.691   6.464
 6201POPC   D2A78136   2.752  44.640   6.764
 6201POPC   C3A78137   2.775  44.683   7.064
 6201POPC   C4A78138   2.809  44.670   7.364
 6201POPC   C1B78139   3.055  44.659   6.464
 6201POPC   C2B78140   3.035  44.670   6.764
 6201POPC   C3B78141   2.987  44.716   7.064
 6201POPC   C4B78142   2.992  44.679   7.364
 6202POPC   NC378143  38.438   0.396   5.564
 6202POPC   PO478144  38.418   0.448   5.864
 6202POPC   GL178145  38.484   0.414   6.164
 6202POPC   GL278146  38.488   0.282   6.164
 6202POPC   C1A78147  38.502   0.395   6.464
 6202POPC   D2A78148  38.464   0.416   6.764
 6202POPC   C3A78149  38.447   0.449   7.064
 6202POPC   C4A78150  38.466   0.468   7.364
 6202POPC   C1B78151  38.608   0.216   6.464
 6202POPC   C2B78152  38.591   0.240   6.764
 6202POPC   C3B78153  38.535   0.212   7.064
 6202POPC   C4B78154  38.534   0.173   7.364
 6203POPC   NC378155  26.827  37.634   5.564
 6203POPC   PO478156  26.792  37.726   5.864
 6203POPC   GL178157  26.790  37.690   6.164
 6203POPC   GL278158  26.873  37.552   6.164
 6203POPC   C1A78159  26.826  37.677   6.464
 6203POPC   D2A78160  26.841  37.698   6.764
 6203POPC   C3A78161  26.852  37.716   7.064
 6203POPC   C4A78162  26.855  37.644   7.364
 6203POPC   C1B78163  27.014  37.458   6.464
 6203POPC   C2B78164  26.932  37.451   6.764
 6203POPC   C3B78165  26.966  37.529   7.064
 6203POPC   C4B78166  27.018  37.466   7.364
 6204POPC   NC378167  14.372  31.486   5.564
 6204POPC   PO478168  14.419  31.451   5.864
 6204POPC   GL178169  14.377  31.426   6.164
 6204POPC   GL278170  14.436  31.328   6.164
 6204POPC   C1A78171  14.378  31.465   6.464
 6204POPC   D2A78172  14.376  31.514   6.764
 6204POPC   C3A78173  14.451  31.468   7.064
 6204POPC   C4A78174  14.368  31.435   7.364
 6204POPC   C1B78175  14.415  31.249   6.464
 6204POPC   C2B78176  14.411  31.184   6.764
 6204POPC   C3B78177  14.451  31.267   7.064
 6204POPC   C4B78178  14.495  31.195   7.364
 6205POPC   NC378179   3.501   8.972   5.564
 6205POPC   PO478180   3.574   8.945   5.864
 6205POPC   GL178181   3.555   8.994   6.164
 6205POPC   GL278182   3.528   8.864   6.164
 6205POPC   C1A78183   3.509   8.947   6.464
 6205POPC   D2A78184   3.494   9.012   6.764
 6205POPC   C3A78185   3.577   8.976   7.064
 6205POPC   C4A78186   3.498   8.950   7.364
 6205POPC   C1B78187   3.449   8.748   6.464
 6205POPC   C2B78188   3.467   8.759   6.764
 6205POPC   C3B78189   3.433   8.765   7.064
 6205POPC   C4B78190   3.496   8.761   7.364
 6206POPC   NC378191  20.563  40.798   5.564
 6206POPC   PO478192  20.653  40.826   5.864
 6206POPC   GL178193  20.643  40.805   6.164
 6206POPC   GL278194  20.490  40.901   6.164
 6206POPC   C1A78195  20.565  40.829   6.464
 6206POPC   D2A78196  20.629  40.779   6.764
 6206POPC   C3A78197  20.646  40.768   7.064
 6206POPC   C4A78198  20.639  40.811   7.364
 6206POPC   C1B78199  20.407  40.955   6.464
 6206POPC   C2B78200  20.460  40.921   6.764
 6206POPC   C3B78201  20.444  40.971   7.064
 6206POPC   C4B78202  20.400  40.916   7.364
 6207POPC   NC378203  28.361  11.316   5.564
 6207POPC   PO478204  28.396  11.306   5.864
 6207POPC   GL178205  28.329  11.270   6.164
 6207POPC   GL278206  28.230  11.291   6.164
 6207POPC   C1A78207  28.323  11.297   6.464
 6207POPC   D2A78208  28.393  11.257   6.764
 6207POPC   C3A78209  28.380  11.283   7.064
 6207POPC   C4A78210  28.398  11.344   7.364
 6207POPC   C1B78211  28.117  11.254   6.464
 6207POPC   C2B78212  28.108  11.225   6.764
 6207POPC   C3B78213  28.108  11.224   7.064
 6207POPC   C4B78214  28.134  11.267   7.364
 6208POPC   NC378215   2.726  19.088   5.564
 6208POPC   PO478216   2.758  19.087   5.864
 6208POPC   GL178217   2.752  19.065   6.164
 6208POPC   GL278218   2.623  19.037   6.164
 6208POPC   C1A78219   2.725  19.034   6.464
 6208POPC   D2A78220   2.762  19.086   6.764
 6208POPC   C3A78221   2.730  19.095   7.064
 6208POPC   C4A78222   2.805  19.086   7.364
 6208POPC   C1B78223   2.537  19.099   6.464
 6208POPC   C2B78224   2.535  19.105   6.764
 6208POPC   C3B78225   2.495  19.123   7.064
 6208POPC   C4B78226   2.540  19.035   7.364
 6209POPC   NC378227   9.022  29.939   5.564
 6209POPC   PO478228   8.959  29.925   5.864
 6209POPC   GL178229   8.972  29.914   6.164
 6209POPC   GL278230   8.860  29.865   6.164
 6209POPC   C1A78231   8.968  29.882   6.464
 6209POPC   D2A78232   8.938  29.876   6.764
 6209POPC   C3A78233   8.929  29.884   7.064
 6209POPC   C4A78234   8.974  29.937   7.364
 6209POPC   C1B78235   8.870  29.732   6.464
 6209POPC   C2B78236   8.804  29.686   6.764
 6209POPC   C3B78237   8.818  29.759   7.064
 6209POPC   C4B78238   8.833  29.680   7.364
 6210POPC   NC378239  36.855  26.849   5.564
 6210POPC   PO478240  36.925  26.805   5.864
 6210POPC   GL178241  36.861  26.783   6.164
 6210POPC   GL278242  36.978  26.870   6.164
 6210POPC   C1A78243  36.854  26.805   6.464
 6210POPC   D2A78244  36.866  26.819   6.764
 6210POPC   C3A78245  36.868  26.857   7.064
 6210POPC   C4A78246  36.900  26.774   7.364
 6210POPC   C1B78247  37.086  27.016   6.464
 6210POPC   C2B78248  37.097  27.034   6.764
 6210POPC   C3B78249  37.043  26.991   7.064
 6210POPC   C4B78250  37.045  27.035   7.364
 6211POPC   NC378251  20.650   0.438   5.564
 6211POPC   PO478252  20.609   0.445   5.864
 6211POPC   GL178253  20.639   0.416   6.164
 6211POPC   GL278254  20.689   0.441   6.164
 6211POPC   C1A78255  20.650   0.450   6.464
 6211POPC   D2A78256  20.658   0.434   6.764
 6211POPC   C3A78257  20.567   0.428   7.064
 6211POPC   C4A78258  20.589   0.392   7.364
 6211POPC   C1B78259  20.886   0.362   6.464
 6211POPC   C2B78260  20.877   0.346   6.764
 6211POPC   C3B78261  20.899   0.372   7.064
 6211POPC   C4B78262  20.883   0.392   7.364
 6212POPC   NC378263   1.170  44.654   5.564
 6212POPC   PO478264   1.168  44.625   5.864
 6212POPC   GL178265   1.186  44.622   6.164
 6212POPC   GL278266   1.250  44.722   6.164
 6212POPC   C1A78267   1.192  44.661   6.464
 6212POPC   D2A78268   1.242  44.677   6.764
 6212POPC   C3A78269   1.204  44.667   7.064
 6212POPC   C4A78270   1.247  44.625   7.364
 6212POPC   C1B78271   1.410  44.837   6.464
 6212POPC   C2B78272   1.347  44.894   6.764
 6212POPC   C3B78273   1.385  44.826   7.064
 6212POPC   C4B78274   1.401  44.835   7.364
 6213POPC   NC378275  28.394  26.800   5.564
 6213POPC   PO478276  28.367  26.836   5.864
 6213POPC   GL178277  28.406  26.798   6.164
 6213POPC   GL278278  28.507  26.730   6.164
 6213POPC   C1A78279  28.403  26.866   6.464
 6213POPC   D2A78280  28.360  26.810   6.764
 6213POPC   C3A78281  28.331  26.852   7.064
 6213POPC   C4A78282  28.406  26.847   7.364
 6213POPC   C1B78283  28.514  26.667   6.464
 6213POPC   C2B78284  28.610  26.676   6.764
 6213POPC   C3B78285  28.553  26.619   7.064
 6213POPC   C4B78286  28.530  26.686   7.364
 6214POPC   NC378287  19.810  35.357   5.564
 6214POPC   PO478288  19.798  35.330   5.864
 6214POPC   GL178289  19.823  35.370   6.164
 6214POPC   GL278290  19.950  35.346   6.164
 6214POPC   C1A78291  19.834  35.320   6.464
 6214POPC   D2A78292  19.823  35.348   6.764
 6214POPC   C3A78293  19.869  35.393   7.064
 6214POPC   C4A78294  19.799  35.396   7.364
 6214POPC   C1B78295  20.104  35.278   6.464
 6214POPC   C2B78296  20.049  35.318   6.764
 6214POPC   C3B78297  20.033  35.228   7.064
 6214POPC   C4B78298  20.037  35.277   7.364
 6215POPC   NC378299   7.393   3.533   5.564
 6215POPC   PO478300   7.387   3.525   5.864
 6215POPC   GL178301   7.421   3.583   6.164
 6215POPC   GL278302   7.551   3.587   6.164
 6215POPC   C1A78303   7.401   3.574   6.464
 6215POPC   D2A78304   7.371   3.522   6.764
 6215POPC   C3A78305   7.458   3.541   7.064
 6215POPC   C4A78306   7.431   3.507   7.364
 6215POPC   C1B78307   7.643   3.630   6.464
 6215POPC   C2B78308   7.663   3.552   6.764
 6215POPC   C3B78309   7.680   3.572   7.064
 6215POPC   C4B78310   7.698   3.604   7.364
 6216POPC   NC378311  33.793  42.351   5.564
 6216POPC   PO478312  33.763  42.323   5.864
 6216POPC   GL178313  33.785  42.374   6.164
 6216POPC   GL278314  33.861  42.274   6.164
 6216POPC   C1A78315  33.806  42.288   6.464
 6216POPC   D2A78316  33.835  42.328   6.764
 6216POPC   C3A78317  33.792  42.358   7.064
 6216POPC   C4A78318  33.751  42.328   7.364
 6216POPC   C1B78319  33.951  42.165   6.464
 6216POPC   C2B78320  33.987  42.108   6.764
 6216POPC   C3B78321  33.983  42.105   7.064
 6216POPC   C4B78322  33.918  42.109   7.364
 6217POPC   NC378323  11.286   0.441   5.564
 6217POPC   PO478324  11.269   0.450   5.864
 6217POPC   GL178325  11.342   0.423   6.164
 6217POPC   GL278326  11.395   0.316   6.164
 6217POPC   C1A78327  11.303   0.395   6.464
 6217POPC   D2A78328  11.333   0.389   6.764
 6217POPC   C3A78329  11.258   0.450   7.064
 6217POPC   C4A78330  11.325   0.443   7.364
 6217POPC   C1B78331  11.421   0.216   6.464
 6217POPC   C2B78332  11.456   0.209   6.764
 6217POPC   C3B78333  11.471   0.204   7.064
 6217POPC   C4B78334  11.483   0.261   7.364
 6218POPC   NC378335  33.771  33.058   5.564
 6218POPC   PO478336  33.778  32.998   5.864
 6218POPC   GL178337  33.792  33.023   6.164
 6218POPC   GL278338  33.878  33.110   6.164
 6218POPC   C1A78339  33.826  33.021   6.464
 6218POPC   D2A78340  33.816  33.051   6.764
 6218POPC   C3A78341  33.846  33.033   7.064
 6218POPC   C4A78342  33.822  33.063   7.364
 6218POPC   C1B78343  33.982  33.166   6.464
 6218POPC   C2B78344  34.004  33.148   6.764
 6218POPC   C3B78345  34.002  33.147   7.064
 6218POPC   C4B78346  34.020  33.106   7.364
 6219POPC   NC378347   7.393  33.794   5.564
 6219POPC   PO478348   7.386  33.842   5.864
 6219POPC   GL178349   7.415  33.805   6.164
 6219POPC   GL278350   7.339  33.796   6.164
 6219POPC   C1A78351   7.427  33.828   6.464
 6219POPC   D2A78352   7.387  33.806   6.764
 6219POPC   C3A78353   7.430  33.799   7.064
 6219POPC   C4A78354   7.469  33.840   7.364
 6219POPC   C1B78355   7.219  33.714   6.464
 6219POPC   C2B78356   7.124  33.785   6.764
 6219POPC   C3B78357   7.127  33.773   7.064
 6219POPC   C4B78358   7.169  33.809   7.364
 6220POPC   NC378359  37.684   5.064   5.564
 6220POPC   PO478360  37.702   5.121   5.864
 6220POPC   GL178361  37.680   5.072   6.164
 6220POPC   GL278362  37.829   5.004   6.164
 6220POPC   C1A78363  37.676   5.046   6.464
 6220POPC   D2A78364  37.699   5.068   6.764
 6220POPC   C3A78365  37.664   5.141   7.064
 6220POPC   C4A78366  37.727   5.050   7.364
 6220POPC   C1B78367  37.875   5.005   6.464
 6220POPC   C2B78368  37.893   5.007   6.764
 6220POPC   C3B78369  37.876   4.958   7.064
 6220POPC   C4B78370  37.856   4.952   7.364
 6221POPC   NC378371   4.336  36.863   5.564
 6221POPC   PO478372   4.328  36.953   5.864
 6221POPC   GL178373   4.349  36.874   6.164
 6221POPC   GL278374   4.313  36.819   6.164
 6221POPC   C1A78375   4.279  36.951   6.464
 6221POPC   D2A78376   4.309  36.914   6.764
 6221POPC   C3A78377   4.280  36.941   7.064
 6221POPC   C4A78378   4.313  36.859   7.364
 6221POPC   C1B78379   4.414  36.680   6.464
 6221POPC   C2B78380   4.350  36.661   6.764
 6221POPC   C3B78381   4.403  36.697   7.064
 6221POPC   C4B78382   4.366  36.646   7.364
 6222POPC   NC378383   5.910  27.543   5.564
 6222POPC   PO478384   5.906  27.583   5.864
 6222POPC   GL178385   5.915  27.627   6.164
 6222POPC   GL278386   5.922  27.733   6.164
 6222POPC   C1A78387   5.889  27.585   6.464
 6222POPC   D2A78388   5.857  27.627   6.764
 6222POPC   C3A78389   5.883  27.631   7.064
 6222POPC   C4A78390   5.850  27.621   7.364
 6222POPC   C1B78391   5.986  27.766   6.464
 6222POPC   C2B78392   6.075  27.810   6.764
 6222POPC   C3B78393   5.978  27.818   7.064
 6222POPC   C4B78394   6.037  27.786   7.364
 6223POPC   NC378395  15.198  17.481   5.564
 6223POPC   PO478396  15.138  17.488   5.864
 6223POPC   GL178397  15.212  17.543   6.164
 6223POPC   GL278398  15.098  17.418   6.164
 6223POPC   C1A78399  15.212  17.505   6.464
 6223POPC   D2A78400  15.180  17.499   6.764
 6223POPC   C3A78401  15.220  17.528   7.064
 6223POPC   C4A78402  15.181  17.466   7.364
 6223POPC   C1B78403  15.071  17.286   6.464
 6223POPC   C2B78404  15.075  17.301   6.764
 6223POPC   C3B78405  15.076  17.242   7.064
 6223POPC   C4B78406  15.109  17.243   7.364
 6224POPC   NC378407  31.425  32.208   5.564
 6224POPC   PO478408  31.466  32.265   5.864
 6224POPC   GL178409  31.502  32.288   6.164
 6224POPC   GL278410  31.589  32.286   6.164
 6224POPC   C1A78411  31.438  32.280   6.464
 6224POPC   D2A78412  31.480  32.214   6.764
 6224POPC   C3A78413  31.464  32.241   7.064
 6224POPC   C4A78414  31.495  32.271   7.364
 6224POPC   C1B78415  31.675  32.319   6.464
 6224POPC   C2B78416  31.750  32.269   6.764
 6224POPC   C3B78417  31.762  32.317   7.064
 6224POPC   C4B78418  31.720  32.274   7.364
 6225POPC   NC378419  39.264  38.411   5.564
 6225POPC   PO478420  39.241  38.446   5.864
 6225POPC   GL178421  39.207  38.440   6.164
 6225POPC   GL278422  39.075  38.403   6.164
 6225POPC   C1A78423  39.187  38.441   6.464
 6225POPC   D2A78424  39.251  38.493   6.764
 6225POPC   C3A78425  39.229  38.428   7.064
 6225POPC   C4A78426  39.268  38.483   7.364
 6225POPC   C1B78427  38.978  38.288   6.464
 6225POPC   C2B78428  39.015  38.360   6.764
 6225POPC   C3B78429  38.977  38.314   7.064
 6225POPC   C4B78430  39.023  38.317   7.364
 6226POPC   NC378431  14.414   6.678   5.564
 6226POPC   PO478432  14.450   6.624   5.864
 6226POPC   GL178433  14.429   6.596   6.164
 6226POPC   GL278434  14.241   6.724   6.164
 6226POPC   C1A78435  14.437   6.606   6.464
 6226POPC   D2A78436  14.416   6.629   6.764
 6226POPC   C3A78437  14.411   6.612   7.064
 6226POPC   C4A78438  14.355   6.621   7.364
 6226POPC   C1B78439  14.145   6.703   6.464
 6226POPC   C2B78440  14.184   6.753   6.764
 6226POPC   C3B78441  14.125   6.697   7.064
 6226POPC   C4B78442  14.210   6.727   7.364
 6227POPC   NC378443  29.136  24.445   5.564
 6227POPC   PO478444  29.189  24.507   5.864
 6227POPC   GL178445  29.179  24.443   6.164
 6227POPC   GL278446  29.036  24.381   6.164
 6227POPC   C1A78447  29.182  24.487   6.464
 6227POPC   D2A78448  29.168  24.512   6.764
 6227POPC   C3A78449  29.155  24.488   7.064
 6227POPC   C4A78450  29.140  24.502   7.364
 6227POPC   C1B78451  29.004  24.334   6.464
 6227POPC   C2B78452  28.945  24.339   6.764
 6227POPC   C3B78453  28.982  24.266   7.064
 6227POPC   C4B78454  29.013  24.270   7.364
 6228POPC   NC378455  44.647  39.998   5.564
 6228POPC   PO478456  44.681  39.965   5.864
 6228POPC   GL178457  44.620  40.016   6.164
 6228POPC   GL278458  44.582  40.079   6.164
 6228POPC   C1A78459  44.631  39.965   6.464
 6228POPC   D2A78460  44.699  39.996   6.764
 6228POPC   C3A78461  44.657  39.988   7.064
 6228POPC   C4A78462  44.660  40.049   7.364
 6228POPC   C1B78463  44.522  40.222   6.464
 6228POPC   C2B78464  44.520  40.228   6.764
 6228POPC   C3B78465  44.476  40.187   7.064
 6228POPC   C4B78466  44.551  40.170   7.364
 6229POPC   NC378467  23.668  29.127   5.564
 6229POPC   PO478468  23.725  29.190   5.864
 6229POPC   GL178469  23.699  29.153   6.164
 6229POPC   GL278470  23.759  29.244   6.164
 6229POPC   C1A78471  23.703  29.193   6.464
 6229POPC   D2A78472  23.730  29.145   6.764
 6229POPC   C3A78473  23.719  29.159   7.064
 6229POPC   C4A78474  23.739  29.101   7.364
 6229POPC   C1B78475  23.873  29.322   6.464
 6229POPC   C2B78476  23.858  29.314   6.764
 6229POPC   C3B78477  23.806  29.326   7.064
 6229POPC   C4B78478  23.871  29.352   7.364
 6230POPC   NC378479  25.223  43.088   5.564
 6230POPC   PO478480  25.264  43.141   5.864
 6230POPC   GL178481  25.269  43.145   6.164
 6230POPC   GL278482  25.292  42.978   6.164
 6230POPC   C1A78483  25.256  43.138   6.464
 6230POPC   D2A78484  25.302  43.107   6.764
 6230POPC   C3A78485  25.281  43.125   7.064
 6230POPC   C4A78486  25.246  43.062   7.364
 6230POPC   C1B78487  25.223  42.818   6.464
 6230POPC   C2B78488  25.223  42.835   6.764
 6230POPC   C3B78489  25.306  42.832   7.064
 6230POPC   C4B78490  25.297  42.813   7.364
 6231POPC   NC378491  35.316  26.058   5.564
 6231POPC   PO478492  35.311  26.024   5.864
 6231POPC   GL178493  35.339  26.061   6.164
 6231POPC   GL278494  35.481  26.013   6.164
 6231POPC   C1A78495  35.321  25.998   6.464
 6231POPC   D2A78496  35.376  26.087   6.764
 6231POPC   C3A78497  35.366  26.051   7.064
 6231POPC   C4A78498  35.312  26.079   7.364
 6231POPC   C1B78499  35.599  26.036   6.464
 6231POPC   C2B78500  35.570  26.060   6.764
 6231POPC   C3B78501  35.557  26.077   7.064
 6231POPC   C4B78502  35.642  26.101   7.364
 6232POPC   NC378503  15.183  13.632   5.564
 6232POPC   PO478504  15.193  13.623   5.864
 6232POPC   GL178505  15.174  13.621   6.164
 6232POPC   GL278506  15.259  13.580   6.164
 6232POPC   C1A78507  15.159  13.581   6.464
 6232POPC   D2A78508  15.142  13.667   6.764
 6232POPC   C3A78509  15.172  13.635   7.064
 6232POPC   C4A78510  15.140  13.598   7.364
 6232POPC   C1B78511  15.395  13.551   6.464
 6232POPC   C2B78512  15.470  13.536   6.764
 6232POPC   C3B78513  15.440  13.543   7.064
 6232POPC   C4B78514  15.465  13.619   7.364
 6233POPC   NC378515  38.456  21.359   5.564
 6233POPC   PO478516  38.462  21.395   5.864
 6233POPC   GL178517  38.445  21.337   6.164
 6233POPC   GL278518  38.334  21.356   6.164
 6233POPC   C1A78519  38.490  21.344   6.464
 6233POPC   D2A78520  38.410  21.347   6.764
 6233POPC   C3A78521  38.442  21.343   7.064
 6233POPC   C4A78522  38.465  21.432   7.364
 6233POPC   C1B78523  38.192  21.379   6.464
 6233POPC   C2B78524  38.199  21.342   6.764
 6233POPC   C3B78525  38.230  21.355   7.064
 6233POPC   C4B78526  38.241  21.305   7.364
 6234POPC   NC378527  40.026  26.827   5.564
 6234POPC   PO478528  39.980  26.811   5.864
 6234POPC   GL178529  40.013  26.853   6.164
 6234POPC   GL278530  39.903  26.826   6.164
 6234POPC   C1A78531  40.023  26.791   6.464
 6234POPC   D2A78532  40.020  26.810   6.764
 6234POPC   C3A78533  40.036  26.773   7.064
 6234POPC   C4A78534  40.013  26.866   7.364
 6234POPC   C1B78535  39.751  26.869   6.464
 6234POPC   C2B78536  39.792  26.851   6.764
 6234POPC   C3B78537  39.773  26.853   7.064
 6234POPC   C4B78538  39.742  26.812   7.364
 6235POPC   NC378539  29.186  16.681   5.564
 6235POPC   PO478540  29.119  16.776   5.864
 6235POPC   GL178541  29.151  16.707   6.164
 6235POPC   GL278542  29.267  16.663   6.164
 6235POPC   C1A78543  29.181  16.772   6.464
 6235POPC   D2A78544  29.112  16.748   6.764
 6235POPC   C3A78545  29.110  16.745   7.064
 6235POPC   C4A78546  29.131  16.717   7.364
 6235POPC   C1B78547  29.399  16.643   6.464
 6235POPC   C2B78548  29.348  16.640   6.764
 6235POPC   C3B78549  29.355  16.684   7.064
 6235POPC   C4B78550  29.363  16.658   7.364
 6236W        W78551  11.782  26.138   2.663
 6237W        W78552   8.174  20.178   1.869
 6238W        W78553  32.426  43.861   0.925
 6239W        W78554  32.601  26.964   1.750
 6240W        W78555   3.264  37.001  11.455
 6241W        W78556  15.235  38.538  13.340
 6242W        W78557   9.226   0.834   4.687
 6243W        W78558  25.550  44.866   2.728
 6244W        W78559  28.109  42.380  10.971
 6245W        W78560  35.942  31.416   2.305
 6246W        W78561  12.659   6.897  12.033
 6247W        W78562  24.526  33.594   1.819
 6248W        W78563   6.810  17.606   2.751
 6249W        W78564  10.835   2.756  11.115
 6250W        W78565  13.237   0.450  13.998
 6251W        W78566  28.462  29.952   2.275
 6252W        W78567  38.964  38.928   1.333
 6253W        W78568   2.754  32.637  13.423
 6254W        W78569  41.846  29.120   2.727
 6255W        W78570  24.983   5.429   2.809
 6256W        W78571   8.720   5.798  11.017
 6257W        W78572   7.293  34.600  10.542
 6258W        W78573   9.868  41.819  11.064
 6259W        W78574  30.917   8.248   2.342
 6260W        W78575  27.521   3.239  14.809
 6261W        W78576  26.560  40.332  11.537
 6262W        W78577  20.614   5.806  12.521
 6263W        W78578   4.869  27.529  13.816
 6264W        W78579  31.538   3.781   1.756
 6265W        W78580   6.370  13.620  11.934
 6266W        W78581   3.295  21.132  12.516
 6267W        W78582  29.597  28.961   0.245
 6268W        W78583   5.914  24.663   2.719
 6269W        W78584  44.009  35.958  10.976
 6270W        W78585  31.408  38.531  12.347
 6271W        W78586   6.338   8.267   9.936
 6272W        W78587   7.890  13.110  11.905
 6273W        W78588   7.213   7.299  12.012
 6274W        W78589  17.655  32.562  13.009
 6275W        W78590  44.317  32.448  14.015
 6276W        W78591  15.252  29.935   0.965
 6277W        W78592  39.830  35.020  13.997
 6278W        W78593   7.335   3.930   2.864
 6279W        W78594  32.485  30.477   0.816
 6280W        W78595   9.185  39.000   2.836
 6281W        W78596   8.199  18.776  12.390
 6282W        W78597   7.752  30.954  11.917
 6283W        W78598  37.879  22.706  13.449
 6284W        W78599  26.669  31.477   4.826
 6285W        W78600   8.862  39.823   3.320
 6286W        W78601   6.763  26.672  14.495
 6287W        W78602  14.788  33.426   5.316
 6288W        W78603  15.595  18.107   3.278
 6289W        W78604  26.095  15.810  11.561
 6290W        W78605   4.930  27.469   0.362
 6291W        W78606  34.510  26.494  11.404
 6292W        W78607  41.338  14.273   1.353
 6293W        W78608  20.767  41.930  10.525
 6294W        W78609  21.242  30.606   2.809
 6295W        W78610  25.169  39.446  12.546
 6296W        W78611   7.673  38.462   0.303
 6297W        W78612  41.449  11.270  12.829
 6298W        W78613  14.803  30.495   0.351
 6299W        W78614   0.822  15.802   1.249
 6300W        W78615  20.051   6.253  10.953
 6301W        W78616  12.185  20.754  13.943
 6302W        W78617  30.528  22.545   1.407
 6303W        W78618  32.928  18.117  14.291
 6304W        W78619  37.909  21.726  10.404
 6305W        W78620  24.723  29.585  13.845
 6306W        W78621  30.975  11.373  10.421
 6307W        W78622   3.944  34.388   1.293
 6308W        W78623   5.298   3.720  14.929
 6309W        W78624  24.519  33.401  11.086
 6310W        W78625  14.779  44.449   1.773
 6311W        W78626  12.131  12.670  13.884
 6312W        W78627  30.931  31.631   0.481
 6313W        W78628  29.431  39.338  13.934
 6314W        W78629  33.543  21.718  12.479
 6315W        W78630  31.561  32.937  10.516
 6316W        W78631  26.596  30.626   3.797
 6317W        W78632  18.670  43.961  12.513
 6318W        W78633   6.186  15.093   3.862
 6319W        W78634  38.954  34.386  12.402
 6320W        W78635  38.930  19.699   2.378
 6321W        W78636   4.916   3.258   1.812
 6322W        W78637   2.359  33.515   0.420
 6323W        W78638   2.399  29.050  12.873
 6324W        W78639  11.790  17.151  10.531
 6325W        W78640  37.456  19.580  14.898
 6326W        W78641  25.478  23.223  14.814
 6327W        W78642  13.715  15.238   0.303
 6328W        W78643   8.840  22.670   3.380
 6329W        W78644   2.905   2.875   0.417
 6330W        W78645   0.261  22.058  13.981
 6331W        W78646  29.929  23.193   2.355
 6332W        W78647   1.750  14.143  13.960
 6333W        W78648  44.947  30.506   1.433
 6334W        W78649  29.036  44.480  10.516
 6335W        W78650  10.845  14.124  13.317
 6336W        W78651  37.416   5.913  14.988
 6337W        W78652  36.905  40.519  12.400
 6338W        W78653  39.344  27.493   0.755
 6339W        W78654  30.028  40.519   3.850
 6340W        W78655  26.522  18.574  13.343
 6341W        W78656  22.703  35.580  11.009
 6342W        W78657  19.093  24.183  11.417
 6343W        W78658  38.866   5.766   2.786
 6344W        W78659  36.569  12.128  13.915
 6345W        W78660   5.219  26.654   3.801
 6346W        W78661  27.550  29.139   1.419
 6347W        W78662   3.766  24.529  11.431
 6348W        W78663  26.638  37.417  10.895
 6349W        W78664  17.255  20.175   4.163
 6350W        W78665   6.374  14.264   4.264
 6351W        W78666  22.022  22.507  12.014
 6352W        W78667  10.370  10.347  13.044
 6353W        W78668  20.262  43.334   2.279
 6354W        W78669  14.716  28.112  10.964
 6355W        W78670  43.011  25.683  10.918
 6356W        W78671  33.042  40.350  14.384
 6357W        W78672  35.965  20.189   4.794
 6358W        W78673  21.221  31.499   3.718
 6359W        W78674  40.966  38.889  12.556
 6360W        W78675   1.414  19.547  14.319
 6361W        W78676  23.068  19.269  12.936
 6362W        W78677   3.860  43.938  14.423
 6363W        W78678  18.097  10.368   4.129
 6364W        W78679  38.883  18.178  11.447
 6365W        W78680   5.931   1.259  11.376
 6366W        W78681  30.475  14.183  11.454
 6367W        W78682  19.665  24.630  13.902
 6368W        W78683  27.124  35.464  11.487
 6369W        W78684  11.675  22.252  10.992
 6370W        W78685  11.648  32.888  13.353
 6371W        W78686  16.183   5.871   2.355
 6372W        W78687  11.245   5.722  10.908
 6373W        W78688  36.993  19.077   3.348
 6374W        W78689   3.416  35.400   2.883
 6375W        W78690  29.118  24.556   1.291
 6376W        W78691   6.793  33.546   4.156
 6377W        W78692  38.929  28.161   2.845
 6378W        W78693  11.219  34.984  10.477
 6379W        W78694  43.984   9.330   2.855
 6380W        W78695  44.794  43.833  14.461
 6381W        W78696  34.992  24.605   4.628
 6382W        W78697   8.694   1.937   1.348
 6383W        W78698  41.017  22.505   1.315
 6384W        W78699   4.739  10.812  14.996
 6385W        W78700  39.501  17.235   0.472
 6386W        W78701  20.582   5.239   4.254
 6387W        W78702  35.590  30.413   4.670
 6388W        W78703  26.158  37.386   0.319
 6389W        W78704  10.329  16.708   4.344
 6390W        W78705  16.643  23.640   1.858
 6391W        W78706  34.941   4.398  12.893
 6392W        W78707  24.021  41.851   4.327
 6393W        W78708   2.270  43.487   2.359
 6394W        W78709   9.379  23.538  10.911
 6395W        W78710   3.275  33.382   5.158
 6396W        W78711  37.921  42.845   3.240
 6397W        W78712   6.267   6.416   3.296
 6398W        W78713  28.479   5.433  10.995
 6399W        W78714  42.313  44.928   4.628
 6400W        W78715  14.757  14.613   3.178
 6401W        W78716   3.300  36.411   2.681
 6402W        W78717  37.924   6.757   2.746
 6403W        W78718  37.912  26.688   0.956
 6404W        W78719   0.443  36.954  10.620
 6405W        W78720  24.518  33.451  12.443
 6406W        W78721  31.022  11.354   3.854
 6407W        W78722   5.907  11.764   3.730
 6408W        W78723  26.013   1.282   2.702
 6409W        W78724  42.499   0.294   4.270
 6410W        W78725  25.487  19.583   3.350
 6411W        W78726   0.753  27.529   0.862
 6412W        W78727   6.701  21.562   2.397
 6413W        W78728  18.668  43.000   1.271
 6414W        W78729  31.907  19.202   2.191
 6415W        W78730  25.528  29.580  14.427
 6416W        W78731  21.725  39.480  14.956
 6417W        W78732   8.267  19.689   2.232
 6418W        W78733   2.925  27.574  13.307
 6419W        W78734  13.268  17.110   5.111
 6420W        W78735  11.750  27.603   4.218
 6421W        W78736   9.795   0.838   4.114
 6422W        W78737  40.428   0.934  14.472
 6423W        W78738   9.679  22.549  14.776
 6424W        W78739  36.474   7.766   0.340
 6425W        W78740  40.531  19.569  12.538
 6426W        W78741  16.653  30.652   4.820
 6427W        W78742   9.395  25.052  11.587
 6428W        W78743  20.143  40.332  14.365
 6429W        W78744  41.941  12.351  12.557
 6430W        W78745  13.696  12.733  12.565
 6431W        W78746  44.328  30.514  14.003
 6432W        W78747  35.859   4.300   1.291
 6433W        W78748   0.434   8.847   3.165
 6434W        W78749  15.282  41.501  12.421
 6435W        W78750  44.860  14.821   4.825
 6436W        W78751  40.444  20.257   1.430
 6437W        W78752  11.746  11.228  11.610
 6438W        W78753  40.951  27.557   4.167
 6439W        W78754  28.932   7.742   2.882
 6440W        W78755  14.664   8.192  11.997
 6441W        W78756  36.897   1.434   3.680
 6442W        W78757  20.599  25.151  10.499
 6443W        W78758  29.571  23.618  13.804
 6444W        W78759  31.444  12.777  12.058
 6445W        W78760  29.064  22.197  11.126
 6446W        W78761  44.466  17.782   1.317
 6447W        W78762   4.750  38.900   3.766
 6448W        W78763   4.817  10.641   3.675
 6449W        W78764  30.586  32.937  10.098
 6450W        W78765  22.036   6.700   3.835
 6451W        W78766  41.998  35.557  10.436
 6452W        W78767  10.686  44.430   3.235
 6453W        W78768  19.192  39.871  11.457
 6454W        W78769   1.788  43.987  11.999
 6455W        W78770  21.726  19.127   3.386
 6456W        W78771  25.987  10.215  13.432
 6457W        W78772  23.062  28.967   3.771
 6458W        W78773  28.612  21.078   2.313
 6459W        W78774   0.396   8.177  13.515
 6460W        W78775  14.234  32.538  11.073
 6461W        W78776  22.029  25.109   0.446
 6462W        W78777  19.555  40.928   4.221
 6463W        W78778  17.298  31.641   0.330
 6464W        W78779  23.559  37.849   3.746
 6465W        W78780  19.747  16.663  14.884
 6466W        W78781  28.052  19.070   0.368
 6467W        W78782   5.887  33.533   3.321
 6468W        W78783  12.123  34.909  13.384
 6469W        W78784  37.391  25.508   0.935
 6470W        W78785  43.387   4.426   3.716
 6471W        W78786  30.527  34.920   3.721
 6472W        W78787  36.944  15.205   2.822
 6473W        W78788   1.936   0.828   1.714
 6474W        W78789  40.015  31.043   4.209
 6475W        W78790  33.953  25.648  14.304
 6476W        W78791  43.445  44.259   3.634
 6477W        W78792  17.726  40.543  10.912
 6478W        W78793  10.653  26.058   3.249
 6479W        W78794   8.866  19.051   0.843
 6480W        W78795  27.954  43.287  11.949
 6481W        W78796  34.592  43.382  14.485
 6482W        W78797  41.970   8.724   1.884
 6483W        W78798   6.415  26.697  10.111
 6484W        W78799   6.237  44.359  14.866
 6485W        W78800  24.633   5.368   4.779
 6486W        W78801  20.227  36.533   3.666
 6487W        W78802  12.281   4.879   3.345
 6488W        W78803   1.951  27.030  12.042
 6489W        W78804  33.416   4.440  13.533
 6490W        W78805   0.885  36.938   3.717
 6491W        W78806  21.624  10.708  13.461
 6492W        W78807   0.317  24.702  10.936
 6493W        W78808  13.263  41.305  10.945
 6494W        W78809  15.687  22.523   0.822
 6495W        W78810  30.092  41.502   3.870
 6496W        W78811   7.700  42.324  10.530
 6497W        W78812  39.010  27.631   2.726
 6498W        W78813  27.664   3.441   1.356
 6499W        W78814  16.116  18.674  14.028
 6500W        W78815  25.610   6.758  13.503
 6501W        W78816  21.154  42.934   1.935
 6502W        W78817   8.713  32.893   0.340
 6503W        W78818  20.768  26.491   2.678
 6504W        W78819  38.437  26.118  13.475
 6505W        W78820  42.818  10.828  12.872
 6506W        W78821  16.573  30.510   1.933
 6507W        W78822  33.587  40.039  12.919
 6508W        W78823  16.126  23.672  11.507
 6509W        W78824  16.704  13.842   2.266
 6510W        W78825  37.045  15.768   0.396
 6511W        W78826  17.087  44.490  11.505
 6512W        W78827  25.468  25.090  13.342
 6513W        W78828  14.780  14.212  14.828
 6514W        W78829  38.362  21.240  10.469
 6515W        W78830  26.623   7.774  13.460
 6516W        W78831   0.410  25.217   2.195
 6517W        W78832  39.541  19.136  10.948
 6518W        W78833  39.536  41.934   1.932
 6519W        W78834  40.384  26.684  12.456
 6520W        W78835  29.582  11.715   3.328
 6521W        W78836  31.625  40.995   3.172
 6522W        W78837  13.127  10.159  11.049
 6523W        W78838  15.614  44.396  11.054
 6524W        W78839  15.616  20.164   0.945
 6525W        W78840  31.474   5.403   3.362
 6526W        W78841  12.242  12.201   3.248
 6527W        W78842   0.459  25.537   4.277
 6528W        W78843  37.937  43.822  12.380
 6529W        W78844  36.904  13.689   0.860
 6530W        W78845  28.004  36.439   0.315
 6531W        W78846  11.213  19.653  12.376
 6532W        W78847  31.078   8.802  10.620
 6533W        W78848  31.433  14.670  12.557
 6534W        W78849  33.023   6.205  14.013
 6535W        W78850   6.920  32.114   1.381
 6536W        W78851   9.777  17.688  13.876
 6537W        W78852   6.317  37.831  11.478
 6538W        W78853  28.618  28.100  11.019
 6539W        W78854  43.465  39.486  10.519
 6540W        W78855  32.918  37.539  12.472
 6541W        W78856  20.765  29.463  14.505
 6542W        W78857  19.567  44.308   1.396
 6543W        W78858  33.522  12.339  13.504
 6544W        W78859  17.567  38.440  13.815
 6545W        W78860  17.075   4.353  11.396
 6546W        W78861  37.961  26.063   9.990
 6547W        W78862  22.658  43.391  10.956
 6548W        W78863  39.029  44.894   2.271
 6549W        W78864  21.037  18.265  13.411
 6550W        W78865  29.519  18.226   4.796
 6551W        W78866  27.103  11.711  11.900
 6552W        W78867  10.647   5.806  11.394
 6553W        W78868  36.546  12.725   0.892
 6554W        W78869   2.450  30.078  12.941
 6555W        W78870   7.708   6.385   3.704
 6556W        W78871  39.908  37.488  11.443
 6557W        W78872  22.013  40.457  14.301
 6558W        W78873  41.464  30.921  13.445
 6559W        W78874  40.513  35.589  13.997
 6560W        W78875  38.526   1.437   0.956
 6561W        W78876  12.785  11.705  12.547
 6562W        W78877  14.320   1.351   1.777
 6563W        W78878   9.198  19.553   5.298
 6564W        W78879  17.711   3.404  10.618
 6565W        W78880  35.887   9.865   0.944
 6566W        W78881   7.381  44.978   3.821
 6567W        W78882  13.253  18.663  12.933
 6568W        W78883   8.901  28.662  13.857
 6569W        W78884  36.416  39.396   4.187
 6570W        W78885  24.229  42.910   3.777
 6571W        W78886  37.344   8.877  14.380
 6572W        W78887  20.187  36.860  12.558
 6573W        W78888  33.061  24.557   4.713
 6574W        W78889  20.762  36.395  10.509
 6575W        W78890  23.228  24.990  14.479
 6576W        W78891   6.297   3.363   1.751
 6577W        W78892   2.923  26.967  10.486
 6578W        W78893   2.356  34.476   1.750
 6579W        W78894  43.898  29.952   0.292
 6580W        W78895  18.786   0.781  13.045
 6581W        W78896  23.131  35.447   2.903
 6582W        W78897   3.234  32.458  11.485
 6583W        W78898  17.786  27.652   5.638
 6584W        W78899  42.405   1.890  10.620
 6585W        W78900  20.670  42.414  11.433
 6586W        W78901  15.626  21.541  14.843
 6587W        W78902  26.463  12.205  14.341
 6588W        W78903  21.246  26.061  10.608
 6589W        W78904  16.742  35.502   4.354
 6590W        W78905  30.536   1.410   4.679
 6591W        W78906  38.450  16.662   3.639
 6592W        W78907  41.872  28.001   9.925
 6593W        W78908  38.048  40.958   3.760
 6594W        W78909   8.835  10.347   5.109
 6595W        W78910   4.377  42.807  10.913
 6596W        W78911  17.249  18.208  11.934
 6597W        W78912  15.688  18.292   2.195
 6598W        W78913  15.145  31.905  10.967
 6599W        W78914  20.529  16.195  12.019
 6600W        W78915  13.318  44.373  14.828
 6601W        W78916   8.347  15.624  12.485
 6602W        W78917  24.089  23.527   2.770
 6603W        W78918  32.586  11.670  13.406
 6604W        W78919  35.015  30.091   3.331
 6605W        W78920  44.478  22.696   4.274
 6606W        W78921   8.897  21.535   1.380
 6607W        W78922  23.076  39.374   0.332
 6608W        W78923   5.903  31.041  13.831
 6609W        W78924  33.881   4.375   3.769
 6610W        W78925  29.167  40.853   2.193
 6611W        W78926  35.586  28.943  14.514
 6612W        W78927  30.134  40.861   1.701
 6613W        W78928  28.601  36.576  14.999
 6614W        W78929  35.445  25.683  14.803
 6615W        W78930  11.771  25.123   1.828
 6616W        W78931  34.564  10.852   4.751
 6617W        W78932   3.352  20.659   1.381
 6618W        W78933  22.688  24.500  14.915
 6619W        W78934   1.256  12.318  13.429
 6620W        W78935   6.299  41.403   3.645
 6621W        W78936  42.442  10.857   1.812
 6622W        W78937  24.564  10.684   0.876
 6623W        W78938   3.283  35.858  14.899
 6624W        W78939  30.590  26.152   2.759
 6625W        W78940  35.521  19.666  14.012
 6626W        W78941  14.234  13.151  11.902
 6627W        W78942  12.151  14.258  14.917
 6628W        W78943  32.060  26.113   0.409
 6629W        W78944  37.008  35.518  14.770
 6630W        W78945  38.382  29.114   3.276
 6631W        W78946   3.336  37.351  12.430
 6632W        W78947  22.040  31.050  10.934
 6633W        W78948  21.099  41.853  10.962
 6634W        W78949   5.314  13.799   0.426
 6635W        W78950  27.508  38.942   3.845
 6636W        W78951   1.867  33.046   2.298
 6637W        W78952  27.489  31.105  11.906
 6638W        W78953   0.478  34.114   2.836
 6639W        W78954  24.680   9.353  12.500
 6640W        W78955   0.311  21.076  10.529
 6641W        W78956  33.967  31.572  12.925
 6642W        W78957  16.176  19.700  14.287
 6643W        W78958  13.736  18.600   2.823
 6644W        W78959  19.096   9.248  12.044
 6645W        W78960   4.247  36.591   0.330
 6646W        W78961  27.488  31.473  11.076
 6647W        W78962  16.630  24.197   2.818
 6648W        W78963  30.143  41.512   2.685
 6649W        W78964  36.408   4.303  13.877
 6650W        W78965  42.913  28.980  13.989
 6651W        W78966  17.742  16.644   1.717
 6652W        W78967  30.964  17.582  11.601
 6653W        W78968  10.193   4.938  11.111
 6654W        W78969  41.934  25.556   2.875
 6655W        W78970  38.430  14.094  13.961
 6656W        W78971  17.073   3.933   2.365
 6657W        W78972  40.900   4.390   1.793
 6658W        W78973   7.359  14.833   1.245
 6659W        W78974  35.055  34.375   2.742
 6660W        W78975  28.094  25.592  12.094
 6661W        W78976  34.902  26.121   2.383
 6662W        W78977  11.134   2.340  10.943
 6663W        W78978  27.050   4.810  14.795
 6664W        W78979  30.032   0.890   4.776
 6665W        W78980  25.191   9.255  13.358
 6666W        W78981   3.276  33.067   0.397
 6667W        W78982  12.279  32.471  14.328
 6668W        W78983   5.287   0.856   4.714
 6669W        W78984  38.823   1.846   2.690
 6670W        W78985   8.745   0.798   0.388
 6671W        W78986  43.354  40.432  13.322
 6672W        W78987  11.248  20.065  14.879
 6673W        W78988  32.946  15.679  12.944
 6674W        W78989  31.083   4.938  11.608
 6675W        W78990  20.668  33.528   4.235
 6676W        W78991  34.459  12.362  14.342
 6677W        W78992  38.542   0.934  13.521
 6678W        W78993  23.727  32.015  10.586
 6679W        W78994   9.810  16.629   1.816
 6680W        W78995  34.481  40.939  11.579
 6681W        W78996  31.989  23.221   4.226
 6682W        W78997  15.279   3.925   3.755
 6683W        W78998  39.869  17.757  12.068
 6684W        W78999  27.637  36.386   0.303
 6685W        W79000  44.858  20.182  11.534
 6686W        W79001  34.121  16.108  13.397
 6687W        W79002   7.251   1.365  11.530
 6688W        W79003  26.595  37.449  14.463
 6689W        W79004  12.303  38.325   2.295
 6690W        W79005  23.690  24.594  11.450
 6691W        W79006   1.259  15.106   3.155
 6692W        W79007  22.690   4.902   3.733
 6693W        W79008   6.778  35.033  14.974
 6694W        W79009  21.737  24.577  13.007
 6695W        W79010  38.467  34.528  11.128
 6696W        W79011  39.045  28.471  12.535
 6697W        W79012  13.758  14.764  12.960
 6698W        W79013   0.308  40.414  13.915
 6699W        W79014   8.689  11.671   4.637
 6700W        W79015  20.602  30.627  11.941
 6701W        W79016   5.270  15.124  12.839
 6702W        W79017  41.292   8.663   4.787
 6703W        W79018  33.056   4.315   0.370
 6704W        W79019  12.209   7.724   4.292
 6705W        W79020  20.202  22.194   0.745
 6706W        W79021  17.705  13.768   0.483
 6707W        W79022  43.294   2.841  13.456
 6708W        W79023   2.869   3.414  12.045
 6709W        W79024  38.354  39.333   0.362
 6710W        W79025  21.564  16.738   1.719
 6711W        W79026  11.206  35.097   0.903
 6712W        W79027  34.538  16.170  11.969
 6713W        W79028  15.158  21.225   4.800
 6714W        W79029  43.975  44.460   3.379
 6715W        W79030   2.966  16.724  11.116
 6716W        W79031  26.585   7.856   2.322
 6717W        W79032   7.345  19.659   3.780
 6718W        W79033  44.471  27.592  12.939
 6719W        W79034  12.350  42.785  13.970
 6720W        W79035  39.481  41.360   4.740
 6721W        W79036  19.587  25.568   2.773
 6722W        W79037  44.760  29.640  13.309
 6723W        W79038  10.810  37.434  11.080
 6724W        W79039  41.472  27.504   0.379
 6725W        W79040  17.655  39.421   4.835
 6726W        W79041  21.062  38.972  13.465
 6727W        W79042  21.704  38.891   3.817
 6728W        W79043   6.374  19.743   3.836
 6729W        W79044  15.112  19.660   0.298
 6730W        W79045  25.572  42.320   1.799
 6731W        W79046  38.352   6.378   1.711
 6732W        W79047   8.705  25.628   2.780
 6733W        W79048  30.053  17.720   4.616
 6734W        W79049  22.019  10.266   4.624
 6735W        W79050  40.472   2.944  11.926
 6736W        W79051   4.445  19.547  13.835
 6737W        W79052  24.688   9.295  10.594
 6738W        W79053  24.180  29.129   4.628
 6739W        W79054   3.844  34.922  14.981
 6740W        W79055   9.165  40.518   4.606
 6741W        W79056  34.468  14.741  10.499
 6742W        W79057  11.222  11.173   0.785
 6743W        W79058  44.410   6.202  11.559
 6744W        W79059  13.135   8.256  13.432
 6745W        W79060  38.393  34.022  14.372
 6746W        W79061   5.818  17.092   4.184
 6747W        W79062  28.439   4.707   4.296
 6748W        W79063   5.241  17.722  14.399
 6749W        W79064  24.120   4.282  14.892
 6750W        W79065  40.490  14.307   3.176
 6751W        W79066   7.672   3.371   2.309
 6752W        W79067  15.132  37.571   2.825
 6753W        W79068  28.987  27.496  12.860
 6754W        W79069   2.832   1.836   3.320
 6755W        W79070  24.710  20.101  11.591
 6756W        W79071  38.037   7.245   1.386
 6757W        W79072   5.932  11.792   2.384
 6758W        W79073   3.261  17.095   2.808
 6759W        W79074  28.081  36.071  12.404
 6760W        W79075   5.770  41.938  14.773
 6761W        W79076   5.901  44.909  11.579
 6762W        W79077   0.929  37.576  14.796
 6763W        W79078  15.803  20.034  12.371
 6764W        W79079  23.704   5.289  12.062
 6765W        W79080  17.099  13.303  14.918
 6766W        W79081  18.206  41.922   2.211
 6767W        W79082  12.800  37.070   0.810
 6768W        W79083  20.080  41.013   3.744
 6769W        W79084   5.196  17.677  11.395
 6770W        W79085  20.617  17.616  13.523
 6771W        W79086  35.039   3.777   2.350
 6772W        W79087  41.820   4.422  12.849
 6773W        W79088   2.386  43.457  13.928
 6774W        W79089  26.643  27.542   2.341
 6775W        W79090  20.101  18.138   0.243
 6776W        W79091  22.633  35.923  14.296
 6777W        W79092  11.193  13.122  12.532
 6778W        W79093  34.937  19.158   3.659
 6779W        W79094  14.097  30.460  14.403
 6780W        W79095  34.080  39.955   2.181
 6781W        W79096  40.935  10.322   0.342
 6782W        W79097  13.711  44.897  11.394
 6783W        W79098  29.531  39.533   0.479
 6784W        W79099  11.670  35.865   1.303
 6785W        W79100  40.502  37.401  12.514
 6786W        W79101   8.851  13.737   2.843
 6787W        W79102  33.420  25.154  12.543
 6788W        W79103  41.501  10.783  12.839
 6789W        W79104  39.914  19.100  11.037
 6790W        W79105   3.245   4.369   1.226
 6791W        W79106  25.130  37.402  12.512
 6792W        W79107  30.931   6.261  12.393
 6793W        W79108  27.518  33.420  14.988
 6794W        W79109  43.387  28.583  14.491
 6795W        W79110  25.684  35.908   4.609
 6796W        W79111  28.138  10.818   2.829
 6797W        W79112   1.254  12.777  10.566
 6798W        W79113  30.923  23.121   2.389
 6799W        W79114  32.137   7.414  14.760
 6800W        W79115  23.103  30.502   2.183
 6801W        W79116  43.833  29.153   2.845
 6802W        W79117   1.372  40.522   1.766
 6803W        W79118  18.068  37.071  11.962
 6804W        W79119   8.834  35.416  10.969
 6805W        W79120  27.502  13.762  14.906
 6806W        W79121  20.259  22.065  14.951
 6807W        W79122  32.096  24.131  14.978
 6808W        W79123   5.878  43.309  11.915
 6809W        W79124   1.914  40.463   5.260
 6810W        W79125  35.584  13.706  14.298
 6811W        W79126  33.460  16.733   2.758
 6812W        W79127  37.444  14.220   0.311
 6813W        W79128  19.750   2.390   2.262
 6814W        W79129   7.765  32.633  12.031
 6815W        W79130  24.182  37.449  10.415
 6816W        W79131  44.782  34.585  11.557
 6817W        W79132   2.734  25.191  14.820
 6818W        W79133  22.634  35.042  13.046
 6819W        W79134  11.778   1.745   2.257
 6820W        W79135  36.349  15.290  13.314
 6821W        W79136  14.242  27.685   3.633
 6822W        W79137  43.373  26.610  10.108
 6823W        W79138  11.795   7.297   3.807
 6824W        W79139  39.426  28.562   2.279
 6825W        W79140  24.562   7.396   4.191
 6826W        W79141   3.242  42.949  11.452
 6827W        W79142  25.056   7.892   4.823
 6828W        W79143  18.273  22.064   3.805
 6829W        W79144  37.494  36.056  13.801
 6830W        W79145  17.069  29.010  10.126
 6831W        W79146  24.096  18.566   4.297
 6832W        W79147  11.241  35.391  11.012
 6833W        W79148  12.152  28.656   2.786
 6834W        W79149  20.247  40.813   1.728
 6835W        W79150  26.066  19.534  13.445
 6836W        W79151   3.746  40.963  13.929
 6837W        W79152  31.581  38.538   4.627
 6838W        W79153  38.991  30.459   0.936
 6839W        W79154  23.542  26.076   2.673
 6840W        W79155  35.986  11.654  14.398
 6841W        W79156  20.620  39.319  14.001
 6842W        W79157  39.479  20.756  11.408
 6843W        W79158  17.695   0.760  11.610
 6844W        W79159  37.009  42.347  10.919
 6845W        W79160  24.086  35.938  14.349
 6846W        W79161  25.534  32.441  10.961
 6847W        W79162  15.173  25.564  14.837
 6848W        W79163  43.444  26.954   0.959
 6849W        W79164  39.999  23.507  12.957
 6850W        W79165   9.275  25.589  14.380
 6851W        W79166  29.656  40.452  14.468
 6852W        W79167   6.191  43.381  11.944
 6853W        W79168  43.363  20.171  11.026
 6854W        W79169   7.813   6.282  13.014
 6855W        W79170  18.102  32.969  12.011
 6856W        W79171  29.986  19.735   1.709
 6857W        W79172  27.491   8.778  11.431
 6858W        W79173  11.720  19.752   2.844
 6859W        W79174   1.290   2.243  14.334
 6860W        W79175  15.738  22.033  11.065
 6861W        W79176  30.938  31.436   3.315
 6862W        W79177  37.564  40.896   0.771
 6863W        W79178  41.427  18.714   3.260
 6864W        W79179  39.456  24.179  10.994
 6865W        W79180   7.750  30.570   5.150
 6866W        W79181  16.766  12.840  13.402
 6867W        W79182   8.206   7.730   3.644
 6868W        W79183  24.488  32.474  10.944
 6869W        W79184  13.237  25.010  10.917
 6870W        W79185  10.803   7.274  11.583
 6871W        W79186  14.753  35.487   4.698
 6872W        W79187   3.443   6.884  10.955
 6873W        W79188  34.577  35.482   4.241
 6874W        W79189   9.830  16.755  13.411
 6875W        W79190  20.144  18.188  11.413
 6876W        W79191  12.612   2.782  14.497
 6877W        W79192  14.773  35.856  11.565
 6878W        W79193  38.386  32.049  14.323
 6879W        W79194   3.784  21.111   4.679
 6880W        W79195   6.760  22.651  13.355
 6881W        W79196  35.426  15.290   1.399
 6882W        W79197  24.195  21.678   0.773
 6883W        W79198  35.888   4.445  12.066
 6884W        W79199  11.831   9.193  10.592
 6885W        W79200  17.252  40.037  12.559
 6886W        W79201   0.423  25.091   4.315
 6887W        W79202   3.326  11.826   1.873
 6888W        W79203  26.094  18.646  10.506
 6889W        W79204   6.724   5.429  12.550
 6890W        W79205  36.914  25.042  13.482
 6891W        W79206  18.156  17.064  13.998
 6892W        W79207  26.029  26.566   3.733
 6893W        W79208  44.841  16.744  13.523
 6894W        W79209  12.799  37.392  14.792
 6895W        W79210   5.796  18.273   4.806
 6896W        W79211  35.469  27.116   3.326
 6897W        W79212   6.745  13.146  10.613
 6898W        W79213  23.168  27.196  12.010
 6899W        W79214  25.066  21.132   4.325
 6900W        W79215  34.426  37.484  10.495
 6901W        W79216  10.728  39.946   1.932
 6902W        W79217   8.337  36.424   3.322
 6903W        W79218  44.281   8.226   1.729
 6904W        W79219  34.584  35.561  10.487
 6905W        W79220   5.414  42.922   2.287
 6906W        W79221  28.609  15.321   2.777
 6907W        W79222  39.838  32.027  11.990
 6908W        W79223  30.140  42.960   4.331
 6909W        W79224  11.228  15.298   4.121
 6910W        W79225   1.940  28.520  12.568
 6911W        W79226  30.585   6.680  13.914
 6912W        W79227  32.958  29.997  11.019
 6913W        W79228  23.064   6.831  14.307
 6914W        W79229  24.597  19.273  11.923
 6915W        W79230  43.336   9.216   2.210
 6916W        W79231  24.602  11.776   2.242
 6917W        W79232  20.132  17.148  11.470
 6918W        W79233  43.497  42.364   4.315
 6919W        W79234  40.492  38.505  13.408
 6920W        W79235  43.296  10.199  14.349
 6921W        W79236  36.552  37.403   0.259
 6922W        W79237  22.744  27.078   0.743
 6923W        W79238   6.893  26.487   3.242
 6924W        W79239  24.108  30.102   3.854
 6925W        W79240  36.490   2.415  10.458
 6926W        W79241   1.824  38.874  11.428
 6927W        W79242   6.383  37.890  14.779
 6928W        W79243   4.424   4.792  12.482
 6929W        W79244  35.472  29.050  12.509
 6930W        W79245  36.509  10.238  14.278
 6931W        W79246   4.828  20.163   3.233
 6932W        W79247   2.389  11.276   2.239
 6933W        W79248  30.928  42.471  12.979
 6934W        W79249  40.936  27.165   1.876
 6935W        W79250   9.832  37.054   1.856
 6936W        W79251  19.743  23.582  14.771
 6937W        W79252   6.830  44.903   0.462
 6938W        W79253   5.422  39.420  14.286
 6939W        W79254   5.689  29.547   1.319
 6940W        W79255  39.466  25.500  10.088
 6941W        W79256  43.456   4.315  13.007
 6942W        W79257  32.559   2.342   4.623
 6943W        W79258  44.845   5.731   2.230
 6944W        W79259   2.283  27.649  10.445
 6945W        W79260   6.351  17.262  10.581
 6946W        W79261  44.761  13.145  11.479
 6947W        W79262   3.875   1.409   1.269
 6948W        W79263  23.149  26.028  14.507
 6949W        W79264  43.309  36.084   9.938
 6950W        W79265  19.180   5.386   4.137
 6951W        W79266  42.957   2.282   0.809
 6952W        W79267  26.952  14.095  10.529
 6953W        W79268  13.108  16.282  11.984
 6954W        W79269  36.000   2.303  13.993
 6955W        W79270   0.952  20.591   2.875
 6956W        W79271   1.816  34.552   2.696
 6957W        W79272  10.249  26.143   1.408
 6958W        W79273  32.572  24.140  14.915
 6959W        W79274  39.971   3.761   1.929
 6960W        W79275  38.042  31.057   1.284
 6961W        W79276  13.188  28.614  12.415
 6962W        W79277  44.801  39.357  11.474
 6963W        W79278  35.520   2.770   3.185
 6964W        W79279   5.825  30.020   2.280
 6965W        W79280  10.354   7.264   2.304
 6966W        W79281   2.786  42.800   4.115
 6967W        W79282  32.573  30.493  14.779
 6968W        W79283  25.066  17.141  10.913
 6969W        W79284   3.294  37.515   4.354
 6970W        W79285  26.079   6.417  11.380
 6971W        W79286   7.683  17.751  12.354
 6972W        W79287   1.831  37.025   4.305
 6973W        W79288  15.316  11.148  13.044
 6974W        W79289   3.363  24.199  13.359
 6975W        W79290  12.747  36.026  10.481
 6976W        W79291  43.927   4.818  10.484
 6977W        W79292  17.188   4.912  11.588
 6978W        W79293  22.014  39.458  13.311
 6979W        W79294  15.196  15.700   5.136
 6980W        W79295  41.532   9.307  11.390
 6981W        W79296  26.155  38.073  10.550
 6982W        W79297  16.769   0.884   2.268
 6983W        W79298   1.806  41.946  12.941
 6984W        W79299  24.012  39.457  12.484
 6985W        W79300   5.279  22.200   2.854
 6986W        W79301  25.575  33.622   2.758
 6987W        W79302  23.732  13.759   2.811
 6988W        W79303  13.827  14.212  11.520
 6989W        W79304   4.924  41.524   0.346
 6990W        W79305  27.110  10.340   3.204
 6991W        W79306   1.483  29.094  10.987
 6992W        W79307  30.157  37.970  11.021
 6993W        W79308  14.169  18.668  12.910
 6994W        W79309  27.952  43.360  13.835
 6995W        W79310  42.318   0.804  10.470
 6996W        W79311   7.891  42.379   2.306
 6997W        W79312   3.355  36.413   0.387
 6998W        W79313  41.451  24.590  14.315
 6999W        W79314  38.480  31.137   1.289
 7000W        W79315  37.867  27.998  10.458
 7001W        W79316  24.522  37.353  12.988
 7002W        W79317  26.105  23.112  11.477
 7003W        W79318  32.466  39.469  11.536
 7004W        W79319   5.312   7.886   1.912
 7005W        W79320  37.356  20.623   3.329
 7006W        W79321  43.324  39.040   3.674
 7007W        W79322   2.905  23.717   3.653
 7008W        W79323  21.151   2.902  11.077
 7009W        W79324  24.034   5.312   2.825
 7010W        W79325  33.598   4.218  14.367
 7011W        W79326  32.404   4.843   1.422
 7012W        W79327   9.158  22.715  13.308
 7013W        W79328  36.567  27.113   4.263
 7014W        W79329   1.464  37.477   3.738
 7015W        W79330  27.119  12.116   3.285
 7016W        W79331  32.430   6.907  14.283
 7017W        W79332  24.701  12.299  14.965
 7018W        W79333  26.064  34.583  12.046
 7019W        W79334   7.880   0.878  10.104
 7020W        W79335  28.143  29.921  13.975
 7021W        W79336  26.490  31.494  11.060
 7022W        W79337  15.220  44.405  14.878
 7023W        W79338  26.024  31.910   9.609
 7024W        W79339   0.334  21.751  13.396
 7025W        W79340   7.332  21.047  10.503
 7026W        W79341  18.779  34.987  14.387
 7027W        W79342  31.948  38.418  11.419
 7028W        W79343  14.258   1.905   3.706
 7029W        W79344   2.336  29.004  14.989
 7030W        W79345  41.001   2.878  12.887
 7031W        W79346   4.725  43.957   1.699
 7032W        W79347  40.963  41.888   2.180
 7033W        W79348  28.645  43.513   2.710
 7034W        W79349  20.082  43.313  13.398
 7035W        W79350   2.338  32.948  14.842
 7036W        W79351   9.354  40.804  12.381
 7037W        W79352  21.187  28.997   3.205
 7038W        W79353  29.639  24.715   3.223
 7039W        W79354  40.025   4.806   1.754
 7040W        W79355  20.264  25.185  10.098
 7041W        W79356  13.238   9.218   4.755
 7042W        W79357  32.397   7.724  13.448
 7043W        W79358   2.369  20.570   0.245
 7044W        W79359  21.590  18.195   2.284
 7045W        W79360  20.589  14.764  13.431
 7046W        W79361  21.043   5.798  14.460
 7047W        W79362  34.110  39.918  11.903
 7048W        W79363  14.281  36.005  12.010
 7049W        W79364  35.086  42.776   3.179
 7050W        W79365  12.738  15.788  11.077
 7051W        W79366  16.249  39.382   9.542
 7052W        W79367  35.481  30.514  11.937
 7053W        W79368  30.495  41.010   2.384
 7054W        W79369  15.696  14.173   5.196
 7055W        W79370  30.479   6.270   5.145
 7056W        W79371  33.952  16.778   4.224
 7057W        W79372  12.351  30.658   4.282
 7058W        W79373  24.523   2.264   0.948
 7059W        W79374  39.032  40.498  13.010
 7060W        W79375  22.084  21.750   5.186
 7061W        W79376  12.230  23.569   2.829
 7062W        W79377   5.305  41.922  14.323
 7063W        W79378  38.389   8.713   2.210
 7064W        W79379   7.343  40.994   4.185
 7065W        W79380   1.823  20.067  13.478
 7066W        W79381   2.386  33.447   2.348
 7067W        W79382  32.570  42.350  14.410
 7068W        W79383  44.262  37.862   1.355
 7069W        W79384  18.081  43.516  12.471
 7070W        W79385  39.930  42.354   0.866
 7071W        W79386  38.402  26.569   4.338
 7072W        W79387   9.193  22.511   3.308
 7073W        W79388  36.519  10.818  14.942
 7074W        W79389  22.094   8.794   0.356
 7075W        W79390  34.903  44.388  10.023
 7076W        W79391  15.286  14.607  11.512
 7077W        W79392  29.652  12.160   1.728
 7078W        W79393  10.139   5.392  14.906
 7079W        W79394   6.307  33.473   2.288
 7080W        W79395  27.054  38.921   3.852
 7081W        W79396  19.129  39.055   4.157
 7082W        W79397  14.098  23.150  12.830
 7083W        W79398  31.514  30.976  13.852
 7084W        W79399  23.082  33.036  12.072
 7085W        W79400   8.268   1.416  10.544
 7086W        W79401  17.085  11.315   3.380
 7087W        W79402  21.239   1.307   1.399
 7088W        W79403  25.516  27.148  12.979
 7089W        W79404  13.725  11.297  10.570
 7090W        W79405   4.361   0.913   0.926
 7091W        W79406  31.431  42.957  10.094
 7092W        W79407  29.637   2.424   2.728
 7093W        W79408  23.664  11.710   2.314
 7094W        W79409  38.516  30.098   1.736
 7095W        W79410  27.197  27.495  14.373
 7096W        W79411  22.524   4.408   1.323
 7097W        W79412   1.733  10.708   0.868
 7098W        W79413  15.175  21.089  13.851
 7099W        W79414  26.517   2.300   3.252
 7100W        W79415  38.458  44.940  12.978
 7101W        W79416  42.825  18.745   4.296
 7102W        W79417  30.136  33.419   1.839
 7103W        W79418   8.830  33.418  10.951
 7104W        W79419  10.646  43.847   4.631
 7105W        W79420   9.287  30.916  12.017
 7106W        W79421   5.207  43.416  10.449
 7107W        W79422  32.048  22.527   4.829
 7108W        W79423  20.766  21.254   4.174
 7109W        W79424   7.908  20.031   2.810
 7110W        W79425  43.829  32.903  11.422
 7111W        W79426  17.712  13.175  11.077
 7112W        W79427  40.492  38.941  14.389
 7113W        W79428  27.110  15.739   4.234
 7114W        W79429  24.209  38.831  13.451
 7115W        W79430  34.488  11.859  13.852
 7116W        W79431  26.663  20.700  11.042
 7117W        W79432  29.031  10.351   3.667
 7118W        W79433  34.484  11.756  10.944
 7119W        W79434  15.780   0.901   2.226
 7120W        W79435  18.638   8.361  11.051
 7121W        W79436  37.456  36.573   5.234
 7122W        W79437  41.836   4.267   2.276
 7123W        W79438  41.434  31.611  12.502
 7124W        W79439  36.389   7.762  11.111
 7125W        W79440  41.346   1.448   1.295
 7126W        W79441  29.545  29.546  10.615
 7127W        W79442  10.233  27.690  12.349
 7128W        W79443  23.612   8.774   0.898
 7129W        W79444  15.754  24.177  14.515
 7130W        W79445  31.958  22.168   1.928
 7131W        W79446  12.278  34.518  10.901
 7132W        W79447  39.981   9.392  12.942
 7133W        W79448  31.955  36.534   4.742
 7134W        W79449  16.293  15.791  14.399
 7135W        W79450  20.667  25.082  13.519
 7136W        W79451  24.014  30.923   2.214
 7137W        W79452  26.991  27.461   3.755
 7138W        W79453  14.811  43.494   0.771
 7139W        W79454  32.097  40.976   4.632
 7140W        W79455  18.200  32.439  13.041
 7141W        W79456  17.611  23.107   2.271
 7142W        W79457  39.960   8.748   0.753
 7143W        W79458  21.606   8.898  12.433
 7144W        W79459  37.538  29.605  12.990
 7145W        W79460  38.339   0.417  10.467
 7146W        W79461  17.738   8.295   9.623
 7147W        W79462  41.537  23.145   4.126
 7148W        W79463   0.344   7.368   3.153
 7149W        W79464   8.663  29.445  10.501
 7150W        W79465  30.963  28.968  10.458
 7151W        W79466  27.689  36.495   3.666
 7152W        W79467  33.379  29.545  10.946
 7153W        W79468  19.634  37.387  14.361
 7154W        W79469  20.161  41.533  13.415
 7155W        W79470  27.477  38.398  13.504
 7156W        W79471   1.853  18.627  13.436
 7157W        W79472  20.088  24.597   2.781
 7158W        W79473  36.022  18.155   3.339
 7159W        W79474  32.131  25.625  13.961
 7160W        W79475  26.533  31.623   0.888
 7161W        W79476  13.770  38.343   4.126
 7162W        W79477  28.487  19.202  14.800
 7163W        W79478   9.714  20.241   1.265
 7164W        W79479  18.551  43.352   4.723
 7165W        W79480  14.238  40.473  10.553
 7166W        W79481  20.222  37.854  10.449
 7167W        W79482  23.634  14.120   2.698
 7168W        W79483   3.835  18.549  14.815
 7169W        W79484  39.824  40.929  14.847
 7170W        W79485   9.808  13.232  11.558
 7171W        W79486  43.480  25.165   3.662
 7172W        W79487  38.071  10.877   3.687
 7173W        W79488  34.404   6.869   3.302
 7174W        W79489  41.492  23.230  11.481
 7175W        W79490   3.939  24.663  14.295
 7176W        W79491  30.081  34.544   4.640
 7177W        W79492  24.996   5.860   0.450
 7178W        W79493  38.028  28.463   4.786
 7179W        W79494  40.990  32.120   3.223
 7180W        W79495  20.031  27.993  14.291
 7181W        W79496  41.038  30.114  13.809
 7182W        W79497  23.512   0.406  11.395
 7183W        W79498  17.559  23.039  14.783
 7184W        W79499  18.291  42.979   1.809
 7185W        W79500  22.020   9.652  13.941
 7186W        W79501   0.891  25.636  12.018
 7187W        W79502  19.727  16.187  11.423
 7188W        W79503  26.652  35.580  11.061
 7189W        W79504  20.149  10.340   4.828
 7190W        W79505  12.305  18.131  12.084
 7191W        W79506   1.909  42.874   4.161
 7192W        W79507  43.779   4.336  12.999
 7193W        W79508  12.140  39.450   0.935
 7194W        W79509   6.701  16.278   0.405
 7195W        W79510  44.760  29.131  10.417
 7196W        W79511  44.767   0.878   2.241
 7197W        W79512   4.710  28.069   2.218
 7198W        W79513  10.697  40.540   3.793
 7199W        W79514  24.171   1.428  14.942
 7200W        W79515   8.680   4.255  13.448
 7201W        W79516   8.722  34.459   2.228
 7202W        W79517  42.840  37.010   3.342
 7203W        W79518  35.505   8.865   0.813
 7204W        W79519  38.523  20.665   3.641
 7205W        W79520  15.295  23.093  14.297
 7206W        W79521  14.163  31.144   1.213
 7207W        W79522   1.425  44.796   3.784
 7208W        W79523  42.884  43.293  11.960
 7209W        W79524  37.467   0.339   0.874
 7210W        W79525  32.556   3.744  12.542
 7211W        W79526   3.722   7.756  11.448
 7212W        W79527  14.741  33.080   3.329
 7213W        W79528  11.304  24.181  14.007
 7214W        W79529  32.084  19.153   2.878
 7215W        W79530  16.215   1.916  11.950
 7216W        W79531  39.004  14.254  13.539
 7217W        W79532  32.133  23.674  14.420
 7218W        W79533  29.011   3.353  12.533
 7219W        W79534   3.901  19.085   1.392
 7220W        W79535  27.161  13.227   3.679
 7221W        W79536  18.130  41.820  12.917
 7222W        W79537   8.761  19.055  13.952
 7223W        W79538  41.906  18.704  12.961
 7224W        W79539   6.916  16.802  11.405
 7225W        W79540  21.246  33.544  14.329
 7226W        W79541  36.535  41.963   0.935
 7227W        W79542  32.123  39.441  10.611
 7228W        W79543  21.172  31.568   2.831
 7229W        W79544  42.777  40.387  14.361
 7230W        W79545  11.129  10.355  10.602
 7231W        W79546   2.789  29.501   0.344
 7232W        W79547  38.940   3.862   3.321
 7233W        W79548  38.346  12.656   0.350
 7234W        W79549   3.918  27.155  13.968
 7235W        W79550  42.988  17.293  13.393
 7236W        W79551   9.887  37.459  11.027
 7237W        W79552   6.786  31.552  11.124
 7238W        W79553  24.680  40.375   1.288
 7239W        W79554  15.757  25.094  12.940
 7240W        W79555  17.070  10.346  14.826
 7241W        W79556  36.090  27.620  13.914
 7242W        W79557  37.407  44.902  10.638
 7243W        W79558  29.540  12.666   0.783
 7244W        W79559  34.560   8.666   0.820
 7245W        W79560  42.426  14.807  12.541
 7246W        W79561  26.529  38.840  12.556
 7247W        W79562  18.273  17.691   1.765
 7248W        W79563  28.520  34.894  13.387
 7249W        W79564  35.389   1.289   0.738
 7250W        W79565  15.236  36.438  10.638
 7251W        W79566  28.531  39.855   4.159
 7252W        W79567  26.559  39.450   2.389
 7253W        W79568  27.944   4.397   9.987
 7254W        W79569  32.065  42.492  11.120
 7255W        W79570  43.862   3.253  13.313
 7256W        W79571  14.263  13.147   5.123
 7257W        W79572  33.487  24.978   1.818
 7258W        W79573   9.300  34.880   2.892
 7259W        W79574  36.010   6.882   0.313
 7260W        W79575  39.041  42.826   5.167
 7261W        W79576  25.695  19.730   2.838
 7262W        W79577  16.575  22.082   4.647
 7263W        W79578   7.233  44.976  12.516
 7264W        W79579  32.414   0.966  14.926
 7265W        W79580  39.430  22.186   4.777
 7266W        W79581  42.362  41.801  13.419
 7267W        W79582  16.730  44.314   2.852
 7268W        W79583  23.182   8.337   4.326
 7269W        W79584  26.656   6.793   1.425
 7270W        W79585  43.484  35.579  11.393
 7271W        W79586   1.437  10.738  11.049
 7272W        W79587  24.115  21.542   5.283
 7273W        W79588  21.634   4.922   1.772
 7274W        W79589  22.034  34.546   0.457
 7275W        W79590  38.973   3.863  13.043
 7276W        W79591  26.487  35.578   3.224
 7277W        W79592  28.969  31.026  12.442
 7278W        W79593  28.443  35.443   3.269
 7279W        W79594  33.945  27.502  10.905
 7280W        W79595   6.237  34.057   2.725
 7281W        W79596  17.233  30.580  13.483
 7282W        W79597  36.425   3.885  12.951
 7283W        W79598  11.826  24.004   4.775
 7284W        W79599  10.795  43.290   4.761
 7285W        W79600  44.888  15.732   0.372
 7286W        W79601  11.791   2.374   3.741
 7287W        W79602  35.058   9.829   3.244
 7288W        W79603   6.182   5.896  11.015
 7289W        W79604   1.381   6.821  12.994
 7290W        W79605  24.190  25.011  12.984
 7291W        W79606  13.300  42.954   0.315
 7292W        W79607  14.134  14.726  11.887
 7293W        W79608  40.410  41.377   3.206
 7294W        W79609  25.090  40.846   0.476
 7295W        W79610  29.603  43.893   3.849
 7296W        W79611  19.764   3.955   2.409
 7297W        W79612  41.914  23.492  14.973
 7298W        W79613  17.193  12.778   2.285
 7299W        W79614   8.792  35.867   0.483
 7300W        W79615  22.534  11.764   5.114
 7301W        W79616  27.059  24.206   2.869
 7302W        W79617  40.367  32.081  14.965
 7303W        W79618  21.587  20.728  12.355
 7304W        W79619  15.294  40.931   4.733
 7305W        W79620  38.834   6.228   0.856
 7306W        W79621  44.380   0.428  11.979
 7307W        W79622  20.741  39.847  12.550
 7308W        W79623   0.433  16.748   3.766
 7309W        W79624   6.232   9.176  10.981
 7310W        W79625   9.848  11.707   1.314
 7311W        W79626  39.473  43.456   4.127
 7312W        W79627  17.660  41.372   0.875
 7313W        W79628  27.118  25.215   4.616
 7314W        W79629  40.988   8.837  14.836
 7315W        W79630  15.748  26.188  12.467
 7316W        W79631   3.756  28.020  13.458
 7317W        W79632   0.253   1.354   3.223
 7318W        W79633  42.015  25.512   0.328
 7319W        W79634  23.061  11.814   0.366
 7320W        W79635  33.100  37.052  12.872
 7321W        W79636   3.293  30.651   3.749
 7322W        W79637  20.618  36.477   0.308
 7323W        W79638  44.504   7.317   4.620
 7324W        W79639  24.545  40.029   2.791
 7325W        W79640  20.705  34.035   4.653
 7326W        W79641  17.283  23.032  11.585
 7327W        W79642   5.891   1.758   2.244
 7328W        W79643  21.589   0.254   2.309
 7329W        W79644   0.399  22.659   2.267
 7330W        W79645  16.244  14.632  11.051
 7331W        W79646  42.901   8.221   2.782
 7332W        W79647  36.014  34.578   0.836
 7333W        W79648  33.982  33.403  10.439
 7334W        W79649   0.406  28.186   2.364
 7335W        W79650   7.205  13.724  11.506
 7336W        W79651  43.421  32.085   2.228
 7337W        W79652   1.754  12.815   3.381
 7338W        W79653  25.069   1.463  13.466
 7339W        W79654   6.367  15.173  12.881
 7340W        W79655  23.721  22.690  13.016
 7341W        W79656  39.533  44.490  10.947
 7342W        W79657  41.429  21.237  10.910
 7343W        W79658  24.582  29.513   2.678
 7344W        W79659  27.190  17.736   0.919
 7345W        W79660  10.239   0.874   4.637
 7346W        W79661  23.143  34.042   4.199
 7347W        W79662  16.224  18.203  10.930
 7348W        W79663  12.823  31.591  11.608
 7349W        W79664  24.592  28.130  14.491
 7350W        W79665  19.578  37.905  14.403
 7351W        W79666  30.953  18.082  10.967
 7352W        W79667  21.087  26.141  14.854
 7353W        W79668  30.478  28.087   1.880
 7354W        W79669  12.192  31.521  14.881
 7355W        W79670   8.251  16.773  11.412
 7356W        W79671   2.887   9.174   3.662
 7357W        W79672  35.986   5.219  14.278
 7358W        W79673  31.007  17.179   0.386
 7359W        W79674  31.053  23.120  12.963
 7360W        W79675   2.471  20.757   2.735
 7361W        W79676   8.370  23.195  14.476
 7362W        W79677  23.647  31.632   1.811
 7363W        W79678  29.162  34.379  12.500
 7364W        W79679   6.346   1.345  12.967
 7365W        W79680  23.714  29.059   1.709
 7366W        W79681  32.419  31.426   0.466
 7367W        W79682  39.916  30.542   4.332
 7368W        W79683   5.433  23.717   0.830
 7369W        W79684  42.292  26.526   1.862
 7370W        W79685   8.265  28.159   2.834
 7371W        W79686  41.405  29.556   2.707
 7372W        W79687  28.165  16.175   2.889
 7373W        W79688   3.728  21.527   0.360
 7374W        W79689  10.664  21.697  14.914
 7375W        W79690   9.320  37.835  11.919
 7376W        W79691  28.478  37.883   4.325
 7377W        W79692   1.467   9.317  12.947
 7378W        W79693  25.997  12.679  10.962
 7379W        W79694  21.611  10.340   1.333
 7380W        W79695  34.477  43.504   1.722
 7381W        W79696  44.447   9.813   5.582
 7382W        W79697  22.728  23.126   1.743
 7383W        W79698  33.070  22.024   1.358
 7384W        W79699  30.515   2.464  10.468
 7385W        W79700  10.283  43.908  14.993
 7386W        W79701  40.897  38.001   1.389
 7387W        W79702  28.436  14.125  12.507
 7388W        W79703   5.889   2.360  10.625
 7389W        W79704  19.100  41.393  13.921
 7390W        W79705  20.676  25.198   4.157
 7391W        W79706  32.391  26.641  12.879
 7392W        W79707   7.266  16.119  11.487
 7393W        W79708  10.308  38.328   2.338
 7394W        W79709  30.643   4.736  13.797
 7395W        W79710  21.057   1.762  12.461
 7396W        W79711   5.782  24.061  12.094
 7397W        W79712  16.593  16.604  13.948
 7398W        W79713   8.850  18.102   4.598
 7399W        W79714  16.174  41.898  12.892
 7400W        W79715   4.393  40.331   2.394
 7401W        W79716  37.460   9.394   0.885
 7402W        W79717  39.021   5.719   1.781
 7403W        W79718   2.285   2.257  10.592
 7404W        W79719  17.697  39.026   1.228
 7405W        W79720  20.705  20.701   0.736
 7406W        W79721   0.893  29.503  10.971
 7407W        W79722  14.792  12.639   4.707
 7408W        W79723  42.457  43.320   2.354
 7409W        W79724  14.130  19.649  10.909
 7410W        W79725  13.609  31.423  11.064
 7411W        W79726  27.150  42.855   4.608
 7412W        W79727   0.789   2.314   1.910
 7413W        W79728  39.830  36.883  10.992
 7414W        W79729  25.012  32.965   0.330
 7415W        W79730   4.743   7.201   1.716
 7416W        W79731  32.138   2.365  12.341
 7417W        W79732  43.919  13.635  14.992
 7418W        W79733  17.286  44.850   3.870
 7419W        W79734  22.185  40.803   3.335
 7420W        W79735  30.475  18.600   3.184
 7421W        W79736  28.003  19.691  14.480
 7422W        W79737  36.475  20.065   0.339
 7423W        W79738  15.691  24.710   0.467
 7424W        W79739  26.645  42.793  10.537
 7425W        W79740  25.033   2.754   1.712
 7426W        W79741  15.627  40.903   1.817
 7427W        W79742  14.732  13.179  10.906
 7428W        W79743  40.533   8.184  14.823
 7429W        W79744  26.634  23.524   3.225
 7430W        W79745   1.362  11.223   0.936
 7431W        W79746  10.657  40.872  11.868
 7432W        W79747  14.676  43.422  12.395
 7433W        W79748  44.955   2.411   2.886
 7434W        W79749   5.714  39.404   1.392
 7435W        W79750   9.273  12.279   0.324
 7436W        W79751  10.800  34.903  11.912
 7437W        W79752  14.666  24.089   0.319
 7438W        W79753   1.287  41.867  12.086
 7439W        W79754  19.548  38.880   2.215
 7440W        W79755  13.839  35.065  11.032
 7441W        W79756  18.206  25.473   1.399
 7442W        W79757   9.340   6.809  11.075
 7443W        W79758  22.235  44.962  11.030
 7444W        W79759  27.535  32.123   2.774
 7445W        W79760  13.185  38.458   0.421
 7446W        W79761  37.401  19.685  13.312
 7447W        W79762  40.918  24.981   1.217
 7448W        W79763  14.731  44.394   4.809
 7449W        W79764   8.698  36.587  13.517
 7450W        W79765  28.633  21.585   1.347
 7451W        W79766   6.901   4.771  10.916
 7452W        W79767  18.629   8.367  13.809
 7453W        W79768  17.061   1.358  13.434
 7454W        W79769  20.731  15.119  12.094
 7455W        W79770  18.646  34.543   4.737
 7456W        W79771  16.770  37.566   3.240
 7457W        W79772  41.996  28.023  10.890
 7458W        W79773  36.899  42.291   3.658
 7459W        W79774  38.041   3.832  12.960
 7460W        W79775  32.485  37.054   4.195
 7461W        W79776  20.582   3.225  11.930
 7462W        W79777  22.099  23.523  11.582
 7463W        W79778   8.895  20.148   4.758
 7464W        W79779  21.184  32.510   4.241
 7465W        W79780  21.198  22.158   0.355
 7466W        W79781  17.127  44.354  14.289
 7467W        W79782  20.702  25.644  10.586
 7468W        W79783  18.696  38.540   5.605
 7469W        W79784  41.533  27.620   2.345
 7470W        W79785  31.095  38.494   3.842
 7471W        W79786  14.652  42.321   3.182
 7472W        W79787   1.370   4.745  14.869
 7473W        W79788  21.120   0.369   3.297
 7474W        W79789  15.154  43.866   4.642
 7475W        W79790  28.129   8.215  13.340
 7476W        W79791  11.771  44.954   4.315
 7477W        W79792   1.366  35.440   5.256
 7478W        W79793   8.198  26.531  14.289
 7479W        W79794  39.393   3.906   0.739
 7480W        W79795   6.863  38.528  10.555
 7481W        W79796  33.452  42.354  13.470
 7482W        W79797  35.484  11.309  13.972
 7483W        W79798  43.323   2.272   3.171
 7484W        W79799  37.920  18.066   0.353
 7485W        W79800  14.807  31.982   5.255
 7486W        W79801  24.074  35.441  12.847
 7487W        W79802  24.158  22.717   5.129
 7488W        W79803  20.051  37.087  14.276
 7489W        W79804  40.022  21.202   0.255
 7490W        W79805  36.903  22.048   1.237
 7491W        W79806   9.210  19.626   1.812
 7492W        W79807   8.163  31.492  10.639
 7493W        W79808  24.153  22.045   3.860
 7494W        W79809  20.604  38.452   3.310
 7495W        W79810  19.569  20.610  14.972
 7496W        W79811  19.107  37.414   1.703
 7497W        W79812   9.670  10.732  14.964
 7498W        W79813  18.682  26.602   5.141
 7499W        W79814  44.847  32.891  12.023
 7500W        W79815  41.379  20.061   1.260
 7501W        W79816  20.617  33.533  11.894
 7502W        W79817  15.616  28.965   0.475
 7503W        W79818  22.042  22.563   2.308
 7504W        W79819  38.332   1.391  11.883
 7505W        W79820  26.142   4.316   0.309
 7506W        W79821  11.370  27.984  14.793
 7507W        W79822  16.302  41.350   5.218
 7508W        W79823   4.217  17.087   3.251
 7509W        W79824  41.417   2.888   4.700
 7510W        W79825   1.768  43.765   3.822
 7511W        W79826  26.641  12.303  12.015
 7512W        W79827  28.645   2.353   4.681
 7513W        W79828  20.157   9.209   3.803
 7514W        W79829   9.155  43.851   3.364
 7515W        W79830  25.602  36.929  12.394
 7516W        W79831  31.921  24.664   3.727
 7517W        W79832  38.547   7.253   3.372
 7518W        W79833  38.945  34.560  12.869
 7519W        W79834   1.440   0.918   4.690
 7520W        W79835  21.614  25.550  12.048
 7521W        W79836   2.935  16.733  11.569
 7522W        W79837  10.346  13.697   0.414
 7523W        W79838  15.785  23.544   0.817
 7524W        W79839  11.359  35.018   3.763
 7525W        W79840  41.506  15.796  14.967
 7526W        W79841  44.446   1.950   1.824
 7527W        W79842   8.851  12.278  12.355
 7528W        W79843  41.866  38.493  10.490
 7529W        W79844  20.087  32.470  11.969
 7530W        W79845  44.841  20.559  10.574
 7531W        W79846  16.770  19.041   4.169
 7532W        W79847  43.311  12.261  13.308
 7533W        W79848  20.582  36.463  13.501
 7534W        W79849  12.826   5.704  11.388
 7535W        W79850   5.869  20.610   2.704
 7536W        W79851  32.438   0.398   1.897
 7537W        W79852  42.851  19.099   2.883
 7538W        W79853   5.799   7.229  14.979
 7539W        W79854   1.255  28.999  14.491
 7540W        W79855  42.325  13.130  14.984
 7541W        W79856  34.463  28.993   1.338
 7542W        W79857   3.297  20.165  11.427
 7543W        W79858  36.535   5.901   4.339
 7544W        W79859  17.122  11.637   1.881
 7545W        W79860   2.767   4.825  14.365
 7546W        W79861  33.459  18.123   1.424
 7547W        W79862  27.645  34.923  11.930
 7548W        W79863  28.164  31.581  12.882
 7549W        W79864  24.068  30.098   2.234
 7550W        W79865   2.843  12.308  12.481
 7551W        W79866  12.179  32.008  13.541
 7552W        W79867  42.897  23.208  13.818
 7553W        W79868  21.622  37.848   3.274
 7554W        W79869  19.538  16.710  10.488
 7555W        W79870  25.634  26.118   2.812
 7556W        W79871   3.246  42.356   2.196
 7557W        W79872   9.181  15.188  12.041
 7558W        W79873  27.192  44.313  11.906
 7559W        W79874  25.665   1.972   2.814
 7560W        W79875   3.802   2.364  11.899
 7561W        W79876  24.062  33.483  12.361
 7562W        W79877  34.938  41.989  10.991
 7563W        W79878  12.644  39.916   4.694
 7564W        W79879  25.163  39.461  11.423
 7565W        W79880  11.155  40.312  12.091
 7566W        W79881  43.812  21.188   4.757
 7567W        W79882   5.284  26.206   2.282
 7568W        W79883  29.626  38.922  14.875
 7569W        W79884  16.153  21.617   3.649
 7570W        W79885  16.594   5.426   3.686
 7571W        W79886  30.147  10.173  14.329
 7572W        W79887   8.290  32.399   2.407
 7573W        W79888  44.409  38.454  12.894
 7574W        W79889  36.955  24.721   3.196
 7575W        W79890   8.841  32.634   3.661
 7576W        W79891  42.887  40.545  14.952
 7577W        W79892   3.889   7.365   1.915
 7578W        W79893   8.731  16.199  10.568
 7579W        W79894  27.145  20.582   4.192
 7580W        W79895  13.212  36.536   0.773
 7581W        W79896  23.094  28.481   3.717
 7582W        W79897  39.416   2.743  14.030
 7583W        W79898  26.151   2.470  10.613
 7584W        W79899  16.279  13.126  11.086
 7585W        W79900  12.238  23.240   1.425
 7586W        W79901   3.284  37.542   1.338
 7587W        W79902  25.001  27.105   4.648
 7588W        W79903  12.614  39.386   2.768
 7589W        W79904   2.332  14.315  13.912
 7590W        W79905   2.395  26.621   5.290
 7591W        W79906  22.143  41.790   4.162
 7592W        W79907  32.928  38.386   1.724
 7593W        W79908  14.260  42.424   3.189
 7594W        W79909  35.086  37.395  11.473
 7595W        W79910  16.577  39.320   2.801
 7596W        W79911   0.936  27.619  12.382
 7597W        W79912   8.670  11.261   2.685
 7598W        W79913  27.166  26.687   3.205
 7599W        W79914  33.450  23.645  11.408
 7600W        W79915  41.989  42.993  13.354
 7601W        W79916  35.015  33.126  12.407
 7602W        W79917  35.561   3.222  13.342
 7603W        W79918  33.501   7.372  11.431
 7604W        W79919  15.194  29.603  13.034
 7605W        W79920  44.890  43.347  14.483
 7606W        W79921  15.722  18.239  11.901
 7607W        W79922  27.475  34.435   0.893
 7608W        W79923  12.252  23.573   3.859
 7609W        W79924  20.160  13.674  11.394
 7610W        W79925  28.011  37.347  12.092
 7611W        W79926  18.752  31.028   5.318
 7612W        W79927  30.973  39.928  13.336
 7613W        W79928  19.774   9.330  12.472
 7614W        W79929  12.663   5.760   1.374
 7615W        W79930  42.322   7.803  13.965
 7616W        W79931  13.159   6.206  13.973
 7617W        W79932  14.796  27.105  13.912
 7618W        W79933  22.122  36.586   1.730
 7619W        W79934  19.284   2.245   2.243
 7620W        W79935  38.009  26.077   1.336
 7621W        W79936  18.708  43.383   4.182
 7622W        W79937  23.086  32.541   2.381
 7623W        W79938  43.915  15.740   4.132
 7624W        W79939  23.209  32.914   4.661
 7625W        W79940  30.414   0.880  11.085
 7626W        W79941  10.697  25.169   4.680
 7627W        W79942  39.023  32.624   3.719
 7628W        W79943   6.811  26.195  11.448
 7629W        W79944  26.518  44.882   4.664
 7630W        W79945  39.987   7.225   2.407
 7631W        W79946  24.168  15.580   3.704
 7632W        W79947  36.085   2.460   2.692
 7633W        W79948  10.698  41.858  10.458
 7634W        W79949  16.212  39.997  12.564
 7635W        W79950  17.075   8.845   4.292
 7636W        W79951  44.974  27.098   2.222
 7637W        W79952  28.119   3.954   0.425
 7638W        W79953  37.474  27.061  11.869
 7639W        W79954  41.871  41.453   4.816
 7640W        W79955  12.192   5.379  13.533
 7641W        W79956  10.329  18.653   9.988
 7642W        W79957  12.270  32.408  11.951
 7643W        W79958  21.208  24.024  13.008
 7644W        W79959  41.923  35.464   4.122
 7645W        W79960  30.426  35.049  10.559
 7646W        W79961   7.228  36.453   1.216
 7647W        W79962   5.260  25.132   0.780
 7648W        W79963  29.920  15.294  14.392
 7649W        W79964  21.605  21.624   3.293
 7650W        W79965  32.955   2.770   1.935
 7651W        W79966   9.228  18.286  14.850
 7652W        W79967   9.717  35.458   4.186
 7653W        W79968  31.564  11.826   3.339
 7654W        W79969  32.102  31.900  12.974
 7655W        W79970   5.246  14.302  14.339
 7656W        W79971  28.586  12.317  14.414
 7657W        W79972  32.622  28.050   0.938
 7658W        W79973  23.162  20.706   0.888
 7659W        W79974   9.802  10.671   4.266
 7660W        W79975  32.914  21.672   3.653
 7661W        W79976   8.216   6.678   4.195
 7662W        W79977  31.576  28.609   3.179
 7663W        W79978  22.743  32.464  13.047
 7664W        W79979  22.643  35.883   3.318
 7665W        W79980  40.857  16.108   0.360
 7666W        W79981  18.258   8.864   3.751
 7667W        W79982  42.890  26.626  14.383
 7668W        W79983  14.752   8.380  12.855
 7669W        W79984  12.662  43.885   3.756
 7670W        W79985   5.378  16.746   2.356
 7671W        W79986  43.783   0.756   0.782
 7672W        W79987  36.842   7.834   3.768
 7673W        W79988  17.606   5.863   0.903
 7674W        W79989  12.274   0.259  11.105
 7675W        W79990  24.649  29.157  13.791
 7676W        W79991  39.911  34.603  11.421
 7677W        W79992  42.441  38.026   4.699
 7678W        W79993  36.347  38.450  12.019
 7679W        W79994  25.630   0.755   3.175
 7680W        W79995  42.792  23.532  12.062
 7681W        W79996  16.085  42.921   3.794
 7682W        W79997  32.482  17.230  11.063
 7683W        W79998  33.060   4.942  14.332
 7684W        W79999   0.823  39.527  12.924
 7685W        W80000   7.237  31.427  10.559
 7686W        W80001  24.016  17.211  13.839
 7687W        W80002  39.959   4.745   4.324
 7688W        W80003  31.619   4.225  11.020
 7689W        W80004  25.016  17.677   3.212
 7690W        W80005  29.999   6.221  13.037
 7691W        W80006  30.508  24.126  10.439
 7692W        W80007   2.422  28.492  12.928
 7693W        W80008   0.441  42.345  13.314
 7694W        W80009   2.237   5.757   2.408
 7695W        W80010  19.630  21.512  11.592
 7696W        W80011  29.460  44.938  14.967
 7697W        W80012  42.521   1.794  12.525
 7698W        W80013  22.691  16.306   0.352
 7699W        W80014  33.028  18.272  12.963
 7700W        W80015  32.471  38.356  14.996
 7701W        W80016  18.738  42.843   0.248
 7702W        W80017   4.335   1.879  12.902
 7703W        W80018  34.429  31.622   3.295
 7704W        W80019  16.614  36.363   0.380
 7705W        W80020  17.208   0.289   2.884
 7706W        W80021  11.178  41.469  11.391
 7707W        W80022   6.731  43.856  14.872
 7708W        W80023   2.226  32.633   0.784
 7709W        W80024  26.586  23.502   4.338
 7710W        W80025  13.220   4.771  14.955
 7711W        W80026  23.989   4.415   0.434
 7712W        W80027  44.011  35.045   4.602
 7713W        W80028  25.627  27.179  13.882
 7714W        W80029   7.755  16.146   4.798
 7715W        W80030  35.367  20.111   3.801
 7716W        W80031  33.900   3.327  11.105
 7717W        W80032   2.292  43.336   2.758
 7718W        W80033  44.386  24.596  11.859
 7719W        W80034  25.069  30.504   4.203
 7720W        W80035  32.040  21.105   3.754
 7721W        W80036  17.653  37.505  14.278
 7722W        W80037  43.278  32.539   2.314
 7723W        W80038  18.159  39.352  11.565
 7724W        W80039  12.235  11.843   3.868
 7725W        W80040  37.012   8.807  12.090
 7726W        W80041  21.680  32.999  12.866
 7727W        W80042  17.772   8.299  11.086
 7728W        W80043  26.148   8.286  10.617
 7729W        W80044  23.710   1.838  12.356
 7730W        W80045  26.501   1.923   4.151
 7731W        W80046  32.485  43.403   2.826
 7732W        W80047  30.120  26.143   2.845
 7733W        W80048  20.645  36.866  10.479
 7734W        W80049  43.789   3.932   0.432
 7735W        W80050  12.739   4.219  14.513
 7736W        W80051  29.648   3.830   1.355
 7737W        W80052  38.829   9.883   1.839
 7738W        W80053  41.823  25.547  11.079
 7739W        W80054  20.740  29.977   3.303
 7740W        W80055  43.462  21.077  13.383
 7741W        W80056   6.769  40.025  13.362
 7742W        W80057   1.432  17.134  11.114
 7743W        W80058  40.471  21.546   4.809
 7744W        W80059  33.533  25.022   0.876
 7745W        W80060   4.353  25.150   0.769
 7746W        W80061   1.791  36.512  11.882
 7747W        W80062  30.069  21.103   4.725
 7748W        W80063   3.910  41.897   3.684
 7749W        W80064  15.815  24.574   4.349
 7750W        W80065  13.140  14.114   2.844
 7751W        W80066  15.814  23.574   3.847
 7752W        W80067  33.607  27.020  10.540
 7753W        W80068  19.659  37.869   2.687
 7754W        W80069  27.544  37.371   0.903
 7755W        W80070  24.164  43.347   2.323
 7756W        W80071  37.847  15.288  12.026
 7757W        W80072  31.402  24.609  12.030
 7758W        W80073  19.131  13.811  12.875
 7759W        W80074  22.158  42.949   0.370
 7760W        W80075  11.839   5.234   3.177
 7761W        W80076  26.185  10.314  11.957
 7762W        W80077  17.760  27.027   0.271
 7763W        W80078  15.251  41.482   3.851
 7764W        W80079  36.068  21.731  13.442
 7765W        W80080  16.672  37.360   0.331
 7766W        W80081   2.881  44.504  14.810
 7767W        W80082  20.071  12.814  10.604
 7768W        W80083  11.722   6.884   1.243
 7769W        W80084  34.410  12.163  14.009
 7770W        W80085  44.883  12.260  14.485
 7771W        W80086  12.223  21.237   4.775
 7772W        W80087  26.122  43.845  11.465
 7773W        W80088  42.983   7.345  12.503
 7774W        W80089  21.529  26.512  13.050
 7775W        W80090  12.687  31.567  12.564
 7776W        W80091  16.159  13.752   3.718
 7777W        W80092   4.370  36.076   2.180
 7778W        W80093  26.963  25.473   3.826
 7779W        W80094   8.795  12.663  12.462
 7780W        W80095  37.459   2.800  11.861
 7781W        W80096  23.031  35.473  14.477
 7782W        W80097  35.005  30.465   0.938
 7783W        W80098  44.996  25.113   5.181
 7784W        W80099   4.255  39.886   3.315
 7785W        W80100  12.772  16.104  12.901
 7786W        W80101  31.126  22.620   1.813
 7787W        W80102  38.922  36.944   4.132
 7788W        W80103  33.537  39.414  11.022
 7789W        W80104   3.383  32.984  13.368
 7790W        W80105  29.530  40.509  10.595
 7791W        W80106   8.705   6.922   1.302
 7792W        W80107  30.972  25.479  12.077
 7793W        W80108  36.000  29.527  13.438
 7794W        W80109  13.283  39.881   2.783
 7795W        W80110  43.270  37.874   2.735
 7796W        W80111  24.174   6.199   1.882
 7797W        W80112   9.327  38.823   3.226
 7798W        W80113  38.486  20.163  14.787
 7799W        W80114   7.750  17.736   1.366
 7800W        W80115  11.348  41.989  13.008
 7801W        W80116  22.510  14.596   4.353
 7802W        W80117  27.053  36.491   2.417
 7803W        W80118  11.323   8.748   0.279
 7804W        W80119  44.375   2.425  10.116
 7805W        W80120   6.783  34.595  13.823
 7806W        W80121   7.355  32.445   1.285
 7807W        W80122  17.631  34.942   2.786
 7808W        W80123  37.040  25.017   5.690
 7809W        W80124  42.395  20.719   1.794
 7810W        W80125  44.501  22.144   0.242
 7811W        W80126  12.159  41.462  10.937
 7812W        W80127  20.738   4.316  13.502
 7813W        W80128  20.536   6.284  11.425
 7814W        W80129  25.623   1.350   0.284
 7815W        W80130   0.344   5.892   3.167
 7816W        W80131  16.665  21.032   0.765
 7817W        W80132  25.200   1.455  12.383
 7818W        W80133   6.688  36.486  10.905
 7819W        W80134   8.299  33.047  14.860
 7820W        W80135  44.463  19.562  10.087
 7821W        W80136   7.200   5.284  10.505
 7822W        W80137  37.844  29.936   4.312
 7823W        W80138  15.700  40.325   2.702
 7824W        W80139  18.223  16.688   4.679
 7825W        W80140   2.787  34.036   3.325
 7826W        W80141   5.881   4.761  14.925
 7827W        W80142  24.004  14.634   3.275
 7828W        W80143  29.582  22.690  13.320
 7829W        W80144  21.212   1.460  11.995
 7830W        W80145   6.276  41.821  14.938
 7831W        W80146  28.032  31.468   3.286
 7832W        W80147  44.367  19.235  10.890
 7833W        W80148  13.663  24.212  12.420
 7834W        W80149  32.110  26.636  12.852
 7835W        W80150  26.629  28.090   5.229
 7836W        W80151  41.931   9.699  13.420
 7837W        W80152  13.242  12.210  10.414
 7838W        W80153  42.364   4.786  13.863
 7839W        W80154   6.262  20.729  12.410
 7840W        W80155  36.433  38.339   1.799
 7841W        W80156  21.207  23.701   1.299
 7842W        W80157  43.995  39.057   1.858
 7843W        W80158  43.367  37.926  12.515
 7844W        W80159  22.543  38.869   0.754
 7845W        W80160  36.880  20.117   0.832
 7846W        W80161  23.553  18.651   4.313
 7847W        W80162  18.108  31.076   5.762
 7848W        W80163  14.319  17.675   3.858
 7849W        W80164  29.058   3.279   4.743
 7850W        W80165  39.900   5.812   2.216
 7851W        W80166   0.893  36.073   2.188
 7852W        W80167  13.143   8.873   0.803
 7853W        W80168  23.490  17.179  11.480
 7854W        W80169   1.436   5.403  14.963
 7855W        W80170  40.375  24.029   5.267
 7856W        W80171  19.660   2.420  13.325
 7857W        W80172  40.307  44.260  10.086
 7858W        W80173  24.016   8.843   4.170
 7859W        W80174  35.014   1.964   1.823
 7860W        W80175  35.022  40.054  12.551
 7861W        W80176  27.124   5.356   0.857
 7862W        W80177  44.917  26.185  11.914
 7863W        W80178  14.712  32.050   1.762
 7864W        W80179  33.428  14.206  12.894
 7865W        W80180   6.417  43.765  12.425
 7866W        W80181  38.940   4.873  14.020
 7867W        W80182  28.575  40.041  10.505
 7868W        W80183   9.268   4.434  11.467
 7869W        W80184  12.691   0.955   0.377
 7870W        W80185  24.616   4.729   3.714
 7871W        W80186  23.205  39.354   4.716
 7872W        W80187  24.708  23.628  12.348
 7873W        W80188  32.990   8.880  14.843
 7874W        W80189  44.986   9.324  11.882
 7875W        W80190  22.644  43.951   3.311
 7876W        W80191  34.036  17.796   0.374
 7877W        W80192  41.001  32.437   0.441
 7878W        W80193  14.310  43.485  12.389
 7879W        W80194  38.942  25.137   0.921
 7880W        W80195  14.131   1.248  14.415
 7881W        W80196  31.099  25.188   5.282
 7882W        W80197   0.419  41.788  12.438
 7883W        W80198   0.296  12.207  11.032
 7884W        W80199  17.734  20.710  13.896
 7885W        W80200  30.454  27.605  14.931
 7886W        W80201  42.371  18.669   3.699
 7887W        W80202  39.389  21.758  14.393
 7888W        W80203  24.706  30.998  12.995
 7889W        W80204  36.455  17.219   0.401
 7890W        W80205  37.388  30.545   3.684
 7891W        W80206  13.276   4.707   4.168
 7892W        W80207   4.385   1.460   3.369
 7893W        W80208  36.399  36.084   2.665
 7894W        W80209  41.370   7.800  11.863
 7895W        W80210   2.931  43.945   4.754
 7896W        W80211   4.838  15.621   3.257
 7897W        W80212  29.669  32.598  13.420
 7898W        W80213   1.432  43.385   2.417
 7899W        W80214  44.380  12.811   1.312
 7900W        W80215   7.171  29.954  13.396
 7901W        W80216  18.157  12.233   3.834
 7902W        W80217  36.996  25.581   2.200
 7903W        W80218  13.318  41.989   4.651
 7904W        W80219   0.423  19.096  11.388
 7905W        W80220  22.633  33.906  13.317
 7906W        W80221  44.399  44.922  13.900
 7907W        W80222  15.729  17.772  14.815
 7908W        W80223  42.403  27.957   4.713
 7909W        W80224   0.461  17.670  12.493
 7910W        W80225   7.406  35.453   3.856
 7911W        W80226  27.980  41.986   0.467
 7912W        W80227  10.148  29.527  11.578
 7913W        W80228   7.324  37.357   3.735
 7914W        W80229  14.326   1.773  12.829
 7915W        W80230  11.664  44.445  13.548
 7916W        W80231  38.034  32.564  13.053
 7917W        W80232  21.566  12.654   5.220
 7918W        W80233  37.449  22.090  14.771
 7919W        W80234  35.021   5.237  12.378
 7920W        W80235  21.747  22.565   2.761
 7921W        W80236  27.484  27.637   3.793
 7922W        W80237  12.788  30.508  14.364
 7923W        W80238  37.364   3.366  12.390
 7924W        W80239  23.066  10.296   1.793
 7925W        W80240   6.284  26.491   0.872
 7926W        W80241  30.020  42.998  13.456
 7927W        W80242   4.445   7.731  11.528
 7928W        W80243  40.928  41.376   4.807
 7929W        W80244  37.852  32.491   1.907
 7930W        W80245  33.597  20.736  12.091
 7931W        W80246  32.500  27.603  13.875
 7932W        W80247  11.622  31.053   2.260
 7933W        W80248   2.238  16.629   0.788
 7934W        W80249   0.886   4.781  11.902
 7935W        W80250  36.032  40.891   2.320
 7936W        W80251  30.063  19.572  13.791
 7937W        W80252   6.364  42.876  10.577
 7938W        W80253  28.105   8.180   1.716
 7939W        W80254  38.564  12.210   2.861
 7940W        W80255  20.576   4.930  11.436
 7941W        W80256  39.866   6.363  13.506
 7942W        W80257   0.976  30.615  10.443
 7943W        W80258   8.336  13.127  13.309
 7944W        W80259   1.852  10.150  12.542
 7945W        W80260  39.878  22.099  14.877
 7946W        W80261  31.134  40.373  12.023
 7947W        W80262  11.740  13.797   4.751
 7948W        W80263   8.864  44.886   1.788
 7949W        W80264  18.209  33.026  13.345
 7950W        W80265  40.500  22.633  12.954
 7951W        W80266   9.746  32.399  14.781
 7952W        W80267  25.523  40.423  14.804
 7953W        W80268  17.194  36.527  14.502
 7954W        W80269  31.546  23.003   1.289
 7955W        W80270  14.617  19.550   0.304
 7956W        W80271  13.708  32.917   3.289
 7957W        W80272  44.832  12.611   1.841
 7958W        W80273  43.868  22.226   3.842
 7959W        W80274  37.943  39.373  14.376
 7960W        W80275  18.636  17.154   3.745
 7961W        W80276  24.518  10.830  13.044
 7962W        W80277  18.693  40.997   1.441
 7963W        W80278  27.534  44.393  12.007
 7964W        W80279  13.314   9.797   4.310
 7965W        W80280  29.172  30.138  13.365
 7966W        W80281   6.798  25.100   2.392
 7967W        W80282  42.900  15.804   1.398
 7968W        W80283  30.583  22.229  12.575
 7969W        W80284  19.065  42.814   2.247
 7970W        W80285  28.101  38.834   1.433
 7971W        W80286  33.514  44.998   2.387
 7972W        W80287   9.819  24.223   4.345
 7973W        W80288  43.800  15.716  13.422
 7974W        W80289   4.210  21.136  13.545
 7975W        W80290  43.310  42.781  13.915
 7976W        W80291  22.536  26.056   1.776
 7977W        W80292  38.845  24.574  14.441
 7978W        W80293  42.802   5.726  12.342
 7979W        W80294  19.722   2.729   1.901
 7980W        W80295  33.399  40.997   4.257
 7981W        W80296   4.714  24.605  14.838
 7982W        W80297  36.921  42.818  11.966
 7983W        W80298  37.407  35.593  12.942
 7984W        W80299  38.518  23.680   3.665
 7985W        W80300   3.250  23.191   0.379
 7986W        W80301  31.938   3.772  13.804
 7987W        W80302  33.544  25.635   2.206
 7988W        W80303  28.553  38.440   1.863
 7989W        W80304  44.295  33.128   2.371
 7990W        W80305   1.742  35.455  14.514
 7991W        W80306  12.771   4.736   0.849
 7992W        W80307   0.883  29.035   3.353
 7993W        W80308  32.944  19.596  10.409
 7994W        W80309  19.743  41.933  12.461
 7995W        W80310  18.657  20.688   1.244
 7996W        W80311  37.390  37.067  10.944
 7997W        W80312  11.630   1.467  11.546
 7998W        W80313  40.051  27.050  13.472
 7999W        W80314  29.017   8.391  12.489
 8000W        W80315   9.706  19.068  11.609
 8001W        W80316  21.216  39.054   4.616
 8002W        W80317   4.863   0.805   4.734
 8003W        W80318  20.743  35.473  12.084
 8004W        W80319   4.444  20.134  13.829
 8005W        W80320  13.241  40.851  13.055
 8006W        W80321  43.292  21.184  12.419
 8007W        W80322  44.949  19.764   5.293
 8008W        W80323   6.888  14.626   4.681
 8009W        W80324   5.343  11.702  12.922
 8010W        W80325  22.570   5.212  10.439
 8011W        W80326  17.726  38.479   3.372
 8012W        W80327  44.259  14.722  14.842
 8013W        W80328  10.198  27.532   2.841
 8014W        W80329   8.357  26.617  12.896
 8015W        W80330  14.702  11.133  13.369
 8016W        W80331   1.326  10.753   4.162
 8017W        W80332  17.736  16.316   3.324
 8018W        W80333  17.131   0.450   0.250
 8019W        W80334   8.390  42.289  14.400
 8020W        W80335  29.974  11.372   0.903
 8021W        W80336  21.616  39.452   4.297
 8022W        W80337   6.368   0.291  14.006
 8023W        W80338   6.371   2.295  13.889
 8024W        W80339  23.061  41.008  14.509
 8025W        W80340  38.052  29.996  11.886
 8026W        W80341  22.603   4.402  14.504
 8027W        W80342  41.429  41.292  11.465
 8028W        W80343  44.312  16.595  12.471
 8029W        W80344  33.511  29.555   2.820
 8030W        W80345  40.497  36.988   1.367
 8031W        W80346  24.521   1.256  14.477
 8032W        W80347  25.130   4.446  10.110
 8033W        W80348  39.932  39.366   4.772
 8034W        W80349  38.914  35.421  12.426
 8035W        W80350  28.961  24.620  13.925
 8036W        W80351  44.803  33.546   1.300
 8037W        W80352  27.084   3.945   1.390
 8038W        W80353  13.779  22.602  10.891
 8039W        W80354  14.659  37.431   0.416
 8040W        W80355  30.503  28.601   1.841
 8041W        W80356   3.796  34.063  14.287
 8042W        W80357   8.260  43.457  11.914
 8043W        W80358  18.751  37.578  12.036
 8044W        W80359  31.048  32.899   4.232
 8045W        W80360  28.569   4.229   5.775
 8046W        W80361  11.838   5.927  11.953
 8047W        W80362  27.956  16.248   1.803
 8048W        W80363  16.682  37.874  10.462
 8049W        W80364  25.058   0.299  10.485
 8050W        W80365  20.604  29.668   0.929
 8051W        W80366   3.774   3.923  11.003
 8052W        W80367   8.191  33.011  14.409
 8053W        W80368  29.047   3.771  14.372
 8054W        W80369  13.128  22.227   3.367
 8055W        W80370   8.881  28.089  14.330
 8056W        W80371  22.725  34.922   3.179
 8057W        W80372   4.412  31.118   0.309
 8058W        W80373  44.308  29.425   1.885
 8059W        W80374  14.732   7.406  14.505
 8060W        W80375  35.599  27.542   4.348
 8061W        W80376  15.253  25.589   1.735
 8062W        W80377   9.806  25.649  11.598
 8063W        W80378  28.156   7.371   0.324
 8064W        W80379  35.364  36.043  12.563
 8065W        W80380  16.776  18.640   3.361
 8066W        W80381  22.549  34.102  10.427
 8067W        W80382   0.327  20.584  12.073
 8068W        W80383   6.833  15.254  13.907
 8069W        W80384  32.993  17.558   0.892
 8070W        W80385  15.668   1.745   9.929
 8071W        W80386  38.362  14.627  14.904
 8072W        W80387  11.195  42.868  12.826
 8073W        W80388   4.770  44.858   3.843
 8074W        W80389   7.194  42.330   4.675
 8075W        W80390  43.469  12.639  14.510
 8076W        W80391  32.426  30.531   2.219
 8077W        W80392  38.900  25.049   9.620
 8078W        W80393  23.102  24.987   1.782
 8079W        W80394  43.945  37.532  14.929
 8080W        W80395  27.456  32.030   2.412
 8081W        W80396  40.444   6.852   2.275
 8082W        W80397  37.963  32.483   1.224
 8083W        W80398  30.564   8.859  12.882
 8084W        W80399  12.336  25.558  10.967
 8085W        W80400  36.391  24.020  10.488
 8086W        W80401  14.625  30.109  11.893
 8087W        W80402  43.993  11.653   0.753
 8088W        W80403  12.740  23.177  10.523
 8089W        W80404  33.129  33.125   1.224
 8090W        W80405  44.404  43.813  10.637
 8091W        W80406  25.480  14.743   3.676
 8092W        W80407  38.879   6.882   0.867
 8093W        W80408   8.243  38.487   2.887
 8094W        W80409  36.011   7.800  14.800
 8095W        W80410  21.079  39.983   2.815
 8096W        W80411  20.619  18.730   4.641
 8097W        W80412  13.323  19.757   4.259
 8098W        W80413  33.381  23.174   4.307
 8099W        W80414  32.139  32.005   3.838
 8100W        W80415  22.079  18.082  14.815
 8101W        W80416   1.735  40.540   4.686
 8102W        W80417  18.294  19.211   2.209
 8103W        W80418   5.408   5.336   4.697
 8104W        W80419  38.488   4.289  13.420
 8105W        W80420  24.042  33.440  14.914
 8106W        W80421  40.304   0.929   1.764
 8107W        W80422  19.632  12.257   0.787
 8108W        W80423  21.167  19.062   2.284
 8109W        W80424   4.701  31.494  12.047
 8110W        W80425   6.709  33.475  14.459
 8111W        W80426  33.491  27.073   4.802
 8112W        W80427  32.915  13.255  11.403
 8113W        W80428   6.683  31.106   3.150
 8114W        W80429  37.484  21.044   2.291
 8115W        W80430  42.845  19.601   1.341
 8116W        W80431   5.882   1.383  10.411
 8117W        W80432  35.959  38.449  12.375
 8118W        W80433  34.884  13.761   0.903
 8119W        W80434  21.618  40.378   1.225
 8120W        W80435  18.711  23.573   4.640
 8121W        W80436   5.363  27.968   3.741
 8122W        W80437  26.625  20.644  13.399
 8123W        W80438  39.327  37.465  14.808
 8124W        W80439   8.776  18.214  14.303
 8125W        W80440   2.915  22.502   2.222
 8126W        W80441  38.009  17.160   1.712
 8127W        W80442  19.670   1.284   1.726
 8128W        W80443  14.336  33.950   1.809
 8129W        W80444   8.793  36.494  13.987
 8130W        W80445  34.047   4.822  14.291
 8131W        W80446  14.236   0.301  11.109
 8132W        W80447  32.465  17.773  12.468
 8133W        W80448  29.615   0.792  10.414
 8134W        W80449  35.521  30.606   0.853
 8135W        W80450   4.894  39.878   3.227
 8136W        W80451  31.619  15.291   2.893
 8137W        W80452  16.141  29.077   4.178
 8138W        W80453  31.557  42.797   1.842
 8139W        W80454  39.009  31.950  12.574
 8140W        W80455  28.658   6.875  13.857
 8141W        W80456  22.089  17.664   3.231
 8142W        W80457  31.127  22.702   4.837
 8143W        W80458  24.095  24.124   4.754
 8144W        W80459   4.218  44.405  14.822
 8145W        W80460  25.146  39.443  14.406
 8146W        W80461  43.328  29.456   0.406
 8147W        W80462  40.471  26.094   4.353
 8148W        W80463  16.663  43.889  14.289
 8149W        W80464  18.115  34.384   0.337
 8150W        W80465  22.671  29.154  11.070
 8151W        W80466  18.612  40.018   4.331
 8152W        W80467   6.913  26.467  11.415
 8153W        W80468  34.565  16.241   1.787
 8154W        W80469  39.818   8.822  14.458
 8155W        W80470  21.607   8.740   4.672
 8156W        W80471  21.239  39.535   1.417
 8157W        W80472  15.694  13.229  12.033
 8158W        W80473   3.438  42.015   3.748
 8159W        W80474  16.169   4.440   3.297
 8160W        W80475   8.249   7.697   2.903
 8161W        W80476  41.359   6.271  13.408
 8162W        W80477  10.690  36.432   1.864
 8163W        W80478  24.075   6.723   1.804
 8164W        W80479  11.317  31.552   4.691
 8165W        W80480  41.828  10.845  14.300
 8166W        W80481  21.576  14.225  12.871
 8167W        W80482  27.068  36.080   4.227
 8168W        W80483  22.059  11.701  12.037
 8169W        W80484  34.008  19.692   0.386
 8170W        W80485  15.132  26.668  13.313
 8171W        W80486  26.047   1.424  14.447
 8172W        W80487   4.944  13.131  10.982
 8173W        W80488  44.426   6.383   2.317
 8174W        W80489   6.733  10.755  14.472
 8175W        W80490  25.194  40.452  14.919
 8176W        W80491   7.411  27.127  12.378
 8177W        W80492  10.377   4.302  13.039
 8178W        W80493  32.942  41.937  11.374
 8179W        W80494   4.415  28.132   0.318
 8180W        W80495  41.884  35.985   4.825
 8181W        W80496  36.414  42.803   2.748
 8182W        W80497   8.686  44.386   0.773
 8183W        W80498  11.805  41.922  12.390
 8184W        W80499  13.749  23.593   3.665
 8185W        W80500  34.975   9.310  11.398
 8186W        W80501  28.522   2.721  13.313
 8187W        W80502  38.895  33.126   2.314
 8188W        W80503  39.490   7.849   0.294
 8189W        W80504  35.003  36.432  10.585
 8190W        W80505  17.607  20.274   4.782
 8191W        W80506  35.093   0.454  10.628
 8192W        W80507  16.809   2.918   3.303
 8193W        W80508  31.441   6.423   1.843
 8194W        W80509  25.067  42.918   4.322
 8195W        W80510  30.140  42.028   4.600
 8196W        W80511   9.259   5.801   2.814
 8197W        W80512  29.008  37.369  12.422
 8198W        W80513  37.476  34.406  13.406
 8199W        W80514  35.433  35.017  12.523
 8200W        W80515   2.895   7.671   2.878
 8201W        W80516   2.343   2.257   0.347
 8202W        W80517  24.514   2.319   1.765
 8203W        W80518  22.549  42.976   3.864
 8204W        W80519  43.301   5.755  11.042
 8205W        W80520  34.916  40.982  14.505
 8206W        W80521  44.481  40.308  10.950
 8207W        W80522   7.686   5.712   2.875
 8208W        W80523  12.666   9.371   1.423
 8209W        W80524  24.608  43.511   0.949
 8210W        W80525  26.006   3.842   0.254
 8211W        W80526  18.272  19.642  11.873
 8212W        W80527  31.451  37.988  14.858
 8213W        W80528  44.459  18.056  12.880
 8214W        W80529  36.981  25.516  12.553
 8215W        W80530   7.757  24.521  13.836
 8216W        W80531   0.357  23.540   3.360
 8217W        W80532  16.298  25.202  10.632
 8218W        W80533   6.758  41.026  11.936
 8219W        W80534  38.061   5.723   2.697
 8220W        W80535  21.618  21.181  10.626
 8221W        W80536   3.749   8.380  13.999
 8222W        W80537   4.856  11.772  14.476
 8223W        W80538  19.708  31.437   4.352
 8224W        W80539  31.534  27.526   3.847
 8225W        W80540  16.192  39.831   4.688
 8226W        W80541  20.096   2.965  12.990
 8227W        W80542  28.655  41.814  14.796
 8228W        W80543  14.198  34.516  11.974
 8229W        W80544  37.398   0.912   1.437
 8230W        W80545  24.198  20.650   4.149
 8231W        W80546  10.173  38.996   0.460
 8232W        W80547  35.422  11.307   3.383
 8233W        W80548  21.539  26.121  10.569
 8234W        W80549  23.113   5.363   2.711
 8235W        W80550  15.753   1.263  12.014
 8236W        W80551  14.259   8.655   2.770
 8237W        W80552  10.792  25.170   2.735
 8238W        W80553  34.869  18.623   3.151
 8239W        W80554  22.096  42.457  14.414
 8240W        W80555  34.396  39.554  14.810
 8241W        W80556   9.203   5.201  11.423
 8242W        W80557  25.027  32.988  13.938
 8243W        W80558  16.595  22.052  14.944
 8244W        W80559  13.727  43.483   4.198
 8245W        W80560  24.480  28.012   2.359
 8246W        W80561  30.020  27.162   1.353
 8247W        W80562  37.944   6.182   1.333
 8248W        W80563   0.399  18.070   0.365
 8249W        W80564  26.124  41.869  13.380
 8250W        W80565  17.209  33.456  14.503
 8251W        W80566  20.648  42.979  11.502
 8252W        W80567  44.946  18.259   0.466
 8253W        W80568   1.373  16.674   1.214
 8254W        W80569   3.312   0.838   0.818
 8255W        W80570   1.422  11.265   4.757
 8256W        W80571  21.698  35.566   4.128
 8257W        W80572  27.117  39.035   4.789
 8258W        W80573   1.890  28.019  14.776
 8259W        W80574   1.863  19.709   0.797
 8260W        W80575   4.321  31.615  10.950
 8261W        W80576   7.731  16.798   0.853
 8262W        W80577  33.069   4.938   4.301
 8263W        W80578  10.765  30.089  11.858
 8264W        W80579   5.801   5.696   2.240
 8265W        W80580   3.846  32.499   3.722
 8266W        W80581  41.356  30.595   2.380
 8267W        W80582   4.221   1.903   4.829
 8268W        W80583   8.400  34.571  11.499
 8269W        W80584  10.661  41.963   3.199
 8270W        W80585  33.076   4.895   1.740
 8271W        W80586   9.771  43.945   3.241
 8272W        W80587  14.628  14.815  14.911
 8273W        W80588  15.194  24.598  13.387
 8274W        W80589  31.408  39.994   4.318
 8275W        W80590  13.780   5.209   4.699
 8276W        W80591  21.202  24.146   3.701
 8277W        W80592   2.295  15.319  10.480
 8278W        W80593  21.222  44.331  14.930
 8279W        W80594  23.628  24.983  12.906
 8280W        W80595  27.514   5.820  11.971
 8281W        W80596  18.743   5.717  11.456
 8282W        W80597  10.725  10.768  11.884
 8283W        W80598  17.166   5.354  11.949
 8284W        W80599  44.001  42.861   2.240
 8285W        W80600  13.757  12.224  14.283
 8286W        W80601  32.486  38.406   1.435
 8287W        W80602  40.328  32.940   1.299
 8288W        W80603  13.758  32.496   0.435
 8289W        W80604   4.716  36.084   1.722
 8290W        W80605  17.292  35.955  11.972
 8291W        W80606  34.427  42.902  12.866
 8292W        W80607   0.804  30.137   0.953
 8293W        W80608  33.571  24.098  12.850
 8294W        W80609  37.020  27.678   4.119
 8295W        W80610  29.973  31.127   2.673
 8296W        W80611   2.249  41.830   4.761
 8297W        W80612  17.693   3.922  11.075
 8298W        W80613  23.600  10.174   4.722
 8299W        W80614  39.953   1.250  13.486
 8300W        W80615  10.645  33.073   3.260
 8301W        W80616  17.235  30.061  10.485
 8302W        W80617  34.496  34.457   0.967
 8303W        W80618  42.889  26.692  10.097
 8304W        W80619  21.054   8.235   2.212
 8305W        W80620  27.161  42.974  10.624
 8306W        W80621  37.935  22.705   1.850
 8307W        W80622   3.313  25.136  13.518
 8308W        W80623   4.863  31.517   4.747
 8309W        W80624  25.109   6.859   1.746
 8310W        W80625  19.124  24.166   3.685
 8311W        W80626  32.011  15.162   0.872
 8312W        W80627  36.572  35.047   3.812
 8313W        W80628   8.374  34.406  14.804
 8314W        W80629  40.971  31.997  14.282
 8315W        W80630   6.825  12.227  11.538
 8316W        W80631  10.329  11.294  14.339
 8317W        W80632  23.029  43.379   0.834
 8318W        W80633   0.742  23.693  12.979
 8319W        W80634   4.847  13.190   5.121
 8320W        W80635  30.598  36.481  12.438
 8321W        W80636   9.740  40.489  10.556
 8322W        W80637   0.449  19.593  10.506
 8323W        W80638  25.566   8.221   0.250
 8324W        W80639  16.122  41.990  14.398
 8325W        W80640  24.608   8.295   2.304
 8326W        W80641  21.135   9.231   1.840
 8327W        W80642   5.929  27.086  10.585
 8328W        W80643  23.648  40.962  11.084
 8329W        W80644  27.447   0.889   3.734
 8330W        W80645  14.604  30.099   3.768
 8331W        W80646   7.742  19.749  14.885
 8332W        W80647  26.530  27.192   3.647
 8333W        W80648  30.500  38.515  14.863
 8334W        W80649  17.269  14.794  11.891
 8335W        W80650  20.117   2.369  13.895
 8336W        W80651  22.132  29.479   3.387
 8337W        W80652  14.729  18.215  11.980
 8338W        W80653  36.462  27.507  11.575
 8339W        W80654   3.950  32.947  14.831
 8340W        W80655  14.223  25.485   5.312
 8341W        W80656  18.279  10.762   5.672
 8342W        W80657   2.244   8.847  14.789
 8343W        W80658  12.854  34.470   2.808
 8344W        W80659  33.426   1.352  11.010
 8345W        W80660   6.237  43.357   4.197
 8346W        W80661  18.552  13.605   2.749
 8347W        W80662  12.734   6.262   1.424
 8348W        W80663  39.512   2.314   2.821
 8349W        W80664   2.730  26.080  11.126
 8350W        W80665  21.709   8.767  11.048
 8351W        W80666  38.416  20.588   2.378
 8352W        W80667  13.707  32.955   4.687
 8353W        W80668  29.134  12.229  12.888
 8354W        W80669  22.735  28.088   2.370
 8355W        W80670  25.033  14.753  10.479
 8356W        W80671  29.434   7.676  11.969
 8357W        W80672  16.126   9.805   4.332
 8358W        W80673  20.705  31.088  11.389
 8359W        W80674  27.158   4.883  10.441
 8360W        W80675  16.633  39.063   3.365
 8361W        W80676  21.730  44.298  14.008
 8362W        W80677  20.734  28.070  14.427
 8363W        W80678   3.712  33.130  11.377
 8364W        W80679  27.551  38.535  13.032
 8365W        W80680   9.186  24.600  14.787
 8366W        W80681   8.898  36.558  13.044
 8367W        W80682  44.286  39.545   0.292
 8368W        W80683  21.163   9.333  11.963
 8369W        W80684   2.870  31.550  10.474
 8370W        W80685   5.755  15.586  10.491
 8371W        W80686   7.227  41.401   1.890
 8372W        W80687  40.355  23.157  13.061
 8373W        W80688  40.548  34.487  11.925
 8374W        W80689  17.655  30.151  12.850
 8375W        W80690  10.785  15.711   4.709
 8376W        W80691  29.072  28.485   4.658
 8377W        W80692  33.395   3.897   4.700
 8378W        W80693   0.862  30.005  12.972
 8379W        W80694  14.745  30.108   4.338
 8380W        W80695  18.172  14.806   3.830
 8381W        W80696  35.510  31.531  10.462
 8382W        W80697  17.789  41.878   0.825
 8383W        W80698  37.843  13.677  11.983
 8384W        W80699  18.227  38.897   1.931
 8385W        W80700  15.224  43.371   0.967
 8386W        W80701  20.738  25.984   4.258
 8387W        W80702  33.004  24.536   2.206
 8388W        W80703   2.396   2.328  12.959
 8389W        W80704  18.665  36.446   4.759
 8390W        W80705  29.013  12.772   0.339
 8391W        W80706   4.441  27.659  12.996
 8392W        W80707  26.113  34.575   0.965
 8393W        W80708  24.138  40.046   1.747
 8394W        W80709  15.697  28.953  14.475
 8395W        W80710  20.275  40.503  14.821
 8396W        W80711  39.551   5.775   3.665
 8397W        W80712  17.674  12.783  14.399
 8398W        W80713  26.471  25.657  12.389
 8399W        W80714  30.943  13.812  13.834
 8400W        W80715  30.990  40.492  13.457
 8401W        W80716   3.270  19.113   3.162
 8402W        W80717  42.031  23.088   3.828
 8403W        W80718   3.887   8.704  14.978
 8404W        W80719  34.074  29.538   3.653
 8405W        W80720  42.900  12.224   0.344
 8406W        W80721  12.631  28.532  10.945
 8407W        W80722  18.178  23.012  14.007
 8408W        W80723  39.906  15.239   4.253
 8409W        W80724   7.668  44.407  12.912
 8410W        W80725  38.423  17.223   4.771
 8411W        W80726   1.753  37.878   1.306
 8412W        W80727   2.836   2.282  14.841
 8413W        W80728  34.034  23.638   2.352
 8414W        W80729  36.985  29.541   3.221
 8415W        W80730  32.101   8.753  12.528
 8416W        W80731  33.011   2.908   0.403
 8417W        W80732  19.761  31.594   0.448
 8418W        W80733  25.146  37.006   2.358
 8419W        W80734  18.616  36.039  12.009
 8420W        W80735  24.132   2.903  11.025
 8421W        W80736  16.169  37.410  10.980
 8422W        W80737   3.883  41.959  13.389
 8423W        W80738  30.539   8.245  13.005
 8424W        W80739  32.448  43.404  11.453
 8425W        W80740   4.917  29.623  12.953
 8426W        W80741  29.066  16.637  13.877
 8427W        W80742  39.062  12.742   0.411
 8428W        W80743  14.668   9.154  11.391
 8429W        W80744  19.570  23.715   0.803
 8430W        W80745  41.450  27.647  12.483
 8431W        W80746  11.731  24.611  13.794
 8432W        W80747  43.329  39.833  11.502
 8433W        W80748  29.035  14.182  14.392
 8434W        W80749   9.192  37.549  12.473
 8435W        W80750  43.942  38.912  14.275
 8436W        W80751  23.714  12.711  11.516
 8437W        W80752  42.782   8.378  14.337
 8438W        W80753  42.854   9.753  12.363
 8439W        W80754  25.480   8.358   4.258
 8440W        W80755   0.456  26.086  14.857
 8441W        W80756  17.615  20.588   3.837
 8442W        W80757   3.352   5.917   0.784
 8443W        W80758  41.030   7.775   4.782
 8444W        W80759  25.099  21.159   1.877
 8445W        W80760  39.514  34.896  12.921
 8446W        W80761   5.199  27.067   0.382
 8447W        W80762  19.640  34.399   1.436
 8448W        W80763  41.843   8.371   0.343
 8449W        W80764  25.136  32.051  12.470
 8450W        W80765  24.662   6.318  11.400
 8451W        W80766  43.806  38.011  11.489
 8452W        W80767  33.071  40.839  13.378
 8453W        W80768  22.648  20.629   0.460
 8454W        W80769  27.979  36.374  14.411
 8455W        W80770   6.203  19.677   4.113
 8456W        W80771  32.625  38.996  10.110
 8457W        W80772  32.022  38.050   3.157
 8458W        W80773   1.758  37.866  12.551
 8459W        W80774  13.673  32.094   0.916
 8460W        W80775   0.838  27.627   1.296
 8461W        W80776  21.241   3.843   5.173
 8462W        W80777   7.825  24.987   0.467
 8463W        W80778  36.084  28.493  13.967
 8464W        W80779  36.861  38.981  10.949
 8465W        W80780   6.753  34.455  14.498
 8466W        W80781  13.723  11.655   1.852
 8467W        W80782  19.662   1.307   2.309
 8468W        W80783  34.099   7.211   2.180
 8469W        W80784  42.302   3.450  11.604
 8470W        W80785  22.579  15.780   5.180
 8471W        W80786  18.194  42.929   5.097
 8472W        W80787  38.842  31.457  14.965
 8473W        W80788  23.557  18.788   4.632
 8474W        W80789  37.915   1.736   5.134
 8475W        W80790  34.012  40.959  14.366
 8476W        W80791   5.882   6.769   1.759
 8477W        W80792  12.295  10.335   3.348
 8478W        W80793  33.110  14.103   2.727
 8479W        W80794   8.691  20.739  10.509
 8480W        W80795  32.545  23.080  10.489
 8481W        W80796  15.255  20.137   2.342
 8482W        W80797  40.478  39.447   0.925
 8483W        W80798  14.107  29.657   2.813
 8484W        W80799  37.992   0.980   0.794
 8485W        W80800  21.254  37.356  13.041
 8486W        W80801  42.470   2.313   1.373
 8487W        W80802  26.636  32.405  10.118
 8488W        W80803  13.298  36.517   0.446
 8489W        W80804  42.469  34.568   4.695
 8490W        W80805  24.181  31.407   4.194
 8491W        W80806  32.067  21.721   4.178
 8492W        W80807  44.770   4.933   1.852
 8493W        W80808  36.460   2.227  11.423
 8494W        W80809  19.245  13.122  14.918
 8495W        W80810  34.560  33.055   1.810
 8496W        W80811  32.993  29.056  13.455
 8497W        W80812   5.330  12.710   3.262
 8498W        W80813  25.014  44.797   2.886
 8499W        W80814  35.536  25.991  12.831
 8500W        W80815  37.836  29.024   4.697
 8501W        W80816   5.205  40.417   3.850
 8502W        W80817  10.837  39.889  13.408
 8503W        W80818  26.553  23.660  12.989
 8504W        W80819   2.470   3.251   2.885
 8505W        W80820  39.826  33.569  13.946
 8506W        W80821  41.442  35.854  11.876
 8507W        W80822   8.383  17.251  12.549
 8508W        W80823  27.003   6.299   2.672
 8509W        W80824  23.542  44.306  10.440
 8510W        W80825  24.683   4.253  13.057
 8511W        W80826   7.701  15.181   0.934
 8512W        W80827  21.118  31.414  13.035
 8513W        W80828  33.985  30.435  12.901
 8514W        W80829  27.158  29.478  10.474
 8515W        W80830   7.361  21.127  11.082
 8516W        W80831  30.137  10.673  12.541
 8517W        W80832  36.374  34.032  12.351
 8518W        W80833   3.822  30.001  13.898
 8519W        W80834  26.517   2.256   4.198
 8520W        W80835  36.938  25.010   9.949
 8521W        W80836  23.649  20.140  11.438
 8522W        W80837   4.315  20.685   2.695
 8523W        W80838  42.879  33.932   2.194
 8524W        W80839   5.766  27.569   2.399
 8525W        W80840   2.384  18.270  14.935
 8526W        W80841   0.964   1.875  12.495
 8527W        W80842  30.433   1.750   0.948
 8528W        W80843  12.823  41.347  11.464
 8529W        W80844  10.181  18.175   0.761
 8530W        W80845  33.446   3.254   2.224
 8531W        W80846  13.633   5.413   0.396
 8532W        W80847  34.476   0.297  13.396
 8533W        W80848  20.694  11.791   1.413
 8534W        W80849  30.556  21.252  14.443
 8535W        W80850   2.468  39.942   2.883
 8536W        W80851  19.603  27.082   0.825
 8537W        W80852   0.777   1.936  13.526
 8538W        W80853  12.361  40.861  11.928
 8539W        W80854  24.068  32.552  10.604
 8540W        W80855   7.254  29.571  14.515
 8541W        W80856  30.568  15.647  12.883
 8542W        W80857  31.479  26.078   1.438
 8543W        W80858  41.839  35.443  11.399
 8544W        W80859  40.497   6.365   2.242
 8545W        W80860  29.524  16.608   4.291
 8546W        W80861  14.313  10.338   0.264
 8547W        W80862  15.110  10.666  10.974
 8548W        W80863   3.859   1.394  11.374
 8549W        W80864   9.158  20.260   0.477
 8550W        W80865  42.963   0.816   0.804
 8551W        W80866  36.012   1.913   4.164
 8552W        W80867  20.756  16.209  14.994
 8553W        W80868  19.278  21.607   0.369
 8554W        W80869  14.279  33.474  13.802
 8555W        W80870  19.746  14.787   4.807
 8556W        W80871   6.257  12.618   2.348
 8557W        W80872  34.881  16.104  13.427
 8558W        W80873  15.261  32.517   4.791
 8559W        W80874  30.558  43.945  12.013
 8560W        W80875  14.170   2.879   1.383
 8561W        W80876   8.250  34.385   2.801
 8562W        W80877  40.052  15.689   1.896
 8563W        W80878  12.805   0.953  13.366
 8564W        W80879  22.720  26.169  13.878
 8565W        W80880   4.762  42.367  13.904
 8566W        W80881  39.409  33.496   1.383
 8567W        W80882  30.508  31.606   4.269
 8568W        W80883  44.502   0.798   4.309
 8569W        W80884   1.966   4.923  11.480
 8570W        W80885  31.902  22.044  13.844
 8571W        W80886  31.896   5.711   0.872
 8572W        W80887   1.853  10.305  14.969
 8573W        W80888  41.886  33.436  11.432
 8574W        W80889  18.186  22.747  10.902
 8575W        W80890  14.817  27.168  14.979
 8576W        W80891   2.808  22.695   4.207
 8577W        W80892  15.149  23.074  11.516
 8578W        W80893  23.067   4.309  12.493
 8579W        W80894  32.907  12.668   4.805
 8580W        W80895  36.928  41.374  12.494
 8581W        W80896  32.511   2.247   4.290
 8582W        W80897  38.450  19.588  11.510
 8583W        W80898  39.840  30.431   1.223
 8584W        W80899  21.119  20.246   3.860
 8585W        W80900  14.247  40.316  10.897
 8586W        W80901  33.934  20.742   3.660
 8587W        W80902  18.619  37.950   1.836
 8588W        W80903   1.959  35.429   9.587
 8589W        W80904  33.874  43.904  14.775
 8590W        W80905  30.579  19.733  12.550
 8591W        W80906   0.473  37.424  12.494
 8592W        W80907  34.087  42.005  14.801
 8593W        W80908  18.058  16.131  11.386
 8594W        W80909  43.888   8.660   0.255
 8595W        W80910  42.896  28.508   4.741
 8596W        W80911   5.823  10.769  13.879
 8597W        W80912   9.258  25.645  13.951
 8598W        W80913   7.257  33.986   4.659
 8599W        W80914  38.970  15.266   4.752
 8600W        W80915   2.728  27.613  14.978
 8601W        W80916  33.608  31.959   3.693
 8602W        W80917   8.359  16.592  10.620
 8603W        W80918  10.761  30.465   2.405
 8604W        W80919  36.889  22.163  12.444
 8605W        W80920   7.901  43.899  13.035
 8606W        W80921  44.894  29.452  10.593
 8607W        W80922  37.984  19.750  11.575
 8608W        W80923  26.209  32.066   0.459
 8609W        W80924  33.002  29.588  12.940
 8610W        W80925   0.949  33.128   1.331
 8611W        W80926  15.746  21.701  12.446
 8612W        W80927  23.514  30.044   1.256
 8613W        W80928   1.949  27.497  12.410
 8614W        W80929  24.607  23.092  14.023
 8615W        W80930  31.561  43.472  11.882
 8616W        W80931  16.081  35.050   1.373
 8617W        W80932  15.231  42.406  12.365
 8618W        W80933  43.337   6.237  13.340
 8619W        W80934   7.785  13.245   4.284
 8620W        W80935  27.943  40.308   0.792
 8621W        W80936  40.896  17.629   1.904
 8622W        W80937  41.383  40.488  11.883
 8623W        W80938  14.259  14.695  14.759
 8624W        W80939  26.187  27.072   3.673
 8625W        W80940  35.449   8.328  10.906
 8626W        W80941  18.709  20.714  13.836
 8627W        W80942   3.307  40.317  13.883
 8628W        W80943   1.914   5.245   3.345
 8629W        W80944  28.628  14.705  11.967
 8630W        W80945   7.773  14.153  13.961
 8631W        W80946  44.950  22.061   1.767
 8632W        W80947   2.874  34.944  10.556
 8633W        W80948   0.457   8.709   2.405
 8634W        W80949   8.161  33.553  13.958
 8635W        W80950  42.517  34.931  10.927
 8636W        W80951   3.302  21.636  11.004
 8637W        W80952   1.844  43.483   2.197
 8638W        W80953   1.957  25.476   1.834
 8639W        W80954  33.987   7.859  13.939
 8640W        W80955  14.609  26.991  13.307
 8641W        W80956  32.923  31.483  12.842
 8642W        W80957  24.565  27.559   3.261
 8643W        W80958   6.245  24.041  14.023
 8644W        W80959  12.612  20.185   1.724
 8645W        W80960  31.038  21.263   0.296
 8646W        W80961   5.761  41.039  13.522
 8647W        W80962  14.212   5.360   3.342
 8648W        W80963   8.267  14.744  13.024
 8649W        W80964  12.836  42.371  14.347
 8650W        W80965  29.491  43.473  10.450
 8651W        W80966   2.435  42.894   2.794
 8652W        W80967   3.447  36.874   0.477
 8653W        W80968  23.080  35.853   4.673
 8654W        W80969  14.628  43.770   4.208
 8655W        W80970  21.204  12.269   3.863
 8656W        W80971  33.390  39.331   2.848
 8657W        W80972  16.268  10.849  14.374
 8658W        W80973  31.096  37.004   2.197
 8659W        W80974  37.430  28.052   0.859
 8660W        W80975  32.423  27.996  14.822
 8661W        W80976  44.458  27.963   2.391
 8662W        W80977  24.667  30.553  14.916
 8663W        W80978  43.436  11.144   3.150
 8664W        W80979  23.728  42.452  12.999
 8665W        W80980  31.406  13.260  13.330
 8666W        W80981  21.099  14.791  14.440
 8667W        W80982   0.372  17.600   2.381
 8668W        W80983  23.053  16.686  13.469
 8669W        W80984  44.472  41.497  10.417
 8670W        W80985  34.079  36.360  12.944
 8671W        W80986  28.011   9.343   2.320
 8672W        W80987  40.507   5.395   1.761
 8673W        W80988  44.794  33.545  11.128
 8674W        W80989  37.017  15.623  13.916
 8675W        W80990  21.168  23.530  13.466
 8676W        W80991  39.411  44.837   2.870
 8677W        W80992  21.149  43.773  11.043
 8678W        W80993  24.600  24.483  12.885
 8679W        W80994  33.529  44.316  11.550
 8680W        W80995   0.343  17.667   1.748
 8681W        W80996  15.675  26.111   0.784
 8682W        W80997  38.468   3.931   0.473
 8683W        W80998  26.481  26.539   2.280
 8684W        W80999  32.039  13.654   3.287
 8685W        W81000  41.500  32.439  11.912
 8686W        W81001  21.173  21.258   0.402
 8687W        W81002  24.633  42.902   0.758
 8688W        W81003  34.545   0.929  12.888
 8689W        W81004  41.919  28.570  11.587
 8690W        W81005  17.588  38.467   2.350
 8691W        W81006  17.253  25.582  11.477
 8692W        W81007  32.617  18.188   1.857
 8693W        W81008  23.998  41.516  10.578
 8694W        W81009  23.625  38.892  13.855
 8695W        W81010   3.775   3.413  13.338
 8696W        W81011   3.896  38.351   4.789
 8697W        W81012  21.631  13.725   0.961
 8698W        W81013  12.665   3.807   4.338
 8699W        W81014  31.417   4.429  11.594
 8700W        W81015  12.789  12.350  11.054
 8701W        W81016  28.487   2.934  11.541
 8702W        W81017  10.191  14.235   1.241
 8703W        W81018  29.086  12.286   0.966
 8704W        W81019  40.399  12.212   4.710
 8705W        W81020  26.575  30.106   0.931
 8706W        W81021   1.800   3.770   3.193
 8707W        W81022  24.107   2.432   1.362
 8708W        W81023  13.105   2.889   1.424
 8709W        W81024  28.489  10.267  13.973
 8710W        W81025  25.139  29.930   4.196
 8711W        W81026  13.277  38.383  10.562
 8712W        W81027  35.578  23.241   1.304
 8713W        W81028  26.562  33.987   9.456
 8714W        W81029  41.906  10.759   1.393
 8715W        W81030  19.257  37.411  11.931
 8716W        W81031   7.276  32.120  12.449
 8717W        W81032  44.874  26.509  13.055
 8718W        W81033  35.933   2.351  12.948
 8719W        W81034  22.047   3.325   0.823
 8720W        W81035  13.325   7.830   2.754
 8721W        W81036  43.869  23.130  11.939
 8722W        W81037  17.612  13.236  13.361
 8723W        W81038  18.648  10.220  14.778
 8724W        W81039  32.539  26.050  11.950
 8725W        W81040  15.245   6.695   2.859
 8726W        W81041  10.140   2.881  11.095
 8727W        W81042  25.588  41.930   0.943
 8728W        W81043  15.207   9.247  11.610
 8729W        W81044  23.170  32.108  12.489
 8730W        W81045   9.829  42.819   2.771
 8731W        W81046  15.648  11.677  12.349
 8732W        W81047  31.447   9.819   2.374
 8733W        W81048  35.514  28.536   4.127
 8734W        W81049   7.679   9.340  13.543
 8735W        W81050  38.347   1.761  13.367
 8736W        W81051   2.967  23.228   0.916
 8737W        W81052  40.972   6.914  14.934
 8738W        W81053  19.108   2.364  12.558
 8739W        W81054  18.703  25.538   3.779
 8740W        W81055  28.095   2.309  11.979
 8741W        W81056  18.118  20.048  13.884
 8742W        W81057  22.540  41.829  12.345
 8743W        W81058  35.086  19.603  14.025
 8744W        W81059   1.753  36.393  14.834
 8745W        W81060  10.280  40.342  14.830
 8746W        W81061  40.813  11.726  13.926
 8747W        W81062  35.459  15.115  12.989
 8748W        W81063  35.917  11.241   3.267
 8749W        W81064  39.444  25.655  12.373
 8750W        W81065  39.373  29.566   4.134
 8751W        W81066  27.113  40.906   1.359
 8752W        W81067   7.883  30.420   4.331
 8753W        W81068   9.794  23.032  11.030
 8754W        W81069  28.470   2.741   1.428
 8755W        W81070   9.877   8.390   4.262
 8756W        W81071  30.464  36.905  14.026
 8757W        W81072   6.353  20.228  13.979
 8758W        W81073  43.800   5.307  11.002
 8759W        W81074  23.217  31.486   4.203
 8760W        W81075  25.587  38.836   0.864
 8761W        W81076  14.317   6.229  12.530
 8762W        W81077  27.538  26.207   4.300
 8763W        W81078  10.160   4.418  12.346
 8764W        W81079  20.166   8.364   9.630
 8765W        W81080  26.138  16.282   0.738
 8766W        W81081  12.166  22.187   0.348
 8767W        W81082   2.333  33.562   1.213
 8768W        W81083  29.172   6.683  14.473
 8769W        W81084  41.345  17.765   0.744
 8770W        W81085  42.952  10.313  11.555
 8771W        W81086  13.179  30.057   3.713
 8772W        W81087  37.963  35.520  12.897
 8773W        W81088  23.516   1.891   1.258
 8774W        W81089   1.738   9.882  11.858
 8775W        W81090  32.591  23.708   4.205
 8776W        W81091  12.357  17.273  11.120
 8777W        W81092  36.475  34.874   9.977
 8778W        W81093  43.332  41.973   4.297
 8779W        W81094  19.558  28.997  11.001
 8780W        W81095   9.683   9.301   3.205
 8781W        W81096  35.979  15.305   0.369
 8782W        W81097  19.633  32.434   3.360
 8783W        W81098  30.109  44.769  10.619
 8784W        W81099  21.031  32.573   0.429
 8785W        W81100  35.485  43.999  14.305
 8786W        W81101  40.503  41.313   5.174
 8787W        W81102  26.069  20.057   4.301
 8788W        W81103  17.165  41.293   3.238
 8789W        W81104  22.585   1.731  10.547
 8790W        W81105  39.413   3.753  12.825
 8791W        W81106  34.866  10.200  11.460
 8792W        W81107  14.648  30.432  10.153
 8793W        W81108  17.632   9.809  13.340
 8794W        W81109  16.750  20.043   3.220
 8795W        W81110   5.255   1.846   4.354
 8796W        W81111  23.008  14.833   1.899
 8797W        W81112  40.496  19.715  12.894
 8798W        W81113  34.943   4.905  13.033
 8799W        W81114  22.569  18.100  14.987
 8800W        W81115  19.280  12.205  11.031
 8801W        W81116  20.549  43.515  11.098
 8802W        W81117  31.045  29.014  12.958
 8803W        W81118  15.229   5.233   2.336
 8804W        W81119   4.413  31.025   1.744
 8805W        W81120  20.677  22.546  13.990
 8806W        W81121  20.762  27.615  14.990
 8807W        W81122  12.305  40.457   3.209
 8808W        W81123  12.143  26.051   1.308
 8809W        W81124  10.316  15.821   3.240
 8810W        W81125  20.255  31.460   0.851
 8811W        W81126  12.155  24.095   3.306
 8812W        W81127   3.790  28.939   0.290
 8813W        W81128   8.384  18.656   0.914
 8814W        W81129  12.769  41.466   4.268
 8815W        W81130  12.856  39.540   2.367
 8816W        W81131  33.958  44.389   1.391
 8817W        W81132  11.345  17.762  13.005
 8818W        W81133  21.673  22.209  13.931
 8819W        W81134  13.153   1.907   2.290
 8820W        W81135  12.647  27.076  10.484
 8821W        W81136  27.999  20.531  13.948
 8822W        W81137  11.732  36.896  12.041
 8823W        W81138  15.659   5.901   4.289
 8824W        W81139  20.527   8.799  11.453
 8825W        W81140  36.098  11.244  13.535
 8826W        W81141   4.722   0.869  14.300
 8827W        W81142  33.921  31.965   3.847
 8828W        W81143   2.395  18.726   4.637
 8829W        W81144  39.963   3.875  12.341
 8830W        W81145   0.935  38.501  11.922
 8831W        W81146  24.589  12.619  11.990
 8832W        W81147  20.207  18.788   1.841
 8833W        W81148  44.756  33.993   1.893
 8834W        W81149  38.401  21.554  10.528
 8835W        W81150  21.682  23.517   0.346
 8836W        W81151  34.389  27.036   0.827
 8837W        W81152   1.286   8.685   3.706
 8838W        W81153  24.163  31.020   3.817
 8839W        W81154   5.410  17.749  12.375
 8840W        W81155  36.454  27.466   2.879
 8841W        W81156  20.108  20.563   2.191
 8842W        W81157  24.003  35.398   4.277
 8843W        W81158  11.293  21.706   3.742
 8844W        W81159  15.649  20.065   0.454
 8845W        W81160  40.940  23.717  11.107
 8846W        W81161  20.679   3.453   3.382
 8847W        W81162  20.156  23.633  12.868
 8848W        W81163  33.534  16.574  14.857
 8849W        W81164   5.864  34.038  13.453
 8850W        W81165  42.932   2.826  14.784
 8851W        W81166  29.984   8.681  12.042
 8852W        W81167  28.518  27.537   2.781
 8853W        W81168  13.784  40.036   4.175
 8854W        W81169  13.821  34.453  10.598
 8855W        W81170  41.897  14.127   1.933
 8856W        W81171  13.652  35.583   2.287
 8857W        W81172  41.842  44.824   0.433
 8858W        W81173   4.344  32.990   3.869
 8859W        W81174   8.243  27.609  14.811
 8860W        W81175   6.790   8.798   0.770
 8861W        W81176  36.429  24.098  14.913
 8862W        W81177  36.428   0.397   0.953
 8863W        W81178  20.164  19.651   9.947
 8864W        W81179  20.658  44.412   1.247
 8865W        W81180  20.087  34.426  14.473
 8866W        W81181  44.940  41.876   4.813
 8867W        W81182  15.123  16.587   0.847
 8868W        W81183  39.440  30.125  14.396
 8869W        W81184   2.458  21.512   4.336
 8870W        W81185  41.984  11.311  11.405
 8871W        W81186   6.872  15.247   1.219
 8872W        W81187   1.416  31.006  14.809
 8873W        W81188  31.117  43.767   3.800
 8874W        W81189  30.623  21.691   4.747
 8875W        W81190   7.672  13.161  13.505
 8876W        W81191  36.414  25.055   3.742
 8877W        W81192  10.372  15.695   5.284
 8878W        W81193  21.577   6.409   1.408
 8879W        W81194  38.374  31.933   3.285
 8880W        W81195  13.172  42.783  12.978
 8881W        W81196  44.395  34.885   1.253
 8882W        W81197  25.016  19.663  14.809
 8883W        W81198  21.198  27.085   4.694
 8884W        W81199  17.782  36.469   3.241
 8885W        W81200   3.298  34.866  12.008
 8886W        W81201   9.850  34.612   1.443
 8887W        W81202  28.592  43.430  12.837
 8888W        W81203  16.806   7.884   3.272
 8889W        W81204  12.818   0.753  10.509
 8890W        W81205  21.083  11.223   0.829
 8891W        W81206  31.966  13.845   2.215
 8892W        W81207  37.023  42.777  11.384
 8893W        W81208  35.883  23.070   2.386
 8894W        W81209  16.296  10.195   1.851
 8895W        W81210  40.350  25.495   0.442
 8896W        W81211  33.080  21.647  14.395
 8897W        W81212  43.847  29.538   2.735
 8898W        W81213   8.722  18.772  10.476
 8899W        W81214  43.777  25.681   1.218
 8900W        W81215  31.610  30.429   2.249
 8901W        W81216  33.478  30.459  10.510
 8902W        W81217  25.084  22.075   1.869
 8903W        W81218  32.415  21.241  14.322
 8904W        W81219  39.989  27.556  13.343
 8905W        W81220  14.721   7.242  11.087
 8906W        W81221  27.634   4.344  12.896
 8907W        W81222  37.536  18.279   0.353
 8908W        W81223  19.150   3.443   3.648
 8909W        W81224  39.404  12.313   1.874
 8910W        W81225  26.572  18.563   0.893
 8911W        W81226  14.715   9.223   2.873
 8912W        W81227  39.853  43.461  12.906
 8913W        W81228  10.725   0.845   4.236
 8914W        W81229   7.210   9.314   4.182
 8915W        W81230  18.737   1.872   9.936
 8916W        W81231  23.582  36.357  10.569
 8917W        W81232   0.263  35.101   0.463
 8918W        W81233  41.374   6.850  11.921
 8919W        W81234  40.804  21.112  14.457
 8920W        W81235  36.403  19.247  14.413
 8921W        W81236  40.875   5.768   0.265
 8922W        W81237  34.868  40.814   2.687
 8923W        W81238  15.820  30.936   4.741
 8924W        W81239   3.251  44.811  14.911
 8925W        W81240  20.072  23.007   0.750
 8926W        W81241  42.784  42.860   2.289
 8927W        W81242  32.971   2.245   2.766
 8928W        W81243  32.118  21.686  11.519
 8929W        W81244  19.737  20.749   4.317
 8930W        W81245  19.575  43.513  13.924
 8931W        W81246  28.528  31.645   9.989
 8932W        W81247  24.015  22.121   0.467
 8933W        W81248  11.202  27.559   2.404
 8934W        W81249  42.846  18.600   2.720
 8935W        W81250  36.039  19.634  14.927
 8936W        W81251  33.904  15.670  13.460
 8937W        W81252   1.412  13.275  12.395
 8938W        W81253  15.824  16.566   0.484
 8939W        W81254   4.907  41.404  13.337
 8940W        W81255  42.493  35.984   0.742
 8941W        W81256  18.096  39.837  11.602
 8942W        W81257   2.940  18.570   4.749
 8943W        W81258   5.688  34.526  13.791
 8944W        W81259   7.392  44.989  12.852
 8945W        W81260   5.816  29.047  13.943
 8946W        W81261  42.881  10.289   4.834
 8947W        W81262  16.166  36.894  12.842
 8948W        W81263  19.174  30.615   4.349
 8949W        W81264  20.664   6.407   0.947
 8950W        W81265  10.360  15.266  13.506
 8951W        W81266  28.441   7.875  12.904
 8952W        W81267  18.279  17.220  10.601
 8953W        W81268  14.183  25.173  11.031
 8954W        W81269  25.551  11.670  13.479
 8955W        W81270   2.747  42.884  14.828
 8956W        W81271  34.911  10.200   1.263
 8957W        W81272  12.294  37.479  13.548
 8958W        W81273   9.175  38.887   0.794
 8959W        W81274  26.639   2.789  11.380
 8960W        W81275  28.963   3.406  13.464
 8961W        W81276  16.138  26.966   4.233
 8962W        W81277   9.314  33.426  11.998
 8963W        W81278  40.822  20.731  13.008
 8964W        W81279  16.633  35.415  14.300
 8965W        W81280   4.222  14.296   1.814
 8966W        W81281  26.677   9.249   2.903
 8967W        W81282  41.314  34.413   0.920
 8968W        W81283  42.378   2.257   2.236
 8969W        W81284  21.741  19.132  12.371
 8970W        W81285  22.585  10.175   5.264
 8971W        W81286   0.422   9.313  11.110
 8972W        W81287  13.295  33.608   3.358
 8973W        W81288  29.159   3.306   2.263
 8974W        W81289  21.217  21.167   1.347
 8975W        W81290   5.910  44.389   3.750
 8976W        W81291  10.717  41.910   4.245
 8977W        W81292   2.454  27.663   1.372
 8978W        W81293  23.542   8.198   1.364
 8979W        W81294  33.098  30.151   1.750
 8980W        W81295  35.544   7.805   1.717
 8981W        W81296  39.520  43.957  13.325
 8982W        W81297  40.940  13.662  14.376
 8983W        W81298  31.524  43.812  10.483
 8984W        W81299  18.644  31.107   0.921
 8985W        W81300  13.666  17.572  11.525
 8986W        W81301  40.874  14.728   1.851
 8987W        W81302  11.806   3.888   1.290
 8988W        W81303  20.755  43.960  12.919
 8989W        W81304  10.289   5.837  12.090
 8990W        W81305   8.871  42.293  14.012
 8991W        W81306  10.319  32.075  13.492
 8992W        W81307  36.460  41.002  14.399
 8993W        W81308   1.951  20.536   3.352
 8994W        W81309  10.298  14.813  11.488
 8995W        W81310  16.791  25.135  12.455
 8996W        W81311  33.086  25.636  12.349
 8997W        W81312  16.735  35.962  13.866
 8998W        W81313   5.738  18.235   4.145
 8999W        W81314   6.277  31.927  10.597
 9000W        W81315   5.243   2.782   4.311
 9001W        W81316  19.616  32.906   0.354
 9002W        W81317  14.594  16.805  12.496
 9003W        W81318  19.118  23.584   1.889
 9004W        W81319  30.058  27.183   2.393
 9005W        W81320  13.245  35.070   2.293
 9006W        W81321   8.718   0.440   4.621
 9007W        W81322  20.219  29.138  11.974
 9008W        W81323  43.423  12.709   0.277
 9009W        W81324  41.864   5.431  12.385
 9010W        W81325   3.311   3.426  10.636
 9011W        W81326  30.451  14.273  12.347
 9012W        W81327  17.205  37.917  12.093
 9013W        W81328  42.334  40.799  13.918
 9014W        W81329  29.030  26.501  13.013
 9015W        W81330  36.430  17.239  11.612
 9016W        W81331  34.942  23.649   0.784
 9017W        W81332  13.696   2.952  12.465
 9018W        W81333   8.827  19.535  10.510
 9019W        W81334   7.830  27.011  13.350
 9020W        W81335  12.719  33.041   1.899
 9021W        W81336  20.561  41.451  11.035
 9022W        W81337   1.803  35.429  12.571
 9023W        W81338  16.155  16.222  10.941
 9024W        W81339  26.028  29.942   3.254
 9025W        W81340  26.548  44.801  14.510
 9026W        W81341  33.875   0.829  10.583
 9027W        W81342  27.999  40.989   2.798
 9028W        W81343   4.820  19.577  10.982
 9029W        W81344  21.704  11.813  13.321
 9030W        W81345  23.526  28.994   4.217
 9031W        W81346   2.287  42.371  14.322
 9032W        W81347  27.048  31.031   3.780
 9033W        W81348   3.251   0.299   3.814
 9034W        W81349   9.745  38.326  11.962
 9035W        W81350   5.378  31.547   2.832
 9036W        W81351  32.087  18.094   2.837
 9037W        W81352  13.690   3.921   3.776
 9038W        W81353   6.889   9.194  10.923
 9039W        W81354  12.759  24.691  12.948
 9040W        W81355  44.895   8.261   0.780
 9041W        W81356  19.571  15.130   1.408
 9042W        W81357  24.595  31.497   3.810
 9043W        W81358  25.537  28.519  11.921
 9044W        W81359  41.025  42.458   2.886
 9045W        W81360  40.401  41.002  13.037
 9046W        W81361   9.842  41.934   4.614
 9047W        W81362  24.034  19.250  11.450
 9048W        W81363  16.155  27.666   5.765
 9049W        W81364  30.090  15.189  11.459
 9050W        W81365  44.354   9.803   3.651
 9051W        W81366  15.585  38.532  14.879
 9052W        W81367   5.760  31.987   0.883
 9053W        W81368  40.489  31.056   4.153
 9054W        W81369   4.232  37.868   0.368
 9055W        W81370  41.527   2.920   2.190
 9056W        W81371  17.618  23.600   2.350
 9057W        W81372  37.057  34.480  13.487
 9058W        W81373   1.452   7.690  14.472
 9059W        W81374   8.206  41.454  10.951
 9060W        W81375  32.964  24.229  14.981
 9061W        W81376  27.525  15.636   1.412
 9062W        W81377  17.719  25.518   0.386
 9063W        W81378  30.646  25.609   1.432
 9064W        W81379   1.746  42.391  14.832
 9065W        W81380   1.428  42.778   4.255
 9066W        W81381  38.554   1.900  12.431
 9067W        W81382  32.028   5.840  12.882
 9068W        W81383   1.754  16.077  14.419
 9069W        W81384   4.856   5.309   0.330
 9070W        W81385  39.384  36.871   4.837
 9071W        W81386  39.327  31.585   0.252
 9072W        W81387  40.507  23.113  13.322
 9073W        W81388   2.276  37.031   0.916
 9074W        W81389   7.866   5.773   9.942
 9075W        W81390  40.484  32.402  14.504
 9076W        W81391  40.949   5.788  13.371
 9077W        W81392  28.642   8.678   3.699
 9078W        W81393  23.119  24.576  10.449
 9079W        W81394  36.475  32.998   2.314
 9080W        W81395  22.708  22.086   9.447
 9081W        W81396  28.680   3.227  12.823
 9082W        W81397  32.464  25.112  13.955
 9083W        W81398  29.132  15.302   4.295
 9084W        W81399  17.188  39.435  13.880
 9085W        W81400  12.151  16.681   2.333
 9086W        W81401  44.279  38.547  10.042
 9087W        W81402  29.149  23.107   1.823
 9088W        W81403  39.864  41.344   2.734
 9089W        W81404  28.559   5.774   5.263
 9090W        W81405  24.706  26.074  12.058
 9091W        W81406  28.991  40.396   3.698
 9092W        W81407  19.122  26.003   4.623
 9093W        W81408   4.321  19.705  11.950
 9094W        W81409  33.016  17.247   0.859
 9095W        W81410  26.036  14.179  12.562
 9096W        W81411  10.682  41.536   3.211
 9097W        W81412  43.941  16.801   3.636
 9098W        W81413  42.405  21.511  11.394
 9099W        W81414  20.076  36.931  14.785
 9100W        W81415  44.817  38.392  13.403
 9101W        W81416  27.063   8.808  11.110
 9102W        W81417  43.400   2.894  11.566
 9103W        W81418   0.768  20.523   4.745
 9104W        W81419   7.285  11.144   1.449
 9105W        W81420  12.650  41.804  14.776
 9106W        W81421  29.967   0.486  14.309
 9107W        W81422  40.497  30.108  11.977
 9108W        W81423  36.501  17.744   3.171
 9109W        W81424  37.452   7.226   2.415
 9110W        W81425  35.063   7.372  13.863
 9111W        W81426  44.965   2.328  11.013
 9112W        W81427  39.854   6.379  14.852
 9113W        W81428  13.182  17.227  14.852
 9114W        W81429  36.054   8.226  14.913
 9115W        W81430  25.009  32.572  14.388
 9116W        W81431   5.732   5.810  13.902
 9117W        W81432   0.748  15.778  10.030
 9118W        W81433  16.259  20.537  12.061
 9119W        W81434   6.787  33.394   2.893
 9120W        W81435  17.784  12.799  14.998
 9121W        W81436  41.908  30.607  12.446
 9122W        W81437  12.628  42.867  10.962
 9123W        W81438   4.943  19.159   0.749
 9124W        W81439  42.846  16.102   3.857
 9125W        W81440  33.444  31.618  12.377
 9126W        W81441  27.522   4.807   2.329
 9127W        W81442  36.469  23.149  14.777
 9128W        W81443  39.359  14.211  12.464
 9129W        W81444  23.625  20.756   4.355
 9130W        W81445   6.304  17.634  12.861
 9131W        W81446  10.209  13.704   2.208
 9132W        W81447   6.201  32.493  12.825
 9133W        W81448   0.433   8.199   1.865
 9134W        W81449  18.068  37.344  13.371
 9135W        W81450  38.397  16.284  14.827
 9136W        W81451  24.644   1.367   1.243
 9137W        W81452  12.185  21.636   4.783
 9138W        W81453  20.094   2.800  14.918
 9139W        W81454  17.142  36.040  13.496
 9140W        W81455  32.109  41.372  12.517
 9141W        W81456   4.803  19.090  12.580
 9142W        W81457  24.038   8.700   0.269
 9143W        W81458   6.374  29.046  11.944
 9144W        W81459  28.560   4.220  10.130
 9145W        W81460  35.002  25.106  10.051
 9146W        W81461   0.355  11.249  13.515
 9147W        W81462  34.951  28.583   4.601
 9148W        W81463   9.156  37.361   2.274
 9149W        W81464  10.773   3.803  12.413
 9150W        W81465  19.690  43.873   4.773
 9151W        W81466  11.144  37.553  10.524
 9152W        W81467  42.365  43.352   1.445
 9153W        W81468   6.191  23.060  13.438
 9154W        W81469   5.872   5.356  13.982
 9155W        W81470  34.604  10.211  10.427
 9156W        W81471  42.359  17.081  11.032
 9157W        W81472  20.603   7.186   4.300
 9158W        W81473   1.462  22.090   2.701
 9159W        W81474  34.486  39.932   0.825
 9160W        W81475  39.522  37.560  11.968
 9161W        W81476  27.153  16.633  10.556
 9162W        W81477  26.990  38.501   1.849
 9163W        W81478  13.196  44.768  11.420
 9164W        W81479  41.989  26.462   1.226
 9165W        W81480   4.320  27.987   3.174
 9166W        W81481  38.338  24.628  13.521
 9167W        W81482  21.750   7.782   1.293
 9168W        W81483   4.358   8.681  13.352
 9169W        W81484  21.632  25.045   2.278
 9170W        W81485  34.497  15.758   4.675
 9171W        W81486  22.723  39.504   3.812
 9172W        W81487  42.491   5.215   4.652
 9173W        W81488  28.458  42.939  11.040
 9174W        W81489  37.840  32.592  13.874
 9175W        W81490  39.934  32.913   2.806
 9176W        W81491   8.195  27.582  12.984
 9177W        W81492  21.575  26.641   3.160
 9178W        W81493  29.446   6.823  13.830
 9179W        W81494  36.563  26.618  13.797
 9180W        W81495   0.372   8.338  10.985
 9181W        W81496  13.634  16.131  13.310
 9182W        W81497  34.513   9.726  11.382
 9183W        W81498  37.852  11.656  13.347
 9184W        W81499  42.873  20.174  11.103
 9185W        W81500  18.726   1.287   1.241
 9186W        W81501  25.121  33.017   1.787
 9187W        W81502  26.021  37.463   4.730
 9188W        W81503  26.560  28.538   3.336
 9189W        W81504  32.131  24.669   2.389
 9190W        W81505  26.188  29.460  11.075
 9191W        W81506  26.028   4.366   1.309
 9192W        W81507  32.012  31.412   4.822
 9193W        W81508  11.784  27.473  10.415
 9194W        W81509  15.315  35.889   1.886
 9195W        W81510  31.548   7.230  13.504
 9196W        W81511  18.051  23.069   3.158
 9197W        W81512  32.974   3.781  14.426
 9198W        W81513  10.280  32.021   9.970
 9199W        W81514  18.270  39.367   1.883
 9200W        W81515  40.430  22.201   3.222
 9201W        W81516   2.939  33.029  14.860
 9202W        W81517  20.653  31.961   3.690
 9203W        W81518  23.162  41.963   3.373
 9204W        W81519  39.489  25.584   3.807
 9205W        W81520  31.140  34.537  12.487
 9206W        W81521  10.714  35.538   0.363
 9207W        W81522  10.336  22.558  10.424
 9208W        W81523  10.808  21.068  12.954
 9209W        W81524   7.735  24.553   4.697
 9210W        W81525  16.670  38.923  11.869
 9211W        W81526   7.847  22.678   1.779
 9212W        W81527  26.463  25.136  11.882
 9213W        W81528  25.093   4.790   1.391
 9214W        W81529  29.125  35.535  12.487
 9215W        W81530  40.503  23.700   2.892
 9216W        W81531   4.409  15.717   1.910
 9217W        W81532  34.044  38.957  11.956
 9218W        W81533  27.942   7.319   9.959
 9219W        W81534  41.465  25.640   1.807
 9220W        W81535   2.878  26.951  13.342
 9221W        W81536  28.994   2.383  12.831
 9222W        W81537  23.724  30.562   3.348
 9223W        W81538  21.649  39.943   2.716
 9224W        W81539  39.523  44.999   3.816
 9225W        W81540  27.135   1.891  12.425
 9226W        W81541  28.435   6.894  11.590
 9227W        W81542  25.079  36.983   4.627
 9228W        W81543  32.925  19.203   2.219
 9229W        W81544  14.272  20.577   1.892
 9230W        W81545  14.772  29.542   2.880
 9231W        W81546  18.074  36.558  11.515
 9232W        W81547  30.619  26.008  12.905
 9233W        W81548  39.020  25.021   9.981
 9234W        W81549   0.764  29.114   0.368
 9235W        W81550  37.579  30.993  10.557
 9236W        W81551  10.815  29.092  13.367
 9237W        W81552   9.233  37.060   1.695
 9238W        W81553  28.659   3.389  11.577
 9239W        W81554  34.574  24.217  14.809
 9240W        W81555   6.764  19.245   1.741
 9241W        W81556  10.172  18.630  10.552
 9242W        W81557   0.851  41.892   4.761
 9243W        W81558  12.336  16.317  14.022
 9244W        W81559   0.347   5.729   2.817
 9245W        W81560  20.673  16.214  12.567
 9246W        W81561  35.478  26.104  10.908
 9247W        W81562  28.025  44.401   0.746
 9248W        W81563  23.657  24.655  14.974
 9249W        W81564  44.878  36.384   9.515
 9250W        W81565  29.030   5.435   4.606
 9251W        W81566  44.914  21.622  14.301
 9252W        W81567   9.392  20.083  10.993
 9253W        W81568   4.290   8.210  13.444
 9254W        W81569  14.212  19.123  14.378
 9255W        W81570  29.151  43.869   1.345
 9256W        W81571   3.902  42.296   4.653
 9257W        W81572   1.381  22.236  10.487
 9258W        W81573  29.138  14.793  13.928
 9259W        W81574   1.289   7.388   1.865
 9260W        W81575   8.339  16.642   1.891
 9261W        W81576   6.773   1.891   2.245
 9262W        W81577  15.158   5.358   3.174
 9263W        W81578   0.871  30.421   2.253
 9264W        W81579  37.393   2.724   2.677
 9265W        W81580  24.993  38.489   3.283
 9266W        W81581  21.689  38.007  12.039
 9267W        W81582  39.453  40.540  10.421
 9268W        W81583  36.991  43.386   1.362
 9269W        W81584   9.679  11.716  10.412
 9270W        W81585  17.101   3.793  13.036
 9271W        W81586  36.546  26.143  14.937
 9272W        W81587   3.330  22.666   4.271
 9273W        W81588  33.031  30.568   2.388
 9274W        W81589  32.933   0.434  11.004
 9275W        W81590   5.913  23.053  12.493
 9276W        W81591  23.194  28.509   2.266
 9277W        W81592  30.504  38.995   0.465
 9278W        W81593  33.392  30.627  14.861
 9279W        W81594  23.228  17.686  10.567
 9280W        W81595  39.009   8.379   1.928
 9281W        W81596   4.929  41.437   1.248
 9282W        W81597  15.285  14.783  11.039
 9283W        W81598  43.876  23.220   0.371
 9284W        W81599  38.884  39.348  14.277
 9285W        W81600  37.061  32.613   3.658
 9286W        W81601   0.434  20.678   1.440
 9287W        W81602  16.600  34.025  14.338
 9288W        W81603   7.272  15.761   3.313
 9289W        W81604  23.064  25.657  14.787
 9290W        W81605  32.995  36.547  14.333
 9291W        W81606   6.261  41.383   3.192
 9292W        W81607   9.646  29.485  10.955
 9293W        W81608  43.347   6.232  14.293
 9294W        W81609  44.312  26.129   2.785
 9295W        W81610   7.792  13.626  11.513
 9296W        W81611  15.088  41.946   0.783
 9297W        W81612   8.824  14.199   0.747
 9298W        W81613  37.889  33.942  11.877
 9299W        W81614  16.676  18.281   4.763
 9300W        W81615   3.237  35.361  12.836
 9301W        W81616  20.054   7.352   2.318
 9302W        W81617  34.474   4.228  14.892
 9303W        W81618  31.899  12.194   3.709
 9304W        W81619  28.951   6.385  10.039
 9305W        W81620  44.788  25.591   4.689
 9306W        W81621   4.894  24.553  12.080
 9307W        W81622  21.718  17.084  13.437
 9308W        W81623   2.356  40.499   0.362
 9309W        W81624  43.279  35.864   3.270
 9310W        W81625  13.326  34.548   2.695
 9311W        W81626  15.642   9.777   4.178
 9312W        W81627   3.311  37.944   0.746
 9313W        W81628  16.591  25.031  13.324
 9314W        W81629  30.448   7.359  14.904
 9315W        W81630  38.027  10.356  13.482
 9316W        W81631  36.056  17.593   1.434
 9317W        W81632   9.781  27.603  14.939
 9318W        W81633   2.386  17.171   3.702
 9319W        W81634  39.331  44.006   1.339
 9320W        W81635  39.033   4.232  12.402
 9321W        W81636  38.421  44.826   4.716
 9322W        W81637  28.628  22.580   2.405
 9323W        W81638   4.403  22.670  14.464
 9324W        W81639  29.533  36.963  14.354
 9325W        W81640  44.307  39.914  10.483
 9326W        W81641  44.946   7.410  10.472
 9327W        W81642  27.499  16.740   0.323
 9328W        W81643  24.566  22.090  11.037
 9329W        W81644   0.450  18.605  13.430
 9330W        W81645   8.761  29.532   3.826
 9331W        W81646   3.715  34.387  10.481
 9332W        W81647   7.213  37.352   1.748
 9333W        W81648   2.362   6.294  14.370
 9334W        W81649  18.690  35.478  14.489
 9335W        W81650  18.178  37.358   2.287
 9336W        W81651  20.227  30.091  10.546
 9337W        W81652  26.660   3.843  14.767
 9338W        W81653  12.736  13.144  13.935
 9339W        W81654   1.291  34.597  12.868
 9340W        W81655  18.643  32.044   4.250
 9341W        W81656  20.108  33.446  13.502
 9342W        W81657  25.558  31.604  12.362
 9343W        W81658  10.138   4.866  12.560
 9344W        W81659  40.401  36.942   1.834
 9345W        W81660  30.563  17.089  11.476
 9346W        W81661  19.763  14.785   3.347
 9347W        W81662  23.630  19.616   3.663
 9348W        W81663  42.341  25.193   2.695
 9349W        W81664   1.457  31.539  14.768
 9350W        W81665  14.831  43.513   3.260
 9351W        W81666  41.932   7.405   0.311
 9352W        W81667  26.480  25.994   0.255
 9353W        W81668  41.410  14.691   1.922
 9354W        W81669  11.234  14.229  12.957
 9355W        W81670  31.993   2.779   4.736
 9356W        W81671  10.821  30.519  14.343
 9357W        W81672   4.251   8.216  11.428
 9358W        W81673  13.828   8.773  10.638
 9359W        W81674   9.696   6.244   0.420
 9360W        W81675   8.732  39.917   0.916
 9361W        W81676   4.273   0.262   0.358
 9362W        W81677  36.861   2.928   3.332
 9363W        W81678  28.137  34.873   4.340
 9364W        W81679  21.141  16.249   2.218
 9365W        W81680   4.227  22.195  13.009
 9366W        W81681  32.395  33.451  11.093
 9367W        W81682   1.870  23.580   0.727
 9368W        W81683   6.306  28.619  13.802
 9369W        W81684  15.590  12.754   3.287
 9370W        W81685  42.976  11.788  11.005
 9371W        W81686  14.656  36.520   0.380
 9372W        W81687  26.187  14.786   4.806
 9373W        W81688   5.204   7.874  13.904
 9374W        W81689   1.429  30.985  10.537
 9375W        W81690  33.574  43.018  12.493
 9376W        W81691   2.436  17.247   0.472
 9377W        W81692  34.063  38.030   3.652
 9378W        W81693  35.042  36.992   1.255
 9379W        W81694  27.980   0.839   2.805
 9380W        W81695  24.600  39.997  13.835
 9381W        W81696  31.572  34.969  10.480
 9382W        W81697  17.638  37.877   3.728
 9383W        W81698  25.198  17.680  11.074
 9384W        W81699  31.920  17.265  10.466
 9385W        W81700  17.190  17.305  10.969
 9386W        W81701  19.240  11.151  12.028
 9387W        W81702  39.040  28.105   4.284
 9388W        W81703   6.764   1.382  12.065
 9389W        W81704   2.879  34.453   0.759
 9390W        W81705   8.793   6.717  11.513
 9391W        W81706  27.957  42.864   3.327
 9392W        W81707   8.714  32.010  10.034
 9393W        W81708  37.425  38.399  11.534
 9394W        W81709   2.307  38.340  12.530
 9395W        W81710  42.944  38.021  13.856
 9396W        W81711   3.852  23.190   1.912
 9397W        W81712  39.401  20.159  10.441
 9398W        W81713  34.084  10.147   2.700
 9399W        W81714   3.352  40.835  11.387
 9400W        W81715  41.432  18.585  11.962
 9401W        W81716  10.633  33.118   1.409
 9402W        W81717   8.840  16.640   2.370
 9403W        W81718  21.676  40.544   1.752
 9404W        W81719   6.772   6.398  12.010
 9405W        W81720  37.499  31.022  11.996
 9406W        W81721  26.997  43.976   4.117
 9407W        W81722   3.778  11.328   0.814
 9408W        W81723  11.343  30.924  10.443
 9409W        W81724  37.904  44.341  14.772
 9410W        W81725  10.338   1.300   3.859
 9411W        W81726   8.340  25.690  12.477
 9412W        W81727   9.340  30.646   2.897
 9413W        W81728  43.385  21.588   3.682
 9414W        W81729  10.359   3.367   3.184
 9415W        W81730  11.244  36.540  14.023
 9416W        W81731   1.842  10.853   5.270
 9417W        W81732  32.410  11.152  13.447
 9418W        W81733  25.683  34.469  11.921
 9419W        W81734   6.252  20.532  14.017
 9420W        W81735  30.443   3.410   1.855
 9421W        W81736  40.471  42.867   2.265
 9422W        W81737   0.269   7.889   3.217
 9423W        W81738   8.782  40.404   5.284
 9424W        W81739  16.720  44.374   2.222
 9425W        W81740  42.024  33.521   1.831
 9426W        W81741  19.678   4.416  12.056
 9427W        W81742  11.674  21.647  14.001
 9428W        W81743  16.638  27.502   3.227
 9429W        W81744  10.751  33.534  10.489
 9430W        W81745  31.609  31.625  13.481
 9431W        W81746   0.834  13.702   3.325
 9432W        W81747  26.000  44.777  11.864
 9433W        W81748  41.991  17.286   5.273
 9434W        W81749  32.614  33.021   4.598
 9435W        W81750   4.882  20.615  13.316
 9436W        W81751  30.094  28.117   4.344
 9437W        W81752  28.464  33.125  12.979
 9438W        W81753  19.284  25.130   4.200
 9439W        W81754  34.941  29.110   0.473
 9440W        W81755  44.262  22.520   0.258
 9441W        W81756   7.305  31.076  11.486
 9442W        W81757   7.863  24.593  12.859
 9443W        W81758  34.548  19.228   0.369
 9444W        W81759  24.483  28.475   3.293
 9445W        W81760   1.323  39.026  12.579
 9446W        W81761  14.132   7.357   1.386
 9447W        W81762  44.335  23.569   1.306
 9448W        W81763  32.957  22.531  13.849
 9449W        W81764  12.757  16.695   3.378
 9450W        W81765  36.846  35.985  11.413
 9451W        W81766  25.557   5.898   4.711
 9452W        W81767  10.246  28.932   1.770
 9453W        W81768  27.085  33.010   1.807
 9454W        W81769  45.000  21.132  10.924
 9455W        W81770   7.706  24.620  14.435
 9456W        W81771  25.030   9.859   3.726
 9457W        W81772  28.080  10.271  10.619
 9458W        W81773  14.236  17.089   4.210
 9459W        W81774   6.804  24.130   3.711
 9460W        W81775  26.465  31.592   2.713
 9461W        W81776  40.537  35.428  11.453
 9462W        W81777   6.745  41.913  13.315
 9463W        W81778  44.410  40.027  11.487
 9464W        W81779  34.407  17.079   3.325
 9465W        W81780  30.607  36.546  10.624
 9466W        W81781  21.037  20.170  12.500
 9467W        W81782  21.238  33.942   2.704
 9468W        W81783  28.479  23.076   4.115
 9469W        W81784  17.253   3.219   9.954
 9470W        W81785  29.462  24.186  13.917
 9471W        W81786   8.812  19.717  12.887
 9472W        W81787  37.434  35.092  10.636
 9473W        W81788  19.140  44.863   3.342
 9474W        W81789  22.629  17.212   2.855
 9475W        W81790  16.619   1.460  11.410
 9476W        W81791  19.278  26.457  12.959
 9477W        W81792  23.663  35.381  12.480
 9478W        W81793  23.544  11.780   3.328
 9479W        W81794  11.759  12.121   4.179
 9480W        W81795  16.789  32.633   1.695
 9481W        W81796  36.011  12.815   0.881
 9482W        W81797  35.104  16.689  10.420
 9483W        W81798  37.967  26.699   9.921
 9484W        W81799   9.346  13.185  10.898
 9485W        W81800   3.229  13.240  11.541
 9486W        W81801  30.018  38.418  14.973
 9487W        W81802  10.356  13.314  12.010
 9488W        W81803  32.065  39.814  13.525
 9489W        W81804   0.423  26.167   2.408
 9490W        W81805  28.674  40.000  11.521
 9491W        W81806  44.496  28.481  11.383
 9492W        W81807  44.976  42.390   2.409
 9493W        W81808  22.664  40.373  13.877
 9494W        W81809  24.637  35.601  14.494
 9495W        W81810  11.753  12.711  13.819
 9496W        W81811  12.671  36.849  14.350
 9497W        W81812  13.294   6.789  10.432
 9498W        W81813   9.715  25.545   1.863
 9499W        W81814  38.330  16.783  14.783
 9500W        W81815  25.121  28.008   2.179
 9501W        W81816  21.051  42.944  11.963
 9502W        W81817  19.546   1.909   0.851
 9503W        W81818   3.772  15.307   2.297
 9504W        W81819   0.746  37.433   5.199
 9505W        W81820  42.978  10.168  14.919
 9506W        W81821  21.163  25.206   0.257
 9507W        W81822  24.054  14.650  11.379
 9508W        W81823   8.830   4.351   3.336
 9509W        W81824  43.356   8.305   1.935
 9510W        W81825  40.387  16.199   3.659
 9511W        W81826  42.811  42.821  13.450
 9512W        W81827  14.115  28.054   2.372
 9513W        W81828   4.289  36.036  13.053
 9514W        W81829  37.401   8.890  10.430
 9515W        W81830  39.875  14.680   0.784
 9516W        W81831  38.448  10.301   2.394
 9517W        W81832  29.552   7.296   1.741
 9518W        W81833  19.564  13.715  14.510
 9519W        W81834  42.849  18.103  13.411
 9520W        W81835  31.432   5.436   4.628
 9521W        W81836  43.773  44.503   4.670
 9522W        W81837   6.230   5.283  10.512
 9523W        W81838  16.754  12.707  12.073
 9524W        W81839  10.855  44.817   0.812
 9525W        W81840  32.982  11.630   4.797
 9526W        W81841  15.136   0.374  14.340
 9527W        W81842  15.633  21.229  13.467
 9528W        W81843  28.014   9.712  14.378
 9529W        W81844  16.733  19.161  12.838
 9530W        W81845  24.707  10.848  14.290
 9531W        W81846  11.702  43.992   4.252
 9532W        W81847  36.496  14.329  14.925
 9533W        W81848  42.910  22.157  10.503
 9534W        W81849   4.865  12.171   4.834
 9535W        W81850  41.904   5.917  10.584
 9536W        W81851  27.590  31.553  10.037
 9537W        W81852   4.250  21.041  13.912
 9538W        W81853  19.073  41.496  13.518
 9539W        W81854  33.512  35.371  10.594
 9540W        W81855  41.018  30.565  11.905
 9541W        W81856   1.343   8.307   3.377
 9542W        W81857  35.461  20.648   3.767
 9543W        W81858  29.012  18.587   0.957
 9544W        W81859  30.041  18.717   4.243
 9545W        W81860   5.857  11.338  10.918
 9546W        W81861  38.362  13.808   2.346
 9547W        W81862   2.346  30.511  11.077
 9548W        W81863  30.092  15.772  11.000
 9549W        W81864  41.864   7.729  13.471
 9550W        W81865  29.535   4.704   3.221
 9551W        W81866   9.695  21.683  12.901
 9552W        W81867  35.068  34.087  10.564
 9553W        W81868  32.444   7.390   3.288
 9554W        W81869  21.182  24.172   5.240
 9555W        W81870   8.824  14.595  12.407
 9556W        W81871  17.296   2.357  14.475
 9557W        W81872  18.052  31.900   3.800
 9558W        W81873  41.394   6.795   1.785
 9559W        W81874  20.761  23.547   1.881
 9560W        W81875  29.658  16.220  11.540
 9561W        W81876  25.499  17.686   1.404
 9562W        W81877  42.319   3.438   1.311
 9563W        W81878  38.343  39.060  13.381
 9564W        W81879  25.163   5.244  14.426
 9565W        W81880   7.875  11.232  11.469
 9566W        W81881  19.622  38.000   0.391
 9567W        W81882  37.889   0.319   0.414
 9568W        W81883  32.902   9.707  12.470
 9569W        W81884  23.642  42.983  11.903
 9570W        W81885  20.246   4.937  14.894
 9571W        W81886  23.671  20.608   1.325
 9572W        W81887  13.152  34.090  13.939
 9573W        W81888   5.409  19.685   4.240
 9574W        W81889  29.993  23.531   3.344
 9575W        W81890  10.734  26.659  14.802
 9576W        W81891  43.421  18.545  12.348
 9577W        W81892  31.931  27.530  13.497
 9578W        W81893  23.603  29.973   4.121
 9579W        W81894  44.987  38.872  10.562
 9580W        W81895  21.126   1.884   1.283
 9581W        W81896  35.863   9.273  13.817
 9582W        W81897  10.665  22.155  13.370
 9583W        W81898  21.020   8.778  11.907
 9584W        W81899  35.388  17.216  12.879
 9585W        W81900   7.380   5.358  13.960
 9586W        W81901  10.667  34.561   1.402
 9587W        W81902  41.925  44.000  12.035
 9588W        W81903  33.546  36.940  10.583
 9589W        W81904   6.375  34.995   3.209
 9590W        W81905  29.028   5.802  11.019
 9591W        W81906  20.653  44.466  12.384
 9592W        W81907  17.582   6.805   4.296
 9593W        W81908   9.232  23.702  13.804
 9594W        W81909  23.500   1.959  13.496
 9595W        W81910  26.554   5.715   2.368
 9596W        W81911  25.144  18.767  10.436
 9597W        W81912  26.616   4.397  14.866
 9598W        W81913  25.982  19.645  14.476
 9599W        W81914   3.444  29.558   0.360
 9600W        W81915  11.193   6.859  12.386
 9601W        W81916  20.612  11.232  14.350
 9602W        W81917  42.443  19.774   4.146
 9603W        W81918  22.572   1.841   0.476
 9604W        W81919  31.558  43.452   3.302
 9605W        W81920   4.404   5.397   0.246
 9606W        W81921  22.682   6.403   1.297
 9607W        W81922   3.907   1.760  10.101
 9608W        W81923   8.279  14.797  12.538
 9609W        W81924   7.911  30.607  12.065
 9610W        W81925  33.082  15.787   2.215
 9611W        W81926   9.364   1.942   2.782
 9612W        W81927   8.742  41.932   1.366
 9613W        W81928  34.396  42.026  10.566
 9614W        W81929  33.930  39.374  10.967
 9615W        W81930  13.671  11.167   1.877
 9616W        W81931  32.510  36.355  11.103
 9617W        W81932   9.335  24.047  12.925
 9618W        W81933  18.063   4.733  13.396
 9619W        W81934  23.165  43.955  12.916
 9620W        W81935   5.307  22.687   0.768
 9621W        W81936  24.215  24.547   3.166
 9622W        W81937  34.029  31.142  14.299
 9623W        W81938  11.867  28.018  10.564
 9624W        W81939  16.795  27.048  14.916
 9625W        W81940  16.218  40.864  13.381
 9626W        W81941  37.058   1.248   0.887
 9627W        W81942   0.908  27.451   2.722
 9628W        W81943  14.671  21.182  13.421
 9629W        W81944  43.500  18.214  13.487
 9630W        W81945   4.336   0.493   3.190
 9631W        W81946  25.480  13.812  11.124
 9632W        W81947  28.987   2.307   4.215
 9633W        W81948  30.498   5.909  14.370
 9634W        W81949  41.421  43.427   0.467
 9635W        W81950  15.716  22.562   2.349
 9636W        W81951   9.665  13.322   1.933
 9637W        W81952  13.671   1.953  12.921
 9638W        W81953   6.783   1.751  14.330
 9639W        W81954  25.192  30.456   1.383
 9640W        W81955  22.034  37.068  12.421
 9641W        W81956   2.241  20.171   4.727
 9642W        W81957  30.935  15.199   1.369
 9643W        W81958  16.619  29.547   2.262
 9644W        W81959  39.986  13.262   3.241
 9645W        W81960  44.388  37.907  14.863
 9646W        W81961  15.301  16.164   2.373
 9647W        W81962  23.016  12.673   1.379
 9648W        W81963  22.046  32.471   2.775
 9649W        W81964  38.925   4.227   4.178
 9650W        W81965  42.825  26.470   1.932
 9651W        W81966  12.204  44.010  12.416
 9652W        W81967  30.501  20.569  11.439
 9653W        W81968   1.378  26.529   1.361
 9654W        W81969  34.988   4.898  12.029
 9655W        W81970  24.711  38.536  13.547
 9656W        W81971  16.127  28.675   0.257
 9657W        W81972  11.654  16.189  10.160
 9658W        W81973  16.707  28.938  13.315
 9659W        W81974   8.387  40.325   0.326
 9660W        W81975  32.026  12.320  11.040
 9661W        W81976  12.354  37.055  13.364
 9662W        W81977  22.210   9.863  14.943
 9663W        W81978   6.368  19.202  14.308
 9664W        W81979  30.421  37.430  14.501
 9665W        W81980  15.740  41.827   5.091
 9666W        W81981  19.697  27.036  11.571
 9667W        W81982  43.004  34.049  12.966
 9668W        W81983  36.099  10.732   3.185
 9669W        W81984  33.525   9.310  14.890
 9670W        W81985  17.741  21.620  11.941
 9671W        W81986  25.970  40.536   0.352
 9672W        W81987  33.421  43.450  11.950
 9673W        W81988  31.518  44.864  10.584
 9674W        W81989  16.310  18.636  14.445
 9675W        W81990  38.377  14.264  12.341
 9676W        W81991  19.276  24.021   1.862
 9677W        W81992  24.584  31.053  13.973
 9678W        W81993  23.233  43.897  14.963
 9679W        W81994  42.420  41.990   3.822
 9680W        W81995  32.106  31.108  12.088
 9681W        W81996   0.385  17.264   2.388
 9682W        W81997  26.592  31.945   5.664
 9683W        W81998   3.312  38.413   4.187
 9684W        W81999  18.777  27.047  14.992
 9685W        W82000  39.517  34.906  10.988
 9686W        W82001  10.806  27.117  10.536
 9687W        W82002  22.030   6.400  11.079
 9688W        W82003  13.340  26.688  10.118
 9689W        W82004  36.941  31.580   3.670
 9690W        W82005  32.998   2.748   2.273
 9691W        W82006  27.594  35.407  14.819
 9692W        W82007   0.452  38.429   3.851
 9693W        W82008  25.071  18.657   3.863
 9694W        W82009   2.248  32.531  14.304
 9695W        W82010  28.636   3.270   2.256
 9696W        W82011  34.051   4.713   3.822
 9697W        W82012   0.910  20.101  14.329
 9698W        W82013  33.572  15.609   0.276
 9699W        W82014  44.292  44.484  14.987
 9700W        W82015  38.521  26.999   5.139
 9701W        W82016  14.827   3.922  10.640
 9702W        W82017   4.300  11.664  10.580
 9703W        W82018  39.987  34.977   1.809
 9704W        W82019  26.485  42.457   2.269
 9705W        W82020  24.680  13.767  11.518
 9706W        W82021   8.795  32.406  14.860
 9707W        W82022  42.308  30.655   0.351
 9708W        W82023  35.079   5.818  13.883
 9709W        W82024  41.969  43.984   1.307
 9710W        W82025  25.011  32.012   4.681
 9711W        W82026  41.338  28.936  11.914
 9712W        W82027  29.569  22.532   0.325
 9713W        W82028  20.537  24.074   4.224
 9714W        W82029  20.664  38.916   4.318
 9715W        W82030  18.610   1.768   1.217
 9716W        W82031  23.083  35.450  12.407
 9717W        W82032  30.914   4.226  13.015
 9718W        W82033  14.222  40.038   1.441
 9719W        W82034  41.410  11.204   4.615
 9720W        W82035   0.353  16.194  11.079
 9721W        W82036  10.147  34.419   5.156
 9722W        W82037  39.942  37.887   2.221
 9723W        W82038  30.519  38.537  11.528
 9724W        W82039   0.938  38.556  13.448
 9725W        W82040   1.765  33.605   3.361
 9726W        W82041  19.652   6.365   1.271
 9727W        W82042  40.338  23.234   0.458
 9728W        W82043  10.844  40.438  13.859
 9729W        W82044  38.949  21.202   3.262
 9730W        W82045  12.236  36.568   4.332
 9731W        W82046   0.442  15.682   4.765
 9732W        W82047   6.345  22.052   1.333
 9733W        W82048  11.186   7.825   3.351
 9734W        W82049   4.944   6.784  10.410
 9735W        W82050  43.920  29.135  11.474
 9736W        W82051  23.505  27.091  14.403
 9737W        W82052  14.742  40.476   2.880
 9738W        W82053  44.420   1.766  10.002
 9739W        W82054  15.761  24.087  14.898
 9740W        W82055  33.045  40.815  14.487
 9741W        W82056  26.084  24.636   1.704
 9742W        W82057  23.524  23.041  13.995
 9743W        W82058  43.872  17.662   1.714
 9744W        W82059   3.837   0.984   1.778
 9745W        W82060  21.150  24.504   2.769
 9746W        W82061   2.840  12.205   4.681
 9747W        W82062  42.509  42.526   0.312
 9748W        W82063  40.907  14.630   3.741
 9749W        W82064  36.914  29.057  11.025
 9750W        W82065  41.323  26.205  12.431
 9751W        W82066  24.492  15.729  12.528
 9752W        W82067  28.174  41.420  10.125
 9753W        W82068  32.027  43.769   1.237
 9754W        W82069  13.122  11.757   4.201
 9755W        W82070  42.328  20.625   4.261
 9756W        W82071  17.601  44.783   1.701
 9757W        W82072  31.044  16.598   2.331
 9758W        W82073  44.470  37.992   0.733
 9759W        W82074  42.848   6.278  13.869
 9760W        W82075  21.124   9.699  11.420
 9761W        W82076  13.791  17.149  11.478
 9762W        W82077  32.887  43.321  12.478
 9763W        W82078  41.455   9.180  13.805
 9764W        W82079  42.427  13.748  13.485
 9765W        W82080   1.931  21.522  10.563
 9766W        W82081  10.832  40.800   4.766
 9767W        W82082   2.390  33.938  11.519
 9768W        W82083  27.688   3.320   0.945
 9769W        W82084  42.882  18.717  10.437
 9770W        W82085  13.781  25.141  14.759
 9771W        W82086  24.604  21.695   9.946
 9772W        W82087  13.822  12.177  11.972
 9773W        W82088  34.537  26.081   3.190
 9774W        W82089  12.150   4.297   1.715
 9775W        W82090  41.427   3.873  14.441
 9776W        W82091  42.431  27.145   4.679
 9777W        W82092  18.134  40.306  11.536
 9778W        W82093  16.125  14.750   2.746
 9779W        W82094  25.490  38.519  12.385
 9780W        W82095  20.104  44.420  12.552
 9781W        W82096  31.902  13.183   4.630
 9782W        W82097  24.566  30.632  12.549
 9783W        W82098  40.913  33.613  11.581
 9784W        W82099  29.925  30.531   4.626
 9785W        W82100  37.475   8.386  13.529
 9786W        W82101  25.488   5.741   1.931
 9787W        W82102  11.733  41.475   4.172
 9788W        W82103   2.943  42.902   1.895
 9789W        W82104   2.879   6.404  11.096
 9790W        W82105  13.130   6.812   0.944
 9791W        W82106  11.713  34.455   3.727
 9792W        W82107  41.537  34.613  14.394
 9793W        W82108   3.922  22.040  10.424
 9794W        W82109  11.330  15.236  13.345
 9795W        W82110  43.947  40.838  10.997
 9796W        W82111  22.146  10.340  14.306
 9797W        W82112  26.959  37.867  14.921
 9798W        W82113   7.885   4.334   2.376
 9799W        W82114   9.756  40.403   3.276
 9800W        W82115  44.921  43.952   2.272
 9801W        W82116  25.068  40.309   0.351
 9802W        W82117  12.641   3.444   4.205
 9803W        W82118  38.502  33.094  14.333
 9804W        W82119   6.801  21.247   2.901
 9805W        W82120  15.609  29.529  13.005
 9806W        W82121  38.046  43.281  11.571
 9807W        W82122  20.142  14.618  14.940
 9808W        W82123  26.687  12.808   2.808
 9809W        W82124  41.375  33.129   1.263
 9810W        W82125   7.337   8.232   4.113
 9811W        W82126  24.711  17.206   2.364
 9812W        W82127  26.191  20.691  14.877
 9813W        W82128   3.227  11.355  10.500
 9814W        W82129  26.558   8.822   0.888
 9815W        W82130  26.625  15.593  14.770
 9816W        W82131  29.003  27.943  14.964
 9817W        W82132  27.450  17.559   1.338
 9818W        W82133  30.015  18.568   2.807
 9819W        W82134  10.240  30.430   1.888
 9820W        W82135  28.085  31.939  11.896
 9821W        W82136   0.743   0.340  10.495
 9822W        W82137   3.888  38.053   4.668
 9823W        W82138  32.938  33.027  14.293
 9824W        W82139   5.872  13.713   2.882
 9825W        W82140  26.617  34.936   1.355
 9826W        W82141  32.441   1.436   4.220
 9827W        W82142  32.893  16.615  13.334
 9828W        W82143   0.461   9.698   2.356
 9829W        W82144  11.155  30.531   1.869
 9830W        W82145   6.726   8.775   2.223
 9831W        W82146  12.791  18.172  10.977
 9832W        W82147  21.206   1.454  13.932
 9833W        W82148  34.007  27.000   2.376
 9834W        W82149  18.657  19.259  10.584
 9835W        W82150   2.907  27.979   2.393
 9836W        W82151   8.391  17.165   2.217
 9837W        W82152  27.068  28.458   3.241
 9838W        W82153   9.776   7.229  11.014
 9839W        W82154  40.960  31.555  14.899
 9840W        W82155  41.412   9.280   2.211
 9841W        W82156  16.305  22.117  11.938
 9842W        W82157  19.057  13.619  11.988
 9843W        W82158  33.542  14.685   3.771
 9844W        W82159  14.199  23.089  10.588
 9845W        W82160  22.100  39.407   0.407
 9846W        W82161  28.441  16.167   4.263
 9847W        W82162  15.192  23.222   4.722
 9848W        W82163  22.237  37.407   4.705
 9849W        W82164  32.524  43.485  10.936
 9850W        W82165  40.439  28.976  14.394
 9851W        W82166   0.258   0.773  13.388
 9852W        W82167  22.055  23.531  14.799
 9853W        W82168  17.277   7.802   0.757
 9854W        W82169  35.079   3.383   0.325
 9855W        W82170  19.595  17.601  13.027
 9856W        W82171   5.349  14.698  12.520
 9857W        W82172  36.921  14.205   2.747
 9858W        W82173   4.864  22.162  12.096
 9859W        W82174  13.200  17.204   2.749
 9860W        W82175   5.377   3.376   3.175
 9861W        W82176  17.247  40.471  10.555
 9862W        W82177  26.512   4.416   5.796
 9863W        W82178   5.929  21.671   4.747
 9864W        W82179   0.265   3.911  14.356
 9865W        W82180  28.042  12.682   1.713
 9866W        W82181  39.369  28.087   2.749
 9867W        W82182  39.431   3.336  13.979
 9868W        W82183  19.165  26.994  10.987
 9869W        W82184   1.771  37.854  10.597
 9870W        W82185  28.981   0.833  11.936
 9871W        W82186   8.349  30.534   4.785
 9872W        W82187  11.744   5.853   1.775
 9873W        W82188  34.935  11.158  12.028
 9874W        W82189  39.496  20.181   1.275
 9875W        W82190  32.584  21.101  13.956
 9876W        W82191   3.343  15.788  10.956
 9877W        W82192   9.819  17.263  10.595
 9878W        W82193   3.827  34.390  12.988
 9879W        W82194  17.754  37.363  14.026
 9880W        W82195  18.217  27.668   4.787
 9881W        W82196  35.911  28.096  12.978
 9882W        W82197  30.048  28.595  13.415
 9883W        W82198  32.003   7.797   2.887
 9884W        W82199   0.838  28.947   2.765
 9885W        W82200  38.411  37.510   3.730
 9886W        W82201  12.842   5.841  10.528
 9887W        W82202  35.501  25.646  11.868
 9888W        W82203  44.447  28.130  13.801
 9889W        W82204   0.260  42.898   1.333
 9890W        W82205   1.932  27.619   2.714
 9891W        W82206  33.387  37.921  10.905
 9892W        W82207  21.125   3.881   0.730
 9893W        W82208   7.729  11.784   4.763
 9894W        W82209   7.312  36.394  10.453
 9895W        W82210  41.792  27.143   2.677
 9896W        W82211  19.120   6.834   1.268
 9897W        W82212  13.687   6.830  11.944
 9898W        W82213   3.424   8.669   0.365
 9899W        W82214  35.878  20.224   4.182
 9900W        W82215  43.844   5.426   3.793
 9901W        W82216  27.464  12.124  10.588
 9902W        W82217  31.074  31.079  13.332
 9903W        W82218   6.375  27.476  11.042
 9904W        W82219  17.300  38.917   3.187
 9905W        W82220  22.620  22.560   0.854
 9906W        W82221  23.588  44.865  14.009
 9907W        W82222  10.817   7.906   3.197
 9908W        W82223   2.900  39.340  12.524
 9909W        W82224  17.216  38.966  14.463
 9910W        W82225  42.870  13.611  14.386
 9911W        W82226  28.166  12.319   3.341
 9912W        W82227  28.107   7.777   1.315
 9913W        W82228  27.502  30.101  13.518
 9914W        W82229  29.544  29.173   3.200
 9915W        W82230  28.610  15.314   3.376
 9916W        W82231  28.642   9.379   2.889
 9917W        W82232  28.053   2.902  13.435
 9918W        W82233  16.624  13.186  12.991
 9919W        W82234  13.780  44.836   1.409
 9920W        W82235   0.858  28.468  10.501
 9921W        W82236  30.135  22.126  10.540
 9922W        W82237  11.340   4.336   1.427
 9923W        W82238  16.242  25.054   4.827
 9924W        W82239   9.307  34.016   3.218
 9925W        W82240  29.980  41.390  14.008
 9926W        W82241  25.145   9.165   3.253
 9927W        W82242  29.037  39.936  12.404
 9928W        W82243  33.926  20.651   1.902
 9929W        W82244  24.191  29.605   0.905
 9930W        W82245  44.350  16.276   1.865
 9931W        W82246   0.449  27.541  11.434
 9932W        W82247  25.628   0.421   1.714
 9933W        W82248  40.889   1.958  14.299
 9934W        W82249  40.047   9.366  10.406
 9935W        W82250   5.786  40.521   3.650
 9936W        W82251  35.064  24.021   2.284
 9937W        W82252  31.918  10.643   0.757
 9938W        W82253  21.205   1.877   4.224
 9939W        W82254  31.419  13.835   4.348
 9940W        W82255   9.889  25.011   1.329
 9941W        W82256  42.896  29.431   2.356
 9942W        W82257  14.615   1.839  10.911
 9943W        W82258  42.392  12.164  12.409
 9944W        W82259  42.923  36.956  14.438
 9945W        W82260  22.519  39.929  14.825
 9946W        W82261   1.887  14.688   2.410
 9947W        W82262  43.921  15.591   5.272
 9948W        W82263  20.087  38.948   1.399
 9949W        W82264  20.609  44.378  11.459
 9950W        W82265  21.062   2.906  13.966
 9951W        W82266  29.667  37.386   0.789
 9952W        W82267   2.249  44.445   1.834
 9953W        W82268  39.519  35.535   2.789
 9954W        W82269  30.568   1.254  11.070
 9955W        W82270   2.790  37.483  10.931
 9956W        W82271   7.361   9.208   0.373
 9957W        W82272  20.589   1.314   2.894
 9958W        W82273   9.678  16.635   5.742
 9959W        W82274  36.425  38.833  14.349
 9960W        W82275   9.207  12.238  14.496
 9961W        W82276  14.200  21.592  11.982
 9962W        W82277  21.646  39.463   0.251
 9963W        W82278  30.161  40.011  14.286
 9964W        W82279  10.148  16.095  10.505
 9965W        W82280  24.606  14.207  13.468
 9966W        W82281  13.760   5.316  12.861
 9967W        W82282  16.271  39.033   0.272
 9968W        W82283  33.470   7.229  14.912
 9969W        W82284  26.608  44.396   3.821
 9970W        W82285  23.155  36.066  14.775
 9971W        W82286  43.459   1.436   1.323
 9972W        W82287  13.823  34.012  12.421
 9973W        W82288  36.049  26.668  10.555
 9974W        W82289   6.314  17.226  13.540
 9975W        W82290  28.499  23.180  10.492
 9976W        W82291  34.403   6.349   0.929
 9977W        W82292  18.788   2.819  10.448
 9978W        W82293  15.249  36.514   4.763
 9979W        W82294  40.496   4.844   3.691
 9980W        W82295  24.131  32.566  12.924
 9981W        W82296  30.642  25.533  11.861
 9982W        W82297  13.351  22.734  13.871
 9983W        W82298  29.468  34.103   2.847
 9984W        W82299  15.666  41.448   1.752
 9985W        W82300  38.442  10.713  11.511
 9986W        W82301  15.676  23.112  11.060
 9987W        W82302   6.690   7.348   3.179
 9988W        W82303  27.482  25.611   0.726
 9989W        W82304   8.873  43.931  13.825
 9990W        W82305   7.172  18.104  13.519
 9991W        W82306  38.038   0.472   4.743
 9992W        W82307  40.466  23.054   2.847
 9993W        W82308  32.558  18.596  11.878
 9994W        W82309  16.100  41.904   4.170
 9995W        W82310  12.710  26.478   0.342
 9996W        W82311  43.388  25.500  14.510
 9997W        W82312  16.263  36.908  10.418
 9998W        W82313  30.943  21.584  12.572
 9999W        W82314  33.032  25.173   3.743
10000W        W82315   9.370  24.230  11.877
10001W        W82316  16.231  31.633   1.828
10002W        W82317   0.807  33.538  10.995
10003W        W82318  21.043  20.543   1.311
10004W        W82319  44.011  11.637  10.476
10005W        W82320  27.070   9.741   1.818
10006W        W82321  23.134  27.077  14.967
10007W        W82322  19.642  23.663  13.958
10008W        W82323   0.922  15.103   0.924
10009W        W82324  33.072  28.988   3.325
10010W        W82325   9.845   2.878   3.305
10011W        W82326  36.547   1.365  14.426
10012W        W82327   1.860  32.493   4.285
10013W        W82328  41.972  24.515  11.858
10014W        W82329  10.757   1.772   0.440
10015W        W82330  17.247  16.626  13.999
10016W        W82331  43.894  14.234   4.117
10017W        W82332   9.310  40.050  11.513
10018W        W82333  26.040   3.753   3.174
10019W        W82334   2.964  19.680  12.829
10020W        W82335   8.798  19.670  11.112
10021W        W82336  18.757  11.674  11.537
10022W        W82337   5.755  44.267   2.350
10023W        W82338  17.087  43.901  12.023
10024W        W82339  32.439   5.369  11.610
10025W        W82340  33.554  25.713  14.943
10026W        W82341  19.706   4.727   2.823
10027W        W82342  26.080   1.315   4.732
10028W        W82343   7.744  35.873  11.088
10029W        W82344  32.917  37.951   3.643
10030W        W82345  29.438  14.157  13.402
10031W        W82346   2.270  33.444   2.803
10032W        W82347  37.512  35.064   3.857
10033W        W82348   8.346   1.445  12.028
10034W        W82349   7.186  37.025   1.215
10035W        W82350   9.276  26.473  11.518
10036W        W82351  41.295  39.975  14.375
10037W        W82352  19.625  15.212   4.816
10038W        W82353  33.478   6.823  14.392
10039W        W82354  11.780  32.529   3.698
10040W        W82355   1.417  26.164   0.927
10041W        W82356  33.556   2.385   2.673
10042W        W82357   4.409  14.757  13.827
10043W        W82358  18.082  33.110   2.671
10044W        W82359  20.752  13.291   2.415
10045W        W82360  21.668   6.221   2.820
10046W        W82361  19.090   7.675   9.647
10047W        W82362  43.442  35.542   2.677
10048W        W82363  15.088  32.897  12.552
10049W        W82364   1.978  38.476   1.871
10050W        W82365  22.124  33.021  11.600
10051W        W82366   0.782  43.823  13.367
10052W        W82367  29.486  44.280   5.143
10053W        W82368  28.984  40.521  13.792
10054W        W82369  18.702   1.271   3.832
10055W        W82370  13.337  11.744  10.477
10056W        W82371   9.254   5.797   2.346
10057W        W82372  16.165   4.255   4.606
10058W        W82373  28.598  26.119   1.913
10059W        W82374  10.196  20.074   2.722
10060W        W82375  24.182  25.182  10.479
10061W        W82376  32.553  10.263  10.614
10062W        W82377  42.472  23.690  11.514
10063W        W82378  13.301  23.999   4.669
10064W        W82379  30.613  39.966   3.384
10065W        W82380  14.109  41.418   0.767
10066W        W82381  17.180  40.942  11.102
10067W        W82382  35.531  34.076  13.532
10068W        W82383   5.224  23.079   4.701
10069W        W82384  32.946  35.099  14.996
10070W        W82385  36.585  39.495  13.028
10071W        W82386  22.144  25.976   0.263
10072W        W82387  19.182  21.099  10.160
10073W        W82388  41.819   6.386   3.824
10074W        W82389  37.537  19.765  11.098
10075W        W82390  26.046  34.067   9.478
10076W        W82391  17.657  17.298  11.389
10077W        W82392  38.418  36.514  10.923
10078W        W82393   2.829  28.969  14.843
10079W        W82394  44.946  30.443   4.738
10080W        W82395  20.066  34.499   2.190
10081W        W82396  39.064  36.988   4.606
10082W        W82397  22.210  37.448  11.865
10083W        W82398  33.881  29.932   0.331
10084W        W82399  15.153  29.160  10.965
10085W        W82400  20.128  12.202  10.583
10086W        W82401  16.227  38.069   2.807
10087W        W82402   7.854  17.091   4.755
10088W        W82403  31.495  28.589  13.025
10089W        W82404  28.034   8.344   0.470
10090W        W82405  24.198  26.084   3.271
10091W        W82406  43.429  30.445   4.678
10092W        W82407  21.722  11.866   9.974
10093W        W82408  35.895   0.350   0.918
10094W        W82409  14.594  12.314   2.211
10095W        W82410   3.737  30.610   3.359
10096W        W82411  39.530  32.404   1.256
10097W        W82412  37.409   9.806   2.362
10098W        W82413  20.061  31.016   1.857
10099W        W82414  20.764  23.186   4.608
10100W        W82415  12.121  27.673   0.441
10101W        W82416  11.222  29.496   3.683
10102W        W82417  40.973  14.822  11.958
10103W        W82418  10.299  44.842   3.749
10104W        W82419  25.057  20.033   1.850
10105W        W82420  14.706  41.831  12.843
10106W        W82421  15.733  27.584   2.215
10107W        W82422  42.023   3.835  12.999
10108W        W82423  21.154  18.714   1.287
10109W        W82424  33.950  24.039  13.819
10110W        W82425  18.624  28.040  14.310
10111W        W82426   4.358   9.645   4.799
10112W        W82427  29.103  30.477   2.758
10113W        W82428  33.433  31.006  12.565
10114W        W82429  38.448  40.525  12.570
10115W        W82430  15.192  43.462   2.329
10116W        W82431  40.342   7.741   0.798
10117W        W82432  23.507  25.636  12.376
10118W        W82433   0.398  27.037   3.711
10119W        W82434  20.662  28.581   1.420
10120W        W82435  35.856   5.793   3.158
10121W        W82436  40.891  24.072   4.312
10122W        W82437  13.303   1.312   0.742
10123W        W82438  21.075  26.198   2.757
10124W        W82439  25.548  21.529   4.198
10125W        W82440  37.362  32.499  11.095
10126W        W82441  12.757  44.494   4.650
10127W        W82442   2.294  11.816  12.429
10128W        W82443  40.523  26.519  11.005
10129W        W82444  44.393  37.353   5.135
10130W        W82445  26.682  40.544  10.483
10131W        W82446  22.549   4.708  11.456
10132W        W82447   1.274  41.297   2.848
10133W        W82448   1.864  36.945   0.857
10134W        W82449  20.202   2.376  12.090
10135W        W82450  41.529  32.602   2.835
10136W        W82451  17.238   5.897  10.467
10137W        W82452  15.800  37.441   9.998
10138W        W82453  22.188   5.288   4.736
10139W        W82454  11.187  14.310   4.715
10140W        W82455  14.322  21.528  12.894
10141W        W82456  24.580  12.856   4.748
10142W        W82457  43.346  22.734  12.467
10143W        W82458  13.679   6.225   3.702
10144W        W82459  28.141   9.808   4.336
10145W        W82460   7.777   9.868  14.984
10146W        W82461  39.480  36.420  10.538
10147W        W82462  25.616   5.764   3.850
10148W        W82463   0.350  18.660  14.355
10149W        W82464  37.080  36.928  13.831
10150W        W82465  19.272  33.964  10.925
10151W        W82466   1.757   8.683  14.494
10152W        W82467   3.308  15.127  11.507
10153W        W82468  22.171  21.597   4.290
10154W        W82469  19.625  21.215   2.391
10155W        W82470  29.521  23.705   9.935
10156W        W82471  44.937  14.717  11.049
10157W        W82472  37.054   8.680  12.881
10158W        W82473   6.414  17.165   5.152
10159W        W82474   7.697  40.419  13.870
10160W        W82475  12.312  13.264  14.796
10161W        W82476   5.409  32.495  14.764
10162W        W82477  42.374   6.272  12.439
10163W        W82478  32.446  23.654   1.303
10164W        W82479  27.648  39.949   2.764
10165W        W82480  15.687  28.183  10.630
10166W        W82481  29.919  44.999   1.242
10167W        W82482  22.098  27.978  13.539
10168W        W82483   6.901  41.394  11.927
10169W        W82484  30.017  22.159   4.693
10170W        W82485   0.290  32.474  12.492
10171W        W82486  40.921  26.665   4.333
10172W        W82487  21.028  22.504  11.921
10173W        W82488  38.377  22.231  13.949
10174W        W82489  35.042  27.560  14.843
10175W        W82490   5.333  31.897   4.619
10176W        W82491  33.958  39.425  12.364
10177W        W82492   0.837  42.356  10.453
10178W        W82493   2.308   8.178  12.341
10179W        W82494   4.368  22.587  12.385
10180W        W82495  23.674  13.280  11.082
10181W        W82496  39.519  42.428   0.950
10182W        W82497   3.731  20.246  12.856
10183W        W82498   2.312  39.022   2.230
10184W        W82499  19.743  42.939  10.524
10185W        W82500  38.449  38.421  12.083
10186W        W82501  29.135  25.003  14.957
10187W        W82502   9.296  16.218  11.547
10188W        W82503  23.703  36.372  13.940
10189W        W82504  12.316   3.953   1.719
10190W        W82505   5.207  28.554   0.290
10191W        W82506  29.071  37.933   2.798
10192W        W82507  16.319  20.164   4.750
10193W        W82508  22.591  33.546   2.895
10194W        W82509   9.788   2.429  10.992
10195W        W82510   2.724  30.008  10.448
10196W        W82511  16.740  36.441   2.267
10197W        W82512  41.414  42.931  12.975
10198W        W82513  18.630  41.955  10.945
10199W        W82514  26.095   0.833   3.759
10200W        W82515  21.134  43.354   0.733
10201W        W82516  12.322  22.164  10.975
10202W        W82517  42.775  15.765  12.339
10203W        W82518   4.717  26.618   1.222
10204W        W82519   4.900  40.465   3.711
10205W        W82520  36.494  35.573   4.193
10206W        W82521   5.764  35.871  12.350
10207W        W82522  31.122  17.725  13.506
10208W        W82523   3.725  36.035  12.427
10209W        W82524  43.895   3.343  12.379
10210W        W82525   9.645  37.462  14.908
10211W        W82526   1.347  22.182   2.208
10212W        W82527  17.603  16.784   0.290
10213W        W82528  28.134  29.437  10.611
10214W        W82529  42.873  15.804   5.207
10215W        W82530  30.543   3.382   0.300
10216W        W82531  37.909  11.856   1.222
10217W        W82532   0.894   9.342  12.890
10218W        W82533  42.848  22.668   3.668
10219W        W82534  25.641  30.413   3.286
10220W        W82535  21.563  36.060   0.462
10221W        W82536  37.029  25.587  13.925
10222W        W82537   3.461  43.840  14.315
10223W        W82538  36.898  11.683  13.028
10224W        W82539   1.888  15.653  12.404
10225W        W82540   9.839   2.815  13.889
10226W        W82541  16.689  28.491   1.242
10227W        W82542  41.366   5.929   4.694
10228W        W82543  14.705  32.940   4.224
10229W        W82544  10.163   3.301  14.824
10230W        W82545   2.824  36.859   2.850
10231W        W82546  22.619  32.948  13.351
10232W        W82547  11.754  31.937  13.986
10233W        W82548   8.834   8.326   0.895
10234W        W82549  18.791  22.195  11.391
10235W        W82550  22.520  17.179   3.662
10236W        W82551  20.110  41.897   2.673
10237W        W82552  10.162  26.000   9.975
10238W        W82553  35.859  29.617   1.220
10239W        W82554  18.218  16.073  13.466
10240W        W82555  39.888  20.683  11.384
10241W        W82556  30.150  14.740   2.219
10242W        W82557   4.356  38.921  11.001
10243W        W82558  15.282  23.217   3.801
10244W        W82559  33.522  40.311   3.743
10245W        W82560  31.468  22.662   0.330
10246W        W82561  11.303  18.676   1.228
10247W        W82562  28.453  41.031   2.716
10248W        W82563  42.394  36.582  10.891
10249W        W82564  36.995   7.774   0.474
10250W        W82565  28.574  32.501   2.407
10251W        W82566  24.134  40.510  14.025
10252W        W82567  41.309  22.060  10.939
10253W        W82568  39.866   7.726   2.687
10254W        W82569  11.797  11.651  14.417
10255W        W82570  37.922  40.045   2.888
10256W        W82571  28.046   0.390   3.831
10257W        W82572   7.171   5.799   4.267
10258W        W82573  25.987  33.099  11.122
10259W        W82574  36.592  41.409  12.545
10260W        W82575  26.628  14.812  13.983
10261W        W82576   9.860  30.031  11.416
10262W        W82577  14.166  35.105   1.773
10263W        W82578  39.910  24.055  14.949
10264W        W82579  25.581   7.733   1.865
10265W        W82580  39.323  34.865   2.235
10266W        W82581  13.226   8.849   0.409
10267W        W82582  18.149  15.221   0.896
10268W        W82583  28.594  30.477  12.988
10269W        W82584  22.533  20.097  13.357
10270W        W82585  42.514  35.493  13.527
10271W        W82586  15.751   1.376   4.779
10272W        W82587  30.062  11.653  12.558
10273W        W82588  26.577  16.792   2.902
10274W        W82589  22.593  15.683  10.896
10275W        W82590  33.066  29.499  11.071
10276W        W82591  37.340  40.366   0.922
10277W        W82592  39.834  34.074  14.814
10278W        W82593  35.458  21.102   2.366
10279W        W82594  36.571  13.778   2.677
10280W        W82595  44.299  11.718  13.311
10281W        W82596   7.678  27.457   0.829
10282W        W82597  41.869  20.159  11.505
10283W        W82598  36.491  28.632   1.277
10284W        W82599   2.266  41.021   4.813
10285W        W82600  38.925  33.915  11.116
10286W        W82601  23.141   1.350  14.841
10287W        W82602  43.816  30.559   3.825
10288W        W82603  42.975   0.298   2.898
10289W        W82604  35.444  13.248   3.640
10290W        W82605  39.028  11.336   3.220
10291W        W82606  28.937  10.273  11.494
10292W        W82607  24.601  13.171  13.882
10293W        W82608  25.071   0.746   0.881
10294W        W82609  41.401   0.448   3.675
10295W        W82610  39.864  20.681  13.900
10296W        W82611  24.617   4.842   0.819
10297W        W82612  23.640   5.708  11.420
10298W        W82613  39.540  12.291   4.314
10299W        W82614  33.591  39.539   1.885
10300W        W82615   9.673  38.408  10.481
10301W        W82616  19.743   9.694  13.925
10302W        W82617  39.895  10.346   0.849
10303W        W82618   5.348  38.338   1.282
10304W        W82619  44.904  17.690  12.015
10305W        W82620  18.082  41.026  10.443
10306W        W82621  36.549  19.177   0.824
10307W        W82622  21.736  23.660   1.358
10308W        W82623  37.865  37.061   1.756
10309W        W82624  36.467  33.037  10.981
10310W        W82625  27.618  31.549  14.509
10311W        W82626   5.902  12.632   2.236
10312W        W82627  13.315  28.006   2.801
10313W        W82628  26.691  40.530  11.921
10314W        W82629  40.326   4.857   0.381
10315W        W82630  31.024  43.270   2.838
10316W        W82631  27.595  22.060   3.367
10317W        W82632  33.903  25.048  13.946
10318W        W82633   1.453   4.372   0.255
10319W        W82634   6.264  30.931  14.288
10320W        W82635  10.162  15.587   1.833
10321W        W82636  34.593   9.886   4.608
10322W        W82637  37.877   9.835  11.896
10323W        W82638  38.454  43.846  11.007
10324W        W82639  12.240  21.631  12.477
10325W        W82640  27.042  16.316  13.339
10326W        W82641  36.444  38.477   1.406
10327W        W82642  23.100  29.079  11.866
10328W        W82643  17.667  34.525   2.186
10329W        W82644   6.344  26.969   0.843
10330W        W82645  38.343  43.931  12.516
10331W        W82646  29.483  12.191   0.395
10332W        W82647  22.698  42.999  14.774
10333W        W82648   4.783  30.644   1.821
10334W        W82649  29.452  28.113  11.474
10335W        W82650  13.734  17.568   1.833
10336W        W82651  22.252  14.701  10.460
10337W        W82652  38.487  26.585  14.928
10338W        W82653  16.736  23.707  10.953
10339W        W82654   5.869   4.727   0.770
10340W        W82655  31.555   1.809   3.858
10341W        W82656  10.143  17.111   3.351
10342W        W82657  14.810  30.479   2.208
10343W        W82658   4.824   8.723  12.347
10344W        W82659  43.343  28.134   3.671
10345W        W82660   9.711  24.228   3.197
10346W        W82661   3.711  37.928  13.900
10347W        W82662  11.751  17.080  14.288
10348W        W82663  17.593   8.786  14.963
10349W        W82664   7.763  14.755  13.538
10350W        W82665  40.982  29.540   0.877
10351W        W82666  39.911  13.789  14.347
10352W        W82667  34.996  43.325  10.516
10353W        W82668  23.598   6.822  10.406
10354W        W82669  36.574   8.691  12.363
10355W        W82670  38.900  37.935  12.865
10356W        W82671   8.171  38.552   3.762
10357W        W82672  11.146  27.531  11.989
10358W        W82673  40.316  10.155   2.402
10359W        W82674  42.975  13.134   4.352
10360W        W82675  12.692  39.379   3.688
10361W        W82676  16.271   1.415  11.011
10362W        W82677   6.795  16.111  14.831
10363W        W82678  11.301   8.281  14.450
10364W        W82679  22.552   2.759   2.855
10365W        W82680  37.974  15.617  14.361
10366W        W82681  30.123   0.868   4.191
10367W        W82682  43.325  15.210   3.237
10368W        W82683  41.884   5.404   0.352
10369W        W82684  26.697   9.843   0.740
10370W        W82685  11.683  41.304   1.302
10371W        W82686  21.588  37.037  14.895
10372W        W82687  21.226  32.549   3.745
10373W        W82688  26.618   0.746   1.711
10374W        W82689   7.828  44.909  12.569
10375W        W82690  30.465  20.697  13.397
10376W        W82691  18.107  22.566   4.305
10377W        W82692  35.094  44.940   3.755
10378W        W82693  14.828  20.114  11.482
10379W        W82694   1.738  24.498   4.787
10380W        W82695   8.249  35.433   1.912
10381W        W82696   3.315  44.375   3.635
10382W        W82697   3.800  20.081  11.508
10383W        W82698  27.459  20.554   4.280
10384W        W82699  24.647  44.964  12.400
10385W        W82700   6.733  34.891   1.342
10386W        W82701   4.341  32.101   0.437
10387W        W82702  29.651  34.069  13.475
10388W        W82703  41.882  23.710   2.178
10389W        W82704  38.916  35.903  13.444
10390W        W82705  35.404   3.826  11.081
10391W        W82706  12.292  28.590   4.345
10392W        W82707  24.185  35.994   4.177
10393W        W82708  21.207   8.693   2.199
10394W        W82709  25.080   5.196   3.851
10395W        W82710  40.905   8.753   3.190
10396W        W82711  35.399   3.451   0.373
10397W        W82712  20.122  26.556  10.634
10398W        W82713   7.713  17.743  12.026
10399W        W82714  23.501  31.469  14.871
10400W        W82715   4.237  14.828   1.266
10401W        W82716   1.778   4.914  12.421
10402W        W82717   6.277  34.991  14.030
10403W        W82718   4.861  27.002  11.998
10404W        W82719   4.859  43.913   4.144
10405W        W82720  44.298  37.433  14.987
10406W        W82721   1.477  40.546  14.876
10407W        W82722  10.815   9.742   2.765
10408W        W82723   0.256  10.737   0.418
10409W        W82724  25.086  19.593   2.374
10410W        W82725  22.579  13.730   4.257
10411W        W82726  40.526  35.858   1.355
10412W        W82727   6.695  17.648  13.864
10413W        W82728   8.245  37.480  14.851
10414W        W82729  22.521  42.297   4.720
10415W        W82730  43.342  37.336   4.685
10416W        W82731  23.188   8.346  14.390
10417W        W82732  37.533  28.676   1.390
10418W        W82733  43.400   1.325   2.850
10419W        W82734  28.566  35.382  14.509
10420W        W82735  18.268  43.997   1.914
10421W        W82736   6.401  30.087   1.709
10422W        W82737  42.452  10.694   2.196
10423W        W82738  18.652  11.683   2.746
10424W        W82739   9.771  27.177  14.460
10425W        W82740  40.833   6.402   0.416
10426W        W82741  24.551  25.075   2.341
10427W        W82742  18.773  43.373   3.711
10428W        W82743  43.769  41.484   0.438
10429W        W82744  14.730  19.686   1.281
10430W        W82745  25.016  11.168   3.339
10431W        W82746  34.881  11.839   1.833
10432W        W82747  40.022  17.109   2.900
10433W        W82748  36.924  38.041  13.038
10434W        W82749  19.679  26.693   2.241
10435W        W82750   5.214   0.769  14.450
10436W        W82751  43.278  33.910  10.929
10437W        W82752  33.456  38.874   4.313
10438W        W82753  18.263   2.435  11.388
10439W        W82754  22.615   1.762   9.976
10440W        W82755  43.446  14.740  12.353
10441W        W82756  30.014  44.400   2.340
10442W        W82757  42.470  18.290   3.358
10443W        W82758  44.848  36.437   9.958
10444W        W82759  41.424  25.022  12.907
10445W        W82760  42.894  44.954   3.763
10446W        W82761  21.579  27.674   3.868
10447W        W82762  43.389  27.635   1.307
10448W        W82763   2.807  34.377   3.302
10449W        W82764  34.880  42.860   4.672
10450W        W82765  15.314  27.020  11.516
10451W        W82766  44.778  42.396   1.902
10452W        W82767   6.714  24.196   1.813
10453W        W82768  10.347  16.292   0.324
10454W        W82769   3.777  10.703   2.313
10455W        W82770  20.139  30.053  11.487
10456W        W82771  20.065   4.254   1.330
10457W        W82772   6.401   3.800   1.230
10458W        W82773  35.968   1.918   1.321
10459W        W82774   2.805   0.958   3.173
10460W        W82775  16.588   9.687   3.173
10461W        W82776  34.948   3.410   2.403
10462W        W82777  35.889  10.180   3.815
10463W        W82778  37.352  19.109  14.975
10464W        W82779  22.148   4.739   3.318
10465W        W82780  42.439  21.581   3.666
10466W        W82781  41.460  32.061  14.025
10467W        W82782   8.236  37.448   1.429
10468W        W82783   2.931  39.940  10.471
10469W        W82784  17.575  27.522   1.761
10470W        W82785  29.076  44.503   1.805
10471W        W82786  32.093   7.691  10.914
10472W        W82787   6.355   0.930   3.755
10473W        W82788  30.572  12.843  12.411
10474W        W82789   2.446  18.225   4.196
10475W        W82790   5.386  23.182   2.269
10476W        W82791  38.393  15.677   1.363
10477W        W82792  14.704  18.082   4.151
10478W        W82793  16.309  39.503   2.893
10479W        W82794   8.730  44.892  11.449
10480W        W82795   5.886  20.639   3.292
10481W        W82796   5.810  39.371   1.740
10482W        W82797   1.466  27.123   4.267
10483W        W82798  11.238  30.049   3.369
10484W        W82799  34.903   6.715  12.988
10485W        W82800  35.103  32.955  14.275
10486W        W82801   2.304  25.184  10.579
10487W        W82802   0.925   6.698   0.265
10488W        W82803  26.675  28.671  12.393
10489W        W82804  35.488   7.399  14.765
10490W        W82805  26.692  18.554   2.401
10491W        W82806  28.523  44.379   4.756
10492W        W82807  35.046   0.265  13.398
10493W        W82808  30.102   2.804   3.755
10494W        W82809  21.687  24.131   3.666
10495W        W82810  29.019  34.611  13.395
10496W        W82811  17.171   9.783  13.494
10497W        W82812  35.912  25.186  13.826
10498W        W82813  23.568  39.549  11.498
10499W        W82814   8.776   3.925  10.557
10500W        W82815   3.442  16.769  14.488
10501W        W82816   8.669  38.544  10.606
10502W        W82817  21.572   1.858  11.882
10503W        W82818  25.663  33.433  13.834
10504W        W82819  25.168  18.290   3.734
10505W        W82820   3.834  29.127  13.030
10506W        W82821  17.677   4.842  13.546
10507W        W82822  39.522  20.159  11.452
10508W        W82823  18.053  37.048   0.848
10509W        W82824   4.891  23.643  11.452
10510W        W82825  35.028  16.075   1.782
10511W        W82826  38.408  23.625  10.032
10512W        W82827  28.054   9.187   0.355
10513W        W82828  27.017  28.561   2.809
10514W        W82829  37.022   4.365   0.925
10515W        W82830  14.667   4.302   2.399
10516W        W82831  36.880  40.311   0.387
10517W        W82832  17.679   2.838  13.967
10518W        W82833  27.680  11.777   4.254
10519W        W82834   5.752  42.320  11.529
10520W        W82835  44.989  13.818  11.447
10521W        W82836   6.782  10.307   3.200
10522W        W82837  17.133  39.040   2.731
10523W        W82838  30.509   8.387   1.703
10524W        W82839   6.358  33.937   0.765
10525W        W82840  24.065   3.943   1.249
10526W        W82841  41.946  27.136  10.921
10527W        W82842  35.915  24.121   4.659
10528W        W82843   9.652   3.309   0.419
10529W        W82844   7.319  18.058   3.197
10530W        W82845   4.428  16.575  13.435
10531W        W82846  27.447  27.103  13.966
10532W        W82847  12.210  16.728   3.867
10533W        W82848  25.976  17.594   1.324
10534W        W82849  38.338  19.566  12.571
10535W        W82850  34.546  29.572   3.375
10536W        W82851  28.058  38.390   1.248
10537W        W82852  44.259  14.692   4.677
10538W        W82853  19.133  32.054   4.764
10539W        W82854  41.453  14.199  11.373
10540W        W82855   4.797  35.583   0.848
10541W        W82856  34.565  44.834  11.090
10542W        W82857  28.495   7.727   4.747
10543W        W82858  16.629   3.754  14.936
10544W        W82859  15.147  10.828   0.955
10545W        W82860  27.149  41.343  14.982
10546W        W82861  26.157   9.826   2.380
10547W        W82862  30.557  27.174   3.816
10548W        W82863   1.865  31.567  12.510
10549W        W82864  34.924  17.638  14.956
10550W        W82865   1.966  32.409   4.688
10551W        W82866   0.943   6.854  13.014
10552W        W82867  36.505  25.117  10.601
10553W        W82868  21.681  15.090   4.636
10554W        W82869  35.947  25.489  12.434
10555W        W82870   1.844  25.006  13.926
10556W        W82871   0.764  22.528   0.869
10557W        W82872  17.128  21.563  12.828
10558W        W82873  44.289   6.891   4.273
10559W        W82874  25.468  20.108   3.228
10560W        W82875  12.307   2.276  12.378
10561W        W82876  25.555  43.475   2.744
10562W        W82877  16.592  37.475   4.175
10563W        W82878  43.307   7.259  12.443
10564W        W82879  16.175  15.138  14.920
10565W        W82880  32.041  34.998  12.534
10566W        W82881   6.810  23.681   3.310
10567W        W82882  26.017   0.834  10.956
10568W        W82883  37.944  14.624   0.809
10569W        W82884   3.810  38.846  11.456
10570W        W82885  16.640   6.817   0.255
10571W        W82886  27.524  44.835   0.877
10572W        W82887   5.740  31.640  14.825
10573W        W82888  38.447   9.380  13.502
10574W        W82889  44.348  24.111  11.506
10575W        W82890  12.187   2.241  10.570
10576W        W82891  34.399   9.860  12.554
10577W        W82892  24.040  19.613  14.776
10578W        W82893  37.520  19.608  10.047
10579W        W82894  25.100  43.787   0.453
10580W        W82895  15.208  41.310  13.538
10581W        W82896  36.484  29.007   0.408
10582W        W82897  38.900   2.406  10.897
10583W        W82898   5.311  25.023   4.717
10584W        W82899   2.376  30.466   2.847
10585W        W82900  28.137  21.726   2.697
10586W        W82901   2.456  26.516   1.302
10587W        W82902  22.517  37.084   3.329
10588W        W82903  12.229  16.752   1.333
10589W        W82904  17.271  13.708  14.992
10590W        W82905  22.689  10.283  11.538
10591W        W82906   5.229  12.706  11.427
10592W        W82907  21.584   5.215   0.291
10593W        W82908  23.615  25.022  11.601
10594W        W82909  18.632  38.883  12.416
10595W        W82910  11.146  12.766  11.069
10596W        W82911  15.756  24.113  13.968
10597W        W82912   7.862  15.123  14.487
10598W        W82913  14.192  25.988   2.701
10599W        W82914  36.468  15.167   4.755
10600W        W82915  14.753  14.172   3.256
10601W        W82916   8.742   6.296  11.543
10602W        W82917  27.115   2.287  14.504
10603W        W82918   7.407  11.213  14.892
10604W        W82919  23.709  32.064  12.891
10605W        W82920  34.593   3.428   4.152
10606W        W82921   3.743  40.311  11.952
10607W        W82922  26.205   6.791   4.611
10608W        W82923  11.750  30.104   2.808
10609W        W82924  28.988  25.179  12.455
10610W        W82925  35.937  23.494   1.387
10611W        W82926  17.705  20.637   1.385
10612W        W82927  13.602  12.128  13.972
10613W        W82928  34.067  10.750  11.879
10614W        W82929  42.283  17.799   2.226
10615W        W82930  21.036  17.678   0.313
10616W        W82931   7.872   0.454   1.351
10617W        W82932  10.375   9.812   1.375
10618W        W82933  22.037   5.750   1.243
10619W        W82934   4.339  12.125  10.592
10620W        W82935  27.481  19.041   3.309
10621W        W82936  31.063  39.982   4.176
10622W        W82937   4.723  34.983   1.248
10623W        W82938   0.339  16.641   2.312
10624W        W82939   6.739  30.052  11.448
10625W        W82940  35.980  19.701  11.496
10626W        W82941  35.502   6.220  14.884
10627W        W82942  32.510  11.265   3.167
10628W        W82943  24.140  28.579  12.071
10629W        W82944   7.400  25.586   0.839
10630W        W82945  25.036  42.956  13.895
10631W        W82946  15.629  35.920  11.941
10632W        W82947  21.228   3.772   1.829
10633W        W82948  27.466   9.248  13.341
10634W        W82949  22.148  17.125   4.157
10635W        W82950  35.433   1.327   1.895
10636W        W82951   0.760  20.698  10.961
10637W        W82952   8.232  39.363  13.926
10638W        W82953  24.080  42.332   3.818
10639W        W82954   0.831  32.494  14.816
10640W        W82955  12.630   1.923  11.436
10641W        W82956   6.225  27.518   2.327
10642W        W82957   8.267   1.442  14.952
10643W        W82958   0.403  40.980   4.653
10644W        W82959  19.661  28.556  11.402
10645W        W82960  26.010   1.384  13.047
10646W        W82961   6.879  12.707  13.876
10647W        W82962  41.387  16.805  12.550
10648W        W82963  43.368   5.387  13.537
10649W        W82964  38.506  22.036   3.710
10650W        W82965  16.800  16.659   2.862
10651W        W82966  44.004  36.574   1.911
10652W        W82967  18.155  36.557   3.150
10653W        W82968  25.176   5.348   5.282
10654W        W82969  38.914   8.321   3.646
10655W        W82970  35.034   1.377   0.888
10656W        W82971  26.644  22.578  13.446
10657W        W82972  15.749  32.439   1.284
10658W        W82973  27.181   7.672   0.807
10659W        W82974  19.050  35.473  12.057
10660W        W82975  42.826  33.472   1.217
10661W        W82976  15.248  22.246  11.079
10662W        W82977  22.504  20.128   0.835
10663W        W82978   3.931  37.947  13.424
10664W        W82979   1.264  18.605  12.559
10665W        W82980  20.120  33.384   4.816
10666W        W82981  18.705  26.991  12.881
10667W        W82982  41.841  19.743  13.313
10668W        W82983  37.553  30.910   1.289
10669W        W82984  38.884  21.144   0.843
10670W        W82985  34.563  11.682   2.380
10671W        W82986  14.174   7.666   0.352
10672W        W82987  31.439  13.660   0.361
10673W        W82988  42.454  29.456   3.630
10674W        W82989  15.643  40.517  14.477
10675W        W82990  44.776  21.196   3.750
10676W        W82991  42.957  34.934  11.462
10677W        W82992  27.556  24.046  10.471
10678W        W82993  37.555   6.429   3.238
10679W        W82994   6.831   4.271   1.789
10680W        W82995  41.377   4.283  14.011
10681W        W82996  28.116  39.470  10.914
10682W        W82997  17.215   4.874  10.922
10683W        W82998   8.392   5.747   3.174
10684W        W82999   0.863  33.031  12.353
10685W        W83000   2.769  30.529  11.994
10686W        W83001  21.740  40.946  11.121
10687W        W83002  39.452   2.929  14.872
10688W        W83003  38.377  29.662  13.988
10689W        W83004  14.666   6.681  10.978
10690W        W83005  29.126  14.174  12.974
10691W        W83006  18.088   1.862   2.808
10692W        W83007  30.972  36.092   4.244
10693W        W83008  34.465  31.580  14.286
10694W        W83009  30.949   0.432  11.058
10695W        W83010  36.579  11.264   2.747
10696W        W83011   5.832  16.616   1.224
10697W        W83012  31.524  31.638  11.040
10698W        W83013  22.662   0.863  11.859
10699W        W83014  26.102  22.694   3.816
10700W        W83015  42.860  35.595   2.323
10701W        W83016  11.259  27.596  14.895
10702W        W83017  36.074  41.930  11.451
10703W        W83018  32.895  21.248   2.349
10704W        W83019  13.826  40.330  14.423
10705W        W83020  20.059  14.322   4.276
10706W        W83021  36.927  25.710   3.634
10707W        W83022   0.890  43.807  12.503
10708W        W83023  31.528  10.690   0.272
10709W        W83024  13.309  23.190   3.191
10710W        W83025  24.061  22.516   9.943
10711W        W83026   0.341  28.653  12.922
10712W        W83027   0.458   7.856   0.755
10713W        W83028  19.181  11.131  11.448
10714W        W83029  11.212   9.839   4.124
10715W        W83030   9.242   6.354   1.776
10716W        W83031   1.916  33.000  10.580
10717W        W83032   2.309   9.292   3.678
10718W        W83033  34.564  13.261   4.820
10719W        W83034  42.904  35.539  10.411
10720W        W83035  38.993  42.834   3.276
10721W        W83036  37.395   7.217  13.011
10722W        W83037  22.517  16.304   2.300
10723W        W83038  21.232   3.936   3.853
10724W        W83039   9.287   6.295   0.845
10725W        W83040  30.996   7.297   4.814
10726W        W83041  38.433  30.134   4.668
10727W        W83042  28.485   0.337  12.824
10728W        W83043  32.965  38.368   2.378
10729W        W83044  35.890   5.225   0.825
10730W        W83045  10.223  27.541  13.014
10731W        W83046   5.314  15.607  13.937
10732W        W83047   4.731  35.931  12.537
10733W        W83048  35.436  31.502  11.076
10734W        W83049  38.056  27.547   1.744
10735W        W83050  31.115  11.303   0.917
10736W        W83051   9.234   8.686   0.482
10737W        W83052   7.357  33.503   1.271
10738W        W83053  12.244  14.685  13.408
10739W        W83054  10.375  19.658   5.095
10740W        W83055  10.786  24.537   1.271
10741W        W83056  40.433  25.696  12.842
10742W        W83057  33.092  17.753   1.378
10743W        W83058  24.482  14.234   4.168
10744W        W83059  41.906  24.155   2.696
10745W        W83060  40.948   2.807  14.020
10746W        W83061   7.360   8.351   0.294
10747W        W83062  30.910  11.362  13.881
10748W        W83063   5.417   4.290   1.396
10749W        W83064  41.000  17.689   1.337
10750W        W83065  42.518  32.947   3.662
10751W        W83066   2.953  35.408  14.978
10752W        W83067   9.699   6.841   2.718
10753W        W83068  21.549  33.996  11.410
10754W        W83069  24.688  34.874   0.856
10755W        W83070  14.274  18.082  14.320
10756W        W83071  16.133  28.665   3.682
10757W        W83072  14.833  41.936  14.516
10758W        W83073   1.898  22.118  14.498
10759W        W83074  39.514  29.938  13.520
10760W        W83075  27.961  25.555   3.839
10761W        W83076  14.706  44.451  10.998
10762W        W83077  31.104  29.592  11.092
10763W        W83078   6.734  40.475   3.231
10764W        W83079  25.981  41.478  11.947
10765W        W83080   4.904  22.561  14.484
10766W        W83081  20.581  10.649   1.358
10767W        W83082  25.208   0.965  13.053
10768W        W83083   0.827  25.157  13.387
10769W        W83084  36.481  41.966   1.420
10770W        W83085   0.808  32.408   3.308
10771W        W83086   4.879  36.439  11.374
10772W        W83087  15.159   1.471   2.809
10773W        W83088  29.559  10.370   4.189
10774W        W83089  12.126  26.539  14.314
10775W        W83090   1.329  31.049  11.117
10776W        W83091  10.147  10.271  13.487
10777W        W83092   2.742   6.763   1.911
10778W        W83093   1.779  12.193   4.225
10779W        W83094  23.601  21.195   5.103
10780W        W83095   1.786  10.377  13.853
10781W        W83096  30.622  17.729   4.674
10782W        W83097   9.732  20.608  11.075
10783W        W83098  44.337  26.119   3.773
10784W        W83099   5.304   8.255   2.360
10785W        W83100  38.967  12.631  12.431
10786W        W83101  26.165  19.696  12.529
10787W        W83102  19.283   4.708   3.338
10788W        W83103   0.935  28.115   2.326
10789W        W83104   7.240  38.881  10.637
10790W        W83105  15.704  18.226   4.266
10791W        W83106  31.934   9.278   0.395
10792W        W83107  41.306   2.744  13.892
10793W        W83108  42.943  32.530  14.322
10794W        W83109  43.379   0.468  13.468
10795W        W83110   7.392  23.038   1.387
10796W        W83111  17.686  27.069  11.011
10797W        W83112  11.746  35.397  12.541
10798W        W83113  27.064  43.376   2.861
10799W        W83114  40.819  28.485   0.474
10800W        W83115  28.067  20.123   4.338
10801W        W83116  31.558  30.607  11.467
10802W        W83117  33.626  37.937  11.948
10803W        W83118  19.142  13.756   2.412
10804W        W83119  24.495   2.925  12.007
10805W        W83120  36.919  44.956   3.278
10806W        W83121   3.420  40.448   3.279
10807W        W83122  22.544  16.605  13.936
10808W        W83123  41.967   4.812   1.885
10809W        W83124   4.306  38.564   2.741
10810W        W83125  36.568  41.333  10.928
10811W        W83126  29.526   4.819  10.152
10812W        W83127  35.426   0.944  10.625
10813W        W83128  26.081  13.727   2.328
10814W        W83129   2.920   1.798   3.768
10815W        W83130  19.235   8.344   5.286
10816W        W83131   6.208  11.804   3.302
10817W        W83132  19.764  10.246   4.171
10818W        W83133  31.575  17.753  14.836
10819W        W83134  22.242   9.682   0.421
10820W        W83135   2.472  41.015   2.418
10821W        W83136  23.033  40.548  10.644
10822W        W83137  22.246  16.643  12.079
10823W        W83138  44.791  26.116   4.754
10824W        W83139  27.669  32.400   1.392
10825W        W83140  18.669  43.829  14.015
10826W        W83141  44.297  34.603   3.173
10827W        W83142  35.402  24.031  12.410
10828W        W83143  37.335  39.005   4.791
10829W        W83144   1.312   6.895   0.402
10830W        W83145   8.317   2.437  12.991
10831W        W83146  13.647  15.768  12.097
10832W        W83147  34.405  17.154  12.977
10833W        W83148   1.438  25.135   4.643
10834W        W83149   9.265   7.243  13.003
10835W        W83150  22.517   2.409   0.906
10836W        W83151  13.600  39.968   0.363
10837W        W83152  13.115   3.406  12.971
10838W        W83153   3.445  39.961   1.435
10839W        W83154   2.244  39.835  10.556
10840W        W83155  23.139   4.818   1.437
10841W        W83156  32.926  13.620  12.995
10842W        W83157  17.078  28.006   0.255
10843W        W83158  11.147  24.211  10.998
10844W        W83159  29.483  26.534   4.217
10845W        W83160  28.937  34.555   1.855
10846W        W83161  27.072  24.215  12.521
10847W        W83162  25.540  24.676  10.523
10848W        W83163  13.803  23.597   2.834
10849W        W83164  41.015  19.173  11.499
10850W        W83165  12.205  15.694   2.410
10851W        W83166  31.588  25.501  10.468
10852W        W83167  13.229  29.964   4.798
10853W        W83168  10.183  11.338  12.364
10854W        W83169  25.103  44.435  11.896
10855W        W83170  41.820  10.160  13.907
10856W        W83171   4.734  35.508   2.875
10857W        W83172  38.930   0.886   0.798
10858W        W83173  22.147   0.476  13.984
10859W        W83174  34.947   1.787  13.835
10860W        W83175  34.079  28.091  14.801
10861W        W83176  35.976  43.936  12.053
10862W        W83177   8.853  40.838  13.344
10863W        W83178  40.934   8.247   4.184
10864W        W83179   3.858   1.350   0.290
10865W        W83180  42.505  14.250   4.323
10866W        W83181  13.169   0.402  11.997
10867W        W83182   8.783  23.725   3.337
10868W        W83183  39.494  29.930  14.946
10869W        W83184  43.512   2.282  14.855
10870W        W83185  44.792  19.104   0.438
10871W        W83186   4.297  20.636   0.379
10872W        W83187  32.522  44.264   1.382
10873W        W83188  37.522   3.348   3.705
10874W        W83189  44.486  21.512   1.283
10875W        W83190  31.092  27.545  11.589
10876W        W83191  38.832  35.069  13.372
10877W        W83192  31.050  43.375   2.369
10878W        W83193  31.044   8.773  13.929
10879W        W83194  42.812  15.809  11.580
10880W        W83195  35.398  10.174  11.093
10881W        W83196   8.392  17.718  12.378
10882W        W83197  16.304  22.074   2.373
10883W        W83198  13.297  23.998  14.986
10884W        W83199  12.619   0.932   2.215
10885W        W83200   8.271  32.119  14.899
10886W        W83201  29.977   1.288  13.538
10887W        W83202   9.234  11.772   0.301
10888W        W83203  23.222  42.002   1.753
10889W        W83204  23.534   2.450   4.256
10890W        W83205  42.986   4.382   4.795
10891W        W83206  33.992  35.103   4.766
10892W        W83207   3.359  34.989   2.417
10893W        W83208  38.884   8.866   1.226
10894W        W83209  28.027  20.643  11.393
10895W        W83210  10.155  39.362  13.537
10896W        W83211  33.078  25.970   3.360
10897W        W83212  34.566  34.927  12.022
10898W        W83213  21.085  16.179   4.778
10899W        W83214  10.355  11.661   1.372
10900W        W83215  33.882  22.127   2.193
10901W        W83216  13.204  17.277  10.130
10902W        W83217  16.761   7.689  13.908
10903W        W83218  29.460  15.156  10.495
10904W        W83219  33.538  21.673  10.052
10905W        W83220  44.280  23.637  11.467
10906W        W83221  15.687  10.372  14.329
10907W        W83222  10.784   5.251   2.362
10908W        W83223  29.508   5.221   1.770
10909W        W83224  31.963  20.117   4.259
10910W        W83225  11.257  28.543   2.865
10911W        W83226  44.836  16.281  14.445
10912W        W83227  26.479  12.719  10.971
10913W        W83228  35.905  41.942  13.910
10914W        W83229  24.108  18.163   4.732
10915W        W83230  29.050  29.647   1.408
10916W        W83231  44.951   3.783   4.130
10917W        W83232  14.610  14.737  13.813
10918W        W83233  35.064  27.944   4.236
10919W        W83234   9.224  20.118   4.750
10920W        W83235  39.032  23.028  10.610
10921W        W83236  20.175   0.893  14.280
10922W        W83237  24.173  18.146   3.822
10923W        W83238  17.243  35.913   5.230
10924W        W83239  33.993  43.278   4.779
10925W        W83240  14.749  12.770  11.897
10926W        W83241  22.117  43.408  11.403
10927W        W83242  19.154  16.717  12.922
10928W        W83243  33.012   0.313  12.389
10929W        W83244  36.022   6.850  11.104
10930W        W83245  10.702  19.560   4.297
10931W        W83246  42.436  31.415  10.640
10932W        W83247   5.333  27.942   4.792
10933W        W83248  34.417  18.787   2.867
10934W        W83249  39.836  23.061  14.916
10935W        W83250  30.476   9.244  14.787
10936W        W83251  39.384  42.380  11.973
10937W        W83252   2.301  32.902  13.027
10938W        W83253  40.538  37.080   3.203
10939W        W83254  30.656  11.180  10.615
10940W        W83255  35.468  34.490  12.094
10941W        W83256  20.680  39.040   3.262
10942W        W83257  12.775  26.062   3.343
10943W        W83258  19.723  43.400  12.835
10944W        W83259   8.224  27.127  13.479
10945W        W83260  29.991  32.471  12.964
10946W        W83261  26.476   6.390   3.362
10947W        W83262  14.116   3.405   5.310
10948W        W83263   6.271   4.316  13.796
10949W        W83264  43.881  25.699  13.891
10950W        W83265  15.319  38.964   0.274
10951W        W83266   5.796  22.999  13.492
10952W        W83267  23.604  31.928   1.897
10953W        W83268  39.330  28.672  11.978
10954W        W83269  12.752  37.559   2.250
10955W        W83270  26.040  19.608  10.966
10956W        W83271  40.013  18.606  14.833
10957W        W83272  23.121  30.495   4.610
10958W        W83273  40.018   1.839   1.247
10959W        W83274   4.760  21.051   3.787
10960W        W83275  44.444   3.909  10.497
10961W        W83276   1.950  35.888   5.127
10962W        W83277  17.774  22.042   2.724
10963W        W83278  11.372  40.421   1.337
10964W        W83279  30.056  31.933   4.821
10965W        W83280  37.380  37.401   2.354
10966W        W83281  32.398   4.918  13.019
10967W        W83282  22.240  32.405   0.908
10968W        W83283  27.089   2.227  12.569
10969W        W83284  12.626  43.489   4.622
10970W        W83285  25.214  29.169   4.127
10971W        W83286  15.778  29.634  14.473
10972W        W83287   6.385  21.184  12.907
10973W        W83288  38.978  35.533  10.406
10974W        W83289  30.435  26.544  10.891
10975W        W83290  26.144  20.157   1.277
10976W        W83291   4.887  27.991  11.377
10977W        W83292  35.907   9.720   1.448
10978W        W83293  16.651  19.232   3.257
10979W        W83294  15.618  28.664  12.021
10980W        W83295  13.263  14.231  13.982
10981W        W83296  28.657  28.938  11.906
10982W        W83297  28.573  20.069  13.436
10983W        W83298  31.454  15.588  11.607
10984W        W83299  27.553   7.801   2.381
10985W        W83300   7.806  37.926   1.755
10986W        W83301  28.681  30.534   5.237
10987W        W83302  13.135  43.428   4.188
10988W        W83303  13.802  23.032   1.393
10989W        W83304  40.456   4.360  11.383
10990W        W83305  15.169  38.368   2.247
10991W        W83306  26.689   9.859  11.079
10992W        W83307  20.638  32.441   0.278
10993W        W83308  12.176  10.322  11.927
10994W        W83309  23.220  23.635  11.893
10995W        W83310  43.438  42.396  11.964
10996W        W83311   6.287  22.105   0.285
10997W        W83312  21.527  18.071   1.734
10998W        W83313  23.736  42.020   2.711
10999W        W83314  15.692  10.855  13.343
11000W        W83315  12.278   3.711  13.428
11001W        W83316  22.739  17.096  13.414
11002W        W83317  33.534  12.654   5.311
11003W        W83318  37.938  40.323   4.177
11004W        W83319  26.531   9.179  11.988
11005W        W83320  24.144   7.749  13.047
11006W        W83321   9.328  10.362   2.383
11007W        W83322  43.887   6.329   2.852
11008W        W83323  21.073  10.842   4.692
11009W        W83324  14.244  14.591  13.855
11010W        W83325  41.018  12.217   3.325
11011W        W83326   6.262   3.719  10.557
11012W        W83327   3.801   5.779   1.770
11013W        W83328  18.124  13.177  12.923
11014W        W83329  21.681  44.292   3.363
11015W        W83330   7.727  12.189  11.047
11016W        W83331  22.606  29.596   0.318
11017W        W83332  12.180  28.635   0.858
11018W        W83333  12.852   2.893  11.392
11019W        W83334  38.431   8.764  10.910
11020W        W83335  13.318  33.594   0.327
11021W        W83336   4.332  19.076   2.757
11022W        W83337  30.960  20.676   4.131
11023W        W83338  34.512  22.507   0.827
11024W        W83339  28.122  13.193   0.375
11025W        W83340  13.845  41.412  11.936
11026W        W83341  36.951   5.297  12.959
11027W        W83342  22.713  20.147   3.826
11028W        W83343  38.019   3.880   1.335
11029W        W83344  21.255  11.695   1.810
11030W        W83345  37.028   6.736   4.692
11031W        W83346   6.243  21.185   9.924
11032W        W83347  31.584  21.674   3.331
11033W        W83348  34.987  37.078   2.773
11034W        W83349   8.660  40.937  12.951
11035W        W83350  15.265  30.516   1.407
11036W        W83351  14.204  17.296  14.813
11037W        W83352   8.193  18.607  12.056
11038W        W83353  33.939   2.418   4.638
11039W        W83354   4.261  14.141  13.386
11040W        W83355   4.859  34.005   4.776
11041W        W83356  42.324   3.357  14.864
11042W        W83357  28.984  29.144  14.806
11043W        W83358  40.353   2.790   0.481
11044W        W83359  10.331  26.457  14.476
11045W        W83360  36.456   4.930  13.800
11046W        W83361  25.130  32.969  12.882
11047W        W83362  41.354  25.515   2.241
11048W        W83363  15.228  38.543   2.775
11049W        W83364   6.305  44.906   1.802
11050W        W83365  20.243  25.182   0.893
11051W        W83366  32.095  39.533  12.542
11052W        W83367  32.550   8.831   2.363
11053W        W83368  28.079  17.801   0.905
11054W        W83369  20.563  25.074  13.823
11055W        W83370  43.849  29.505  13.418
11056W        W83371  10.780   2.912  10.432
11057W        W83372  27.185  12.328  13.509
11058W        W83373  11.820  14.626   0.837
11059W        W83374  21.575  34.388  12.072
11060W        W83375  28.444  12.712  13.383
11061W        W83376  42.342  39.370   4.188
11062W        W83377  37.406  19.040   1.746
11063W        W83378  30.537  43.975  11.070
11064W        W83379  20.228  32.117   4.264
11065W        W83380  33.554  40.483  10.531
11066W        W83381  18.637  39.997   3.656
11067W        W83382  44.754  32.495   3.320
11068W        W83383  43.962  44.807  12.945
11069W        W83384  44.289  17.719   2.386
11070W        W83385  36.562  40.004   2.788
11071W        W83386  20.249  36.933  13.791
11072W        W83387   0.981   7.388  14.328
11073W        W83388  14.792   3.283   1.761
11074W        W83389  11.178   8.376  13.841
11075W        W83390  43.362  19.557   4.600
11076W        W83391  13.759   7.203  13.495
11077W        W83392   9.690  25.662  13.980
11078W        W83393  42.965  34.375   0.253
11079W        W83394  34.917  16.672   2.378
11080W        W83395  28.628  37.973  10.410
11081W        W83396   6.796  41.534   2.677
11082W        W83397  38.429  11.693  13.307
11083W        W83398   6.862  15.196   2.219
11084W        W83399  33.933  32.923   0.897
11085W        W83400  23.686   0.769   1.823
11086W        W83401  23.553  17.283   0.367
11087W        W83402  15.769  37.482  14.949
11088W        W83403  33.989  15.610   1.334
11089W        W83404  41.538  43.306  14.872
11090W        W83405  44.793  43.995  12.352
11091W        W83406  35.017  20.611  11.009
11092W        W83407  25.105   5.924  13.882
11093W        W83408  26.991  17.168   2.327
11094W        W83409  17.794   8.390   2.890
11095W        W83410  29.608   4.293   1.318
11096W        W83411  28.571  10.731   0.844
11097W        W83412  42.460  44.881   0.350
11098W        W83413  15.323  43.400  10.431
11099W        W83414  14.648  32.929   4.747
11100W        W83415  29.600  23.044  14.429
11101W        W83416  12.294  43.431  14.850
11102W        W83417  11.715  23.213  11.565
11103W        W83418  32.940  10.226   1.713
11104W        W83419  22.184  12.263  13.396
11105W        W83420  28.452  35.941  13.475
11106W        W83421  34.460  33.626   2.746
11107W        W83422   2.410  44.971   2.692
11108W        W83423   8.800  16.103   1.295
11109W        W83424  16.739   2.448  11.059
11110W        W83425  15.620  26.481  12.341
11111W        W83426   6.350  12.729  12.400
11112W        W83427   2.303  24.681  10.584
11113W        W83428  44.989  13.169  13.907
11114W        W83429  21.672   0.465   0.478
11115W        W83430  11.160  12.733  10.504
11116W        W83431   3.845  33.382   3.728
11117W        W83432  16.232  38.979   3.789
11118W        W83433   5.858   8.186   2.859
11119W        W83434   9.328  10.795  10.901
11120W        W83435  37.378   7.854   1.817
11121W        W83436   0.917  26.495   0.274
11122W        W83437  11.862  22.609  10.097
11123W        W83438  43.890  28.447   4.632
11124W        W83439  34.504   2.228   0.743
11125W        W83440  13.701  39.912   2.282
11126W        W83441  33.037  33.083  11.435
11127W        W83442  37.956  36.049  13.023
11128W        W83443  37.335  15.750   2.824
11129W        W83444   9.751   1.831   4.182
11130W        W83445   9.709  10.331  14.819
11131W        W83446  29.645  32.442  14.291
11132W        W83447  32.553  44.825   4.332
11133W        W83448  16.272  12.145   0.771
11134W        W83449  25.582  24.497  14.300
11135W        W83450   1.477  27.527  12.997
11136W        W83451  10.373  23.689  14.979
11137W        W83452  41.792   2.377   3.300
11138W        W83453  26.019  13.708   0.749
11139W        W83454  35.598  18.138  10.961
11140W        W83455  37.498  38.835   4.142
11141W        W83456  22.141  39.892   0.463
11142W        W83457  20.035   9.766  13.397
11143W        W83458  22.073   1.850   2.685
11144W        W83459  32.465  44.850   0.405
11145W        W83460  44.472  16.153  12.418
11146W        W83461  26.186  11.666   0.919
11147W        W83462  25.489  41.509   0.745
11148W        W83463  29.507  37.990  13.981
11149W        W83464  35.910  20.171  12.901
11150W        W83465  41.947  14.700   3.221
11151W        W83466  42.357   1.362  10.505
11152W        W83467  22.112  32.598   3.631
11153W        W83468  12.349   1.912   0.427
11154W        W83469  13.238  17.171  12.908
11155W        W83470   5.285  20.249   2.787
11156W        W83471  21.561  28.008  14.334
11157W        W83472  43.313  17.608  11.391
11158W        W83473   5.336  31.464   2.283
11159W        W83474  14.234  20.687  11.496
11160W        W83475   6.182  21.116  12.355
11161W        W83476   1.935  29.628   0.839
11162W        W83477   0.856  35.063  12.966
11163W        W83478  18.732   5.910   4.755
11164W        W83479   1.314  16.709   0.776
11165W        W83480  10.870  19.578   5.731
11166W        W83481  26.573  14.201   0.445
11167W        W83482   0.988   5.736   3.339
11168W        W83483  34.880   8.195  11.526
11169W        W83484  27.457   3.918   0.457
11170W        W83485  23.153  22.159  14.017
11171W        W83486  30.071  31.081  13.928
11172W        W83487  20.206  29.069  11.076
11173W        W83488  20.197  43.435   3.720
11174W        W83489  33.004  17.608  13.823
11175W        W83490   6.384  40.423   1.413
11176W        W83491  11.622  23.592  14.954
11177W        W83492  18.741  36.589   2.309
11178W        W83493  37.356   7.841  12.832
11179W        W83494  33.037  26.608   4.827
11180W        W83495   9.274  23.703   3.842
11181W        W83496  41.329  40.404  10.628
11182W        W83497  37.492   0.978   3.670
11183W        W83498  29.047  32.488   5.642
11184W        W83499  39.904  29.479  13.442
11185W        W83500  24.648  20.138  14.429
11186W        W83501  35.891  31.054  11.043
11187W        W83502  21.612  21.554   3.803
11188W        W83503  15.316  35.378  11.067
11189W        W83504  26.085  14.134   2.899
11190W        W83505  41.014  31.917  12.421
11191W        W83506  35.554  23.124   0.337
11192W        W83507  10.355  44.373  12.983
11193W        W83508  31.585  28.056  14.409
11194W        W83509  40.373  30.646  14.023
11195W        W83510  21.262  43.916  12.570
11196W        W83511  31.966  13.720   4.634
11197W        W83512   7.680  27.141  11.582
11198W        W83513  19.241  18.709  11.381
11199W        W83514  38.461  13.155   4.325
11200W        W83515  22.065  14.144   0.833
11201W        W83516   3.408  12.292  11.968
11202W        W83517  19.629  22.510  10.592
11203W        W83518  34.973   3.278   3.343
11204W        W83519   4.922  26.043   2.767
11205W        W83520   1.943  35.541   4.217
11206W        W83521  35.589  37.933   2.185
11207W        W83522  35.092  40.981   0.929
11208W        W83523  16.769  20.763   4.714
11209W        W83524  34.058  38.996  11.610
11210W        W83525  44.463  21.602   2.733
11211W        W83526   7.694  13.625  13.431
11212W        W83527  28.651   5.698   2.738
11213W        W83528  32.407  27.126  10.490
11214W        W83529  40.496  14.219  11.983
11215W        W83530   7.782  41.817  13.945
11216W        W83531  28.996  10.753   0.307
11217W        W83532  34.523  33.465  11.881
11218W        W83533  14.146   7.299  13.397
11219W        W83534  33.454  19.582  14.367
11220W        W83535   5.787  44.351  11.545
11221W        W83536  28.608  32.131  11.079
11222W        W83537  31.987  26.069  12.502
11223W        W83538  33.536   2.458  14.894
11224W        W83539  30.599  25.113   1.317
11225W        W83540  39.012   0.786  12.386
11226W        W83541   1.302  15.305   0.258
11227W        W83542  37.487  34.481   1.434
11228W        W83543  18.254   1.753   0.278
11229W        W83544  23.514   8.270  14.317
11230W        W83545  19.134  34.024   2.783
11231W        W83546  22.008  30.633   1.843
11232W        W83547  25.526  28.587   4.254
11233W        W83548   7.875  13.145   3.648
11234W        W83549  14.628   6.780  12.919
11235W        W83550   7.857   5.388  11.473
11236W        W83551  36.986  28.650  11.982
11237W        W83552  35.377  21.106  13.986
11238W        W83553   5.816  24.524  10.598
11239W        W83554  23.649   0.257  11.890
11240W        W83555  43.371  37.426  11.410
11241W        W83556  44.466   2.256  14.515
11242W        W83557  30.134  17.095  13.468
11243W        W83558  43.452   6.793  11.382
11244W        W83559  16.179  30.423   1.330
11245W        W83560  17.756  25.644   4.757
11246W        W83561  26.023  22.207   0.898
11247W        W83562  11.270  15.763   2.882
11248W        W83563   8.750  38.382  11.988
11249W        W83564  33.876  23.235   4.678
11250W        W83565  41.419  23.037   1.731
11251W        W83566  39.858  22.018   3.821
11252W        W83567   7.194  42.408   2.263
11253W        W83568  42.837  12.854  13.362
11254W        W83569  15.656  17.293   2.202
11255W        W83570  35.081  44.788  12.371
11256W        W83571  20.251  18.238   2.877
11257W        W83572  24.133  20.041  13.427
11258W        W83573  19.642  25.032  10.628
11259W        W83574  16.154  14.323   5.228
11260W        W83575  31.994  23.199   3.187
11261W        W83576  27.961  10.156   4.188
11262W        W83577   0.370  34.395   2.321
11263W        W83578  33.453  43.405   4.198
11264W        W83579  23.714  41.911  13.793
11265W        W83580  18.281  30.581   1.280
11266W        W83581  19.705  13.784   3.775
11267W        W83582  15.299  39.965   3.311
11268W        W83583  37.897  32.469  11.054
11269W        W83584  13.193  31.648   1.925
11270W        W83585  43.387  24.109  13.887
11271W        W83586  39.035  18.097   2.236
11272W        W83587  19.604  28.620  12.924
11273W        W83588  12.782  26.598  10.469
11274W        W83589  24.231  36.535  13.402
11275W        W83590  31.439  13.647  14.976
11276W        W83591  36.868   5.265  14.494
11277W        W83592  43.295   9.873  11.491
11278W        W83593  30.092  30.085  13.375
11279W        W83594  38.064  23.064  13.516
11280W        W83595  14.680  37.515  10.403
11281W        W83596  38.501  19.691   2.789
11282W        W83597  10.146   4.219   0.845
11283W        W83598  27.085  44.802   1.263
11284W        W83599  11.660  12.172  12.913
11285W        W83600  27.467  12.183  13.317
11286W        W83601  16.609  24.199   4.816
11287W        W83602  44.860  27.951   1.239
11288W        W83603  37.061  16.132   4.610
11289W        W83604  43.828  31.494  12.493
11290W        W83605  14.827  31.439   2.854
11291W        W83606  40.322  34.398   3.378
11292W        W83607  23.686  31.406  13.534
11293W        W83608  27.023   2.804   5.705
11294W        W83609  13.137  17.230  13.462
11295W        W83610  38.884   7.766   0.242
11296W        W83611  23.675   3.331  11.381
11297W        W83612   2.793  23.211   3.281
11298W        W83613  10.780   3.876  11.493
11299W        W83614  10.810  34.432  14.394
11300W        W83615  35.484  29.117   3.332
11301W        W83616  13.617  43.322   0.913
11302W        W83617  35.567  33.963  11.505
11303W        W83618   6.911  43.827  14.305
11304W        W83619  44.812  12.819  13.416
11305W        W83620   5.794  14.138  11.086
11306W        W83621   3.461  26.602   3.306
11307W        W83622  13.821  43.940  10.896
11308W        W83623   6.335  19.735  12.472
11309W        W83624  24.635   4.341   1.934
11310W        W83625  11.179   5.857  11.934
11311W        W83626   5.901  39.967  12.093
11312W        W83627  27.951   5.236   1.440
11313W        W83628  19.601  41.974  11.512
11314W        W83629  13.614  18.580  10.502
11315W        W83630  19.260  33.060  13.994
11316W        W83631  44.840  23.696  10.417
11317W        W83632  35.001   6.789   1.446
11318W        W83633   1.428   9.746  10.138
11319W        W83634  24.974   2.901  12.943
11320W        W83635  23.187   1.404   0.267
11321W        W83636  33.970   1.434  10.918
11322W        W83637  14.663  24.638  14.363
11323W        W83638  28.590  26.500   2.799
11324W        W83639  18.551  25.030  14.333
11325W        W83640  32.396  17.761  14.428
11326W        W83641  42.461  27.189  13.974
11327W        W83642  28.172  25.495  13.360
11328W        W83643  14.115  32.962   0.795
11329W        W83644  19.224   0.961  12.859
11330W        W83645  30.156  12.191  13.965
11331W        W83646  37.441  24.061   3.192
11332W        W83647  33.602  10.876   4.757
11333W        W83648   2.751  32.994  10.491
11334W        W83649  36.984  38.959  10.424
11335W        W83650   5.725  41.018   1.354
11336W        W83651  30.055  33.510  10.425
11337W        W83652  44.945   3.931   3.291
11338W        W83653  28.070  39.053  13.926
11339W        W83654  35.422  38.040   1.704
11340W        W83655   3.384  24.068   1.923
11341W        W83656  29.665  26.700  12.909
11342W        W83657  23.991  15.675   4.217
11343W        W83658  33.441  28.571   4.138
11344W        W83659  29.036   0.298  12.376
11345W        W83660  18.287  14.803   0.809
11346W        W83661  35.433  41.040   0.896
11347W        W83662  17.117  24.524   3.756
11348W        W83663  16.571  18.115  11.860
11349W        W83664  34.588  14.645   2.286
11350W        W83665   1.371  36.995  12.431
11351W        W83666  40.517  33.608  14.288
11352W        W83667  21.603  28.179  10.105
11353W        W83668  42.788   5.922   3.352
11354W        W83669   1.785  28.091  11.860
11355W        W83670   7.278  41.299   3.255
11356W        W83671  25.640  36.079   2.849
11357W        W83672  34.602  20.129   2.855
11358W        W83673   8.772  30.532   4.184
11359W        W83674  39.558  30.614   2.231
11360W        W83675  22.659   5.380  13.384
11361W        W83676  17.623  32.442   4.706
11362W        W83677   3.294  32.486  13.540
11363W        W83678  24.049  29.581   3.704
11364W        W83679  41.029  39.511   1.694
11365W        W83680  25.708  11.664   0.897
11366W        W83681  44.996  37.981  12.982
11367W        W83682  30.656  20.098  13.046
11368W        W83683   8.285  37.345  11.476
11369W        W83684   8.852  21.721   3.310
11370W        W83685  13.340  19.140   0.798
11371W        W83686  28.672  44.437  10.458
11372W        W83687  38.876  22.048  10.061
11373W        W83688  16.733   1.472  13.502
11374W        W83689  23.995  28.959   0.409
11375W        W83690  27.138   8.817  14.031
11376W        W83691   4.414  30.632  13.969
11377W        W83692  24.528  18.056   1.378
11378W        W83693  40.317  35.960  10.031
11379W        W83694   7.386   5.910  12.050
11380W        W83695  30.557  33.616   4.798
11381W        W83696  28.961   5.893  11.390
11382W        W83697  28.960   7.225   1.839
11383W        W83698  12.355  29.599  11.941
11384W        W83699  21.750  21.114  11.044
11385W        W83700  26.061  35.051  12.033
11386W        W83701   1.942  12.633   1.730
11387W        W83702  36.592  17.733   0.828
11388W        W83703   3.763  17.097  13.990
11389W        W83704  40.908  20.067   2.337
11390W        W83705  33.430  20.526   3.663
11391W        W83706  31.620  42.822   2.242
11392W        W83707  27.633  34.918   3.793
11393W        W83708  25.577  11.699   4.791
11394W        W83709  24.626  38.056   2.201
11395W        W83710  14.314  10.689  10.570
11396W        W83711  44.779   5.906   1.865
11397W        W83712  26.132  24.074   1.851
11398W        W83713  23.077  22.047   0.473
11399W        W83714  34.406   7.840   0.791
11400W        W83715  43.885  44.803  12.527
11401W        W83716  31.405   5.761  12.022
11402W        W83717   2.315   4.273   2.312
11403W        W83718  42.977  35.368   4.279
11404W        W83719   9.290  39.546   3.304
11405W        W83720  35.572   4.278   3.849
11406W        W83721  40.338  29.621   3.265
11407W        W83722   1.758  39.938  13.363
11408W        W83723  15.681  23.704   4.649
11409W        W83724   3.353  33.442   2.784
11410W        W83725  27.168   5.239   4.834
11411W        W83726  31.030   4.840   0.751
11412W        W83727  22.526  11.286  13.064
11413W        W83728  24.640   1.811  12.469
11414W        W83729   9.874  37.511  12.363
11415W        W83730  19.560  19.639   2.343
11416W        W83731  16.300  26.457   1.906
11417W        W83732  11.170  21.027   0.758
11418W        W83733  41.296  14.201  13.500
11419W        W83734  31.978   0.283   4.825
11420W        W83735  43.991  14.693  12.389
11421W        W83736  37.045  28.136  13.451
11422W        W83737  16.300  43.773  11.052
11423W        W83738  15.251  15.653  11.049
11424W        W83739  14.230  32.999   3.808
11425W        W83740  28.102  28.674   4.654
11426W        W83741  31.006  17.722   0.844
11427W        W83742   8.322  34.867  11.105
11428W        W83743  41.861  38.559   3.853
11429W        W83744   2.364  32.503  12.877
11430W        W83745   3.866  21.254  14.475
11431W        W83746  38.973   0.978  14.862
11432W        W83747   5.297   4.842  13.370
11433W        W83748  23.675   1.784  11.011
11434W        W83749  31.637  35.399  13.540
11435W        W83750  40.305   0.493   1.331
11436W        W83751  10.767  30.051  11.054
11437W        W83752  20.657  15.598   1.409
11438W        W83753  17.603  44.961   2.899
11439W        W83754  28.947  38.433   0.316
11440W        W83755  28.993  24.122  11.902
11441W        W83756  17.166  31.050   3.280
11442W        W83757  17.609  32.451   3.364
11443W        W83758   4.787  40.880   2.691
11444W        W83759  13.340  20.535  14.839
11445W        W83760  20.052  13.145   3.175
11446W        W83761  10.303  42.374   1.808
11447W        W83762  43.305  10.871   5.183
11448W        W83763  21.744  11.346  10.641
11449W        W83764  42.471  40.857   1.361
11450W        W83765   7.846   8.886  13.477
11451W        W83766   4.812  41.962  13.064
11452W        W83767  38.069  25.567   0.416
11453W        W83768  39.501  32.637  10.581
11454W        W83769  33.909  19.074   3.795
11455W        W83770  21.589   5.903  14.375
11456W        W83771  23.525  20.146  14.360
11457W        W83772  15.095  14.763   2.416
11458W        W83773   8.269  17.134  12.083
11459W        W83774  17.061  43.353   4.255
11460W        W83775  42.022  38.014  13.019
11461W        W83776  16.176   9.152  12.508
11462W        W83777  37.064  23.718  14.931
11463W        W83778  43.814  11.798  14.886
11464W        W83779   7.348  35.096   1.315
11465W        W83780  24.085  32.900   0.957
11466W        W83781  28.102  23.667  11.061
11467W        W83782  13.129  10.177   3.266
11468W        W83783   5.933  44.329   3.313
11469W        W83784   7.682  13.280  11.454
11470W        W83785   8.692  31.553   4.836
11471W        W83786  38.836  13.240   2.802
11472W        W83787  28.519   5.434  13.817
11473W        W83788  24.083  22.642   0.957
11474W        W83789  38.349  17.671   0.909
11475W        W83790  17.750  38.555   5.729
11476W        W83791  43.898  24.535   0.828
11477W        W83792  14.793  12.211   3.202
11478W        W83793  11.734  23.080  11.925
11479W        W83794  15.324   3.755  13.862
11480W        W83795  37.383  16.136  11.936
11481W        W83796  33.612  38.351   3.285
11482W        W83797   3.746  16.671   0.823
11483W        W83798  23.987   2.336   2.798
11484W        W83799   4.220  27.659  10.573
11485W        W83800  43.451  15.121  12.506
11486W        W83801  29.974  22.173   2.211
11487W        W83802  12.181  13.750  14.319
11488W        W83803   5.862   2.942   0.964
11489W        W83804  32.136  15.752  14.838
11490W        W83805  16.092  43.813   1.867
11491W        W83806  14.771  36.487  11.468
11492W        W83807  42.382  28.996  11.900
11493W        W83808  10.260   2.800  10.585
11494W        W83809  33.391   3.386   1.277
11495W        W83810  20.547  22.246  10.953
11496W        W83811  30.536  17.286   1.928
11497W        W83812  25.647  21.193  13.822
11498W        W83813  24.666   8.755  14.763
11499W        W83814  27.141  19.066   2.349
11500W        W83815  18.608  14.263  13.488
11501W        W83816  25.711  21.557   3.278
11502W        W83817  26.153  10.176   4.137
11503W        W83818  20.620  10.302   5.581
11504W        W83819   7.351  23.152  12.857
11505W        W83820  33.959  14.169  11.544
11506W        W83821  13.725  21.665   1.436
11507W        W83822  39.334  25.973   3.263
11508W        W83823  35.407  13.775   4.181
11509W        W83824  33.394  40.510   1.359
11510W        W83825  39.019  38.338  13.803
11511W        W83826  14.268  43.398   3.659
11512W        W83827   2.238  18.638  13.913
11513W        W83828  32.085  16.719  10.109
11514W        W83829  44.325  37.464   0.923
11515W        W83830  40.330  22.224   1.412
11516W        W83831  15.816   0.860  13.930
11517W        W83832   8.402  17.775   2.793
11518W        W83833  28.673  33.969  13.922
11519W        W83834  23.999  23.048   2.857
11520W        W83835  18.121  18.602  11.998
11521W        W83836   5.878  37.930   4.212
11522W        W83837   5.419  27.465  11.983
11523W        W83838  12.171  39.524   3.351
11524W        W83839  27.164  26.137   0.357
11525W        W83840   0.389  17.127   0.861
11526W        W83841  34.914  26.606  13.416
11527W        W83842  15.778  24.196   5.194
11528W        W83843  30.962  34.940  14.285
11529W        W83844  23.696  37.923  13.873
11530W        W83845  21.172   0.829   2.820
11531W        W83846  22.118  31.588  14.469
11532W        W83847  33.904  36.573   4.306
11533W        W83848  44.370  32.465  12.535
11534W        W83849  23.607  14.762  11.395
11535W        W83850  42.412  25.608   0.796
11536W        W83851   4.382  14.600  14.889
11537W        W83852   8.750  29.439   4.805
11538W        W83853  12.344  11.193   4.599
11539W        W83854   7.794   9.323   2.750
11540W        W83855  37.344   4.843  14.327
11541W        W83856  42.793  15.094   1.413
11542W        W83857  40.355  43.385  13.401
11543W        W83858   3.345   3.916  10.981
11544W        W83859  43.447  23.150  14.974
11545W        W83860  39.994   1.819   1.753
11546W        W83861  41.929   8.237  13.979
11547W        W83862  12.228  36.575  13.412
11548W        W83863  25.145   3.255   4.130
11549W        W83864  18.595  25.077   2.708
11550W        W83865   7.888  39.898   1.864
11551W        W83866  31.931  33.452  12.469
11552W        W83867  22.584  10.638  11.116
11553W        W83868  32.915  42.004  10.553
11554W        W83869  39.928  33.045  10.990
11555W        W83870   2.950  20.273  14.480
11556W        W83871   6.710  15.598  10.544
11557W        W83872   0.344  36.852   4.353
11558W        W83873  29.935  38.351  11.894
11559W        W83874  10.354  39.023  12.447
11560W        W83875  23.563  37.865  10.626
11561W        W83876  26.687  21.536  14.481
11562W        W83877   8.709  26.136  11.444
11563W        W83878  32.141  17.663  10.471
11564W        W83879   2.828  10.860   1.390
11565W        W83880  35.947  34.487   1.362
11566W        W83881   6.182  35.866  13.970
11567W        W83882  19.201  25.086  14.333
11568W        W83883  18.551  13.792   3.674
11569W        W83884  37.336  23.181  11.011
11570W        W83885  18.634  37.905  12.457
11571W        W83886   1.933  36.950  13.434
11572W        W83887  21.180  30.915   4.707
11573W        W83888   7.299  27.192  10.465
11574W        W83889  34.550  35.881   1.299
11575W        W83890   6.778  30.644  14.467
11576W        W83891   5.849  41.869  13.376
11577W        W83892   1.318   8.298   2.732
11578W        W83893   7.245  25.021   3.280
11579W        W83894   2.430  36.515   4.712
11580W        W83895  43.446  19.072   3.163
11581W        W83896  15.650  33.465   0.378
11582W        W83897  32.102  21.243  11.914
11583W        W83898  35.970  42.808   2.748
11584W        W83899  26.064  41.922   3.251
11585W        W83900  44.871  17.224  12.845
11586W        W83901  12.352  40.509   4.298
11587W        W83902  13.823  22.649  12.005
11588W        W83903   9.362  31.413  13.548
11589W        W83904  23.579  31.079  10.974
11590W        W83905  33.464  15.203   3.675
11591W        W83906  36.952  11.152  13.530
11592W        W83907  32.541  36.026   4.614
11593W        W83908  25.108   4.822  13.020
11594W        W83909  15.631   9.849  13.984
11595W        W83910   7.329   8.668   2.858
11596W        W83911  12.342  32.473   3.761
11597W        W83912  21.063  27.552   2.389
11598W        W83913  13.342  31.121   0.904
11599W        W83914  16.758  25.689  12.916
11600W        W83915   0.883  41.346   4.598
11601W        W83916   1.471  20.655   2.202
11602W        W83917   2.247  30.104   4.669
11603W        W83918  21.191  22.746  14.450
11604W        W83919  23.168  21.031  10.089
11605W        W83920   3.805  19.558   4.795
11606W        W83921  12.732   3.900  13.396
11607W        W83922  17.094  43.454   2.205
11608W        W83923  32.944   7.416   0.396
11609W        W83924  17.603  43.946  13.958
11610W        W83925   2.799   4.248   2.666
11611W        W83926  13.246  28.505   2.342
11612W        W83927  10.260  21.246  13.811
11613W        W83928   7.674  27.651   0.375
11614W        W83929  11.744  36.376  11.993
11615W        W83930   7.189   9.304  12.444
11616W        W83931  28.183  30.966   0.465
11617W        W83932  14.834  29.517   4.328
11618W        W83933  40.957  40.993   1.211
11619W        W83934  41.823  35.924  13.502
11620W        W83935  44.949  28.588  13.519
11621W        W83936  21.104  10.163   0.358
11622W        W83937  39.557  20.686   4.327
11623W        W83938   7.884  29.646   3.781
11624W        W83939  13.260  21.260   4.248
11625W        W83940  24.479  31.094  13.389
11626W        W83941  34.037   8.227  10.923
11627W        W83942  30.477   7.329  12.575
11628W        W83943  30.152  37.998  12.049
11629W        W83944  35.997   0.762  13.027
11630W        W83945  26.039  28.658  12.829
11631W        W83946  16.205  22.715  14.382
11632W        W83947  14.814  20.137  10.937
11633W        W83948  36.918   2.793   2.723
11634W        W83949  14.102  37.833  13.926
11635W        W83950  18.089   9.680  11.065
11636W        W83951   8.222  18.667   1.846
11637W        W83952  44.299   8.185   4.156
11638W        W83953   5.282  34.043  13.430
11639W        W83954  20.121   6.358  10.569
11640W        W83955  39.858  32.077  14.316
11641W        W83956   6.762  28.943   3.216
11642W        W83957   8.333   4.424  13.061
11643W        W83958  32.895  23.033   3.763
11644W        W83959  36.912   6.803   3.689
11645W        W83960  42.817  34.118   3.248
11646W        W83961   8.713  18.621  14.497
11647W        W83962   1.285  25.612   2.188
11648W        W83963  11.662   9.735  11.393
11649W        W83964  27.075  34.882   0.775
11650W        W83965   2.820  40.430  14.773
11651W        W83966  25.097   2.366  12.413
11652W        W83967  30.912  23.735   2.190
11653W        W83968  15.152  33.455  11.924
11654W        W83969  23.735  40.936  14.341
11655W        W83970  17.784   2.459   2.868
11656W        W83971  38.418   8.396  14.922
11657W        W83972   2.732  17.781   4.831
11658W        W83973  24.143  22.716   3.308
11659W        W83974   1.322  44.410   1.909
11660W        W83975  44.293  35.405   4.774
11661W        W83976  38.850   3.378   1.334
11662W        W83977  13.772   5.842   4.651
11663W        W83978  27.086  40.018  11.380
11664W        W83979  41.300  40.406  10.910
11665W        W83980  41.465  28.678   3.177
11666W        W83981   7.676   3.876   1.314
11667W        W83982  10.695   2.230  11.426
11668W        W83983  24.717  35.452  13.840
11669W        W83984  35.977  22.641  13.316
11670W        W83985  10.860  33.056   3.737
11671W        W83986  39.913  23.168  12.458
11672W        W83987  24.714   6.268  13.456
11673W        W83988  12.695   2.742   4.175
11674W        W83989  28.090  30.492  11.855
11675W        W83990   7.230  12.327   4.141
11676W        W83991  21.093  23.096   1.308
11677W        W83992  36.862  40.397  11.463
11678W        W83993  25.206   5.855  14.857
11679W        W83994  33.875   2.285   0.858
11680W        W83995  18.776  11.833   5.278
11681W        W83996  30.068  35.064  13.037
11682W        W83997  22.232  37.025  13.381
11683W        W83998  18.746  40.544  10.940
11684W        W83999  40.375  18.637  11.964
11685W        W84000  13.281  10.343   4.248
11686W        W84001  32.575  13.270   1.325
11687W        W84002  28.158   2.798  11.876
11688W        W84003  13.710  33.543  11.004
11689W        W84004   1.733  38.478  14.766
11690W        W84005  10.714   1.310  12.922
11691W        W84006   6.872  39.856  12.426
11692W        W84007  25.543   4.276   3.231
11693W        W84008  24.023  16.188  14.450
11694W        W84009  20.048  31.080  12.025
11695W        W84010  38.418  39.990   3.261
11696W        W84011  32.572  30.455  13.514
11697W        W84012  14.824  19.168  12.359
11698W        W84013  40.969  13.282  12.837
11699W        W84014  25.598   9.191  13.432
11700W        W84015   1.479  20.115   3.177
11701W        W84016   2.408  10.273  14.463
11702W        W84017  39.320  16.692   4.767
11703W        W84018  33.020  32.526   4.329
11704W        W84019  38.440  14.702  12.429
11705W        W84020  35.591  28.626   1.724
11706W        W84021   9.882  11.145   0.736
11707W        W84022  44.844  41.830  13.439
11708W        W84023   0.978  36.856  11.570
11709W        W84024   0.352  21.135   3.269
11710W        W84025  10.267  37.539   3.282
11711W        W84026   9.773  33.476   1.423
11712W        W84027  40.318  37.845   0.902
11713W        W84028  22.013  17.098  11.987
11714W        W84029   6.260  42.797   5.289
11715W        W84030   8.354  14.700   2.364
11716W        W84031   4.893  26.579  14.769
11717W        W84032  18.271  37.578  10.102
11718W        W84033   6.881  19.107   2.789
11719W        W84034  12.664   1.422   1.317
11720W        W84035  40.946  16.669  10.593
11721W        W84036  12.826  40.535  13.947
11722W        W84037  11.352  37.566  13.327
11723W        W84038  12.671  30.029   4.687
11724W        W84039  11.146   8.793   4.697
11725W        W84040  34.556  13.158  14.991
11726W        W84041   8.373   4.722   2.698
11727W        W84042  11.339   8.880   2.871
11728W        W84043  22.207  39.953  12.067
11729W        W84044  28.465  41.013   2.340
11730W        W84045   6.200   8.342   1.888
11731W        W84046  20.667   7.188  11.882
11732W        W84047  30.944  35.459  14.857
11733W        W84048  19.272   7.910  14.839
11734W        W84049  39.502  35.908   2.294
11735W        W84050  38.503  33.533  12.446
11736W        W84051  27.975  21.070  11.584
11737W        W84052   3.721  39.450   3.772
11738W        W84053  27.085  28.936   1.312
11739W        W84054  41.450  32.606   0.293
11740W        W84055   6.407  29.166  13.974
11741W        W84056  24.662  33.440  13.546
11742W        W84057  35.504  29.528   0.428
11743W        W84058   4.913  38.339  11.875
11744W        W84059  40.374  26.169   0.728
11745W        W84060  26.465  37.834  10.556
11746W        W84061  35.061  42.304   0.848
11747W        W84062   6.245  32.531  14.991
11748W        W84063   4.709  17.790  12.352
11749W        W84064  30.936  22.157  11.084
11750W        W84065  21.245  26.627  10.598
11751W        W84066  38.012  36.000   3.768
11752W        W84067  30.538  15.817  14.891
11753W        W84068   5.276  41.985   3.629
11754W        W84069  32.416  30.052   2.309
11755W        W84070  16.260  22.727  11.445
11756W        W84071  22.081  16.113  13.513
11757W        W84072  16.107  32.918   0.245
11758W        W84073  37.921  24.100   5.245
11759W        W84074  34.435  33.592  14.289
11760W        W84075  17.750  23.104  12.450
11761W        W84076   1.417  31.555  11.530
11762W        W84077  13.824  44.441   0.343
11763W        W84078  12.231  36.452  12.982
11764W        W84079  34.396  16.139  11.041
11765W        W84080   8.725  14.202   1.234
11766W        W84081  32.554   5.339   3.216
11767W        W84082  22.021  11.664   3.280
11768W        W84083  35.896  16.753  11.571
11769W        W84084  34.876  43.359  12.039
11770W        W84085  21.649  32.629   0.768
11771W        W84086  32.092  17.660   3.664
11772W        W84087  33.555  28.086   3.733
11773W        W84088  29.669  27.674  12.044
11774W        W84089  27.960  41.387  12.094
11775W        W84090   6.845  38.556   1.863
11776W        W84091  25.707  30.955   1.257
11777W        W84092  33.441  41.443   4.134
11778W        W84093  21.710  16.581  10.609
11779W        W84094  38.558   3.324  13.885
11780W        W84095  14.147  39.927  11.561
11781W        W84096   4.857  37.898   2.318
11782W        W84097  20.049  35.954   2.895
11783W        W84098  36.078  32.494  11.480
11784W        W84099  30.056  31.056  11.589
11785W        W84100  22.555  31.077   1.307
11786W        W84101  26.956  12.735  12.972
11787W        W84102   4.316  32.968   3.375
11788W        W84103  43.306   0.409  12.381
11789W        W84104   8.310  21.544   4.337
11790W        W84105   8.230  11.229  14.860
11791W        W84106   4.385   2.352  12.961
11792W        W84107  22.501   5.927  11.528
11793W        W84108  15.326  15.748   4.241
11794W        W84109  41.473   3.446   3.714
11795W        W84110   3.811  36.094  10.908
11796W        W84111  36.484  22.093   4.228
11797W        W84112  36.964  30.609  13.363
11798W        W84113  12.808  17.086   0.958
11799W        W84114  23.596  18.580  13.004
11800W        W84115  40.958   9.172   3.232
11801W        W84116  43.306  23.720   0.362
11802W        W84117  32.007  42.344  12.490
11803W        W84118   9.873  10.833  12.377
11804W        W84119  21.731   6.323   0.808
11805W        W84120   1.931  34.883  14.943
11806W        W84121  39.401  31.463   3.801
11807W        W84122   3.921  44.763  11.120
11808W        W84123  21.725  38.833   0.479
11809W        W84124  10.700   2.361   2.326
11810W        W84125  14.688  21.610  11.554
11811W        W84126   9.234  36.883   3.797
11812W        W84127   5.365   3.341  14.024
11813W        W84128   5.930  42.455   0.809
11814W        W84129  14.622  32.012  11.972
11815W        W84130  38.352  33.562  13.318
11816W        W84131  22.520  18.293   3.371
11817W        W84132  20.204  38.985  13.398
11818W        W84133   4.709   1.289  14.363
11819W        W84134  25.018  25.605  12.916
11820W        W84135   1.261  19.780   4.120
11821W        W84136   3.269   4.896  14.478
11822W        W84137  18.759  41.493   1.843
11823W        W84138  30.625  41.983  12.538
11824W        W84139   6.898  37.964   3.229
11825W        W84140  23.084   0.810  11.446
11826W        W84141  10.735   6.788   0.758
11827W        W84142   7.317   6.323   0.864
11828W        W84143   5.295   3.850  12.374
11829W        W84144  15.689  23.579  13.918
11830W        W84145  14.823  24.026  10.982
11831W        W84146  27.670  13.316  10.423
11832W        W84147   3.437   6.850   4.183
11833W        W84148  41.970  20.093   4.334
11834W        W84149  18.092  24.034  14.933
11835W        W84150   4.230  38.337   1.351
11836W        W84151  38.953  39.924   2.896
11837W        W84152  26.580  24.690  12.824
11838W        W84153  39.453  14.164  13.990
11839W        W84154  27.055  33.022   2.738
11840W        W84155  14.652  20.028   4.246
11841W        W84156  42.780  33.492  11.876
11842W        W84157  12.661   3.857  13.996
11843W        W84158  34.109  11.744   4.826
11844W        W84159  37.868   8.867   3.221
11845W        W84160  39.852  39.002   2.383
11846W        W84161   1.350   1.318   1.226
11847W        W84162   4.251  23.656   4.832
11848W        W84163  27.020  27.644   4.748
11849W        W84164  29.049  15.130  11.483
11850W        W84165   2.354  32.038   4.290
11851W        W84166  35.380   9.729   2.280
11852W        W84167  30.570   3.255  12.076
11853W        W84168  13.132  12.793  13.862
11854W        W84169  34.547  14.123  11.039
11855W        W84170  29.108  36.926  14.899
11856W        W84171  13.777  22.238  12.446
11857W        W84172  44.757  30.047   4.662
11858W        W84173  23.523  23.680  11.907
11859W        W84174  36.442  13.314   2.734
11860W        W84175   1.483   1.894  10.930
11861W        W84176   0.322  16.732   4.772
11862W        W84177  20.123  19.661   0.941
11863W        W84178  21.096  34.953  14.276
11864W        W84179  27.680   3.878   1.933
11865W        W84180   0.761  44.792   4.788
11866W        W84181   4.433  29.008  12.921
11867W        W84182   5.706  16.206   4.668
11868W        W84183  40.485   4.378  13.368
11869W        W84184  27.505  26.516   3.747
11870W        W84185  41.885  31.449   0.893
11871W        W84186   2.823  23.131   1.812
11872W        W84187  43.423  29.942  12.914
11873W        W84188  34.418  14.658   1.390
11874W        W84189  23.655  21.089   4.740
11875W        W84190  31.938  20.260   2.368
11876W        W84191  41.958  30.013  11.034
11877W        W84192   1.395   9.869  10.631
11878W        W84193  44.996  33.070  12.970
11879W        W84194  15.712  10.327  14.931
11880W        W84195   9.307  13.109  10.530
11881W        W84196  13.320  22.557   2.732
11882W        W84197  12.245  25.059  11.499
11883W        W84198  17.600  11.800   1.908
11884W        W84199  39.336   3.332   1.286
11885W        W84200  25.513  11.137  14.345
11886W        W84201  14.770  14.148  12.863
11887W        W84202  39.866  44.915   2.716
11888W        W84203   6.787  44.368  10.602
11889W        W84204  14.751   5.831  12.526
11890W        W84205  29.136  25.163   3.288
11891W        W84206   8.255   6.729   2.375
11892W        W84207   2.376  28.583   4.660
11893W        W84208  23.229  34.951   0.946
11894W        W84209  26.093   7.178   3.643
11895W        W84210   7.406  19.626   0.944
11896W        W84211  15.632  33.463   3.240
11897W        W84212  39.914   4.909   0.856
11898W        W84213  19.180  31.054   0.352
11899W        W84214   5.247  11.133   0.931
11900W        W84215   4.889  40.372   3.300
11901W        W84216   1.345   4.218   1.771
11902W        W84217  12.156  32.921   3.251
11903W        W84218  18.716  14.268   3.367
11904W        W84219  31.439  28.595   4.715
11905W        W84220   2.282  10.183   4.353
11906W        W84221  37.556  33.935   1.295
11907W        W84222  18.175  10.205   3.197
11908W        W84223  41.885  36.362   4.792
11909W        W84224  20.250  44.331  11.972
11910W        W84225  32.570   0.287   4.312
11911W        W84226  39.957   9.712   0.472
11912W        W84227  19.155   2.728   2.896
11913W        W84228  12.121   7.773   0.444
11914W        W84229  42.481   5.799  11.894
11915W        W84230   3.921   5.701   4.623
11916W        W84231  33.446  30.477  11.513
11917W        W84232  29.105  19.736   3.158
11918W        W84233  34.925   1.855  10.087
11919W        W84234  39.837  40.871   3.241
11920W        W84235  38.984  19.559   1.280
11921W        W84236  23.031  24.561  10.921
11922W        W84237  11.657   7.218   4.761
11923W        W84238  37.424   3.416  14.032
11924W        W84239   4.726  13.642  14.018
11925W        W84240  26.162  10.766   2.771
11926W        W84241   6.198  17.193  10.937
11927W        W84242  39.020  19.719  12.959
11928W        W84243  17.168  42.321   1.792
11929W        W84244  43.470   0.458   2.390
11930W        W84245  30.107   0.945  13.836
11931W        W84246  10.153  31.470   4.817
11932W        W84247  38.839   0.816  12.045
11933W        W84248  27.680   7.238   0.740
11934W        W84249  31.952   4.835  12.930
11935W        W84250   4.713  40.882   3.640
11936W        W84251  30.966  29.523   5.180
11937W        W84252   8.317  24.682   3.728
11938W        W84253  37.992  20.139   4.333
11939W        W84254   4.840   4.732   0.465
11940W        W84255   7.895  41.900   4.772
11941W        W84256  24.602  30.128  13.808
11942W        W84257  17.192  26.050   0.352
11943W        W84258  41.924  37.371  12.375
11944W        W84259  24.062   2.817   0.314
11945W        W84260  28.436   3.330  13.946
11946W        W84261   3.375  21.711   1.426
11947W        W84262  23.086  34.546   3.699
11948W        W84263   7.861  17.197  12.072
11949W        W84264   6.420  14.697  13.813
11950W        W84265  40.546  28.107  14.805
11951W        W84266  36.890  16.310   3.196
11952W        W84267   6.759   1.946   3.725
11953W        W84268  24.695  19.620  10.429
11954W        W84269  28.679  10.724   0.403
11955W        W84270   7.793  33.916  14.003
11956W        W84271   2.879   7.397  10.415
11957W        W84272  12.132  43.420  12.904
11958W        W84273  43.304   3.885  14.317
11959W        W84274   2.747  25.184  13.480
11960W        W84275  32.395  29.542  14.886
11961W        W84276  35.056  43.501   1.819
11962W        W84277  41.844  32.476  14.920
11963W        W84278   5.884  19.551  13.333
11964W        W84279  32.119   2.280   4.656
11965W        W84280  36.966  22.188   1.814
11966W        W84281   9.880  21.517   0.326
11967W        W84282  30.623  37.426  13.818
11968W        W84283  43.015  20.607  12.905
11969W        W84284  22.569  32.585   0.403
11970W        W84285  31.131  43.469   4.119
11971W        W84286   0.948   1.891  11.472
11972W        W84287  23.069  30.918   0.387
11973W        W84288  32.127  23.232   1.735
11974W        W84289  16.303  22.515   2.384
11975W        W84290  24.722  23.195  12.937
11976W        W84291  19.186   5.725   4.144
11977W        W84292  12.675  32.912   3.724
11978W        W84293  20.096   0.768  12.034
11979W        W84294  42.918  33.001  13.819
11980W        W84295  10.737   4.830   0.785
11981W        W84296   8.660   5.857   0.835
11982W        W84297   5.797  10.180  14.968
11983W        W84298  34.580  40.961  10.992
11984W        W84299  44.274  23.532  10.034
11985W        W84300  21.654  18.574   4.776
11986W        W84301  25.111   1.858  13.824
11987W        W84302   0.778  22.513  11.878
11988W        W84303  30.652  31.095   2.678
11989W        W84304   3.869  35.868   3.327
11990W        W84305  15.144  21.644   3.224
11991W        W84306  10.305   3.748   0.965
11992W        W84307  14.318  39.032  14.448
11993W        W84308   0.959  18.555   3.780
11994W        W84309  25.483  31.909   0.961
11995W        W84310   4.837   9.149   2.281
11996W        W84311  13.305  14.810   0.443
11997W        W84312  31.981   6.826  12.428
11998W        W84313   5.832  26.552   2.191
11999W        W84314   6.426  23.185   4.169
12000W        W84315  33.533   9.243  11.068
12001W        W84316  22.675  28.598   4.781
12002W        W84317   2.285   9.153  11.977
12003W        W84318   0.884  26.085   3.257
12004W        W84319  32.518  38.465  10.433
12005W        W84320  26.059  21.133   1.819
12006W        W84321  23.718  35.956  12.075
12007W        W84322   2.873  12.761  13.444
12008W        W84323  37.938  19.075  12.897
12009W        W84324  42.918  32.432   4.282
12010W        W84325   5.401  21.150  13.917
12011W        W84326  37.913  12.680  12.827
12012W        W84327  32.892  22.685   1.782
12013W        W84328  33.398  17.136  13.469
12014W        W84329   6.815  39.480  13.973
12015W        W84330   7.413  23.207   4.641
12016W        W84331  44.790   6.313  11.430
12017W        W84332  36.873  13.172  12.527
12018W        W84333  18.565  35.057   9.971
12019W        W84334  40.018  28.032   0.458
12020W        W84335   6.255  31.595   3.149
12021W        W84336   9.835  28.980  13.816
12022W        W84337  19.594  24.008   2.685
12023W        W84338   2.727  25.080   2.269
12024W        W84339  43.842  10.355  14.931
12025W        W84340  43.802  44.420   1.827
12026W        W84341  43.000  40.511  10.618
12027W        W84342  23.057  24.487   1.696
12028W        W84343  13.707  42.927   2.867
12029W        W84344  10.779  20.109   5.796
12030W        W84345  39.470   2.345  14.838
12031W        W84346  31.105  23.605   2.740
12032W        W84347   5.316  25.112  12.093
12033W        W84348  11.633  15.140   2.221
12034W        W84349   3.380   7.218  11.943
12035W        W84350  29.931   1.413   2.272
12036W        W84351  28.068  14.230   2.221
12037W        W84352  29.051  28.112  12.976
12038W        W84353  14.641  29.071   2.259
12039W        W84354  38.327  17.779  11.914
12040W        W84355   1.968  18.120  14.487
12041W        W84356  11.354  37.358   4.789
12042W        W84357  26.533   3.934  11.904
12043W        W84358  22.243  36.356  12.565
12044W        W84359  39.847   2.448  14.888
12045W        W84360  12.133  29.646   3.660
12046W        W84361  15.819  40.386   3.237
12047W        W84362  25.142   5.296  12.504
12048W        W84363  30.140  25.598   2.761
12049W        W84364  31.442  14.280  12.020
12050W        W84365  25.543   3.842   4.267
12051W        W84366  25.560  30.077  11.442
12052W        W84367  20.572  12.719  11.399
12053W        W84368  24.115  27.665  13.022
12054W        W84369  15.582  18.249   1.269
12055W        W84370  31.591  28.077   2.666
12056W        W84371  43.849   8.732   1.734
12057W        W84372   9.801  18.130   0.243
12058W        W84373  18.686  40.343  14.341
12059W        W84374  33.564   9.741   3.692
12060W        W84375  23.502  34.417   2.827
12061W        W84376   0.888  22.107   1.326
12062W        W84377  33.068  10.707   3.646
12063W        W84378  13.635  18.755   3.252
12064W        W84379  35.034   8.389   0.371
12065W        W84380  38.362  43.948   1.289
12066W        W84381  10.830  15.751  12.988
12067W        W84382  28.086  22.667   0.937
12068W        W84383  27.627   7.866  11.089
12069W        W84384  33.434  31.524  14.370
12070W        W84385  29.969  24.076   3.824
12071W        W84386  14.207  13.821  14.452
12072W        W84387  28.637   5.347   4.806
12073W        W84388  30.070  21.579   2.808
12074W        W84389  43.005  43.512   3.818
12075W        W84390  40.830  34.430  12.026
12076W        W84391  44.345  19.589  10.496
12077W        W84392  27.141  13.742  13.973
12078W        W84393   1.868  22.140   1.922
12079W        W84394  21.587  33.925  12.423
12080W        W84395  27.973  10.683  11.407
12081W        W84396  26.003  43.385   1.224
12082W        W84397  19.683  23.179  14.404
12083W        W84398  38.048  29.151   1.931
12084W        W84399   2.927  13.158   0.894
12085W        W84400  32.941   3.234   2.241
12086W        W84401  43.959   2.866  14.483
12087W        W84402  20.184   3.768  14.413
12088W        W84403   5.222  12.357  11.044
12089W        W84404   7.183  10.856   4.128
12090W        W84405  21.151   3.291  12.064
12091W        W84406  19.096  29.458  14.902
12092W        W84407  24.629  43.362  13.311
12093W        W84408  44.753  43.804  11.457
12094W        W84409   8.701  40.046  14.030
12095W        W84410  35.520   3.343   5.240
12096W        W84411   2.763  38.505   0.885
12097W        W84412  41.955  15.111  13.943
12098W        W84413  38.506  12.798   4.696
12099W        W84414   2.367  37.964   2.677
12100W        W84415  10.319  19.545   1.415
12101W        W84416   2.309   8.753   2.735
12102W        W84417  41.307  36.472  14.413
12103W        W84418  40.918  22.655  13.308
12104W        W84419   3.941  33.124   1.294
12105W        W84420   2.920  15.606  14.484
12106W        W84421   0.359  14.154  11.052
12107W        W84422   4.819  10.637  10.890
12108W        W84423  42.434   5.210  10.996
12109W        W84424  36.939   1.754  13.412
12110W        W84425  13.303   1.347  11.569
12111W        W84426  44.010  36.067   2.883
12112W        W84427  34.540  30.040   0.275
12113W        W84428   6.299  26.618  13.349
12114W        W84429  32.129  40.436   0.839
12115W        W84430  41.851  38.000   2.793
12116W        W84431  40.812  28.603  11.520
12117W        W84432  40.314  15.779   0.934
12118W        W84433  32.104  29.056   9.956
12119W        W84434  33.496  23.496   4.659
12120W        W84435  15.116  37.848  11.530
12121W        W84436  11.301   9.261   4.740
12122W        W84437  24.062  20.186   4.618
12123W        W84438  31.492  26.508  10.978
12124W        W84439  32.062  18.648   0.955
12125W        W84440  14.119  27.120  12.347
12126W        W84441  24.105  38.347   2.695
12127W        W84442  28.153  41.798  14.029
12128W        W84443  33.897   5.202  10.484
12129W        W84444  29.992   5.687  12.551
12130W        W84445   9.647  43.357  11.539
12131W        W84446   5.911   7.803   1.817
12132W        W84447   6.694   8.851  14.844
12133W        W84448  41.833  44.893   3.183
12134W        W84449   7.300   6.283  11.528
12135W        W84450  40.909  24.661   9.505
12136W        W84451  10.760  34.060   3.814
12137W        W84452  27.159  42.369  14.929
12138W        W84453  35.600  30.147   1.846
12139W        W84454  39.392  36.091   4.731
12140W        W84455  17.159  36.871  14.361
12141W        W84456  18.221  28.134   3.190
12142W        W84457  35.066   6.787  13.856
12143W        W84458  33.390  40.420  12.069
12144W        W84459   4.775  24.058  12.511
12145W        W84460  12.187  25.534  14.459
12146W        W84461  37.437  27.153   1.739
12147W        W84462  34.024  30.497   2.262
12148W        W84463  30.607  28.122  12.033
12149W        W84464  19.139  43.868   3.274
12150W        W84465  42.817  37.496  13.542
12151W        W84466  35.519  17.088   3.808
12152W        W84467  43.293  10.383   1.928
12153W        W84468  27.014   2.761   4.169
12154W        W84469   3.752  23.682   0.855
12155W        W84470  23.155   6.378   0.275
12156W        W84471  10.826  38.377   3.686
12157W        W84472   2.379  23.139  10.452
12158W        W84473  38.353  21.689   4.811
12159W        W84474   7.666  22.537   2.211
12160W        W84475  40.835  39.560  11.539
12161W        W84476   2.924  10.816   0.884
12162W        W84477  17.765  31.467   1.296
12163W        W84478  40.312  35.584   0.760
12164W        W84479  34.975  35.392   1.328
12165W        W84480  11.648  33.056  10.497
12166W        W84481  33.106   6.725  10.935
12167W        W84482  25.646  27.635   1.863
12168W        W84483  23.072  35.855   3.333
12169W        W84484  34.519  18.133   3.354
12170W        W84485   4.789  10.319   0.880
12171W        W84486  12.775   1.821  11.046
12172W        W84487  12.327  31.403   1.263
12173W        W84488  12.164  44.349  12.042
12174W        W84489  40.869  27.661  10.477
12175W        W84490  34.379  38.045   4.178
12176W        W84491  11.339  37.943   0.479
12177W        W84492  18.061  34.467   4.678
12178W        W84493  44.445  35.593  12.880
12179W        W84494   6.345  41.987   1.354
12180W        W84495  25.042  41.497  10.502
12181W        W84496   7.417  33.027   3.324
12182W        W84497  22.215   7.340   1.369
12183W        W84498  34.109  36.451  14.894
12184W        W84499  19.081  33.557  11.433
12185W        W84500  10.283  17.283   4.202
12186W        W84501   7.809   6.297  10.490
12187W        W84502  32.494  17.135   1.713
12188W        W84503  42.990   4.800  11.476
12189W        W84504  37.839  32.885   4.619
12190W        W84505  24.150   9.388   1.770
12191W        W84506   9.200  22.588   1.848
12192W        W84507   3.774  18.749  10.617
12193W        W84508  18.642  26.157   0.275
12194W        W84509   5.237  15.221   4.328
12195W        W84510   2.770   6.330   2.373
12196W        W84511  10.729  27.997  14.285
12197W        W84512   9.203  13.681   1.371
12198W        W84513   4.927   8.796  10.146
12199W        W84514  19.170  37.018   3.233
12200W        W84515  28.178  38.334  12.063
12201W        W84516   1.977  34.062  14.816
12202W        W84517  21.638  30.498   3.871
12203W        W84518  33.461  34.405   2.248
12204W        W84519  38.462  36.947   4.767
12205W        W84520  39.998  19.665   3.377
12206W        W84521  40.979  41.435   1.883
12207W        W84522   1.924  12.117  13.991
12208W        W84523   9.811  13.164   3.642
12209W        W84524  31.447  33.481  11.382
12210W        W84525  27.510   4.276   4.212
12211W        W84526  27.629  11.819  13.042
12212W        W84527   1.409   7.861  10.566
12213W        W84528  30.604  27.153   3.175
12214W        W84529  11.187  25.183   0.866
12215W        W84530  24.990   4.800  11.509
12216W        W84531  10.360  44.492   3.862
12217W        W84532  37.375  27.179   4.170
12218W        W84533  39.560   9.766   0.752
12219W        W84534  12.840  32.034   1.250
12220W        W84535  19.212  21.678  10.457
12221W        W84536  32.062  35.005  10.556
12222W        W84537  25.976  42.314   4.684
12223W        W84538  21.540  15.171   3.797
12224W        W84539   2.471  26.951  11.942
12225W        W84540  31.031  36.001   0.406
12226W        W84541  42.938  36.931  10.425
12227W        W84542  20.198  27.557  13.914
12228W        W84543  27.092  19.592   5.257
12229W        W84544  14.606  11.243   9.946
12230W        W84545  38.553  29.599   2.850
12231W        W84546  12.695  35.455   3.656
12232W        W84547  14.830  36.557   0.762
12233W        W84548  12.730   4.220   4.640
12234W        W84549  10.246  14.668  11.103
12235W        W84550  43.826   9.840   2.825
12236W        W84551  15.619  42.282   2.878
12237W        W84552  42.821  32.140   4.305
12238W        W84553  43.393  12.615   3.276
12239W        W84554  34.919  33.597   2.361
12240W        W84555   6.770  14.332   4.780
12241W        W84556   4.699  31.531   2.382
12242W        W84557  28.142  19.178  14.906
12243W        W84558   8.663  31.523   0.466
12244W        W84559  40.041  40.035   2.294
12245W        W84560  40.984   1.413   0.302
12246W        W84561  13.816  34.586   4.780
12247W        W84562  13.275   6.825   4.657
12248W        W84563  26.053  34.415  13.031
12249W        W84564  17.631  24.195   4.350
12250W        W84565  17.151  39.815  13.489
12251W        W84566  14.723   2.948   3.209
12252W        W84567  16.273  17.088   2.848
12253W        W84568  36.957   7.832  13.860
12254W        W84569  25.527   9.388  14.436
12255W        W84570  33.483  14.631   4.132
12256W        W84571  25.677   8.376  14.390
12257W        W84572  43.397  19.671   5.120
12258W        W84573  41.999  24.500   3.753
12259W        W84574  16.293  32.439  10.579
12260W        W84575  12.226   4.383   4.613
12261W        W84576  44.812  33.887   1.281
12262W        W84577  13.616   0.776   4.160
12263W        W84578  17.639  26.640  10.937
12264W        W84579  40.963  35.995  13.365
12265W        W84580   4.411  28.948   0.798
12266W        W84581  44.430  20.694  11.051
12267W        W84582  28.101  24.093  14.870
12268W        W84583  33.403  29.670   0.944
12269W        W84584   8.859  19.224  10.920
12270W        W84585   4.442   7.894  10.549
12271W        W84586  15.819  30.570  11.516
12272W        W84587   4.399  23.535   0.394
12273W        W84588   8.875  33.122   4.220
12274W        W84589  16.615   3.398   1.320
12275W        W84590   8.202   4.257  11.499
12276W        W84591  36.880  17.618  12.457
12277W        W84592  42.935  26.627   0.903
12278W        W84593   3.253  24.524   1.737
12279W        W84594  13.219  40.450   4.671
12280W        W84595  42.943  23.033   2.237
12281W        W84596  22.740  14.594   0.822
12282W        W84597  44.809  39.379  14.396
12283W        W84598   8.227  43.270   2.324
12284W        W84599  26.583  33.544  13.455
12285W        W84600   5.846  27.132   4.656
12286W        W84601  32.137  35.908  13.800
12287W        W84602  12.275  19.256   4.682
12288W        W84603  26.150  38.038  13.464
12289W        W84604  28.112   4.424   5.241
12290W        W84605  14.136  14.207   3.272
12291W        W84606   2.269  39.400   3.649
12292W        W84607  37.384   9.770  12.899
12293W        W84608  44.947  21.608   1.848
12294W        W84609   3.788  14.670  10.509
12295W        W84610  43.402  13.609  11.902
12296W        W84611   7.379  29.600  10.628
12297W        W84612  19.609   4.937  11.094
12298W        W84613  26.630  19.670   1.893
12299W        W84614   8.258   1.954  12.451
12300W        W84615   5.235  42.397  14.789
12301W        W84616  19.214  44.846  11.992
12302W        W84617  31.897  24.595  13.372
12303W        W84618  12.328  18.629  10.096
12304W        W84619  39.962  25.053  11.457
12305W        W84620  41.850  15.137  10.508
12306W        W84621   0.382  10.762  10.990
12307W        W84622  36.535   6.676  10.950
12308W        W84623   2.412  13.303  10.436
12309W        W84624  41.958  44.504  13.939
12310W        W84625  36.890  34.994  13.340
12311W        W84626  28.497  32.913   3.317
12312W        W84627  25.692  43.901   1.884
12313W        W84628   4.377  17.742  12.957
12314W        W84629  14.821  11.854  11.588
12315W        W84630  41.324   7.268  11.944
12316W        W84631  23.158  44.368   1.765
12317W        W84632  13.788  16.600   1.281
12318W        W84633  35.931  44.378  12.559
12319W        W84634  14.271  24.188  10.455
12320W        W84635  42.322  43.986  14.429
12321W        W84636  12.829  25.005   1.786
12322W        W84637   3.221   4.892   0.921
12323W        W84638  26.171  22.733  12.510
12324W        W84639  44.906  13.806   0.473
12325W        W84640   6.912  34.887  13.381
12326W        W84641  19.118  32.955  10.410
12327W        W84642  23.205  22.179   4.754
12328W        W84643  40.021  19.203   4.820
12329W        W84644  14.326  31.999  13.356
12330W        W84645  23.154  44.341   2.359
12331W        W84646  44.987   9.649  12.523
12332W        W84647  38.929  31.442  14.280
12333W        W84648   4.331  12.217  14.922
12334W        W84649  38.826  34.470  13.964
12335W        W84650  33.954  33.126  12.365
12336W        W84651  38.326  14.747   1.278
12337W        W84652   6.386  21.065   3.680
12338W        W84653  44.785  24.210   3.177
12339W        W84654  33.995  31.407   2.312
12340W        W84655  38.571  43.870  13.356
12341W        W84656  41.372  10.737  11.516
12342W        W84657  22.691   8.753   5.173
12343W        W84658  23.551   4.802   2.355
12344W        W84659  17.168  25.525  10.952
12345W        W84660  10.174   7.406   1.861
12346W        W84661  36.848  17.771   0.921
12347W        W84662  42.993   1.248   3.148
12348W        W84663  37.904  12.644   0.794
12349W        W84664   7.264   4.923  12.366
12350W        W84665   6.396  39.968  14.833
12351W        W84666  44.896  25.703   1.340
12352W        W84667  39.044  39.351   4.246
12353W        W84668  32.597   2.424   1.360
12354W        W84669  23.170  16.609   0.726
12355W        W84670  11.693  10.327   5.195
12356W        W84671  38.512  44.384   1.389
12357W        W84672  10.218  38.014   4.690
12358W        W84673  22.042  20.044  13.938
12359W        W84674  43.856  13.679   2.244
12360W        W84675  32.619  39.488  12.444
12361W        W84676  39.365   3.329  14.966
12362W        W84677  38.365  41.395   3.227
12363W        W84678  30.095  25.588   2.375
12364W        W84679  18.057  14.747   0.327
12365W        W84680  42.936  20.722   3.330
12366W        W84681  33.970   2.850  13.886
12367W        W84682   0.767  18.622   0.441
12368W        W84683  39.484  10.361   4.307
12369W        W84684   8.354  33.432  11.957
12370W        W84685  34.095  15.281   3.659
12371W        W84686  14.753  39.511   1.864
12372W        W84687   9.658  22.078   0.821
12373W        W84688   4.417  43.430  14.815
12374W        W84689  42.375   3.854   0.955
12375W        W84690  25.112  17.075   4.821
12376W        W84691  19.130   5.355   0.839
12377W        W84692  36.416  22.657   0.412
12378W        W84693  12.257  22.200   2.296
12379W        W84694  20.200  43.485   2.841
12380W        W84695  16.602  23.131   3.208
12381W        W84696  42.828  25.208   4.672
12382W        W84697  41.024  28.497   0.961
12383W        W84698  13.315  19.092  13.541
12384W        W84699  31.026  24.025  14.509
12385W        W84700   0.272   2.240  13.359
12386W        W84701   8.358  11.734   4.188
12387W        W84702  34.560   9.150   1.366
12388W        W84703  26.701  28.480  10.455
12389W        W84704  37.061  36.556   0.411
12390W        W84705   2.947  19.151   0.453
12391W        W84706  13.261  32.062  11.392
12392W        W84707   0.852  16.618  13.892
12393W        W84708  15.606  23.607  12.036
12394W        W84709   7.185  16.774  11.863
12395W        W84710  29.076  16.639  12.890
12396W        W84711  28.141  25.487  11.471
12397W        W84712  23.618  17.124  13.800
12398W        W84713   5.263  23.564   2.288
12399W        W84714   0.813   6.716  14.885
12400W        W84715  21.711  17.733  12.548
12401W        W84716  25.612  24.218   4.626
12402W        W84717   0.460   7.321  13.050
12403W        W84718  36.868   0.756  14.851
12404W        W84719  13.153  30.514   4.246
12405W        W84720   6.831   6.337  12.464
12406W        W84721  15.324  15.629  12.496
12407W        W84722  34.999   6.334   0.378
12408W        W84723  20.104  12.683  13.804
12409W        W84724   6.891  41.810  11.932
12410W        W84725  14.773  29.963   2.357
12411W        W84726  10.635  19.776   1.357
12412W        W84727   1.746  26.951   2.317
12413W        W84728   7.361  20.526  12.550
12414W        W84729  35.601   0.418   3.759
12415W        W84730   7.276  12.723  14.454
12416W        W84731  21.752   6.262   3.817
12417W        W84732  20.151   8.355  10.044
12418W        W84733  32.142   0.850   3.184
12419W        W84734  31.544  23.085  10.499
12420W        W84735  11.668  35.487   3.288
12421W        W84736   7.780  26.533   0.350
12422W        W84737  28.097  28.968   4.642
12423W        W84738  21.022  35.874   4.314
12424W        W84739  32.599   3.788  13.951
12425W        W84740  31.130  18.074   1.710
12426W        W84741  25.638  16.600  11.057
12427W        W84742   8.711  38.410  11.477
12428W        W84743  29.022  31.641   4.129
12429W        W84744  37.365  13.264   3.780
12430W        W84745  41.353   1.733   0.797
12431W        W84746  41.023  33.577   3.338
12432W        W84747   1.450   6.320  10.993
12433W        W84748  20.241  16.254   1.864
12434W        W84749  36.038  31.130  14.938
12435W        W84750  32.067  15.772  12.909
12436W        W84751  35.448  30.108  10.590
12437W        W84752  33.095  41.387  11.425
12438W        W84753  34.049  30.621  14.303
12439W        W84754  14.141  25.603  12.985
12440W        W84755  22.134  36.080   0.411
12441W        W84756  10.808  15.681   4.169
12442W        W84757  17.268  40.908   5.130
12443W        W84758  10.240  24.610  13.814
12444W        W84759  30.469  36.871  14.769
12445W        W84760  32.403  25.468  10.480
12446W        W84761   1.845  40.833  14.804
12447W        W84762  31.102  22.093   1.885
12448W        W84763  23.135  26.141   1.438
12449W        W84764  38.983  26.087   5.619
12450W        W84765   3.735  26.069  13.346
12451W        W84766   4.762  17.184  12.505
12452W        W84767  13.796  42.508   0.768
12453W        W84768   4.937  43.499   0.299
12454W        W84769  33.132  42.997  12.888
12455W        W84770  43.802  34.451   0.946
12456W        W84771  26.523   8.872   2.705
12457W        W84772  19.770  38.520  14.835
12458W        W84773   2.775  29.096   2.784
12459W        W84774  41.896   5.758  13.410
12460W        W84775  10.138   3.414   0.377
12461W        W84776  13.798  30.452  12.824
12462W        W84777  43.421  12.312   1.746
12463W        W84778  35.879  38.931   4.631
12464W        W84779  25.478   2.867   0.323
12465W        W84780  34.497  34.864   1.330
12466W        W84781   2.866  34.385   2.841
12467W        W84782  37.964   0.914   1.280
12468W        W84783  13.259  27.555  12.427
12469W        W84784  11.348  26.670  12.430
12470W        W84785  39.840  15.587   2.327
12471W        W84786   3.825   1.342  12.369
12472W        W84787  14.777  23.556  14.510
12473W        W84788  19.046  18.143  13.903
12474W        W84789  18.650   7.800   9.564
12475W        W84790   1.896  34.450   0.870
12476W        W84791   8.694  20.247  13.985
12477W        W84792  28.456  25.528   3.661
12478W        W84793  28.081  14.103   4.738
12479W        W84794  16.710  10.697   5.083
12480W        W84795  37.536  21.558   3.350
12481W        W84796  28.557  11.300   2.317
12482W        W84797   2.345  35.925  10.004
12483W        W84798   3.847  26.978  14.935
12484W        W84799   5.752  32.962  11.120
12485W        W84800  38.422  13.615   1.810
12486W        W84801  26.026  20.080   3.335
12487W        W84802   3.719  21.229  12.094
12488W        W84803  39.032  18.574   1.324
12489W        W84804  40.318  25.598  12.478
12490W        W84805  38.487  33.891  13.977
12491W        W84806  31.982  11.346  10.052
12492W        W84807  13.739   0.468  11.099
12493W        W84808  29.959  16.148   3.224
12494W        W84809  17.582  44.988   3.286
12495W        W84810  43.809  16.230  11.881
12496W        W84811  17.140   3.736  13.996
12497W        W84812   8.849  11.360  10.596
12498W        W84813  27.978  17.635   3.232
12499W        W84814   4.865  43.793  12.487
12500W        W84815  29.524   9.335   2.204
12501W        W84816  42.994  41.509  13.361
12502W        W84817  19.120   0.361  12.528
12503W        W84818  17.235   6.380   4.692
12504W        W84819  26.186  17.669   1.827
12505W        W84820  25.523  12.816   1.857
12506W        W84821  12.349  33.492   3.171
12507W        W84822  40.034  38.838   0.946
12508W        W84823  42.005  20.575  13.372
12509W        W84824  14.320  23.599   1.281
12510W        W84825  33.123  19.055  13.428
12511W        W84826  43.858  12.619   3.768
12512W        W84827  10.659  19.583  12.943
12513W        W84828  23.675  19.565   2.662
12514W        W84829  41.352   4.393   1.368
12515W        W84830  23.714  35.969  10.973
12516W        W84831  30.526  26.997  12.985
12517W        W84832   1.244  36.962   0.858
12518W        W84833   5.201  41.786   2.300
12519W        W84834  39.358   8.256  14.982
12520W        W84835  38.823   9.668  10.528
12521W        W84836  20.562  36.458   4.746
12522W        W84837  33.518  31.611  11.451
12523W        W84838   1.792  29.103  14.975
12524W        W84839   7.791   0.976   4.689
12525W        W84840  12.141  23.177   2.801
12526W        W84841   5.711  20.543  11.114
12527W        W84842   0.851   5.362  11.494
12528W        W84843   8.823  17.080  13.379
12529W        W84844  13.303  27.023  14.783
12530W        W84845  33.079   1.858   2.225
12531W        W84846  15.764   6.418  12.375
12532W        W84847   1.390   1.424   2.791
12533W        W84848  19.707  18.088   0.304
12534W        W84849   6.368  28.163   0.787
12535W        W84850  31.974  16.661  13.457
12536W        W84851  28.474  15.228  14.952
12537W        W84852  21.673  36.957   4.150
12538W        W84853  19.145   1.925   0.397
12539W        W84854   0.312  24.182   1.840
12540W        W84855  34.956  12.854   3.631
12541W        W84856  20.525  42.802  10.609
12542W        W84857   5.912  15.146   2.831
12543W        W84858  43.316  31.510  13.382
12544W        W84859   5.834  40.528  12.412
12545W        W84860  28.178  14.788  13.336
12546W        W84861  14.626  28.070   0.474
12547W        W84862  22.164  16.130   0.907
12548W        W84863   8.183  15.152   0.831
12549W        W84864   7.684  38.545  12.372
12550W        W84865   0.845  37.052   1.373
12551W        W84866  15.774  33.017   3.676
12552W        W84867  42.507  32.062  11.547
12553W        W84868  34.984  14.274   2.807
12554W        W84869  40.471  36.593  10.976
12555W        W84870  21.746  36.064   2.873
12556W        W84871  17.257  31.636  12.845
12557W        W84872  28.107  16.635  11.000
12558W        W84873  17.756  17.781   1.730
12559W        W84874  17.660  28.464   2.861
12560W        W84875  23.677   8.258  11.061
12561W        W84876   4.887   7.339  13.827
12562W        W84877  44.408  44.320   1.434
12563W        W84878  32.423  27.553  12.830
12564W        W84879  31.564  38.507   3.166
12565W        W84880  42.406  20.067   2.833
12566W        W84881  10.709   2.405  14.974
12567W        W84882  28.610  32.520  13.469
12568W        W84883  43.351  31.583  14.914
12569W        W84884  37.485  23.664  13.002
12570W        W84885   4.214  22.540   4.696
12571W        W84886  37.044  14.661  12.953
12572W        W84887  34.585  19.673  11.595
12573W        W84888   8.285  44.321   0.422
12574W        W84889  26.003  36.576   2.777
12575W        W84890   3.300  43.829  13.513
12576W        W84891  37.460  19.205  14.338
12577W        W84892  27.135  12.828  10.528
12578W        W84893   0.364  28.457   0.849
12579W        W84894  36.017  34.953   3.147
12580W        W84895  23.495  29.604  13.933
12581W        W84896  31.411  29.128  12.936
12582W        W84897   9.698   6.747   3.730
12583W        W84898   9.191   3.448   0.784
12584W        W84899  30.004  10.643   2.340
12585W        W84900   6.808   3.752  12.890
12586W        W84901  11.294  44.457   3.858
12587W        W84902  33.433   4.314  10.974
12588W        W84903  19.086  12.318   4.299
12589W        W84904   0.976  41.849   0.902
12590W        W84905  34.475   6.889   2.894
12591W        W84906  13.232  10.349  10.573
12592W        W84907  22.556  12.261   0.423
12593W        W84908  30.484  38.480  12.957
12594W        W84909  44.421   9.152   2.781
12595W        W84910  42.451  39.385  10.891
12596W        W84911  25.150  21.756  13.334
12597W        W84912   8.777  31.466   1.372
12598W        W84913   5.323   2.331  12.573
12599W        W84914  19.266  29.431   4.756
12600W        W84915   4.401  20.106  12.997
12601W        W84916  35.938   2.247   5.109
12602W        W84917   1.880  18.057   2.261
12603W        W84918  14.200  23.160   0.465
12604W        W84919  33.065  36.067   1.913
12605W        W84920  41.958   7.298  10.492
12606W        W84921   6.759  11.150   2.885
12607W        W84922   7.405   2.731   0.367
12608W        W84923  43.782   9.163   1.755
12609W        W84924   9.741   5.905   1.304
12610W        W84925  19.101  17.085   0.907
12611W        W84926  22.118  31.934  11.938
12612W        W84927  29.938   8.724  10.584
12613W        W84928  32.135  39.348  12.039
12614W        W84929  24.594  10.659  11.440
12615W        W84930  27.139  12.744   4.657
12616W        W84931  36.980   2.866   0.387
12617W        W84932  36.545  40.883  12.469
12618W        W84933  28.571  27.577   1.818
12619W        W84934   1.478  11.858  13.380
12620W        W84935   6.411   0.314   0.408
12621W        W84936  37.365   5.368  14.805
12622W        W84937   7.698  25.676   3.164
12623W        W84938  20.171  32.976  14.385
12624W        W84939  28.523  15.587   3.371
12625W        W84940   6.336  40.548  12.509
12626W        W84941   9.666   6.755  11.490
12627W        W84942  36.357  15.108   1.275
12628W        W84943   2.335  30.413  12.548
12629W        W84944  11.373  33.500  13.995
12630W        W84945  22.090  40.001   2.709
12631W        W84946  35.420   8.319  13.344
12632W        W84947  25.048  41.425   4.277
12633W        W84948  20.534  22.154   2.809
12634W        W84949  13.302  37.483  13.040
12635W        W84950  43.352  35.089  12.978
12636W        W84951   6.845  17.789   3.357
12637W        W84952   2.366  29.468  11.377
12638W        W84953  16.125  33.486  10.961
12639W        W84954  43.883  43.448   1.383
12640W        W84955   6.836  43.421   1.331
12641W        W84956   8.175  29.026  11.439
12642W        W84957   7.276  26.059   2.810
12643W        W84958  32.072   2.410   3.350
12644W        W84959  18.592  35.505   4.691
12645W        W84960  15.289  31.477  12.849
12646W        W84961  18.781  12.797   2.220
12647W        W84962   3.442   9.354   4.670
12648W        W84963  16.738  25.032   0.922
12649W        W84964  27.995  29.950   4.837
12650W        W84965   6.402  29.655  14.485
12651W        W84966   5.395  33.495  10.453
12652W        W84967  32.541  15.794   5.112
12653W        W84968  43.466  23.684  11.519
12654W        W84969  43.286  30.443   3.849
12655W        W84970  19.151  10.339  10.536
12656W        W84971  18.274  17.629   3.770
12657W        W84972   4.913   4.724  12.903
12658W        W84973  36.855   4.835   0.782
12659W        W84974  41.501  20.722   0.282
12660W        W84975  10.283  39.000  13.915
12661W        W84976   6.877  22.660   1.887
12662W        W84977   4.204  30.601   4.303
12663W        W84978   8.211  42.831   4.153
12664W        W84979  32.023  22.187  11.565
12665W        W84980  22.546   7.305   3.787
12666W        W84981   7.743  23.514  10.126
12667W        W84982  20.229  17.136   4.341
12668W        W84983  29.482  23.036  12.071
12669W        W84984  39.557  21.073  13.832
12670W        W84985  11.742  12.621  10.982
12671W        W84986  35.596  33.090   2.724
12672W        W84987  31.974  28.060  13.355
12673W        W84988  26.968  10.639   3.833
12674W        W84989  39.942  40.938   0.835
12675W        W84990   2.723  18.745   0.908
12676W        W84991   8.722  18.247   3.312
12677W        W84992  25.624  14.750   0.896
12678W        W84993  10.205  16.190   4.255
12679W        W84994  32.466  41.369   1.345
12680W        W84995  20.134  10.290   3.841
12681W        W84996  38.516  26.968   3.357
12682W        W84997  19.542  14.812  12.460
12683W        W84998  38.474  19.209  14.798
12684W        W84999  35.581  22.638   0.833
12685W        W85000   3.378  33.085  12.859
12686W        W85001  11.361  33.906  14.888
12687W        W85002  26.584  40.369   2.859
12688W        W85003  26.593  39.557   2.848
12689W        W85004  15.083  39.376  13.918
12690W        W85005  44.456  34.011   4.660
12691W        W85006  10.879  25.542  12.470
12692W        W85007  16.228  10.371   3.863
12693W        W85008  35.042  36.392  12.352
12694W        W85009  36.070  39.906   4.206
12695W        W85010  24.091  20.752  12.841
12696W        W85011  32.456  37.071  11.510
12697W        W85012   7.411  20.680   0.372
12698W        W85013  16.106   2.472  13.438
12699W        W85014  13.756  35.569   0.925
12700W        W85015  44.445   9.647   2.279
12701W        W85016  23.711  41.373  10.545
12702W        W85017   6.704  36.365  11.576
12703W        W85018  27.633  30.454   2.225
12704W        W85019  18.738   9.776  11.059
12705W        W85020  28.998  25.502  10.977
12706W        W85021  22.659  21.751   2.681
12707W        W85022  24.632  39.933  14.282
12708W        W85023  20.532  29.953   1.390
12709W        W85024   6.424  34.482  12.521
12710W        W85025  40.332   8.664  13.390
12711W        W85026  12.307   2.856  14.015
12712W        W85027  41.791  27.180  14.833
12713W        W85028  17.080  15.806   2.719
12714W        W85029  13.311   8.747  10.611
12715W        W85030  14.708  29.137   9.926
12716W        W85031  34.873  27.498   1.371
12717W        W85032  27.196   3.912   3.371
12718W        W85033  39.021  20.062  11.863
12719W        W85034   3.285  37.007   2.189
12720W        W85035  16.170   6.423  11.475
12721W        W85036  21.688  31.921   1.701
12722W        W85037  26.637   5.217  12.397
12723W        W85038  22.658   0.405  14.904
12724W        W85039  16.299  42.970   2.868
12725W        W85040  20.106  26.116  11.387
12726W        W85041  21.594  26.631  10.572
12727W        W85042  36.044  44.998   0.268
12728W        W85043  35.481   7.719  14.287
12729W        W85044  32.446  36.396   3.369
12730W        W85045  30.981   6.701   3.730
12731W        W85046  41.906  34.061  12.997
12732W        W85047  42.795  36.412  14.452
12733W        W85048  20.239  20.745  11.068
12734W        W85049  16.800   8.388   2.744
12735W        W85050  35.894  19.113  11.055
12736W        W85051  11.223  28.184  13.822
12737W        W85052  15.674  36.929  12.397
12738W        W85053   1.434  17.062   0.402
12739W        W85054  27.473  24.209   4.115
12740W        W85055   9.225  17.285   0.820
12741W        W85056  13.765  11.343  13.929
12742W        W85057  35.518  10.151  12.456
12743W        W85058  32.011  32.959  11.482
12744W        W85059  44.819  23.137   0.885
12745W        W85060  29.090  12.210  12.468
12746W        W85061  34.050  18.105  13.035
12747W        W85062  38.966  19.169   1.354
12748W        W85063  10.877  39.017  10.557
12749W        W85064   6.388  36.967  14.409
12750W        W85065  29.549  23.495  14.803
12751W        W85066  10.231  35.019   1.295
12752W        W85067   1.281   6.798  10.456
12753W        W85068   1.460  36.000  10.990
12754W        W85069  26.195  33.029   0.918
12755W        W85070   5.870  42.303   3.727
12756W        W85071  10.330  20.199   1.349
12757W        W85072  26.968  27.167  13.801
12758W        W85073  34.485  36.950  10.912
12759W        W85074  16.230  43.994  13.354
12760W        W85075  25.638  20.677  11.516
12761W        W85076   7.874  31.416   2.734
12762W        W85077  32.615  17.699  11.973
12763W        W85078  22.592  15.789  10.508
12764W        W85079  16.661  29.123  14.379
12765W        W85080   0.427  21.186  13.881
12766W        W85081  13.110  29.529   1.909
12767W        W85082   9.389  12.166  13.796
12768W        W85083   4.334  41.828   0.363
12769W        W85084  12.852   7.226   0.958
12770W        W85085  11.197  40.323   3.232
12771W        W85086  38.879  13.281  11.956
12772W        W85087  16.219  39.447   0.791
12773W        W85088  17.598  39.900   0.308
12774W        W85089  38.424  27.547   2.784
12775W        W85090   1.806  41.862   2.881
12776W        W85091  41.406  11.678  11.075
12777W        W85092  25.074  17.218  14.309
12778W        W85093  33.993  21.261  10.541
12779W        W85094  38.972  28.074  12.492
12780W        W85095  44.500   4.242   4.289
12781W        W85096  18.239   8.804  12.396
12782W        W85097  41.963  25.548  13.385
12783W        W85098  31.408  10.222   0.856
12784W        W85099  22.706  15.145   0.816
12785W        W85100   3.450   2.850   0.377
12786W        W85101   4.433  25.189  11.389
12787W        W85102  41.941   6.848  12.094
12788W        W85103  35.955  12.197  11.477
12789W        W85104   6.232  20.748  13.016
12790W        W85105   2.286  16.673  13.362
12791W        W85106  25.501  25.036   4.795
12792W        W85107  19.770  42.365   4.320
12793W        W85108   3.723  38.470  14.922
12794W        W85109  34.891  29.026  14.356
12795W        W85110  11.805   9.649   2.201
12796W        W85111  24.056  40.373   3.768
12797W        W85112  43.850  22.121  12.493
12798W        W85113  34.938  19.610  12.454
12799W        W85114   8.660  31.919  12.554
12800W        W85115  39.441  22.655   3.288
12801W        W85116  27.692   6.739   2.343
12802W        W85117   2.747  32.425   0.443
12803W        W85118  32.902  42.891   3.772
12804W        W85119   2.880  20.200  11.555
12805W        W85120  31.570  11.331  12.369
12806W        W85121  11.344  37.040  12.971
12807W        W85122  30.058  25.636  11.581
12808W        W85123  39.359  33.601   0.727
12809W        W85124  44.943  36.864  12.088
12810W        W85125  17.792  29.073   1.707
12811W        W85126   9.362  41.398  14.441
12812W        W85127  16.805  34.043   2.210
12813W        W85128  28.625  37.871   3.642
12814W        W85129  28.127  16.309   3.379
12815W        W85130  38.899  29.994  12.966
12816W        W85131  44.944   7.330  11.894
12817W        W85132  24.639   7.277  12.921
12818W        W85133  37.496  41.966  10.439
12819W        W85134  20.144  33.481   1.354
12820W        W85135  18.182  37.958   2.267
12821W        W85136  13.274   2.260  12.875
12822W        W85137  22.233  21.661  12.062
12823W        W85138   1.378   9.844   4.752
12824W        W85139  41.380  16.254   0.300
12825W        W85140  10.871  18.094   9.500
12826W        W85141  22.520   8.900  11.881
12827W        W85142  38.534  16.639   2.789
12828W        W85143   4.806   5.731   2.311
12829W        W85144  22.196  17.107  13.057
12830W        W85145  31.628  28.929   4.256
12831W        W85146  11.150   7.251  14.473
12832W        W85147  12.826  23.133   1.402
12833W        W85148  31.987   5.780   1.293
12834W        W85149  40.963  20.208  10.417
12835W        W85150  40.019  13.693  12.504
12836W        W85151  39.439  18.241   2.407
12837W        W85152   4.721  34.895   4.801
12838W        W85153  37.891   1.884  14.870
12839W        W85154  14.105  43.278   4.730
12840W        W85155  17.595   7.170   4.666
12841W        W85156  41.356   9.826   2.323
12842W        W85157  11.193  40.519  13.023
12843W        W85158   7.815  39.998   2.340
12844W        W85159  10.652   4.426   4.708
12845W        W85160  39.338  30.437   1.282
12846W        W85161  33.494  38.886  14.964
12847W        W85162  24.656  44.753   3.227
12848W        W85163  41.949  34.505   1.227
12849W        W85164   7.217   9.817   0.288
12850W        W85165  43.834  20.072  12.578
12851W        W85166  32.528  11.325  14.769
12852W        W85167  21.746  37.874   2.813
12853W        W85168  16.115  21.629   4.636
12854W        W85169  10.723  14.144   5.308
12855W        W85170  10.741  44.349  10.639
12856W        W85171  29.610  32.110   3.859
12857W        W85172  29.936  28.972  12.962
12858W        W85173  28.104  35.073   3.214
12859W        W85174  41.433   6.380  13.989
12860W        W85175  37.398  12.278  14.783
12861W        W85176  30.962  33.608   3.340
12862W        W85177  20.738  21.571  10.439
12863W        W85178   6.743  44.461  10.041
12864W        W85179  19.269  27.476  10.535
12865W        W85180  32.426   0.286   3.636
12866W        W85181  22.548  43.838  10.925
12867W        W85182   6.312  14.682  13.009
12868W        W85183  35.931  32.416   1.836
12869W        W85184  38.995  17.234   2.377
12870W        W85185  24.087   7.205  14.389
12871W        W85186  32.501  25.987   2.758
12872W        W85187  17.100  23.018  12.015
12873W        W85188   1.780  29.529  11.887
12874W        W85189  30.641  27.483   0.811
12875W        W85190  37.367   4.825  11.032
12876W        W85191   3.225  12.339  10.994
12877W        W85192   6.719  41.473   0.310
12878W        W85193  27.026  20.053  12.374
12879W        W85194  17.596  17.768  13.430
12880W        W85195  11.157   7.814  11.914
12881W        W85196  28.988  16.262   3.768
12882W        W85197  43.765  14.241  12.388
12883W        W85198   4.439  41.517   4.258
12884W        W85199  30.441  42.394  10.466
12885W        W85200   6.903   3.271   5.166
12886W        W85201  42.994  10.290   3.304
12887W        W85202  17.265  31.585  10.443
12888W        W85203  30.007   5.250  11.887
12889W        W85204  26.973  17.167   3.869
12890W        W85205  21.258   1.884  14.995
12891W        W85206  22.578  14.152   0.324
12892W        W85207  37.074  27.006   1.408
12893W        W85208  24.493   9.393  14.023
12894W        W85209  14.786  44.972  12.988
12895W        W85210  28.130  13.646   4.618
12896W        W85211  17.633  12.643   4.300
12897W        W85212   8.827  39.482  12.004
12898W        W85213  37.055   9.813  13.451
12899W        W85214  17.653   8.824   5.119
12900W        W85215   5.811   3.808   0.814
12901W        W85216  26.666  38.490  13.868
12902W        W85217  11.863   8.261   3.356
12903W        W85218  15.791   3.401   5.239
12904W        W85219  24.698   6.417  12.828
12905W        W85220   5.213   1.282   1.695
12906W        W85221  21.093  17.112   4.762
12907W        W85222  30.659  12.776   3.299
12908W        W85223  28.545  18.283  14.012
12909W        W85224  30.519  11.140   4.649
12910W        W85225  41.447   0.976  12.871
12911W        W85226  39.542  20.524  10.590
12912W        W85227  25.979  26.589   5.118
12913W        W85228   3.834  43.439  11.912
12914W        W85229  28.451  35.079  12.475
12915W        W85230  36.379  39.814   1.867
12916W        W85231   1.827   9.249   4.134
12917W        W85232  10.374  31.498   2.746
12918W        W85233  16.223  12.656   1.811
12919W        W85234  26.608   0.823  11.405
12920W        W85235  22.721  23.190   4.705
12921W        W85236  28.533  31.117  11.038
12922W        W85237  18.163  36.582  14.419
12923W        W85238   9.262  11.784   1.360
12924W        W85239  14.286  13.656   4.789
12925W        W85240  19.122   3.852  14.019
12926W        W85241  23.663  23.721  13.944
12927W        W85242  38.449  26.593  12.062
12928W        W85243  29.637  32.430  14.983
12929W        W85244  43.306   0.944  10.514
12930W        W85245  16.212   4.895   0.376
12931W        W85246   6.247  27.493  13.064
12932W        W85247  18.064  13.659   3.201
12933W        W85248  33.892  28.661  14.004
12934W        W85249  11.292   1.346   0.416
12935W        W85250   6.819  22.593   0.888
12936W        W85251  28.075  31.136  12.002
12937W        W85252  36.421  31.072   4.677
12938W        W85253  22.037  29.639  12.022
12939W        W85254  17.123  34.073   1.316
12940W        W85255  33.030  43.358   2.409
12941W        W85256   7.245   2.363  13.382
12942W        W85257  17.275  33.948  10.557
12943W        W85258   8.829  37.402   1.897
12944W        W85259   7.808   8.686   0.318
12945W        W85260  35.523  25.646  13.042
12946W        W85261   2.361  44.895   4.635
12947W        W85262  41.295  22.722   3.713
12948W        W85263  41.848  31.518  14.977
12949W        W85264  19.639  16.302   3.151
12950W        W85265  31.518   2.943   1.896
12951W        W85266  26.023  22.663  11.601
12952W        W85267  27.007  12.818  14.866
12953W        W85268  14.280  16.183   4.288
12954W        W85269  27.490  43.270  13.872
12955W        W85270   2.867  28.540   1.298
12956W        W85271  39.467  32.625  11.509
12957W        W85272  44.403  27.167   2.729
12958W        W85273   9.723  35.396   3.377
12959W        W85274   5.709  34.404  12.846
12960W        W85275  35.594   7.697   3.721
12961W        W85276  29.965  27.589  12.528
12962W        W85277  26.664   2.810  12.496
12963W        W85278  33.526  33.522  10.117
12964W        W85279   0.848   2.817   2.753
12965W        W85280  32.134  15.090   1.914
12966W        W85281  13.629  37.361   4.125
12967W        W85282  23.150   4.312  13.008
12968W        W85283  44.878  20.110  13.055
12969W        W85284  33.465  10.160  13.804
12970W        W85285  15.266  39.935  14.958
12971W        W85286  40.803  17.790  11.445
12972W        W85287   6.369  36.521   4.601
12973W        W85288  16.606  18.130   0.952
12974W        W85289  40.010   4.765   3.343
12975W        W85290   8.841  17.069   5.180
12976W        W85291  31.962  35.377  13.507
12977W        W85292  43.435  42.507   3.370
12978W        W85293  12.200  10.191  12.541
12979W        W85294   1.876  43.789   3.348
12980W        W85295  44.435  14.625  10.039
12981W        W85296  35.492  17.101   3.251
12982W        W85297  37.023  36.535   3.263
12983W        W85298   7.317  15.129  13.896
12984W        W85299  39.984  34.941   2.244
12985W        W85300   5.297  20.654  13.880
12986W        W85301  22.674  27.969  12.401
12987W        W85302  15.177  12.691   2.383
12988W        W85303   8.190  25.713   3.671
12989W        W85304  17.298  14.180  11.387
12990W        W85305  37.843   0.978   2.269
12991W        W85306  11.845  41.964  14.990
12992W        W85307  18.133   5.688   4.708
12993W        W85308  37.007   4.422   1.442
12994W        W85309  25.511  17.208   5.155
12995W        W85310  39.893   1.950  13.532
12996W        W85311  22.249  27.188  12.523
12997W        W85312   0.779   9.811   0.353
12998W        W85313   6.278  21.732   1.750
12999W        W85314  12.221  12.758   0.413
13000W        W85315  25.033  13.681  14.004
13001W        W85316   4.447   8.665  12.830
13002W        W85317  16.589   5.283   2.314
13003W        W85318  37.407  25.469   5.203
13004W        W85319  15.237   1.269  13.308
13005W        W85320  10.801  13.336  10.939
13006W        W85321  12.644  25.213   2.294
13007W        W85322  29.650  19.075   0.354
13008W        W85323  18.581  10.276  14.394
13009W        W85324  30.021  31.631   3.344
13010W        W85325   4.765  30.543   2.808
13011W        W85326  39.832  18.095  12.548
13012W        W85327   1.349  31.485  12.848
13013W        W85328  41.443  10.298   4.652
13014W        W85329  26.489  12.200   0.776
13015W        W85330   5.859  15.815   2.726
13016W        W85331  26.969  36.044  15.000
13017W        W85332   4.305   4.313  12.508
13018W        W85333  44.461  21.187   1.213
13019W        W85334  33.881  27.680   0.337
13020W        W85335  38.878  16.719  12.827
13021W        W85336  15.712   2.297   2.302
13022W        W85337  38.919  41.310   2.318
13023W        W85338  16.726  30.439   2.824
13024W        W85339  32.441   5.738   2.387
13025W        W85340  21.094  12.703   2.792
13026W        W85341  31.494  43.973  13.400
13027W        W85342  35.359  32.095   0.432
13028W        W85343  35.867   9.159  11.445
13029W        W85344   1.799   9.333   0.460
13030W        W85345   5.789  34.552  14.829
13031W        W85346  30.648  15.096  12.368
13032W        W85347  29.489  35.037  13.884
13033W        W85348  26.509   3.792   2.846
13034W        W85349  26.185  10.819   1.760
13035W        W85350  24.583   8.854   3.814
13036W        W85351   6.682  19.118  12.455
13037W        W85352   0.774   5.813  10.996
13038W        W85353  33.947  14.599  13.431
13039W        W85354  22.633  33.493  12.532
13040W        W85355  44.797  36.565  14.452
13041W        W85356  14.604   0.793   3.263
13042W        W85357   1.302  43.498  12.478
13043W        W85358  33.915  41.935  11.859
13044W        W85359   0.987  16.653   4.256
13045W        W85360  43.863  22.228   4.660
13046W        W85361   9.286  22.135   4.609
13047W        W85362   3.863  22.099  13.961
13048W        W85363  19.265  33.941  11.945
13049W        W85364  16.806  30.954  10.019
13050W        W85365  44.480   4.225   3.677
13051W        W85366  41.304  24.142   2.217
13052W        W85367   0.428  12.741  13.980
13053W        W85368  30.143   0.280  10.927
13054W        W85369  26.502   5.791  10.465
13055W        W85370  10.732   5.898   3.308
13056W        W85371   4.711  11.664   0.313
13057W        W85372  42.410  10.879  12.007
13058W        W85373  38.075   0.918   2.794
13059W        W85374  27.041  19.253  14.788
13060W        W85375  15.692  28.511  10.447
13061W        W85376  14.615  37.839  10.541
13062W        W85377   9.727  16.715   4.262
13063W        W85378  25.518  43.416   4.636
13064W        W85379  23.204  44.326   3.703
13065W        W85380  35.413   7.708  14.930
13066W        W85381  39.485   8.840  10.917
13067W        W85382  39.399  22.511   2.692
13068W        W85383  14.796  29.524   1.278
13069W        W85384  25.507  30.545  14.856
13070W        W85385  22.085  10.181   0.872
13071W        W85386   7.763  16.117  14.401
13072W        W85387   9.889  29.627   2.298
13073W        W85388  32.903  28.583  13.954
13074W        W85389  18.614  33.965   0.922
13075W        W85390  29.469   0.296  11.389
13076W        W85391  41.336   2.735  11.420
13077W        W85392   8.841  42.858   2.896
13078W        W85393  37.900  29.923   0.270
13079W        W85394  17.084   8.885  13.473
13080W        W85395  19.216  37.907  12.939
13081W        W85396  40.383  28.648   1.299
13082W        W85397  27.662  26.140  13.521
13083W        W85398  18.162  35.567   4.120
13084W        W85399  31.599  41.890  14.360
13085W        W85400  22.547   5.911  13.479
13086W        W85401  15.646  38.422  14.009
13087W        W85402  32.539  43.285   0.383
13088W        W85403  36.419   3.874   2.686
13089W        W85404  34.053  20.056   3.867
13090W        W85405  41.461   7.862  11.574
13091W        W85406  29.036  14.224  13.867
13092W        W85407  43.780  22.998   1.325
13093W        W85408   8.224  24.185  13.985
13094W        W85409  13.262   4.793   0.967
13095W        W85410  24.556  25.609  13.994
13096W        W85411  33.073   0.458  11.567
13097W        W85412  21.697  24.543   0.322
13098W        W85413  15.812  35.870  13.854
13099W        W85414  22.013  40.381  14.004
13100W        W85415  13.643  26.098  14.776
13101W        W85416  43.984   6.808  14.279
13102W        W85417  23.033   7.301   3.178
13103W        W85418  13.650  10.860   0.809
13104W        W85419   4.362   3.233  12.506
13105W        W85420   2.324  31.049   3.171
13106W        W85421  13.835  32.462  10.888
13107W        W85422   8.288  35.972   1.933
13108W        W85423  10.745  17.601   3.308
13109W        W85424  28.635  37.013  11.575
13110W        W85425  41.483  36.563   2.358
13111W        W85426  11.179  37.843  14.801
13112W        W85427   9.859  35.898   2.772
13113W        W85428  12.719  15.185   0.789
13114W        W85429   6.255   4.212   4.320
13115W        W85430  14.139   9.199  10.617
13116W        W85431  25.986   6.322   1.712
13117W        W85432  26.632  18.651  13.006
13118W        W85433  26.130  29.988  14.331
13119W        W85434  34.417   8.767  13.404
13120W        W85435   3.822  29.582   4.305
13121W        W85436  23.984  17.220   0.333
13122W        W85437   5.813   4.252   1.258
13123W        W85438  43.354  11.704   2.883
13124W        W85439   5.427  20.047   3.299
13125W        W85440   6.852  20.565  10.409
13126W        W85441  30.991  33.381   2.373
13127W        W85442  13.345  18.111  10.921
13128W        W85443  37.888  24.036  13.021
13129W        W85444   9.166  27.013  14.861
13130W        W85445  17.069  41.388  13.025
13131W        W85446  41.876  31.620  14.014
13132W        W85447  25.597  12.166  10.621
13133W        W85448  17.152  35.454  14.508
13134W        W85449  31.948   5.749   0.324
13135W        W85450  43.273  41.998  13.053
13136W        W85451   1.385  37.414   1.773
13137W        W85452  15.724  32.636  13.994
13138W        W85453   9.233   1.878   3.670
13139W        W85454  33.554  27.676   4.118
13140W        W85455  22.594  38.872   2.750
13141W        W85456   1.864  34.521  14.374
13142W        W85457  41.844  18.744   3.859
13143W        W85458  44.907   4.436  10.632
13144W        W85459  12.263   5.752  11.048
13145W        W85460  21.521  37.482  11.557
13146W        W85461  15.248  39.408   0.796
13147W        W85462  23.731  20.117   3.313
13148W        W85463  35.017  35.001   4.283
13149W        W85464  27.660  39.431   2.745
13150W        W85465  11.234  39.539  10.503
13151W        W85466  17.657  40.992  14.363
13152W        W85467  14.652  41.474   2.245
13153W        W85468  11.278  18.199  13.437
13154W        W85469   1.852  27.028   1.830
13155W        W85470  14.172  31.999   0.311
13156W        W85471  18.197   5.334  11.476
13157W        W85472  20.610  17.626   2.795
13158W        W85473  42.032  11.286  14.860
13159W        W85474  40.307  39.019  10.421
13160W        W85475  34.047  31.053   3.742
13161W        W85476  26.567  29.644   2.721
13162W        W85477  10.658   9.392   4.324
13163W        W85478  19.271  26.692  12.419
13164W        W85479  37.065  26.116   3.368
13165W        W85480  11.646  22.541   3.640
13166W        W85481  20.152  13.700  10.540
13167W        W85482  23.590   9.678   0.935
13168W        W85483  28.600   9.848  12.479
13169W        W85484   2.307  15.630   3.192
13170W        W85485  14.802  37.997  14.896
13171W        W85486  27.566  26.012  14.299
13172W        W85487  18.200  39.817   2.664
13173W        W85488  11.679  33.531   1.366
13174W        W85489  32.423   9.286   3.371
13175W        W85490   7.326   0.271   4.695
13176W        W85491  30.021  31.553  11.592
13177W        W85492  34.920  16.117  10.521
13178W        W85493  11.271  34.481  14.805
13179W        W85494   1.282  22.018  12.562
13180W        W85495  11.727  29.056  10.475
13181W        W85496  15.747  23.572  12.370
13182W        W85497  23.056  39.529  10.610
13183W        W85498  40.459  43.881  11.974
13184W        W85499  35.372   7.185   1.237
13185W        W85500  28.548  32.113  12.877
13186W        W85501   4.362  40.964  13.902
13187W        W85502   7.299   5.234   0.904
13188W        W85503   5.859  22.673   2.375
13189W        W85504  38.955   3.451  10.107
13190W        W85505  34.064  30.074   0.869
13191W        W85506  19.664  11.273  11.495
13192W        W85507  39.025  19.116   4.247
13193W        W85508   3.303  33.439  12.073
13194W        W85509  21.209   6.280  11.066
13195W        W85510  13.262  32.547  12.852
13196W        W85511   0.860  42.812   5.166
13197W        W85512  25.015   1.321  11.413
13198W        W85513   5.848   9.675   4.747
13199W        W85514   4.224  44.934   4.689
13200W        W85515   8.704  42.520   1.833
13201W        W85516   0.848  10.370   4.204
13202W        W85517  14.663   2.303  10.985
13203W        W85518   1.370   4.230   2.875
13204W        W85519  15.809  21.719   1.925
13205W        W85520   8.733  43.307  14.462
13206W        W85521  42.325   6.285   1.873
13207W        W85522  38.503   3.339   3.155
13208W        W85523  21.139  43.896  11.928
13209W        W85524  37.447  42.814  14.302
13210W        W85525  22.514  25.122   1.356
13211W        W85526  18.628  13.220  13.308
13212W        W85527   7.891  36.940   2.882
13213W        W85528  14.681  43.835  11.863
13214W        W85529  13.669  26.610  13.343
13215W        W85530  38.501  24.707  11.518
13216W        W85531  36.482  27.667   0.962
13217W        W85532  11.326  23.222  12.339
13218W        W85533  25.506   1.948  13.411
13219W        W85534  17.182  44.819  14.990
13220W        W85535  17.798  21.588   0.316
13221W        W85536  34.106  23.004   1.804
13222W        W85537  18.092  38.362   5.264
13223W        W85538  13.161  29.996   0.353
13224W        W85539   1.403  41.505  13.347
13225W        W85540  18.123  43.805   1.443
13226W        W85541   7.416  42.024  13.991
13227W        W85542   8.874  43.281   3.242
13228W        W85543  22.030   2.361  14.302
13229W        W85544  34.917  29.122   1.797
13230W        W85545   6.844   1.283   2.877
13231W        W85546  10.234  28.116  12.833
13232W        W85547  35.365  41.864   1.371
13233W        W85548   1.301  40.539  11.516
13234W        W85549  42.345  36.421  13.002
13235W        W85550  18.150  10.658   2.250
13236W        W85551   6.875  16.765   1.283
13237W        W85552  32.891  14.829   1.402
13238W        W85553  16.123  41.925   0.281
13239W        W85554  44.966  21.635   4.265
13240W        W85555  38.063  23.687  11.960
13241W        W85556  26.108  19.681  11.503
13242W        W85557   7.261  21.679  14.388
13243W        W85558  21.150  34.535  13.020
13244W        W85559  29.643  43.777   3.230
13245W        W85560  32.594  41.509   4.308
13246W        W85561  26.597  15.235  11.883
13247W        W85562   8.358   9.644  11.372
13248W        W85563  14.304  27.463   2.356
13249W        W85564  42.471  37.926  11.593
13250W        W85565   8.844  36.017  12.409
13251W        W85566  16.605  44.979  10.966
13252W        W85567  40.381  18.285   1.922
13253W        W85568   3.807  42.947  14.490
13254W        W85569  40.014  24.492   2.881
13255W        W85570  31.608   0.397   4.819
13256W        W85571  11.832   3.273   3.337
13257W        W85572   8.798  33.895   2.689
13258W        W85573  34.116  19.228   4.204
13259W        W85574  14.810  41.874   1.387
13260W        W85575  32.503  43.457   3.312
13261W        W85576   9.354  39.518  12.378
13262W        W85577  16.292  26.092  12.982
13263W        W85578  23.067  33.384  13.010
13264W        W85579  43.329  11.332   1.793
13265W        W85580  11.321  38.490  12.059
13266W        W85581  19.267  36.950   4.838
13267W        W85582  25.002  24.153   4.287
13268W        W85583  43.308   9.208  10.511
13269W        W85584  36.846  30.119   2.839
13270W        W85585   7.765  39.560  10.916
13271W        W85586   9.832  23.163  14.287
13272W        W85587  22.140  26.470   4.608
13273W        W85588   4.389   7.886  14.960
13274W        W85589  28.059  37.510  13.416
13275W        W85590  30.021  31.516   2.384
13276W        W85591   9.303  19.160   2.820
13277W        W85592  31.569  10.174  12.888
13278W        W85593  30.466   9.206   0.266
13279W        W85594  39.834  33.887  11.563
13280W        W85595  25.674  44.317   9.924
13281W        W85596  17.226  10.775   1.705
13282W        W85597  41.006  40.508  10.473
13283W        W85598  43.361   7.186  13.850
13284W        W85599  28.638  16.292   2.233
13285W        W85600   0.934   9.810   2.273
13286W        W85601   6.715   0.457  12.519
13287W        W85602  41.527  14.196   2.868
13288W        W85603   0.479  32.949   2.369
13289W        W85604   8.797  21.126   0.894
13290W        W85605  40.471  20.250  12.012
13291W        W85606  12.197  43.494  10.405
13292W        W85607  17.715  16.134  13.534
13293W        W85608  26.085  15.228  13.044
13294W        W85609  34.966  29.047  11.046
13295W        W85610  24.482  35.391  11.389
13296W        W85611   0.424  39.949  11.896
13297W        W85612   7.277  18.690   1.791
13298W        W85613  13.291   1.891  11.905
13299W        W85614  40.952  39.941   0.303
13300W        W85615   3.803  34.393  13.431
13301W        W85616   3.285   2.949  12.885
13302W        W85617  12.346  32.026  11.528
13303W        W85618   0.411  18.057  14.834
13304W        W85619   6.729  13.667  14.897
13305W        W85620  24.067  40.945   0.905
13306W        W85621   5.876  10.701  10.467
13307W        W85622  20.092  19.069   4.732
13308W        W85623  30.481   7.721   1.451
13309W        W85624  43.899   8.197   2.414
13310W        W85625   5.418  10.741   2.813
13311W        W85626  23.616  35.384   0.806
13312W        W85627  12.221  12.772   2.402
13313W        W85628   2.814  42.302   3.339
13314W        W85629  32.893  16.147   2.241
13315W        W85630  19.711   6.789  11.088
13316W        W85631  12.214  11.340   2.390
13317W        W85632   8.762  34.095   4.126
13318W        W85633  25.108  37.404   9.983
13319W        W85634   9.182   1.888  11.072
13320W        W85635   6.700  17.129  12.836
13321W        W85636   2.259  43.482  11.470
13322W        W85637  17.678   9.678   9.924
13323W        W85638  29.013  37.524   4.235
13324W        W85639  32.503  39.508   2.374
13325W        W85640  25.513  14.808   1.899
13326W        W85641   9.258  39.054  14.799
13327W        W85642  12.631  27.649   0.834
13328W        W85643  21.757  14.304  13.995
13329W        W85644  18.624  43.465  12.532
13330W        W85645   7.703  16.587   3.868
13331W        W85646  15.141  12.628   3.315
13332W        W85647  16.198  19.120   4.225
13333W        W85648  42.295  43.483  11.103
13334W        W85649  19.716  17.062  10.997
13335W        W85650   8.222  11.280  13.047
13336W        W85651  17.268   7.713  12.473
13337W        W85652  21.238   4.915   3.213
13338W        W85653  43.778  17.180  14.408
13339W        W85654  13.145  26.508   5.283
13340W        W85655   3.345   3.278   0.813
13341W        W85656  14.677   7.777  14.387
13342W        W85657  31.963  36.388   4.232
13343W        W85658  18.138   5.886  12.534
13344W        W85659  35.043  42.332  14.459
13345W        W85660  13.836  33.607  13.506
13346W        W85661   2.294  14.698  10.625
13347W        W85662   4.883  35.373   4.324
13348W        W85663  33.543  33.969   1.870
13349W        W85664   4.867  29.616   5.249
13350W        W85665  14.816  22.180  10.924
13351W        W85666   7.324   3.446   4.721
13352W        W85667  11.742  31.609   2.681
13353W        W85668  25.704   3.229   4.323
13354W        W85669  11.783   5.405  12.387
13355W        W85670   0.371  40.493   0.869
13356W        W85671  22.110  39.491  10.431
13357W        W85672  36.970  30.004   1.329
13358W        W85673  20.739  36.962  13.536
13359W        W85674  33.509   9.237  11.912
13360W        W85675  39.462  12.336  13.842
13361W        W85676  42.870  31.028   0.281
13362W        W85677  32.483  19.271  14.449
13363W        W85678  44.817  16.787  14.760
13364W        W85679  37.468  11.135   9.944
13365W        W85680  12.738   4.239   1.860
13366W        W85681  40.477  16.621   3.853
13367W        W85682  18.187  38.455  13.924
13368W        W85683   6.688  10.350   2.841
13369W        W85684  41.000  11.797   1.713
13370W        W85685  28.646  19.258  14.333
13371W        W85686  29.004  37.510   1.357
13372W        W85687  15.148  13.213  12.460
13373W        W85688  32.950  27.594  12.529
13374W        W85689  31.046  16.200   0.942
13375W        W85690  15.189  29.519  12.398
13376W        W85691   6.228  23.638  14.422
13377W        W85692  16.146   0.284  12.571
13378W        W85693  41.515  40.501   4.252
13379W        W85694  36.555  21.719  11.908
13380W        W85695  13.336  23.204  14.370
13381W        W85696  39.356  17.141  13.823
13382W        W85697  32.964  42.500   1.409
13383W        W85698  25.128   4.841  10.998
13384W        W85699   5.906  37.345  13.370
13385W        W85700   5.238   8.854  14.794
13386W        W85701  19.270  39.900  10.504
13387W        W85702  19.724  41.955   5.236
13388W        W85703  10.345  20.243   0.798
13389W        W85704   8.298  22.674  14.420
13390W        W85705  17.676  42.287   3.177
13391W        W85706  33.611   0.304  12.033
13392W        W85707  25.207   9.746   1.890
13393W        W85708  19.248  18.270   0.814
13394W        W85709  44.339   9.196   1.273
13395W        W85710  19.728  26.503  13.914
13396W        W85711  17.761   8.253  13.871
13397W        W85712  19.048   2.801  12.556
13398W        W85713  30.603   9.748  12.057
13399W        W85714  10.383   9.693   0.307
13400W        W85715  35.030  16.204  14.029
13401W        W85716  23.100  21.679   2.275
13402W        W85717  30.933  41.324   0.924
13403W        W85718  42.433  36.503  14.850
13404W        W85719  24.584  15.752  12.042
13405W        W85720  24.489   5.314  13.869
13406W        W85721  34.605   6.370  11.931
13407W        W85722  43.011  41.038  13.793
13408W        W85723  23.603  25.997  13.909
13409W        W85724  38.349   3.812  14.927
13410W        W85725  29.552  27.944   3.754
13411W        W85726  41.880  23.153   2.194
13412W        W85727  21.192  32.445   0.901
13413W        W85728  20.733  24.530   3.370
13414W        W85729  28.151   7.704  11.928
13415W        W85730  39.459  29.077   5.270
13416W        W85731  26.493   9.826   1.790
13417W        W85732  26.170  31.555  12.995
13418W        W85733  16.110  42.870  14.466
13419W        W85734  15.101  42.960   0.745
13420W        W85735  17.739  11.760  11.461
13421W        W85736  28.057  24.687   0.731
13422W        W85737   7.693   6.851   0.459
13423W        W85738  25.082  14.702  14.771
13424W        W85739  37.392  39.456  11.906
13425W        W85740  22.124   8.369  11.597
13426W        W85741  23.226  17.792  12.423
13427W        W85742  39.544   8.317   4.152
13428W        W85743  28.675   7.248   1.771
13429W        W85744   1.852  38.420   4.621
13430W        W85745  32.008   4.943  11.525
13431W        W85746  12.688  16.234   0.319
13432W        W85747   2.765  42.409   1.386
13433W        W85748  40.356  20.236  13.828
13434W        W85749  17.189   3.839  14.316
13435W        W85750  29.644  42.508  14.431
13436W        W85751  17.091  43.420  11.061
13437W        W85752  41.959   0.430   1.343
13438W        W85753   0.956  34.041  12.925
13439W        W85754   2.348  30.527  10.486
13440W        W85755  16.253  19.181  14.930
13441W        W85756   7.689  15.226  13.869
13442W        W85757  10.283   5.722  14.290
13443W        W85758  37.020   5.776   2.268
13444W        W85759  12.830   9.327  12.548
13445W        W85760   9.673  28.070  11.044
13446W        W85761  23.137   5.302  11.041
13447W        W85762  20.114  16.144   4.668
13448W        W85763  16.611  44.782   3.685
13449W        W85764  26.588  20.236   1.840
13450W        W85765  30.599  21.182   2.749
13451W        W85766  42.849  20.208  13.033
13452W        W85767   5.335   8.729   3.267
13453W        W85768   6.336   9.780  14.958
13454W        W85769   0.807  31.006   3.765
13455W        W85770   3.825  35.040  11.118
13456W        W85771   8.268  15.774  11.438
13457W        W85772  41.501  18.559   1.876
13458W        W85773  11.215  42.809  11.378
13459W        W85774   2.929  14.217   0.364
13460W        W85775  16.743  10.669  11.449
13461W        W85776   7.811  29.534   0.270
13462W        W85777  27.051   5.234  10.042
13463W        W85778  40.317  38.917  11.448
13464W        W85779  40.000  21.116   2.232
13465W        W85780   4.233   3.819   2.303
13466W        W85781  32.554  22.548   2.186
13467W        W85782   3.890  20.598   2.237
13468W        W85783  19.108  29.113  13.503
13469W        W85784   0.277  23.659   1.362
13470W        W85785  17.734  17.142  11.108
13471W        W85786  24.519  32.410  13.805
13472W        W85787  23.565  31.462  12.954
13473W        W85788  11.250  17.236  13.530
13474W        W85789  39.443  11.358   4.816
13475W        W85790  16.202  39.964   5.180
13476W        W85791  22.074  38.545  14.769
13477W        W85792  18.642  25.211  14.023
13478W        W85793  38.350  20.703   0.416
13479W        W85794  28.558  10.859   4.832
13480W        W85795  30.044   8.823   3.694
13481W        W85796  12.652  37.909   1.424
13482W        W85797   3.923  28.070   3.683
13483W        W85798  10.349   2.822  13.538
13484W        W85799  30.079  24.556  11.524
13485W        W85800   7.199  15.313  12.428
13486W        W85801  38.034  11.710   4.262
13487W        W85802  44.421  16.795  12.094
13488W        W85803  41.021  25.540  11.611
13489W        W85804  42.373   9.340  13.512
13490W        W85805  42.355  42.946   2.352
13491W        W85806  27.638  30.483   1.827
13492W        W85807   0.986  16.707   2.898
13493W        W85808  36.998   5.282  14.873
13494W        W85809   3.326  29.107  14.772
13495W        W85810  39.052   4.339  13.825
13496W        W85811  36.543  16.657   0.740
13497W        W85812  43.461  15.124   2.193
13498W        W85813  29.154  44.393  11.569
13499W        W85814  25.172  29.494  12.401
13500W        W85815   2.334  14.725  14.336
13501W        W85816  15.790   1.964  11.576
13502W        W85817   0.971  27.148   4.812
13503W        W85818   6.397   0.849   1.745
13504W        W85819  42.807  21.627   2.811
13505W        W85820  26.592  42.337   4.242
13506W        W85821  24.162  19.266  12.572
13507W        W85822  42.906   0.977  11.061
13508W        W85823  41.433  35.949   2.718
13509W        W85824  16.089  31.500   4.264
13510W        W85825  27.085  20.733   0.928
13511W        W85826  22.682  11.256  13.481
13512W        W85827  41.370  43.363  13.996
13513W        W85828   4.722  18.123  12.864
13514W        W85829  38.981   7.328   3.223
13515W        W85830  13.144  13.763   3.242
13516W        W85831  38.551  41.327  11.998
13517W        W85832   7.269  24.982   4.806
13518W        W85833  26.466  30.568   1.271
13519W        W85834   7.794  38.863   5.123
13520W        W85835  21.603  12.342  12.483
13521W        W85836  41.921  22.642  10.030
13522W        W85837  38.050  20.643  14.826
13523W        W85838  30.122  10.829   1.902
13524W        W85839   5.355   3.781   0.383
13525W        W85840  25.619  17.777   3.820
13526W        W85841  44.930  14.729   3.363
13527W        W85842  10.352  28.134   5.145
13528W        W85843  41.797  39.547   2.728
13529W        W85844  44.002  29.558  11.550
13530W        W85845   9.190   0.271   1.702
13531W        W85846  20.705  13.301   4.122
13532W        W85847  44.370  13.195  11.965
13533W        W85848  15.239  41.971  13.823
13534W        W85849   2.250  43.431  10.607
13535W        W85850  42.822  38.968  13.877
13536W        W85851   9.737  27.502   1.916
13537W        W85852  10.804  22.599   4.786
13538W        W85853  12.270   4.838  12.929
13539W        W85854  43.872  24.002  11.419
13540W        W85855  33.622   5.268  10.616
13541W        W85856  42.810  37.832  12.377
13542W        W85857  25.567   7.812  11.013
13543W        W85858  38.463  11.229  12.940
13544W        W85859  32.512  22.595  12.404
13545W        W85860   1.885  30.648   2.808
13546W        W85861  28.034  14.688  14.385
13547W        W85862  35.097   5.852  10.121
13548W        W85863  15.706  43.952   2.840
13549W        W85864   8.343  38.370  13.867
13550W        W85865  40.879  29.534   4.137
13551W        W85866   8.172   1.824   0.475
13552W        W85867  35.905  37.910  14.004
13553W        W85868  34.427  32.074   0.263
13554W        W85869  33.065  12.797   2.817
13555W        W85870   1.826  37.976   4.266
13556W        W85871  30.147  15.629   3.307
13557W        W85872  34.092  23.240  14.307
13558W        W85873  27.046  21.719   2.195
13559W        W85874  35.983   5.817   1.420
13560W        W85875  26.106  10.265   0.313
13561W        W85876  18.127  33.920   2.729
13562W        W85877  34.864  43.895  13.534
13563W        W85878  25.177  33.078   2.768
13564W        W85879  27.087  31.091   9.923
13565W        W85880  18.204  12.657   3.854
13566W        W85881   4.348  25.524  14.311
13567W        W85882  24.544   8.307  13.499
13568W        W85883  15.215  18.663   4.253
13569W        W85884  16.659  31.030  13.903
13570W        W85885  31.469   8.663  14.779
13571W        W85886  35.358  12.669  10.620
13572W        W85887  23.029  33.500   4.691
13573W        W85888   2.345   1.733  12.342
13574W        W85889  31.950  44.909  11.937
13575W        W85890  25.541  11.849  10.576
13576W        W85891  14.149  40.319  11.870
13577W        W85892  24.545   6.361  12.398
13578W        W85893  38.482  16.188   3.230
13579W        W85894  43.826  10.224  13.531
13580W        W85895  34.903  15.130   4.180
13581W        W85896  25.699  10.249   2.790
13582W        W85897   3.244  14.219   1.302
13583W        W85898  33.920  11.822  10.893
13584W        W85899  15.229  29.038   9.961
13585W        W85900  19.569  22.655  11.900
13586W        W85901  29.946   7.253  14.800
13587W        W85902   5.386   4.283   3.750
13588W        W85903  23.575  26.042   1.234
13589W        W85904  14.799  31.431  11.548
13590W        W85905  17.685  19.746   0.948
13591W        W85906   7.363  23.536  11.443
13592W        W85907  19.049  24.562   1.315
13593W        W85908  24.591  41.365  10.572
13594W        W85909  33.963  41.912   3.802
13595W        W85910  25.614  39.827   4.254
13596W        W85911  13.811  32.429   1.886
13597W        W85912  37.533  32.064  12.570
13598W        W85913   3.880   8.245   1.356
13599W        W85914   9.392  28.656   3.780
13600W        W85915  10.263  15.109   3.649
13601W        W85916  11.244  25.139  10.897
13602W        W85917  24.508   3.939  13.040
13603W        W85918  10.779  17.587   3.869
13604W        W85919  17.706  17.157   3.824
13605W        W85920  11.215  19.045   1.822
13606W        W85921   0.965  26.047   0.307
13607W        W85922  43.779   8.162  10.918
13608W        W85923  23.720   0.485   2.784
13609W        W85924  39.022  13.834   4.818
13610W        W85925  42.499  30.567   2.806
13611W        W85926  13.295   2.868  13.815
13612W        W85927  15.147  11.637  10.556
13613W        W85928  15.250   6.762  11.946
13614W        W85929  21.722  36.854  14.006
13615W        W85930  16.307  43.874  10.640
13616W        W85931  27.022  29.486  13.882
13617W        W85932   9.258  19.774   0.957
13618W        W85933  19.744  36.354  11.414
13619W        W85934  37.512   0.309  11.386
13620W        W85935  39.390  10.839  14.457
13621W        W85936  11.809  34.904   5.173
13622W        W85937  28.455  20.599   1.883
13623W        W85938  23.514   9.672  11.375
13624W        W85939  28.173  22.656  13.006
13625W        W85940  12.118  38.430   0.330
13626W        W85941  35.498   4.880   2.807
13627W        W85942   4.801  44.327  10.494
13628W        W85943  10.747  41.411   1.843
13629W        W85944  39.919  29.153  13.462
13630W        W85945  22.237  29.042   4.120
13631W        W85946   0.860  25.004  14.439
13632W        W85947  41.401  30.453   3.714
13633W        W85948  41.920  34.477  10.902
13634W        W85949  42.968  22.674  11.489
13635W        W85950  38.990  33.925   3.844
13636W        W85951   1.965  18.123   3.685
13637W        W85952  41.356  41.837  13.804
13638W        W85953  28.035  16.697   0.349
13639W        W85954  20.268   3.345   0.920
13640W        W85955  24.502  43.928  10.554
13641W        W85956  31.004  41.493   0.387
13642W        W85957   4.933  16.144  10.150
13643W        W85958  12.290   9.811   4.176
13644W        W85959  43.898  34.403   5.256
13645W        W85960   7.407   8.727   4.666
13646W        W85961   7.730  14.117  14.309
13647W        W85962  34.383  15.300   0.949
13648W        W85963  33.957  26.682  14.365
13649W        W85964   2.869   3.225   4.181
13650W        W85965  43.365  18.116  14.505
13651W        W85966  22.211  14.679   4.829
13652W        W85967   9.304  27.086   3.743
13653W        W85968  39.463  12.199   1.302
13654W        W85969  38.015  36.088  11.409
13655W        W85970   0.837   7.196   4.233
13656W        W85971  41.341  42.452   4.297
13657W        W85972  43.302  18.224  12.903
13658W        W85973  37.582  31.117   0.278
13659W        W85974  44.904  42.514  14.889
13660W        W85975  36.847  33.926   3.816
13661W        W85976   3.822   2.877  13.911
13662W        W85977  42.989  40.387   4.237
13663W        W85978  34.883  11.212  12.426
13664W        W85979  38.383  44.774  14.008
13665W        W85980  32.425   4.890   3.716
13666W        W85981  24.159  37.015   4.598
13667W        W85982   7.409  14.723  12.089
13668W        W85983  28.040  30.141   3.716
13669W        W85984  13.233  35.402   3.720
13670W        W85985  23.120  17.760   4.777
13671W        W85986  12.631  25.477   0.371
13672W        W85987  30.491  10.268  11.084
13673W        W85988   5.276  27.611   0.829
13674W        W85989  12.764  16.747  14.876
13675W        W85990   4.343  34.572  10.433
13676W        W85991   0.884  22.554   2.709
13677W        W85992   5.353  27.461  14.932
13678W        W85993  11.194  24.504   3.849
13679W        W85994  41.307  26.966  11.978
13680W        W85995  44.949   0.850   4.132
13681W        W85996  41.340  33.426   4.170
13682W        W85997  18.761   0.313  14.026
13683W        W85998  19.169  17.561  14.900
13684W        W85999  27.956  22.580   4.603
13685W        W86000  33.558  13.129   2.382
13686W        W86001   1.812  40.053   1.295
13687W        W86002  18.092  27.026  14.852
13688W        W86003  41.973   9.806  11.936
13689W        W86004  44.406  44.851  11.015
13690W        W86005  20.151  39.528   4.749
13691W        W86006  14.807  28.662  10.925
13692W        W86007  39.470  34.405   4.125
13693W        W86008   1.427  33.618  14.452
13694W        W86009   8.876  41.416  10.088
13695W        W86010  43.317  42.399  12.394
13696W        W86011  34.470  11.325  13.994
13697W        W86012  31.525   5.771   0.338
13698W        W86013  38.394   9.872  12.085
13699W        W86014  33.537  32.543  14.470
13700W        W86015  23.014  25.679   2.836
13701W        W86016  37.446   9.332   1.243
13702W        W86017  44.770  36.932   3.706
13703W        W86018   9.870  29.625  10.428
13704W        W86019  26.094  32.471  10.928
13705W        W86020  31.120  36.468   3.186
13706W        W86021   0.296  28.016  13.795
13707W        W86022  43.471  43.320   0.824
13708W        W86023  13.727  25.655  14.851
13709W        W86024  31.535  32.012  11.032
13710W        W86025  33.468  37.459   3.181
13711W        W86026  43.466   8.201  12.567
13712W        W86027  39.978  28.541   3.821
13713W        W86028   9.740  23.117   2.412
13714W        W86029  12.819  25.629   2.347
13715W        W86030  29.168  44.788   2.674
13716W        W86031  13.296  24.078  12.526
13717W        W86032   7.829  20.194  12.438
13718W        W86033  41.423  24.096  12.339
13719W        W86034   7.829  18.075   3.816
13720W        W86035  11.659  26.195   1.882
13721W        W86036  24.589  16.581   3.309
13722W        W86037   7.771   5.220   4.285
13723W        W86038  13.704  40.898  13.331
13724W        W86039   4.262   1.774  13.373
13725W        W86040  23.222   2.420   3.793
13726W        W86041  36.872  18.560  10.480
13727W        W86042  16.748  28.639  11.383
13728W        W86043  40.354  28.955   3.152
13729W        W86044  30.431  35.565  14.985
13730W        W86045  21.197  38.031   4.293
13731W        W86046  22.577  26.997  12.069
13732W        W86047  27.941  43.433  10.987
13733W        W86048   0.876  17.107   9.988
13734W        W86049  37.050   6.381   3.265
13735W        W86050  26.175  44.414   1.337
13736W        W86051  43.496  19.716   1.258
13737W        W86052  21.168  10.814  10.955
13738W        W86053  21.520  27.998   4.650
13739W        W86054   2.250  15.274  15.000
13740W        W86055   2.339   1.738  11.510
13741W        W86056  19.259  33.931  14.777
13742W        W86057  28.519  39.331   2.676
13743W        W86058  33.960  42.289  14.829
13744W        W86059   7.787  28.509   4.739
13745W        W86060  31.001  42.936   5.312
13746W        W86061  28.056  31.959   1.879
13747W        W86062  23.206  22.143  13.363
13748W        W86063  42.022  35.942  11.123
13749W        W86064  28.984   2.317  10.989
13750W        W86065  22.183   6.835  12.025
13751W        W86066  35.934  39.439   2.410
13752W        W86067   5.826  15.815   3.807
13753W        W86068  32.131  25.075  11.433
13754W        W86069  10.649  13.215  13.915
13755W        W86070  33.570  44.291   2.745
13756W        W86071  36.929   9.355  12.467
13757W        W86072  13.308   0.927   5.088
13758W        W86073  18.735  30.463   3.287
13759W        W86074  33.116  14.107  13.982
13760W        W86075  40.814  29.164   0.884
13761W        W86076   3.418  22.163   3.230
13762W        W86077  17.196  34.479   4.213
13763W        W86078   9.747  20.061  11.443
13764W        W86079   5.868  28.588   1.704
13765W        W86080   4.931  17.599  10.914
13766W        W86081  27.677  29.110  10.931
13767W        W86082  29.520  29.010  11.985
13768W        W86083  22.596  15.165   1.406
13769W        W86084  28.487  17.287  13.499
13770W        W86085  44.988  22.239   0.790
13771W        W86086  28.955  17.778   3.260
13772W        W86087  30.454  16.169   2.367
13773W        W86088  20.273   9.823  13.808
13774W        W86089  18.174  33.579   0.870
13775W        W86090   0.823   2.459   0.887
13776W        W86091   4.729  14.773  14.484
13777W        W86092  25.506  39.374   4.147
13778W        W86093   5.897  19.640   0.250
13779W        W86094   4.724  34.589   1.694
13780W        W86095  24.558  27.180   2.690
13781W        W86096  38.423  34.893  11.980
13782W        W86097   6.245  13.772   2.398
13783W        W86098  11.678  28.633  12.533
13784W        W86099  36.907  37.962  10.427
13785W        W86100   0.839  32.087  14.355
13786W        W86101  38.542  25.538  10.478
13787W        W86102  34.407   2.373   1.924
13788W        W86103  31.982  38.833   2.801
13789W        W86104  40.039  39.811  11.588
13790W        W86105  21.178  24.568  12.468
13791W        W86106   3.375  38.548  12.444
13792W        W86107  34.435  23.084   2.371
13793W        W86108  40.338  18.659  11.516
13794W        W86109  31.445  39.860  12.088
13795W        W86110  35.398  16.303  13.413
13796W        W86111  19.745  10.331  14.908
13797W        W86112  19.606   3.431  12.412
13798W        W86113  40.032   2.455  12.913
13799W        W86114  40.363  39.929  12.086
13800W        W86115   8.401  19.664  14.352
13801W        W86116  10.140  37.554  12.913
13802W        W86117   5.911  44.340  12.405
13803W        W86118  18.588   9.232   0.956
13804W        W86119  44.484  17.120  11.419
13805W        W86120  26.163  19.206   1.917
13806W        W86121   6.878  25.535  11.080
13807W        W86122  10.358  10.222   1.346
13808W        W86123  19.119  35.472   0.482
13809W        W86124  22.182  38.444  11.605
13810W        W86125  40.432   4.812  13.895
13811W        W86126  22.195   3.454  11.029
13812W        W86127  19.279  19.766  12.834
13813W        W86128  23.687  19.668   4.235
13814W        W86129  21.631  25.505   0.905
13815W        W86130  43.314  10.251   4.615
13816W        W86131  24.496  19.757   9.485
13817W        W86132  26.673  32.443  13.904
13818W        W86133  15.212  23.127  12.009
13819W        W86134  18.282  21.711   3.264
13820W        W86135  21.658   3.453   3.267
13821W        W86136  31.572   4.728  12.051
13822W        W86137  27.465  38.850   1.244
13823W        W86138  29.637  11.135   3.742
13824W        W86139   3.362  35.490  12.573
13825W        W86140  13.649  24.638   4.690
13826W        W86141  35.528  34.061   1.734
13827W        W86142  32.540  26.124  13.972
13828W        W86143   5.829  42.838  13.507
13829W        W86144  38.954  39.379   4.836
13830W        W86145  31.497  38.356  12.914
13831W        W86146   2.732   5.741  13.794
13832W        W86147   9.257  15.764   0.377
13833W        W86148  34.608  44.834  12.057
13834W        W86149  14.270   9.844   0.244
13835W        W86150  41.376   6.808   0.303
13836W        W86151  44.400  26.653   1.342
13837W        W86152  37.884  18.198  12.088
13838W        W86153   0.297  41.435  11.502
13839W        W86154  20.663  43.943  10.497
13840W        W86155   2.736   3.289   0.914
13841W        W86156  23.118  23.725   4.250
13842W        W86157  25.194  44.450   0.420
13843W        W86158   7.417   3.873   1.277
13844W        W86159  26.082   5.807   2.728
13845W        W86160   1.853  16.757   1.766
13846W        W86161  39.887  23.988  11.482
13847W        W86162  10.713  36.553   3.718
13848W        W86163   7.377  14.316  10.547
13849W        W86164  22.173  16.090  13.956
13850W        W86165  27.489   5.709   2.289
13851W        W86166  32.031  34.498  12.470
13852W        W86167  22.544   9.336   3.659
13853W        W86168  33.056  44.286  14.927
13854W        W86169  26.545  32.575  12.970
13855W        W86170   5.260  10.859   0.249
13856W        W86171  27.096  33.539   0.442
13857W        W86172  30.071  37.351   3.283
13858W        W86173   4.288   5.714  14.364
13859W        W86174   1.353   1.263  14.375
13860W        W86175  11.771  11.267  13.843
13861W        W86176  26.150   7.892   2.250
13862W        W86177  37.451  17.308  12.089
13863W        W86178  18.063  41.503   1.388
13864W        W86179  35.573  34.870   4.255
13865W        W86180  38.895   6.698  12.342
13866W        W86181  36.485  21.749  10.428
13867W        W86182   9.694  19.188  13.961
13868W        W86183  25.654  37.010  11.987
13869W        W86184  39.991  32.142   5.110
13870W        W86185  42.488  18.240  14.402
13871W        W86186  43.799  27.482  12.484
13872W        W86187  14.641  36.426  13.062
13873W        W86188  11.666   6.240  13.499
13874W        W86189  43.922   7.786  14.829
13875W        W86190  43.920  23.691  12.093
13876W        W86191  33.080  44.382   1.324
13877W        W86192  42.440  20.032   1.364
13878W        W86193  22.023  37.379   4.227
13879W        W86194   3.276  36.419  14.857
13880W        W86195  18.296  36.384  12.006
13881W        W86196   8.290  17.675   3.735
13882W        W86197  32.525  20.083   4.348
13883W        W86198  40.425  42.468   2.878
13884W        W86199  36.570   6.386  14.370
13885W        W86200  20.722  37.484  11.020
13886W        W86201   7.409  12.197  12.874
13887W        W86202   0.845  15.114  10.479
13888W        W86203   0.369  17.715  13.962
13889W        W86204  10.174  33.433   5.172
13890W        W86205  13.680  25.148   1.803
13891W        W86206  42.823  22.078   2.380
13892W        W86207   2.327  23.517  11.995
13893W        W86208  39.028  44.287   5.177
13894W        W86209  40.928  39.386  11.111
13895W        W86210   2.879  13.814   0.313
13896W        W86211  37.038  38.461  14.461
13897W        W86212  28.051   7.893   3.691
13898W        W86213  33.501  42.356   3.235
13899W        W86214  20.058  38.544  10.420
13900W        W86215  43.430   9.863   2.187
13901W        W86216   6.261  26.692  14.784
13902W        W86217   1.785  29.449  11.116
13903W        W86218  33.434   1.910  13.871
13904W        W86219  38.965  17.793   0.957
13905W        W86220   7.278  18.073  13.876
13906W        W86221   8.213  29.968   1.217
13907W        W86222  10.263  44.394  11.436
13908W        W86223  18.722  29.033   0.814
13909W        W86224  11.862  22.044   0.450
13910W        W86225   7.852  20.030  12.831
13911W        W86226  44.963  33.015   4.285
13912W        W86227  38.530  42.908   5.121
13913W        W86228  11.628  41.474   1.905
13914W        W86229   9.241  19.115   0.963
13915W        W86230  42.519  32.588  12.459
13916W        W86231  31.016  15.241  13.526
13917W        W86232  30.105  35.090  10.414
13918W        W86233  40.027  31.530  12.340
13919W        W86234  37.576   3.402   2.403
13920W        W86235  20.263  32.116  12.871
13921W        W86236  33.619  26.111   1.311
13922W        W86237  23.988  19.262  14.798
13923W        W86238  30.082  36.011  14.326
13924W        W86239   9.665  20.215   1.781
13925W        W86240  39.931  30.945  11.464
13926W        W86241  34.518  15.302  14.453
13927W        W86242  32.507  14.153   3.843
13928W        W86243  13.157  42.352  11.031
13929W        W86244  10.796   6.915   2.180
13930W        W86245  10.726  38.891  10.076
13931W        W86246  13.333   9.166   0.378
13932W        W86247  44.367  13.644  12.028
13933W        W86248  13.238  31.909   1.232
13934W        W86249  12.730  43.284  12.381
13935W        W86250  14.250  38.055   2.215
13936W        W86251  16.184  26.158   2.206
13937W        W86252   5.783  17.248  14.826
13938W        W86253  29.070  28.617   0.285
13939W        W86254   5.768   2.280   3.374
13940W        W86255   4.896   0.887  12.961
13941W        W86256  18.735  12.661  10.565
13942W        W86257  35.561  40.304   4.714
13943W        W86258   5.399  42.807  13.022
13944W        W86259   6.896  26.001   0.285
13945W        W86260  10.670  44.363  14.453
13946W        W86261  29.988   5.363  14.831
13947W        W86262  39.481  31.902   4.331
13948W        W86263  35.556  16.663  11.875
13949W        W86264   0.368  22.557   1.733
13950W        W86265  10.318  33.011   2.193
13951W        W86266  23.654  16.177   0.286
13952W        W86267   5.754  28.584   1.395
13953W        W86268   1.783  28.504   2.884
13954W        W86269  17.632   6.215   1.298
13955W        W86270   1.746  26.488  10.531
13956W        W86271   4.294  37.925   2.189
13957W        W86272  25.546  31.931  13.493
13958W        W86273  24.201  32.044  12.384
13959W        W86274   5.262  22.561  10.070
13960W        W86275  22.583  10.730   0.330
13961W        W86276   5.831  20.634   1.262
13962W        W86277  41.361  30.130  14.025
13963W        W86278  31.123   0.335  10.625
13964W        W86279   3.415  39.910   2.279
13965W        W86280  44.838   0.412  13.943
13966W        W86281  32.431  32.621  13.375
13967W        W86282  13.122   7.702   0.837
13968W        W86283  16.793  30.951  13.312
13969W        W86284   6.384  17.250   1.262
13970W        W86285  42.459   4.428  11.092
13971W        W86286  44.469  18.257   1.225
13972W        W86287  19.273  38.527  12.477
13973W        W86288  28.152  15.301  11.965
13974W        W86289  22.099  34.610  14.347
13975W        W86290   3.845   7.792   0.752
13976W        W86291  26.996  40.891   4.746
13977W        W86292  14.672  37.338  12.021
13978W        W86293  10.643  40.989   0.484
13979W        W86294  25.602   8.260   2.200
13980W        W86295  27.581  41.515  14.355
13981W        W86296  40.799  29.459  12.427
13982W        W86297  29.563   0.823   5.191
13983W        W86298  24.718   0.893   2.774
13984W        W86299   7.818   7.228   2.220
13985W        W86300  19.197  38.004  10.639
13986W        W86301  14.731  38.447  12.018
13987W        W86302  25.631  30.963  12.978
13988W        W86303  15.104  43.771   2.377
13989W        W86304   8.791   4.336   4.804
13990W        W86305  16.184   8.878   4.604
13991W        W86306  31.605  40.031  10.936
13992W        W86307  41.894   7.330   4.759
13993W        W86308  42.283   4.340  11.539
13994W        W86309  13.257  10.654  10.473
13995W        W86310   3.855  14.315   0.297
13996W        W86311  40.324  12.142   2.689
13997W        W86312  17.253  18.676  14.910
13998W        W86313  14.335   0.267   4.316
13999W        W86314   5.411   5.830  13.036
14000W        W86315   8.673   1.739   4.162
14001W        W86316  39.440  13.610   2.378
14002W        W86317  21.025   2.793  12.517
14003W        W86318  21.685  17.260  14.801
14004W        W86319  14.602   5.206   1.212
14005W        W86320  16.162   6.391  10.026
14006W        W86321  20.675  26.674  13.323
14007W        W86322  35.092  11.705   2.884
14008W        W86323   4.812  16.249   1.356
14009W        W86324  44.764   7.383   2.735
14010W        W86325  28.071  37.469  12.975
14011W        W86326  28.169  34.432  12.826
14012W        W86327  36.945  34.412   2.407
14013W        W86328  11.693  15.772  13.027
14014W        W86329  35.481  23.105  12.950
14015W        W86330  20.158  18.780  14.365
14016W        W86331  19.280   1.416   1.338
14017W        W86332  24.023  33.463   5.210
14018W        W86333  30.106   5.378   2.208
14019W        W86334   7.215  41.043   1.425
14020W        W86335  30.555  24.111   1.289
14021W        W86336   2.735  36.579   3.304
14022W        W86337  43.012  18.238  12.378
14023W        W86338  14.136  24.092   1.229
14024W        W86339  11.167  43.359  12.843
14025W        W86340  24.725  43.413   3.300
14026W        W86341  24.631  36.888  14.769
14027W        W86342  41.899  26.204   0.933
14028W        W86343  10.723  23.239  10.925
14029W        W86344  25.512  12.826   2.366
14030W        W86345  22.580  21.081  10.413
14031W        W86346  36.094  11.848   2.882
14032W        W86347  35.965  22.628   1.430
14033W        W86348   5.728  29.562  14.841
14034W        W86349   8.753  42.493   3.275
14035W        W86350  11.679   5.874   0.775
14036W        W86351  21.640   0.888  12.482
14037W        W86352  15.174  13.618   0.795
14038W        W86353  36.518   1.867  10.641
14039W        W86354  30.001  40.538   2.356
14040W        W86355  34.500  43.974  11.613
14041W        W86356   2.374  11.265  10.028
14042W        W86357  25.025  10.729   3.379
14043W        W86358  41.946   6.875   2.253
14044W        W86359  41.941   7.844   4.255
14045W        W86360  34.895  13.736   4.775
14046W        W86361  13.307   9.194   2.682
14047W        W86362   9.211  12.278  12.839
14048W        W86363  12.324  17.272  14.783
14049W        W86364  19.125  21.076  11.437
14050W        W86365  13.174   2.239   3.815
14051W        W86366  31.050  10.220  10.053
14052W        W86367  26.524  36.375  11.445
14053W        W86368   7.909   5.254  13.799
14054W        W86369  34.384  38.423   4.712
14055W        W86370  34.531   1.847  14.797
14056W        W86371   8.733  37.494   3.265
14057W        W86372  18.161  27.981   4.748
14058W        W86373  19.129  16.778  12.491
14059W        W86374   8.201  29.471  12.002
14060W        W86375  37.527  12.628  13.429
14061W        W86376  21.528  10.829   0.795
14062W        W86377  25.094  12.694   0.738
14063W        W86378  29.533  24.578   1.806
14064W        W86379  36.858  12.340   3.660
14065W        W86380  23.535  28.015   4.599
14066W        W86381  17.245  20.103   3.380
14067W        W86382  17.590  36.044   2.279
14068W        W86383   6.871  11.814   4.134
14069W        W86384  36.555  28.065  13.974
14070W        W86385  26.466  34.600  13.428
14071W        W86386  17.126  40.043  10.537
14072W        W86387  36.039  17.102  11.015
14073W        W86388  27.635   3.913   5.603
14074W        W86389  22.018  30.128  13.960
14075W        W86390  10.698  39.883  14.508
14076W        W86391   7.724  11.321   1.821
14077W        W86392  28.493  24.503   2.801
14078W        W86393  18.681  40.926   2.672
14079W        W86394  29.101  15.641   2.324
14080W        W86395   6.719  15.587   0.441
14081W        W86396   0.830   0.301   3.282
14082W        W86397  36.578  27.537  14.357
14083W        W86398   2.246  18.752  14.501
14084W        W86399  20.070   7.221   0.959
14085W        W86400  16.102  20.201   4.288
14086W        W86401  20.211  21.163  12.578
14087W        W86402  34.401  44.418  13.356
14088W        W86403  28.983   3.270  10.528
14089W        W86404  25.075  28.656   0.853
14090W        W86405  10.172  25.176  12.945
14091W        W86406   5.903   8.658  11.567
14092W        W86407  18.122  40.458  12.971
14093W        W86408  43.361   5.693   3.360
14094W        W86409  12.705   6.902   2.222
14095W        W86410  33.054  17.078  13.537
14096W        W86411  18.081  11.285  10.093
14097W        W86412   7.378  24.570   0.959
14098W        W86413   9.341   9.190  12.927
14099W        W86414  40.820  23.551   1.269
14100W        W86415   5.247  21.240   3.299
14101W        W86416   6.245  39.011   0.398
14102W        W86417  17.096   8.891   1.856
14103W        W86418  26.700  42.338   2.747
14104W        W86419  22.054  19.115  10.119
14105W        W86420  27.040  34.112  10.032
14106W        W86421   7.808  27.046   3.688
14107W        W86422  12.693  30.000   1.439
14108W        W86423   6.353  40.456   4.682
14109W        W86424   9.856  43.382  14.345
14110W        W86425  30.123  44.392   9.938
14111W        W86426  21.743  20.195   0.935
14112W        W86427  41.423  32.057  12.410
14113W        W86428  40.006  24.033   2.219
14114W        W86429  41.896  39.505   0.335
14115W        W86430  28.022   0.267   3.282
14116W        W86431  22.182  41.523  10.888
14117W        W86432  23.620   6.410  13.518
14118W        W86433  23.069  32.629  10.636
14119W        W86434  28.678  11.361  12.531
14120W        W86435  34.598  21.746   3.739
14121W        W86436   9.380  26.165  12.970
14122W        W86437  25.695  40.806  10.977
14123W        W86438   0.348  17.062   3.675
14124W        W86439  26.653   6.401   4.701
14125W        W86440  34.599  16.803  11.449
14126W        W86441  17.741  32.096   1.297
14127W        W86442  34.000  21.562  12.378
14128W        W86443  26.493  41.936   4.266
14129W        W86444   4.727  41.992  14.028
14130W        W86445  11.266  30.125   2.304
14131W        W86446   9.328  10.666   3.707
14132W        W86447  36.899  43.945  12.057
14133W        W86448  30.459  12.185  13.971
14134W        W86449  10.203  22.636   3.170
14135W        W86450  15.087   5.246   4.288
14136W        W86451  32.033  27.009   2.769
14137W        W86452  13.634  21.717   0.245
14138W        W86453  18.625   0.798  14.322
14139W        W86454  35.921  34.976  13.828
14140W        W86455  34.500  13.182   1.913
14141W        W86456  23.099  44.998  11.998
14142W        W86457  40.010  23.623  13.902
14143W        W86458  18.270   5.830   2.823
14144W        W86459   0.343  28.171  11.047
14145W        W86460  33.557  19.766   4.190
14146W        W86461  25.067  16.615   2.308
14147W        W86462   3.721  31.074   2.197
14148W        W86463   3.875   0.338  12.482
14149W        W86464  40.320  32.119   1.723
14150W        W86465  30.433  15.712   4.348
14151W        W86466   8.683  17.597  12.376
14152W        W86467  12.180  22.711   4.343
14153W        W86468   2.724  40.488  12.031
14154W        W86469  15.098  40.401  12.576
14155W        W86470  15.692   7.393   2.366
14156W        W86471  44.807   0.781  14.364
14157W        W86472  10.792   5.199  10.939
14158W        W86473  29.521  40.897   0.905
14159W        W86474  41.463  12.733  11.938
14160W        W86475  37.946   4.847  12.860
14161W        W86476   4.743  31.114   4.714
14162W        W86477  33.021   6.341  10.614
14163W        W86478  34.001  44.002  11.603
14164W        W86479  28.522  31.988  11.525
14165W        W86480   0.749  11.172   4.181
14166W        W86481   0.844  32.020   1.698
14167W        W86482   3.793  13.223  11.009
14168W        W86483  20.704   2.751  14.806
14169W        W86484  12.722   8.883   4.177
14170W        W86485  12.274  39.913   4.353
14171W        W86486  25.628  31.030   4.742
14172W        W86487   0.348  18.627   3.326
14173W        W86488  27.166  43.309  12.422
14174W        W86489  23.575   0.864   2.348
14175W        W86490  39.032  23.633  13.392
14176W        W86491  27.996  29.002   2.696
14177W        W86492  44.428  13.812  14.914
14178W        W86493  13.203  18.108   2.721
14179W        W86494   6.424  29.985   3.731
14180W        W86495  34.079  11.704   3.366
14181W        W86496   9.357  17.617   5.686
14182W        W86497  29.488  23.050  11.502
14183W        W86498  38.485  27.555  10.612
14184W        W86499  40.526   9.744  13.884
14185W        W86500  18.139  39.371  13.546
14186W        W86501  23.991  11.333   1.359
14187W        W86502  33.901  42.366  10.526
14188W        W86503  31.049  25.106  12.545
14189W        W86504  19.143  13.194   0.871
14190W        W86505  38.519  34.418  11.869
14191W        W86506   0.301  11.350   2.851
14192W        W86507  11.348  12.679   0.305
14193W        W86508  38.992   7.739  14.486
14194W        W86509  39.829  34.117   1.246
14195W        W86510   9.742  27.456   3.781
14196W        W86511   3.399  29.921  13.798
14197W        W86512  39.345  27.030   1.387
14198W        W86513  38.403  42.396   3.803
14199W        W86514  37.542  12.629   1.883
14200W        W86515  21.596   1.751  12.356
14201W        W86516  25.018  31.406   4.327
14202W        W86517  20.768  12.126   4.263
14203W        W86518  44.784   3.875   3.670
14204W        W86519  13.621   6.682   3.204
14205W        W86520   5.932  14.723  10.542
14206W        W86521  17.139  30.502  10.145
14207W        W86522   0.772  34.522   4.805
14208W        W86523  33.931   1.429   2.269
14209W        W86524  21.540   8.210   2.232
14210W        W86525  25.621  39.325   2.737
14211W        W86526   1.975  20.117   3.772
14212W        W86527  14.622  21.647   1.447
14213W        W86528  22.645  10.259   1.859
14214W        W86529   4.707  33.566   0.865
14215W        W86530  32.557   6.262  11.399
14216W        W86531   7.362   3.419  13.970
14217W        W86532  39.819  21.571  10.640
14218W        W86533  19.577   3.933   1.376
14219W        W86534  20.093  39.505  11.909
14220W        W86535  25.473  19.092   3.343
14221W        W86536  37.048  17.578   1.311
14222W        W86537  36.008  33.057   3.844
14223W        W86538  35.983  43.398   2.888
14224W        W86539  35.987  17.665   4.115
14225W        W86540  19.619  40.018   1.403
14226W        W86541  37.476   9.652   0.409
14227W        W86542  26.171  19.189  13.855
14228W        W86543   3.247  20.612   3.247
14229W        W86544  25.019  32.100   2.892
14230W        W86545  27.043  24.103   1.786
14231W        W86546  20.200  27.621   1.264
14232W        W86547  32.585  28.001  11.871
14233W        W86548  15.739  27.039  10.896
14234W        W86549  17.231  21.729  10.437
14235W        W86550  20.100  21.165  10.485
14236W        W86551  23.592  14.179  14.991
14237W        W86552  25.681   1.424   2.716
14238W        W86553  17.128   6.734  14.963
14239W        W86554  40.888   8.263  14.889
14240W        W86555   8.343  36.001   2.353
14241W        W86556   8.216   3.845  13.033
14242W        W86557   1.443  38.855  14.779
14243W        W86558  11.729  25.208  14.399
14244W        W86559  44.798  21.097  13.413
14245W        W86560  21.224  18.618   0.274
14246W        W86561  23.194   8.668   4.736
14247W        W86562  38.493  10.144   2.890
14248W        W86563  36.413   8.326  13.421
14249W        W86564  23.200  44.323  13.373
14250W        W86565   7.750  38.543  12.013
14251W        W86566  19.748  25.096   3.826
14252W        W86567  21.618  22.677  14.845
14253W        W86568  29.985   4.937   4.313
14254W        W86569   5.257   2.449   2.235
14255W        W86570  35.857  11.189  10.482
14256W        W86571  10.699   6.293  13.312
14257W        W86572  29.967  41.008   1.314
14258W        W86573  16.785  27.600   4.174
14259W        W86574  28.000  14.614   2.891
14260W        W86575   0.947  34.020   0.421
14261W        W86576  23.987  30.997  11.560
14262W        W86577  11.629   2.878  14.473
14263W        W86578  10.753  30.469  10.929
14264W        W86579  38.881   5.309   4.150
14265W        W86580  29.490  23.625   2.305
14266W        W86581  21.047  25.537  13.469
14267W        W86582   9.662  18.630   1.301
14268W        W86583  27.094  27.460  13.996
14269W        W86584  12.131  18.712   4.661
14270W        W86585  23.652  11.698  10.493
14271W        W86586   2.806  22.061  11.926
14272W        W86587  42.784   1.362  11.983
14273W        W86588  44.763   4.763   2.877
14274W        W86589  16.241  30.536   2.264
14275W        W86590  39.941  31.937   3.184
14276W        W86591   3.394  28.952   3.793
14277W        W86592  36.092  18.715   2.219
14278W        W86593  31.967  44.959   2.709
14279W        W86594  26.541   6.411   2.196
14280W        W86595  13.649  38.334   1.825
14281W        W86596  18.693  21.607   4.768
14282W        W86597   5.796  10.755  14.905
14283W        W86598  33.894  26.653  13.844
14284W        W86599  14.292  23.675   1.713
14285W        W86600  41.974  25.521   4.211
14286W        W86601   9.318  38.472   4.684
14287W        W86602  14.590  30.968   2.788
14288W        W86603   2.271  41.329   3.851
14289W        W86604   1.455  34.910  12.029
14290W        W86605  29.060  42.518  12.472
14291W        W86606  21.730  30.152   1.334
14292W        W86607  20.131  34.021   4.729
14293W        W86608   8.243  21.248   0.367
14294W        W86609   0.473  20.709   1.743
14295W        W86610  36.422  40.885   1.882
14296W        W86611  29.151  18.760   3.709
14297W        W86612  40.544  27.151  12.446
14298W        W86613  38.483  32.053   2.299
14299W        W86614  12.844  23.115   2.814
14300W        W86615  27.536  33.961  13.448
14301W        W86616  18.771  44.006  14.997
14302W        W86617   8.380  16.127  11.454
14303W        W86618  18.290  18.255  12.562
14304W        W86619   7.842   8.304   2.665
14305W        W86620  12.269  40.887   1.285
14306W        W86621  29.435  25.671   2.223
14307W        W86622  41.432  10.825   3.810
14308W        W86623  11.655  16.170   5.262
14309W        W86624  24.162  37.370   5.123
14310W        W86625   8.703  30.548  10.594
14311W        W86626   0.881  16.717   3.147
14312W        W86627  12.671  13.141   2.702
14313W        W86628  43.346  44.301  14.778
14314W        W86629  33.490  40.351  12.443
14315W        W86630  41.382  42.930  12.079
14316W        W86631  43.294  17.665   4.790
14317W        W86632  40.894  26.672   4.789
14318W        W86633  32.915  37.544  11.971
14319W        W86634  15.197  34.536   0.269
14320W        W86635   8.328   3.729   2.682
14321W        W86636  39.021  23.547   1.932
14322W        W86637  15.803  31.148   0.432
14323W        W86638  25.120  44.838   1.362
14324W        W86639  20.575   8.361   0.300
14325W        W86640  23.011  15.309   3.767
14326W        W86641  40.952  37.430  11.535
14327W        W86642   3.954   8.207  13.478
14328W        W86643  13.638  12.162  10.967
14329W        W86644  26.637  16.685   1.335
14330W        W86645  27.030  25.196   3.778
14331W        W86646  15.168   2.364  11.436
14332W        W86647  27.064  21.216   4.626
14333W        W86648   6.760  38.904   3.274
14334W        W86649  41.345  11.353  14.786
14335W        W86650  12.148  10.205  10.466
14336W        W86651  20.522  36.919   0.388
14337W        W86652   9.855  23.116   3.870
14338W        W86653  19.647  14.127  11.060
14339W        W86654  22.508  23.133   2.810
14340W        W86655  27.484   6.771   0.440
14341W        W86656  15.083  17.213   3.205
14342W        W86657  24.688  11.681  14.501
14343W        W86658  34.519  10.288  12.913
14344W        W86659  39.351  18.627   2.894
14345W        W86660  18.572   1.867  12.460
14346W        W86661  44.360  20.654  11.454
14347W        W86662  23.731  19.111   9.461
14348W        W86663  23.666  22.563   4.616
14349W        W86664  33.574  16.184  12.823
14350W        W86665   8.238  18.094   4.125
14351W        W86666   7.257   7.346   3.306
14352W        W86667  38.014  20.194  14.968
14353W        W86668  42.992  39.897   0.254
14354W        W86669  26.090   5.842  10.517
14355W        W86670  11.187  11.762   0.815
14356W        W86671  10.254  17.112   3.722
14357W        W86672  11.670  41.012  13.812
14358W        W86673  43.843  44.262  11.942
14359W        W86674  25.985  35.027   5.312
14360W        W86675  18.627   9.775   0.363
14361W        W86676   5.848  25.602  11.514
14362W        W86677   8.832   1.851  13.040
14363W        W86678  20.647  43.963   2.664
14364W        W86679   4.778  26.695   2.722
14365W        W86680  33.089  31.963   0.413
14366W        W86681   0.927  40.529   2.774
14367W        W86682  43.399   7.697  12.028
14368W        W86683  13.154  30.464   0.869
14369W        W86684   6.387  10.733   4.772
14370W        W86685  30.463   6.744   2.863
14371W        W86686  21.642  32.027   0.423
14372W        W86687  34.578  25.011   5.277
14373W        W86688  11.372  21.758   4.224
14374W        W86689  35.401  23.067   4.606
14375W        W86690  38.400   8.267   0.768
14376W        W86691  34.014   1.869  12.063
14377W        W86692  28.141   0.403   4.263
14378W        W86693  39.023  21.134   1.443
14379W        W86694   0.379  25.208   4.620
14380W        W86695  13.609   0.823  11.993
14381W        W86696   2.766  36.994   3.834
14382W        W86697  11.712   2.944   4.270
14383W        W86698  36.925  28.539   4.747
14384W        W86699  10.743  29.014   0.897
14385W        W86700  16.802  30.461   3.732
14386W        W86701  11.241   9.156   2.321
14387W        W86702  21.551   8.706  14.978
14388W        W86703  38.410  38.876  11.528
14389W        W86704  25.608  31.943  14.345
14390W        W86705  27.525  40.476   2.394
14391W        W86706  23.647   8.662   3.189
14392W        W86707  30.634  13.198   0.346
14393W        W86708   1.269  28.447   2.232
14394W        W86709   2.759  28.120  14.933
14395W        W86710  23.603  43.789  11.890
14396W        W86711   5.383  38.030  13.461
14397W        W86712   9.692   3.228   3.189
14398W        W86713  14.307  21.229  13.893
14399W        W86714  25.515  23.580   0.801
14400W        W86715  23.708  36.413  12.864
14401W        W86716  17.758  24.676   2.409
14402W        W86717   0.841  31.403   4.149
14403W        W86718  10.233  41.996   3.357
14404W        W86719  24.067  33.566   2.899
14405W        W86720  21.732  31.526  12.380
14406W        W86721  20.690  21.257   4.839
14407W        W86722  19.688  27.483   2.315
14408W        W86723   1.261  38.436  10.591
14409W        W86724  40.449  22.129   0.403
14410W        W86725   3.314  32.475   1.314
14411W        W86726  44.857  10.283   3.226
14412W        W86727  35.507  22.049   2.334
14413W        W86728  43.774  30.121   2.185
14414W        W86729  43.949  12.181   4.790
14415W        W86730  36.497  39.356  11.939
14416W        W86731  27.994  40.842   2.223
14417W        W86732  40.049  39.065  13.892
14418W        W86733  10.650  38.329  14.296
14419W        W86734   7.717   4.318  10.514
14420W        W86735  26.087  14.120   4.670
14421W        W86736  31.403  33.622   3.631
14422W        W86737   4.260  31.545   4.742
14423W        W86738  18.198  32.074  13.346
14424W        W86739  19.123  11.843   2.787
14425W        W86740  39.914   7.712   4.757
14426W        W86741  43.859   0.372   3.807
14427W        W86742  23.699  44.406  14.297
14428W        W86743  36.578  40.349   4.663
14429W        W86744  15.819  16.761   3.281
14430W        W86745   9.832  41.307   0.753
14431W        W86746  25.693  40.411   2.348
14432W        W86747  24.048  24.031   3.337
14433W        W86748  40.039  21.108   2.776
14434W        W86749  23.040  23.100   1.935
14435W        W86750  12.615   9.719  12.826
14436W        W86751   3.924   8.770  12.569
14437W        W86752  40.455  29.524   2.859
14438W        W86753  31.509  29.923  12.483
14439W        W86754   4.398  37.073  13.417
14440W        W86755  42.921   0.324  12.579
14441W        W86756  16.222  24.600   0.320
14442W        W86757  18.708  39.985   1.929
14443W        W86758  15.259  43.791  13.853
14444W        W86759   0.443   9.246  14.341
14445W        W86760  15.308  30.135  11.084
14446W        W86761  39.542  42.005   4.598
14447W        W86762  24.660  39.001  13.954
14448W        W86763  38.448  33.624  14.829
14449W        W86764  13.671   2.342  10.609
14450W        W86765   3.377   6.716  12.502
14451W        W86766  42.906   6.233  13.329
14452W        W86767  24.671  12.843  14.467
14453W        W86768  11.138  21.603  10.914
14454W        W86769  44.853  21.623   2.311
14455W        W86770  16.771  38.890   2.185
14456W        W86771  18.665  43.970  11.862
14457W        W86772  44.847  30.122  12.995
14458W        W86773  28.154   8.301   2.268
14459W        W86774  32.042   3.450  14.436
14460W        W86775   9.745   8.260  11.414
14461W        W86776  19.239   8.688  12.842
14462W        W86777  32.455  27.457  13.485
14463W        W86778   2.936   7.233  13.521
14464W        W86779  32.027  25.657  10.502
14465W        W86780  18.676  40.828  12.471
14466W        W86781  37.352  41.399  11.465
14467W        W86782  19.173  43.985   2.356
14468W        W86783  10.297   2.374  12.059
14469W        W86784  15.791  25.568  13.491
14470W        W86785  17.085  37.348   5.163
14471W        W86786  41.832  10.197   3.788
14472W        W86787  10.202  42.987   0.455
14473W        W86788  36.371  40.424  13.987
14474W        W86789  21.256   1.274  14.809
14475W        W86790  41.363  37.491   3.339
14476W        W86791  30.978  25.001  14.446
14477W        W86792  18.288  17.121   0.348
14478W        W86793  20.160  18.189   3.786
14479W        W86794  29.548  29.528  14.888
14480W        W86795  32.985  26.141  10.926
14481W        W86796   7.173  11.851   3.762
14482W        W86797  11.350  38.032   2.400
14483W        W86798  23.563  16.636   1.247
14484W        W86799  39.033  29.515   0.930
14485W        W86800   8.676  30.020  10.511
14486W        W86801   6.903  15.702   1.824
14487W        W86802  24.688  31.037   2.710
14488W        W86803  35.906  12.137  12.013
14489W        W86804  10.679  43.411   4.303
14490W        W86805  31.504   2.384   2.382
14491W        W86806  17.648  24.508  12.466
14492W        W86807  10.241  43.926  14.303
14493W        W86808  16.705  17.126  14.905
14494W        W86809  17.243   7.193   0.779
14495W        W86810  27.173  38.525   4.674
14496W        W86811  23.649  14.280   3.736
14497W        W86812  26.498  40.891   3.842
14498W        W86813  10.223  12.209  13.403
14499W        W86814  34.547   1.879   1.360
14500W        W86815  24.562  32.888   1.883
14501W        W86816  23.241  18.260   4.229
14502W        W86817   1.281  26.682   3.234
14503W        W86818  16.107   5.710  12.394
14504W        W86819   1.904  41.803  11.473
14505W        W86820  13.227  42.993   2.253
14506W        W86821  15.208  39.393  12.002
14507W        W86822  13.178  39.893  11.912
14508W        W86823  20.244  27.460   2.734
14509W        W86824  22.032  15.320  14.854
14510W        W86825  26.687  29.652   4.241
14511W        W86826  21.184  15.784   3.864
14512W        W86827  17.077  26.086   4.600
14513W        W86828  27.147  22.515  14.995
14514W        W86829  27.501  13.684   2.787
14515W        W86830  31.461  13.266   3.650
14516W        W86831  27.676   1.375  13.316
14517W        W86832  29.106  34.911   1.723
14518W        W86833  15.313   2.774   4.232
14519W        W86834   8.172  19.670  10.945
14520W        W86835  23.633   4.365   4.153
14521W        W86836  42.969   1.766  10.056
14522W        W86837  13.346  28.461   3.707
14523W        W86838  42.379  10.874   3.644
14524W        W86839   0.858  43.282  14.862
14525W        W86840  38.907  28.483   3.842
14526W        W86841  42.321  23.165  12.829
14527W        W86842   4.305   7.227   1.821
14528W        W86843  23.725  24.215  14.761
14529W        W86844  31.997  44.851   4.115
14530W        W86845  40.423  27.684  13.331
14531W        W86846   9.795  24.221   2.406
14532W        W86847  37.439  20.223   3.262
14533W        W86848  44.004  15.151  12.839
14534W        W86849  37.350  14.285  13.337
14535W        W86850  12.329   7.378  14.449
14536W        W86851  25.017  20.540   4.809
14537W        W86852   1.313  11.298   1.807
14538W        W86853   8.891   8.876  13.876
14539W        W86854  19.624  18.753  12.570
14540W        W86855  20.715  14.776  14.926
14541W        W86856  39.374  42.303  12.448
14542W        W86857  22.012  20.642   4.154
14543W        W86858   6.751  13.295   1.862
14544W        W86859   6.829  36.010   0.473
14545W        W86860   5.688  28.646  11.097
14546W        W86861   2.795  32.925  11.946
14547W        W86862  33.056   3.846   0.370
14548W        W86863  31.599  40.836  13.880
14549W        W86864  42.917  43.018  10.410
14550W        W86865   0.309  22.245   1.259
14551W        W86866  18.764  34.106  12.424
14552W        W86867  32.470   2.747   1.257
14553W        W86868  11.229   9.286  13.869
14554W        W86869  36.564  31.462   3.868
14555W        W86870  36.877  40.408   1.271
14556W        W86871   8.351  41.366   2.801
14557W        W86872  28.457  28.517  11.966
14558W        W86873  26.671  30.513  14.806
14559W        W86874  10.746  10.152   5.197
14560W        W86875  32.565  33.410  11.995
14561W        W86876  17.674  26.174   2.189
14562W        W86877  33.969   8.715  12.551
14563W        W86878  15.310   2.427  12.517
14564W        W86879  28.052  19.664   2.742
14565W        W86880   2.886  19.711   1.909
14566W        W86881  31.942  15.585  10.985
14567W        W86882  16.725   9.865  14.001
14568W        W86883  29.144  24.659   1.874
14569W        W86884  43.952  19.120   1.856
14570W        W86885  38.850  24.165  10.556
14571W        W86886  42.497  26.603   1.300
14572W        W86887  17.200  29.030  10.526
14573W        W86888  32.471  23.727   2.804
14574W        W86889  12.810  30.104   3.844
14575W        W86890  31.963  30.989   5.262
14576W        W86891  23.099  23.998   0.742
14577W        W86892   4.412  14.802  14.483
14578W        W86893  22.719  30.509  13.499
14579W        W86894  27.597  42.891   2.736
14580W        W86895  19.670  32.587   1.803
14581W        W86896  31.981  20.057   3.675
14582W        W86897  32.066  37.383   1.393
14583W        W86898  16.766  10.853  12.485
14584W        W86899  34.535  40.989  10.429
14585W        W86900   5.249  32.010   1.809
14586W        W86901  21.699  23.715  10.557
14587W        W86902  35.458  28.492  10.411
14588W        W86903  29.005   9.667  13.532
14589W        W86904  16.123  26.097  13.812
14590W        W86905  22.653  22.663  12.943
14591W        W86906  21.236  20.143   2.802
14592W        W86907  28.117  35.479   0.406
14593W        W86908  44.860   0.770  14.901
14594W        W86909  16.570  30.042  10.145
14595W        W86910   2.943  11.629   0.882
14596W        W86911   2.326  11.139   0.467
14597W        W86912  28.077  12.278  13.854
14598W        W86913  38.070  42.330   3.784
14599W        W86914  26.696  42.520   3.162
14600W        W86915  32.429  34.578  12.017
14601W        W86916  27.096  34.573   4.202
14602W        W86917  39.430  24.208  14.335
14603W        W86918  16.116  16.717   2.834
14604W        W86919  29.112   0.771  13.899
14605W        W86920   6.708  17.112  14.411
14606W        W86921  35.974  24.658  13.868
14607W        W86922  39.818  30.568  12.988
14608W        W86923   5.831  35.395   1.377
14609W        W86924  43.792  17.238   1.719
14610W        W86925  44.336   7.369   0.272
14611W        W86926  29.122  39.060  12.968
14612W        W86927  23.612  44.290   1.302
14613W        W86928  28.009   8.192  11.090
14614W        W86929  19.136  21.150   0.852
14615W        W86930  30.106   9.372  14.938
14616W        W86931   8.859  15.594   0.427
14617W        W86932  44.954  29.488   1.753
14618W        W86933   6.399  42.908   3.799
14619W        W86934   8.254   1.757  13.926
14620W        W86935   4.349  30.595  12.551
14621W        W86936  27.651  18.188  13.959
14622W        W86937  32.090  11.157   3.853
14623W        W86938  18.549   8.399  11.494
14624W        W86939  41.366  24.187  14.943
14625W        W86940  10.759  18.733   2.210
14626W        W86941  24.173   1.927   2.867
14627W        W86942  36.081  40.893   4.122
14628W        W86943   9.655  28.135  13.973
14629W        W86944  13.167  24.196  11.399
14630W        W86945  13.731   0.768   4.698
14631W        W86946  26.574  18.548   3.341
14632W        W86947  21.026   3.934  13.039
14633W        W86948  20.733  28.970   4.123
14634W        W86949  34.888  15.301   2.738
14635W        W86950   3.389  17.264  14.358
14636W        W86951  30.975  32.488   2.397
14637W        W86952  26.000   1.768   0.437
14638W        W86953   5.867   0.988  11.509
14639W        W86954  26.166  25.541   1.695
14640W        W86955  13.684   5.417   2.241
14641W        W86956   5.768  27.498  12.415
14642W        W86957  24.100  41.358   3.800
14643W        W86958  42.319   7.884   4.333
14644W        W86959   0.978  10.722  14.996
14645W        W86960  44.989   4.249   0.371
14646W        W86961  44.370  38.063   1.794
14647W        W86962  26.496  13.774  13.510
14648W        W86963  33.597  40.350  11.051
14649W        W86964  39.543   1.833  10.972
14650W        W86965  19.747   4.352  13.879
14651W        W86966   3.345  15.318  12.429
14652W        W86967   4.334   1.842  12.072
14653W        W86968  23.667  34.035   4.606
14654W        W86969  11.647  24.084   4.328
14655W        W86970  25.669   1.474  12.563
14656W        W86971  10.297  24.505   1.223
14657W        W86972  28.133  11.220  11.095
14658W        W86973   1.288  12.324  14.441
14659W        W86974  16.082  44.365   0.917
14660W        W86975  38.441  17.620   4.190
14661W        W86976   2.776  41.353  14.006
14662W        W86977  42.876   6.427   4.716
14663W        W86978   8.233  33.895   0.463
14664W        W86979   0.309  35.094   2.752
14665W        W86980  38.879  26.142  12.356
14666W        W86981  21.737  22.694   0.860
14667W        W86982   6.261  35.991  11.491
14668W        W86983  36.533  12.708   4.601
14669W        W86984  42.840   9.150   3.682
14670W        W86985  37.027   5.783   3.346
14671W        W86986  34.407  12.234  11.552
14672W        W86987  21.158  12.632  14.400
14673W        W86988   5.219  13.262   0.395
14674W        W86989  22.729   1.752  11.524
14675W        W86990  35.451   7.193  12.920
14676W        W86991  22.681   3.844   0.459
14677W        W86992  16.216   5.404   3.230
14678W        W86993  31.917  16.237  14.901
14679W        W86994   1.430  17.063  12.890
14680W        W86995  20.598  31.510   4.780
14681W        W86996  10.801   4.738  14.435
14682W        W86997   1.846   9.710   4.312
14683W        W86998  42.837  39.005   1.332
14684W        W86999  33.424  26.133   5.144
14685W        W87000  31.103  13.296  14.383
14686W        W87001   7.324  43.306   1.444
14687W        W87002  36.511   0.396   1.800
14688W        W87003  37.464  22.183   0.936
14689W        W87004  23.236  44.301  14.460
14690W        W87005   2.721  37.348  10.416
14691W        W87006   7.343  17.591   3.834
14692W        W87007  13.221  20.266   2.778
14693W        W87008  16.139  12.323  10.413
14694W        W87009  44.300   7.744   2.822
14695W        W87010  27.620   9.308  11.885
14696W        W87011   2.838   4.749   0.459
14697W        W87012  43.766  21.189  12.581
14698W        W87013   9.806  23.505  11.050
14699W        W87014  16.613  21.124  10.950
14700W        W87015  24.604   9.778  10.898
14701W        W87016  10.349  39.906  14.475
14702W        W87017  42.993   3.760   2.826
14703W        W87018  37.965  14.274   3.258
14704W        W87019  37.421  27.455   1.343
14705W        W87020   6.759  40.004   3.204
14706W        W87021   6.295  44.271  13.434
14707W        W87022  30.497  37.883   4.721
14708W        W87023  20.691  32.636  14.465
14709W        W87024  31.919  12.785  14.031
14710W        W87025  33.446  13.792  12.094
14711W        W87026  16.694  27.447  10.532
14712W        W87027  38.055  21.020   3.213
14713W        W87028  21.693  30.534  10.614
14714W        W87029  29.669  20.725  14.773
14715W        W87030  22.081  19.052  12.076
14716W        W87031  14.629   2.786  14.858
14717W        W87032   9.664   0.833  10.407
14718W        W87033   3.303  38.464   1.697
14719W        W87034  40.537  40.402   1.799
14720W        W87035  14.183  13.760  12.023
14721W        W87036  15.087  31.112   3.788
14722W        W87037  33.501   9.826  14.431
14723W        W87038   1.919   9.814   2.234
14724W        W87039  34.931  37.364  12.352
14725W        W87040  38.324  27.468   2.399
14726W        W87041  11.718   0.383  10.951
14727W        W87042  22.145  25.702  14.928
14728W        W87043  12.732   3.263  11.032
14729W        W87044  33.933  40.418  13.058
14730W        W87045  28.081  22.694   5.106
14731W        W87046  41.973  10.234  10.609
14732W        W87047  40.815  12.232   1.731
14733W        W87048  43.392  17.788   2.823
14734W        W87049   3.855  40.951   0.860
14735W        W87050  15.195  27.955  12.513
14736W        W87051   2.395   9.308  14.900
14737W        W87052  36.019   4.735   2.887
14738W        W87053  29.539  10.866   3.369
14739W        W87054  35.598  10.836  10.599
14740W        W87055  36.930  24.072   1.327
14741W        W87056  18.163  41.868   2.878
14742W        W87057  12.669  36.087  13.005
14743W        W87058   5.350  20.179   4.272
14744W        W87059  36.096  24.058   3.386
14745W        W87060  15.588  38.511  11.994
14746W        W87061  23.058  41.436   2.331
14747W        W87062   6.388   9.831   4.700
14748W        W87063  16.683  39.426   5.135
14749W        W87064   8.792  14.652   5.177
14750W        W87065  44.444  11.649  13.900
14751W        W87066  15.268   3.883  12.049
14752W        W87067  10.796  40.986   1.448
14753W        W87068   9.151  22.645   2.196
14754W        W87069   1.744  44.869  11.478
14755W        W87070   2.840  44.292  11.983
14756W        W87071  34.059  35.570   4.793
14757W        W87072  25.004   4.933  14.435
14758W        W87073  27.941  33.491   2.272
14759W        W87074  11.655  18.769   0.728
14760W        W87075  12.258   4.360   1.273
14761W        W87076  23.603  40.540   2.277
14762W        W87077  42.523  10.156  12.046
14763W        W87078  11.703   7.348   1.930
14764W        W87079  31.930  21.615   2.299
14765W        W87080  27.959  26.060   0.346
14766W        W87081  27.029  43.842   1.757
14767W        W87082   9.752   5.308   1.924
14768W        W87083   7.711  43.966   1.910
14769W        W87084  32.034   6.741   2.723
14770W        W87085  31.906  18.634   0.438
14771W        W87086  30.099  44.378   0.907
14772W        W87087  39.870  39.955   4.299
14773W        W87088  33.585  38.995  13.960
14774W        W87089  35.458   6.335  13.520
14775W        W87090  20.764  14.612   2.404
14776W        W87091   2.802  40.891   3.213
14777W        W87092  38.498  33.084  11.486
14778W        W87093  22.719   7.414  13.807
14779W        W87094  19.683  42.417  14.834
14780W        W87095   7.880   7.200  12.373
14781W        W87096  37.473   6.783   1.743
14782W        W87097  24.680  44.987   2.216
14783W        W87098  17.159  29.582   1.801
14784W        W87099   7.899   0.334   1.773
14785W        W87100  40.991  25.594   4.274
14786W        W87101  22.568  28.572   3.270
14787W        W87102   9.870  10.211   4.678
14788W        W87103  19.275  33.072  10.890
14789W        W87104   2.231  43.503   1.853
14790W        W87105  14.739  22.561   0.754
14791W        W87106  21.259   1.472   2.802
14792W        W87107  14.603  15.104   0.407
14793W        W87108  15.644  12.821  12.520
14794W        W87109   8.397  35.495  11.888
14795W        W87110  20.633  18.670  14.797
14796W        W87111  14.134  42.334  12.838
14797W        W87112  40.365  25.484   0.942
14798W        W87113  15.677  40.006  11.090
14799W        W87114  39.512  19.103  13.437
14800W        W87115  13.662  40.336  12.041
14801W        W87116   9.732  26.032   4.330
14802W        W87117  21.556  41.842  11.510
14803W        W87118  29.980  24.174  11.449
14804W        W87119  27.624   8.178  11.375
14805W        W87120   7.912  42.929   4.239
14806W        W87121  36.058  39.331  14.867
14807W        W87122  30.976  30.570   2.387
14808W        W87123  38.390  40.979   0.481
14809W        W87124  36.992  38.517   2.788
14810W        W87125  33.499  24.665  12.985
14811W        W87126   6.312  25.142  12.866
14812W        W87127  32.134   0.250  13.414
14813W        W87128  22.248  19.617  14.831
14814W        W87129  14.336  29.139   3.164
14815W        W87130  22.550  42.436  11.440
14816W        W87131  19.134  16.184   3.363
14817W        W87132  40.960  39.535   4.637
14818W        W87133  11.634  16.096  13.884
14819W        W87134  43.427  15.235  14.280
14820W        W87135  13.322  25.026   0.309
14821W        W87136  10.228   5.276  12.537
14822W        W87137  22.585   6.187   4.733
14823W        W87138   4.312  23.091   3.315
14824W        W87139   2.726   2.274   4.653
14825W        W87140  36.446  35.047  10.487
14826W        W87141  41.940  28.138  14.859
14827W        W87142  43.341  35.449   0.944
14828W        W87143  27.078  27.118   3.792
14829W        W87144  10.764  24.629  11.924
14830W        W87145   1.844  27.974  13.367
14831W        W87146  35.505  27.628  12.066
14832W        W87147  21.605   7.710  10.967
14833W        W87148  14.331  27.081  14.429
14834W        W87149  30.980   7.851   4.772
14835W        W87150  13.815  14.774   3.680
14836W        W87151  30.933  29.600   1.314
14837W        W87152   9.371  21.652  13.893
14838W        W87153  44.800  25.470  10.489
14839W        W87154  40.348  44.868  11.065
14840W        W87155  38.029   1.350   1.749
14841W        W87156  25.630  40.983  11.974
14842W        W87157  43.857  18.270   2.264
14843W        W87158  17.720  27.198   1.909
14844W        W87159   2.877  29.137  10.625
14845W        W87160  15.766  44.381   3.184
14846W        W87161  25.553  29.049   4.650
14847W        W87162  37.390  39.035  12.951
14848W        W87163  11.712   3.352  10.470
14849W        W87164  25.596  21.105   2.337
14850W        W87165  43.286   8.849  14.888
14851W        W87166  32.065  18.250   3.731
14852W        W87167  19.765   0.830  14.994
14853W        W87168  22.191  13.168  13.933
14854W        W87169   2.386  12.160  14.771
14855W        W87170  35.057  22.127  12.449
14856W        W87171   4.819  20.184   0.929
14857W        W87172  32.976  35.916  10.530
14858W        W87173  12.724  42.377   2.725
14859W        W87174  40.375   0.375  11.939
14860W        W87175  20.744  31.097  13.475
14861W        W87176  30.641  20.637   2.222
14862W        W87177   4.703   0.451   4.761
14863W        W87178  18.730  28.065   0.333
14864W        W87179  16.280  19.695   2.235
14865W        W87180  33.592  23.542   2.677
14866W        W87181  30.507   5.324  13.340
14867W        W87182  27.533  29.479  14.894
14868W        W87183   0.895  30.658  13.454
14869W        W87184  32.531   4.239   1.252
14870W        W87185  31.471  32.498   4.727
14871W        W87186   9.314  29.664  12.523
14872W        W87187  33.417  13.772   2.227
14873W        W87188  27.054  19.140  10.497
14874W        W87189  27.612  33.064   3.770
14875W        W87190   1.787  39.316   1.828
14876W        W87191  14.643   9.674   0.363
14877W        W87192  21.603  16.257  14.975
14878W        W87193   9.170  44.868  14.974
14879W        W87194  27.507  29.495   3.266
14880W        W87195  33.106   9.304   4.221
14881W        W87196  37.398  28.451  11.611
14882W        W87197  40.947  31.933  12.995
14883W        W87198   4.811  34.050   3.356
14884W        W87199  43.431  28.524   4.681
14885W        W87200   8.220   4.934   0.785
14886W        W87201  38.871  16.217  10.945
14887W        W87202   0.800  13.197  10.088
14888W        W87203   0.374   5.359  13.978
14889W        W87204  35.402  14.614  13.371
14890W        W87205  33.057  10.700  11.495
14891W        W87206   6.759   6.771  13.502
14892W        W87207   5.883  40.523  14.446
14893W        W87208  25.171  21.590  11.499
14894W        W87209  16.685  36.411  12.987
14895W        W87210  22.082  11.710  12.999
14896W        W87211  16.279  22.612   0.750
14897W        W87212  43.444  17.118  14.771
14898W        W87213  20.728  11.834  10.605
14899W        W87214  11.708  25.149  12.410
14900W        W87215   4.703  12.218   1.239
14901W        W87216  28.092  13.700  10.950
14902W        W87217  28.167  44.894  14.870
14903W        W87218   8.393  29.070   3.382
14904W        W87219  34.606  29.175   3.351
14905W        W87220  22.030  18.560  12.887
14906W        W87221  16.083  44.801  12.438
14907W        W87222  10.333  24.563   2.235
14908W        W87223  20.766  12.780  12.987
14909W        W87224  31.910  35.938  10.558
14910W        W87225  20.184  21.519   3.343
14911W        W87226  11.781  13.319   4.731
14912W        W87227   4.916  30.538  14.770
14913W        W87228   1.299  39.911   3.663
14914W        W87229  39.901  12.292   1.860
14915W        W87230  30.586  30.055   0.334
14916W        W87231   2.875   3.856   0.426
14917W        W87232  29.996  19.655  13.453
14918W        W87233  33.381   0.803  10.132
14919W        W87234  20.650  12.227  14.760
14920W        W87235  30.630  17.636   2.349
14921W        W87236  43.809   7.890   0.867
14922W        W87237  30.535  13.797   4.604
14923W        W87238  13.185  37.001  11.926
14924W        W87239  43.365  14.291  13.059
14925W        W87240  20.630  27.125   2.275
14926W        W87241  41.417  27.683   4.608
14927W        W87242  10.322   8.675  11.111
14928W        W87243  10.728   2.785  14.016
14929W        W87244  24.706  24.998   2.799
14930W        W87245  30.016   1.946  10.455
14931W        W87246  41.945  40.845  13.453
14932W        W87247   7.779  32.892  12.394
14933W        W87248  31.629  10.788   3.750
14934W        W87249  24.595  37.373   2.191
14935W        W87250  32.426  40.429  12.469
14936W        W87251  17.662  32.571  11.503
14937W        W87252  22.593  37.536   0.403
14938W        W87253  31.107   0.752  10.436
14939W        W87254   1.732   0.828  13.959
14940W        W87255  33.028  15.283   4.200
14941W        W87256   4.249  32.507  11.536
14942W        W87257  14.301   9.355   1.241
14943W        W87258   0.269  16.655  12.505
14944W        W87259  18.683  24.125  11.970
14945W        W87260  24.675  25.992  13.375
14946W        W87261   3.298  35.985  13.409
14947W        W87262   1.771  24.549  11.883
14948W        W87263  29.478  42.960   1.369
14949W        W87264  15.629   6.861  12.862
14950W        W87265  36.085  21.226  14.350
14951W        W87266  27.959   0.781  12.971
14952W        W87267  38.453   5.805  10.986
14953W        W87268   0.764   2.721   0.782
14954W        W87269  14.294  27.627  12.947
14955W        W87270  27.161   1.310  11.453
14956W        W87271   2.371  27.038   2.201
14957W        W87272  29.985  25.208   0.250
14958W        W87273  37.036   4.720  12.001
14959W        W87274   8.384  29.492  10.581
14960W        W87275  27.677  10.828  13.334
14961W        W87276  32.474  36.886  10.944
14962W        W87277  26.001  20.629   0.846
14963W        W87278  28.655  40.825  13.849
14964W        W87279  28.958  39.816   2.196
14965W        W87280  16.665   4.244   4.640
14966W        W87281   5.708  28.639   4.707
14967W        W87282  20.622   0.272  10.494
14968W        W87283  17.249  31.952   5.317
14969W        W87284  38.978  10.736  13.379
14970W        W87285  26.066  15.626   4.695
14971W        W87286  19.741  29.596  12.057
14972W        W87287  14.617  30.078   3.370
14973W        W87288   1.844  38.910   3.777
14974W        W87289  17.660  15.233  13.401
14975W        W87290  19.100  30.642   0.481
14976W        W87291  18.772  41.507   4.705
14977W        W87292  10.635  37.395  13.503
14978W        W87293  22.034   1.313  12.854
14979W        W87294  44.303  23.175  13.792
14980W        W87295   2.338  25.069   2.195
14981W        W87296  12.237   8.843   4.192
14982W        W87297  26.569  33.551   0.960
14983W        W87298   0.766  17.070   5.267
14984W        W87299   6.282   0.916  14.767
14985W        W87300  23.653  41.494  10.912
14986W        W87301  26.562   8.788   0.433
14987W        W87302  42.845   0.429  13.393
14988W        W87303  31.490   5.888  10.497
14989W        W87304  16.288  39.064  11.521
14990W        W87305  42.945  23.023  12.341
14991W        W87306  37.080  18.642   0.931
14992W        W87307   2.343  37.992  12.514
14993W        W87308  19.231   8.878   5.142
14994W        W87309  15.599  26.674  14.373
14995W        W87310  12.834  27.577  14.009
14996W        W87311  42.777  28.960   4.658
14997W        W87312  44.909  11.282  10.108
14998W        W87313  19.753   3.401  13.410
14999W        W87314  28.492   8.351  13.457
15000W        W87315  38.060  36.975   0.830
15001W        W87316  18.694   9.677   3.837
15002W        W87317  19.754  18.750   4.652
15003W        W87318  28.534  11.731   4.656
15004W        W87319  17.181  40.313   2.295
15005W        W87320  37.567  33.388  11.113
15006W        W87321  25.980  25.018   4.686
15007W        W87322  34.918  38.384   0.895
15008W        W87323  19.134  16.115  14.424
15009W        W87324  40.921  29.562  13.448
15010W        W87325  13.812  18.141  11.871
15011W        W87326  43.365   7.310   2.181
15012W        W87327  40.488  33.076  13.399
15013W        W87328   9.261  44.954   3.329
15014W        W87329  17.303   1.368   3.269
15015W        W87330  28.050  24.711   1.727
15016W        W87331  36.878  23.196   1.862
15017W        W87332  11.314   9.824   3.639
15018W        W87333  22.581  12.658   1.213
15019W        W87334  11.752  42.851  14.019
15020W        W87335  35.906  12.822   4.734
15021W        W87336   0.467   8.854  11.996
15022W        W87337   8.369   0.388  14.849
15023W        W87338  27.989  27.003   5.240
15024W        W87339  10.333   8.802  13.858
15025W        W87340  32.561  14.233  13.307
15026W        W87341  10.673  26.525   3.709
15027W        W87342  31.029  14.178  13.987
15028W        W87343  14.327  26.088  13.978
15029W        W87344  26.988  29.969   2.211
15030W        W87345  34.971  33.534   0.459
15031W        W87346  21.141  11.639  13.927
15032W        W87347  11.752  13.682  14.806
15033W        W87348  24.693  11.622  11.968
15034W        W87349  15.812  38.392  14.430
15035W        W87350  31.643  23.037   2.396
15036W        W87351  26.965  16.756  13.985
15037W        W87352   7.346  35.893   0.300
15038W        W87353  15.186   4.445   2.330
15039W        W87354  12.328  26.651   3.750
15040W        W87355  35.585  22.042  14.970
15041W        W87356  27.454   1.970  13.032
15042W        W87357   6.899  38.862  14.508
15043W        W87358  21.222  23.227   4.152
15044W        W87359  21.042  22.114   2.879
15045W        W87360  15.649   2.830   1.360
15046W        W87361  42.817  28.050  14.499
15047W        W87362  40.451   0.367   0.293
15048W        W87363  41.872  36.880  12.916
15049W        W87364  22.630  30.023  14.851
15050W        W87365  23.682  36.364  10.975
15051W        W87366   0.824   2.251   3.694
15052W        W87367  21.109   7.695   3.238
15053W        W87368  26.630  42.406  13.390
15054W        W87369  18.751  33.939   3.321
15055W        W87370   3.263   9.261  11.435
15056W        W87371  13.274  24.146   2.189
15057W        W87372   6.771  25.115  13.829
15058W        W87373  19.737  27.986   1.304
15059W        W87374  19.077  22.567   1.838
15060W        W87375  22.199  16.630  12.361
15061W        W87376  28.102   2.879   4.205
15062W        W87377  16.139  21.536  11.874
15063W        W87378  44.295  32.470   1.308
15064W        W87379  44.885  10.163  10.623
15065W        W87380  22.610  20.224  10.427
15066W        W87381  39.549  40.013   4.339
15067W        W87382  27.156  38.828  12.342
15068W        W87383   5.395   2.448   3.789
15069W        W87384  40.522  17.212  12.530
15070W        W87385  26.077  23.104  13.986
15071W        W87386  40.932  20.211  11.413
15072W        W87387  23.008  33.933  14.799
15073W        W87388  21.207  29.078  13.391
15074W        W87389  43.375  20.117   4.296
15075W        W87390   4.915  17.689   2.252
15076W        W87391  32.128   7.671  13.921
15077W        W87392  37.893  41.980  10.558
15078W        W87393   2.853   4.333  11.540
15079W        W87394  11.697   5.355   1.801
15080W        W87395  23.135  10.340  10.109
15081W        W87396  12.300   6.860  11.456
15082W        W87397  19.715  43.316   2.663
15083W        W87398   4.235  25.200  13.439
15084W        W87399   5.367  26.653   4.280
15085W        W87400  27.562  34.989  12.415
15086W        W87401   9.817  42.005  13.002
15087W        W87402   9.657  40.889  13.924
15088W        W87403  14.239  10.216  13.536
15089W        W87404   3.776  26.144   0.399
15090W        W87405  40.047   7.742  11.417
15091W        W87406  16.238  29.633  14.775
15092W        W87407  10.830   9.679  13.035
15093W        W87408   1.312  20.684   4.353
15094W        W87409  21.160  39.977   2.222
15095W        W87410  23.038  21.252   4.755
15096W        W87411  18.238  20.241   4.121
15097W        W87412  16.784  33.013  10.521
15098W        W87413  10.635   6.263   2.749
15099W        W87414  34.002   3.938  13.317
15100W        W87415  14.134   3.873   3.834
15101W        W87416  30.966  28.184  11.485
15102W        W87417  18.104   2.887   1.792
15103W        W87418  32.500  33.584  12.960
15104W        W87419  32.632  28.136  12.564
15105W        W87420  27.602  28.085   2.326
15106W        W87421  16.250  33.102   2.389
15107W        W87422  14.323  18.733   3.685
15108W        W87423  17.295  10.834   5.195
15109W        W87424  26.082  32.138   4.338
15110W        W87425   7.901  39.390   4.272
15111W        W87426   2.395  44.391   1.443
15112W        W87427  32.089  33.092  14.386
15113W        W87428   9.801  21.697   2.344
15114W        W87429  21.236  40.019  10.545
15115W        W87430   2.333  20.028   0.865
15116W        W87431   4.778  27.514   0.726
15117W        W87432  23.520  20.260   2.187
15118W        W87433  42.012  16.318  11.499
15119W        W87434  22.504  34.400   4.692
15120W        W87435  19.648  24.053   3.238
15121W        W87436  16.795  15.630   0.266
15122W        W87437  14.624   9.327  14.787
15123W        W87438  41.831  24.521   4.133
15124W        W87439  24.189  12.785  14.394
15125W        W87440  28.567  35.882  12.020
15126W        W87441  16.131  12.171   0.384
15127W        W87442  28.093   5.738   2.834
15128W        W87443   0.746  12.725   0.780
15129W        W87444  25.210  33.977   2.234
15130W        W87445  21.698   9.237   1.427
15131W        W87446  30.003   2.353  14.451
15132W        W87447  14.318  15.665   0.306
15133W        W87448  34.971  21.237  11.099
15134W        W87449  31.045  38.389  10.577
15135W        W87450  17.255  34.114   4.645
15136W        W87451  33.904  13.719   3.725
15137W        W87452  21.032  11.371   2.786
15138W        W87453   1.765   0.891   5.164
15139W        W87454   9.840  28.456  10.614
15140W        W87455  20.727  37.860   4.146
15141W        W87456  14.682  18.133  11.584
15142W        W87457  36.944  16.616   0.260
15143W        W87458  33.013   2.901  11.436
15144W        W87459   6.741  14.184  12.941
15145W        W87460   8.805   7.191  13.375
15146W        W87461  24.052   3.281  11.126
15147W        W87462  20.557  17.573   3.708
15148W        W87463   4.281   3.899   3.228
15149W        W87464  29.621   6.694  12.464
15150W        W87465  15.144  29.669   3.666
15151W        W87466  32.470  38.064  11.407
15152W        W87467  33.625   0.455   0.894
15153W        W87468  23.500  26.529  12.056
15154W        W87469  34.895   8.221  14.771
15155W        W87470   6.204  19.197  11.591
15156W        W87471  15.725  12.689  14.886
15157W        W87472   1.365   4.764   0.734
15158W        W87473   4.804  16.311  12.340
15159W        W87474   3.863  34.567  11.908
15160W        W87475  30.555  42.837  10.633
15161W        W87476  41.914   1.777   1.703
15162W        W87477  37.905  41.369   2.304
15163W        W87478  12.747  22.186  11.972
15164W        W87479   7.695  27.069   3.344
15165W        W87480   3.780   0.795   1.384
15166W        W87481  26.064   3.881  10.027
15167W        W87482   9.764  29.438   0.893
15168W        W87483  16.647  19.066   0.341
15169W        W87484  38.916  37.522   2.662
15170W        W87485   0.474   0.281  12.484
15171W        W87486  31.613  10.650   2.756
15172W        W87487  21.619  27.947  13.852
15173W        W87488  34.077  31.909   4.722
15174W        W87489  17.264  41.305  14.942
15175W        W87490  16.074  40.394  12.077
15176W        W87491   5.716  41.792  11.888
15177W        W87492  44.762  35.884  14.897
15178W        W87493  27.601  23.099  10.565
15179W        W87494  22.059   7.397  10.973
15180W        W87495  24.080  26.655  10.066
15181W        W87496  15.158  28.537  11.043
15182W        W87497  36.867  41.016  12.011
15183W        W87498   4.835  36.347  12.026
15184W        W87499  36.096  13.606  12.999
15185W        W87500   4.444   9.770  14.469
15186W        W87501  44.855  27.617   3.765
15187W        W87502  33.013  28.586   1.399
15188W        W87503   7.377  38.872   1.849
15189W        W87504   9.740  34.562   1.767
15190W        W87505  31.545  15.325   2.329
15191W        W87506  42.960  20.698   1.773
15192W        W87507  36.937  42.436  10.483
15193W        W87508  17.127  33.904   9.950
15194W        W87509  20.747   6.286  13.420
15195W        W87510   8.251   2.339   1.252
15196W        W87511  36.422  32.463  14.837
15197W        W87512   3.351  37.452  11.427
15198W        W87513  16.612  43.005   3.223
15199W        W87514  19.218  25.529   2.686
15200W        W87515   1.444   7.316   2.840
15201W        W87516  23.069   9.826   3.313
15202W        W87517  39.545  34.004  13.406
15203W        W87518  30.154   1.855  13.033
15204W        W87519   6.877  19.593  13.891
15205W        W87520  29.597  28.582   3.152
15206W        W87521   1.451  37.036   3.222
15207W        W87522   2.874  30.498   2.184
15208W        W87523   4.792  44.492   0.764
15209W        W87524  10.264  44.869   4.116
15210W        W87525   8.175  14.815  11.872
15211W        W87526   6.854  39.363   4.333
15212W        W87527  36.052  39.954   0.785
15213W        W87528   3.820  29.981   1.779
15214W        W87529   0.391  15.754   1.910
15215W        W87530  32.443  11.631   2.404
15216W        W87531  12.192  33.908   0.851
15217W        W87532   8.198  41.538  14.764
15218W        W87533  26.534  17.175  13.317
15219W        W87534  34.963  29.101   2.730
15220W        W87535  21.652  32.950  14.349
15221W        W87536  23.725  35.938  14.448
15222W        W87537  21.135   0.265  13.959
15223W        W87538   0.822  42.307  14.400
15224W        W87539   0.489  12.314   3.733
15225W        W87540  23.576   1.284   0.912
15226W        W87541  40.548  43.830  11.012
15227W        W87542   1.833  19.608  10.531
15228W        W87543  19.252  22.077   4.340
15229W        W87544  18.569  22.165   2.825
15230W        W87545  38.994  21.715   3.344
15231W        W87546   3.902   8.792   0.434
15232W        W87547  32.474  32.141   0.410
15233W        W87548  16.758   0.859  13.891
15234W        W87549  39.834  44.269  12.898
15235W        W87550  14.177  41.902  13.971
15236W        W87551   1.952  13.195   4.807
15237W        W87552  23.715  16.593  11.079
15238W        W87553  23.225  29.467   2.843
15239W        W87554  41.322  35.076   0.378
15240W        W87555  43.796  35.082  13.399
15241W        W87556  11.309  22.566  12.965
15242W        W87557  20.234   4.908   4.783
15243W        W87558   2.421  19.181   1.421
15244W        W87559  29.991  42.301   0.912
15245W        W87560   1.246  38.410  12.353
15246W        W87561  43.377  41.343   3.859
15247W        W87562  13.290  17.642   4.726
15248W        W87563  39.478  16.798   4.194
15249W        W87564  42.033  32.904   1.868
15250W        W87565  14.110  32.472   4.231
15251W        W87566  11.270  25.533   3.190
15252W        W87567  15.161   7.786   1.307
15253W        W87568  30.613  41.505  10.995
15254W        W87569  17.596  28.113   0.929
15255W        W87570  13.694  42.974   1.260
15256W        W87571  34.410   5.692  14.769
15257W        W87572  32.898   9.201  11.431
15258W        W87573  25.107  17.184   0.480
15259W        W87574  32.016   4.701  14.780
15260W        W87575  18.608  38.393  11.971
15261W        W87576  37.442  42.859   0.906
15262W        W87577  44.811  11.307  11.581
15263W        W87578  33.459  27.524  12.496
15264W        W87579  42.453  32.122   4.215
15265W        W87580  15.712  16.656   5.193
15266W        W87581  11.127  37.554   3.192
15267W        W87582  13.216  23.666   3.334
15268W        W87583  15.159  17.062   2.389
15269W        W87584  29.499  11.652  13.421
15270W        W87585  40.898   3.218  13.383
15271W        W87586  38.901  27.559  12.498
15272W        W87587  11.793   4.348   1.307
15273W        W87588  39.041  12.711  13.482
15274W        W87589  10.228  19.157  12.990
15275W        W87590  32.090   8.339   2.322
15276W        W87591  14.682  29.088  14.990
15277W        W87592  25.160  25.622   3.741
15278W        W87593  37.533  17.731   1.305
15279W        W87594  39.540   8.773   0.849
15280W        W87595  15.690   2.846  12.917
15281W        W87596   9.714  17.263   5.131
15282W        W87597  23.714  31.494   2.185
15283W        W87598   9.256  31.970   4.650
15284W        W87599  10.328  36.928   0.916
15285W        W87600  44.263   1.960  11.571
15286W        W87601  26.999  26.677   0.432
15287W        W87602  44.956  22.222  13.976
15288W        W87603  20.205  20.267   0.839
15289W        W87604  11.168  18.191   1.746
15290W        W87605  33.122  10.711  12.081
15291W        W87606   8.198  20.652   4.660
15292W        W87607   6.354  19.538   2.822
15293W        W87608   9.345   3.733  11.904
15294W        W87609  30.447  28.085   4.629
15295W        W87610  26.183  23.035   1.353
15296W        W87611  21.628   6.886  13.811
15297W        W87612  23.607   7.713   0.842
15298W        W87613  37.016   4.245  12.926
15299W        W87614  27.017  30.118  14.844
15300W        W87615  19.043  23.156  12.344
15301W        W87616  35.000  33.535   3.835
15302W        W87617   5.243   0.459   0.912
15303W        W87618  37.011  37.018   3.341
15304W        W87619  38.341  26.979  14.312
15305W        W87620  22.063  41.432  12.911
15306W        W87621  34.368  20.270  14.392
15307W        W87622  14.808  22.139  11.893
15308W        W87623   5.281  41.018   2.393
15309W        W87624  29.926  44.776  12.428
15310W        W87625  39.873  40.451  14.328
15311W        W87626  21.139   6.216  11.433
15312W        W87627  26.980   3.952   4.830
15313W        W87628  40.530  31.612   2.286
15314W        W87629  32.584  34.960   2.214
15315W        W87630  12.242   0.316   3.204
15316W        W87631   0.870  26.466  12.494
15317W        W87632  10.262  14.669   2.711
15318W        W87633  41.501  28.054   1.707
15319W        W87634   8.183  37.337   1.876
15320W        W87635   1.283  14.099  14.291
15321W        W87636  18.162  21.105  14.396
15322W        W87637  32.019  14.669   2.897
15323W        W87638  38.888  10.715   5.136
15324W        W87639   2.269  11.190   1.851
15325W        W87640   4.356   6.351  11.459
15326W        W87641   6.305  30.108   4.707
15327W        W87642   7.856   6.253   2.354
15328W        W87643  10.838  39.389   2.328
15329W        W87644  32.562  20.076  10.616
15330W        W87645  29.032  14.767   1.862
15331W        W87646  35.920  39.922  13.441
15332W        W87647  31.949  39.416  13.340
15333W        W87648   6.795  25.538   4.754
15334W        W87649   1.357  32.982   2.364
15335W        W87650  22.207  36.394  13.519
15336W        W87651  26.112  15.820   0.735
15337W        W87652  22.728   6.387   0.805
15338W        W87653  32.561  19.233  11.516
15339W        W87654   2.956   7.754   3.215
15340W        W87655  30.521  17.112  10.523
15341W        W87656  25.593  17.149  13.421
15342W        W87657  21.720  23.017  13.926
15343W        W87658   4.318  13.240  13.985
15344W        W87659  36.368   6.386   4.212
15345W        W87660  10.254  35.909   3.744
15346W        W87661  38.881  22.162   4.712
15347W        W87662   9.656  15.193  11.412
15348W        W87663  38.553  41.973  14.476
15349W        W87664   1.938  17.268  10.637
15350W        W87665   6.198   6.706   3.333
15351W        W87666   5.928  41.407  13.860
15352W        W87667   5.224  40.852  14.800
15353W        W87668   9.331  37.577   4.159
15354W        W87669   1.777  41.522  13.350
15355W        W87670  27.626   6.390   9.663
15356W        W87671   3.371  32.549  14.849
15357W        W87672  41.025  37.922  10.499
15358W        W87673  18.175   0.352   0.432
15359W        W87674  40.540  37.395   1.805
15360W        W87675  44.319   5.325   4.650
15361W        W87676   7.881  29.463  11.580
15362W        W87677  31.075   5.393   2.363
15363W        W87678  44.865  20.192  14.339
15364W        W87679  12.183  44.812  10.959
15365W        W87680  31.100  21.627  10.503
15366W        W87681  34.516   1.951   2.871
15367W        W87682  39.948  37.495   1.274
15368W        W87683   7.751  31.580   3.256
15369W        W87684  42.943  20.547   2.357
15370W        W87685  19.143  40.004   5.595
15371W        W87686  43.841  31.104  11.925
15372W        W87687  10.358  41.376  10.568
15373W        W87688  33.623  29.938   3.317
15374W        W87689   0.813   7.320   5.205
15375W        W87690  31.154  31.013  13.920
15376W        W87691   1.449  41.405   4.809
15377W        W87692  28.487  41.437  12.415
15378W        W87693   6.413   9.816  10.482
15379W        W87694   2.874  39.032   2.362
15380W        W87695  16.219  42.396  12.505
15381W        W87696  40.977  37.542  14.004
15382W        W87697  42.322  22.063  13.375
15383W        W87698  38.377   3.392   2.706
15384W        W87699  32.915  18.114   4.253
15385W        W87700  11.280  22.508   1.336
15386W        W87701  25.474  43.886  10.438
15387W        W87702   1.449  38.556  14.968
15388W        W87703  17.177  26.134   0.822
15389W        W87704   5.772   1.808  12.933
15390W        W87705   0.326  10.705   3.643
15391W        W87706   5.719  28.124   3.215
15392W        W87707  44.409  26.458  13.917
15393W        W87708  23.646  27.188   3.347
15394W        W87709  42.968  31.492   0.364
15395W        W87710  22.151  25.514   0.795
15396W        W87711  29.497  10.745  13.336
15397W        W87712  12.318   5.724   3.379
15398W        W87713  26.497  41.513  14.480
15399W        W87714  35.994  19.153   2.274
15400W        W87715  43.813  41.865  11.072
15401W        W87716  31.623  16.277  13.447
15402W        W87717  37.974   2.852   1.841
15403W        W87718  34.554  29.485  13.819
15404W        W87719   1.407  32.449   3.259
15405W        W87720  22.603  17.684  14.831
15406W        W87721  31.146  24.635  13.978
15407W        W87722  44.820  12.162  11.044
15408W        W87723  27.576  10.852  13.979
15409W        W87724  25.997  39.012   0.405
15410W        W87725  33.398  10.641  10.466
15411W        W87726  32.615   1.866  10.506
15412W        W87727  14.660  35.536  10.565
15413W        W87728  39.541   1.835  14.513
15414W        W87729  38.468  44.432   3.718
15415W        W87730   9.761   9.744  11.074
15416W        W87731  26.613  39.024  11.605
15417W        W87732   6.223  16.167  13.308
15418W        W87733  33.057   0.363   4.662
15419W        W87734  20.535  16.241   1.374
15420W        W87735  26.540  38.535  12.983
15421W        W87736  26.091  23.715  10.576
15422W        W87737  43.792  23.018  10.500
15423W        W87738  22.072  40.447  12.019
15424W        W87739  15.240  29.090   0.326
15425W        W87740  14.668  13.157   4.799
15426W        W87741  28.023  39.349   0.781
15427W        W87742   7.399  39.940   4.330
15428W        W87743  29.024  24.156   0.301
15429W        W87744  43.802   1.893   1.848
15430W        W87745  44.277   5.925   3.752
15431W        W87746  20.595   1.432  13.422
15432W        W87747  35.534  37.008   2.769
15433W        W87748  27.550   1.254  14.427
15434W        W87749  42.455  34.997   1.307
15435W        W87750  17.795  26.962   4.814
15436W        W87751  44.940   8.265   1.845
15437W        W87752  22.571  44.802  13.943
15438W        W87753  27.101  15.312   0.902
15439W        W87754  42.369  24.191   4.753
15440W        W87755  14.828  15.603  12.025
15441W        W87756  23.057   6.686  10.507
15442W        W87757  24.035  23.699   3.315
15443W        W87758  12.835  28.636  10.551
15444W        W87759  41.310  43.782   3.797
15445W        W87760  25.613  41.011   0.357
15446W        W87761  39.024  13.703   1.270
15447W        W87762  42.849  28.518  13.479
15448W        W87763  16.127   0.298  12.063
15449W        W87764  42.407  21.137  14.383
15450W        W87765  30.466  24.628  12.850
15451W        W87766  22.110   8.282  12.358
15452W        W87767   8.175   3.247   2.380
15453W        W87768  42.976  41.844   1.792
15454W        W87769  35.889   6.378  10.632
15455W        W87770  37.543  41.338  12.426
15456W        W87771   8.888  44.308  13.404
15457W        W87772  44.400   7.883   3.787
15458W        W87773  40.833  29.013   0.354
15459W        W87774  16.656  15.188  10.997
15460W        W87775  37.993   6.386  14.960
15461W        W87776  39.847   7.389  12.408
15462W        W87777  13.671  11.129  14.494
15463W        W87778  23.685   9.787   4.321
15464W        W87779  40.507  34.523  11.471
15465W        W87780  35.477  16.170  11.438
15466W        W87781  41.331  21.206   0.355
15467W        W87782  41.809  23.160   4.768
15468W        W87783  40.050  40.434  10.442
15469W        W87784  23.229  31.502  12.831
15470W        W87785  36.962  23.102  14.819
15471W        W87786  20.625  15.101   3.699
15472W        W87787  35.104  28.944  12.504
15473W        W87788  23.159  11.703  13.916
15474W        W87789  43.362   1.741   3.858
15475W        W87790  40.429  19.737  14.443
15476W        W87791  12.279  25.019  11.969
15477W        W87792  39.533  18.231  12.367
15478W        W87793  16.234   6.787   3.280
15479W        W87794  28.568  35.589   2.272
15480W        W87795  10.311  31.428   3.710
15481W        W87796  10.877  11.847   2.824
15482W        W87797  40.490   8.376  13.350
15483W        W87798  18.726  14.128  11.021
15484W        W87799  10.259   4.387   2.184
15485W        W87800   1.886  33.543   1.882
15486W        W87801   4.245  27.150   3.362
15487W        W87802  36.398  10.184   3.640
15488W        W87803  42.345  17.297  12.567
15489W        W87804  12.633  19.168  14.961
15490W        W87805  31.558   9.732  11.521
15491W        W87806  21.631  10.676  10.483
15492W        W87807  21.628  44.390  14.474
15493W        W87808  34.500   9.811  10.958
15494W        W87809  33.882  37.459   4.171
15495W        W87810  38.870   6.852   2.210
15496W        W87811  23.636  42.921  13.328
15497W        W87812  33.119  42.814   3.278
15498W        W87813  22.729  27.974   2.699
15499W        W87814  28.015   5.804   5.193
15500W        W87815  39.887  30.998   1.352
15501W        W87816  22.690  13.189   4.149
15502W        W87817  18.551  34.515  13.895
15503W        W87818   8.362   7.401  10.523
15504W        W87819  31.041  26.008  11.862
15505W        W87820   0.864   0.405   1.230
15506W        W87821   5.826  30.561  12.018
15507W        W87822  23.614   8.692  11.000
15508W        W87823  42.974  42.890   1.857
15509W        W87824  14.172  37.995   0.437
15510W        W87825  41.787  11.686  10.084
15511W        W87826   9.648   8.796   4.640
15512W        W87827  43.434  36.585   0.425
15513W        W87828  16.154  12.239  14.323
15514W        W87829  17.224  30.953   5.284
15515W        W87830   8.339  42.437  11.491
15516W        W87831  26.601   2.778   0.911
15517W        W87832  10.658   9.216  13.907
15518W        W87833  37.884  34.028   3.814
15519W        W87834   2.441  26.607   0.735
15520W        W87835   0.979  39.904   3.699
15521W        W87836  33.933  41.415   4.279
15522W        W87837  25.497  38.344  13.038
15523W        W87838   3.738   2.421  11.524
15524W        W87839  31.458  28.642  14.824
15525W        W87840  26.627  26.126   2.849
15526W        W87841  28.649  11.739  14.765
15527W        W87842  13.150   0.831  11.966
15528W        W87843  34.547  26.656   3.758
15529W        W87844  37.987  26.630  14.829
15530W        W87845  43.018  14.776   3.672
15531W        W87846  30.604   9.665  10.436
15532W        W87847  24.018  25.671  14.840
15533W        W87848  30.023  14.789  14.775
15534W        W87849  22.575  26.135  11.598
15535W        W87850  22.618  19.088  11.083
15536W        W87851  17.789   6.246   4.240
15537W        W87852   4.759  34.427  13.050
15538W        W87853  40.809  40.868  14.028
15539W        W87854  29.619  15.634  14.871
15540W        W87855  15.590  24.635   1.726
15541W        W87856  26.664  32.043  10.017
15542W        W87857  35.561  19.280  12.993
15543W        W87858  41.025  28.949  14.300
15544W        W87859  44.409   1.282  14.375
15545W        W87860   6.343  35.109  11.480
15546W        W87861  34.466  28.013   3.354
15547W        W87862  11.188   8.734   2.352
15548W        W87863  10.748  26.076  13.997
15549W        W87864  32.036  44.822  14.478
15550W        W87865  43.460  16.153  11.869
15551W        W87866  39.890   3.861   1.276
15552W        W87867  44.753  11.855  10.500
15553W        W87868  31.000  29.007  11.032
15554W        W87869  22.050  43.771  13.511
15555W        W87870  42.364   2.944  12.461
15556W        W87871   9.697  29.113   1.930
15557W        W87872  32.000  15.254  12.073
15558W        W87873  13.782  21.530  12.466
15559W        W87874  41.305  16.138  14.967
15560W        W87875  41.893  19.266   4.628
15561W        W87876  13.696  20.052   1.286
15562W        W87877  28.089  28.981  13.356
15563W        W87878  37.455  42.004  10.895
15564W        W87879  12.286  35.890   0.460
15565W        W87880  33.022  27.508  13.350
15566W        W87881  21.636   4.269   3.343
15567W        W87882  32.929   6.324   0.897
15568W        W87883  26.086  43.902   4.337
15569W        W87884   6.402   0.957   9.973
15570W        W87885  36.449  44.494   0.406
15571W        W87886   3.767  33.999   0.404
15572W        W87887  12.689  21.727  11.873
15573W        W87888   6.913  35.032   3.702
15574W        W87889   4.410   1.476   3.646
15575W        W87890   4.421  40.812   1.907
15576W        W87891  28.519  34.536   2.808
15577W        W87892   3.712  39.979   0.359
15578W        W87893  16.139  39.004   5.602
15579W        W87894  35.522  43.936  14.911
15580W        W87895  24.568  14.675   1.875
15581W        W87896  26.604  41.886  12.474
15582W        W87897   3.790  29.520   0.911
15583W        W87898   7.334  23.098   3.233
15584W        W87899   6.252  37.356  11.107
15585W        W87900  27.164  37.372   2.220
15586W        W87901  41.876  21.709   0.756
15587W        W87902  25.204  27.620   1.878
15588W        W87903  25.202  33.415  11.876
15589W        W87904  27.121  32.048   2.374
15590W        W87905  16.244  35.561   0.955
15591W        W87906  17.613  38.891   2.783
15592W        W87907  41.033   9.159   4.287
15593W        W87908  25.678  41.397  10.091
15594W        W87909  16.721  33.510   3.289
15595W        W87910  21.158   7.394   2.367
15596W        W87911   6.297  29.462  12.059
15597W        W87912  10.647  23.987  13.380
15598W        W87913   1.428  24.230   3.266
15599W        W87914  16.195   4.909  14.003
15600W        W87915  21.152  13.276  11.588
15601W        W87916  32.022  43.897  14.510
15602W        W87917  13.173  14.220  13.389
15603W        W87918  23.113   2.901  14.464
15604W        W87919  39.006   7.387  10.574
15605W        W87920  13.284  13.308   2.704
15606W        W87921  38.422   3.782  12.473
15607W        W87922  32.394  27.648   3.181
15608W        W87923  23.110  33.941  11.026
15609W        W87924  44.946  18.251  11.895
15610W        W87925  33.909  39.474  11.894
15611W        W87926  41.819  21.525  14.427
15612W        W87927  27.946  28.646   0.399
15613W        W87928  20.110   6.342   4.703
15614W        W87929  30.562  33.094  14.000
15615W        W87930   1.273  28.487   4.810
15616W        W87931  15.769  18.772  13.858
15617W        W87932  15.724  25.178  10.925
15618W        W87933  34.982  34.494  14.930
15619W        W87934  19.701  11.330   0.319
15620W        W87935  19.537  27.576   4.266
15621W        W87936  40.860   7.220  12.998
15622W        W87937  30.420  27.554   3.186
15623W        W87938  37.018  36.886   2.298
15624W        W87939  23.655  43.963  11.410
15625W        W87940  37.566  18.749   0.480
15626W        W87941  42.777  43.390   2.824
15627W        W87942  10.349  24.577   1.720
15628W        W87943  33.490  17.211   1.767
15629W        W87944  16.784  30.475   5.186
15630W        W87945  38.918  43.285   0.727
15631W        W87946  41.865   0.348  10.962
15632W        W87947  34.867  28.178  12.986
15633W        W87948  39.062  15.278   0.793
15634W        W87949  23.577  22.683   4.312
15635W        W87950  33.126   4.233  11.117
15636W        W87951  29.936  14.322   0.758
15637W        W87952   6.753  40.536   3.657
15638W        W87953  42.966  11.705  12.339
15639W        W87954  36.418  43.315  11.040
15640W        W87955  41.836  30.152   2.790
15641W        W87956   8.311  33.084   2.257
15642W        W87957  13.720  25.084   3.848
15643W        W87958  25.981   5.216   1.850
15644W        W87959  29.040  33.122  14.021
15645W        W87960  32.585  44.302  12.918
15646W        W87961  38.427  27.174   0.953
15647W        W87962  29.562  28.060   4.184
15648W        W87963  25.470  35.873   2.246
15649W        W87964   0.828  27.578   2.417
15650W        W87965  18.786  22.661   1.218
15651W        W87966  37.573  22.239   2.293
15652W        W87967  32.486  17.101   3.312
15653W        W87968   0.881   9.388   2.185
15654W        W87969  42.921  43.813  11.878
15655W        W87970  35.993  17.674  13.523
15656W        W87971  15.698   5.839   3.211
15657W        W87972  12.161  25.039  12.905
15658W        W87973  39.398  36.077  13.396
15659W        W87974  20.245   2.255  12.947
15660W        W87975  16.242   3.291   0.321
15661W        W87976  43.311  37.852  11.588
15662W        W87977  38.059  25.508  14.334
15663W        W87978  27.645  15.730  12.559
15664W        W87979  41.357   0.803   3.704
15665W        W87980   0.432  25.570   1.338
15666W        W87981  18.545  11.366  10.572
15667W        W87982  11.275  43.867  10.956
15668W        W87983  15.300  25.996   4.723
15669W        W87984  32.911  10.766  12.464
15670W        W87985   8.879  40.420  13.419
15671W        W87986  10.694  16.257  10.623
15672W        W87987  29.966  42.954   2.337
15673W        W87988  12.689  29.940  12.512
15674W        W87989  16.286   5.777   3.221
15675W        W87990  19.703   1.319  13.956
15676W        W87991  16.232  12.273   3.689
15677W        W87992  13.701  11.865   4.731
15678W        W87993  41.789  12.140   3.260
15679W        W87994   4.824  33.620   4.617
15680W        W87995  28.092  18.724   1.451
15681W        W87996  21.099   4.881  14.916
15682W        W87997   6.370  20.208   1.705
15683W        W87998  38.488   3.801  10.993
15684W        W87999  31.012   3.831   3.246
15685W        W88000  38.400  35.050   4.136
15686W        W88001   7.195  13.270   4.822
15687W        W88002  20.640  11.759   3.764
15688W        W88003  11.265  30.034  11.374
15689W        W88004  43.951   5.725   0.462
15690W        W88005  33.939  20.633   1.216
15691W        W88006  34.610   7.897   4.115
15692W        W88007  42.395  25.582  14.360
15693W        W88008   4.356   0.766  12.908
15694W        W88009  38.015  14.139   4.155
15695W        W88010  29.127  35.867  12.570
15696W        W88011  25.483  10.817  13.825
15697W        W88012  15.651  34.371  12.887
15698W        W88013  20.579  13.630   2.216
15699W        W88014  42.853  37.452   4.649
15700W        W88015  32.582  38.864   2.832
15701W        W88016  39.369  27.958   0.804
15702W        W88017  18.565   9.359   4.324
15703W        W88018   3.762  36.879   1.326
15704W        W88019  44.298  14.141  10.511
15705W        W88020  33.514  22.201   3.281
15706W        W88021  39.331  22.078  12.516
15707W        W88022  11.190  21.227   1.440
15708W        W88023  15.694  41.829  14.447
15709W        W88024   4.737  13.325   4.127
15710W        W88025  40.469   5.347   4.279
15711W        W88026  11.320  39.902  14.011
15712W        W88027  16.097  29.929   5.293
15713W        W88028  26.067  32.557   0.805
15714W        W88029   8.766   2.813   3.817
15715W        W88030   3.758   7.275   0.418
15716W        W88031  23.985   9.721  12.825
15717W        W88032  18.182   4.438  12.035
15718W        W88033   9.152  44.803   3.712
15719W        W88034  39.841  36.842   2.844
15720W        W88035   5.253  15.715   0.810
15721W        W88036  36.441  38.852  10.587
15722W        W88037  19.133  10.352  12.440
15723W        W88038  44.883   3.406  12.066
15724W        W88039  12.169   5.772   0.732
15725W        W88040   7.210  25.665  10.575
15726W        W88041  14.643  15.083   3.785
15727W        W88042   4.942   2.346  13.802
15728W        W88043  10.687  39.866  12.962
15729W        W88044   7.341  16.204   1.375
15730W        W88045  26.053  34.392   5.654
15731W        W88046  18.283   7.171   9.973
15732W        W88047  12.744  27.657  13.026
15733W        W88048  27.588  40.018   3.195
15734W        W88049   0.395  12.743  14.330
15735W        W88050  35.940  40.403  13.507
15736W        W88051  39.458   2.858   0.324
15737W        W88052  23.138  11.194  14.998
15738W        W88053  25.481  24.594   2.711
15739W        W88054   5.331  25.612   3.687
15740W        W88055  38.389   5.256  11.379
15741W        W88056   9.715   3.955  14.457
15742W        W88057   7.264  21.236  12.505
15743W        W88058  38.477  22.668  10.981
15744W        W88059  10.149  14.315   0.814
15745W        W88060  44.323   4.221  13.799
15746W        W88061  43.899  41.375   1.364
15747W        W88062  36.460  44.419  13.523
15748W        W88063  25.104  39.041  13.884
15749W        W88064  17.601  18.637  14.935
15750W        W88065   2.341  20.531  14.436
15751W        W88066  38.568  30.611   4.828
15752W        W88067  12.856  41.939   2.794
15753W        W88068   4.911   3.935   2.203
15754W        W88069  29.983  37.551  13.504
15755W        W88070  24.003   4.805  13.033
15756W        W88071   3.219  16.111   4.771
15757W        W88072   8.841  38.517   3.700
15758W        W88073  28.580  34.914  14.408
15759W        W88074  11.840  36.593  10.449
15760W        W88075  18.292   5.225   3.718
15761W        W88076  29.973  26.100   0.787
15762W        W88077  10.347   3.319  10.134
15763W        W88078   7.344   5.893  14.825
15764W        W88079   5.206  20.748  10.956
15765W        W88080  22.228  36.045  14.997
15766W        W88081  16.809  24.533   4.778
15767W        W88082  19.236   7.697   1.246
15768W        W88083  17.264   6.776   4.173
15769W        W88084  30.907  28.117  10.472
15770W        W88085  35.592  25.084  12.512
15771W        W88086  11.219   9.673  13.424
15772W        W88087   6.364  30.516   2.673
15773W        W88088   2.248  40.810  12.920
15774W        W88089  12.291  15.748   4.623
15775W        W88090  37.005  15.272   2.342
15776W        W88091  33.577  44.002   4.281
15777W        W88092   4.287   1.358  11.518
15778W        W88093  36.483  36.035  13.801
15779W        W88094  34.516   0.336   3.338
15780W        W88095  29.933   3.324   1.730
15781W        W88096  10.689  13.715  13.385
15782W        W88097   9.253  42.821  12.417
15783W        W88098  27.482   6.338   5.710
15784W        W88099   2.357  33.409  13.888
15785W        W88100  18.075  37.567   1.339
15786W        W88101  28.177  38.371  13.888
15787W        W88102  11.769  24.024  11.970
15788W        W88103  35.432  10.636  12.951
15789W        W88104  23.098  29.667   1.770
15790W        W88105  10.788  19.257  13.375
15791W        W88106   4.838   6.857   2.830
15792W        W88107  21.097  18.585  12.436
15793W        W88108  29.094  42.352  11.568
15794W        W88109  38.047  13.767  14.978
15795W        W88110  44.372   6.696  12.902
15796W        W88111   6.805  39.458  12.496
15797W        W88112  26.037  42.959  11.456
15798W        W88113  31.046  24.166  11.901
15799W        W88114  39.357   5.834  11.437
15800W        W88115  42.336  15.683  12.563
15801W        W88116  25.692   1.974   0.343
15802W        W88117  29.026  39.049   1.852
15803W        W88118  42.525   8.360  12.373
15804W        W88119  29.455  41.330  10.075
15805W        W88120   0.250  10.695   2.271
15806W        W88121   6.721   8.752  10.494
15807W        W88122  30.918   1.307  11.460
15808W        W88123   8.179  24.701   4.709
15809W        W88124  29.997  21.661   3.702
15810W        W88125  29.124  10.860  13.531
15811W        W88126  35.021   3.396  10.480
15812W        W88127  12.309   2.326   4.688
15813W        W88128  12.165  40.431   3.645
15814W        W88129  43.970  44.315   4.281
15815W        W88130  11.139  10.335  13.045
15816W        W88131  14.688   9.178  11.043
15817W        W88132  17.290  20.071  14.335
15818W        W88133  18.707  43.784   3.250
15819W        W88134  31.942  43.488  11.003
15820W        W88135  17.087  30.435   1.759
15821W        W88136  42.363   6.908  13.841
15822W        W88137   3.361  11.269   4.279
15823W        W88138  31.533  29.479  10.635
15824W        W88139  38.905  21.204  14.285
15825W        W88140  37.474   4.795  13.387
15826W        W88141  29.927  32.621   2.678
15827W        W88142  22.172  16.247  11.902
15828W        W88143   0.847  26.172  10.463
15829W        W88144  40.417  29.515   0.756
15830W        W88145  35.441  42.453  13.020
15831W        W88146  15.619  19.664  10.418
15832W        W88147   0.756  21.714   4.239
15833W        W88148   9.800  35.917   1.273
15834W        W88149  27.686  40.304   4.750
15835W        W88150  21.101   5.293  11.067
15836W        W88151  15.738  43.936  10.087
15837W        W88152  40.915  18.773   4.743
15838W        W88153  23.228  33.124   0.418
15839W        W88154  34.903  13.771  12.904
15840W        W88155  30.936   8.799  14.400
15841W        W88156  28.139   4.341   3.196
15842W        W88157  38.397   0.748  13.820
15843W        W88158  20.549  43.006   3.761
15844W        W88159  34.485  25.631  11.062
15845W        W88160  34.078   1.801  10.508
15846W        W88161   5.354   8.268   1.858
15847W        W88162  11.293  12.200   2.876
15848W        W88163  16.609  32.407  11.112
15849W        W88164  31.092  21.589  14.429
15850W        W88165  21.581  33.482  12.363
15851W        W88166   2.964  26.018  11.872
15852W        W88167  16.119  20.107   3.335
15853W        W88168  25.694  27.667  13.903
15854W        W88169  14.280   0.801   0.389
15855W        W88170  19.674   5.851  11.379
15856W        W88171   2.311  30.649   4.257
15857W        W88172  21.213  11.349  12.569
15858W        W88173  31.406  26.472  13.876
15859W        W88174  16.789  29.599  10.900
15860W        W88175   0.442  42.360   0.739
15861W        W88176  43.466  32.406  13.360
15862W        W88177  37.466  34.515  10.948
15863W        W88178  24.714  16.804   2.300
15864W        W88179  20.106  26.110  14.356
15865W        W88180  37.877  41.403   1.825
15866W        W88181  40.845  10.263  14.442
15867W        W88182  41.941  28.187  12.467
15868W        W88183  30.927   9.160  12.466
15869W        W88184  10.368  27.505   2.196
15870W        W88185   8.211  33.955   1.343
15871W        W88186   7.870  29.059   2.411
15872W        W88187  39.828  34.606   2.788
15873W        W88188  29.128   5.831   2.756
15874W        W88189  15.176   1.819  14.907
15875W        W88190  38.421  16.267  13.869
15876W        W88191  38.376  42.480   1.400
15877W        W88192  33.919  39.550   4.602
15878W        W88193   2.441  27.561   4.137
15879W        W88194  28.488   8.714  12.548
15880W        W88195  35.487  14.111   0.432
15881W        W88196  37.388   2.784   3.349
15882W        W88197  20.670  40.956   4.126
15883W        W88198  37.934  28.932   3.181
15884W        W88199  18.263  14.799   3.374
15885W        W88200   7.860  13.618   1.446
15886W        W88201  30.450   5.249  12.475
15887W        W88202  27.133  33.553  11.936
15888W        W88203  26.958  11.272   1.808
15889W        W88204   6.375  31.471   1.247
15890W        W88205   1.884  10.701   4.159
15891W        W88206  10.852   2.309  13.829
15892W        W88207  13.182  10.372  13.335
15893W        W88208  10.325   0.467   0.371
15894W        W88209  35.550   6.290   0.480
15895W        W88210  19.225  21.151   4.829
15896W        W88211  25.661  41.875   1.837
15897W        W88212  19.690   9.713   1.318
15898W        W88213  21.602   5.855   0.949
15899W        W88214  15.192  23.711   3.343
15900W        W88215  13.684  17.271  13.854
15901W        W88216  13.341  17.242   3.291
15902W        W88217  42.517  28.519   1.706
15903W        W88218  32.569  39.961   2.662
15904W        W88219  15.625  41.448  13.856
15905W        W88220  11.762  14.114  13.310
15906W        W88221  14.626  15.587   0.456
15907W        W88222  31.039  38.003  12.478
15908W        W88223   6.191  41.329   0.822
15909W        W88224  19.759   0.858   0.790
15910W        W88225  37.011   4.271  11.590
15911W        W88226  40.533   3.260   3.852
15912W        W88227  39.978  39.432   4.175
15913W        W88228  32.910  33.992   4.775
15914W        W88229   5.378   6.323   4.835
15915W        W88230   2.927   7.196   1.756
15916W        W88231  30.424  24.679  12.497
15917W        W88232  26.067  27.995  11.541
15918W        W88233  43.332  25.054   4.149
15919W        W88234   9.178   7.199  13.401
15920W        W88235  39.808  29.002  11.875
15921W        W88236  35.915  12.700  11.083
15922W        W88237  18.668   3.399   0.895
15923W        W88238  30.143  25.105  11.871
15924W        W88239  27.655  11.149  11.565
15925W        W88240  17.226  40.049   3.851
15926W        W88241  23.017   7.183  12.918
15927W        W88242  27.163  15.687   1.878
15928W        W88243  20.270  43.981  14.355
15929W        W88244   4.247  11.623  12.887
15930W        W88245  44.400  18.633   4.149
15931W        W88246  29.997   2.943   2.690
15932W        W88247  34.393  33.937  12.552
15933W        W88248   3.795  35.493   1.900
15934W        W88249  25.556  44.502  14.438
15935W        W88250  44.386  12.258  13.030
15936W        W88251  30.007   7.748   0.773
15937W        W88252  44.811  14.780  12.055
15938W        W88253   6.806   5.395  10.573
15939W        W88254  38.552   0.417   1.798
15940W        W88255  37.941  27.127   0.383
15941W        W88256  34.036  39.528   2.288
15942W        W88257  28.119  31.641   4.316
15943W        W88258  13.710  43.512  12.506
15944W        W88259  21.608  17.208   3.343
15945W        W88260  24.636  27.961   2.879
15946W        W88261  31.535  28.611  12.000
15947W        W88262   4.324  43.972   2.860
15948W        W88263  17.602   9.666   3.854
15949W        W88264  16.124  29.945  12.546
15950W        W88265  22.534   2.844  11.902
15951W        W88266  40.867   6.396   2.269
15952W        W88267  37.481  10.806   0.875
15953W        W88268  30.589   3.801  10.992
15954W        W88269  36.456  33.558   0.811
15955W        W88270  10.697  31.143   3.863
15956W        W88271  42.889  18.272  11.917
15957W        W88272  11.200  11.638   3.363
15958W        W88273   9.315  42.381  13.061
15959W        W88274  20.043  20.234   4.733
15960W        W88275  39.552   3.405   3.323
15961W        W88276  44.444   6.338  14.490
15962W        W88277   6.193  21.252   4.182
15963W        W88278   0.272  44.308   1.744
15964W        W88279  16.124  44.337   2.770
15965W        W88280  20.132  29.569   4.658
15966W        W88281  21.731   8.696   2.881
15967W        W88282  40.543  26.039   0.464
15968W        W88283  27.978  16.607   3.155
15969W        W88284  30.435  27.165   4.147
15970W        W88285   0.325  35.506   2.830
15971W        W88286  17.682  13.137   4.276
15972W        W88287   2.743  10.708  12.977
15973W        W88288  41.346  16.209  10.639
15974W        W88289   4.269  24.132  10.534
15975W        W88290   8.402   9.724  13.988
15976W        W88291  10.329  44.807  11.546
15977W        W88292   0.969  16.198   1.906
15978W        W88293  36.046  24.564   0.761
15979W        W88294  42.945   5.720   2.695
15980W        W88295  37.915   4.921  12.398
15981W        W88296  37.395  37.969  10.453
15982W        W88297  15.646  28.165  14.438
15983W        W88298   6.228   1.457   3.252
15984W        W88299   1.277  27.595   1.284
15985W        W88300  10.832   6.290  12.011
15986W        W88301  18.668  36.494  10.952
15987W        W88302  29.510   8.737   3.317
15988W        W88303  27.661   3.751   5.208
15989W        W88304  14.104  39.403  14.502
15990W        W88305   4.254  23.063  13.795
15991W        W88306   1.895   9.291  10.990
15992W        W88307  18.071   2.268  14.351
15993W        W88308  29.452  12.138   4.839
15994W        W88309  28.057  26.584   4.336
15995W        W88310   9.884  32.464   0.865
15996W        W88311  24.004  16.732  13.813
15997W        W88312  43.478  13.709  10.630
15998W        W88313  28.051   1.960  14.030
15999W        W88314  37.505  21.735  11.128
16000W        W88315  38.936   1.341   3.265
16001W        W88316  22.584  20.523  10.928
16002W        W88317  11.736  11.328   2.392
16003W        W88318   1.423  17.600  14.319
16004W        W88319  37.005   6.404   4.668
16005W        W88320  10.779   9.393   3.282
16006W        W88321  38.862   5.830   9.950
16007W        W88322   2.419  42.879   1.240
16008W        W88323  16.079  41.910   1.321
16009W        W88324  12.193   0.865  14.861
16010W        W88325  28.048   2.253  10.916
16011W        W88326   6.790  26.670   1.770
16012W        W88327   4.938  12.814  12.853
16013W        W88328  41.506  12.347  14.509
16014W        W88329  40.973  16.602   1.806
16015W        W88330   2.383   2.290   4.268
16016W        W88331   3.419   7.689   0.478
16017W        W88332   4.310  32.989   1.325
16018W        W88333   5.300  32.078  13.486
16019W        W88334   0.481  37.545  10.624
16020W        W88335  41.799  29.022   0.742
16021W        W88336  31.586  36.016  12.009
16022W        W88337  32.512  22.511   2.862
16023W        W88338   6.389  11.241   0.946
16024W        W88339  36.561  34.411   1.821
16025W        W88340   0.850  37.533   2.731
16026W        W88341  33.002  18.197  13.313
16027W        W88342   5.386  26.600   1.921
16028W        W88343  40.486  29.478  14.967
16029W        W88344  21.201  11.304   4.810
16030W        W88345  38.521  32.446  13.341
16031W        W88346  34.433  24.691  11.874
16032W        W88347  19.064  16.728  14.320
16033W        W88348  34.100  30.081  11.479
16034W        W88349  31.410  39.450  11.510
16035W        W88350   8.161  36.545   4.313
16036W        W88351   4.312  18.639   3.168
16037W        W88352  17.565  13.289   1.400
16038W        W88353  11.255  40.447  13.351
16039W        W88354  32.946  16.797  11.610
16040W        W88355  25.998  24.031  11.530
16041W        W88356  37.404   5.283   2.228
16042W        W88357  35.541  34.915  12.060
16043W        W88358  10.357   3.274  11.903
16044W        W88359  34.104  11.862  14.783
16045W        W88360  23.144  31.423  13.991
16046W        W88361  25.566  33.934   2.801
16047W        W88362  35.108  40.530  13.881
16048W        W88363  31.927  27.973   2.179
16049W        W88364  29.055  23.211  13.927
16050W        W88365  30.117   2.414  13.985
16051W        W88366  25.477   0.328  10.955
16052W        W88367   4.721  17.064  13.476
16053W        W88368  37.942   5.439  13.440
16054W        W88369  17.591   7.712  14.344
16055W        W88370  11.148  17.730  11.605
16056W        W88371   0.834  29.158  10.415
16057W        W88372  40.937   4.427   3.207
16058W        W88373   3.721  19.139  13.944
16059W        W88374  11.644  37.949   1.400
16060W        W88375  27.582   1.394   0.439
16061W        W88376  38.046  19.612  13.407
16062W        W88377   1.771  34.888   3.841
16063W        W88378  22.210  30.511   0.411
16064W        W88379  37.924  27.076  12.830
16065W        W88380  29.425  12.736   4.241
16066W        W88381  23.582  33.546   2.852
16067W        W88382  43.858  30.932   3.639
16068W        W88383  21.748   1.863  13.885
16069W        W88384   9.780  18.755  10.556
16070W        W88385  16.666  22.686  13.853
16071W        W88386   8.758  23.559  11.522
16072W        W88387  33.414  11.749  11.054
16073W        W88388   3.830  16.074  12.084
16074W        W88389  41.526  30.052  14.954
16075W        W88390  43.802   3.930   3.330
16076W        W88391  20.097  33.917  10.987
16077W        W88392   9.336  13.278  14.407
16078W        W88393   7.730  44.264  12.026
16079W        W88394  31.095   7.722   0.880
16080W        W88395  40.309  29.148  13.969
16081W        W88396  41.319   3.761  10.528
16082W        W88397  16.155   7.702  12.467
16083W        W88398   2.725  44.426  13.489
16084W        W88399  16.733  38.891  12.904
16085W        W88400  40.932  22.577   2.844
16086W        W88401  31.643  24.551  12.399
16087W        W88402  38.850  42.385   1.393
16088W        W88403  41.956  35.987  11.572
16089W        W88404   3.956  32.568  12.368
16090W        W88405  10.774  38.822  13.489
16091W        W88406   7.683  20.263   3.373
16092W        W88407  18.669  21.516   3.791
16093W        W88408  26.683   5.329   1.266
16094W        W88409  18.650  17.646   0.966
16095W        W88410  24.194  42.493   1.435
16096W        W88411  44.850   9.875  11.406
16097W        W88412  24.156  19.749  13.522
16098W        W88413   0.970  38.561  10.932
16099W        W88414  28.954   7.236  11.401
16100W        W88415  13.700   3.920   0.802
16101W        W88416  42.293  36.498   3.789
16102W        W88417  43.866  22.091   2.414
16103W        W88418   4.888   4.835   4.834
16104W        W88419   5.223  40.476  10.917
16105W        W88420  10.868  13.818   3.192
16106W        W88421  10.383  33.014  12.904
16107W        W88422  15.683   2.864  11.399
16108W        W88423  25.212   6.410   3.362
16109W        W88424   8.829   5.779   3.853
16110W        W88425  33.462  24.710  10.617
16111W        W88426  17.751   7.258   2.365
16112W        W88427  31.966  15.287  10.477
16113W        W88428  29.112  40.907  13.868
16114W        W88429   9.255   2.840   3.708
16115W        W88430  19.125  34.492   2.187
16116W        W88431  16.769  17.092  10.554
16117W        W88432  11.156  37.372  13.912
16118W        W88433  36.382  25.512   0.792
16119W        W88434  22.523  11.139   3.263
16120W        W88435  17.651  30.626   5.120
16121W        W88436  40.311  31.104  12.883
16122W        W88437  44.782  15.634  10.053
16123W        W88438  31.594  11.334   4.326
16124W        W88439  10.369  12.318  11.122
16125W        W88440  26.168  26.972   4.640
16126W        W88441  13.767   9.160  14.319
16127W        W88442  20.271  37.462   3.168
16128W        W88443  15.188  22.122  13.464
16129W        W88444  22.533  15.765   0.735
16130W        W88445  44.963  44.318   4.664
16131W        W88446  33.885  36.858  13.343
16132W        W88447   6.312  10.270   3.211
16133W        W88448  27.635  26.152  11.120
16134W        W88449  31.014  29.170   2.365
16135W        W88450   7.394  41.943   1.910
16136W        W88451   9.729   1.879  11.447
16137W        W88452   3.376   8.178  14.924
16138W        W88453  44.945  24.015   3.853
16139W        W88454  22.617  27.048   0.432
16140W        W88455  10.862  11.309  14.797
16141W        W88456  18.256  19.063  10.471
16142W        W88457  36.976  25.029  10.622
16143W        W88458   5.336  23.099   1.926
16144W        W88459   9.154  22.041  10.642
16145W        W88460  28.111  37.493  10.445
16146W        W88461  34.111  20.071  14.278
16147W        W88462  10.806  24.224  11.957
16148W        W88463  17.200  21.734  12.426
16149W        W88464  19.232   4.727   3.695
16150W        W88465   4.297  17.305  13.528
16151W        W88466  42.517  28.077  12.381
16152W        W88467   0.772  11.216  10.522
16153W        W88468  17.683  36.504  11.045
16154W        W88469  42.471  15.630   2.352
16155W        W88470   4.785  39.973  11.572
16156W        W88471  40.854  26.481   3.280
16157W        W88472  39.948  20.174   1.374
16158W        W88473  14.651  26.206   0.324
16159W        W88474  15.723  38.431  12.558
16160W        W88475  41.955  40.329   1.306
16161W        W88476   3.242  41.335  14.022
16162W        W88477  25.186  41.318   1.407
16163W        W88478  36.887   2.804  12.503
16164W        W88479  14.339  19.121  12.832
16165W        W88480  35.971  29.117   3.339
16166W        W88481  32.583  16.119   2.354
16167W        W88482   2.788  35.065   2.735
16168W        W88483   6.363  42.020  10.517
16169W        W88484  37.978  42.891  13.900
16170W        W88485  35.451  44.373   2.765
16171W        W88486  32.593  20.767   3.710
16172W        W88487  18.757  27.049   4.600
16173W        W88488   1.862  44.324   0.744
16174W        W88489  32.553  44.832   0.949
16175W        W88490  31.621   0.406   1.770
16176W        W88491  38.565   5.809  14.877
16177W        W88492  21.079  19.144   1.401
16178W        W88493   5.736  18.193  14.277
16179W        W88494   7.718  10.237  14.909
16180W        W88495  13.202  34.590  14.504
16181W        W88496  30.437  31.032   3.853
16182W        W88497   8.897  42.023   4.263
16183W        W88498  21.581  33.440   3.298
16184W        W88499   4.834  28.635   2.237
16185W        W88500  41.904  32.096   2.211
16186W        W88501  31.420   1.440  13.310
16187W        W88502   2.952  25.985   3.814
16188W        W88503  17.632  18.197  10.973
16189W        W88504  21.608   9.657   1.241
16190W        W88505   7.798  43.426   3.820
16191W        W88506  44.779   7.689  11.929
16192W        W88507  37.364  28.611  13.430
16193W        W88508   4.237  14.724   1.864
16194W        W88509  15.131  23.684  11.456
16195W        W88510  25.627  39.315  10.536
16196W        W88511   7.686  42.012  12.427
16197W        W88512  18.147  31.017  13.362
16198W        W88513   8.279  41.352  12.956
16199W        W88514  28.039   7.897  13.363
16200W        W88515   5.350  14.609  12.055
16201W        W88516   1.898  37.898   0.946
16202W        W88517  22.653   3.222   4.668
16203W        W88518  32.018   0.960   5.246
16204W        W88519  33.929  25.051   3.777
16205W        W88520  11.813  37.436   4.306
16206W        W88521  43.857   2.943   1.752
16207W        W88522  24.109  21.628  11.565
16208W        W88523  14.213  19.713   1.914
16209W        W88524  14.267  22.207  10.410
16210W        W88525  25.059   1.735   3.799
16211W        W88526  41.877  25.042   2.256
16212W        W88527  23.232  18.661   4.206
16213W        W88528  28.075   2.360  13.320
16214W        W88529   0.971  33.431   3.312
16215W        W88530  25.515   8.837   2.198
16216W        W88531  33.950  17.690   3.231
16217W        W88532  15.806  22.075  12.861
16218W        W88533   9.340  10.799   0.395
16219W        W88534  39.328  18.050   1.783
16220W        W88535  36.356  41.342   4.633
16221W        W88536  14.141  24.118  11.035
16222W        W88537  16.678  44.500   4.310
16223W        W88538   3.802  27.952  11.515
16224W        W88539  32.631  11.841  12.992
16225W        W88540   0.428   2.870   0.955
16226W        W88541  35.053  40.517  12.926
16227W        W88542   5.260  22.223  14.287
16228W        W88543  44.775   2.232   4.821
16229W        W88544  14.595  25.604   4.774
16230W        W88545  30.932  16.644  13.801
16231W        W88546  37.895  42.319  12.901
16232W        W88547  44.753  36.405  10.456
16233W        W88548  44.498  40.003   0.804
16234W        W88549  36.378  24.094  13.345
16235W        W88550  30.932  25.064  11.451
16236W        W88551   1.457  41.787   3.152
16237W        W88552  27.469  38.838  11.431
16238W        W88553  33.388   3.888  12.937
16239W        W88554   1.472  10.215  12.392
16240W        W88555  40.383  20.266   2.406
16241W        W88556  28.621  42.865   1.409
16242W        W88557  27.021   3.878  13.338
16243W        W88558  37.398   0.444  12.839
16244W        W88559   3.793   8.673   4.233
16245W        W88560   1.966  22.607   3.750
16246W        W88561   2.368  16.293   3.754
16247W        W88562   1.248  31.576  12.067
16248W        W88563   1.384  20.163  11.593
16249W        W88564  10.648  36.851  12.559
16250W        W88565  20.761  42.366   3.331
16251W        W88566   9.390   1.810  14.374
16252W        W88567  18.741  44.332   0.884
16253W        W88568  16.206   2.897  11.103
16254W        W88569  10.263  35.568   3.343
16255W        W88570  34.417   5.708   3.867
16256W        W88571   0.897   7.405  11.935
16257W        W88572  26.664   4.820   2.895
16258W        W88573   2.323  20.747   1.322
16259W        W88574  39.384   1.472   4.353
16260W        W88575  20.726  11.635  11.116
16261W        W88576  35.038   5.228  10.946
16262W        W88577  17.142  19.544   5.174
16263W        W88578  16.139  19.257   3.148
16264W        W88579  11.328  19.764   4.217
16265W        W88580  42.298  16.795   3.701
16266W        W88581  41.442  35.953  13.498
16267W        W88582   9.803  39.960   3.225
16268W        W88583  32.516  29.133  14.027
16269W        W88584  26.159   9.260  11.929
16270W        W88585   3.842   4.417  13.990
16271W        W88586  40.913  25.213  13.385
16272W        W88587  28.678  27.480   0.318
16273W        W88588  24.123  23.074  11.555
16274W        W88589  28.456  18.278   3.338
16275W        W88590  39.499   9.273   0.446
16276W        W88591  16.576  27.949   5.102
16277W        W88592  43.356  21.578  11.544
16278W        W88593   1.260   0.956  13.471
16279W        W88594  30.470  31.475   2.695
16280W        W88595  42.376  22.185  10.635
16281W        W88596  22.145  14.099   2.875
16282W        W88597  37.976  16.633  13.795
16283W        W88598  29.653   3.912  14.493
16284W        W88599  16.678   1.328   3.835
16285W        W88600  24.646   6.330   3.213
16286W        W88601   1.286  34.108  11.012
16287W        W88602   5.223  23.136  10.622
16288W        W88603  36.871  41.035  12.379
16289W        W88604   5.326  35.558  13.873
16290W        W88605  20.046  43.769   0.767
16291W        W88606  27.132  10.171  12.452
16292W        W88607  27.075  32.893  12.964
16293W        W88608  31.075  27.147  13.825
16294W        W88609  17.775  22.604   3.728
16295W        W88610  28.574  34.081   0.374
16296W        W88611  33.986   3.740  14.473
16297W        W88612  14.813   8.303  14.499
16298W        W88613  13.794  27.948  13.462
16299W        W88614  42.799  23.236  14.355
16300W        W88615  25.620  26.472   3.195
16301W        W88616  44.384  23.112   0.254
16302W        W88617  27.087   0.353  12.966
16303W        W88618  35.095   1.305   1.253
16304W        W88619  44.501  18.611  12.531
16305W        W88620   4.861  16.737   3.381
16306W        W88621  15.581   9.330   3.328
16307W        W88622  38.344   7.211   0.459
16308W        W88623  19.715  36.054  11.970
16309W        W88624  42.976  20.686  11.531
16310W        W88625  40.868  10.227  14.927
16311W        W88626  19.233  37.402   0.793
16312W        W88627  21.100  24.570   4.290
16313W        W88628  30.440  19.069  11.082
16314W        W88629  24.720  13.307  11.056
16315W        W88630  27.017  41.008   1.870
16316W        W88631  40.895  39.527  14.512
16317W        W88632  33.881  43.439   1.257
16318W        W88633  41.018  43.328   4.710
16319W        W88634  16.261  35.988   3.791
16320W        W88635   2.356  13.599  13.795
16321W        W88636  21.684  22.049  12.367
16322W        W88637  13.747  29.512  13.414
16323W        W88638  34.913   9.874   2.777
16324W        W88639  22.198  25.141   4.687
16325W        W88640  24.580  18.731   2.273
16326W        W88641   6.906  26.614  12.849
16327W        W88642   4.920  25.646  14.863
16328W        W88643  26.486  18.281  10.521
16329W        W88644  35.377   0.352  10.943
16330W        W88645   9.175   6.766  10.549
16331W        W88646   0.782  31.921  12.072
16332W        W88647  42.388  29.000   1.301
16333W        W88648   3.226  43.969   9.984
16334W        W88649  43.483  35.574  14.288
16335W        W88650  19.621   5.825  12.937
16336W        W88651  33.978  20.568  14.281
16337W        W88652   9.646  34.883   4.281
16338W        W88653  42.518   1.800   3.694
16339W        W88654  28.117   0.982   4.155
16340W        W88655  13.134  20.170   1.329
16341W        W88656  25.609  30.084  11.026
16342W        W88657  21.056   8.871   1.310
16343W        W88658  13.733  40.949   0.948
16344W        W88659  11.820  41.506  13.024
16345W        W88660  16.577  33.467  14.879
16346W        W88661  42.439  16.082   4.284
16347W        W88662  14.702  22.505   2.228
16348W        W88663  26.078   4.724   9.985
16349W        W88664   4.316   1.385  12.830
16350W        W88665  31.580   2.312   0.851
16351W        W88666  41.871  13.268  11.998
16352W        W88667  42.387  37.891   3.823
16353W        W88668   3.219  44.772   1.766
16354W        W88669  22.155  19.050  10.482
16355W        W88670  34.102  28.664   0.441
16356W        W88671  18.205  19.737   3.805
16357W        W88672  43.476  36.939  11.041
16358W        W88673  31.412  36.892   4.682
16359W        W88674  21.635  22.129   1.834
16360W        W88675  26.022  15.742  11.954
16361W        W88676   4.783  22.128   0.334
16362W        W88677  44.402  19.222  10.501
16363W        W88678   5.377  30.963   3.659
16364W        W88679  24.060   2.749  13.317
16365W        W88680  26.464   6.866  14.956
16366W        W88681  29.005  20.085  12.061
16367W        W88682  44.487  40.343   4.218
16368W        W88683  12.701  37.866   3.723
16369W        W88684   2.806  37.336   3.249
16370W        W88685  44.952   8.673  11.876
16371W        W88686  29.034  21.189  12.865
16372W        W88687  28.143  27.190  10.441
16373W        W88688  42.849  40.524   4.763
16374W        W88689   9.744  27.945  11.986
16375W        W88690  23.710  31.018  14.974
16376W        W88691  11.252  30.508   1.317
16377W        W88692  34.564  41.372  11.127
16378W        W88693  33.024  16.744   2.800
16379W        W88694  34.027   0.985   4.242
16380W        W88695  41.515   9.726   3.780
16381W        W88696  39.488   5.380   1.758
16382W        W88697  11.855   8.299   4.735
16383W        W88698   7.678  22.084  12.419
16384W        W88699   7.789  39.519   1.773
16385W        W88700  34.933  17.182  12.016
16386W        W88701  27.149  14.720  13.487
16387W        W88702  22.080  26.056   2.815
16388W        W88703  34.970  17.781   0.337
16389W        W88704  37.879   1.468  13.990
16390W        W88705   4.215  35.565   3.855
16391W        W88706  20.537   5.907  13.944
16392W        W88707  41.848  16.275  13.443
16393W        W88708  41.293  30.109   3.309
16394W        W88709  14.274  13.193   4.234
16395W        W88710  18.785  26.028   0.924
16396W        W88711  28.970  20.125  11.372
16397W        W88712  10.778  44.852  12.869
16398W        W88713  28.659  35.483  12.073
16399W        W88714  19.716  30.064  14.313
16400W        W88715   7.827  15.167  13.452
16401W        W88716  12.149   9.351  14.399
16402W        W88717  23.067  21.581  12.521
16403W        W88718  43.882  18.277   1.426
16404W        W88719   6.677  42.318   4.750
16405W        W88720  15.794  32.523   0.457
16406W        W88721  29.593  18.219  14.917
16407W        W88722  30.479  23.507  14.807
16408W        W88723   5.328  40.945  12.864
16409W        W88724  32.611   8.853   3.705
16410W        W88725  24.095  41.918  14.025
16411W        W88726  29.992  33.972  13.952
16412W        W88727  39.551  17.775   2.187
16413W        W88728  13.647   1.277  14.342
16414W        W88729   9.369  29.626   3.768
16415W        W88730  23.673  26.677   1.345
16416W        W88731  19.644  13.172   1.328
16417W        W88732  36.004  30.518  13.326
16418W        W88733  37.845  44.915   2.415
16419W        W88734   9.661  18.585   0.323
16420W        W88735   6.411   5.221   3.770
16421W        W88736  40.846   9.317   2.716
16422W        W88737  27.482  38.430  11.953
16423W        W88738  18.600   3.828   0.314
16424W        W88739  17.626  41.824   4.345
16425W        W88740  41.963  34.970  13.321
16426W        W88741  19.120  35.904   4.811
16427W        W88742  44.005  11.738   2.781
16428W        W88743   0.261  25.575  14.381
16429W        W88744  17.742  36.855   3.638
16430W        W88745   4.921   7.844  13.945
16431W        W88746  38.528   3.813   2.797
16432W        W88747  40.478  28.524  12.875
16433W        W88748  18.781  10.300   1.419
16434W        W88749  23.596  26.536   1.708
16435W        W88750  28.488   2.226   1.310
16436W        W88751  36.480   7.780  14.486
16437W        W88752   6.341  42.348  14.473
16438W        W88753  28.553  41.395   1.784
16439W        W88754  11.831  40.021  13.451
16440W        W88755  31.466   0.386  12.974
16441W        W88756  38.968  18.057   0.391
16442W        W88757   4.242  19.236  12.874
16443W        W88758  28.030  14.814  12.365
16444W        W88759  33.394  42.450  12.513
16445W        W88760   3.887  14.595  11.506
16446W        W88761  43.276   3.825   0.842
16447W        W88762  37.500  23.543  13.475
16448W        W88763   9.294   4.293  12.956
16449W        W88764  36.043  21.732  11.082
16450W        W88765  41.894  16.741  13.500
16451W        W88766   3.410  44.420   2.400
16452W        W88767  23.499   4.895  12.024
16453W        W88768  39.441  14.632  12.073
16454W        W88769  28.577   5.380  14.501
16455W        W88770  25.478  12.612   0.392
16456W        W88771  23.208   1.268  12.005
16457W        W88772   0.271  20.647   2.822
16458W        W88773  41.017   5.812  11.542
16459W        W88774   4.223  33.393  13.862
16460W        W88775  13.268  42.885  14.903
16461W        W88776  18.144  19.548  11.060
16462W        W88777  28.590  15.701   0.819
16463W        W88778  16.678  11.359  11.544
16464W        W88779  24.205  19.588   0.444
16465W        W88780  32.581  42.359  11.959
16466W        W88781   6.753  34.386   0.422
16467W        W88782  31.572   8.237  12.840
16468W        W88783  21.709  18.631  13.539
16469W        W88784  30.541   5.723  13.546
16470W        W88785  24.191   0.270   3.838
16471W        W88786  32.010   9.286  13.467
16472W        W88787  23.178   6.692   3.257
16473W        W88788  44.389  24.554  10.587
16474W        W88789  30.086  12.813   0.887
16475W        W88790  19.173  19.621   0.453
16476W        W88791  44.864  40.503  11.955
16477W        W88792  26.519  10.868  11.059
16478W        W88793  36.917  32.518   4.344
16479W        W88794  17.076  37.960   2.261
16480W        W88795  43.501   8.799   2.358
16481W        W88796  19.682  20.231   3.335
16482W        W88797   2.442  30.659   3.764
16483W        W88798  23.691  22.072   0.755
16484W        W88799  21.243   0.785   3.690
16485W        W88800  17.584  15.142  11.036
16486W        W88801  40.956  37.467   1.705
16487W        W88802   8.284  37.006   3.648
16488W        W88803  11.865  19.158  13.048
16489W        W88804   8.277  18.238   3.788
16490W        W88805   1.367  16.087  13.323
16491W        W88806  11.352  23.631  13.885
16492W        W88807  16.180  20.090   2.759
16493W        W88808  25.975  39.430  13.848
16494W        W88809  12.618  17.703   0.249
16495W        W88810  21.211   5.276   3.179
16496W        W88811  23.546  29.925  12.885
16497W        W88812  42.332   0.270   4.682
16498W        W88813  29.482   5.319   1.233
16499W        W88814  22.091  43.841   1.875
16500W        W88815  39.430  16.773  14.013
16501W        W88816  31.922   7.891   3.273
16502W        W88817  38.545  10.655   0.377
16503W        W88818  11.839  35.428  11.520
16504W        W88819  17.637  38.456  13.498
16505W        W88820  42.870  40.008  10.465
16506W        W88821  34.527  44.493  12.022
16507W        W88822  28.498  40.367   1.290
16508W        W88823  40.999  34.995  11.992
16509W        W88824   3.913  31.952  14.912
16510W        W88825   0.754  22.576  12.844
16511W        W88826  25.505  29.497   1.247
16512W        W88827  24.072  26.519   1.823
16513W        W88828   6.224  24.586  14.966
16514W        W88829  39.911  14.212   3.643
16515W        W88830  17.121  20.610   2.901
16516W        W88831  16.660   6.225   1.215
16517W        W88832  21.565  37.894   1.397
16518W        W88833  26.527  28.494   4.642
16519W        W88834  24.185   1.829  14.391
16520W        W88835  22.095  24.063   2.371
16521W        W88836  13.693  28.038  12.051
16522W        W88837  29.089  12.123   1.782
16523W        W88838  32.469   9.718  14.493
16524W        W88839  44.789  10.351  10.999
16525W        W88840  41.828  21.644   1.777
16526W        W88841  30.440  33.431   3.791
16527W        W88842  12.819  43.835  11.054
16528W        W88843  36.572  29.437  12.088
16529W        W88844  19.730  30.109   2.375
16530W        W88845  42.371   0.938   1.351
16531W        W88846  25.543  32.067   2.323
16532W        W88847  40.393  24.082   2.873
16533W        W88848  35.954  25.975  11.996
16534W        W88849  28.987   4.324   3.864
16535W        W88850  27.455  30.140   0.304
16536W        W88851  42.904  43.897   0.750
16537W        W88852  25.192  35.486   1.254
16538W        W88853  37.572  24.036   9.658
16539W        W88854  20.666   0.325   4.176
16540W        W88855  42.461  38.455   4.178
16541W        W88856  43.449  12.762  13.903
16542W        W88857  33.933  12.710  13.430
16543W        W88858   5.227  41.011  13.363
16544W        W88859  33.460   5.426  11.377
16545W        W88860  16.275  18.245   0.290
16546W        W88861  43.406  43.893  13.901
16547W        W88862  15.298   0.843  13.420
16548W        W88863  38.357  16.627  12.831
16549W        W88864  23.550  21.586   4.232
16550W        W88865   5.853  38.529  12.870
16551W        W88866  28.980  17.233  11.092
16552W        W88867  32.544  14.151   2.762
16553W        W88868  42.893  36.443   0.826
16554W        W88869  43.006  31.018  12.954
16555W        W88870  12.116  12.167   4.310
16556W        W88871  29.605  20.673  12.477
16557W        W88872   1.239  28.161  14.866
16558W        W88873  10.155  22.095  13.791
16559W        W88874  43.424   1.946   0.749
16560W        W88875  44.447  44.833  12.405
16561W        W88876  33.561  37.353  11.009
16562W        W88877  16.184   4.778  10.529
16563W        W88878  27.497   8.680  14.420
16564W        W88879  13.790  19.639   3.717
16565W        W88880   2.856  33.007   0.290
16566W        W88881   7.859  25.144   4.635
16567W        W88882   6.826  40.436   1.880
16568W        W88883   3.372   8.236   0.479
16569W        W88884   1.325  43.328   1.776
16570W        W88885  13.823  14.760   2.713
16571W        W88886   0.939  19.069  10.522
16572W        W88887  22.686  31.934   3.198
16573W        W88888   5.830  24.547   1.704
16574W        W88889  14.309  44.898  13.892
16575W        W88890  18.209   7.752  10.112
16576W        W88891   6.281  40.868  12.071
16577W        W88892   3.882  23.205  11.959
16578W        W88893  25.608   7.178  10.930
16579W        W88894  27.175  21.113  11.597
16580W        W88895  16.168   3.429   4.284
16581W        W88896  21.749   6.729  11.420
16582W        W88897  12.259  35.069  10.890
16583W        W88898  33.470  17.093  14.400
16584W        W88899  13.713  30.112  13.480
16585W        W88900   8.852  36.064   3.372
16586W        W88901  44.820   3.879  12.980
16587W        W88902  23.169  38.838   0.355
16588W        W88903  43.879  34.606   0.424
16589W        W88904   0.362  44.896  12.024
16590W        W88905  36.455   1.851   1.323
16591W        W88906  28.643  35.939  10.409
16592W        W88907  32.520  18.151  13.795
16593W        W88908  39.454  28.641  10.619
16594W        W88909  41.830  36.367   3.808
16595W        W88910   9.254  14.171  14.023
16596W        W88911  28.642  40.929   1.436
16597W        W88912  13.827  37.417   5.156
16598W        W88913   2.961  13.107   1.323
16599W        W88914  34.968  14.163  14.416
16600W        W88915  10.284  31.578  12.006
16601W        W88916  38.042  43.422   3.303
16602W        W88917  13.810  23.490  13.014
16603W        W88918  44.952  18.731  13.433
16604W        W88919  32.489   8.819  14.963
16605W        W88920  17.187  20.654   3.670
16606W        W88921  15.085  11.150   0.350
16607W        W88922  17.788  21.697  11.577
16608W        W88923  44.469  34.975   0.281
16609W        W88924  12.654  23.622   4.773
16610W        W88925   2.840   5.336   2.671
16611W        W88926  26.128  27.573  11.997
16612W        W88927  29.108  29.548  11.476
16613W        W88928   4.939  16.318   3.674
16614W        W88929   8.849  31.604   2.685
16615W        W88930  29.980  38.824   1.286
16616W        W88931   2.843  14.742  12.487
16617W        W88932  22.604  44.327  12.542
16618W        W88933   0.778  35.896  12.445
16619W        W88934  16.683  19.260  11.517
16620W        W88935  20.581  33.044   2.761
16621W        W88936   7.275   1.260   4.796
16622W        W88937  21.096  35.939   0.368
16623W        W88938  38.992  14.789   4.610
16624W        W88939  33.932   3.881  13.899
16625W        W88940   5.720   8.317   3.204
16626W        W88941   9.781  39.332   1.844
16627W        W88942  41.499  15.124   2.382
16628W        W88943  32.094  14.706  11.504
16629W        W88944   0.787  35.526  13.021
16630W        W88945   5.779  22.703   1.332
16631W        W88946   5.350  24.989  10.444
16632W        W88947  34.597  33.538   3.279
16633W        W88948  40.939  22.101   0.317
16634W        W88949   2.921  19.224  10.410
16635W        W88950  39.419  44.333   4.352
16636W        W88951  34.432  27.649  12.419
16637W        W88952  16.308  39.373   3.194
16638W        W88953  14.297  20.763  12.918
16639W        W88954  12.617   1.406  11.420
16640W        W88955  20.532  41.437  14.369
16641W        W88956  32.449  14.631  11.929
16642W        W88957  22.679  21.210  11.975
16643W        W88958   3.338  24.556  12.976
16644W        W88959  14.812  21.736   0.469
16645W        W88960  43.322   1.805  13.021
16646W        W88961  18.064  30.479   3.210
16647W        W88962  43.321  10.650   0.445
16648W        W88963  37.992  33.093   4.201
16649W        W88964   0.367  39.470   1.767
16650W        W88965  22.025   6.228  13.957
16651W        W88966  14.271   9.281   4.745
16652W        W88967  41.868  42.939   4.324
16653W        W88968  40.438  22.719   1.312
16654W        W88969  17.294  11.733  10.433
16655W        W88970  34.400  37.382  11.543
16656W        W88971  30.559  20.641   1.740
16657W        W88972   2.385   2.796  13.033
16658W        W88973  37.034   2.835   0.902
16659W        W88974  22.038  38.403   3.737
16660W        W88975  39.438  23.677  13.350
16661W        W88976  38.469   3.325  13.473
16662W        W88977  26.965   5.738   3.808
16663W        W88978  17.087  39.436   3.784
16664W        W88979  34.060   8.736  13.014
16665W        W88980  13.652  20.127  14.919
16666W        W88981  41.323  20.555  12.579
16667W        W88982   2.926  27.192   3.329
16668W        W88983  23.142  29.500  14.378
16669W        W88984   8.404  25.584   4.773
16670W        W88985  43.945  40.491   2.863
16671W        W88986   0.824  41.017   0.778
16672W        W88987   0.276  19.285   0.789
16673W        W88988  31.075  36.005   0.945
16674W        W88989  25.125  28.951   3.221
16675W        W88990   3.904  38.444   1.267
16676W        W88991  32.092  33.073   0.848
16677W        W88992  37.427  18.171   3.298
16678W        W88993  27.995   1.940   2.703
16679W        W88994   9.657  15.135  13.983
16680W        W88995   9.193  41.788   1.809
16681W        W88996  18.194  42.968   4.123
16682W        W88997  30.048  28.952   1.751
16683W        W88998  39.910  36.072   3.174
16684W        W88999   2.275  22.675   1.781
16685W        W89000  37.494  31.486   3.222
16686W        W89001  29.942  13.814   4.157
16687W        W89002  39.813   7.673  14.833
16688W        W89003  17.220   6.769   1.815
16689W        W89004  11.777  41.820   0.258
16690W        W89005  18.081  25.200  11.029
16691W        W89006  29.012  11.766  13.995
16692W        W89007  44.833   6.344  14.983
16693W        W89008  15.761  20.029  14.796
16694W        W89009  38.374  11.867   4.688
16695W        W89010  37.365  18.273  14.443
16696W        W89011  44.907  17.233   1.256
16697W        W89012  43.437  42.798  10.068
16698W        W89013  30.513  38.412   2.800
16699W        W89014  25.697  19.263  11.036
16700W        W89015  34.510  26.539  13.025
16701W        W89016  18.263  27.459  10.918
16702W        W89017  38.504  38.938   2.255
16703W        W89018  31.955  20.526   0.741
16704W        W89019   6.689  39.364  14.401
16705W        W89020  28.053   6.381  12.417
16706W        W89021  40.800  22.563  11.532
16707W        W89022   6.790  37.943  10.453
16708W        W89023  13.224  26.150   4.216
16709W        W89024  19.164  30.047   0.906
16710W        W89025  40.884  43.381  11.486
16711W        W89026  14.288   6.375   2.334
16712W        W89027  38.039  38.988  12.839
16713W        W89028   4.760  27.597  10.036
16714W        W89029  37.073  42.790   1.240
16715W        W89030  12.256  21.138  11.068
16716W        W89031   1.423  20.123  14.443
16717W        W89032  27.159  30.042  13.402
16718W        W89033  32.483  35.419   0.888
16719W        W89034   1.800   5.900   4.305
16720W        W89035  22.622  14.633  11.580
16721W        W89036  35.379  35.426  13.354
16722W        W89037  27.081  28.643   4.296
16723W        W89038  17.147   0.922  11.562
16724W        W89039  37.088  30.930   1.903
16725W        W89040  42.456  14.161  13.907
16726W        W89041  32.992  12.226  13.489
16727W        W89042  35.461   8.245   4.647
16728W        W89043   3.906   8.670  10.023
16729W        W89044   8.839   9.798   1.306
16730W        W89045   2.955  23.107   2.234
16731W        W89046  22.102   9.361   3.659
16732W        W89047  25.541  28.163  12.994
16733W        W89048  23.095   4.309   0.326
16734W        W89049   9.668   4.398   4.130
16735W        W89050  42.899  25.548   5.242
16736W        W89051   0.853  13.333   2.313
16737W        W89052  41.392   5.353   0.945
16738W        W89053  11.255  43.858   1.926
16739W        W89054  25.035  12.761  12.072
16740W        W89055  42.808   3.914   3.194
16741W        W89056  14.291  30.985   1.762
16742W        W89057  26.134   0.841  11.507
16743W        W89058  18.590  11.344  11.407
16744W        W89059  29.097  27.142  14.454
16745W        W89060  43.310  10.152  11.970
16746W        W89061  37.075  40.487   2.179
16747W        W89062   2.739  30.065   2.863
16748W        W89063  41.887   8.667  13.423
16749W        W89064  25.208  28.462   2.676
16750W        W89065  22.622   0.953  12.454
16751W        W89066  34.387   0.357  11.488
16752W        W89067  12.743  41.960   1.275
16753W        W89068  22.103  36.895   2.302
16754W        W89069  29.571   9.696   4.207
16755W        W89070   2.827  14.172  14.973
16756W        W89071  18.652  11.203   5.769
16757W        W89072  43.819   1.928   2.346
16758W        W89073  39.399  32.024   0.890
16759W        W89074  44.330  20.254  10.503
16760W        W89075  39.891  18.747   1.409
16761W        W89076  19.565   5.933  10.572
16762W        W89077  23.067  13.788   3.256
16763W        W89078  38.058   0.942  12.499
16764W        W89079  31.025   6.395  10.492
16765W        W89080  16.147   1.307   3.278
16766W        W89081  21.701   5.268  12.037
16767W        W89082  44.353   5.324   0.807
16768W        W89083  40.429  21.154  14.763
16769W        W89084  41.391  10.349   1.866
16770W        W89085  34.864  25.620   2.873
16771W        W89086  40.972  10.787   1.859
16772W        W89087  42.991  44.501   5.317
16773W        W89088   3.791  11.644  12.935
16774W        W89089   5.436  17.305   3.162
16775W        W89090  40.999   6.755   3.308
16776W        W89091  35.971  27.479   0.290
16777W        W89092  37.031  18.724  11.911
16778W        W89093  21.538  17.587   0.373
16779W        W89094   4.245  40.951   2.321
16780W        W89095  23.731  43.431  11.499
16781W        W89096  23.084  13.746  13.528
16782W        W89097  30.512  40.322  11.039
16783W        W89098  18.180  40.425   4.335
16784W        W89099  39.043  23.526   3.781
16785W        W89100   1.742  10.831  14.367
16786W        W89101  42.820  18.653   4.634
16787W        W89102  23.170  18.281   4.676
16788W        W89103  29.599  13.755  10.497
16789W        W89104  14.684  36.475   1.732
16790W        W89105  42.468  42.312  11.544
16791W        W89106  30.577  25.072   2.376
16792W        W89107  34.531  39.924   2.803
16793W        W89108   0.869  12.330   3.727
16794W        W89109  12.362  43.437  13.868
16795W        W89110  33.490   9.734  12.549
16796W        W89111   2.456  18.096  10.454
16797W        W89112  33.590  34.049   0.307
16798W        W89113  11.338   4.887  13.316
16799W        W89114  42.414  34.875   2.703
16800W        W89115  36.939  20.577  11.878
16801W        W89116  33.962  16.579  14.324
16802W        W89117  23.707  24.008  13.834
16803W        W89118  32.435  17.155  14.011
16804W        W89119  10.357  40.343   0.331
16805W        W89120  24.626  28.013  12.454
16806W        W89121  17.753  28.522  11.093
16807W        W89122  44.937   7.275   3.261
16808W        W89123  38.403  23.213   0.349
16809W        W89124  16.299  18.645   4.135
16810W        W89125  11.815  30.589   4.800
16811W        W89126   2.250   4.897   4.263
16812W        W89127   2.285  25.649  11.868
16813W        W89128  37.411  17.200  11.407
16814W        W89129   0.769  22.533  14.382
16815W        W89130   0.890  13.605   3.692
16816W        W89131  21.167  18.746   4.835
16817W        W89132  12.178   2.952  12.378
16818W        W89133  35.582  35.015  12.973
16819W        W89134   2.853  30.426  10.615
16820W        W89135  19.093   4.416   2.902
16821W        W89136  24.642  44.872   1.742
16822W        W89137   3.327  43.956   0.405
16823W        W89138  43.009  19.620  11.938
16824W        W89139  41.948  20.542  10.933
16825W        W89140  10.229  23.554  10.465
16826W        W89141  24.705   4.876   3.246
16827W        W89142  38.479  15.752   3.256
16828W        W89143  42.893  18.192  10.997
16829W        W89144  36.060  19.551   3.754
16830W        W89145  22.135  27.686  10.556
16831W        W89146  34.991   3.806   4.271
16832W        W89147  32.544  30.458   1.859
16833W        W89148  40.803  20.759  12.568
16834W        W89149  32.631   4.938  12.526
16835W        W89150  17.148   2.777   0.915
16836W        W89151  33.435  35.540   4.189
16837W        W89152  40.494   9.317  10.513
16838W        W89153  43.515  11.801   3.240
16839W        W89154  44.996  36.909  12.421
16840W        W89155  26.132  18.785   3.363
16841W        W89156  27.960  22.072   4.708
16842W        W89157  27.530  14.795  12.976
16843W        W89158  40.820  21.209   3.758
16844W        W89159  19.179  22.073  14.953
16845W        W89160  40.933  23.700  11.481
16846W        W89161  34.451  20.216   2.305
16847W        W89162  14.251  36.377   1.238
16848W        W89163  35.382  28.175   1.411
16849W        W89164  12.213  39.939  14.363
16850W        W89165   1.756  15.759  13.939
16851W        W89166   0.289  34.948  13.458
16852W        W89167  30.461  15.249   4.624
16853W        W89168  15.179  20.676  12.409
16854W        W89169  23.217  18.681   1.829
16855W        W89170  12.118  14.303   1.760
16856W        W89171   9.230  24.625   0.326
16857W        W89172  11.696  16.661  10.133
16858W        W89173  29.538   9.395  13.797
16859W        W89174  39.350  21.143  13.513
16860W        W89175  43.993  24.070   0.250
16861W        W89176  33.470  28.599   1.409
16862W        W89177  43.960  28.607  14.952
16863W        W89178   2.831  18.065  14.959
16864W        W89179   5.246  23.129  14.784
16865W        W89180  31.130  32.019  11.922
16866W        W89181  40.967  21.140  14.892
16867W        W89182  37.071   6.351   1.770
16868W        W89183  17.196   6.370  11.913
16869W        W89184   7.246  12.842  12.865
16870W        W89185  32.140  15.242  13.003
16871W        W89186  28.032  34.557   1.289
16872W        W89187  28.055  33.895   1.327
16873W        W89188  23.034  40.836   3.842
16874W        W89189  26.189  12.802  12.045
16875W        W89190  39.857  41.496   1.781
16876W        W89191   0.402  17.229   1.810
16877W        W89192  30.080  39.550  12.912
16878W        W89193   6.326   5.362  14.030
16879W        W89194   9.696  20.205   0.418
16880W        W89195  17.579  42.996   2.808
16881W        W89196   6.824  39.417  11.389
16882W        W89197  19.059  40.387   2.669
16883W        W89198  19.128  42.485  10.507
16884W        W89199  19.656  34.505   1.778
16885W        W89200  40.914  38.426  10.906
16886W        W89201  28.519   6.428   5.287
16887W        W89202  33.899   7.302  11.988
16888W        W89203  41.870  22.127   0.802
16889W        W89204  43.466  40.998   4.247
16890W        W89205  41.809   6.224   4.646
16891W        W89206  23.727  36.416  13.476
16892W        W89207  15.283   8.345   3.158
16893W        W89208  15.263   7.849   2.756
16894W        W89209   2.958  31.964  14.795
16895W        W89210   9.344  16.218   3.671
16896W        W89211  20.234  32.899   1.896
16897W        W89212   7.843  12.277   0.328
16898W        W89213  31.487  43.456   1.784
16899W        W89214  32.993  28.116  13.943
16900W        W89215   0.409  27.009  12.036
16901W        W89216  31.533   9.751  13.802
16902W        W89217  22.201  10.311   1.219
16903W        W89218   7.820  24.101  12.477
16904W        W89219   9.806  38.423   2.339
16905W        W89220  29.988  21.069   4.163
16906W        W89221  39.513  34.574   3.365
16907W        W89222   7.185  30.521  11.403
16908W        W89223  28.111  38.922   2.292
16909W        W89224  36.500  27.980  12.525
16910W        W89225  43.458  39.832  14.361
16911W        W89226  27.122  30.096   3.209
16912W        W89227  16.113  20.665  11.519
16913W        W89228   1.467  15.789  14.323
16914W        W89229  32.091   4.822  10.562
16915W        W89230  29.584  29.655   1.703
16916W        W89231  22.142  34.944   3.292
16917W        W89232  34.040  22.236   4.661
16918W        W89233   6.343  36.067   1.347
16919W        W89234  26.105  28.977  11.018
16920W        W89235   1.319  31.962  11.597
16921W        W89236  38.351  20.211  12.094
16922W        W89237  10.787  41.473   3.690
16923W        W89238  27.675  25.998   2.331
16924W        W89239   6.810  16.731  14.984
16925W        W89240   1.939  25.629  14.831
16926W        W89241  27.176  18.068   4.253
16927W        W89242  10.677   0.285  13.415
16928W        W89243  37.040  33.561   4.177
16929W        W89244  43.466  42.998   1.429
16930W        W89245  13.218  22.017  13.839
16931W        W89246  34.916  29.657   0.422
16932W        W89247  19.619  17.684  13.451
16933W        W89248   2.324   1.387   1.811
16934W        W89249  31.517  42.441   4.144
16935W        W89250  32.951   5.349  10.951
16936W        W89251  12.274  31.104   1.859
16937W        W89252  38.550  44.394  11.867
16938W        W89253  36.058  33.037  13.790
16939W        W89254  28.018  12.348  13.406
16940W        W89255  29.042  19.204   0.726
16941W        W89256  28.629  31.066  10.577
16942W        W89257  21.585  30.121  13.329
16943W        W89258  15.580  14.148  13.372
16944W        W89259  12.174  27.116  12.559
16945W        W89260  42.300  12.667  14.278
16946W        W89261  19.123  42.862  12.500
16947W        W89262  43.796  39.896   0.859
16948W        W89263  44.295  34.975   4.653
16949W        W89264  44.387  44.269   2.757
16950W        W89265  36.569  29.573   1.935
16951W        W89266  27.537  39.858  12.995
16952W        W89267  14.674  36.846  12.515
16953W        W89268  39.965  24.186   1.409
16954W        W89269  40.548  29.488   3.699
16955W        W89270   9.301   4.882   2.321
16956W        W89271  11.188  31.536   1.753
16957W        W89272  22.144  13.620   4.205
16958W        W89273  30.997  30.029  11.475
16959W        W89274  24.137  24.099   3.869
16960W        W89275  18.196   0.851   3.246
16961W        W89276  19.088   6.340   1.361
16962W        W89277  42.428  18.683  10.537
16963W        W89278   0.819  26.644  12.027
16964W        W89279  18.661  30.634  13.802
16965W        W89280  26.512  40.520  12.341
16966W        W89281  22.158  36.890   2.704
16967W        W89282  11.174  22.204   3.821
16968W        W89283  36.977  39.878  12.898
16969W        W89284  26.631   7.259  11.962
16970W        W89285  14.300  36.581  14.787
16971W        W89286  42.982   1.424  12.462
16972W        W89287  31.620  19.778   3.801
16973W        W89288  23.235  41.491   1.903
16974W        W89289  35.390  40.853  14.851
16975W        W89290  38.406  36.077   2.697
16976W        W89291  18.124  41.352   3.247
16977W        W89292   3.242   9.305  14.499
16978W        W89293  44.890   7.816  14.759
16979W        W89294  43.934   7.329   2.847
16980W        W89295  23.062  20.606   2.760
16981W        W89296  10.375  41.828   3.858
16982W        W89297  29.640  15.609   0.262
16983W        W89298  36.997  15.707   4.177
16984W        W89299  42.927   5.776  14.333
16985W        W89300  32.503  43.997  11.057
16986W        W89301   0.854  21.067  13.310
16987W        W89302  12.174  34.926   0.424
16988W        W89303   7.813   1.339   3.720
16989W        W89304  17.793  43.973  12.044
16990W        W89305   4.420   5.209  11.378
16991W        W89306  24.023  31.147   2.891
16992W        W89307  23.125  21.173   2.270
16993W        W89308   5.363  12.235  12.510
16994W        W89309  24.142  23.700   1.262
16995W        W89310  32.405  38.854  10.496
16996W        W89311  26.050   0.372   4.319
16997W        W89312  33.909  29.945  10.602
16998W        W89313  19.279  39.507   3.167
16999W        W89314  39.337  35.994  11.883
17000W        W89315  38.354  42.323  14.005
17001W        W89316  33.612  37.961  11.538
17002W        W89317  16.232  40.402   3.329
17003W        W89318  36.455  21.226   0.361
17004W        W89319  12.842  29.573  14.948
17005W        W89320  27.572  22.618   3.793
17006W        W89321   3.398  44.985   2.799
17007W        W89322  37.523  23.606  10.602
17008W        W89323  42.972  21.224  11.956
17009W        W89324  21.164  18.107  11.373
17010W        W89325  19.095  37.358   2.200
17011W        W89326   4.860  36.068  13.476
17012W        W89327  18.146  19.128  14.369
17013W        W89328  17.714  32.114  14.373
17014W        W89329  18.238  20.727   2.711
17015W        W89330   0.487   5.429  14.997
17016W        W89331   2.876  18.636   4.282
17017W        W89332  17.234   7.848   9.963
17018W        W89333  25.060  13.738   3.736
17019W        W89334  28.177  35.364  13.358
17020W        W89335  33.432  32.017   3.325
17021W        W89336  11.674   0.435   4.680
17022W        W89337  10.697  41.454  14.305
17023W        W89338  15.193  22.130   1.842
17024W        W89339  13.148  10.148  12.062
17025W        W89340  37.006  13.802  12.357
17026W        W89341   8.711   4.207   1.914
17027W        W89342  10.177  34.408  14.816
17028W        W89343  18.657   0.773   3.363
17029W        W89344   0.323  19.245   1.869
17030W        W89345  13.238   2.235  14.991
17031W        W89346  31.432  36.573  13.432
17032W        W89347  26.177  32.001  11.928
17033W        W89348  13.312  41.913  13.412
17034W        W89349  18.068   5.284  10.972
17035W        W89350  27.000  25.700   1.301
17036W        W89351  21.745  29.573  12.393
17037W        W89352  38.477   1.805   2.292
17038W        W89353  17.711  30.145  14.900
17039W        W89354  42.965  10.285  13.000
17040W        W89355  40.421  34.041   2.314
17041W        W89356  23.532  22.040   9.472
17042W        W89357  40.372  19.735   4.753
17043W        W89358  44.338   5.250   1.439
17044W        W89359  33.012  37.353  14.355
17045W        W89360  43.322  10.378  13.985
17046W        W89361  13.172  27.007   1.329
17047W        W89362   7.804  37.928  11.026
17048W        W89363  29.623  44.330  14.933
17049W        W89364  41.510  25.008   4.189
17050W        W89365  28.157  30.975  13.978
17051W        W89366  17.633   4.434  10.508
17052W        W89367  14.214  19.673   4.337
17053W        W89368  44.796  36.463  13.808
17054W        W89369  26.509  32.110   3.779
17055W        W89370  22.222  13.710   4.669
17056W        W89371   2.406  37.502   4.323
17057W        W89372  27.502  41.791  10.578
17058W        W89373  40.435  21.530  12.057
17059W        W89374  18.754  32.443  12.394
17060W        W89375  26.510  10.633   2.692
17061W        W89376  13.747   4.767  10.517
17062W        W89377  33.961  30.613   1.309
17063W        W89378  35.875  24.682   1.299
17064W        W89379  44.950  28.642  14.330
17065W        W89380  16.745  20.769   2.393
17066W        W89381  36.955  40.450  14.315
17067W        W89382   0.951   4.247  13.962
17068W        W89383   8.688   3.425   2.841
17069W        W89384  10.691  20.179   5.211
17070W        W89385   5.718  11.702  12.974
17071W        W89386  36.000  33.949  12.041
17072W        W89387  31.141  18.172   4.207
17073W        W89388  23.530  29.633   0.374
17074W        W89389  23.664  10.706   2.374
17075W        W89390  44.927  24.067  10.591
17076W        W89391  35.885  22.689   3.859
17077W        W89392  42.946  28.450   3.164
17078W        W89393  23.037  44.858  14.862
17079W        W89394  19.225   1.372  14.850
17080W        W89395   0.961  42.428  14.930
17081W        W89396  18.611  42.017  12.410
17082W        W89397  13.736  26.951  14.835
17083W        W89398  17.212  38.374   5.304
17084W        W89399   2.296  34.874  11.595
17085W        W89400  13.808  26.990   3.291
17086W        W89401  10.289  37.969  10.548
17087W        W89402  14.245   8.710  10.408
17088W        W89403  13.649  42.451  13.988
17089W        W89404   4.754  10.384   4.296
17090W        W89405  44.928  31.418   3.311
17091W        W89406   9.205  31.568  12.033
17092W        W89407  28.458  24.485   3.833
17093W        W89408   3.345  18.253  11.859
17094W        W89409  30.058   0.398   2.903
17095W        W89410  27.578  11.664  14.486
17096W        W89411   3.862  12.650   9.942
17097W        W89412  13.341  36.897  11.059
17098W        W89413  20.198  28.142   0.292
17099W        W89414  43.907  11.857   4.778
17100W        W89415  43.324  32.000  12.430
17101W        W89416   7.357  14.307  11.034
17102W        W89417   2.466  34.515   4.758
17103W        W89418   6.338  10.715   2.787
17104W        W89419   0.799  22.142   0.282
17105W        W89420  29.005  14.130   3.198
17106W        W89421  32.597   7.746  14.768
17107W        W89422  35.376  16.107   4.233
17108W        W89423  39.048  35.583  10.961
17109W        W89424  11.348  35.012   4.623
17110W        W89425  18.620  37.558  11.054
17111W        W89426  34.542  28.085  12.943
17112W        W89427   5.323   2.360   1.347
17113W        W89428  38.463  22.147   2.896
17114W        W89429  26.472  32.084   0.929
17115W        W89430   5.711  21.718  14.838
17116W        W89431  21.079  21.152  10.088
17117W        W89432   2.301  15.329   2.269
17118W        W89433   3.745   8.822  10.936
17119W        W89434  26.957  41.004  12.936
17120W        W89435   9.353   5.432   2.320
17121W        W89436  11.665  44.802  11.055
17122W        W89437  31.902  20.062  12.356
17123W        W89438  11.717  37.855   2.856
17124W        W89439  32.503  38.350  11.974
17125W        W89440   9.730  35.868   3.863
17126W        W89441   4.786  41.888   1.789
17127W        W89442   9.194   9.659   4.250
17128W        W89443  40.945   9.645   4.175
17129W        W89444  11.130   4.334   0.845
17130W        W89445  13.326  31.969   4.686
17131W        W89446   2.820  21.743  14.955
17132W        W89447  21.696  31.953  14.792
17133W        W89448  22.718  44.875   4.775
17134W        W89449  28.617  36.575   2.765
17135W        W89450  35.387  17.741   1.281
17136W        W89451   8.353   8.270  14.398
17137W        W89452  36.869   6.746  13.811
17138W        W89453   3.775  27.962   1.851
17139W        W89454  44.793  10.764   4.767
17140W        W89455  30.643  41.908   4.688
17141W        W89456  10.298  15.161   1.910
17142W        W89457  22.235  24.000  12.882
17143W        W89458  10.138  17.081   2.794
17144W        W89459   0.878  18.557   1.313
17145W        W89460  16.135  18.668  12.536
17146W        W89461   5.376  32.066   3.690
17147W        W89462   4.340  44.272  12.475
17148W        W89463   6.303  17.298  14.350
17149W        W89464  21.132  20.567   2.685
17150W        W89465  13.779   0.764  13.886
17151W        W89466  16.290  44.808   2.888
17152W        W89467  34.922  35.418  12.542
17153W        W89468  24.139  13.351   2.816
17154W        W89469  40.835  29.107  10.921
17155W        W89470  21.121  44.873   4.781
17156W        W89471  43.985  15.128   4.707
17157W        W89472  28.648  35.490   1.399
17158W        W89473   9.352  42.970   4.158
17159W        W89474  32.478  14.245   0.397
17160W        W89475  21.612   7.856   0.821
17161W        W89476   8.406  10.150   3.267
17162W        W89477  11.862  28.459   0.882
17163W        W89478   4.733  14.303  14.930
17164W        W89479  15.126  30.080  14.502
17165W        W89480  44.786  18.709   3.145
17166W        W89481  42.332  21.701   4.306
17167W        W89482  43.946  12.196  14.818
17168W        W89483   9.206  16.786   4.128
17169W        W89484   5.313  10.219   0.419
17170W        W89485  27.048  42.397  10.992
17171W        W89486  33.526  17.226  11.405
17172W        W89487  42.449   6.761  14.823
17173W        W89488  31.039  12.187  13.511
17174W        W89489   2.399  29.922  10.492
17175W        W89490   2.904  10.139  14.324
17176W        W89491  32.973  33.389  14.801
17177W        W89492  26.545  44.908   2.861
17178W        W89493  28.012  32.944  11.579
17179W        W89494  29.610   8.321  10.584
17180W        W89495  24.639  41.347   2.213
17181W        W89496  32.083  25.988  13.011
17182W        W89497  36.371  19.542  14.501
17183W        W89498   2.419  35.602  10.456
17184W        W89499  23.213  19.264   0.830
17185W        W89500   8.344   9.378  11.496
17186W        W89501  34.468   8.370   3.295
17187W        W89502  39.491  37.017   2.704
17188W        W89503  25.575  32.965   5.659
17189W        W89504  24.021   5.261   4.640
17190W        W89505  32.114  22.222   0.786
17191W        W89506  25.566  34.001   4.627
17192W        W89507  10.153   4.745   3.643
17193W        W89508   7.381  33.443  10.051
17194W        W89509  26.486   6.822  12.029
17195W        W89510  39.934  23.181   0.855
17196W        W89511   5.239   5.700  14.789
17197W        W89512  38.473  40.001  10.989
17198W        W89513  35.468   3.871  11.466
17199W        W89514  32.934  12.224  11.945
17200W        W89515  44.871  15.127   3.330
17201W        W89516   1.279  21.127  13.396
17202W        W89517  10.645  36.455   1.270
17203W        W89518  19.055  33.574   1.887
17204W        W89519  19.238  19.690  12.537
17205W        W89520  43.420  34.983   0.387
17206W        W89521  10.867  18.187  14.786
17207W        W89522  31.461   2.830   4.284
17208W        W89523  30.036  29.456   4.171
17209W        W89524  29.129   0.315   3.699
17210W        W89525  43.472  37.514  11.924
17211W        W89526  16.725  26.696   3.644
17212W        W89527  25.661  37.389  14.443
17213W        W89528   7.748  24.983  13.063
17214W        W89529  44.932  39.928   0.936
17215W        W89530  12.650  21.017  11.128
17216W        W89531  26.700  39.810  13.423
17217W        W89532   6.291   5.909  14.463
17218W        W89533  21.053  15.721  13.541
17219W        W89534   6.705   6.914   3.784
17220W        W89535   0.463  27.989  11.403
17221W        W89536  14.633  39.832  13.319
17222W        W89537  23.505  19.133  11.007
17223W        W89538  32.494  44.913  11.428
17224W        W89539  40.308  24.046   0.726
17225W        W89540   5.347   1.941  12.978
17226W        W89541  31.447   9.156   4.818
17227W        W89542  22.022  13.214   2.808
17228W        W89543  43.417  20.535   2.270
17229W        W89544  19.753  11.748  13.332
17230W        W89545  39.956  29.566   2.827
17231W        W89546   6.760  24.672   0.903
17232W        W89547  21.104  29.975  14.394
17233W        W89548  20.237  30.026   3.775
17234W        W89549  38.834  12.125  12.361
17235W        W89550  40.900  22.670  14.782
17236W        W89551   7.347  26.078  12.475
17237W        W89552  10.742   2.387   1.340
17238W        W89553  40.385  20.135   4.113
17239W        W89554  25.202   8.815  14.022
17240W        W89555  24.987   8.362  11.933
17241W        W89556   6.264   4.394   0.334
17242W        W89557  33.487  42.009  13.950
17243W        W89558  28.160  26.542   4.636
17244W        W89559  23.643   1.271   2.793
17245W        W89560  30.980  39.868  13.959
17246W        W89561   4.231   2.421  10.946
17247W        W89562  23.119  25.194   2.855
17248W        W89563  23.015  16.776   3.713
17249W        W89564  12.283  40.882  13.408
17250W        W89565   8.676  18.636   3.867
17251W        W89566  24.197  25.522  14.390
17252W        W89567  42.792  18.203  11.432
17253W        W89568   4.708  42.030   9.981
17254W        W89569  26.980   2.269  12.943
17255W        W89570  23.594  27.561  14.306
17256W        W89571  31.518  14.251   4.679
17257W        W89572  33.593   0.336  14.409
17258W        W89573  29.617  43.887  13.803
17259W        W89574  24.635  44.470   3.805
17260W        W89575   6.295   2.297   2.759
17261W        W89576  31.421  22.728  10.583
17262W        W89577  14.639  13.820   3.159
17263W        W89578  17.069  25.490  11.868
17264W        W89579  33.029  28.114   3.805
17265W        W89580  42.408  13.215  10.935
17266W        W89581  33.129  24.979  11.612
17267W        W89582  33.608  28.129   2.758
17268W        W89583  33.548  39.490   4.755
17269W        W89584   4.399  42.936  14.797
17270W        W89585  41.978  35.389  12.932
17271W        W89586  18.067   4.810   4.634
17272W        W89587   4.757  24.163   1.339
17273W        W89588  21.641  44.908   0.343
17274W        W89589   0.803  41.925   2.343
17275W        W89590  20.641  31.947   2.418
17276W        W89591   4.303  44.463   3.216
17277W        W89592  17.306  20.553  12.860
17278W        W89593   3.445   9.665  10.950
17279W        W89594  15.607  44.315   2.888
17280W        W89595   2.292  14.754  12.360
17281W        W89596  37.074  10.191   3.195
17282W        W89597  33.533   0.340  14.820
17283W        W89598  42.350  21.541  13.943
17284W        W89599  44.865  22.651  14.406
17285W        W89600  41.359  43.767   2.370
17286W        W89601   6.812  38.998   1.872
17287W        W89602  19.173  14.118  10.590
17288W        W89603  12.845  40.355  14.841
17289W        W89604  26.573  34.416  14.800
17290W        W89605   3.352  42.890   4.115
17291W        W89606  21.628  34.095   0.739
17292W        W89607   8.686   3.741   3.786
17293W        W89608  17.062   4.315   4.315
17294W        W89609  37.937  12.297  10.929
17295W        W89610  39.810  31.523   2.241
17296W        W89611  38.844  31.427  12.967
17297W        W89612  34.433  41.926  13.419
17298W        W89613  30.612  21.117   2.268
17299W        W89614  26.980  37.534  11.590
17300W        W89615  14.742   4.738  14.458
17301W        W89616  11.634  28.635   4.354
17302W        W89617  24.190  42.317   4.222
17303W        W89618  12.754  11.252  13.525
17304W        W89619  11.325  37.392   1.788
17305W        W89620   1.245  38.034   2.417
17306W        W89621  17.294  11.866  11.526
17307W        W89622  35.958  25.500   2.264
17308W        W89623  31.619   2.724  10.617
17309W        W89624  19.146  33.470   1.217
17310W        W89625  31.413  16.650  14.022
17311W        W89626   0.392  11.154   4.712
17312W        W89627  35.879   2.241   2.258
17313W        W89628   1.781  37.339  11.895
17314W        W89629   6.677  39.454   1.860
17315W        W89630  31.605  24.024  14.913
17316W        W89631  14.224  10.233  11.456
17317W        W89632   5.895   1.397   2.215
17318W        W89633  25.598   9.780   1.436
17319W        W89634  41.790   0.377   3.159
17320W        W89635   2.375   8.345   1.933
17321W        W89636  32.472   2.440   1.913
17322W        W89637   2.297  35.534  12.513
17323W        W89638   3.269  23.556  10.425
17324W        W89639   9.294  38.400   3.749
17325W        W89640   9.757  10.314   0.312
17326W        W89641  23.063  20.103  14.031
17327W        W89642   8.771  37.515   9.927
17328W        W89643  17.143  25.121  13.893
17329W        W89644  32.909  23.154   2.217
17330W        W89645  34.482   4.217  13.897
17331W        W89646  14.648  39.894  14.938
17332W        W89647   2.369  13.261   3.323
17333W        W89648   9.326   2.332  14.928
17334W        W89649   2.303  12.249   3.864
17335W        W89650  32.548  30.579   5.282
17336W        W89651  37.379  29.456   0.845
17337W        W89652  12.711  15.659  11.966
17338W        W89653  34.579  23.731   2.758
17339W        W89654   3.425  24.039   4.279
17340W        W89655  27.548  37.523  11.548
17341W        W89656  32.431  35.449   3.779
17342W        W89657  22.683  44.434  10.418
17343W        W89658  14.660  21.163   1.246
17344W        W89659  16.680  42.888   0.328
17345W        W89660  14.289  37.461   0.791
17346W        W89661  23.585  19.644   0.742
17347W        W89662  17.130  37.086  11.055
17348W        W89663  34.532  20.142  11.945
17349W        W89664  34.072  42.797   0.257
17350W        W89665  18.637  10.839  14.418
17351W        W89666  32.937  26.514  12.885
17352W        W89667  42.941  20.225  13.388
17353W        W89668  22.008  35.046   4.227
17354W        W89669   2.846   9.889  11.124
17355W        W89670  32.068   2.270   3.685
17356W        W89671  13.312  40.902   1.355
17357W        W89672  29.043   8.871   1.900
17358W        W89673  35.510  44.967  12.471
17359W        W89674  10.154  31.069  10.892
17360W        W89675   1.766   9.166  11.960
17361W        W89676  18.211  18.692   1.351
17362W        W89677  39.379  40.917   3.658
17363W        W89678   5.230  41.407  12.996
17364W        W89679  42.920  27.177   4.652
17365W        W89680  28.957  31.908   5.158
17366W        W89681  36.016  18.556  14.922
17367W        W89682  12.274  11.843   1.347
17368W        W89683  38.839  20.549  14.414
17369W        W89684  23.506  23.238   4.700
17370W        W89685  41.922  38.476   4.643
17371W        W89686  42.022  33.039  12.573
17372W        W89687  41.444  43.466  12.871
17373W        W89688  35.535  39.993   3.832
17374W        W89689   5.869  11.320  12.366
17375W        W89690  14.307  24.029   2.214
17376W        W89691  40.515  37.522  12.853
17377W        W89692  28.072  17.564  12.339
17378W        W89693  42.464  28.610  11.093
17379W        W89694  22.021  26.664   2.323
17380W        W89695   6.799  25.151   0.835
17381W        W89696  35.392  22.503   1.912
17382W        W89697   9.759  25.569   1.361
17383W        W89698  14.286  10.635   2.249
17384W        W89699  12.312  13.668   4.733
17385W        W89700   2.919   5.919  12.579
17386W        W89701  40.506  30.502  12.514
17387W        W89702  15.589  15.262   0.372
17388W        W89703  16.182   3.771   2.788
17389W        W89704  36.380  13.317  10.980
17390W        W89705  39.348  23.006  14.449
17391W        W89706  40.984  41.393  14.900
17392W        W89707   4.922  22.171  14.374
17393W        W89708  15.747  31.505   4.201
17394W        W89709  19.153   6.827   3.809
17395W        W89710  37.403  26.015   4.806
17396W        W89711  24.640  18.660  13.332
17397W        W89712   6.236  36.456  10.509
17398W        W89713   7.758   0.307  12.049
17399W        W89714  42.895  12.823  12.518
17400W        W89715   4.808   1.751   1.705
17401W        W89716   7.242  32.020  14.515
17402W        W89717   0.488  31.619  14.485
17403W        W89718   7.292  31.145   3.167
17404W        W89719  32.966   8.277  11.921
17405W        W89720   7.396  14.243  12.503
17406W        W89721  32.480  24.496  10.633
17407W        W89722  11.222   4.400   1.832
17408W        W89723  18.168  34.902  12.894
17409W        W89724  24.628  26.116   0.451
17410W        W89725  34.420  38.504   3.157
17411W        W89726  33.936  22.709   2.251
17412W        W89727  18.266  33.901   2.218
17413W        W89728   7.750  40.923   2.349
17414W        W89729  12.816  34.535  13.435
17415W        W89730  28.946  10.163  11.031
17416W        W89731   0.303   9.343  12.059
17417W        W89732  21.142   3.250   4.302
17418W        W89733  14.731  17.164   0.474
17419W        W89734  26.105  12.342   2.249
17420W        W89735   3.778  44.894  12.978
17421W        W89736   4.384   0.830   4.252
17422W        W89737   6.237  23.543  10.447
17423W        W89738  22.017  19.710   4.630
17424W        W89739   4.720   3.846   4.700
17425W        W89740  43.785  41.931  14.374
17426W        W89741   7.368  24.547   1.888
17427W        W89742  23.583  20.585  11.010
17428W        W89743  14.160  43.787   4.609
17429W        W89744  11.227   8.231  10.969
17430W        W89745  15.735   2.919   1.919
17431W        W89746  22.610  19.167  13.881
17432W        W89747  32.127  27.627  12.526
17433W        W89748  36.427  25.023   5.088
17434W        W89749  18.786   3.895   3.360
17435W        W89750  21.754  30.989  12.372
17436W        W89751  39.014  16.230   0.764
17437W        W89752  30.429  37.560   4.770
17438W        W89753  37.029  27.098  13.878
17439W        W89754  28.158  13.705  12.851
17440W        W89755  22.526  37.865   4.285
17441W        W89756  43.839  15.202  10.588
17442W        W89757  26.049  18.289  11.426
17443W        W89758  32.524   8.331  11.990
17444W        W89759   3.411  25.012  13.929
17445W        W89760  30.956  14.702  12.915
17446W        W89761  22.663   0.481   4.655
17447W        W89762  11.130  19.707   4.784
17448W        W89763   9.793  21.731   4.641
17449W        W89764  13.260  37.847   2.246
17450W        W89765  40.307  41.865  13.856
17451W        W89766   0.408  16.178  14.277
17452W        W89767  12.842   0.932  13.950
17453W        W89768   8.296  37.392  10.913
17454W        W89769  30.042  14.723   3.185
17455W        W89770  30.023   6.800   1.299
17456W        W89771   7.666  33.068  10.478
17457W        W89772   2.239   2.770  11.376
17458W        W89773   8.344  18.596  10.581
17459W        W89774  24.150  18.549   0.276
17460W        W89775  23.007  36.568   2.258
17461W        W89776  32.057  38.371  13.452
17462W        W89777  41.301  19.639  11.388
17463W        W89778  43.357  40.502  14.340
17464W        W89779  23.987   6.321   3.162
17465W        W89780  33.452  11.339   0.864
17466W        W89781  39.912  18.761   0.771
17467W        W89782  22.225   5.243  11.445
17468W        W89783  25.473  20.172  13.919
17469W        W89784  34.982   9.187   3.367
17470W        W89785  34.412   5.298  14.497
17471W        W89786  28.952   6.184  14.980
17472W        W89787  33.451  44.776  10.968
17473W        W89788  15.125  36.018  14.959
17474W        W89789   7.817  27.124   0.967
17475W        W89790  12.810   8.677   4.703
17476W        W89791  30.082  16.692   0.828
17477W        W89792  25.209  19.207   2.810
17478W        W89793  14.600   6.698  10.421
17479W        W89794  24.530  43.312   2.709
17480W        W89795  27.973   0.914  13.496
17481W        W89796  42.852  22.507  12.018
17482W        W89797  38.029  39.869  14.427
17483W        W89798  15.254  12.731  10.436
17484W        W89799  21.249  31.640  12.450
17485W        W89800  19.648  21.134   2.761
17486W        W89801  10.227  23.218   4.148
17487W        W89802   8.775  39.489   1.282
17488W        W89803   5.857  24.524   0.736
17489W        W89804   3.428  31.100  12.841
17490W        W89805   1.822   4.342  10.642
17491W        W89806  34.997   6.721  10.604
17492W        W89807  10.287  17.202  14.924
17493W        W89808   0.873  11.708   2.845
17494W        W89809  27.191  19.762  11.966
17495W        W89810  29.556  39.454   2.298
17496W        W89811  40.476  22.649  12.490
17497W        W89812  33.004  14.113   1.317
17498W        W89813  30.614  26.965  12.347
17499W        W89814   2.827  14.211   4.304
17500W        W89815   6.740  17.244  13.936
17501W        W89816  40.318  43.484   3.153
17502W        W89817  34.558  28.126  14.302
17503W        W89818  14.120  12.218   4.771
17504W        W89819   6.794  18.575   3.192
17505W        W89820   2.294  13.194  11.128
17506W        W89821  16.727  12.349  14.793
17507W        W89822  20.221  31.913   3.698
17508W        W89823  24.657  35.105  10.480
17509W        W89824  20.572  32.015  12.369
17510W        W89825  18.098  36.915   3.284
17511W        W89826  42.295  42.359  14.328
17512W        W89827   8.356  44.282   0.810
17513W        W89828  27.140  14.791   4.287
17514W        W89829   1.385  27.059  12.960
17515W        W89830  28.522  42.502  10.931
17516W        W89831  36.476  19.201  10.896
17517W        W89832  43.399  11.176   4.206
17518W        W89833  11.188  27.643   3.194
17519W        W89834   3.393  10.187   2.238
17520W        W89835  12.188  28.988  13.465
17521W        W89836  18.700  19.063   0.398
17522W        W89837  39.549   4.772  13.855
17523W        W89838   9.661  22.604   1.931
17524W        W89839  10.252  38.974   2.828
17525W        W89840  12.189  10.283   2.206
17526W        W89841  23.065  19.058  10.012
17527W        W89842  37.848   9.679   1.896
17528W        W89843  34.567  30.972  12.456
17529W        W89844  30.126  24.600   3.653
17530W        W89845  14.622   3.292  11.940
17531W        W89846  38.333  31.996   2.811
17532W        W89847  25.671  22.565   1.370
17533W        W89848  44.468   2.801   2.209
17534W        W89849   2.259  29.090   3.303
17535W        W89850   4.827  35.403  13.818
17536W        W89851  15.258  21.604   0.736
17537W        W89852  20.037  27.498  14.889
17538W        W89853  16.122  41.484  12.876
17539W        W89854  15.117  14.169   1.696
17540W        W89855  14.243  33.885   3.747
17541W        W89856  26.481   5.303  11.994
17542W        W89857  14.780  10.792   2.368
17543W        W89858  14.782  39.833  10.029
17544W        W89859  40.803   0.314  13.443
17545W        W89860  25.131  15.277  14.460
17546W        W89861  26.688  22.612   4.719
17547W        W89862  19.237   8.803  11.533
17548W        W89863  35.915  13.206   3.636
17549W        W89864  42.023  22.737   0.357
17550W        W89865  13.795   8.381   1.735
17551W        W89866  24.650   4.231  14.893
17552W        W89867   4.704  19.618   0.861
17553W        W89868  33.886   8.392  13.813
17554W        W89869  17.750  12.733  10.983
17555W        W89870  27.623  19.057   2.800
17556W        W89871  43.918  14.274  13.522
17557W        W89872   6.398   8.793  14.493
17558W        W89873  30.586   3.954  13.983
17559W        W89874  33.040  14.687  10.449
17560W        W89875  44.272   7.798  10.514
17561W        W89876  42.797   6.205   4.152
17562W        W89877  44.980   6.191  10.481
17563W        W89878  23.006  14.288   1.854
17564W        W89879   5.699   7.731  12.883
17565W        W89880   6.730  20.167  11.389
17566W        W89881  39.899  16.246  13.391
17567W        W89882   4.726  32.571  11.416
17568W        W89883  44.296  41.033   1.350
17569W        W89884  16.116  15.109   1.704
17570W        W89885   7.384  11.211   2.697
17571W        W89886  12.262  27.028   4.156
17572W        W89887  34.870  35.418  13.884
17573W        W89888  37.448   3.730  14.924
17574W        W89889  11.143   0.334  10.920
17575W        W89890  11.726  44.498  10.528
17576W        W89891  11.262  21.099   4.208
17577W        W89892   1.910  41.802  13.843
17578W        W89893  34.431  25.199   3.258
17579W        W89894  29.514  33.421   2.708
17580W        W89895  39.488  10.839  11.592
17581W        W89896  18.613  39.004  10.090
17582W        W89897  25.610  28.170   2.874
17583W        W89898  10.730  43.852   0.900
17584W        W89899  29.027  30.013   2.327
17585W        W89900  33.379  30.583   2.673
17586W        W89901  24.189   4.360  13.923
17587W        W89902  39.443  10.688   0.939
17588W        W89903  34.963  41.389  14.374
17589W        W89904  26.077  10.178   3.286
17590W        W89905  42.890  36.431   2.331
17591W        W89906   0.986   5.915   2.750
17592W        W89907  34.923  39.553  12.491
17593W        W89908  33.938  34.417   2.249
17594W        W89909  16.686   2.758   1.429
17595W        W89910  18.739  28.174  14.938
17596W        W89911   7.315  32.507   1.935
17597W        W89912  11.667  30.549  13.867
17598W        W89913  41.888  15.212   4.243
17599W        W89914  16.628   5.406   3.322
17600W        W89915  30.501  18.057   0.335
17601W        W89916  25.627   4.332   5.292
17602W        W89917  14.810  36.941  11.025
17603W        W89918   2.848  14.155  10.639
17604W        W89919   0.266  24.213  12.373
17605W        W89920  17.238  35.920  14.290
17606W        W89921   4.237  27.006  13.312
17607W        W89922  30.026  31.096   1.448
17608W        W89923  23.215  29.453   0.423
17609W        W89924  13.176   7.842   4.803
17610W        W89925  32.500  19.159   0.369
17611W        W89926  18.559  31.072   1.237
17612W        W89927  15.619  27.039   4.632
17613W        W89928  20.557  23.183   2.376
17614W        W89929  38.333  43.313  11.896
17615W        W89930  36.020  20.066   0.744
17616W        W89931  23.561  14.160   4.702
17617W        W89932  30.016  23.988  14.919
17618W        W89933  17.082  12.612   0.880
17619W        W89934  36.521   6.258  11.591
17620W        W89935  12.225  12.134  11.378
17621W        W89936  43.475  30.027   2.401
17622W        W89937  39.535  39.947   2.342
17623W        W89938  32.129  35.036  13.530
17624W        W89939   5.221  14.704   3.378
17625W        W89940   7.699  34.021   0.265
17626W        W89941  17.675  10.374   2.780
17627W        W89942   9.824  12.855   4.242
17628W        W89943  18.647  42.917  12.418
17629W        W89944  42.952   5.916   3.781
17630W        W89945  19.659  10.829   2.711
17631W        W89946  12.631  25.615  11.028
17632W        W89947   0.842   7.833   0.763
17633W        W89948  19.039  16.115  11.397
17634W        W89949  19.054  20.736   3.701
17635W        W89950  32.580  16.748   0.925
17636W        W89951  19.279   4.243   4.626
17637W        W89952  23.100   5.357  13.966
17638W        W89953  18.665  26.505   0.473
17639W        W89954  15.212  29.984  10.615
17640W        W89955   1.905  32.399   1.864
17641W        W89956  15.678  34.014  11.553
17642W        W89957  35.891   2.441   4.617
17643W        W89958   0.758  42.905   9.942
17644W        W89959  18.060  41.922   5.086
17645W        W89960   4.825   5.787   0.354
17646W        W89961  30.429  34.495   1.932
17647W        W89962  27.664  44.856  10.899
17648W        W89963  35.880  22.551  10.445
17649W        W89964  14.801   6.706  12.441
17650W        W89965  25.633   8.282   2.699
17651W        W89966  40.868  36.379  13.995
17652W        W89967  10.689  38.042   0.413
17653W        W89968   8.211  21.201  14.317
17654W        W89969   7.702  40.368   2.887
17655W        W89970   3.243  37.892  13.989
17656W        W89971  18.752  36.553   1.865
17657W        W89972  42.302  44.947  10.463
17658W        W89973  25.157  15.612   5.221
17659W        W89974  15.136  27.058  13.521
17660W        W89975  23.664  37.986   2.416
17661W        W89976  17.088  37.996  13.005
17662W        W89977   5.907  15.114  11.054
17663W        W89978  25.170  42.392  10.947
17664W        W89979   6.186  39.406   3.816
17665W        W89980  29.622  37.869  11.932
17666W        W89981  37.454  28.023  11.443
17667W        W89982  39.938   2.424   1.214
17668W        W89983   1.395   7.303   0.356
17669W        W89984  27.056  35.506  10.475
17670W        W89985  42.818  24.608   2.837
17671W        W89986  13.247  32.422  11.909
17672W        W89987   2.465   0.412  11.072
17673W        W89988   8.677  43.309  11.415
17674W        W89989  29.522  14.792   0.840
17675W        W89990  17.072  26.651   1.735
17676W        W89991  30.090  18.287   0.864
17677W        W89992   5.717   0.374   0.785
17678W        W89993  30.079   3.232   4.622
17679W        W89994  42.981   5.864  13.904
17680W        W89995  20.589   7.296  13.901
17681W        W89996  43.410  30.040   3.632
17682W        W89997  10.281  15.650   0.918
17683W        W89998  11.740  36.472  11.586
17684W        W89999  44.997   5.884  14.437
17685W        W90000  31.562  29.582  13.493
17686W        W90001  27.504  37.898   2.866
17687W        W90002  31.927   7.244  12.570
17688W        W90003  11.766   8.238   1.365
17689W        W90004  41.391  34.109   2.226
17690W        W90005  38.960  23.578   5.611
17691W        W90006  39.026  41.420   4.819
17692W        W90007   6.389  41.852  13.851
17693W        W90008  43.364  43.305  12.472
17694W        W90009  25.504  31.567  10.498
17695W        W90010  36.930   7.211  10.618
17696W        W90011  28.960   4.843   1.725
17697W        W90012  23.056  14.334  13.946
17698W        W90013  32.004  35.996   3.379
17699W        W90014  33.039   0.337   0.339
17700W        W90015  42.513  26.168   0.469
17701W        W90016   7.770  14.207  12.409
17702W        W90017   3.720   9.662  10.431
17703W        W90018  26.985   6.332   3.764
17704W        W90019  18.252   9.666   4.188
17705W        W90020   1.478   9.746   0.861
17706W        W90021  10.674  40.849  12.394
17707W        W90022  19.706  41.829   4.619
17708W        W90023  22.677  22.639  10.102
17709W        W90024  30.056  36.493   0.845
17710W        W90025   7.912  18.184   0.321
17711W        W90026  30.458   7.822  14.888
17712W        W90027  26.675  34.041  13.936
17713W        W90028  10.296  31.900  11.904
17714W        W90029  18.739  25.531  14.450
17715W        W90030  20.080  12.340  12.455
17716W        W90031  36.932  21.235  11.109
17717W        W90032  11.236  28.052  11.503
17718W        W90033  44.982  32.017   0.877
17719W        W90034  17.641  33.552   0.408
17720W        W90035  15.666  31.940   0.872
17721W        W90036  10.151  27.500   0.925
17722W        W90037  35.893  27.641  10.627
17723W        W90038  33.552   4.217  11.387
17724W        W90039   4.422  19.694   4.633
17725W        W90040  21.139  25.604  12.836
17726W        W90041   2.434  22.510  10.151
17727W        W90042  22.550  23.990   0.906
17728W        W90043  41.433   5.217  11.600
17729W        W90044  30.529  23.601   4.669
17730W        W90045  39.491  27.119  12.433
17731W        W90046  44.487  23.152   4.286
17732W        W90047  16.592  34.580   1.310
17733W        W90048  39.019   5.427  14.284
17734W        W90049   9.656  25.005  12.006
17735W        W90050  38.074  15.105   4.247
17736W        W90051   6.772  18.215  13.317
17737W        W90052  26.168  33.980   1.251
17738W        W90053   0.900  16.172  11.860
17739W        W90054   0.910  17.114  10.575
17740W        W90055   4.913  24.552   3.726
17741W        W90056  40.370  16.108  11.884
17742W        W90057  37.416  11.294  14.999
17743W        W90058  10.332  11.310  12.997
17744W        W90059  37.504  34.939   4.339
17745W        W90060  24.116  14.269   1.234
17746W        W90061  34.890  36.069  13.342
17747W        W90062   2.252  22.062   1.335
17748W        W90063  21.052  31.046   3.805
17749W        W90064  15.762   1.365  11.084
17750W        W90065   7.407  34.900  11.872
17751W        W90066  41.379  12.310  11.870
17752W        W90067  42.013  25.188   5.128
17753W        W90068  31.110  27.673   3.705
17754W        W90069   3.444  21.213  14.287
17755W        W90070  10.157  10.231  14.473
17756W        W90071  14.316  17.776  14.294
17757W        W90072  23.157  19.120  12.531
17758W        W90073  21.654   4.323   4.706
17759W        W90074  42.881   3.424  11.382
17760W        W90075   1.261  40.407   2.695
17761W        W90076   7.310  40.032  10.445
17762W        W90077  34.511  11.259  11.513
17763W        W90078  42.938  40.907   0.964
17764W        W90079  25.154  18.069   1.215
17765W        W90080  35.483   7.380   0.281
17766W        W90081  14.674  16.158   1.775
17767W        W90082  30.446   8.375   0.946
17768W        W90083   9.313  11.765  11.389
17769W        W90084  25.578   3.359   0.916
17770W        W90085  37.946  33.536  12.970
17771W        W90086  43.310  30.044  12.479
17772W        W90087  35.045  19.709  11.015
17773W        W90088  12.825  44.472   2.254
17774W        W90089  32.428  33.981   0.387
17775W        W90090  32.615  38.536   4.256
17776W        W90091   9.701   5.389  13.472
17777W        W90092  23.162  18.207  13.015
17778W        W90093  11.161  27.540  14.492
17779W        W90094   2.253  16.665   2.251
17780W        W90095  12.727  13.687   1.286
17781W        W90096  42.966  32.942  10.413
17782W        W90097  11.368  34.972   1.766
17783W        W90098  22.713  41.414   5.260
17784W        W90099  36.063  22.139  11.982
17785W        W90100   6.881  25.504   1.277
17786W        W90101  44.947  24.573   4.785
17787W        W90102  37.415  34.395  12.391
17788W        W90103  19.689  21.071  13.033
17789W        W90104   0.976   7.757  14.328
17790W        W90105   9.844   4.344  12.909
17791W        W90106  11.244  38.044   3.714
17792W        W90107  14.261  38.381   1.861
17793W        W90108   1.361  29.163  10.564
17794W        W90109  19.258  37.533  13.877
17795W        W90110  22.620  16.174  13.440
17796W        W90111  12.308   0.988  13.985
17797W        W90112  16.767  19.183  13.524
17798W        W90113  17.761  32.111   4.752
17799W        W90114   6.411   4.773   2.306
17800W        W90115   0.299  42.993   2.811
17801W        W90116  17.161   2.831  12.937
17802W        W90117  31.571  13.113   1.876
17803W        W90118  29.033  27.092  14.919
17804W        W90119  24.562   6.904   1.251
17805W        W90120  37.060   6.240   2.836
17806W        W90121  13.756  11.303   4.612
17807W        W90122  37.442  32.040  11.387
17808W        W90123  12.752   7.224  12.009
17809W        W90124  36.514  14.142  10.072
17810W        W90125  33.084  10.833   2.717
17811W        W90126  35.008  43.326   3.843
17812W        W90127  37.997  42.297   4.326
17813W        W90128  31.556   2.782  12.900
17814W        W90129  36.937  36.465  11.583
17815W        W90130  25.688  19.250  13.060
17816W        W90131  41.455   8.397   2.772
17817W        W90132  16.729  18.244  12.419
17818W        W90133  33.088  36.452   4.283
17819W        W90134   9.207   6.906   0.352
17820W        W90135  23.571  34.395   4.609
17821W        W90136  16.301  25.181  11.031
17822W        W90137  22.529   7.350  10.539
17823W        W90138  21.211  33.016  12.036
17824W        W90139  35.062  19.536   2.840
17825W        W90140  16.802  44.463   1.792
17826W        W90141  22.084  24.506  11.035
17827W        W90142  25.015  15.811  13.511
17828W        W90143  21.658   5.693  13.892
17829W        W90144  36.070  27.971  12.555
17830W        W90145   0.256  12.730   5.786
17831W        W90146   3.844   8.202  12.056
17832W        W90147  10.162  22.117   0.739
17833W        W90148  25.971   4.413   4.786
17834W        W90149  27.596  11.347  10.591
17835W        W90150  43.952  32.484   2.774
17836W        W90151  24.538  28.002   3.292
17837W        W90152  36.072  25.487   0.420
17838W        W90153  39.421  39.024  13.490
17839W        W90154  10.718   5.195   1.769
17840W        W90155  28.524  14.161  14.328
17841W        W90156  37.458   8.754  12.001
17842W        W90157  16.801  32.531   4.615
17843W        W90158  37.364  42.781   4.636
17844W        W90159  16.229  11.343  10.426
17845W        W90160   0.781   0.366   1.921
17846W        W90161  14.629   0.382   3.266
17847W        W90162  34.394  44.937   0.823
17848W        W90163  39.469  32.999  10.524
17849W        W90164   8.751  19.124   3.827
17850W        W90165  15.215   5.354  14.331
17851W        W90166   9.797  15.732  14.843
17852W        W90167  39.489   4.826   4.206
17853W        W90168  30.447  30.623  13.882
17854W        W90169  32.925  39.900   3.716
17855W        W90170  43.435  30.060  14.928
17856W        W90171  40.018   2.297   0.890
17857W        W90172  26.194   4.374   2.277
17858W        W90173  18.718   6.717  11.003
17859W        W90174  41.434  29.482  11.929
17860W        W90175   2.395   6.812   4.701
17861W        W90176  18.630  38.910  11.542
17862W        W90177  37.561  28.529  13.973
17863W        W90178  25.562   6.759   3.805
17864W        W90179  10.839  44.011   4.277
17865W        W90180  38.876  19.538   3.370
17866W        W90181  38.355  22.708   1.372
17867W        W90182   8.816  17.779  10.138
17868W        W90183  36.557  10.830  14.346
17869W        W90184  13.157  25.688   0.840
17870W        W90185  22.017   7.784   3.799
17871W        W90186   0.459  11.866   3.371
17872W        W90187  19.199   4.210   4.219
17873W        W90188  28.072  24.500  10.951
17874W        W90189  12.823  20.705  13.443
17875W        W90190   3.448  42.871   1.318
17876W        W90191  35.511  12.220   2.368
17877W        W90192  11.835  42.475  11.550
17878W        W90193  24.489  37.528   0.899
17879W        W90194  21.125  38.493   4.310
17880W        W90195   7.366  27.029   2.286
17881W        W90196  16.223   2.424  11.899
17882W        W90197  25.494  40.949  10.455
17883W        W90198   7.267  24.190  14.797
17884W        W90199   9.690   6.907   3.335
17885W        W90200  41.822   1.865  10.490
17886W        W90201  20.639  15.735  11.991
17887W        W90202  25.152  29.580  14.380
17888W        W90203   3.315  16.754  10.116
17889W        W90204  33.426  42.373  11.578
17890W        W90205  13.749   6.244   1.734
17891W        W90206  23.498  36.899   4.201
17892W        W90207  29.512   7.892  12.848
17893W        W90208  39.358  28.579   2.890
17894W        W90209  41.531  43.875  12.340
17895W        W90210  12.185  16.779   0.824
17896W        W90211  32.961  12.716  11.032
17897W        W90212  19.226  19.246   4.836
17898W        W90213  34.613   5.690   0.860
17899W        W90214  14.801  33.390  12.877
17900W        W90215  18.058  36.849   0.431
17901W        W90216  13.838  37.834  11.876
17902W        W90217  13.110   1.753   4.302
17903W        W90218   3.867  17.734   0.859
17904W        W90219  43.941  41.915  11.397
17905W        W90220  19.277  43.772  11.868
17906W        W90221  12.744  17.287   0.248
17907W        W90222  14.764  31.906   3.256
17908W        W90223  15.809  16.615  12.917
17909W        W90224  25.208  14.332  11.967
17910W        W90225  11.781  36.876  12.538
17911W        W90226  36.071  15.276   3.655
17912W        W90227   6.834  10.652   1.384
17913W        W90228  36.847   0.339  14.992
17914W        W90229   1.860  23.670  11.954
17915W        W90230  39.881   3.423   2.690
17916W        W90231  17.260  23.098   1.269
17917W        W90232  44.828  35.104  10.615
17918W        W90233  19.559  30.064  10.888
17919W        W90234  17.303   9.384  11.934
17920W        W90235   0.846  35.593  10.577
17921W        W90236   7.744  42.435  11.492
17922W        W90237  39.064  31.017   1.345
17923W        W90238  25.159  41.020   3.677
17924W        W90239   9.707  18.714   9.579
17925W        W90240  37.404   8.753  11.504
17926W        W90241   2.302   5.811   1.249
17927W        W90242  31.564   6.686  12.052
17928W        W90243  35.990  12.614   3.838
17929W        W90244   3.836  17.149   4.124
17930W        W90245  38.350  28.489  14.016
17931W        W90246  34.985  41.895   4.728
17932W        W90247   2.917  16.196   3.269
17933W        W90248  24.496   2.396  14.281
17934W        W90249   9.810  30.986   0.810
17935W        W90250   3.284  10.865  14.943
17936W        W90251  37.933   7.845   2.286
17937W        W90252  39.403  27.452  13.058
17938W        W90253  35.041  32.072  11.867
17939W        W90254  34.980   8.861  13.945
17940W        W90255  23.185  32.403   3.348
17941W        W90256   8.829  17.783   1.744
17942W        W90257  41.320  40.960  14.468
17943W        W90258  14.731  22.689   3.794
17944W        W90259   6.232  39.915   3.724
17945W        W90260   4.711   7.761   1.349
17946W        W90261   8.798  40.893   4.641
17947W        W90262   8.381  14.136   1.273
17948W        W90263  43.368  25.540   1.732
17949W        W90264  28.045  43.767  12.952
17950W        W90265  16.242   8.160  11.098
17951W        W90266  25.218   9.237  10.423
17952W        W90267  31.629   1.314  14.030
17953W        W90268  30.509  32.112  13.371
17954W        W90269  33.896  31.090   1.422
17955W        W90270  20.586  41.840   1.712
17956W        W90271   9.266  44.377  13.019
17957W        W90272   5.232  31.470   3.260
17958W        W90273  19.695  20.544  12.837
17959W        W90274  33.947  34.095   1.304
17960W        W90275   1.862  38.834   4.771
17961W        W90276  27.040   9.363  12.560
17962W        W90277  25.519   5.790   0.766
17963W        W90278   3.757  21.114   3.678
17964W        W90279  23.241  23.531   4.640
17965W        W90280  33.448  29.082  10.926
17966W        W90281   0.404   9.387  11.444
17967W        W90282  24.504  25.001  12.516
17968W        W90283  25.027  15.620  12.528
17969W        W90284  10.696  14.289   2.412
17970W        W90285  43.774  32.513   0.865
17971W        W90286  23.696  20.574   2.816
17972W        W90287  38.396  14.641  13.916
17973W        W90288   1.468   2.315  10.496
17974W        W90289  10.875  37.882   1.740
17975W        W90290  22.165  12.693  12.470
17976W        W90291  15.258  32.502  12.867
17977W        W90292  35.859  30.085   2.342
17978W        W90293   1.891  36.037   3.367
17979W        W90294  44.914  35.489   0.958
17980W        W90295  22.179  13.289   3.273
17981W        W90296   1.767  24.545   2.709
17982W        W90297  41.934  28.625   0.414
17983W        W90298  36.888  14.622   4.317
17984W        W90299  34.044  18.136  11.605
17985W        W90300  38.546  14.646  11.548
17986W        W90301  16.575  20.694  14.027
17987W        W90302  42.320  28.439  12.470
17988W        W90303  22.669  30.144  11.035
17989W        W90304  14.744  14.729   0.895
17990W        W90305  10.346   4.724   5.303
17991W        W90306  26.156   2.326   1.280
17992W        W90307   7.683  33.407  10.513
17993W        W90308  40.865  35.384   4.229
17994W        W90309   4.945  36.476  10.571
17995W        W90310  40.366  39.413  14.380
17996W        W90311  23.665  31.568   0.467
17997W        W90312  29.036   5.703  10.635
17998W        W90313  35.401  18.198   3.383
17999W        W90314  16.650  30.063  14.829
18000W        W90315  42.511   8.217   1.908
18001W        W90316   5.302  35.431  10.603
18002W        W90317   1.948  12.349  11.927
18003W        W90318  43.805   2.344   2.761
18004W        W90319  38.439  30.500  12.945
18005W        W90320  42.389   9.853   4.777
18006W        W90321  38.393   6.829   3.186
18007W        W90322  29.449  30.556   0.260
18008W        W90323  38.404  43.900   2.391
18009W        W90324  37.352  12.743   2.744
18010W        W90325  31.143  31.615  12.506
18011W        W90326  44.880  10.366   2.783
18012W        W90327   1.763  12.721   2.267
18013W        W90328  22.733  16.078  12.029
18014W        W90329  39.536  16.295  13.426
18015W        W90330  21.072  19.139  13.876
18016W        W90331   4.270  19.066   3.278
18017W        W90332  27.197   5.325   2.320
18018W        W90333  32.122  29.445  13.431
18019W        W90334  38.835  29.051  13.912
18020W        W90335   8.816  30.469  14.907
18021W        W90336  12.253  23.183  10.420
18022W        W90337   2.463   7.724  13.426
18023W        W90338  30.028  32.915   4.336
18024W        W90339  11.637   5.343  11.389
18025W        W90340  22.173  30.630  13.348
18026W        W90341   5.410  37.374   2.697
18027W        W90342  42.877   9.239  11.538
18028W        W90343   0.337   6.807   4.821
18029W        W90344  28.015  30.488  13.404
18030W        W90345   3.225  10.692  13.372
18031W        W90346  33.021  24.199  13.922
18032W        W90347  23.231  28.930  13.486
18033W        W90348   7.368   9.300  14.433
18034W        W90349  19.233  27.645  13.805
18035W        W90350   5.814  43.510   1.803
18036W        W90351  23.589   9.798  14.315
18037W        W90352  43.372  27.090   2.775
18038W        W90353  41.310  37.066  11.091
18039W        W90354   4.251   6.245   0.437
18040W        W90355  22.520  23.497  14.919
18041W        W90356   2.457  37.362   5.175
18042W        W90357  39.030  36.887   2.755
18043W        W90358   2.272  15.257  11.083
18044W        W90359  35.447  15.203   4.190
18045W        W90360  27.538  22.235  13.965
18046W        W90361  44.851   5.373   2.792
18047W        W90362   9.770   0.756   2.871
18048W        W90363  18.179  33.131   1.754
18049W        W90364  23.555   7.329   1.447
18050W        W90365  21.522   3.831   2.214
18051W        W90366   4.315  19.119  14.341
18052W        W90367  17.698  16.271   3.777
18053W        W90368  16.158  26.603   3.244
18054W        W90369  29.158  36.406  11.877
18055W        W90370   4.899  12.691   3.658
18056W        W90371  11.719  41.446  11.503
18057W        W90372   6.255   0.298  12.414
18058W        W90373  41.406  23.640  14.846
18059W        W90374  15.090  18.607  14.494
18060W        W90375   9.382  22.227  14.945
18061W        W90376  15.111   0.375  12.976
18062W        W90377   3.278  39.326   0.759
18063W        W90378  44.781  17.694  14.767
18064W        W90379  43.454  21.110   0.378
18065W        W90380  33.876  29.116   1.736
18066W        W90381  44.469   2.383   4.734
18067W        W90382   9.789   5.897   2.359
18068W        W90383  13.271  20.530   4.701
18069W        W90384  12.628   8.881  13.545
18070W        W90385  40.542   3.723   0.890
18071W        W90386  27.448  17.261   3.177
18072W        W90387  15.248  44.268   2.379
18073W        W90388  30.628  19.110   2.194
18074W        W90389   2.837  17.101  12.534
18075W        W90390  41.829  39.320  10.412
18076W        W90391  39.859  15.321   1.822
18077W        W90392   9.326  43.495   3.671
18078W        W90393  38.534  23.529  14.872
18079W        W90394   0.249   5.305  12.366
18080W        W90395  11.833  24.607  13.321
18081W        W90396  33.464  26.659   3.293
18082W        W90397  36.540  29.155  10.453
18083W        W90398  20.591  10.278   2.703
18084W        W90399  14.616   7.759   2.768
18085W        W90400  39.991  36.466   1.360
18086W        W90401  11.745  21.041  10.151
18087W        W90402   8.822   2.723  10.904
18088W        W90403  25.472  31.500   4.213
18089W        W90404  19.217   5.716  14.887
18090W        W90405   8.213  25.612  14.996
18091W        W90406  37.972  31.929  13.861
18092W        W90407  10.145  44.398  14.303
18093W        W90408  44.893  29.664   0.422
18094W        W90409  13.272   1.885   0.254
18095W        W90410  36.067  34.067   4.666
18096W        W90411  12.757  19.777   2.286
18097W        W90412  35.066   1.797   4.706
18098W        W90413   7.880   0.955  10.511
18099W        W90414  44.452   7.740   0.248
18100W        W90415  41.426   1.402  14.337
18101W        W90416   3.950  15.126   0.394
18102W        W90417   4.882  17.122  13.880
18103W        W90418  27.466  14.150  13.462
18104W        W90419  24.169  19.538  11.452
18105W        W90420  39.344  10.169  13.889
18106W        W90421   0.781  44.358  12.833
18107W        W90422  33.435  44.978   0.798
18108W        W90423  13.611  36.035   0.248
18109W        W90424  26.623  36.885  11.926
18110W        W90425  40.949  25.130  10.581
18111W        W90426  16.200  36.865   2.739
18112W        W90427  28.146  13.105  11.411
18113W        W90428  21.651  18.570   1.729
18114W        W90429  28.975  39.926   1.285
18115W        W90430  40.409  34.402  11.058
18116W        W90431   7.676  16.619  14.316
18117W        W90432  39.353  43.792  11.101
18118W        W90433  16.746  43.793  14.982
18119W        W90434   9.340  33.036   0.861
18120W        W90435  42.460  22.039   3.333
18121W        W90436  19.725  38.849   2.701
18122W        W90437  27.492  34.404   3.254
18123W        W90438   9.277  19.267  12.079
18124W        W90439  32.501  11.366  10.494
18125W        W90440  37.377  32.418   0.254
18126W        W90441  22.580  15.689   1.926
18127W        W90442  19.268  20.177  12.478
18128W        W90443   2.429  42.376   1.822
18129W        W90444  14.223  40.342   2.785
18130W        W90445  35.973   1.317   1.243
18131W        W90446  21.718  38.427   2.898
18132W        W90447  42.806  44.352   1.842
18133W        W90448  28.074  42.491   0.286
18134W        W90449  19.234  25.072   3.305
18135W        W90450  44.416  17.746  11.034
18136W        W90451  33.109  19.620   1.747
18137W        W90452  34.550  39.466   2.308
18138W        W90453  18.262  25.607  14.895
18139W        W90454   2.455  23.171  13.795
18140W        W90455  24.077   7.344  10.926
18141W        W90456  38.333  28.440   3.864
18142W        W90457  35.527  21.232   4.276
18143W        W90458  20.077  16.592  12.890
18144W        W90459   7.329  42.388  14.826
18145W        W90460  15.188  38.490   0.417
18146W        W90461   3.335  16.256   3.157
18147W        W90462  19.722   8.222   5.155
18148W        W90463  30.599  43.440  13.841
18149W        W90464  44.390  20.051  12.044
18150W        W90465  44.357  40.819  11.100
18151W        W90466  34.053  40.357  11.381
18152W        W90467  18.788  11.159  14.793
18153W        W90468  43.458   9.828  10.029
18154W        W90469  33.580  36.474   3.225
18155W        W90470  39.812   7.775   0.803
18156W        W90471  39.458  22.201  10.497
18157W        W90472  39.987   1.255   1.778
18158W        W90473  24.571  28.025   3.849
18159W        W90474  27.554  22.214   2.311
18160W        W90475  42.960  34.990  10.411
18161W        W90476  14.815  38.343  12.900
18162W        W90477  28.956   2.308  10.495
18163W        W90478  37.891  32.123  10.110
18164W        W90479   7.856  13.814  12.405
18165W        W90480  24.668  39.555  11.552
18166W        W90481  10.863   8.211  12.339
18167W        W90482  44.501  27.621  11.128
18168W        W90483  10.238  15.685  10.620
18169W        W90484  42.819   5.883  14.759
18170W        W90485  20.080   3.935   2.326
18171W        W90486  24.158  31.033  10.441
18172W        W90487  12.734   2.252  11.970
18173W        W90488   6.799  33.052  13.422
18174W        W90489   3.797  27.137   3.216
18175W        W90490  23.633  39.872   1.252
18176W        W90491  16.635  10.282   5.594
18177W        W90492  28.098  14.308   5.115
18178W        W90493  20.231   0.749  13.323
18179W        W90494  17.076  36.371  14.823
18180W        W90495  26.180  14.808   0.253
18181W        W90496  34.871  42.888   0.473
18182W        W90497  33.113  18.283   2.731
18183W        W90498  10.310  43.342   1.807
18184W        W90499  41.818   5.236   3.348
18185W        W90500  12.839  23.095   0.419
18186W        W90501   5.793  17.201  10.459
18187W        W90502  32.999   5.309   3.326
18188W        W90503   4.317   7.267   4.677
18189W        W90504   2.842  21.169  11.510
18190W        W90505  27.154  43.416  14.878
18191W        W90506  28.465  10.785   4.147
18192W        W90507  31.449  43.329  13.362
18193W        W90508  42.941  17.185  12.418
18194W        W90509  42.365  33.623   3.216
18195W        W90510  32.590   7.301  12.090
18196W        W90511  15.765  20.138   3.796
18197W        W90512  10.170  28.603  11.977
18198W        W90513  38.021  43.477   0.803
18199W        W90514   9.793   7.347   0.765
18200W        W90515  23.544  32.575   0.883
18201W        W90516  43.278  23.162   4.241
18202W        W90517  15.091  28.641   0.892
18203W        W90518   6.679   2.298   0.742
18204W        W90519  10.877  24.681  14.369
18205W        W90520  12.254  37.378   4.638
18206W        W90521   5.348  40.536   0.911
18207W        W90522  22.668  16.096   3.788
18208W        W90523  16.752  14.196   4.139
18209W        W90524   0.929  25.518   0.817
18210W        W90525   9.228  17.223   2.397
18211W        W90526  41.312  28.513  10.904
18212W        W90527  23.192  30.590   1.926
18213W        W90528  29.012  22.223   2.311
18214W        W90529  43.017   7.680  14.916
18215W        W90530  24.481  31.034  14.796
18216W        W90531  20.723  24.649   0.328
18217W        W90532  39.878  43.319  13.830
18218W        W90533  44.310  39.364  13.497
18219W        W90534  28.984  33.475  14.367
18220W        W90535  26.624  42.492  11.876
18221W        W90536   2.309  20.538   3.224
18222W        W90537  29.092  20.627   3.665
18223W        W90538  28.641  10.381  13.017
18224W        W90539  42.457  35.031  11.389
18225W        W90540   2.382  12.653   0.463
18226W        W90541  39.511  39.438  11.067
18227W        W90542  21.648  41.332   2.830
18228W        W90543  40.898  32.594  13.322
18229W        W90544  20.221  13.155   3.708
18230W        W90545  42.470  15.596   0.329
18231W        W90546  28.648  10.275   2.269
18232W        W90547  32.538   2.731   3.330
18233W        W90548  27.492  33.907   2.278
18234W        W90549  42.517  28.173  10.981
18235W        W90550   9.822   2.327   1.275
18236W        W90551  44.828  13.791   3.244
18237W        W90552  37.431  23.016  12.841
18238W        W90553  13.702  27.966   3.360
18239W        W90554   6.802  21.578  13.322
18240W        W90555  39.853  42.309  14.453
18241W        W90556   6.396  38.349  14.810
18242W        W90557  16.670   9.156   2.747
18243W        W90558   4.750  39.360  14.486
18244W        W90559  33.479  14.785   1.743
18245W        W90560   4.295   2.282  13.997
18246W        W90561   9.672  16.626  11.068
18247W        W90562  31.920   6.818  11.547
18248W        W90563  34.054  39.980  10.551
18249W        W90564  15.102   4.398   0.881
18250W        W90565  40.331  12.807  11.582
18251W        W90566   9.722   1.481   2.404
18252W        W90567   6.918   0.322   4.146
18253W        W90568  30.929  19.551  12.913
18254W        W90569  19.258  16.223  13.451
18255W        W90570  35.859  18.631   3.366
18256W        W90571   4.268  24.091  12.998
18257W        W90572  17.724   7.337   3.215
18258W        W90573  34.510  42.968   2.817
18259W        W90574  31.050  44.495   4.210
18260W        W90575  30.130  35.504   1.894
18261W        W90576  27.503  29.923   2.286
18262W        W90577  14.282  26.072  11.065
18263W        W90578   6.375   7.827   4.787
18264W        W90579   7.845   8.169  14.972
18265W        W90580  20.633  29.573  12.955
18266W        W90581  20.124  27.022  14.304
18267W        W90582  28.639  18.056  13.325
18268W        W90583  17.766  44.302   2.224
18269W        W90584   6.823   0.950  10.472
18270W        W90585  44.965  19.677   4.161
18271W        W90586  16.756  14.208   2.731
18272W        W90587   2.230  40.021   2.272
18273W        W90588   5.255   9.834   4.167
18274W        W90589  29.103  18.288   0.960
18275W        W90590  12.788  11.353   3.223
18276W        W90591  20.074  14.218  12.406
18277W        W90592  24.695  41.361  13.384
18278W        W90593   1.833  31.897  11.102
18279W        W90594  33.416  38.466   3.844
18280W        W90595  23.987  17.159  12.465
18281W        W90596  15.108  28.500   2.811
18282W        W90597  19.050  31.416  13.062
18283W        W90598  24.524  41.440  14.384
18284W        W90599  22.591  24.583   0.757
18285W        W90600  30.654  13.317   3.150
18286W        W90601   8.230  16.271   3.247
18287W        W90602   9.173  14.305  12.943
18288W        W90603  23.234  16.290  11.383
18289W        W90604  39.900  42.410  11.493
18290W        W90605  10.793   5.404  14.837
18291W        W90606   0.352  38.926   2.298
18292W        W90607  21.572  39.874   1.310
18293W        W90608  13.263  38.012   1.773
18294W        W90609  36.900  42.918   3.306
18295W        W90610  39.901  44.373  14.285
18296W        W90611  28.441  35.511   3.631
18297W        W90612  36.590  24.162   1.789
18298W        W90613  19.725  35.432   4.837
18299W        W90614  28.148  12.729   0.304
18300W        W90615  35.406  30.005  12.928
18301W        W90616  28.444  34.887  14.789
18302W        W90617  43.768  20.190   3.210
18303W        W90618   7.368  36.891  13.959
18304W        W90619  44.849   5.397   1.893
18305W        W90620  10.330  42.465  12.983
18306W        W90621   6.409  35.959   3.704
18307W        W90622  11.241  15.150  11.054
18308W        W90623  22.006   5.706   2.706
18309W        W90624  10.780  18.758  14.484
18310W        W90625  17.700  26.464  14.785
18311W        W90626  15.654  43.504  10.577
18312W        W90627  12.741  26.160  12.372
18313W        W90628  42.006  10.702  14.759
18314W        W90629  28.936  23.670  13.917
18315W        W90630  17.675  11.701   4.735
18316W        W90631  41.987  15.686   1.305
18317W        W90632  26.569  31.461  13.867
18318W        W90633  33.406   2.787  13.535
18319W        W90634  43.386   1.748  12.393
18320W        W90635  12.718   7.724   3.697
18321W        W90636  22.234   8.729  13.385
18322W        W90637  30.067  29.000   2.814
18323W        W90638  41.023  36.037   4.283
18324W        W90639   3.747  13.781  10.514
18325W        W90640  25.101  14.242   0.730
18326W        W90641  43.929   3.891   4.284
18327W        W90642   3.250  29.172  14.301
18328W        W90643  39.469  37.349   1.905
18329W        W90644  23.021  10.736  14.382
18330W        W90645   2.372  12.185  14.471
18331W        W90646   6.686   5.195  11.861
18332W        W90647   5.906  10.320  13.026
18333W        W90648  44.420  15.729   0.799
18334W        W90649  25.996  17.790  11.450
18335W        W90650  25.179  36.982  11.549
18336W        W90651  17.167  10.189  13.490
18337W        W90652  43.430   6.827  14.810
18338W        W90653  12.311  21.123  14.957
18339W        W90654  14.835  12.652   9.928
18340W        W90655  18.751   1.971   2.365
18341W        W90656  20.152   8.668   2.248
18342W        W90657  44.393  26.123  10.075
18343W        W90658   2.735  43.406  12.076
18344W        W90659  34.875  16.717   4.683
18345W        W90660   1.483  19.626  11.013
18346W        W90661  27.538   6.216  12.019
18347W        W90662  17.139  34.446  10.038
18348W        W90663  26.020   1.247  11.879
18349W        W90664  43.466  29.629  10.150
18350W        W90665  12.622   3.391   1.392
18351W        W90666   8.777  16.583  10.014
18352W        W90667   2.308  24.193  14.327
18353W        W90668  44.478  17.131  12.857
18354W        W90669  18.759  22.517  10.424
18355W        W90670  32.125  35.419  10.462
18356W        W90671   7.277  18.641   3.280
18357W        W90672  34.579  30.012   0.963
18358W        W90673  30.929  21.067  14.925
18359W        W90674  17.133   6.363   0.737
18360W        W90675  37.351  33.994  12.438
18361W        W90676  25.554  42.805  14.973
18362W        W90677   8.197  20.590  10.450
18363W        W90678   1.291  41.460  12.520
18364W        W90679  10.877  15.694  14.922
18365W        W90680  30.151  31.059  12.011
18366W        W90681   2.782  42.921   5.095
18367W        W90682  36.511  21.254   1.705
18368W        W90683  15.731  19.205   1.772
18369W        W90684  33.380  44.419   3.769
18370W        W90685  43.382  39.467   0.768
18371W        W90686   6.853   8.250  12.435
18372W        W90687   8.366  43.993  13.038
18373W        W90688   0.324  38.835  11.858
18374W        W90689   4.205  10.822   0.249
18375W        W90690  26.503  39.973   1.219
18376W        W90691  20.553  10.738   9.955
18377W        W90692  16.249  38.865   1.718
18378W        W90693  19.586  16.711   0.930
18379W        W90694  11.834  42.415  14.942
18380W        W90695   0.873  35.037   4.306
18381W        W90696  11.752  12.174  13.493
18382W        W90697  12.282  18.097   9.535
18383W        W90698  38.990  29.013  11.565
18384W        W90699   4.878  32.549  11.052
18385W        W90700  44.900  43.014   1.804
18386W        W90701  12.684   6.778   2.718
18387W        W90702   6.284  37.947  13.351
18388W        W90703  35.439  43.998  12.997
18389W        W90704   3.956   6.194   0.754
18390W        W90705   1.461   2.759  14.005
18391W        W90706   4.738   9.308   0.455
18392W        W90707  13.187  13.205  11.476
18393W        W90708  38.513   2.848   0.287
18394W        W90709  34.470  37.057  13.017
18395W        W90710  13.671  36.467   0.884
18396W        W90711  17.140  19.760   3.230
18397W        W90712  14.665  15.086  13.968
18398W        W90713  35.107  13.836   4.233
18399W        W90714  24.061  27.186  10.587
18400W        W90715  20.059  25.711   4.306
18401W        W90716  36.484  29.956  14.879
18402W        W90717  41.459   9.347   1.919
18403W        W90718  19.731  31.470  12.945
18404W        W90719  40.534  11.753   0.346
18405W        W90720  39.447   9.304  13.438
18406W        W90721  15.669   0.440  13.798
18407W        W90722  35.360  10.215   0.412
18408W        W90723   7.711   4.875   0.796
18409W        W90724  16.651  19.582  12.415
18410W        W90725   1.376   2.886  14.910
18411W        W90726  19.573   5.789   4.742
18412W        W90727  16.779  26.000   2.806
18413W        W90728   2.358  25.696   0.386
18414W        W90729   4.941   4.914   0.886
18415W        W90730  36.001   7.273   0.781
18416W        W90731   5.268  32.059   2.384
18417W        W90732   6.392   9.688   3.870
18418W        W90733  29.096   9.878   3.375
18419W        W90734  31.073  36.900   0.758
18420W        W90735  36.434  16.216   1.325
18421W        W90736  22.629   1.440  11.380
18422W        W90737  40.951  34.069  10.545
18423W        W90738  30.515  18.287   1.825
18424W        W90739  44.447  42.966   2.880
18425W        W90740  25.531  24.073   5.126
18426W        W90741  34.380  44.969  10.427
18427W        W90742  30.514  24.044  14.477
18428W        W90743  19.688  30.533  13.322
18429W        W90744   5.394  17.073   2.285
18430W        W90745   8.845  40.377  11.608
18431W        W90746  11.660   9.864  14.012
18432W        W90747  10.197  37.974  11.530
18433W        W90748  27.486  29.619   0.805
18434W        W90749  17.176  41.413  10.537
18435W        W90750  31.643  41.826  14.830
18436W        W90751  28.655  20.183  12.515
18437W        W90752  13.787  30.988   1.813
18438W        W90753   4.903  19.082   1.213
18439W        W90754   5.377  30.143  12.957
18440W        W90755  11.731   7.728   1.696
18441W        W90756  10.698  32.074   0.788
18442W        W90757   7.739  38.944   4.126
18443W        W90758   8.897  30.045   3.707
18444W        W90759  16.175  36.420  10.553
18445W        W90760  41.529  38.378  14.495
18446W        W90761  40.382  29.557   0.324
18447W        W90762   9.855  23.699  12.005
18448W        W90763   3.322   7.709  10.593
18449W        W90764  20.711  22.199   3.312
18450W        W90765  21.617  14.828  12.043
18451W        W90766   2.858  38.946  10.522
18452W        W90767   7.199  28.115  12.911
18453W        W90768  41.516  16.803  14.456
18454W        W90769   4.235  22.557  13.396
18455W        W90770   1.284  31.456   1.347
18456W        W90771  23.133  11.357  10.578
18457W        W90772   8.317  36.087  13.313
18458W        W90773   0.963  28.033  13.339
18459W        W90774  21.218  26.626  12.929
18460W        W90775  23.527  36.946   2.412
18461W        W90776  35.464   4.705  10.634
18462W        W90777  35.095  12.221   0.331
18463W        W90778   8.851  38.974  14.913
18464W        W90779  10.863   3.412   3.698
18465W        W90780   3.447   4.412  14.986
18466W        W90781  14.304  15.314   4.288
18467W        W90782  15.782  13.171  10.408
18468W        W90783   0.385   1.740  10.627
18469W        W90784  22.745  22.566  14.368
18470W        W90785  14.796  13.743   0.280
18471W        W90786  18.700  23.713  13.429
18472W        W90787  24.702  41.965  10.418
18473W        W90788   4.238   2.733  14.500
18474W        W90789   3.804  28.641  13.863
18475W        W90790   5.388  36.902   0.406
18476W        W90791  39.993  36.453   4.636
18477W        W90792  19.535  22.619  10.977
18478W        W90793  14.151   4.800  11.029
18479W        W90794  33.582   0.843  14.023
18480W        W90795  27.127  15.783  10.932
18481W        W90796  13.169   2.286  12.396
18482W        W90797  11.340  42.503   0.783
18483W        W90798  10.793  38.520  12.927
18484W        W90799   2.429   5.367  10.950
18485W        W90800  32.579  26.625  12.376
18486W        W90801  18.143  14.103   3.785
18487W        W90802  28.085   6.311   4.650
18488W        W90803  12.656  43.302   3.326
18489W        W90804   0.391  27.499   2.321
18490W        W90805   1.274   3.335   2.726
18491W        W90806  29.490  38.411  13.853
18492W        W90807  37.978  32.975  14.284
18493W        W90808  32.588  42.816   2.241
18494W        W90809  21.581  31.975  11.456
18495W        W90810  37.580  31.617   1.381
18496W        W90811   6.850  32.585  10.943
18497W        W90812  18.671  37.976  14.933
18498W        W90813  43.916  10.346   1.214
18499W        W90814   3.922  44.321  12.003
18500W        W90815  15.821  11.345  10.144
18501W        W90816  39.856  11.338   0.958
18502W        W90817  19.191  36.467   3.861
18503W        W90818   0.800  25.195  11.996
18504W        W90819  39.418  17.198   3.328
18505W        W90820  36.426  28.123   0.854
18506W        W90821   0.398  17.617  13.423
18507W        W90822  13.612  34.437  14.346
18508W        W90823   9.170  14.651  12.873
18509W        W90824  42.820  13.321   1.337
18510W        W90825  16.639  23.030   3.680
18511W        W90826  34.881  14.176   4.146
18512W        W90827  29.132  38.979  11.879
18513W        W90828  21.094   9.154  11.067
18514W        W90829   0.944  12.155   0.306
18515W        W90830   1.759  18.748   0.812
18516W        W90831  11.271  44.273   2.319
18517W        W90832  28.588  18.554   1.876
18518W        W90833  24.095  12.340   4.610
18519W        W90834  16.655   8.350  13.042
18520W        W90835   4.757  27.490  13.494
18521W        W90836   2.403  36.844  11.581
18522W        W90837  15.206   8.659  10.632
18523W        W90838  40.978  24.049  14.826
18524W        W90839  16.733  17.788   0.433
18525W        W90840  13.232   3.907   2.762
18526W        W90841  19.089  38.993  14.281
18527W        W90842  23.692  10.248   9.946
18528W        W90843  31.021  17.152  13.514
18529W        W90844  29.477  40.398  12.828
18530W        W90845  17.700   9.792  11.955
18531W        W90846  37.853  11.305  11.482
18532W        W90847  29.658   5.269  14.992
18533W        W90848  28.560  37.479  11.444
18534W        W90849  21.671  18.201  11.900
18535W        W90850   5.725  41.472  12.848
18536W        W90851  41.426  14.686  13.909
18537W        W90852  31.935   6.362  12.945
18538W        W90853   1.330  27.679   4.714
18539W        W90854  40.498   4.708  12.353
18540W        W90855  39.400  44.471  12.478
18541W        W90856  30.608  33.381  13.917
18542W        W90857  31.526  25.150   2.739
18543W        W90858  28.127   3.735  11.932
18544W        W90859  29.435  10.189  10.480
18545W        W90860  41.438  44.852  11.855
18546W        W90861  38.457  34.876  13.492
18547W        W90862  14.320  11.848   3.849
18548W        W90863  16.717  42.876  11.533
18549W        W90864  19.778  28.674   4.221
18550W        W90865  10.186  39.826   0.324
18551W        W90866   3.221   9.763   1.730
18552W        W90867  16.211   1.387  11.511
18553W        W90868   1.451   0.814   3.765
18554W        W90869   7.719  38.996   3.184
18555W        W90870  18.686   3.296   2.714
18556W        W90871  28.168  35.867   2.828
18557W        W90872  30.104   3.923  12.906
18558W        W90873   8.802  40.496   3.804
18559W        W90874   2.892   6.368   3.865
18560W        W90875  23.232  12.131   1.818
18561W        W90876  11.307  27.652   3.764
18562W        W90877  20.567   6.349  13.827
18563W        W90878  37.933  12.196  14.872
18564W        W90879  17.204  44.379   4.168
18565W        W90880  43.294   3.782   3.190
18566W        W90881  21.750  16.623  12.576
18567W        W90882  28.155  20.239  13.373
18568W        W90883  35.914  17.648   3.213
18569W        W90884  20.188   0.754   2.375
18570W        W90885   4.272   1.480  14.331
18571W        W90886   7.776  28.956  11.121
18572W        W90887  26.999  25.484   2.265
18573W        W90888  18.701  36.353  10.440
18574W        W90889  33.524  36.876   2.210
18575W        W90890   2.465   0.473  14.762
18576W        W90891  22.505   4.933  10.940
18577W        W90892  19.737  25.080   3.224
18578W        W90893   1.376  20.707  13.487
18579W        W90894  16.195  28.935  12.083
18580W        W90895  17.562   0.800   3.664
18581W        W90896  14.229  43.368   4.252
18582W        W90897  42.896  43.782  14.028
18583W        W90898  12.164  19.274   1.227
18584W        W90899   6.324   4.916  12.526
18585W        W90900  10.876  37.455   3.695
18586W        W90901   3.316  41.961   1.721
18587W        W90902  36.939  40.386   3.307
18588W        W90903  18.064   7.873  12.028
18589W        W90904   4.768  23.729   3.644
18590W        W90905  26.959  13.167   1.741
18591W        W90906  28.659  34.989   0.886
18592W        W90907  13.142  36.550  14.432
18593W        W90908  13.230  32.913   3.770
18594W        W90909  16.261  23.229   0.828
18595W        W90910  42.883  16.591   4.613
18596W        W90911   8.223   9.808   0.905
18597W        W90912  12.690  24.538   2.679
18598W        W90913  10.298  37.830  11.074
18599W        W90914  35.078  40.306  13.382
18600W        W90915  20.668   5.798   3.369
18601W        W90916  13.189  42.328  11.983
18602W        W90917  20.189   2.253   0.880
18603W        W90918  26.956  14.755  14.367
18604W        W90919  28.091  35.516  12.408
18605W        W90920  26.468  18.664   4.761
18606W        W90921   6.894  14.807   2.707
18607W        W90922  24.124  15.816  12.426
18608W        W90923   5.209  30.123  14.808
18609W        W90924  35.566  36.497   0.892
18610W        W90925  34.510  40.488  13.915
18611W        W90926  39.381   8.887  13.874
18612W        W90927   4.379  37.971   3.856
18613W        W90928  16.087  39.434   2.355
18614W        W90929  16.739   7.682  11.994
18615W        W90930  19.107   3.275   1.710
18616W        W90931  31.057  33.411  13.341
18617W        W90932  10.281  30.572  14.976
18618W        W90933  33.060  18.662  14.353
18619W        W90934   1.758  17.720  11.035
18620W        W90935  25.008  18.251  12.478
18621W        W90936   7.822  38.845   3.694
18622W        W90937  35.956   0.976   1.297
18623W        W90938  10.182  34.876   4.793
18624W        W90939  30.987  41.014  12.864
18625W        W90940  36.941  20.271   2.702
18626W        W90941  28.536  43.501  11.573
18627W        W90942  21.051  36.454   0.247
18628W        W90943  21.245  11.696   0.876
18629W        W90944  26.472   0.788   0.439
18630W        W90945  12.812  11.205   4.157
18631W        W90946  15.597   8.186  12.510
18632W        W90947   7.704  41.964  14.984
18633W        W90948  34.404  41.979   3.699
18634W        W90949   3.848  31.556  12.380
18635W        W90950  21.057  36.946  12.342
18636W        W90951  23.232  24.994   3.799
18637W        W90952  12.246  38.487  12.088
18638W        W90953   0.887  31.109  14.932
18639W        W90954   4.840   1.424  12.851
18640W        W90955   0.747  40.339  10.535
18641W        W90956  14.170  23.170   2.188
18642W        W90957  42.776  29.982   0.294
18643W        W90958   0.423  39.375   3.684
18644W        W90959   5.746  19.586  12.038
18645W        W90960  11.697  15.296   3.765
18646W        W90961  10.339   6.818  12.925
18647W        W90962   9.244  14.714  11.094
18648W        W90963  27.975   6.273  13.796
18649W        W90964  26.567  25.520   0.420
18650W        W90965  10.656   5.251   0.371
18651W        W90966  29.601   4.269   0.906
18652W        W90967  10.668  19.610  10.499
18653W        W90968  39.525  29.029  10.484
18654W        W90969  25.655   2.864  14.313
18655W        W90970  17.123   2.454   2.799
18656W        W90971  10.689  10.774   1.433
18657W        W90972  26.031   2.364  14.468
18658W        W90973   0.445  23.173   2.244
18659W        W90974  31.950  15.260   2.336
18660W        W90975  29.643  40.038   1.419
18661W        W90976  37.892  23.493   0.786
18662W        W90977   0.851  39.468  14.981
18663W        W90978  20.175   4.806  12.924
18664W        W90979  43.955  21.250   0.899
18665W        W90980  38.823  22.006   0.836
18666W        W90981   8.793  25.612   4.725
18667W        W90982  38.050  15.613   3.722
18668W        W90983  29.565   7.911   0.789
18669W        W90984  39.482  24.191  10.489
18670W        W90985   8.877  33.439  10.609
18671W        W90986  40.350  32.017  12.569
18672W        W90987  23.012   5.800   3.298
18673W        W90988  13.726   0.763  14.343
18674W        W90989  21.257  29.958   3.331
18675W        W90990  26.044  21.746   2.317
18676W        W90991  10.377  24.703  12.899
18677W        W90992  12.313  31.463  11.910
18678W        W90993  19.582  28.177  13.893
18679W        W90994  32.921  44.498  10.118
18680W        W90995   1.831   4.794  14.870
18681W        W90996  23.666   0.761  13.820
18682W        W90997  21.254  41.040   0.928
18683W        W90998   2.914   2.260  13.911
18684W        W90999  44.921  15.217   2.408
18685W        W91000  17.297  23.153  14.992
18686W        W91001  31.901   8.370   1.280
18687W        W91002  41.481  10.849  13.483
18688W        W91003  18.651  17.105   2.816
18689W        W91004  19.267  20.732  13.483
18690W        W91005  44.276   9.711  14.923
18691W        W91006  16.271  31.067  12.945
18692W        W91007  12.239  41.476  13.818
18693W        W91008  17.588  41.493   3.679
18694W        W91009  36.026  12.223   2.681
18695W        W91010  20.664  11.295  11.407
18696W        W91011  37.440  23.560   1.767
18697W        W91012   6.265   3.795  13.797
18698W        W91013  28.622  44.312   0.375
18699W        W91014   4.832  10.197  13.832
18700W        W91015  36.908   6.798   0.813
18701W        W91016  25.525  36.879   1.785
18702W        W91017  44.301  22.064  11.973
18703W        W91018   1.271  40.015   3.182
18704W        W91019  30.096  28.532   0.390
18705W        W91020  12.277  35.485  14.431
18706W        W91021  24.512  39.429   1.743
18707W        W91022  24.663   8.667   2.392
18708W        W91023  36.089  21.202  14.913
18709W        W91024  22.531  27.569   0.269
18710W        W91025   4.903   1.793   3.216
18711W        W91026   6.693  17.136   2.381
18712W        W91027  15.217  38.929  11.861
18713W        W91028  18.679  19.250  10.978
18714W        W91029  12.715   8.811   1.354
18715W        W91030   4.287  23.998  14.916
18716W        W91031  18.060  31.471  14.771
18717W        W91032  41.899   7.298  13.818
18718W        W91033  16.261  34.903  11.395
18719W        W91034   3.244  32.468  12.987
18720W        W91035   9.291  18.199   4.303
18721W        W91036  11.188  10.650  13.461
18722W        W91037  13.161  44.795   1.373
18723W        W91038  41.323  38.539   1.897
18724W        W91039  29.152  39.961  10.984
18725W        W91040  21.645  33.937   2.796
18726W        W91041  18.605  43.337  11.098
18727W        W91042  16.721  34.370  11.020
18728W        W91043  41.900   0.253  14.001
18729W        W91044  23.531  31.960   4.777
18730W        W91045  40.943   5.301   4.331
18731W        W91046  26.520   1.749  13.373
18732W        W91047  29.509  22.171   4.269
18733W        W91048  10.635   8.688   1.847
18734W        W91049  21.096   8.847   1.927
18735W        W91050  16.269  35.954   4.114
18736W        W91051  44.836  39.823  12.959
18737W        W91052   1.863  37.030  14.406
18738W        W91053  30.587   7.869  11.127
18739W        W91054  38.568  29.567  12.921
18740W        W91055  32.634  13.120  11.508
18741W        W91056   7.179  28.182  13.541
18742W        W91057  42.288  25.616   4.209
18743W        W91058  43.277   3.217  12.038
18744W        W91059  44.286  18.217  10.072
18745W        W91060   5.914   9.165   0.374
18746W        W91061  44.892  10.320  14.800
18747W        W91062  44.352  22.573  14.516
18748W        W91063  29.662  26.503  11.507
18749W        W91064  24.596  30.134  11.970
18750W        W91065   4.219  37.016   1.747
18751W        W91066  13.742  28.604   0.864
18752W        W91067   0.339  15.109   2.798
18753W        W91068  29.554   7.277  14.377
18754W        W91069  27.452  34.051  14.906
18755W        W91070  32.504  43.338  10.624
18756W        W91071   4.324  41.006  13.356
18757W        W91072   1.405  25.093  12.002
18758W        W91073  20.549  14.109   3.841
18759W        W91074  41.005  35.554  14.439
18760W        W91075   6.312  31.431  12.025
18761W        W91076  40.530  21.543   0.457
18762W        W91077  29.547  19.773   4.753
18763W        W91078   9.386  36.448  12.977
18764W        W91079  26.644  43.957   2.866
18765W        W91080   6.408  33.951  10.419
18766W        W91081  29.503  11.701  10.034
18767W        W91082  32.526  40.931   0.815
18768W        W91083  24.535  20.112  10.532
18769W        W91084  41.962  18.229   2.377
18770W        W91085  38.423   1.925   3.265
18771W        W91086  17.219   0.450   3.758
18772W        W91087  42.890   6.877  11.521
18773W        W91088  37.458  24.036  12.946
18774W        W91089   8.688  32.410   5.198
18775W        W91090  12.842  14.163  13.960
18776W        W91091  27.595  37.412  14.792
18777W        W91092  11.205   4.881  11.090
18778W        W91093  14.812  26.464  12.553
18779W        W91094  44.280  24.570   0.877
18780W        W91095  24.103  11.157  12.016
18781W        W91096  21.541  26.487   2.273
18782W        W91097  13.717  27.190   2.772
18783W        W91098  25.657   0.435  13.929
18784W        W91099   1.392   4.422  14.385
18785W        W91100  17.723  43.886   2.318
18786W        W91101   1.809  18.574  12.977
18787W        W91102  40.921   7.866  10.414
18788W        W91103  20.252  35.062   4.599
18789W        W91104  16.654  14.162   4.767
18790W        W91105  10.763  18.729   4.632
18791W        W91106  34.520  36.933  14.960
18792W        W91107  40.350  43.911   1.349
18793W        W91108  31.646   0.959   1.247
18794W        W91109  28.144  36.884   2.301
18795W        W91110  29.032  23.667  10.588
18796W        W91111  42.488  24.083   2.349
18797W        W91112  25.134  40.861   2.845
18798W        W91113  17.189  41.504   9.944
18799W        W91114   2.962  15.591   2.749
18800W        W91115  14.246  42.934  12.953
18801W        W91116  13.823  18.598  14.997
18802W        W91117   0.322   8.671   4.238
18803W        W91118  35.071  28.448   2.183
18804W        W91119  29.066  37.047   1.444
18805W        W91120  23.100  42.995   0.344
18806W        W91121  15.793  31.070   1.923
18807W        W91122  27.461   4.399  13.943
18808W        W91123  20.722  38.495   0.901
18809W        W91124  18.598   4.387   4.299
18810W        W91125  14.304   8.679   0.443
18811W        W91126  30.152  43.279   2.234
18812W        W91127  38.904   6.247  14.889
18813W        W91128  33.592  13.641   4.707
18814W        W91129  17.237  12.194  11.904
18815W        W91130  16.586   6.302   2.751
18816W        W91131  43.939   7.190  14.401
18817W        W91132  44.425   3.317   3.707
18818W        W91133  12.758   1.787   3.147
18819W        W91134  41.382  17.118  13.027
18820W        W91135  16.259  16.094  14.436
18821W        W91136  32.139   5.310   4.615
18822W        W91137  39.404   3.766   4.654
18823W        W91138  31.948  34.456   3.821
18824W        W91139  33.471  24.719   0.437
18825W        W91140  19.164  23.099  13.393
18826W        W91141  39.439  25.019   3.213
18827W        W91142  20.260  17.776  10.974
18828W        W91143   1.385  27.525  14.841
18829W        W91144   1.970   0.355  11.565
18830W        W91145  30.022   3.423   2.760
18831W        W91146  20.091  27.690  10.559
18832W        W91147   8.715  11.802  10.607
18833W        W91148  21.178   6.840  12.375
18834W        W91149   8.875  24.507   0.402
18835W        W91150   5.808  40.520   2.321
18836W        W91151  44.001  27.996   4.762
18837W        W91152  15.778  15.655   2.794
18838W        W91153   0.753  19.131   4.724
18839W        W91154  21.660  35.489   0.784
18840W        W91155  23.185   9.778   4.258
18841W        W91156   9.850  25.469   0.959
18842W        W91157  35.395  40.866   2.771
18843W        W91158   0.303   1.971  12.863
18844W        W91159  42.828  37.976  10.962
18845W        W91160  41.861   0.902   2.199
18846W        W91161  21.136   7.244   4.328
18847W        W91162  18.599   1.470   4.344
18848W        W91163  17.737  39.532  14.406
18849W        W91164  17.139   5.273  13.002
18850W        W91165  12.293  36.482   1.434
18851W        W91166  39.971  18.238  12.948
18852W        W91167  28.557  31.001   3.838
18853W        W91168  14.102  33.465   0.842
18854W        W91169  21.029  26.508   1.932
18855W        W91170  26.028  34.462  10.925
18856W        W91171   4.760   9.294   4.157
18857W        W91172  29.561   6.245   3.830
18858W        W91173  29.471  25.519  12.073
18859W        W91174  13.248  32.436  11.103
18860W        W91175   2.393  34.078   2.888
18861W        W91176  28.942   6.892   4.207
18862W        W91177   8.256  10.190   2.859
18863W        W91178  26.571  24.673   1.859
18864W        W91179  15.751  25.611  11.020
18865W        W91180  20.576   5.706  11.002
18866W        W91181  27.592  13.666   3.721
18867W        W91182  41.998  11.849  13.810
18868W        W91183  24.531  43.326  11.567
18869W        W91184  21.576  25.188   1.391
18870W        W91185  19.072  24.517   4.597
18871W        W91186   6.735  40.915  12.477
18872W        W91187  11.357   7.360  10.937
18873W        W91188  22.667  35.878  10.119
18874W        W91189  20.153  33.080  10.526
18875W        W91190  35.892  39.369  12.353
18876W        W91191  23.629   7.676  14.913
18877W        W91192   7.243   3.738  10.586
18878W        W91193  28.551  39.950  12.024
18879W        W91194  10.750  39.837   4.353
18880W        W91195  36.931   5.222  11.993
18881W        W91196  42.496   8.795  12.073
18882W        W91197   7.892   3.777   4.612
18883W        W91198  17.792  28.945  14.011
18884W        W91199  10.651  16.585  11.859
18885W        W91200   1.828   0.786  14.493
18886W        W91201  35.872   1.417  10.412
18887W        W91202  19.713  28.491  10.641
18888W        W91203  29.125  32.449   0.755
18889W        W91204  35.898   8.224   3.227
18890W        W91205  24.533   1.926  13.511
18891W        W91206  21.727  18.755  10.906
18892W        W91207  30.115  24.489   4.290
18893W        W91208   0.929  34.090   1.770
18894W        W91209  33.983  33.894   0.859
18895W        W91210  35.935   0.885  13.928
18896W        W91211  20.739  12.317   0.466
18897W        W91212  41.364  27.012  12.387
18898W        W91213  30.539  26.196  14.429
18899W        W91214   7.359  29.990   1.775
18900W        W91215  44.321  15.706   4.263
18901W        W91216  30.446   8.812  12.568
18902W        W91217   7.256  10.837  11.947
18903W        W91218   2.839  28.075  10.613
18904W        W91219  31.984  14.308   1.416
18905W        W91220  24.697   6.746   0.886
18906W        W91221  15.683  28.155   5.185
18907W        W91222   0.850  34.504  12.433
18908W        W91223  34.027  29.999   3.257
18909W        W91224  34.082  34.115  11.018
18910W        W91225  15.193  34.374  13.362
18911W        W91226  11.361  31.544  10.449
18912W        W91227  21.530  29.549   3.838
18913W        W91228   1.746  17.180  13.804
18914W        W91229   8.808  20.229   4.284
18915W        W91230  15.136  11.729   4.194
18916W        W91231  30.938  15.087   0.442
18917W        W91232  34.449  44.827  14.344
18918W        W91233  29.044  34.093   9.522
18919W        W91234  22.562  13.250   0.867
18920W        W91235  20.049  41.474  12.463
18921W        W91236  41.039  24.075   3.359
18922W        W91237  34.499  25.029  10.888
18923W        W91238  33.555  14.126   4.664
18924W        W91239  28.059  16.265   3.697
18925W        W91240  25.970  38.482   1.821
18926W        W91241   1.797  33.550   2.370
18927W        W91242  38.928  23.618  14.351
18928W        W91243  36.899  11.844  11.438
18929W        W91244  32.992  39.409   3.248
18930W        W91245  27.453  14.763   4.724
18931W        W91246  31.407  28.590   4.227
18932W        W91247  10.862  36.909  11.435
18933W        W91248  41.508   7.217  13.540
18934W        W91249   7.235  37.488  12.840
18935W        W91250  42.431  32.480  11.977
18936W        W91251  39.473  23.606  10.617
18937W        W91252   8.719  36.981  14.984
18938W        W91253   3.393  16.718  14.761
18939W        W91254  11.372  42.506  12.503
18940W        W91255  31.420  19.658   4.254
18941W        W91256  19.638  35.541  12.463
18942W        W91257  25.512   5.882  11.422
18943W        W91258  26.477   6.293  14.774
18944W        W91259  21.187   7.788   0.245
18945W        W91260  22.253  30.963  11.544
18946W        W91261   7.782  23.987  10.460
18947W        W91262  22.199  16.648   1.735
18948W        W91263   2.799  28.968   3.226
18949W        W91264  20.541  16.717  10.635
18950W        W91265   8.778  21.703   2.740
18951W        W91266   6.335  11.254   4.208
18952W        W91267  27.943   2.780   1.442
18953W        W91268  16.141  44.349  11.573
18954W        W91269  33.976  36.479   1.261
18955W        W91270  33.410  11.191  13.061
18956W        W91271  31.445   9.323   1.404
18957W        W91272  35.421   1.249  11.070
18958W        W91273  18.105  34.947   3.675
18959W        W91274  26.580  11.851  10.588
18960W        W91275  10.842   2.454  11.043
18961W        W91276  13.292  15.086  12.873
18962W        W91277  25.487   4.888   2.776
18963W        W91278  31.646  26.471   5.230
18964W        W91279  26.563  37.864  14.402
18965W        W91280  24.673   8.246  10.443
18966W        W91281  30.555  37.833  11.903
18967W        W91282  40.969  16.176   1.837
18968W        W91283  35.446  11.717  12.550
18969W        W91284  26.007  39.361  13.322
18970W        W91285  29.538   6.845   3.181
18971W        W91286  22.226   9.225   2.347
18972W        W91287   7.171  42.845  10.621
18973W        W91288  31.465  29.580  10.913
18974W        W91289   0.410  25.148   1.267
18975W        W91290  37.861  19.118  10.447
18976W        W91291  21.038  26.065   0.869
18977W        W91292  38.845  13.692  10.575
18978W        W91293  29.646  26.979   3.189
18979W        W91294  10.731   6.914   4.836
18980W        W91295  26.525   8.187  12.973
18981W        W91296  33.581   1.964   0.828
18982W        W91297   2.315  17.772  11.565
18983W        W91298   9.857  19.047   1.709
18984W        W91299  40.907  17.118  13.989
18985W        W91300   1.448   2.841  13.346
18986W        W91301  34.440  19.137  13.937
18987W        W91302   6.216  17.748   4.613
18988W        W91303  14.106   7.684  11.430
18989W        W91304  17.148  31.014  13.015
18990W        W91305  13.221  36.053   0.850
18991W        W91306   2.326  31.122  11.929
18992W        W91307  43.448  29.520  13.497
18993W        W91308  20.182  40.503   1.416
18994W        W91309   0.343  22.139  13.356
18995W        W91310  41.317  30.539  10.966
18996W        W91311  31.042  31.115   1.734
18997W        W91312  40.331   1.241   0.843
18998W        W91313  22.102  19.061  12.431
18999W        W91314  41.901  23.551  13.914
19000W        W91315  13.816  32.927  13.035
19001W        W91316   8.845   7.880   3.383
19002W        W91317   2.467   8.719   3.341
19003W        W91318  23.094  13.133   0.465
19004W        W91319   5.318  41.918  12.397
19005W        W91320   0.429  14.094  13.496
19006W        W91321  44.852   9.819   9.940
19007W        W91322  10.691  43.849   3.849
19008W        W91323  37.476   0.255   4.296
19009W        W91324  23.150  43.340   2.725
19010W        W91325   4.344  17.118  10.888
19011W        W91326  35.006  21.619  10.555
19012W        W91327   8.310  36.027   4.712
19013W        W91328  36.486  15.175  12.088
19014W        W91329  30.003  43.895  11.890
19015W        W91330  26.474  35.579   2.742
19016W        W91331  37.579  11.303   0.458
19017W        W91332   0.483  17.303   0.470
19018W        W91333  36.850  17.061   4.656
19019W        W91334  21.157  35.874   1.922
19020W        W91335  28.119  31.138   4.235
19021W        W91336   2.817  35.047   4.177
19022W        W91337  18.701  17.650  14.386
19023W        W91338   8.884   9.201  11.973
19024W        W91339  21.549  28.555   0.307
19025W        W91340  32.018  12.778   2.259
19026W        W91341  31.474  20.564   4.608
19027W        W91342  17.798  29.513  14.006
19028W        W91343  33.900  21.236   5.131
19029W        W91344   9.197  22.086   1.439
19030W        W91345  19.204   5.762  11.451
19031W        W91346   6.916  28.109   3.680
19032W        W91347  13.248   7.792  12.841
19033W        W91348   6.293  16.155  10.914
19034W        W91349  33.395  15.578  14.459
19035W        W91350  39.458  30.948   2.194
19036W        W91351  15.715  38.947   1.360
19037W        W91352   1.881  37.480   3.870
19038W        W91353   0.473  28.121  12.090
19039W        W91354   2.385  17.749  14.342
19040W        W91355  34.951  36.571   1.889
19041W        W91356  23.168  22.591   9.511
19042W        W91357  22.073  26.471  11.406
19043W        W91358  11.732  19.110   4.830
19044W        W91359  18.596  32.947  13.966
19045W        W91360  42.438  31.137   4.169
19046W        W91361   0.872   8.260   4.809
19047W        W91362   4.728   7.786   0.843
19048W        W91363  25.609  33.947  10.987
19049W        W91364  37.881  30.957  14.471
19050W        W91365  14.783   8.856   5.187
19051W        W91366  17.718  10.633  12.009
19052W        W91367  11.864  16.143   1.870
19053W        W91368   8.348  39.908   2.371
19054W        W91369  11.710  24.006  13.987
19055W        W91370  30.413  19.574  11.468
19056W        W91371   9.376  20.106   1.358
19057W        W91372  28.070   8.870   2.373
19058W        W91373  23.575  32.082   3.350
19059W        W91374   3.412  31.485  11.453
19060W        W91375   9.673  26.663  11.539
19061W        W91376  11.667  43.936  13.000
19062W        W91377  19.076   7.189   3.778
19063W        W91378  18.065  36.084   2.836
19064W        W91379   4.734  19.738  12.530
19065W        W91380  37.042  10.866   3.192
19066W        W91381  25.972   1.964   3.270
19067W        W91382   1.454  28.481   0.393
19068W        W91383   5.705  22.586   0.872
19069W        W91384  26.208  24.192  10.631
19070W        W91385  41.321  41.398  13.928
19071W        W91386  16.651  38.498  10.451
19072W        W91387  24.560   3.710  13.813
19073W        W91388  43.353   5.252   1.729
19074W        W91389  38.822  44.263   3.783
19075W        W91390  25.705  33.899  14.409
19076W        W91391  29.512   3.750   2.341
19077W        W91392  21.053   2.373  13.012
19078W        W91393   0.494  32.561  14.353
19079W        W91394  12.140  18.199  13.806
19080W        W91395  24.704  40.839  13.431
19081W        W91396   6.356  21.193   0.844
19082W        W91397  17.663  29.647   0.874
19083W        W91398  35.588  35.949   3.203
19084W        W91399  10.237  22.189   0.270
19085W        W91400  30.480   9.395   3.696
19086W        W91401   4.737  37.491  10.458
19087W        W91402  25.545   5.283   4.643
19088W        W91403  12.848  38.837   2.839
19089W        W91404  21.183   1.739   2.409
19090W        W91405  25.483  21.727   0.396
19091W        W91406  44.305  18.280   2.354
19092W        W91407  44.990  42.281  13.350
19093W        W91408  23.548  44.930  14.349
19094W        W91409  18.114  21.690  13.508
19095W        W91410   0.796   3.822   4.275
19096W        W91411  10.246  22.039   2.848
19097W        W91412   9.804  36.404  10.953
19098W        W91413   4.344  26.200   4.214
19099W        W91414  43.894  43.878   0.947
19100W        W91415  36.386   8.889  10.455
19101W        W91416  15.125  35.461  10.623
19102W        W91417  14.760  35.436   0.335
19103W        W91418   1.330  34.389   4.173
19104W        W91419  43.371   7.173   0.465
19105W        W91420  26.601  36.381   2.350
19106W        W91421  13.776  15.781   2.345
19107W        W91422   7.820  23.630  13.975
19108W        W91423  13.660  33.940  14.995
19109W        W91424  21.535  13.166  13.916
19110W        W91425  21.529  13.801   3.781
19111W        W91426  18.740  19.618   3.280
19112W        W91427  36.855   2.418  12.387
19113W        W91428  30.015   7.207  12.939
19114W        W91429  16.792  34.513  13.338
19115W        W91430  37.966  40.821   2.682
19116W        W91431  25.665  10.298   4.664
19117W        W91432  14.768  32.049   0.415
19118W        W91433  30.934  43.939   3.324
19119W        W91434  36.367  29.474   3.823
19120W        W91435  35.994  35.428  12.829
19121W        W91436   6.251  29.527   3.664
19122W        W91437   1.421  30.605  11.010
19123W        W91438  36.922   9.197   2.700
19124W        W91439  42.438  18.686  14.277
19125W        W91440  12.825  16.795   0.861
19126W        W91441  41.942  41.021  11.431
19127W        W91442  44.781  32.956  14.342
19128W        W91443  28.590  10.706   3.668
19129W        W91444  23.531  18.269  12.561
19130W        W91445   1.321  31.403   2.313
19131W        W91446   1.249  23.581   3.683
19132W        W91447  41.900  36.886  10.614
19133W        W91448  12.798  29.562  12.928
19134W        W91449   1.370  39.428   1.335
19135W        W91450  20.571  17.186  14.927
19136W        W91451   4.328  33.101  13.441
19137W        W91452  28.081   0.338  11.971
19138W        W91453  31.023   0.370  11.533
19139W        W91454  28.569  30.021   4.722
19140W        W91455  37.374  28.146  14.390
19141W        W91456  40.875  13.808   3.325
19142W        W91457  40.486   8.726   5.195
19143W        W91458   9.693  33.991  14.998
19144W        W91459  21.679  37.467   2.226
19145W        W91460  20.157  41.946   4.751
19146W        W91461  24.516  28.515   1.423
19147W        W91462   0.823  37.863   2.193
19148W        W91463  26.659   4.911  13.371
19149W        W91464  24.549  19.766  11.490
19150W        W91465  12.308  15.791  14.499
19151W        W91466  24.595  29.993  10.553
19152W        W91467   5.727  32.104   1.377
19153W        W91468  10.839  25.556  13.848
19154W        W91469  42.026  23.063   1.721
19155W        W91470  40.306  25.561  13.329
19156W        W91471  18.131  15.101  14.325
19157W        W91472  20.589  43.819   0.385
19158W        W91473  26.035  15.684   3.682
19159W        W91474  31.138  34.108  11.482
19160W        W91475  13.684  37.526   0.413
19161W        W91476  42.946  42.508   1.423
19162W        W91477  39.315   7.185   1.398
19163W        W91478  36.093  15.647  12.420
19164W        W91479  20.192  17.214  13.316
19165W        W91480  28.024  40.339   5.104
19166W        W91481  42.382  28.066   3.705
19167W        W91482  14.639  34.046   0.870
19168W        W91483  13.766  28.140  12.543
19169W        W91484  20.724  32.054  10.995
19170W        W91485  28.631  28.139   2.319
19171W        W91486  16.238  31.944  11.059
19172W        W91487  29.479  39.060  14.027
19173W        W91488  34.955  33.892  14.758
19174W        W91489  43.450  43.511   3.741
19175W        W91490  33.974  16.285  13.974
19176W        W91491  33.019  25.592   3.718
19177W        W91492  21.610  27.125  14.503
19178W        W91493  24.166   6.265   2.178
19179W        W91494  15.685   9.849  14.912
19180W        W91495  13.243  29.134  10.925
19181W        W91496  27.497  17.173  13.870
19182W        W91497  17.620  25.009  11.870
19183W        W91498  12.786  42.958   4.655
19184W        W91499  22.641  15.811   2.284
19185W        W91500  37.540  10.797   2.239
19186W        W91501  11.175  29.479  11.117
19187W        W91502   7.407  38.994   3.696
19188W        W91503   2.914  43.826  13.807
19189W        W91504  25.161  40.971   4.732
19190W        W91505  33.539  10.769  11.905
19191W        W91506  19.195  20.205   2.678
19192W        W91507  22.500  13.678  14.345
19193W        W91508  33.024  20.736   2.894
19194W        W91509  11.778   1.464  13.797
19195W        W91510  29.639   5.396  12.061
19196W        W91511  19.130   4.378  13.886
19197W        W91512  29.531  14.241  10.071
19198W        W91513  31.488  27.608   2.704
19199W        W91514  24.510  30.537  14.353
19200W        W91515  37.083  33.414  13.464
19201W        W91516  20.692  11.636  11.570
19202W        W91517  32.440  30.940  13.526
19203W        W91518  17.710  15.100   1.252
19204W        W91519  31.002  25.681  11.589
19205W        W91520  14.607  27.972  10.453
19206W        W91521  44.979  35.039   2.712
19207W        W91522  30.589  29.573   1.906
19208W        W91523  34.427  41.926  14.391
19209W        W91524  18.053   9.224  11.594
19210W        W91525  34.568   7.348  14.411
19211W        W91526   7.371  31.953  14.867
19212W        W91527   8.235   7.672  14.933
19213W        W91528  43.450  22.643   1.845
19214W        W91529   8.682   1.422  12.996
19215W        W91530  29.117  30.521   2.356
19216W        W91531  21.028  35.015   3.304
19217W        W91532  35.863  39.021  12.065
19218W        W91533  13.114  38.974  10.609
19219W        W91534  10.153  24.665   4.787
19220W        W91535  12.663  12.355  12.456
19221W        W91536   1.747  31.419   2.417
19222W        W91537   0.889  13.230  14.986
19223W        W91538  10.704   0.985   2.400
19224W        W91539  24.199  30.600   0.367
19225W        W91540  40.544   9.728  12.973
19226W        W91541   3.818  41.317  10.545
19227W        W91542   2.442  44.444   0.833
19228W        W91543  25.478  31.474  14.420
19229W        W91544  21.166  22.066   3.159
19230W        W91545  31.954  23.536  13.035
19231W        W91546   7.204  33.911   3.782
19232W        W91547   3.874   2.840  12.380
19233W        W91548  40.542  34.060   2.740
19234W        W91549  21.241  36.464   5.106
19235W        W91550  21.022  38.445   0.837
19236W        W91551   4.292  10.800  12.563
19237W        W91552  17.745  31.147  12.068
19238W        W91553  42.963  27.943   5.137
19239W        W91554   8.195  23.135   2.274
19240W        W91555  12.162  42.919  12.391
19241W        W91556  42.439   3.452  13.467
19242W        W91557  37.342  44.356  14.496
19243W        W91558   8.310  36.532   1.891
19244W        W91559  31.955   7.331   4.166
19245W        W91560  34.885  41.351   3.816
19246W        W91561  32.512  44.339  13.364
19247W        W91562  43.946  39.934   1.298
19248W        W91563  18.651   8.725   0.275
19249W        W91564  16.720   7.361  10.485
19250W        W91565  27.099  37.013   4.645
19251W        W91566  20.702  18.630  12.560
19252W        W91567   5.275  31.514  13.483
19253W        W91568  11.824  22.118  11.549
19254W        W91569  17.688  19.699  13.367
19255W        W91570  40.033  42.381   2.827
19256W        W91571  19.073   3.331  10.578
19257W        W91572  41.786  15.207   3.196
19258W        W91573  32.576  38.415  12.475
19259W        W91574  40.437  20.124  11.581
19260W        W91575  24.611  20.241  14.759
19261W        W91576  16.619  23.056  13.062
19262W        W91577  36.090   4.797  14.359
19263W        W91578  15.115  20.162   1.345
19264W        W91579   6.892  41.997   1.323
19265W        W91580  29.469   9.802   1.441
19266W        W91581   0.286  16.601   2.744
19267W        W91582   9.691  39.012   3.237
19268W        W91583  38.865   2.833   9.932
19269W        W91584  25.992  16.652   3.739
19270W        W91585  43.380  39.958  13.401
19271W        W91586  20.037  35.102   0.430
19272W        W91587  23.996  43.781   2.728
19273W        W91588  42.851  36.022  14.469
19274W        W91589  26.583  17.688  14.348
19275W        W91590  11.677  16.073   1.428
19276W        W91591  35.569  16.612  14.448
19277W        W91592  40.848  24.642  11.948
19278W        W91593  14.130   7.251  11.612
19279W        W91594  43.914  34.414  10.597
19280W        W91595  35.049  13.305   0.928
19281W        W91596   4.759  27.071  14.934
19282W        W91597  39.003  38.332   3.294
19283W        W91598  23.621  40.972  13.429
19284W        W91599  40.842  31.933  10.916
19285W        W91600  31.929  31.580   1.305
19286W        W91601  36.379  28.110   3.730
19287W        W91602  33.119  36.373  10.584
19288W        W91603  42.307  31.627  14.398
19289W        W91604  15.714  14.626  11.390
19290W        W91605  34.403  40.526   1.852
19291W        W91606  31.012   8.347  12.049
19292W        W91607  15.305  17.748   4.189
19293W        W91608  26.083  17.250  13.342
19294W        W91609  17.673  36.363  13.490
19295W        W91610   2.890  19.702   3.243
19296W        W91611  40.515   3.946   4.785
19297W        W91612  33.411  23.502   5.260
19298W        W91613  36.585   9.836   2.897
19299W        W91614  10.200  26.175  13.424
19300W        W91615  35.577  31.432   4.825
19301W        W91616  41.404  26.152  10.455
19302W        W91617  13.833  21.617   0.855
19303W        W91618  40.875   9.164  12.869
19304W        W91619  38.042   5.326  14.980
19305W        W91620  40.390  36.551  10.436
19306W        W91621  30.592   4.745  14.916
19307W        W91622   0.250  17.561   4.128
19308W        W91623  16.801  11.837  10.949
19309W        W91624  28.457   9.334   4.653
19310W        W91625  18.765  38.036   4.196
19311W        W91626  44.841   3.843   0.832
19312W        W91627  42.421   8.848  13.434
19313W        W91628  32.951  16.314   1.811
19314W        W91629  44.375  41.878  11.000
19315W        W91630  22.010   4.427   3.858
19316W        W91631   7.822  23.539   4.236
19317W        W91632  16.243  19.729   3.738
19318W        W91633  39.441  17.119  12.065
19319W        W91634   9.717  40.987   2.859
19320W        W91635  12.655  13.767   3.847
19321W        W91636  43.438  30.616  10.000
19322W        W91637  26.611  25.483   3.373
19323W        W91638  40.021  12.746  11.576
19324W        W91639   8.735   7.675   4.126
19325W        W91640  33.430  29.017   4.341
19326W        W91641  38.998  15.722   3.238
19327W        W91642  28.064  30.018   0.475
19328W        W91643   4.392  30.631  14.820
19329W        W91644  26.030  24.039  12.004
19330W        W91645   3.306  15.277   0.930
19331W        W91646   1.915  11.317  12.844
19332W        W91647  21.570  37.868   0.812
19333W        W91648  31.425  19.091   1.351
19334W        W91649  16.105  43.390   2.419
19335W        W91650  19.645  35.021   1.844
19336W        W91651   6.232   2.917  13.988
19337W        W91652  22.745  22.076   4.352
19338W        W91653   5.738   4.788  11.492
19339W        W91654   9.337  23.549   3.205
19340W        W91655  39.542  44.368   2.763
19341W        W91656  35.009  22.504   4.185
19342W        W91657  27.128  15.324   3.339
19343W        W91658  22.111   3.416  11.447
19344W        W91659  35.501  36.384  12.339
19345W        W91660  14.617  25.707   3.300
19346W        W91661  41.926   8.381   3.152
19347W        W91662  15.281  17.269  11.991
19348W        W91663  20.731  25.094   1.930
19349W        W91664   8.747  34.523  11.589
19350W        W91665  41.793  33.415  14.931
19351W        W91666  15.106  32.113  13.836
19352W        W91667  41.944  25.577  12.027
19353W        W91668  35.917  13.181  13.493
19354W        W91669  14.632  10.379  14.999
19355W        W91670  27.493  22.133   0.790
19356W        W91671   4.841   0.968  12.520
19357W        W91672  24.650  11.342   1.754
19358W        W91673   6.708  16.813   2.293
19359W        W91674  21.648  17.748   0.748
19360W        W91675   0.764   6.372   1.268
19361W        W91676  42.428  30.989  14.283
19362W        W91677  37.359  40.436  13.823
19363W        W91678   6.369   4.930  10.925
19364W        W91679  36.439  38.507  14.973
19365W        W91680   7.269  24.552   4.802
19366W        W91681  19.250  41.467  12.076
19367W        W91682  23.565  44.500  13.949
19368W        W91683  13.642  18.710   1.279
19369W        W91684   8.727  11.821   4.164
19370W        W91685  10.227  29.566   5.123
19371W        W91686  44.365  15.242   0.441
19372W        W91687  44.273  17.187  13.867
19373W        W91688  29.543   8.361   0.755
19374W        W91689   2.399   0.346   0.938
19375W        W91690  16.781  10.743  12.017
19376W        W91691  25.540  36.523  11.573
19377W        W91692  15.819  30.922   1.255
19378W        W91693   6.838  13.283  12.464
19379W        W91694  17.124  42.963  12.067
19380W        W91695  10.812  22.645   2.693
19381W        W91696  31.049   6.420   0.443
19382W        W91697  38.899  21.240  11.026
19383W        W91698   6.816  14.212   0.943
19384W        W91699   8.210   0.459  13.969
19385W        W91700  43.394   7.770   3.658
19386W        W91701  20.240  11.158   2.323
19387W        W91702  12.207   3.270  14.456
19388W        W91703  26.515  30.933  14.330
19389W        W91704  31.984  16.312  12.562
19390W        W91705  15.701   8.378   1.871
19391W        W91706  20.261   3.775   0.449
19392W        W91707  32.573  43.327  14.950
19393W        W91708   1.317  30.924   0.370
19394W        W91709  19.628  11.774   2.825
19395W        W91710  14.156   0.829   0.873
19396W        W91711  26.000   2.252  13.037
19397W        W91712  11.826   2.295  12.944
19398W        W91713  21.144  32.102  14.794
19399W        W91714  36.879  41.500  12.968
19400W        W91715  37.507  22.678  11.072
19401W        W91716  44.995  27.626   2.191
19402W        W91717  35.587  16.148   1.306
19403W        W91718  30.037   6.889   3.371
19404W        W91719   7.902  44.352   3.157
19405W        W91720   6.186  19.583   3.360
19406W        W91721  32.420  44.421   4.756
19407W        W91722  34.886  21.692   2.289
19408W        W91723  13.301  39.428   3.731
19409W        W91724  13.744  27.593  14.325
19410W        W91725  29.667  32.064   1.820
19411W        W91726   0.794  38.371   3.207
19412W        W91727  32.139  19.195  14.889
19413W        W91728  32.975  26.196  12.882
19414W        W91729  42.935   9.299  10.621
19415W        W91730   7.193   0.451  10.594
19416W        W91731   3.325  21.134  11.430
19417W        W91732  12.785  19.618   3.806
19418W        W91733  36.990   7.891  11.946
19419W        W91734  25.651  36.570   0.445
19420W        W91735  21.618  16.809   4.701
19421W        W91736   6.366   2.261  12.066
19422W        W91737  27.603   2.258  11.891
19423W        W91738  32.127  34.879  11.941
19424W        W91739   5.826  20.191   1.912
19425W        W91740   8.726   3.818   2.755
19426W        W91741  27.022  12.307   2.708
19427W        W91742  33.531  28.027   0.309
19428W        W91743   4.895  40.330  12.462
19429W        W91744  17.731   5.858   1.895
19430W        W91745   0.749   0.435  13.390
19431W        W91746  38.918  22.185  12.349
19432W        W91747  13.318   2.343   3.191
19433W        W91748  19.266  14.824  12.907
19434W        W91749  35.519  22.543   0.259
19435W        W91750   6.254  41.962  13.330
19436W        W91751  26.462  17.750   2.810
19437W        W91752  11.196   9.650  11.468
19438W        W91753  31.936   6.904   0.432
19439W        W91754  38.353  21.142  13.883
19440W        W91755  22.523  20.139   1.886
19441W        W91756  18.724  30.476  13.030
19442W        W91757  22.585   9.819   0.257
19443W        W91758   5.237  39.322   4.148
19444W        W91759   8.700  14.185   3.855
19445W        W91760  38.363  44.894   1.259
19446W        W91761  39.556  27.561   4.671
19447W        W91762   7.909  13.119  10.952
19448W        W91763  14.756  34.873   2.724
19449W        W91764  16.299   2.240   0.902
19450W        W91765  17.761  20.590  11.935
19451W        W91766  21.595  19.637  10.047
19452W        W91767  36.452  27.046   2.316
19453W        W91768  30.074  36.529   3.311
19454W        W91769   7.415  24.211   3.239
19455W        W91770  21.239  16.763  14.277
19456W        W91771  15.813  39.417  11.924
19457W        W91772  29.153  14.244   4.692
19458W        W91773  40.367  39.899  12.425
19459W        W91774   8.841  21.226   0.329
19460W        W91775  41.314  22.159  14.324
19461W        W91776  26.535  19.229   4.643
19462W        W91777  32.405  35.524   3.336
19463W        W91778  25.600  25.061  10.918
19464W        W91779  26.059  20.043  13.541
19465W        W91780   4.762   0.948   2.881
19466W        W91781  11.162  22.678   2.801
19467W        W91782   2.855  21.569  11.894
19468W        W91783   7.184  16.714  12.401
19469W        W91784   7.871  34.532  13.859
19470W        W91785  14.098  42.321   0.878
19471W        W91786  16.137   5.835   3.685
19472W        W91787   8.389  28.502   2.725
19473W        W91788  37.464   4.232   0.767
19474W        W91789  17.144  11.343   1.751
19475W        W91790  32.065  16.097  14.284
19476W        W91791   1.785   6.854   2.762
19477W        W91792  38.012   6.693  14.298
19478W        W91793  19.066   0.452   0.765
19479W        W91794   4.388  33.944  10.494
19480W        W91795   4.290  34.570  11.115
19481W        W91796  28.067   2.448  14.764
19482W        W91797  43.988   3.378  10.963
19483W        W91798  30.961  20.751   0.931
19484W        W91799   1.392  12.183   1.262
19485W        W91800  39.419  19.746   0.756
19486W        W91801  24.213   1.820   3.351
19487W        W91802  27.190   4.734   0.326
19488W        W91803   5.426  14.654   1.782
19489W        W91804  34.569  41.376  11.896
19490W        W91805  10.868  44.455   1.888
19491W        W91806  21.060   1.396   0.284
19492W        W91807  44.306  26.189   0.892
19493W        W91808  30.591  26.615   2.865
19494W        W91809   2.891  18.106  11.593
19495W        W91810   0.269  10.379  10.574
19496W        W91811  18.144  26.568  12.918
19497W        W91812   8.345  39.469  10.917
19498W        W91813  38.912  29.129  12.051
19499W        W91814  32.480  19.696   0.285
19500W        W91815  32.516  11.166  13.941
19501W        W91816  37.444  28.575   4.605
19502W        W91817   9.184  31.040   2.418
19503W        W91818   9.809  40.903   0.913
19504W        W91819  23.224  39.327  11.035
19505W        W91820   9.150  13.154   2.814
19506W        W91821   3.354  44.757   4.135
19507W        W91822  38.378  25.047  14.446
19508W        W91823  10.833  24.158  13.805
19509W        W91824   5.879   5.821  13.438
19510W        W91825  36.448  35.468  12.969
19511W        W91826  15.083  43.995   3.145
19512W        W91827  28.005  36.392  11.606
19513W        W91828  23.654   6.733   0.413
19514W        W91829  38.020  31.117   4.129
19515W        W91830  35.432  41.530  12.503
19516W        W91831  44.438  13.144   0.302
19517W        W91832  22.593  43.002   4.796
19518W        W91833  24.226  36.068   2.842
19519W        W91834  16.307  28.537  10.928
19520W        W91835  18.114   2.767   4.126
19521W        W91836   6.304  23.224  11.460
19522W        W91837  16.803  41.493  11.062
19523W        W91838  15.084  10.155  12.548
19524W        W91839  14.594  27.960   4.243
19525W        W91840  24.978  40.048  14.466
19526W        W91841  12.761  37.901  12.512
19527W        W91842  10.719  40.964  13.350
19528W        W91843  27.123  41.904  11.983
19529W        W91844  11.762  21.142   5.195
19530W        W91845  25.516  34.597  13.995
19531W        W91846   4.845  18.127   1.403
19532W        W91847  39.824  20.694   2.719
19533W        W91848  17.768  16.194   1.727
19534W        W91849  41.488  41.299   2.842
19535W        W91850   4.314  21.611   2.178
19536W        W91851  18.767  32.930   4.712
19537W        W91852   8.298  27.523  13.440
19538W        W91853  13.225  44.939   4.740
19539W        W91854  34.876   0.378  14.795
19540W        W91855   5.215   8.703   1.431
19541W        W91856   4.225  10.707   3.640
19542W        W91857  13.764  29.004  12.907
19543W        W91858  33.565  31.448   9.938
19544W        W91859  15.166  28.090   0.731
19545W        W91860  34.491  29.557   0.446
19546W        W91861   2.309   1.329   2.802
19547W        W91862  20.565   9.846  11.887
19548W        W91863  10.680  16.642   2.348
19549W        W91864   3.786  31.482   1.244
19550W        W91865  34.919  35.442  11.385
19551W        W91866  10.182   9.218  11.004
19552W        W91867  16.720   0.303  12.879
19553W        W91868   2.382  16.801  12.846
19554W        W91869  20.085  25.575  11.044
19555W        W91870  18.079   3.460  10.021
19556W        W91871  24.112   5.886   2.226
19557W        W91872  29.093  33.018  10.968
19558W        W91873   3.813   3.421   1.799
19559W        W91874  37.950  43.409  14.415
19560W        W91875  38.476  24.497   1.900
19561W        W91876  13.152  13.248  14.830
19562W        W91877  21.598   8.377  14.424
19563W        W91878  29.983  21.564  11.108
19564W        W91879   9.357  23.128  12.428
19565W        W91880  15.782  10.229   9.977
19566W        W91881   8.715  44.393   1.274
19567W        W91882  40.799   0.908   4.618
19568W        W91883   5.750  31.049   0.383
19569W        W91884  28.974   7.863   0.289
19570W        W91885  29.460  28.645  13.805
19571W        W91886  34.021  44.443  10.916
19572W        W91887  36.398  23.526  13.976
19573W        W91888   8.347  11.129  12.544
19574W        W91889   5.364  12.833  10.951
19575W        W91890   1.264  25.097  13.340
19576W        W91891  31.136  10.821   1.363
19577W        W91892  38.926  25.147  14.917
19578W        W91893   5.810  29.614   0.876
19579W        W91894   3.306  36.035  12.849
19580W        W91895  22.743   1.821   1.421
19581W        W91896  31.482  26.104  12.361
19582W        W91897  17.705  43.297  11.579
19583W        W91898  32.887  16.245  10.928
19584W        W91899   1.797  17.134  13.428
19585W        W91900   1.354  28.441   3.241
19586W        W91901  28.574  15.776   1.883
19587W        W91902  39.989   5.394  11.081
19588W        W91903  42.516  17.065   0.355
19589W        W91904  24.648   4.770  11.933
19590W        W91905  25.468   1.256  14.414
19591W        W91906  15.160  37.373  11.991
19592W        W91907   0.339  17.783   3.215
19593W        W91908  17.225  28.006   1.429
19594W        W91909   4.812  11.216   9.964
19595W        W91910  36.051  25.708  13.060
19596W        W91911  13.756  25.197   4.723
19597W        W91912  29.596  12.810  10.122
19598W        W91913  25.000  18.736   4.234
19599W        W91914   2.925  39.488   3.228
19600W        W91915  30.461   8.710   4.161
19601W        W91916   5.349  22.537  13.405
19602W        W91917  18.099  31.150  10.641
19603W        W91918  37.483   8.801  12.520
19604W        W91919  29.159  16.227  13.861
19605W        W91920   5.221  13.676   3.694
19606W        W91921  22.526  19.733   2.666
19607W        W91922  29.165  33.901  12.575
19608W        W91923  15.704  38.881  14.906
19609W        W91924  44.847  28.625  11.084
19610W        W91925   4.909   7.282  13.411
19611W        W91926  32.061   3.262   3.631
19612W        W91927   6.393  23.159  12.066
19613W        W91928   8.273   3.220  11.421
19614W        W91929  37.369  38.907   2.375
19615W        W91930  15.304  27.006   3.755
19616W        W91931  29.956  27.581  11.598
19617W        W91932  19.672  22.130  12.556
19618W        W91933  38.562   7.183   2.402
19619W        W91934  18.266  32.629  13.398
19620W        W91935  18.058  19.155  13.928
19621W        W91936  29.140  11.244   2.853
19622W        W91937   8.840   9.158   1.770
19623W        W91938   9.810   6.739   1.419
19624W        W91939  19.114  21.712   4.802
19625W        W91940  18.660  23.207  12.039
19626W        W91941  41.353  27.526   0.885
19627W        W91942  41.987   3.449  12.084
19628W        W91943  42.349  38.895  10.915
19629W        W91944  28.512  36.879   3.325
19630W        W91945  35.900  29.569  11.867
19631W        W91946  14.826  26.538   2.761
19632W        W91947  25.670  12.331  14.412
19633W        W91948  29.020  28.106   2.365
19634W        W91949  30.584  44.381   0.270
19635W        W91950  44.451  10.701   0.360
19636W        W91951  17.793   1.431  14.314
19637W        W91952  28.077  26.586  14.852
19638W        W91953  24.029  33.509   0.927
19639W        W91954  44.800  29.005   4.162
19640W        W91955  23.119  16.111  14.437
19641W        W91956   0.405  19.047  12.465
19642W        W91957  28.464  14.165   2.776
19643W        W91958  44.991   2.316  14.839
19644W        W91959  19.257  37.867  11.426
19645W        W91960  13.248  44.829  10.504
19646W        W91961  15.143  22.712  13.988
19647W        W91962  37.849  28.045  11.465
19648W        W91963  43.309   1.842  11.065
19649W        W91964  33.542   9.729  10.988
19650W        W91965  23.527  30.599  12.403
19651W        W91966  40.954   4.825   0.308
19652W        W91967  15.095   8.812   3.179
19653W        W91968   6.221  27.141   0.281
19654W        W91969  33.442  22.107  11.030
19655W        W91970   2.335  31.469   2.833
19656W        W91971  27.682  25.175   2.709
19657W        W91972   0.492  14.785   0.438
19658W        W91973  22.603  34.542  13.398
19659W        W91974  21.656  24.124  14.841
19660W        W91975  20.671  29.066  14.909
19661W        W91976  36.054   7.689   0.727
19662W        W91977   1.741  28.969  13.034
19663W        W91978  28.056   7.227   2.331
19664W        W91979  34.457  33.033  10.576
19665W        W91980  39.463  26.080   5.238
19666W        W91981  41.330   3.283  13.819
19667W        W91982  10.638  42.418   2.878
19668W        W91983  21.043  13.158   1.740
19669W        W91984   8.801  36.459   1.281
19670W        W91985  20.673  26.670  14.380
19671W        W91986  32.525  10.142   1.774
19672W        W91987  27.985  17.709  10.570
19673W        W91988   1.357  14.289   4.345
19674W        W91989  10.313   1.323   4.780
19675W        W91990  40.005  32.091  10.437
19676W        W91991  23.561   7.856  13.042
19677W        W91992  22.747  28.586   4.337
19678W        W91993  29.997  36.591  11.093
19679W        W91994  17.299  31.491   4.234
19680W        W91995  39.037   6.299   2.301
19681W        W91996  40.991  15.108  12.972
19682W        W91997  20.763  32.938   0.817
19683W        W91998  37.502   2.293   3.750
19684W        W91999  32.003  24.555  12.082
19685W        W92000  14.287  40.514  14.321
19686W        W92001  40.507   8.357   1.853
19687W        W92002  25.085  37.542   3.149
19688W        W92003  35.553   9.757   0.462
19689W        W92004  43.944  10.207   4.731
19690W        W92005  37.936  31.058  12.412
19691W        W92006  23.556  11.631   0.278
19692W        W92007  34.405  42.455   0.808
19693W        W92008   8.679  34.565   2.884
19694W        W92009  37.473  30.996   1.774
19695W        W92010  43.928  29.024  10.515
19696W        W92011  27.039  40.362   0.763
19697W        W92012  17.627  27.115  13.831
19698W        W92013  41.309  11.744   3.370
19699W        W92014  39.029  36.882   1.346
19700W        W92015   0.832   9.159  13.337
19701W        W92016  30.547  18.767  13.886
19702W        W92017  41.904  18.655   0.437
19703W        W92018   9.287  20.649   2.401
19704W        W92019  44.962   2.252  12.843
19705W        W92020   5.381  19.166  12.842
19706W        W92021  29.070   1.960  14.767
19707W        W92022  16.694  32.441  14.284
19708W        W92023  13.756  43.361  10.449
19709W        W92024  37.432   9.353  10.409
19710W        W92025  29.119   6.786  13.883
19711W        W92026  26.621  44.899   2.306
19712W        W92027   9.218  15.587   4.122
19713W        W92028  26.509   2.896   4.135
19714W        W92029  34.927  34.962  13.028
19715W        W92030  42.399  28.122  12.005
19716W        W92031   5.251  40.406   2.800
19717W        W92032  26.457   6.775  10.092
19718W        W92033  23.022  17.095   4.293
19719W        W92034  11.157  23.678   4.701
19720W        W92035  19.149  22.595  11.094
19721W        W92036  42.929   2.341  11.944
19722W        W92037   8.676  35.392   0.364
19723W        W92038  31.951  18.194  11.041
19724W        W92039   8.792  29.977  12.345
19725W        W92040  41.981  31.917   2.800
19726W        W92041  26.034   0.815   2.340
19727W        W92042  35.520   7.310  13.507
19728W        W92043  40.516  27.445  11.117
19729W        W92044  37.996  26.619   1.736
19730W        W92045  43.958  10.367   3.205
19731W        W92046   0.863  16.219   1.403
19732W        W92047  36.525  42.991  10.081
19733W        W92048  26.042  40.799   2.794
19734W        W92049   2.857  25.179  12.348
19735W        W92050  37.540  35.106  12.438
19736W        W92051  31.926  37.527  14.885
19737W        W92052  13.334  15.662  11.461
19738W        W92053  29.636   7.304  12.560
19739W        W92054  12.686  28.515   3.258
19740W        W92055  10.728  11.296   0.747
19741W        W92056  27.115   0.436   2.831
19742W        W92057  22.639  11.144   2.288
19743W        W92058  33.928   7.177   4.331
19744W        W92059  33.931  26.172  14.788
19745W        W92060  24.198  35.073  10.491
19746W        W92061  15.604   3.756  13.530
19747W        W92062   1.251  42.463   1.329
19748W        W92063   9.769   7.236   1.881
19749W        W92064   7.383  31.090  10.986
19750W        W92065  18.677  11.367  14.003
19751W        W92066  42.338  22.051  12.552
19752W        W92067   0.436   1.253  14.904
19753W        W92068  14.720  35.976  12.953
19754W        W92069  12.189   5.232   0.901
19755W        W92070   1.384   7.775   0.822
19756W        W92071  16.748  37.935   4.715
19757W        W92072   0.252  20.627   4.613
19758W        W92073  40.005  17.070   4.762
19759W        W92074  15.688  35.032   2.258
19760W        W92075  23.644  19.540  14.931
19761W        W92076  34.503   2.758  13.966
19762W        W92077  31.579  23.089  11.881
19763W        W92078  27.091  11.187  12.824
19764W        W92079   7.696  35.535   1.797
19765W        W92080  43.999  10.170  14.414
19766W        W92081  25.125  21.134  14.318
19767W        W92082  25.048  20.235  10.949
19768W        W92083  11.148  28.138  12.472
19769W        W92084  10.303  44.849   1.290
19770W        W92085  14.738  21.074   4.183
19771W        W92086  15.742  42.926  13.027
19772W        W92087   7.346  40.453  11.480
19773W        W92088  31.627  20.602  14.402
19774W        W92089  44.945  44.353  13.371
19775W        W92090  30.598  20.716   0.780
19776W        W92091  14.744  29.067   3.257
19777W        W92092  28.956  23.990   2.843
19778W        W92093  12.286  23.630   0.439
19779W        W92094  17.778  37.347  11.922
19780W        W92095  19.618  20.618   0.795
19781W        W92096   7.317   9.302   3.632
19782W        W92097  19.283  39.448  13.313
19783W        W92098  13.609   8.248  12.419
19784W        W92099  31.616  42.486   0.863
19785W        W92100   1.861  24.985   1.917
19786W        W92101  27.944  17.587   1.918
19787W        W92102  21.080  34.864  12.477
19788W        W92103  39.933  13.633  13.533
19789W        W92104  44.756   1.827  11.873
19790W        W92105  32.070  37.833   3.776
19791W        W92106   6.404   9.232  11.942
19792W        W92107   0.249   7.257   2.252
19793W        W92108  24.623  28.175  14.901
19794W        W92109  32.015  29.062   3.744
19795W        W92110  13.765  19.759   0.257
19796W        W92111   7.686  11.637  11.946
19797W        W92112  41.395  10.227  12.360
19798W        W92113   8.285  22.588  11.948
19799W        W92114  32.410   8.376  13.036
19800W        W92115  14.161  43.366   0.318
19801W        W92116  28.570  28.607   4.742
19802W        W92117  15.602  14.738  12.520
19803W        W92118  31.604  27.960   0.462
19804W        W92119  40.977  34.392   3.149
19805W        W92120  34.402  13.666   4.648
19806W        W92121  25.164  15.686   4.617
19807W        W92122  13.312  23.056  12.861
19808W        W92123  14.119  34.538   0.885
19809W        W92124  16.783  11.728   4.672
19810W        W92125  41.961  31.492   3.223
19811W        W92126  15.738  21.615  13.390
19812W        W92127  30.119  25.523  14.328
19813W        W92128   0.285  30.602  12.000
19814W        W92129   2.459  15.125  13.336
19815W        W92130  13.229  11.339  14.312
19816W        W92131  36.401   4.323   0.334
19817W        W92132  32.085   9.876  14.346
19818W        W92133  24.558  21.141   9.483
19819W        W92134  14.208  38.046   4.263
19820W        W92135  17.712  11.283  10.976
19821W        W92136  33.005   2.923  11.010
19822W        W92137  11.370  19.096  11.028
19823W        W92138  35.462  17.729  14.908
19824W        W92139  37.071  20.607  11.513
19825W        W92140  39.856   3.439  14.341
19826W        W92141   1.879  32.970  14.777
19827W        W92142  33.056  31.059  13.930
19828W        W92143  37.018  42.782  10.543
19829W        W92144  27.187  18.153   5.108
19830W        W92145  10.763  11.866   0.464
19831W        W92146  18.155  29.161  10.947
19832W        W92147  23.532   8.282  13.312
19833W        W92148  29.131   4.880  14.435
19834W        W92149  35.869  17.736  12.505
19835W        W92150   0.419   4.257  13.499
19836W        W92151  35.019  25.488  10.535
19837W        W92152   9.196  25.160   3.700
19838W        W92153  42.358  35.431  12.413
19839W        W92154  32.965  28.613   0.384
19840W        W92155  27.995  29.565  11.071
19841W        W92156  10.171   1.378  10.631
19842W        W92157   4.821   2.828   4.210
19843W        W92158  32.456  18.775   1.383
19844W        W92159  12.625  41.369   4.779
19845W        W92160  11.796  39.890  10.593
19846W        W92161  11.676  17.648   4.187
19847W        W92162  27.165  33.128   0.280
19848W        W92163  16.092  24.105  12.358
19849W        W92164  29.484  39.383   0.789
19850W        W92165   6.395   8.309  11.969
19851W        W92166   2.925  26.590  14.297
19852W        W92167   5.795  37.338   4.185
19853W        W92168  43.304  32.108   1.411
19854W        W92169  19.132  20.683   2.353
19855W        W92170  40.020  28.995  10.625
19856W        W92171  16.655   7.205  11.978
19857W        W92172   6.864   0.266   1.440
19858W        W92173  14.307  22.632  13.979
19859W        W92174  41.948   2.783  12.393
19860W        W92175  35.085  15.691  12.031
19861W        W92176  27.516  31.033   5.224
19862W        W92177  42.937  14.328  11.943
19863W        W92178  32.898  22.645  14.811
19864W        W92179  39.900  32.483   1.264
19865W        W92180  22.205  15.230   4.604
19866W        W92181  13.254   6.401  10.917
19867W        W92182   9.655  16.687  12.938
19868W        W92183   5.780  27.446   1.892
19869W        W92184  31.940  14.149  13.335
19870W        W92185  44.802  24.567  12.971
19871W        W92186  34.608  24.666  13.485
19872W        W92187  28.996  32.930   1.324
19873W        W92188   6.366  35.495  10.427
19874W        W92189  35.878  42.996  11.495
19875W        W92190  43.420   5.810   1.879
19876W        W92191   9.742   4.729  11.077
19877W        W92192   2.732   6.900  12.534
19878W        W92193  43.955   9.757  12.952
19879W        W92194  42.992  20.148  10.526
19880W        W92195  15.680  20.048   1.214
19881W        W92196   3.243  35.551   3.148
19882W        W92197   9.294  21.720   2.296
19883W        W92198  14.208  38.494  12.577
19884W        W92199  23.174  44.982   1.785
19885W        W92200  43.883  21.238  13.349
19886W        W92201  24.600  41.439  11.992
19887W        W92202  23.571  20.580   5.298
19888W        W92203  40.888  15.662  14.460
19889W        W92204   2.313  12.684   2.903
19890W        W92205  27.501  33.932   5.631
19891W        W92206  39.914   6.241   4.730
19892W        W92207  42.893   2.284   4.161
19893W        W92208  43.487  34.372  10.926
19894W        W92209  43.371  14.631   2.671
19895W        W92210   0.946  12.309  13.876
19896W        W92211  38.957  23.706  13.898
19897W        W92212  15.232   0.973   1.403
19898W        W92213  30.617  10.138   0.369
19899W        W92214  25.978   4.896   2.259
19900W        W92215  12.828  25.590  13.048
19901W        W92216   6.791   9.373   1.344
19902W        W92217  12.655  32.571   2.718
19903W        W92218  15.188  10.144   4.724
19904W        W92219  40.388  26.121  11.855
19905W        W92220   6.353  27.568  14.974
19906W        W92221  17.162   8.879   2.697
19907W        W92222  27.692  12.851  12.429
19908W        W92223  43.939  16.747  14.894
19909W        W92224  18.174  21.544   2.753
19910W        W92225  20.031  38.472  11.993
19911W        W92226  31.057  12.341   3.222
19912W        W92227  15.263  29.512   2.741
19913W        W92228  28.958  12.774   4.726
19914W        W92229  22.035  30.973  12.885
19915W        W92230   8.804  20.736  13.481
19916W        W92231  33.040  25.499  11.895
19917W        W92232  36.980  16.211  12.091
19918W        W92233  23.631  39.879   3.698
19919W        W92234  29.122  19.162   4.179
19920W        W92235  33.999   7.786   2.790
19921W        W92236  43.769  34.012   4.124
19922W        W92237  30.009  22.219  10.922
19923W        W92238  40.507  27.692  14.345
19924W        W92239   1.377  40.814  11.448
19925W        W92240  34.048  17.783  11.470
19926W        W92241  15.723   1.456  12.825
19927W        W92242   9.786   9.760   4.731
19928W        W92243  35.070  38.026   1.358
19929W        W92244   9.850  18.576   3.372
19930W        W92245  42.347   8.870  10.516
19931W        W92246  28.140   4.385  11.537
19932W        W92247  38.408   9.701  12.866
19933W        W92248  37.434  39.872   0.388
19934W        W92249  30.116  18.719  13.939
19935W        W92250  36.892   1.934  10.625
19936W        W92251  35.107  11.333   0.372
19937W        W92252   6.717  34.968  14.504
19938W        W92253  14.137   7.821   2.829
19939W        W92254  22.517  22.227   1.236
19940W        W92255  15.180  11.754   0.353
19941W        W92256   5.333  32.473   3.331
19942W        W92257  15.670  32.462  13.434
19943W        W92258  26.654  42.817  10.079
19944W        W92259  18.607   6.904  13.887
19945W        W92260  23.629  24.214   2.681
19946W        W92261  24.032  35.104   4.223
19947W        W92262  26.087  31.906  13.451
19948W        W92263   8.374   3.766   4.702
19949W        W92264  21.545  20.168   4.638
19950W        W92265  17.301  41.800  11.117
19951W        W92266   0.956   8.343   3.271
19952W        W92267  27.078  22.606  12.025
19953W        W92268  30.141  31.991   2.891
19954W        W92269  32.044   2.812   4.331
19955W        W92270   0.772  37.081  14.441
19956W        W92271   5.923  26.667  11.425
19957W        W92272  10.671   4.710  12.352
19958W        W92273  27.091  23.077   4.824
19959W        W92274  39.051   7.325   3.799
19960W        W92275  11.345  38.341  10.973
19961W        W92276  41.398  22.667  12.415
19962W        W92277   0.453  17.196  12.086
19963W        W92278  16.598  31.914  13.017
19964W        W92279  13.106   6.302  12.880
19965W        W92280  18.173   7.274   1.707
19966W        W92281  42.983   8.731   2.314
19967W        W92282  10.336  23.640   3.158
19968W        W92283  26.506  16.598  14.451
19969W        W92284  12.259  31.127  11.411
19970W        W92285  32.939  11.810   4.181
19971W        W92286  24.189  20.531   3.652
19972W        W92287  37.474   9.191   2.888
19973W        W92288  10.218   2.854   0.915
19974W        W92289  10.171  19.215   2.417
19975W        W92290  42.003  29.981  14.460
19976W        W92291  12.259  27.493   1.258
19977W        W92292  15.126  40.430   3.728
19978W        W92293  17.626  29.072   0.964
19979W        W92294  43.817  37.506   0.260
19980W        W92295  40.487  40.515   4.121
19981W        W92296  43.798  33.587   2.397
19982W        W92297  20.681   0.394   3.848
19983W        W92298  12.825  13.329   1.263
19984W        W92299  35.901  41.860  12.064
19985W        W92300  41.896  42.303   3.666
19986W        W92301  11.854  21.167  13.502
19987W        W92302  34.104   4.715  13.422
19988W        W92303   4.347  43.480   4.821
19989W        W92304  42.800  14.192   1.795
19990W        W92305  29.162  22.558   0.933
19991W        W92306  19.238  24.691   2.197
19992W        W92307  26.980  36.904   3.383
19993W        W92308  19.239  42.507  12.927
19994W        W92309   6.387  33.619  14.413
19995W        W92310  42.818  20.601   3.857
19996W        W92311  41.980   6.907   3.251
19997W        W92312  23.038  32.635   1.240
19998W        W92313  20.260  13.327  13.359
19999W        W92314  21.626  11.260  11.035
20000W        W92315   7.690  20.664   4.211
20001W        W92316  24.174  27.181  14.917
20002W        W92317  42.307  13.676   4.304
20003W        W92318   7.359  35.948   1.758
20004W        W92319  24.136  16.755  14.914
20005W        W92320  18.573  29.663  12.986
20006W        W92321   9.707  16.763  10.049
20007W        W92322  10.178   6.278   1.879
20008W        W92323  38.395   2.393   0.422
20009W        W92324  42.974  14.785  10.473
20010W        W92325  29.122  11.823  14.926
20011W        W92326   3.343  44.847  14.352
20012W        W92327  16.097   5.282   0.900
20013W        W92328  36.951  30.460  12.343
20014W        W92329   9.173  14.598   1.407
20015W        W92330  33.516  21.511   3.171
20016W        W92331  12.258  18.199   0.291
20017W        W92332  42.957  25.167   3.769
20018W        W92333   8.257   7.822   1.853
20019W        W92334  25.522  17.603   0.729
20020W        W92335  12.116  30.457   4.638
20021W        W92336  16.681   8.835   3.355
20022W        W92337  15.218   8.293   4.113
20023W        W92338  25.154  28.517  13.375
20024W        W92339  26.578  42.943  13.054
20025W        W92340  21.736  39.413   3.711
20026W        W92341  32.611  29.093   1.292
20027W        W92342   9.720  40.907  12.023
20028W        W92343   7.283  38.012   3.785
20029W        W92344  14.138   6.414   1.257
20030W        W92345  30.507  28.010  13.025
20031W        W92346   8.307   1.926   2.740
20032W        W92347  41.886  29.159   3.354
20033W        W92348  11.742  12.812   3.633
20034W        W92349  21.571  29.583   2.865
20035W        W92350  15.193  36.546  11.433
20036W        W92351  36.423  21.545   4.787
20037W        W92352  38.997  39.435  13.063
20038W        W92353  37.379  14.622  14.414
20039W        W92354  32.904   6.873  11.384
20040W        W92355  42.336  22.505   4.227
20041W        W92356  14.639  25.591   0.803
20042W        W92357  39.330  16.672  12.385
20043W        W92358  32.429  15.622   3.750
20044W        W92359  37.999  25.215  14.324
20045W        W92360  33.470  28.617  12.078
20046W        W92361  32.051  29.657   5.249
20047W        W92362  41.913  32.077  12.447
20048W        W92363   3.864  25.626  13.364
20049W        W92364  42.863  27.028  13.001
20050W        W92365  20.528  44.884   0.394
20051W        W92366   4.257  25.198  11.069
20052W        W92367  24.517  12.619   1.809
20053W        W92368  32.453  32.535   2.305
20054W        W92369  19.269  27.057  14.482
20055W        W92370   9.251  23.526  13.532
20056W        W92371  30.054  12.172  13.536
20057W        W92372  15.255  11.365  14.003
20058W        W92373  15.753  39.980  12.366
20059W        W92374   3.855  18.781   0.280
20060W        W92375  17.133   3.928   2.803
20061W        W92376  13.677   3.223  14.449
20062W        W92377  10.662  18.605  14.947
20063W        W92378   3.397  20.237  12.507
20064W        W92379  16.573  28.000  10.961
20065W        W92380   0.415  27.517   2.819
20066W        W92381  28.080   5.359  14.016
20067W        W92382  23.142  23.535  14.440
20068W        W92383  34.922  36.862   3.700
20069W        W92384   9.355  33.457   3.643
20070W        W92385  44.900  28.501   3.734
20071W        W92386  38.068  30.532  11.473
20072W        W92387  29.051  24.037   3.755
20073W        W92388  34.597  10.730   0.467
20074W        W92389  35.862  37.890  12.879
20075W        W92390  19.560   3.397  10.462
20076W        W92391  34.070  27.197   2.764
20077W        W92392   7.896  35.058  14.992
20078W        W92393  18.144  41.329  11.001
20079W        W92394  26.016  32.083   1.247
20080W        W92395  28.505  40.310   2.791
20081W        W92396  18.572  18.552   1.753
20082W        W92397   0.292   3.884  10.952
20083W        W92398  19.704   5.337  12.372
20084W        W92399   5.219  38.504   3.709
20085W        W92400  20.099  29.574   1.365
20086W        W92401  41.493  38.883  10.972
20087W        W92402  11.828  35.962   2.732
20088W        W92403   7.755   3.298   3.147
20089W        W92404  32.018   3.343   2.397
20090W        W92405  32.066  34.918   4.199
20091W        W92406  14.252  41.378   2.757
20092W        W92407  22.707  24.990   4.715
20093W        W92408  41.376  26.596   0.468
20094W        W92409  36.954  30.443  11.953
20095W        W92410   4.794  31.939  13.324
20096W        W92411   2.463  21.755   2.218
20097W        W92412   6.821   5.717  13.473
20098W        W92413  24.062   7.256  12.534
20099W        W92414  15.254  18.133  11.923
20100W        W92415  32.105   2.333   4.309
20101W        W92416   5.922  42.364   3.310
20102W        W92417  22.224   9.822   2.418
20103W        W92418  40.519   8.822   0.280
20104W        W92419  20.139  42.487  11.951
20105W        W92420  31.095  39.409   2.237
20106W        W92421  37.990  34.092  13.455
20107W        W92422  44.008  22.082  13.458
20108W        W92423  44.856  26.519   3.321
20109W        W92424   4.777  14.317   4.130
20110W        W92425  25.108  28.598  14.927
20111W        W92426  38.063  21.532   0.364
20112W        W92427   6.236  28.979   0.847
20113W        W92428   8.294  43.442   4.325
20114W        W92429  21.210   8.262  13.966
20115W        W92430   9.157  33.520  10.149
20116W        W92431   1.868  18.237   1.306
20117W        W92432   7.229   6.731   4.616
20118W        W92433  10.784  29.015   1.748
20119W        W92434  20.601  35.953   0.466
20120W        W92435  11.331  26.078   3.351
20121W        W92436  27.516  35.568   1.906
20122W        W92437   9.875  26.131  12.530
20123W        W92438  26.067   0.327  14.761
20124W        W92439  34.924  10.379   2.311
20125W        W92440  28.935  30.912   1.733
20126W        W92441  37.383  18.145  13.954
20127W        W92442  34.601  11.809   1.792
20128W        W92443   9.155  11.339   4.647
20129W        W92444  35.404   9.801  14.841
20130W        W92445  34.967  33.472  11.478
20131W        W92446  36.573  33.117   3.785
20132W        W92447   3.825  11.255   1.445
20133W        W92448  36.433  28.508   2.779
20134W        W92449  25.515  19.103  10.573
20135W        W92450  36.996  22.649  10.564
20136W        W92451  15.164  23.062  13.404
20137W        W92452  25.702  34.451   2.687
20138W        W92453  34.090   9.758  13.835
20139W        W92454  23.096  43.015   3.384
20140W        W92455   0.884  26.197  12.980
20141W        W92456  32.102  38.547   0.921
20142W        W92457   9.792  25.686   3.667
20143W        W92458  12.773  23.592   0.413
20144W        W92459  12.707   2.889   1.341
20145W        W92460  20.090  38.839   3.283
20146W        W92461  10.682  14.656  11.039
20147W        W92462   6.296   5.862  10.420
20148W        W92463  40.350  36.396  12.532
20149W        W92464  32.143   0.920  13.534
20150W        W92465  35.360  20.203  10.949
20151W        W92466   9.780  19.146  10.098
20152W        W92467  30.111   7.781   2.408
20153W        W92468  40.348  35.998  11.097
20154W        W92469  23.546  36.565  11.546
20155W        W92470  24.099  38.828   4.204
20156W        W92471  27.995  22.606   3.782
20157W        W92472  34.993  37.018  14.788
20158W        W92473  15.781  13.148  11.561
20159W        W92474  22.704   8.329  11.098
20160W        W92475   0.268   3.318  10.912
20161W        W92476  20.766  41.894   4.739
20162W        W92477  30.977  43.469   0.908
20163W        W92478  38.538  11.359   0.858
20164W        W92479  19.688   7.872   4.606
20165W        W92480  26.545  42.506   0.770
20166W        W92481  17.603  26.203   3.840
20167W        W92482   6.263  25.607  14.843
20168W        W92483  16.714  38.401   2.753
20169W        W92484   6.308  29.476   4.269
20170W        W92485  16.690   6.206  10.422
20171W        W92486   0.401  17.097  12.578
20172W        W92487  44.328  16.743   3.831
20173W        W92488  43.282   6.858  13.861
20174W        W92489  34.953   8.824  14.307
20175W        W92490  14.669  16.156  14.487
20176W        W92491  41.467  16.697   3.649
20177W        W92492  11.667  29.128   1.768
20178W        W92493   9.828  12.634   0.730
20179W        W92494   9.375  39.019  12.471
20180W        W92495  26.535  20.694   3.284
20181W        W92496  40.361  11.161   1.433
20182W        W92497  18.753  18.616  13.921
20183W        W92498  10.304  19.093  13.960
20184W        W92499  42.881  33.546  13.811
20185W        W92500  32.471  39.050   0.360
20186W        W92501  17.274  29.476   2.886
20187W        W92502  29.983  30.918   2.195
20188W        W92503   1.769   6.750  13.810
20189W        W92504  16.312   2.963  12.407
20190W        W92505  20.238  10.787   3.795
20191W        W92506  14.719  22.229  13.857
20192W        W92507   8.733  12.693  12.996
20193W        W92508  39.000   7.398  13.816
20194W        W92509  34.587  21.133   5.239
20195W        W92510  12.631  42.777   2.414
20196W        W92511  30.478  23.711  14.484
20197W        W92512  24.685  30.624  14.020
20198W        W92513  18.664   3.231   3.310
20199W        W92514  35.916  17.666   3.836
20200W        W92515  39.018  39.370   3.847
20201W        W92516  17.769  33.035   4.633
20202W        W92517   2.728  35.044   0.828
20203W        W92518  14.671  23.511  12.531
20204W        W92519   7.696  15.298  10.445
20205W        W92520  41.891  17.235  14.508
20206W        W92521  23.552  14.591   4.733
20207W        W92522   6.288   6.330  12.480
20208W        W92523   3.241   8.370  13.971
20209W        W92524  28.976  40.975   0.376
20210W        W92525  12.210  11.684  14.792
20211W        W92526   5.304   1.741  10.570
20212W        W92527  37.547  17.706   2.225
20213W        W92528  18.111  17.188   2.811
20214W        W92529  28.498  32.949  13.866
20215W        W92530  10.159  19.082   2.820
20216W        W92531  21.024  44.441   1.240
20217W        W92532  26.602  25.037  12.398
20218W        W92533  36.571  41.875  10.958
20219W        W92534   7.898  22.105   3.332
20220W        W92535  10.169  26.073  14.888
20221W        W92536   0.907  42.031   3.793
20222W        W92537  43.945  22.050   1.742
20223W        W92538  37.997  39.496   0.742
20224W        W92539  31.961  42.882  13.398
20225W        W92540  30.971   5.815   0.427
20226W        W92541  24.222  16.648  12.572
20227W        W92542  40.927   2.923  10.410
20228W        W92543  26.493  43.466  10.437
20229W        W92544  20.092  37.992   3.216
20230W        W92545  44.425  27.632   9.924
20231W        W92546   9.769  37.087  12.526
20232W        W92547  41.403   1.283   3.726
20233W        W92548  18.611  34.066   2.339
20234W        W92549  44.418  44.935   4.622
20235W        W92550  13.843  28.575   1.856
20236W        W92551  18.072  15.603  12.521
20237W        W92552  33.131  30.569   3.271
20238W        W92553  17.149  40.516   9.582
20239W        W92554  10.332  43.836  12.996
20240W        W92555   3.359   7.313  14.461
20241W        W92556   9.874  21.247  14.933
20242W        W92557  43.992  43.428   1.761
20243W        W92558  29.561  40.025  13.397
20244W        W92559  18.640  17.598   4.115
20245W        W92560  38.852  33.506   1.217
20246W        W92561  43.426   5.689   4.798
20247W        W92562  23.154  33.451   3.240
20248W        W92563  20.601   1.273   4.746
20249W        W92564  13.261   4.723   0.421
20250W        W92565   4.836   5.348  12.431
20251W        W92566   8.714   5.219  12.976
20252W        W92567  20.720  16.783  12.096
20253W        W92568  21.691  29.999  12.385
20254W        W92569  25.674  33.547   1.354
20255W        W92570   7.869  16.295  14.789
20256W        W92571  24.981  29.116   2.374
20257W        W92572  37.546  29.944   0.740
20258W        W92573  41.511   9.738  12.054
20259W        W92574  31.934  12.753  11.989
20260W        W92575  22.095  41.922  11.025
20261W        W92576  32.973  35.549  12.570
20262W        W92577  11.753  18.199  12.042
20263W        W92578  32.129  19.543   9.957
20264W        W92579  29.001  25.095   3.682
20265W        W92580  20.583  35.460   4.233
20266W        W92581  11.710  10.343   4.638
20267W        W92582   0.962  11.856  14.949
20268W        W92583  43.410  14.268   4.301
20269W        W92584  17.643  32.935   2.371
20270W        W92585   2.363  23.552   2.312
20271W        W92586  43.870   6.743  12.934
20272W        W92587  32.031  31.060  10.414
20273W        W92588  38.008  35.103  14.903
20274W        W92589  25.113   6.815  10.586
20275W        W92590  42.966  19.061   1.854
20276W        W92591  28.983  19.765   3.762
20277W        W92592  42.839   2.285  13.862
20278W        W92593   6.336  17.286  10.078
20279W        W92594  30.909  20.093  10.584
20280W        W92595  24.588  19.764   3.630
20281W        W92596   1.771  22.652  14.852
20282W        W92597  19.687  19.098  11.448
20283W        W92598  20.211  11.274   1.400
20284W        W92599  14.718  36.591   3.840
20285W        W92600   5.280  37.547  13.796
20286W        W92601  24.639  14.659   2.896
20287W        W92602  17.074  32.457   1.256
20288W        W92603  16.142   0.964  11.507
20289W        W92604  16.590  41.030  13.546
20290W        W92605  42.394   3.897  11.043
20291W        W92606  18.245  42.979  11.018
20292W        W92607  42.318  15.145   4.831
20293W        W92608   8.312  43.439   4.786
20294W        W92609  24.016  41.416   0.809
20295W        W92610  41.528   2.332  12.948
20296W        W92611  23.577   9.239   3.722
20297W        W92612  14.284   6.842  14.822
20298W        W92613  12.276  38.056  10.924
20299W        W92614  24.633   4.253   1.345
20300W        W92615   9.348   2.950   0.340
20301W        W92616  44.854  13.706  12.088
20302W        W92617   0.347   4.832   3.180
20303W        W92618   4.251  39.410   3.386
20304W        W92619  43.275   0.272   2.843
20305W        W92620  20.575  26.995   1.417
20306W        W92621  17.209   3.763   0.323
20307W        W92622  16.090  24.227   0.281
20308W        W92623  14.753   9.238   3.633
20309W        W92624  22.020   4.858  14.284
20310W        W92625  14.828  21.656  14.858
20311W        W92626   4.348  32.494  11.087
20312W        W92627   8.763  19.656   0.264
20313W        W92628  35.939  40.937  13.029
20314W        W92629  39.375  41.833  10.938
20315W        W92630  23.648  28.030  11.085
20316W        W92631  25.148  30.491  11.975
20317W        W92632  16.711   0.406  14.824
20318W        W92633  29.432  41.311   1.744
20319W        W92634  28.930  16.301  12.515
20320W        W92635  14.783  39.021   4.226
20321W        W92636  40.895  28.521  12.495
20322W        W92637  37.403   9.319   2.306
20323W        W92638   1.428  16.306  12.016
20324W        W92639  40.412  14.618  10.941
20325W        W92640   1.818  17.756  14.440
20326W        W92641  10.348  41.907  10.448
20327W        W92642  42.418  41.005  10.430
20328W        W92643  44.788  13.313  12.039
20329W        W92644   5.873  32.422  13.538
20330W        W92645  39.057   1.859  12.576
20331W        W92646  34.574  17.220  11.068
20332W        W92647   5.753   6.289  13.024
20333W        W92648  25.049  40.345   4.707
20334W        W92649   0.310  25.213   3.763
20335W        W92650   7.367  11.280  13.813
20336W        W92651  23.165   3.449  13.026
20337W        W92652  21.642   1.806   5.297
20338W        W92653  17.788  28.565   3.786
20339W        W92654  16.744  36.478  11.961
20340W        W92655  44.763  18.691  14.366
20341W        W92656   7.862  41.873  10.977
20342W        W92657  23.027  32.067  14.968
20343W        W92658  23.621  27.587  13.480
20344W        W92659  29.118  27.112  11.956
20345W        W92660  30.470  28.678  12.997
20346W        W92661  43.000   2.933   1.890
20347W        W92662  17.676  36.016  11.935
20348W        W92663   3.222  18.093   1.389
20349W        W92664  40.886  26.607   2.357
20350W        W92665  13.767  40.924   1.765
20351W        W92666  21.195  38.531  12.344
20352W        W92667  21.658   0.951   3.294
20353W        W92668  21.166  34.592  11.501
20354W        W92669  28.040  39.320  13.935
20355W        W92670   3.227  40.884  12.925
20356W        W92671  34.071  18.717  14.012
20357W        W92672   1.299  35.450  12.849
20358W        W92673  15.695   1.364   3.658
20359W        W92674  27.971  39.988  12.050
20360W        W92675  24.979  37.525  14.370
20361W        W92676  22.549  24.695   1.305
20362W        W92677  10.747  17.661  11.433
20363W        W92678   9.228  26.472   3.806
20364W        W92679  23.629  36.419  12.009
20365W        W92680   6.847   0.802   4.190
20366W        W92681  39.395  13.788   1.289
20367W        W92682  40.406  31.423  13.874
20368W        W92683  43.436  28.073   1.852
20369W        W92684   0.918  40.020   1.756
20370W        W92685   2.771  12.692   3.289
20371W        W92686  17.268  20.185  10.933
20372W        W92687  40.923  44.405   4.822
20373W        W92688  36.921   2.326  14.761
20374W        W92689  18.709  28.514  10.487
20375W        W92690   2.964  38.886  12.027
20376W        W92691   1.743  24.547  14.802
20377W        W92692  23.166  38.845   1.259
20378W        W92693  37.515  23.063  14.973
20379W        W92694   7.779   4.205  12.524
20380W        W92695  12.777  44.434  12.543
20381W        W92696  43.368  13.329  11.558
20382W        W92697  28.607   4.353  10.529
20383W        W92698  23.603  20.189  13.790
20384W        W92699  32.405  34.901   1.438
20385W        W92700  23.515  32.478   1.405
20386W        W92701  43.389  19.158  13.981
20387W        W92702   2.312  43.967   0.752
20388W        W92703  31.635   6.400  14.502
20389W        W92704  11.211  28.130  10.991
20390W        W92705  44.009  12.259  11.527
20391W        W92706  22.620  14.776  13.853
20392W        W92707  12.295  30.568   1.721
20393W        W92708  19.623  18.681   1.913
20394W        W92709   4.408  32.449  14.399
20395W        W92710  18.661   8.241   9.489
20396W        W92711   0.379   5.426   1.298
20397W        W92712  43.412  29.558   4.684
20398W        W92713  37.498  25.607  13.466
20399W        W92714  42.366  27.009  10.639
20400W        W92715  26.958  20.748   3.842
20401W        W92716  14.805  24.605  11.868
20402W        W92717   6.915  33.078  12.054
20403W        W92718  44.846  36.902   2.216
20404W        W92719  35.969   6.813  13.049
20405W        W92720  27.473   2.427  11.004
20406W        W92721  11.680  44.827   4.631
20407W        W92722  23.171  10.634   3.239
20408W        W92723   2.763  24.538   0.419
20409W        W92724   0.816  27.674  11.932
20410W        W92725  15.778  10.184  11.562
20411W        W92726  29.004  36.362   4.256
20412W        W92727  40.883  35.593   4.680
20413W        W92728  34.588  23.220   0.804
20414W        W92729  43.835   7.321   2.366
20415W        W92730   8.289  30.598   0.907
20416W        W92731  41.363  43.915   3.222
20417W        W92732  35.941   3.419   4.735
20418W        W92733  29.961  10.364  12.399
20419W        W92734  28.467   2.353   2.355
20420W        W92735  42.407   6.753   1.372
20421W        W92736   9.249  36.360  13.935
20422W        W92737  41.395  26.614   3.787
20423W        W92738  24.592  25.533   1.352
20424W        W92739  23.009  33.962  13.383
20425W        W92740  29.149  37.957   1.834
20426W        W92741   2.457  15.133   1.226
20427W        W92742  36.519  17.289  10.531
20428W        W92743   6.857  12.175  10.995
20429W        W92744  36.592  28.645  12.089
20430W        W92745   4.844  10.204  13.521
20431W        W92746   4.262  20.036   2.383
20432W        W92747  30.619   7.889  11.547
20433W        W92748   4.259  40.371  10.414
20434W        W92749  33.615  21.199   3.742
20435W        W92750  34.059  22.503   2.837
20436W        W92751  31.420  25.138  12.445
20437W        W92752  14.746  40.803  13.020
20438W        W92753   7.680   3.253   0.907
20439W        W92754  18.292  25.666   0.814
20440W        W92755  13.252  22.565   0.396
20441W        W92756  31.474   3.437  14.957
20442W        W92757   9.303  39.362   2.770
20443W        W92758  30.135  19.071  14.341
20444W        W92759  15.124  20.076   0.787
20445W        W92760  22.043  32.973   0.367
20446W        W92761  40.047  34.104  14.454
20447W        W92762  38.873  43.819   0.729
20448W        W92763  22.591  30.594   0.257
20449W        W92764   6.411  27.448   4.783
20450W        W92765  35.425  35.998  13.470
20451W        W92766   7.322  26.613  11.089
20452W        W92767  29.127  19.715  12.517
20453W        W92768  18.663  42.326   0.367
20454W        W92769  19.592  38.353   1.322
20455W        W92770  41.959  28.086  10.602
20456W        W92771  16.697  29.033  13.925
20457W        W92772  41.023  22.072  13.921
20458W        W92773  41.328  33.507  11.441
20459W        W92774   9.877  43.327   0.472
20460W        W92775   7.184  21.625   0.841
20461W        W92776   7.758   3.307   0.311
20462W        W92777  20.601  19.581  14.335
20463W        W92778   0.459  11.368  10.056
20464W        W92779   1.859  35.856   5.695
20465W        W92780  29.496  35.862   0.368
20466W        W92781  30.124  44.908   3.705
20467W        W92782   7.745  22.577  13.487
20468W        W92783  44.841  28.646   2.901
20469W        W92784  30.435  20.200   3.836
20470W        W92785  33.006  34.385   3.229
20471W        W92786  33.466  20.630  14.433
20472W        W92787  25.687  23.643  10.425
20473W        W92788  38.036  44.292   1.765
20474W        W92789  23.144   8.872  10.922
20475W        W92790  30.068   0.435  12.537
20476W        W92791  22.520  10.384  13.031
20477W        W92792  28.977  32.044   1.388
20478W        W92793   6.414  30.621   0.394
20479W        W92794  37.567  36.414   0.444
20480W        W92795  44.998  36.435   1.265
20481W        W92796  28.129  11.844  13.025
20482W        W92797  42.392  22.520   3.730
20483W        W92798  22.700  28.536  13.026
20484W        W92799  23.131  40.522  11.907
20485W        W92800  17.117  17.682   2.392
20486W        W92801  32.082  41.985   3.734
20487W        W92802  20.707   5.306   1.787
20488W        W92803   0.334  22.218   2.419
20489W        W92804  24.061  41.440   2.263
20490W        W92805   6.784   2.462  12.460
20491W        W92806  24.483  43.287  13.992
20492W        W92807  40.360  15.240  11.470
20493W        W92808  24.053  44.360   1.931
20494W        W92809  19.049  27.496  11.432
20495W        W92810  44.273  24.536   3.381
20496W        W92811   8.290  24.158   2.412
20497W        W92812  19.673  29.950   2.708
20498W        W92813  13.690  28.006  10.490
20499W        W92814  22.534  27.006   1.813
20500W        W92815  38.327  22.624  11.448
20501W        W92816  25.594   7.734   0.364
20502W        W92817  42.966   9.276   0.860
20503W        W92818  29.526  29.997   2.250
20504W        W92819  25.695  14.694   1.397
20505W        W92820  20.588  42.307  10.516
20506W        W92821  42.331  44.962   3.292
20507W        W92822  31.984  32.932  13.816
20508W        W92823  41.940   1.244   1.728
20509W        W92824  11.688  24.583   3.146
20510W        W92825  34.374  24.108  12.532
20511W        W92826  37.896   2.901   0.430
20512W        W92827  19.633  28.076   5.285
20513W        W92828  37.400  13.844   1.240
20514W        W92829  33.470  30.567   1.221
20515W        W92830   2.787  44.814   4.611
20516W        W92831  41.351  28.133   2.804
20517W        W92832  38.511   9.705  13.379
20518W        W92833   5.342   1.390  13.498
20519W        W92834  26.552  24.679  13.837
20520W        W92835   0.861  10.195  13.348
20521W        W92836  29.469  20.097   4.804
20522W        W92837  28.107  21.652  14.469
20523W        W92838  25.706  14.731  10.987
20524W        W92839   6.255  33.380  12.431
20525W        W92840  30.462  22.061  14.927
20526W        W92841  27.081  43.412  13.379
20527W        W92842  24.565  42.392   4.810
20528W        W92843  22.638  34.407   1.736
20529W        W92844  19.151   9.326   1.215
20530W        W92845  26.146  15.325   1.404
20531W        W92846   0.900   2.954  10.562
20532W        W92847  35.101  29.504   3.150
20533W        W92848  31.644  37.336   4.818
20534W        W92849  12.808  18.064   3.217
20535W        W92850  25.590  39.938  10.971
20536W        W92851  38.023  27.087  14.442
20537W        W92852  18.738  35.917  14.817
20538W        W92853   0.785   2.462  13.841
20539W        W92854   3.748  21.026  12.511
20540W        W92855  11.748  10.368  10.615
20541W        W92856  10.236  39.497   2.811
20542W        W92857   6.427  39.542  10.560
20543W        W92858   2.417  29.005   3.839
20544W        W92859  24.101  29.036   4.261
20545W        W92860  34.373  20.154  12.460
20546W        W92861  42.485   9.338  12.910
20547W        W92862  14.159   6.689   2.327
20548W        W92863  33.506  16.260  11.393
20549W        W92864  20.186  29.109   4.655
20550W        W92865  41.819   1.749   4.162
20551W        W92866  24.666  32.069  14.955
20552W        W92867  20.108  25.491   3.747
20553W        W92868  35.525  33.584   4.227
20554W        W92869  37.063   3.864  14.457
20555W        W92870  37.977  41.833  14.815
20556W        W92871  40.051  40.969   0.339
20557W        W92872  10.783   3.307  13.040
20558W        W92873  35.037  25.693   4.638
20559W        W92874   5.200  44.822  12.921
20560W        W92875   1.883  21.579  14.015
20561W        W92876  27.616  33.463  13.504
20562W        W92877  19.673  32.508   0.960
20563W        W92878  42.497  32.426   0.775
20564W        W92879  23.196  42.368   0.248
20565W        W92880  32.632  37.469   4.269
20566W        W92881  35.958   3.722  14.929
20567W        W92882  25.517  15.580  14.377
20568W        W92883  27.654  21.633  13.903
20569W        W92884  13.719  10.381   2.785
20570W        W92885  16.193   1.931  13.361
20571W        W92886   5.228  20.230  14.292
20572W        W92887   0.391  25.472  12.952
20573W        W92888   4.420  10.707   2.689
20574W        W92889  22.080   8.253  11.878
20575W        W92890  38.493  39.460   0.852
20576W        W92891  37.492  41.884  12.962
20577W        W92892   4.424  13.295  11.970
20578W        W92893   4.722  26.992  10.023
20579W        W92894  44.937   6.818  11.551
20580W        W92895   9.206  27.475  13.049
20581W        W92896  31.988  16.284  11.100
20582W        W92897  28.016   1.401  10.926
20583W        W92898  25.712  22.684   2.699
20584W        W92899  18.686   5.253   3.348
20585W        W92900  44.843  43.823   2.887
20586W        W92901  35.364   3.739   1.916
20587W        W92902  36.953   9.373   0.826
20588W        W92903  24.082  22.507   1.858
20589W        W92904   3.832  42.844  12.002
20590W        W92905  26.673  28.138   4.331
20591W        W92906  42.834   5.828  12.058
20592W        W92907  37.464  44.284  14.781
20593W        W92908  44.818  34.437   1.877
20594W        W92909  17.233  12.264   1.263
20595W        W92910  30.647  31.931  10.621
20596W        W92911  39.921  30.486  14.842
20597W        W92912  24.226  19.622  11.986
20598W        W92913  42.493  41.337   1.342
20599W        W92914  34.017  13.755  11.115
20600W        W92915  16.639   3.233   3.749
20601W        W92916  25.519  44.009   3.370
20602W        W92917  41.787  20.091  14.769
20603W        W92918   5.846  32.412  12.031
20604W        W92919  34.882  43.877   1.262
20605W        W92920  31.071  31.941  13.057
20606W        W92921  14.338   9.869  13.428
20607W        W92922  41.421  36.437   1.929
20608W        W92923   0.349  21.664   4.302
20609W        W92924  11.852  22.699   2.662
20610W        W92925  15.596  15.169  14.331
20611W        W92926  40.424  42.384  12.455
20612W        W92927  41.029  37.990   0.886
20613W        W92928  31.979   0.828  10.944
20614W        W92929  12.811   5.922   3.284
20615W        W92930   8.870  35.873   1.232
20616W        W92931  44.877  31.503  14.840
20617W        W92932  28.525  38.037  12.425
20618W        W92933  17.139  16.087   0.910
20619W        W92934  13.131   1.436   2.811
20620W        W92935  16.761  12.681  11.047
20621W        W92936  31.108   9.197  14.277
20622W        W92937  40.437   8.337   0.932
20623W        W92938  18.593  29.932   5.234
20624W        W92939  22.743  42.857   0.740
20625W        W92940  40.484  35.070  13.898
20626W        W92941  33.490  14.763   0.841
20627W        W92942   6.827  29.555   1.258
20628W        W92943  36.534   7.869  13.860
20629W        W92944  17.292   9.214   4.168
20630W        W92945  13.743   0.422  11.438
20631W        W92946  34.939   3.330   1.868
20632W        W92947  36.864  24.145  10.588
20633W        W92948  41.411  37.489  12.548
20634W        W92949  28.518  13.753   3.173
20635W        W92950  17.091  14.097  12.453
20636W        W92951  23.534  10.339   2.903
20637W        W92952  38.931  15.658   0.384
20638W        W92953  27.948   1.434  10.491
20639W        W92954  36.010  14.304  11.457
20640W        W92955   0.343  40.549   3.750
20641W        W92956  28.004  12.834  13.877
20642W        W92957  22.219  25.510  12.862
20643W        W92958   3.953  11.314  12.859
20644W        W92959   6.843  28.995   4.733
20645W        W92960  40.449  28.445  11.595
20646W        W92961  36.847   7.811   2.761
20647W        W92962  25.166  11.854   1.858
20648W        W92963  13.150  29.990  12.953
20649W        W92964  37.358  41.864  13.879
20650W        W92965   6.678  29.557   2.253
20651W        W92966  21.737  20.116  10.022
20652W        W92967  18.711  21.087  10.126
20653W        W92968  38.850  18.118  14.368
20654W        W92969   1.249  22.036  11.114
20655W        W92970  20.691  33.991  13.504
20656W        W92971  36.079   7.764   0.400
20657W        W92972  16.314  16.638  12.012
20658W        W92973  23.135  20.208  13.361
20659W        W92974   3.742   9.785   0.410
20660W        W92975   0.356  23.195   4.155
20661W        W92976  12.744  24.550  12.460
20662W        W92977  32.982   6.367   4.282
20663W        W92978  39.369  11.135  14.871
20664W        W92979   0.343  36.927  12.967
20665W        W92980  19.099  12.779   2.786
20666W        W92981  29.144   8.795  10.612
20667W        W92982  25.085  13.664  10.998
20668W        W92983   0.348   1.431   4.829
20669W        W92984  43.323  32.564   4.193
20670W        W92985   9.174  17.161  13.496
20671W        W92986  32.999  40.833  12.492
20672W        W92987  21.560  24.992   2.817
20673W        W92988  24.601  14.672  14.869
20674W        W92989  13.282  28.069   3.220
20675W        W92990  27.087  33.380  10.579
20676W        W92991  12.268   7.773  11.371
20677W        W92992   2.368  30.089   1.818
20678W        W92993  43.457  30.613   2.212
20679W        W92994   7.898  39.340  12.556
20680W        W92995  20.638  41.329  11.882
20681W        W92996  27.645  39.528  14.480
20682W        W92997  14.603  28.655   4.248
20683W        W92998  14.109  32.138  12.836
20684W        W92999  25.102   2.257   1.301
20685W        W93000  12.844  39.449   1.714
20686W        W93001  19.208  19.543   2.187
20687W        W93002   0.410   1.267  14.477
20688W        W93003  36.941  38.384  13.530
20689W        W93004  30.985  17.200  12.436
20690W        W93005  38.401  13.803   2.755
20691W        W93006  11.364  28.527   4.277
20692W        W93007  34.475  33.956  14.402
20693W        W93008  36.031  14.217   2.397
20694W        W93009  44.449  32.581  10.564
20695W        W93010  38.502  39.049  11.100
20696W        W93011   7.809  12.839  11.924
20697W        W93012  21.550  43.443  12.928
20698W        W93013  36.566   5.274  13.342
20699W        W93014   2.257  37.017   4.657
20700W        W93015   0.892   4.439  10.596
20701W        W93016  29.614  33.901  11.510
20702W        W93017   7.300  15.222   0.904
20703W        W93018  35.579  22.210   4.662
20704W        W93019  30.946  34.070  13.992
20705W        W93020   0.312  43.278  10.588
20706W        W93021   6.251  35.958   1.918
20707W        W93022  17.619  36.366  12.940
20708W        W93023  38.832   2.911   0.810
20709W        W93024  36.359  30.010   3.371
20710W        W93025  23.014   2.314  13.036
20711W        W93026  32.956  37.864   0.738
20712W        W93027  21.527  36.562  12.501
20713W        W93028  35.486  34.025  14.961
20714W        W93029  44.332  21.547  12.072
20715W        W93030  27.679  33.505  10.066
20716W        W93031  18.650  30.991   4.797
20717W        W93032  22.072  14.802  14.946
20718W        W93033  10.317  35.916   4.278
20719W        W93034  41.799  30.909   2.848
20720W        W93035  26.980  42.429  11.960
20721W        W93036  33.434   7.774   1.719
20722W        W93037  30.974  11.249   0.373
20723W        W93038   3.349  16.807  10.634
20724W        W93039  19.716  40.398   0.455
20725W        W93040  41.417  38.375  13.450
20726W        W93041  35.954   4.747   1.396
20727W        W93042  40.959   9.790  12.043
20728W        W93043  12.742  17.724   2.720
20729W        W93044  20.074  31.514  11.567
20730W        W93045  10.178  42.010  11.527
20731W        W93046  18.225  20.129  13.315
20732W        W93047  37.399  42.347   4.181
20733W        W93048  17.081  21.194  14.465
20734W        W93049  22.590  24.042  12.005
20735W        W93050  30.588  37.446  10.042
20736W        W93051  10.765  13.623  14.472
20737W        W93052   8.342  38.006   0.736
20738W        W93053   9.766  36.013   2.246
20739W        W93054  19.136  18.188   2.221
20740W        W93055  13.108   3.274   3.768
20741W        W93056  16.605   2.329  11.972
20742W        W93057  36.010  40.324   2.201
20743W        W93058  21.602  38.386  13.017
20744W        W93059  10.178   8.327   3.690
20745W        W93060  43.903  14.798  11.963
20746W        W93061  30.918  12.656  11.859
20747W        W93062  26.673  10.263  11.073
20748W        W93063  19.547  21.724  12.087
20749W        W93064  29.482  33.079  11.066
20750W        W93065  43.836   7.785  10.508
20751W        W93066  26.543   3.385  10.087
20752W        W93067   6.386  29.134   2.897
20753W        W93068  31.057   7.891   0.383
20754W        W93069  31.613  34.924  11.954
20755W        W93070  12.330   3.903  11.889
20756W        W93071  11.131  32.611  12.376
20757W        W93072  27.547  27.990  11.449
20758W        W93073  30.607  40.339  10.603
20759W        W93074  35.373  33.018  14.899
20760W        W93075  29.134   5.924   4.272
20761W        W93076   1.341   9.761   1.438
20762W        W93077   1.942  11.748  11.957
20763W        W93078  30.083  26.005  14.923
20764W        W93079  41.398  31.053   0.437
20765W        W93080  20.540  23.661  13.329
20766W        W93081   1.742  17.089   3.647
20767W        W93082  42.024  37.085   0.773
20768W        W93083  26.480  23.160   2.196
20769W        W93084  18.274  31.462  14.013
20770W        W93085  10.229   8.215   0.309
20771W        W93086  19.258  17.760   3.366
20772W        W93087  16.138  22.200  10.890
20773W        W93088  14.817  15.753   9.994
20774W        W93089  40.409  27.688   1.913
20775W        W93090   6.691  33.978   1.378
20776W        W93091   5.738   1.474  14.412
20777W        W93092  23.060  12.702   1.885
20778W        W93093  24.212   7.705   4.245
20779W        W93094  26.135  29.111   2.296
20780W        W93095  28.605  34.034  12.510
20781W        W93096  12.663   6.365   2.707
20782W        W93097  28.634  18.725   4.245
20783W        W93098   9.841  17.237   4.345
20784W        W93099  18.591  18.191  14.878
20785W        W93100  40.485  11.299  13.394
20786W        W93101  17.164  25.091  11.422
20787W        W93102  31.556  44.319  12.560
20788W        W93103   6.368  12.206   3.316
20789W        W93104  12.157  24.618  14.292
20790W        W93105  19.737  19.725   1.798
20791W        W93106   7.793  36.934  11.567
20792W        W93107  34.449  19.228   1.347
20793W        W93108  38.381  29.603  14.388
20794W        W93109   3.326  33.536   3.870
20795W        W93110  10.189  37.954   5.231
20796W        W93111  17.307  40.346   3.194
20797W        W93112  39.544  13.192   2.798
20798W        W93113  26.476  41.823   0.770
20799W        W93114   0.872   0.848  11.473
20800W        W93115   0.480  13.343  10.962
20801W        W93116   3.445  17.225   4.709
20802W        W93117  34.075  13.608  10.628
20803W        W93118  40.547   9.706   3.260
20804W        W93119   1.354  42.345   0.962
20805W        W93120   8.203   6.188   3.207
20806W        W93121  43.495  24.123   2.702
20807W        W93122   3.917  30.048   0.864
20808W        W93123   2.865  23.024  12.058
20809W        W93124  44.775  44.465   3.799
20810W        W93125  38.329   2.795  11.546
20811W        W93126  20.748   2.268   0.416
20812W        W93127  18.088   8.853  12.836
20813W        W93128  23.083   8.732   1.905
20814W        W93129   4.714  26.136  13.799
20815W        W93130   2.828  32.139   2.679
20816W        W93131  28.536  12.323   4.789
20817W        W93132   1.409   2.408   1.912
20818W        W93133   8.704  43.871  14.990
20819W        W93134  14.759  17.306   0.862
20820W        W93135  14.331  32.918   4.344
20821W        W93136  22.104  30.978  13.848
20822W        W93137  32.617   7.750  14.325
20823W        W93138   5.425   5.845   1.774
20824W        W93139  43.861   0.338   2.705
20825W        W93140  26.025  43.376   2.209
20826W        W93141  28.166  13.131   3.751
20827W        W93142  10.332  14.225   2.345
20828W        W93143  43.418  44.804   0.871
20829W        W93144  11.284   2.407   3.234
20830W        W93145  21.697  28.571   3.253
20831W        W93146  27.562  26.506   3.181
20832W        W93147   5.904   5.711  11.515
20833W        W93148  42.404  12.307   0.920
20834W        W93149  34.409  36.853   2.728
20835W        W93150  30.593   1.247   0.871
20836W        W93151   8.318  24.035  11.908
20837W        W93152  30.116   0.927  12.465
20838W        W93153   0.827  26.544  14.358
20839W        W93154  25.590  12.130   0.446
20840W        W93155  35.537  35.006   2.877
20841W        W93156   0.826  16.655   4.635
20842W        W93157  17.729  12.675  12.969
20843W        W93158   8.379  21.174  10.421
20844W        W93159   1.340  37.085   1.925
20845W        W93160  33.006   4.378  13.413
20846W        W93161  12.127  44.941  13.476
20847W        W93162  40.495  23.095   3.636
20848W        W93163  15.795  13.258  14.820
20849W        W93164   3.767  24.069  12.873
20850W        W93165  21.526  21.638   1.366
20851W        W93166  43.895  16.720  12.527
20852W        W93167  27.042  22.127  14.303
20853W        W93168  19.041  18.268  10.635
20854W        W93169  40.972  33.485   1.715
20855W        W93170  31.528  20.567   0.466
20856W        W93171  15.293  14.714  14.318
20857W        W93172  26.541  16.155   4.292
20858W        W93173  12.244  29.602   2.268
20859W        W93174  38.569  14.798  10.460
20860W        W93175  32.547  19.761   5.160
20861W        W93176  42.399  42.286  12.359
20862W        W93177   6.746   9.220   2.826
20863W        W93178  43.952  22.588   4.813
20864W        W93179  42.955  30.022  11.920
20865W        W93180  43.913   0.320   2.372
20866W        W93181   8.210  23.196   0.345
20867W        W93182  24.194  21.632   1.852
20868W        W93183  17.714  37.899  13.997
20869W        W93184  21.217   2.846   3.299
20870W        W93185   7.857  31.497   1.338
20871W        W93186  10.359   9.881   4.686
20872W        W93187  10.174  17.640  11.393
20873W        W93188  26.493  26.461  12.550
20874W        W93189  20.697  32.448   3.868
20875W        W93190   8.268  25.656  10.957
20876W        W93191  19.643  35.941   3.827
20877W        W93192  38.905  10.360   5.130
20878W        W93193  12.747  33.053  14.309
20879W        W93194  25.090  30.976  11.373
20880W        W93195   7.388  38.015  11.943
20881W        W93196  39.394  21.716  13.977
20882W        W93197   2.428   7.339  12.086
20883W        W93198  18.708  35.482  10.487
20884W        W93199  38.514   6.278  10.459
20885W        W93200   4.757  12.188  12.376
20886W        W93201   1.415  21.654  14.891
20887W        W93202  36.542   3.458   1.223
20888W        W93203  40.328  33.018  13.819
20889W        W93204  26.118  32.442   1.729
20890W        W93205  40.516   1.815   2.753
20891W        W93206   3.327  41.355   1.270
20892W        W93207  32.524  34.553  11.457
20893W        W93208  23.714  35.471   3.325
20894W        W93209  24.144  11.146  12.558
20895W        W93210  37.453  30.032   2.216
20896W        W93211  30.624   0.875   3.300
20897W        W93212  29.482   2.466   4.677
20898W        W93213  38.871  42.840  13.399
20899W        W93214  15.119  31.143   1.751
20900W        W93215  11.669  28.985   3.303
20901W        W93216  28.093  34.589  12.429
20902W        W93217  17.084  11.700   3.228
20903W        W93218  37.468  13.214   1.916
20904W        W93219  24.607  24.104  13.355
20905W        W93220  43.273  44.838  11.948
20906W        W93221  35.433  21.518  13.347
20907W        W93222  19.663  15.657  13.367
20908W        W93223   0.951  15.322   2.409
20909W        W93224   0.292  13.792   3.830
20910W        W93225  19.654  11.352   1.712
20911W        W93226   1.356  12.155   4.302
20912W        W93227  29.118  31.128  12.845
20913W        W93228  32.575  42.514  10.979
20914W        W93229   2.296   9.374  11.420
20915W        W93230  19.624  35.493  10.583
20916W        W93231  12.301  33.567   2.272
20917W        W93232  18.226  10.198  10.507
20918W        W93233  19.676  11.685  12.525
20919W        W93234  41.842  32.563   2.195
20920W        W93235  35.037  25.479   1.908
20921W        W93236  30.068  38.913   3.840
20922W        W93237  39.536  13.187   1.874
20923W        W93238  22.009  40.370   4.194
20924W        W93239  10.279   3.341  12.351
20925W        W93240  25.571  12.260   2.866
20926W        W93241  18.681  10.720  11.036
20927W        W93242  10.297   0.283  12.376
20928W        W93243  25.123   5.205  14.849
20929W        W93244  17.175   8.708   0.946
20930W        W93245  22.192  10.239   4.253
20931W        W93246   1.755   0.793  11.036
20932W        W93247   2.357  41.447  10.945
20933W        W93248   4.374  22.553  10.517
20934W        W93249   7.317  38.525   1.362
20935W        W93250   9.730   8.308   3.837
20936W        W93251   2.776  31.991  13.526
20937W        W93252  31.036  34.552  10.901
20938W        W93253  21.561  14.266  12.515
20939W        W93254  34.465   0.900   0.773
20940W        W93255  12.172  41.847  14.512
20941W        W93256  37.010  44.796   1.752
20942W        W93257  27.446  22.548   4.780
20943W        W93258  21.143   2.418   0.454
20944W        W93259  41.917  26.028   1.399
20945W        W93260  10.242  34.442   1.787
20946W        W93261   3.287  25.077   1.359
20947W        W93262  18.697  13.842  12.987
20948W        W93263  22.109  43.313  14.813
20949W        W93264   4.211  11.720   0.807
20950W        W93265  25.521   1.768  14.031
20951W        W93266  19.149   2.821   3.655
20952W        W93267  24.521  15.614   4.279
20953W        W93268   0.268  16.597  11.921
20954W        W93269  17.663  35.047   0.790
20955W        W93270  17.605  13.807   3.755
20956W        W93271   9.871  24.538  12.518
20957W        W93272   7.884   2.883   2.342
20958W        W93273   2.941  12.762  12.865
20959W        W93274   9.379  25.190  12.830
20960W        W93275   7.307  15.640  14.378
20961W        W93276  18.736  22.127   3.203
20962W        W93277  11.249   9.772  10.546
20963W        W93278  19.233   8.381  10.989
20964W        W93279  13.125  27.558  11.981
20965W        W93280  14.265  15.685   3.257
20966W        W93281  19.596  23.522  13.425
20967W        W93282   1.742  22.224  14.974
20968W        W93283  21.241  22.026  14.833
20969W        W93284  35.515  24.580   3.330
20970W        W93285   5.365  35.431   0.291
20971W        W93286  14.293  30.916   4.733
20972W        W93287  22.743  40.344  14.847
20973W        W93288  35.890   0.381  13.470
20974W        W93289  28.542  12.206  11.960
20975W        W93290   3.404  27.988  14.397
20976W        W93291   9.329  21.726   3.830
20977W        W93292   8.831  43.020  12.029
20978W        W93293   9.731  35.379   0.761
20979W        W93294  34.911  32.069  14.994
20980W        W93295  14.200   7.672   4.810
20981W        W93296  44.887  24.154   1.258
20982W        W93297   5.759  30.974  12.096
20983W        W93298  43.775  11.305  11.478
20984W        W93299  13.215  14.823  13.049
20985W        W93300  17.693  18.196  12.423
20986W        W93301  37.861   1.778  14.503
20987W        W93302  27.193  44.488  10.018
20988W        W93303  34.467  43.807   1.370
20989W        W93304  43.012  13.164   4.794
20990W        W93305  12.156   2.246   3.275
20991W        W93306  27.467  44.010   3.847
20992W        W93307   9.679  38.048   3.777
20993W        W93308  36.983  17.131  11.407
20994W        W93309  33.618  29.107   3.340
20995W        W93310  35.989  43.338   3.750
20996W        W93311   0.865  35.973  13.425
20997W        W93312  26.682  13.257   3.229
20998W        W93313  40.325  18.103  14.389
20999W        W93314  25.622  17.605  11.610
21000W        W93315  29.087  26.489   2.790
21001W        W93316  10.735   3.917   0.422
21002W        W93317   4.269   3.817  11.910
21003W        W93318  14.316  20.649  14.480
21004W        W93319   9.759   7.812   3.654
21005W        W93320   0.487   7.765   3.778
21006W        W93321  37.356   2.766   0.360
21007W        W93322  24.695  39.357   2.306
21008W        W93323  27.628  42.920  11.985
21009W        W93324  44.832  40.357  12.933
21010W        W93325  44.798  40.526   0.409
21011W        W93326  35.439   7.868  12.832
21012W        W93327  22.089   3.826  11.906
21013W        W93328  31.106  33.559   3.722
21014W        W93329   2.314   9.295  13.344
21015W        W93330  34.045  42.522  11.981
21016W        W93331  17.180  35.976  11.017
21017W        W93332  14.712  35.040   3.778
21018W        W93333  40.919  30.998  13.026
21019W        W93334  12.313  30.057  10.893
21020W        W93335  11.305   9.784   1.898
21021W        W93336  19.229  12.285  12.055
21022W        W93337  41.888  31.141  13.345
21023W        W93338   3.246   2.864   4.174
21024W        W93339  32.121  34.084   4.352
21025W        W93340  22.139   2.866   1.772
21026W        W93341  23.572  16.189   4.684
21027W        W93342  26.154   5.343  13.926
21028W        W93343  29.047  10.191   2.707
21029W        W93344  19.753   7.182   2.824
21030W        W93345  12.711  18.610  12.082
21031W        W93346  15.753  11.241  12.366
21032W        W93347   8.820  27.163   0.944
21033W        W93348  18.255  15.794  13.539
21034W        W93349   6.194  21.640  13.377
21035W        W93350  27.992   9.164   2.724
21036W        W93351  12.656  20.266  11.967
21037W        W93352  25.979   3.949  14.790
21038W        W93353  33.092   4.310  14.441
21039W        W93354   7.725   8.275   4.783
21040W        W93355  37.929  24.142   4.784
21041W        W93356  20.676   0.927   3.827
21042W        W93357  13.292  35.525   1.934
21043W        W93358   8.819  28.975  11.029
21044W        W93359  38.035  15.704   4.752
21045W        W93360  16.139   6.234  11.030
21046W        W93361   7.378  32.557   0.784
21047W        W93362  36.964  44.781   2.858
21048W        W93363  29.549   4.443  14.976
21049W        W93364  30.459   7.687   2.197
21050W        W93365  41.386   0.817  11.537
21051W        W93366  24.518  25.969  12.426
21052W        W93367  35.032  30.567   3.346
21053W        W93368   4.863  18.256  14.303
21054W        W93369  23.172  33.956  10.645
21055W        W93370   5.424  42.860   4.192
21056W        W93371  32.937  32.469  11.593
21057W        W93372  15.252  31.033   2.903
21058W        W93373  14.118  32.523   2.680
21059W        W93374  21.225  41.987   2.238
21060W        W93375  41.946  40.312   2.207
21061W        W93376   8.250  16.283  14.828
21062W        W93377  14.183   3.757  11.971
21063W        W93378  42.820  28.100   4.158
21064W        W93379  26.193  38.014  11.048
21065W        W93380   2.456   2.308   1.313
21066W        W93381  28.994  30.060  12.042
21067W        W93382   6.845  15.174  14.503
21068W        W93383  27.055  19.775  12.399
21069W        W93384  41.882   0.463  12.489
21070W        W93385  41.957  23.998  13.845
21071W        W93386  32.893   4.918   3.722
21072W        W93387  31.473   3.222   4.651
21073W        W93388   1.478  27.646   3.377
21074W        W93389  35.079  10.365  10.019
21075W        W93390   3.945   7.722   3.767
21076W        W93391  28.653  32.920  10.428
21077W        W93392  31.928  16.118  13.868
21078W        W93393  33.109   2.783   0.776
21079W        W93394  23.176  22.501   5.237
21080W        W93395  25.574  26.064  11.995
21081W        W93396  28.042  27.613  14.830
21082W        W93397  23.557  16.227   1.248
21083W        W93398  35.517  22.694  11.877
21084W        W93399   9.316  31.448  11.054
21085W        W93400  19.039  14.618   4.699
21086W        W93401  28.617   5.341   3.269
21087W        W93402  25.515  10.684  13.488
21088W        W93403  13.736  34.064  12.072
21089W        W93404  16.153   4.314   1.226
21090W        W93405   5.322  14.639  14.958
21091W        W93406  42.428  26.703  13.907
21092W        W93407  12.302  26.667   0.906
21093W        W93408  43.482  16.586   4.204
21094W        W93409  36.058  10.321  14.930
21095W        W93410  35.513  17.204   4.765
21096W        W93411  41.926  17.226  11.008
21097W        W93412  41.864   1.306   4.273
21098W        W93413  28.134  28.504  10.434
21099W        W93414   1.784   0.250   4.161
21100W        W93415  42.877  27.510   2.310
21101W        W93416  16.226   5.839  14.817
21102W        W93417  41.831  20.635   4.777
21103W        W93418  39.018  17.294   4.223
21104W        W93419  11.360  18.633   2.361
21105W        W93420   3.260  44.394   4.335
21106W        W93421  35.088  31.459   1.255
21107W        W93422  38.417  17.079  11.424
21108W        W93423  36.551  13.185   2.333
21109W        W93424  17.099  11.826  11.960
21110W        W93425   6.406  41.309   0.289
21111W        W93426  25.509  32.396   5.784
21112W        W93427  43.987  12.334   2.280
21113W        W93428  32.027  29.014  14.298
21114W        W93429   7.278  35.098  14.502
21115W        W93430  26.143  23.997   0.839
21116W        W93431  43.896  37.367  11.409
21117W        W93432  44.309  42.878   5.188
21118W        W93433  32.989  35.470   3.839
21119W        W93434   8.793  44.450  12.086
21120W        W93435  15.711   6.264  11.512
21121W        W93436  13.656  22.677   1.905
21122W        W93437  29.472  43.327   3.805
21123W        W93438  26.161  27.073  11.527
21124W        W93439  14.777  32.475   4.727
21125W        W93440  39.323   3.440   2.351
21126W        W93441  27.997   5.293  14.849
21127W        W93442  30.149  36.494  12.998
21128W        W93443  29.435  19.257  10.934
21129W        W93444  25.623  14.209  11.075
21130W        W93445   7.410   5.844  11.429
21131W        W93446  19.114  40.467   4.806
21132W        W93447  27.575  10.156   3.784
21133W        W93448  41.971  37.961   3.690
21134W        W93449  39.937   0.784   1.347
21135W        W93450  20.582  16.139   0.273
21136W        W93451   4.791  32.052  12.047
21137W        W93452  26.031   6.827  14.451
21138W        W93453  19.622   8.186   4.338
21139W        W93454  44.300  19.050   2.665
21140W        W93455  15.727  23.111  14.349
21141W        W93456   1.750  35.934  11.533
21142W        W93457  14.726  18.248   0.277
21143W        W93458  17.592   5.916  12.453
21144W        W93459  17.300  22.246  10.906
21145W        W93460  19.623   3.429   0.794
21146W        W93461   9.805   2.857  11.012
21147W        W93462  28.591  36.934  11.007
21148W        W93463  31.991   8.901  10.981
21149W        W93464  21.531   5.863  12.010
21150W        W93465  33.548   3.781   0.843
21151W        W93466  24.034   8.234  10.915
21152W        W93467  41.501  39.544  14.322
21153W        W93468  20.584  23.182   0.909
21154W        W93469   3.916  35.482  14.287
21155W        W93470  12.687  39.406  13.793
21156W        W93471  35.360  38.539  14.325
21157W        W93472  19.593   6.713   3.149
21158W        W93473   3.278  31.403  14.291
21159W        W93474  18.240  30.415   1.902
21160W        W93475  19.567   2.387   2.724
21161W        W93476  28.620  12.632   1.422
21162W        W93477  44.783  27.499  11.509
21163W        W93478   6.410   7.745   0.871
21164W        W93479  35.871  44.390   4.759
21165W        W93480  32.119  34.583   0.767
21166W        W93481  35.063  13.276  14.930
21167W        W93482  12.236   6.398   0.915
21168W        W93483  39.834  35.877  13.828
21169W        W93484  42.937  36.944  11.968
21170W        W93485  12.735  40.905   0.391
21171W        W93486  31.017  11.206   2.816
21172W        W93487  10.199   9.742  12.976
21173W        W93488  24.602  38.840   3.337
21174W        W93489  42.806  27.197   0.813
21175W        W93490  12.702  21.578   2.727
21176W        W93491  22.015  18.052  10.443
21177W        W93492   4.903  38.555   1.419
21178W        W93493   1.438  29.135  14.849
21179W        W93494  33.909   8.874   1.793
21180W        W93495  32.110  26.960  14.997
21181W        W93496  11.709  37.372   2.844
21182W        W93497   4.782  18.593  13.372
21183W        W93498  37.389   9.366  13.907
21184W        W93499   0.812  26.049   4.276
21185W        W93500   1.479  15.674  10.448
21186W        W93501  22.997   0.986   2.204
21187W        W93502   4.304   9.861   4.329
21188W        W93503  16.722  27.115   2.369
21189W        W93504  32.128  32.624  13.388
21190W        W93505  14.323  38.036   1.859
21191W        W93506  23.541  17.641   3.301
21192W        W93507  29.511  26.123   1.821
21193W        W93508  43.482  14.616  13.014
21194W        W93509  25.523   8.347   3.650
21195W        W93510  43.822  29.619   0.806
21196W        W93511  43.470   7.306   5.181
21197W        W93512  29.467  19.752  10.093
21198W        W93513  28.080  41.515  10.917
21199W        W93514  39.020  21.718  14.399
21200W        W93515   2.346  27.499   3.696
21201W        W93516   4.902   3.936  11.083
21202W        W93517  42.512   4.444   3.675
21203W        W93518   5.871  29.931  13.528
21204W        W93519   4.336   1.809   2.194
21205W        W93520   3.398  13.606   4.217
21206W        W93521  22.101  41.902  14.853
21207W        W93522  22.052  17.214  14.025
21208W        W93523  15.674  40.866   0.439
21209W        W93524  23.221   3.713  12.411
21210W        W93525  31.038  23.201  11.044
21211W        W93526   0.794  35.588   4.645
21212W        W93527  42.906  29.016  14.288
21213W        W93528  33.576  13.772  12.491
21214W        W93529  27.522   3.395   0.341
21215W        W93530   2.277  32.623  14.819
21216W        W93531  21.129  28.962  13.063
21217W        W93532  41.367  15.754   0.860
21218W        W93533   5.729  16.757   4.684
21219W        W93534  25.654  42.809   4.677
21220W        W93535  32.038  26.680   0.915
21221W        W93536  36.464  27.449  12.373
21222W        W93537  17.104   5.784   3.664
21223W        W93538  24.105   6.257   1.401
21224W        W93539  14.639  16.105   0.782
21225W        W93540  17.750  12.272  10.966
21226W        W93541  31.616  37.485   0.433
21227W        W93542   5.202  44.982   1.770
21228W        W93543  20.759  24.037  11.465
21229W        W93544  34.376   1.315  12.977
21230W        W93545  21.604  21.546  13.821
21231W        W93546   2.908   8.786  10.579
21232W        W93547   0.399  40.440   3.150
21233W        W93548  37.474  12.126  13.921
21234W        W93549  30.424  15.787  12.527
21235W        W93550   1.315   4.340  10.892
21236W        W93551  44.906  17.632   4.625
21237W        W93552  23.087  34.984   4.201
21238W        W93553  24.993  11.372   1.341
21239W        W93554  18.189  33.893  14.770
21240W        W93555   9.181   3.782  12.408
21241W        W93556   2.466  44.461  11.444
21242W        W93557  30.504  35.571   0.357
21243W        W93558  25.006  43.915  12.025
21244W        W93559   8.673   4.881   4.716
21245W        W93560  16.084  36.856  10.991
21246W        W93561  24.214  28.008  10.435
21247W        W93562   6.314  27.473  14.515
21248W        W93563  40.852  37.958  13.322
21249W        W93564  40.930  22.239  10.615
21250W        W93565  41.003  23.992   5.126
21251W        W93566  31.526  36.881   0.314
21252W        W93567   9.650  24.508   2.333
21253W        W93568   3.762  37.955  10.534
21254W        W93569  26.558  30.968  11.112
21255W        W93570   7.883   1.816   2.863
21256W        W93571  27.675  17.119  13.001
21257W        W93572  16.127  27.662   0.859
21258W        W93573   8.268  15.154  12.520
21259W        W93574  27.662  32.957  14.839
21260W        W93575  42.373  12.834  10.517
21261W        W93576  35.469  30.421  13.815
21262W        W93577   6.693  15.083   2.732
21263W        W93578  33.086   1.834   3.754
21264W        W93579  13.607   8.312   3.761
21265W        W93580  44.786   1.752  11.059
21266W        W93581  30.944  11.238  11.970
21267W        W93582  22.126  27.176  12.929
21268W        W93583  23.623  39.894  11.372
21269W        W93584   5.232  33.442   3.777
21270W        W93585  12.649  42.907   3.189
21271W        W93586  15.172  15.316  10.518
21272W        W93587  42.862   1.786   3.708
21273W        W93588  18.236   7.818   0.938
21274W        W93589  25.970  15.252  13.541
21275W        W93590   9.724  22.218   0.436
21276W        W93591  16.686  25.709  12.424
21277W        W93592  29.588  33.404  14.492
21278W        W93593   3.810  31.447   0.280
21279W        W93594   7.309   9.792  13.851
21280W        W93595   6.735  20.718  12.019
21281W        W93596  38.417  19.748  12.027
21282W        W93597   6.720   1.445   0.478
21283W        W93598  27.686  39.558   4.684
21284W        W93599  27.657   7.234  12.979
21285W        W93600   5.278  30.047   0.309
21286W        W93601   0.918   3.882  11.446
21287W        W93602  23.671  26.969  12.362
21288W        W93603  24.551  25.668  11.510
21289W        W93604  29.455   0.301  14.420
21290W        W93605  24.693  36.547   0.311
21291W        W93606  17.213  44.792  13.897
21292W        W93607   2.792  15.303   2.247
21293W        W93608   2.414  29.516  12.429
21294W        W93609  42.414  20.187   4.767
21295W        W93610  26.690  20.549  14.313
21296W        W93611  36.357  27.064  13.059
21297W        W93612  42.429  42.835  14.833
21298W        W93613  24.652  11.148  10.956
21299W        W93614  38.556   7.761   2.865
21300W        W93615  16.581  27.125  12.486
21301W        W93616  31.937   7.897  14.446
21302W        W93617  40.997  22.649  12.033
21303W        W93618  21.155   3.808  14.914
21304W        W93619  28.179  38.066  14.915
21305W        W93620  28.956  42.459   4.830
21306W        W93621   3.773   6.826   2.305
21307W        W93622  21.594  15.141  14.324
21308W        W93623  35.988  41.529  12.896
21309W        W93624  34.058   9.831  11.537
21310W        W93625  36.911   7.666  14.897
21311W        W93626  14.336   5.398   4.330
21312W        W93627  41.989  29.624   0.419
21313W        W93628  11.808  39.386   1.817
21314W        W93629  24.724  12.239  12.978
21315W        W93630  36.884   5.856   4.229
21316W        W93631   9.826   0.908   0.771
21317W        W93632  13.773   7.375   0.305
21318W        W93633  20.197  39.557  14.380
21319W        W93634   3.429   6.352   2.241
21320W        W93635  44.759  22.113   3.812
21321W        W93636  17.753  31.443  11.423
21322W        W93637  36.350  40.041   4.177
21323W        W93638  34.950  28.663   1.342
21324W        W93639  17.781  23.617  13.440
21325W        W93640  15.192  17.177  12.565
21326W        W93641   6.695  18.745  12.566
21327W        W93642  40.517  27.648   4.310
21328W        W93643  30.100  13.181  14.334
21329W        W93644   6.333  35.526  11.949
21330W        W93645  13.736  39.029  12.017
21331W        W93646  22.698   5.693  14.883
21332W        W93647   6.814  27.623  11.433
21333W        W93648  21.132  21.518  11.403
21334W        W93649  38.505  18.054   1.711
21335W        W93650  27.028  16.204   3.267
21336W        W93651  35.515   9.390   4.232
21337W        W93652  14.811  13.130   1.266
21338W        W93653  35.588   4.385   0.930
21339W        W93654   4.322  24.129   2.320
21340W        W93655  43.880  18.165   2.892
21341W        W93656  34.411  31.008   3.162
21342W        W93657  39.437  27.186   4.721
21343W        W93658   7.703  26.657  13.870
21344W        W93659   1.865  21.037   0.434
21345W        W93660   5.246  27.053   1.447
21346W        W93661  14.834  13.753  13.514
21347W        W93662  12.683   4.327   0.805
21348W        W93663  42.412  21.192   1.448
21349W        W93664  21.145  44.927   0.809
21350W        W93665  32.934  38.881   1.819
21351W        W93666   3.770  19.152   0.830
21352W        W93667  37.479  22.203   0.351
21353W        W93668  36.084  12.726  13.032
21354W        W93669  26.187  30.616   1.355
21355W        W93670  28.095  33.380  10.489
21356W        W93671   3.870   3.715  14.414
21357W        W93672   2.811  29.632   2.397
21358W        W93673   6.733  17.100   4.659
21359W        W93674  14.230   2.874   1.731
21360W        W93675  21.023  31.113   2.728
21361W        W93676  20.250  41.444  10.008
21362W        W93677  29.588  12.615   1.280
21363W        W93678   6.756  27.995  13.517
21364W        W93679  39.825  35.861   4.789
21365W        W93680  43.950  21.670  12.434
21366W        W93681  38.962  29.001   2.863
21367W        W93682   0.490   4.418  11.865
21368W        W93683  33.445  28.581  13.388
21369W        W93684  23.674  43.284   3.709
21370W        W93685  25.079  20.523   9.950
21371W        W93686   1.482  13.300  10.588
21372W        W93687  18.731  42.354   4.786
21373W        W93688   6.684  32.904  11.421
21374W        W93689   2.291  41.433  11.998
21375W        W93690   4.928  42.931   3.271
21376W        W93691  28.638   3.912  12.363
21377W        W93692  21.577  37.473  12.832
21378W        W93693  22.192   2.387   1.407
21379W        W93694  10.783  20.084  11.956
21380W        W93695  25.066  31.533  11.568
21381W        W93696  38.003  34.989  11.520
21382W        W93697  43.321  12.328   4.343
21383W        W93698  26.029  22.666   2.736
21384W        W93699   0.855   5.777  14.879
21385W        W93700  42.029  37.429  14.766
21386W        W93701  32.995   0.779   2.401
21387W        W93702  28.561  42.785  13.965
21388W        W93703  35.450   5.387   2.797
21389W        W93704  20.104  17.139   3.825
21390W        W93705   2.425  21.085   2.350
21391W        W93706  32.563  38.899  11.006
21392W        W93707   5.796  27.530   3.159
21393W        W93708  21.729  31.432   4.752
21394W        W93709  20.586  34.117   2.305
21395W        W93710   9.222   6.890  11.573
21396W        W93711  34.454  10.726  10.517
21397W        W93712  19.284  27.166  13.330
21398W        W93713  19.065  30.997  10.532
21399W        W93714  28.069  27.125  13.307
21400W        W93715  12.708  21.227  11.870
21401W        W93716  44.835  44.279   0.820
21402W        W93717  16.234  38.343  14.763
21403W        W93718  34.044  41.313   2.374
21404W        W93719   4.444  13.607  13.063
21405W        W93720  30.950  34.053  12.848
21406W        W93721   1.910   4.905  12.964
21407W        W93722   3.234  17.078  10.426
21408W        W93723  15.157  30.157  12.007
21409W        W93724  10.754  34.476   1.932
21410W        W93725  27.535  15.743  11.545
21411W        W93726   0.294  36.467  11.069
21412W        W93727  10.718  40.335   1.308
21413W        W93728  43.500  16.773   3.200
21414W        W93729  22.166   1.411  14.397
21415W        W93730  38.884  14.200  13.899
21416W        W93731  29.139  37.435   2.344
21417W        W93732  40.857  44.869   0.851
21418W        W93733  19.080  43.507  13.416
21419W        W93734  39.427  31.616   3.146
21420W        W93735  39.937  12.153   4.167
21421W        W93736  33.426  17.133  11.954
21422W        W93737  36.045  11.350   2.397
21423W        W93738  13.127  34.916  10.063
21424W        W93739  39.404  33.946   4.150
21425W        W93740   5.363   9.736   3.219
21426W        W93741  33.105  38.983   3.845
21427W        W93742  37.040  38.409   1.932
21428W        W93743  26.141   7.249   0.834
21429W        W93744  16.741  36.425   4.721
21430W        W93745  26.612  19.183   3.269
21431W        W93746   0.977   9.366   4.730
21432W        W93747  26.688  24.654   3.284
21433W        W93748   2.456  39.339  11.562
21434W        W93749  35.933  37.450  12.511
21435W        W93750  22.076  37.395   1.752
21436W        W93751   4.891   4.854   2.419
21437W        W93752  14.604  26.183   3.748
21438W        W93753  10.270  15.131  11.105
21439W        W93754  11.781  29.135  12.032
21440W        W93755  14.798  37.478   2.669
21441W        W93756   9.644   2.892   0.962
21442W        W93757  31.932  32.916   4.645
21443W        W93758  13.105  11.756   2.743
21444W        W93759  28.944  34.877  10.598
21445W        W93760  16.267   7.268   1.811
21446W        W93761  22.511  26.592  10.905
21447W        W93762   2.447   5.688   0.317
21448W        W93763  38.412  43.004  13.889
21449W        W93764  21.249  15.591   3.377
21450W        W93765  27.977  23.603  14.022
21451W        W93766  38.864  30.996   1.906
21452W        W93767  25.469  34.534  14.841
21453W        W93768  24.064  44.309  14.874
21454W        W93769  44.788   7.911  12.376
21455W        W93770  41.476   8.293  12.902
21456W        W93771  36.060   0.344  10.573
21457W        W93772  25.075  17.076  12.458
21458W        W93773   7.187  22.529   3.212
21459W        W93774   5.749  31.647   2.412
21460W        W93775  16.087  30.931  13.534
21461W        W93776  41.029  11.700  11.520
21462W        W93777  22.650   7.302   4.139
21463W        W93778  30.091  10.704  14.410
21464W        W93779  23.642  13.703  11.437
21465W        W93780   6.388  12.784   4.239
21466W        W93781  10.161  20.633  13.907
21467W        W93782  38.819   4.251  14.913
21468W        W93783   9.225  10.807  12.452
21469W        W93784   8.684   9.740  13.423
21470W        W93785  44.469  41.335  13.964
21471W        W93786  30.976  21.071  11.504
21472W        W93787  14.129  42.871   4.203
21473W        W93788  11.156  24.202   0.321
21474W        W93789  37.412  38.466   3.669
21475W        W93790  43.309  34.376  14.319
21476W        W93791  28.559   3.875  13.361
21477W        W93792  38.354  36.059   3.230
21478W        W93793  25.114  30.919   0.868
21479W        W93794  10.284  29.578  12.868
21480W        W93795  16.594  40.485   4.729
21481W        W93796   0.762  25.149  10.559
21482W        W93797  43.982   9.768   9.929
21483W        W93798  32.037  34.092  11.497
21484W        W93799   1.323   8.881   4.198
21485W        W93800  27.985  31.462   9.989
21486W        W93801  39.980  29.928  13.453
21487W        W93802  19.040  24.165   4.233
21488W        W93803  23.188  28.044   2.777
21489W        W93804  12.272  26.628  13.346
21490W        W93805  18.735  11.730  14.913
21491W        W93806   4.425   2.464  11.571
21492W        W93807  40.500  22.218  11.402
21493W        W93808  13.630   4.742  14.914
21494W        W93809  18.587  38.820   4.274
21495W        W93810   8.666   0.418  12.071
21496W        W93811  17.672   7.689  12.540
21497W        W93812  19.630  42.814   4.214
21498W        W93813   6.285  14.268  14.976
21499W        W93814   0.783   1.408   4.273
21500W        W93815  35.446  21.530   4.636
21501W        W93816  32.982  36.585   4.759
21502W        W93817  43.772  38.957  11.433
21503W        W93818  31.447  32.949   2.855
21504W        W93819  26.631  16.773   2.260
21505W        W93820  23.141  36.876   2.777
21506W        W93821  29.612   4.354   0.383
21507W        W93822  13.124   0.885   9.946
21508W        W93823  41.384   1.298   3.176
21509W        W93824  18.623  10.237   4.197
21510W        W93825  25.056  24.035   0.862
21511W        W93826  43.473   3.722   3.702
21512W        W93827  34.906  15.089  11.469
21513W        W93828  18.662   2.958  12.529
21514W        W93829   6.707  27.500  13.038
21515W        W93830  41.505  21.229  11.882
21516W        W93831  34.050  36.552   2.706
21517W        W93832  29.620  24.500  14.951
21518W        W93833   8.265  36.399  10.970
21519W        W93834  30.547  32.477   2.243
21520W        W93835  41.877  15.629  10.008
21521W        W93836   8.284  17.249  11.008
21522W        W93837   7.343  30.413   0.730
21523W        W93838   9.799  44.490  13.834
21524W        W93839  10.779  44.448  11.027
21525W        W93840  21.736   6.332  13.824
21526W        W93841  44.452   4.227   2.312
21527W        W93842  43.901  26.554   1.240
21528W        W93843  32.988  40.316   3.224
21529W        W93844  39.043  30.557   1.284
21530W        W93845  30.142  41.793  14.481
21531W        W93846  26.995  35.586   1.917
21532W        W93847  11.217  24.056   4.288
21533W        W93848  18.258  31.480   4.186
21534W        W93849  19.538   8.232  12.375
21535W        W93850  40.826   7.227   4.122
21536W        W93851  18.624  35.930  10.982
21537W        W93852  25.534   7.713  14.996
21538W        W93853  29.101  23.623   2.713
21539W        W93854  12.728  29.630  11.556
21540W        W93855  27.991  43.357   3.731
21541W        W93856  26.085  14.190   1.783
21542W        W93857   2.800   5.430   4.699
21543W        W93858   4.779  11.770  11.072
21544W        W93859  33.936  43.919  12.060
21545W        W93860   0.438  41.391  14.491
21546W        W93861   2.344  41.518   5.145
21547W        W93862  26.121  22.679   1.265
21548W        W93863   5.319  10.319  12.016
21549W        W93864   4.416  17.580   2.808
21550W        W93865  32.888  31.105   2.306
21551W        W93866   2.316   9.235  10.958
21552W        W93867  32.141  39.429   4.244
21553W        W93868   8.401  23.208   2.705
21554W        W93869   1.321  13.700  11.018
21555W        W93870  25.694  28.939   2.791
21556W        W93871  35.972  44.361  13.466
21557W        W93872  34.405  11.793  12.030
21558W        W93873  16.610   4.306   2.345
21559W        W93874  38.987  17.684  10.927
21560W        W93875  31.068  32.134  14.298
21561W        W93876   4.709  44.349  11.043
21562W        W93877  40.033   2.819  14.818
21563W        W93878  44.319  37.040  12.517
21564W        W93879   3.734   6.870  14.934
21565W        W93880  30.009  27.605  14.311
21566W        W93881   8.901  29.110  12.069
21567W        W93882  14.095  25.688  14.493
21568W        W93883  25.693  16.672  10.535
21569W        W93884  44.390  10.138   3.705
21570W        W93885  11.698  18.252  14.998
21571W        W93886  42.825  21.718  14.388
21572W        W93887   5.798   4.906  12.967
21573W        W93888   3.865  18.695   4.181
21574W        W93889  19.218  11.154   1.907
21575W        W93890  18.164  40.957   5.322
21576W        W93891  27.979  35.528  12.048
21577W        W93892  26.199   9.394   4.236
21578W        W93893  27.550   2.854  11.871
21579W        W93894   7.780  36.001  11.564
21580W        W93895   7.836  28.566  10.633
21581W        W93896  24.612  15.811   3.668
21582W        W93897  37.051  36.873   3.795
21583W        W93898  39.036  42.436  10.931
21584W        W93899  12.200  15.604  14.001
21585W        W93900   0.494  20.560  11.126
21586W        W93901  38.998  23.180   5.221
21587W        W93902   7.283  39.380  13.944
21588W        W93903  39.835  24.000  10.414
21589W        W93904  27.132  22.100   2.254
21590W        W93905  29.036  36.981  12.907
21591W        W93906  23.070  12.806   3.272
21592W        W93907  24.724   3.277  10.972
21593W        W93908  13.611   1.846  12.075
21594W        W93909  19.581   1.317   4.758
21595W        W93910   4.816  43.421  11.582
21596W        W93911  12.810  16.733  12.549
21597W        W93912  18.749  34.951   0.245
21598W        W93913   8.161  34.370   0.468
21599W        W93914  44.345  18.548   2.251
21600W        W93915  22.744  36.486   0.760
21601W        W93916  41.013  19.267  12.084
21602W        W93917  17.250  31.514   2.339
21603W        W93918  17.287  40.438   0.283
21604W        W93919  27.660   6.725  10.901
21605W        W93920  29.978  22.563   1.303
21606W        W93921  36.092   3.724  12.566
21607W        W93922  12.139  36.050  10.588
21608W        W93923  15.159  24.147  12.959
21609W        W93924  14.224  30.493   2.867
21610W        W93925  32.094   0.313  12.908
21611W        W93926  26.687  43.384   3.161
21612W        W93927  41.031  31.642  13.886
21613W        W93928  26.179  28.513   1.366
21614W        W93929  10.655   0.330   3.253
21615W        W93930  34.930   9.749   4.728
21616W        W93931  25.668  36.381  12.455
21617W        W93932  33.127  14.664   2.837
21618W        W93933  18.195  41.292  10.532
21619W        W93934  24.173   5.803   4.147
21620W        W93935   0.430  38.017   1.763
21621W        W93936  40.871  43.856   2.834
21622W        W93937  42.429  27.003   4.142
21623W        W93938   8.866  16.230   2.713
21624W        W93939  24.224  27.681   0.455
21625W        W93940  13.841  30.159   1.785
21626W        W93941  42.432  27.502  14.011
21627W        W93942  22.171   8.654  11.872
21628W        W93943   1.423  28.963   1.701
21629W        W93944   6.401  40.968   0.301
21630W        W93945  36.952  24.065   2.279
21631W        W93946  10.855   8.290  14.339
21632W        W93947   9.290  13.154  13.962
21633W        W93948  16.227  29.566   0.350
21634W        W93949  27.650   8.315  13.841
21635W        W93950  11.296   0.315  11.556
21636W        W93951  18.096  29.540   1.802
21637W        W93952   2.880  44.868   3.645
21638W        W93953  24.518   0.375  12.404
21639W        W93954  36.083  30.613   4.160
21640W        W93955  18.073  39.423   1.247
21641W        W93956  40.344   7.304  13.446
21642W        W93957  36.846  35.495  11.586
21643W        W93958  38.036   9.305  14.432
21644W        W93959  14.682  39.831  12.425
21645W        W93960  22.048  17.609   4.228
21646W        W93961  20.035  33.512  11.535
21647W        W93962  12.253  18.684   3.329
21648W        W93963  26.035  25.997   3.375
21649W        W93964  43.001   2.227  10.406
21650W        W93965  14.790  18.629  12.058
21651W        W93966  37.486   0.856  14.503
21652W        W93967   2.797   5.339   3.309
21653W        W93968  38.854  44.912   0.837
21654W        W93969  26.496  43.490  13.509
21655W        W93970  39.455  33.423   3.310
21656W        W93971  38.042   7.415  12.428
21657W        W93972  41.043  27.615   1.380
21658W        W93973  29.962  25.199   3.764
21659W        W93974  33.955   1.798   3.825
21660W        W93975  27.084  28.575   0.386
21661W        W93976   7.252  37.538  11.007
21662W        W93977  41.931  41.338  13.476
21663W        W93978  37.039  17.282   1.829
21664W        W93979   8.193   1.456   3.344
21665W        W93980  21.511   9.678   4.795
21666W        W93981  16.281   2.312   1.859
21667W        W93982  28.440   5.427   4.137
21668W        W93983   2.445  42.807   0.263
21669W        W93984  17.564  25.491  13.964
21670W        W93985   6.844  19.223   3.850
21671W        W93986  38.862  14.652  11.876
21672W        W93987  44.314  33.458   4.293
21673W        W93988  23.498   5.413   1.699
21674W        W93989  15.714   8.390  14.515
21675W        W93990  25.012   7.675   1.697
21676W        W93991  22.158   1.808  12.342
21677W        W93992  31.617  16.130   4.301
21678W        W93993  36.894  32.044  10.983
21679W        W93994  21.532  25.084  14.453
21680W        W93995  15.109  30.595  14.937
21681W        W93996  44.993  16.291   0.394
21682W        W93997  22.200   0.400   0.902
21683W        W93998  18.253  40.935   3.701
21684W        W93999  22.688  29.623  14.773
21685W        W94000  43.807  24.651  13.960
21686W        W94001  10.178  16.116  12.404
21687W        W94002   8.654  13.171  13.455
21688W        W94003  26.645  35.077   0.851
21689W        W94004  13.758  40.476   1.414
21690W        W94005   6.386  38.984   4.651
21691W        W94006  41.399  22.520  10.993
21692W        W94007  44.419  40.905  11.976
21693W        W94008   8.807  22.730  14.356
21694W        W94009  27.557  32.523   0.837
21695W        W94010  35.903  24.077   0.366
21696W        W94011   1.386  39.423   3.629
21697W        W94012  27.024  25.087   1.860
21698W        W94013  21.599  25.146  12.893
21699W        W94014  25.530  17.725  10.490
21700W        W94015  18.644   3.281  13.411
21701W        W94016  34.893  27.617  13.918
21702W        W94017  17.631  18.724   4.330
21703W        W94018  41.455  30.525   1.895
21704W        W94019  41.376  14.190   4.691
21705W        W94020  44.886  23.050  13.376
21706W        W94021  14.203  19.039  12.527
21707W        W94022  18.095  27.572  12.993
21708W        W94023  34.007   8.337  13.049
21709W        W94024  28.169  18.550  13.385
21710W        W94025  21.062  16.117  10.488
21711W        W94026  19.196  30.561  14.782
21712W        W94027  38.852  27.121  13.858
21713W        W94028  42.823  35.033  14.301
21714W        W94029  38.571  13.654  11.111
21715W        W94030  38.026  33.045   2.252
21716W        W94031  10.823   1.746  12.455
21717W        W94032   2.299   4.240   0.741
21718W        W94033  32.400  14.256  11.386
21719W        W94034  35.107  29.661  13.875
21720W        W94035  16.133   2.834  13.420
21721W        W94036  17.220  17.241   2.254
21722W        W94037  26.017  33.503  13.539
21723W        W94038   9.151  40.388   0.784
21724W        W94039  42.504   1.954  13.483
21725W        W94040   2.927  23.157  12.563
21726W        W94041  23.072  17.593  14.968
21727W        W94042  21.592  33.391   1.346
21728W        W94043  34.924  39.959   1.386
21729W        W94044  23.635   8.214   2.729
21730W        W94045  30.553  22.506   3.661
21731W        W94046  42.789  27.599   9.976
21732W        W94047  28.496   8.888  11.865
21733W        W94048  37.413  40.873  14.481
21734W        W94049  15.289  11.647   1.867
21735W        W94050  39.926   0.410   1.443
21736W        W94051  12.175  19.158  11.109
21737W        W94052   0.949   8.710   0.809
21738W        W94053  28.975  40.454  10.586
21739W        W94054  38.895  42.899  14.408
21740W        W94055  26.598   5.253  13.963
21741W        W94056  33.522   3.943   2.188
21742W        W94057  20.558  10.871  10.578
21743W        W94058  19.597  11.729   5.091
21744W        W94059  14.792  20.615  11.885
21745W        W94060  26.958  31.578   0.878
21746W        W94061  21.045  24.676  11.456
21747W        W94062   6.889  23.234   3.164
21748W        W94063   0.466   0.869  14.994
21749W        W94064  20.731  41.335  10.614
21750W        W94065  14.266  15.657   1.919
21751W        W94066  39.384   1.863  12.877
21752W        W94067  38.432  35.553   4.178
21753W        W94068  28.142  32.442  11.878
21754W        W94069  31.083  37.426  13.411
21755W        W94070   3.329  10.181   0.965
21756W        W94071  20.132  10.187   9.643
21757W        W94072  15.141  24.717   3.264
21758W        W94073  41.375  31.128   3.696
21759W        W94074  25.669  36.842   4.671
21760W        W94075  12.200  17.293  13.984
21761W        W94076  42.839   1.810  10.487
21762W        W94077  44.970  25.092   0.383
21763W        W94078  40.531  27.647   1.335
21764W        W94079   0.485  26.634   4.248
21765W        W94080  12.661   4.282  12.932
21766W        W94081   9.697   7.840   1.294
21767W        W94082  27.655   5.723  11.091
21768W        W94083  36.466  33.983   4.183
21769W        W94084  21.570   3.820  12.346
21770W        W94085  17.751   8.752   2.363
21771W        W94086  43.324   9.326  11.576
21772W        W94087  44.292  32.118   0.396
21773W        W94088  44.956  40.918   3.171
21774W        W94089  23.223  20.567  11.082
21775W        W94090  41.495  29.100   3.295
21776W        W94091  26.656  37.947   1.725
21777W        W94092  25.583   7.686  14.489
21778W        W94093  10.224  33.463   2.899
21779W        W94094   7.344  16.091   0.408
21780W        W94095  12.714  21.604   2.308
21781W        W94096  25.696   0.829  10.966
21782W        W94097  21.208  27.061   1.919
21783W        W94098  37.442  27.478  14.017
21784W        W94099  40.981  26.116   1.387
21785W        W94100  20.251  17.078   0.826
21786W        W94101   1.312  19.245  10.448
21787W        W94102  11.348  35.538  14.359
21788W        W94103  30.088  21.137  13.000
21789W        W94104  41.984  31.963   5.177
21790W        W94105  15.293  11.203   4.676
21791W        W94106   7.854   1.385  12.521
21792W        W94107   9.294  37.548   3.262
21793W        W94108  43.406  33.611  12.489
21794W        W94109  22.153   9.280  10.987
21795W        W94110  37.927  25.997  12.951
21796W        W94111  12.825  15.211   1.844
21797W        W94112   7.902   7.280   1.724
21798W        W94113  26.475   1.889  14.816
21799W        W94114  32.912  18.646   0.254
21800W        W94115  39.022   5.731  11.491
21801W        W94116  13.775   3.451   4.259
21802W        W94117  34.496   4.325  10.472
21803W        W94118  30.656  43.847   2.315
21804W        W94119  28.981  12.244  10.549
21805W        W94120  32.036  10.793  11.003
21806W        W94121   1.262  16.256   1.378
21807W        W94122  14.325  37.443  12.945
21808W        W94123  15.676  44.916   4.238
21809W        W94124   1.342  37.878  13.928
21810W        W94125  41.830  31.076   0.753
21811W        W94126  21.538  24.007   3.197
21812W        W94127  43.844  38.492  14.926
21813W        W94128   8.250  25.685   3.196
21814W        W94129   4.708  26.162  12.537
21815W        W94130  34.911  10.747   1.442
21816W        W94131  37.841  20.046  11.876
21817W        W94132  31.971  24.032   2.882
21818W        W94133  10.786  31.063   1.807
21819W        W94134  10.290  33.465  14.378
21820W        W94135  44.995  20.530  12.449
21821W        W94136   5.309  18.237   3.197
21822W        W94137  41.039   2.294  11.574
21823W        W94138  13.324  23.043  13.878
21824W        W94139  41.837   2.859  14.289
21825W        W94140  33.904  32.405   2.671
21826W        W94141  41.520   4.807   2.779
21827W        W94142  38.900  39.876   4.237
21828W        W94143  26.121  38.339  13.811
21829W        W94144  28.161  40.359  13.483
21830W        W94145   1.860  34.962   5.586
21831W        W94146   7.758  32.942   3.649
21832W        W94147  21.218   4.896  13.021
21833W        W94148  38.061   1.973  13.011
21834W        W94149  21.195  33.620   0.796
21835W        W94150  38.528  24.124  13.347
21836W        W94151  42.835  30.527  14.450
21837W        W94152  35.943  30.534  11.467
21838W        W94153  41.010  22.620   0.857
21839W        W94154  13.683  31.015  10.506
21840W        W94155   6.898  30.514   0.961
21841W        W94156  28.961  33.130  13.335
21842W        W94157  15.797   2.452  13.011
21843W        W94158  31.497  26.596  12.938
21844W        W94159  25.119  35.404  14.335
21845W        W94160  36.045  19.539   0.898
21846W        W94161  12.247   5.920   3.732
21847W        W94162  10.700  18.252   4.331
21848W        W94163  43.990  35.955   4.660
21849W        W94164  31.537  34.936  12.569
21850W        W94165   9.206  25.972   4.793
21851W        W94166  18.710  19.154   4.163
21852W        W94167  19.654  10.725   3.716
21853W        W94168  36.907  13.201  13.036
21854W        W94169  15.261  18.159   1.896
21855W        W94170  26.509  39.927   2.268
21856W        W94171  36.362   7.706   2.766
21857W        W94172  39.998  12.725   3.152
21858W        W94173  32.141  41.345  10.005
21859W        W94174   9.389  19.606   3.643
21860W        W94175  15.152  44.853  14.277
21861W        W94176  32.476  39.946  13.424
21862W        W94177  40.027  15.270  12.825
21863W        W94178  32.406  20.574   4.629
21864W        W94179  16.585  16.100  13.526
21865W        W94180  17.101  34.030   2.195
21866W        W94181  35.568   6.343  12.018
21867W        W94182  11.801   2.324  13.405
21868W        W94183  32.042  44.387   4.690
21869W        W94184  19.665  37.085   2.682
21870W        W94185   4.351  22.050  13.816
21871W        W94186  34.042  16.147   4.614
21872W        W94187  42.499  24.010  10.966
21873W        W94188  32.024  27.050   0.324
21874W        W94189   0.458  41.523   2.740
21875W        W94190   3.770  28.004  14.805
21876W        W94191  27.042  13.754  14.992
21877W        W94192  12.856  19.169   0.967
21878W        W94193  31.932  40.948   0.417
21879W        W94194  10.205  16.158   3.662
21880W        W94195  31.463  19.561  11.009
21881W        W94196  29.008  27.682   0.937
21882W        W94197  30.117  19.265   4.794
21883W        W94198   7.811  40.993  10.548
21884W        W94199  22.704  23.524   2.189
21885W        W94200  36.379  25.667  11.522
21886W        W94201  10.215  18.111  14.864
21887W        W94202  35.465   2.786  11.856
21888W        W94203  21.524  23.040  10.413
21889W        W94204  29.660  29.010   0.767
21890W        W94205  17.584  27.950   9.560
21891W        W94206  16.122   3.876   3.703
21892W        W94207  19.771   5.432   4.191
21893W        W94208  28.646   1.362   4.639
21894W        W94209  14.233   8.279  13.880
21895W        W94210  36.476  32.071  14.790
21896W        W94211   2.841  27.503  12.973
21897W        W94212   9.242  10.762   2.707
21898W        W94213  37.491  23.026   2.256
21899W        W94214  36.039  33.957   3.253
21900W        W94215  34.592  40.804  13.364
21901W        W94216  10.254  43.958   0.417
21902W        W94217  31.962   3.425  13.997
21903W        W94218  37.999  39.534  14.880
21904W        W94219   3.810  25.590   4.661
21905W        W94220  11.681  25.522   2.180
21906W        W94221  28.093  37.042  12.535
21907W        W94222  23.722  31.048  14.498
21908W        W94223  17.232  25.532  10.431
21909W        W94224  32.444  35.029  14.305
21910W        W94225  26.642   4.342   3.812
21911W        W94226  39.028  30.993   2.678
21912W        W94227  25.705  31.546   2.317
21913W        W94228  39.845  38.883  13.367
21914W        W94229   3.858  12.296   3.224
21915W        W94230  20.126  17.703   4.145
21916W        W94231   6.185  27.542   4.253
21917W        W94232  14.835  26.048   2.254
21918W        W94233  31.607  24.002  11.995
21919W        W94234  34.573  28.019   4.834
21920W        W94235   6.196  10.638   3.732
21921W        W94236   3.344  19.579   4.167
21922W        W94237   7.374  14.640  12.488
21923W        W94238  14.776  27.554   2.865
21924W        W94239  26.085  20.267  11.395
21925W        W94240  12.198   8.698   1.752
21926W        W94241  27.589  37.392  12.513
21927W        W94242  21.039  14.607   3.831
21928W        W94243  25.188  21.134   5.165
21929W        W94244  23.605  38.871   3.772
21930W        W94245  39.560  11.312   3.338
21931W        W94246  36.912  18.156  14.871
21932W        W94247  29.582  17.191  11.912
21933W        W94248  19.156  44.292  10.538
21934W        W94249  42.384  40.455   3.150
21935W        W94250   2.377  16.131   2.772
21936W        W94251  30.149  36.928  14.493
21937W        W94252  14.624  24.529   2.773
21938W        W94253  20.093  24.202  12.402
21939W        W94254  25.700  32.461   0.940
21940W        W94255  30.460  17.745   0.894
21941W        W94256  32.598  23.684   4.836
21942W        W94257   3.216  36.379  14.287
21943W        W94258   4.756  15.609  11.107
21944W        W94259  18.629  11.155   4.680
21945W        W94260  37.471  14.214   3.192
21946W        W94261  38.467  42.838  14.332
21947W        W94262  44.415  42.995   1.786
21948W        W94263  24.055  23.115   2.272
21949W        W94264  19.050   8.834   9.987
21950W        W94265   4.277  21.603   3.858
21951W        W94266   5.428  25.156   2.294
21952W        W94267  34.972   8.851   1.909
21953W        W94268   5.298  35.057  10.406
21954W        W94269  28.529  23.517  12.453
21955W        W94270  40.822  30.121  11.922
21956W        W94271  30.534  40.481   0.415
21957W        W94272  24.038   9.869   2.868
21958W        W94273  20.579  29.988  11.489
21959W        W94274  35.494  32.957  13.804
21960W        W94275   6.848   4.419  12.356
21961W        W94276  25.121   8.196  10.932
21962W        W94277  38.890  22.613  14.026
21963W        W94278  27.047   3.870  11.532
21964W        W94279   1.845   9.228  13.325
21965W        W94280   8.203  33.045  13.039
21966W        W94281   6.206  27.572  11.520
21967W        W94282   4.782   3.397  14.339
21968W        W94283  42.019   3.756  13.486
21969W        W94284  23.992   0.937  11.041
21970W        W94285  35.529  10.689  13.524
21971W        W94286  36.078  38.853  14.952
21972W        W94287  15.121  26.643   2.895
21973W        W94288  41.387  39.413   1.756
21974W        W94289   4.391  16.574  10.935
21975W        W94290  25.511   5.346  12.994
21976W        W94291  35.901  10.716   1.827
21977W        W94292  42.930  42.445  12.945
21978W        W94293   2.795  13.808   2.873
21979W        W94294   3.255  13.769  11.000
21980W        W94295   3.715  32.596  13.791
21981W        W94296  41.006  12.204   2.748
21982W        W94297  37.897  27.601  13.914
21983W        W94298   5.263   3.788   3.836
21984W        W94299  44.909  35.574   3.222
21985W        W94300  42.780  17.282  11.468
21986W        W94301  43.787  31.497   4.664
21987W        W94302   2.793   5.931   4.265
21988W        W94303  11.331   6.428  14.839
21989W        W94304  29.123   4.848   3.805
21990W        W94305  24.175   4.401   4.691
21991W        W94306   7.854  43.483   2.825
21992W        W94307  26.610   5.406   2.246
21993W        W94308   6.318  14.112   3.680
21994W        W94309  21.654  39.356   0.962
21995W        W94310   9.645   6.900  12.906
21996W        W94311  18.716  17.125   4.320
21997W        W94312  40.362  27.014   1.289
21998W        W94313  20.151   1.905   4.703
21999W        W94314  14.630  37.987  11.010
22000W        W94315   2.395  10.671  12.886
22001W        W94316   1.377  14.330   2.696
22002W        W94317  34.403  11.823   2.758
22003W        W94318  15.265   1.968   1.801
22004W        W94319  15.293  11.153  13.383
22005W        W94320  41.952  36.372  13.817
22006W        W94321  16.215  15.700  11.611
22007W        W94322  16.619  22.238   1.775
22008W        W94323  15.273   1.399   0.318
22009W        W94324   8.318   2.241  14.275
22010W        W94325   6.909  44.482  12.907
22011W        W94326  18.603  44.474   4.348
22012W        W94327   6.421  28.520   3.160
22013W        W94328  21.041  42.483  13.051
22014W        W94329  11.276   3.326  11.992
22015W        W94330  36.485  12.831  14.031
22016W        W94331  18.281  30.055   9.570
22017W        W94332  13.832  20.214  14.353
22018W        W94333  35.911   6.280  14.458
22019W        W94334  18.073  28.545  13.468
22020W        W94335   0.793  11.337   0.387
22021W        W94336  38.993  30.569  13.945
22022W        W94337  25.080  10.329   1.358
22023W        W94338   7.665  33.028  12.010
22024W        W94339  11.734  31.947   2.807
22025W        W94340  12.856  22.563  14.300
22026W        W94341  37.984  17.160  10.992
22027W        W94342  19.170  35.487  10.410
22028W        W94343  43.445  38.063   0.737
22029W        W94344   6.803  40.048  12.089
22030W        W94345  22.700  18.597   0.435
22031W        W94346  42.880  43.428  12.953
22032W        W94347  13.797   4.243   1.867
22033W        W94348  43.814  29.137  13.505
22034W        W94349   8.276   8.873  11.481
22035W        W94350  20.236   8.720  10.507
22036W        W94351  14.828  29.076   2.735
22037W        W94352  25.055  18.235  14.501
22038W        W94353  20.254  32.500  10.891
22039W        W94354  27.071  17.227  11.472
22040W        W94355  18.598  31.129   2.676
22041W        W94356  29.581  26.007  13.941
22042W        W94357  38.005  18.187   3.322
22043W        W94358  19.736   2.249   0.916
22044W        W94359  11.294  22.231  11.932
22045W        W94360   6.231  31.408   0.328
22046W        W94361   9.172  20.271   1.788
22047W        W94362   1.481  25.521  10.580
22048W        W94363   8.665  23.589   1.833
22049W        W94364  31.931  34.580   1.248
22050W        W94365  15.156  37.954   4.678
22051W        W94366   4.923  17.694  10.435
22052W        W94367  15.254  18.707   4.809
22053W        W94368  28.509  36.046  14.997
22054W        W94369  39.396  30.582  11.925
22055W        W94370  30.961   5.735  12.454
22056W        W94371  33.939  25.979   3.358
22057W        W94372  38.528  30.570   1.364
22058W        W94373  18.631  32.066   0.250
22059W        W94374   9.687  29.593  14.895
22060W        W94375   2.464  19.083  12.410
22061W        W94376  34.446  35.439  13.920
22062W        W94377  34.391  42.020  13.063
22063W        W94378  21.735  37.901  13.932
22064W        W94379  43.282  36.996  13.029
22065W        W94380   7.821  39.344   2.336
22066W        W94381  42.958  22.571  14.760
22067W        W94382  31.634   6.344   0.862
22068W        W94383  32.416   0.871   4.201
22069W        W94384   3.759  35.459   3.823
22070W        W94385  20.120  13.718  13.927
22071W        W94386  42.371  18.252   0.271
22072W        W94387  35.956   4.373   0.361
22073W        W94388  36.964  31.572   3.223
22074W        W94389  26.077   9.170   2.849
22075W        W94390  17.150  29.931  12.380
22076W        W94391  20.686   4.768  10.453
22077W        W94392   3.835  16.104   2.408
22078W        W94393   9.784   3.914  13.433
22079W        W94394  30.578  25.490  10.542
22080W        W94395  21.145   0.396  12.565
22081W        W94396   5.885   6.917  11.431
22082W        W94397  24.723  11.796   4.159
22083W        W94398  16.163  12.201  13.416
22084W        W94399  21.582  34.868   4.282
22085W        W94400  26.083   6.246  12.831
22086W        W94401  18.679  15.090  11.459
22087W        W94402   0.446  36.935   5.173
22088W        W94403  12.200  28.941   0.386
22089W        W94404  29.561   8.268  13.492
22090W        W94405  12.175  17.306   4.258
22091W        W94406  26.571  21.753  13.943
22092W        W94407  27.152  44.928  12.493
22093W        W94408   9.282   4.858   4.174
22094W        W94409   6.743  30.018   2.198
22095W        W94410  27.969  18.725   1.787
22096W        W94411   0.385  11.764   4.673
22097W        W94412  29.500  36.541  13.318
22098W        W94413  17.684  12.805  11.393
22099W        W94414  11.292  30.424  13.050
22100W        W94415  20.064  25.078   4.173
22101W        W94416  37.920  31.642  11.866
22102W        W94417  41.012  20.058  12.903
22103W        W94418  43.966  14.339   1.711
22104W        W94419  10.682  37.915   3.207
22105W        W94420  14.614   7.379  12.866
22106W        W94421   1.306   5.720   3.765
22107W        W94422  31.980  44.369   3.145
22108W        W94423   5.407  39.878  12.018
22109W        W94424   8.697   5.394  14.456
22110W        W94425   8.700  36.379   3.190
22111W        W94426  26.070  42.479   2.305
22112W        W94427  41.351  42.362  14.318
22113W        W94428   6.262  39.558  12.063
22114W        W94429  33.432  44.319  13.854
22115W        W94430   7.861  30.140   1.220
22116W        W94431   5.365  35.440   4.603
22117W        W94432  22.077  12.639   3.748
22118W        W94433  42.343  30.082  13.897
22119W        W94434  27.593  18.252  11.959
22120W        W94435  16.788   8.382   2.317
22121W        W94436  20.062  22.688   0.929
22122W        W94437   0.492  26.970   4.309
22123W        W94438  14.814  43.004  10.611
22124W        W94439  35.547  20.747  10.914
22125W        W94440  16.744   0.248   2.814
22126W        W94441  11.647  15.188   2.791
22127W        W94442  26.652  38.904   4.667
22128W        W94443   2.806   4.852   0.776
22129W        W94444  38.992  24.632   2.784
22130W        W94445  12.749  10.185   3.258
22131W        W94446  13.819  28.982   0.295
22132W        W94447  28.613  29.593  10.520
22133W        W94448   3.232  22.229  14.894
22134W        W94449  34.465  18.053   0.290
22135W        W94450  27.033  19.212  14.484
22136W        W94451  39.427  41.536   4.256
22137W        W94452  15.778  10.702   1.836
22138W        W94453  35.084  28.662   0.876
22139W        W94454  42.298   3.922   3.863
22140W        W94455  35.978  20.526   1.789
22141W        W94456  13.834   3.743   3.278
22142W        W94457  13.172  34.005  12.426
22143W        W94458  33.028  31.940  13.980
22144W        W94459   7.710   7.308  14.334
22145W        W94460   1.251  42.957   2.195
22146W        W94461  14.667  10.760   2.669
22147W        W94462  19.113  21.041   2.383
22148W        W94463  16.273  11.355   2.762
22149W        W94464  23.125  42.517  10.931
22150W        W94465  28.434  30.597   4.795
22151W        W94466   6.759  28.648  14.027
22152W        W94467  17.217  30.061   3.699
22153W        W94468  43.912  17.272  11.971
22154W        W94469   9.823   7.779  13.399
22155W        W94470   6.811  23.579  11.906
22156W        W94471  30.130  17.588   1.805
22157W        W94472   1.368  28.046   1.438
22158W        W94473   4.846   5.412  12.839
22159W        W94474  32.563  26.620   1.717
22160W        W94475   0.398   9.756  10.107
22161W        W94476  40.897   6.759  14.315
22162W        W94477  26.185  26.624  14.501
22163W        W94478   6.218  40.981  11.060
22164W        W94479  13.730  40.884  10.912
22165W        W94480  10.294   8.338  12.440
22166W        W94481  26.585   2.844  14.802
22167W        W94482  18.596  29.028   1.391
22168W        W94483  35.940  30.478   0.966
22169W        W94484  33.886   6.746   2.351
22170W        W94485  12.666   0.490   3.816
22171W        W94486  27.030  11.638   2.871
22172W        W94487  11.198   2.289  13.016
22173W        W94488  19.603  12.288  11.470
22174W        W94489  11.725  35.042   1.785
22175W        W94490  36.072  35.561   1.744
22176W        W94491  35.091  24.183   1.771
22177W        W94492  24.031  39.968   5.156
22178W        W94493  22.205  29.055  14.896
22179W        W94494   8.683  43.828   0.749
22180W        W94495  28.634  43.890  12.417
22181W        W94496  19.645  26.583  10.642
22182W        W94497  12.857  17.298  14.860
22183W        W94498  43.874  25.970   2.703
22184W        W94499  36.529   6.690   3.753
22185W        W94500  16.078  43.500   0.767
22186W        W94501  18.552  28.610  11.572
22187W        W94502  16.122  16.248   0.901
22188W        W94503  36.542  16.194   4.203
22189W        W94504  36.454  42.461  12.362
22190W        W94505  43.414  34.024   4.239
22191W        W94506  31.574  39.994  13.354
22192W        W94507  40.448  43.472   1.355
22193W        W94508  20.056  12.838   1.389
22194W        W94509  43.848  40.529  14.969
22195W        W94510  38.470  26.083   1.247
22196W        W94511  22.682  29.151  12.031
22197W        W94512  35.514  33.619   2.741
22198W        W94513  41.931  34.875   1.318
22199W        W94514  24.636  25.135   3.185
22200W        W94515  30.156  31.408  11.112
22201W        W94516  21.158   1.310   2.320
22202W        W94517  13.129  44.273   4.770
22203W        W94518  36.431   8.820  12.053
22204W        W94519  39.028  33.025   3.665
22205W        W94520   9.669   0.339  10.900
22206W        W94521  29.652  37.907   2.731
22207W        W94522  10.258   0.455  14.959
22208W        W94523  16.184   8.844   0.468
22209W        W94524  40.413   1.238  14.425
22210W        W94525  22.703  41.997   4.804
22211W        W94526   6.270  10.748   2.287
22212W        W94527  24.033   2.914  13.891
22213W        W94528  39.939   2.931  11.432
22214W        W94529  16.596  38.357   1.365
22215W        W94530  31.428  18.226  10.519
22216W        W94531  26.677  30.582  14.501
22217W        W94532  32.459   2.833   2.214
22218W        W94533   7.828  11.744  12.512
22219W        W94534  24.611  35.992  14.450
22220W        W94535  17.061  16.185   2.672
22221W        W94536  33.420  31.079   1.868
22222W        W94537  27.482   1.842   4.181
22223W        W94538  14.811  19.551  14.016
22224W        W94539  38.964  34.417   2.293
22225W        W94540   0.878  24.985  10.101
22226W        W94541  25.482  21.522  13.961
22227W        W94542  21.545  14.124  14.903
22228W        W94543  41.933   3.724  10.433
22229W        W94544  31.081  41.444  11.892
22230W        W94545  13.820  24.601  14.924
22231W        W94546   7.263  39.873  12.013
22232W        W94547  28.569  25.580   3.237
22233W        W94548   8.662  39.315   0.404
22234W        W94549   0.419  38.879   3.304
22235W        W94550  19.229   0.752   0.922
22236W        W94551   8.185   8.866  13.918
22237W        W94552  13.304  21.241  11.572
22238W        W94553  36.019  26.608  14.469
22239W        W94554  21.563   1.838   2.269
22240W        W94555  11.207  41.821   4.257
22241W        W94556  42.957  44.489  12.537
22242W        W94557   8.219  31.493  14.279
22243W        W94558  15.173  28.991  11.610
22244W        W94559   9.848  38.981  10.524
22245W        W94560  21.757  23.541  12.373
22246W        W94561  14.767  12.694   3.158
22247W        W94562  31.135  34.061  13.389
22248W        W94563  40.053   6.196   3.868
22249W        W94564  31.481  19.256  13.360
22250W        W94565  42.856  11.633  13.525
22251W        W94566  34.497  31.988   4.699
22252W        W94567  26.465   0.900  13.544
22253W        W94568   9.677  13.770   1.878
22254W        W94569  35.089   0.757  14.780
22255W        W94570  17.159  10.794  12.862
22256W        W94571   9.689  23.091  11.913
22257W        W94572  17.123  32.893   4.649
22258W        W94573   1.890  39.399   2.288
22259W        W94574  29.430  22.132  11.457
22260W        W94575  12.144  42.385   4.791
22261W        W94576  17.674  36.352   3.642
22262W        W94577   7.218   8.372   4.762
22263W        W94578  10.353  28.023  14.508
22264W        W94579  40.368  18.648  13.964
22265W        W94580  16.137   3.923   4.710
22266W        W94581   7.787  16.159  13.351
22267W        W94582  23.510  23.534   3.706
22268W        W94583  16.754  40.465  13.842
22269W        W94584  20.266  36.508  13.425
22270W        W94585  21.607  22.597  10.072
22271W        W94586   6.395  23.007   3.208
22272W        W94587  18.287  17.197  13.409
22273W        W94588  44.912  24.576  13.543
22274W        W94589  36.442  20.141  14.341
22275W        W94590  24.045  34.437  13.032
22276W        W94591  22.576   5.196  11.945
22277W        W94592  25.091  43.503  13.860
22278W        W94593  15.579  16.784  14.955
22279W        W94594  30.158  11.142  12.403
22280W        W94595  26.177  26.183   4.145
22281W        W94596   3.351  29.483  14.317
22282W        W94597  22.248  21.043   9.957
22283W        W94598  31.119  17.307   3.275
22284W        W94599  14.778   9.768  13.830
22285W        W94600  16.314  33.382  12.072
22286W        W94601  10.745  32.995  14.978
22287W        W94602   0.455  19.539   3.145
22288W        W94603  43.767   1.777   2.757
22289W        W94604  35.052  43.480   0.955
22290W        W94605  30.624  17.174   0.931
22291W        W94606  17.179  37.568   1.269
22292W        W94607  14.131  42.802  10.898
22293W        W94608   6.373  44.449  14.477
22294W        W94609  41.315   0.902  10.557
22295W        W94610  37.554  42.397  13.940
22296W        W94611  12.215  18.203   4.813
22297W        W94612   4.744   1.864  12.022
22298W        W94613  29.483  34.086  11.922
22299W        W94614  18.150  12.298  12.907
22300W        W94615   8.389   0.390   2.671
22301W        W94616  43.369  33.099   0.365
22302W        W94617   9.336  12.629   2.864
22303W        W94618   5.801  44.436   1.710
22304W        W94619  22.680  32.909   0.364
22305W        W94620  19.257  29.548   3.646
22306W        W94621  14.616  38.000   2.858
22307W        W94622  14.150  41.826  12.841
22308W        W94623  43.006  11.689   5.272
22309W        W94624  41.036  36.531  10.596
22310W        W94625   0.938  25.644   3.335
22311W        W94626  40.043   3.903  11.395
22312W        W94627  16.131  18.220   0.889
22313W        W94628  19.229  27.609  11.008
22314W        W94629  25.146  25.628   4.216
22315W        W94630  44.819  34.445  10.047
22316W        W94631  20.707  13.343  11.081
22317W        W94632  16.117   6.279  14.842
22318W        W94633   8.760  19.156  14.395
22319W        W94634  33.473  33.423   1.335
22320W        W94635   0.478  41.836  13.449
22321W        W94636  40.398  35.503   1.341
22322W        W94637  14.127  41.981  10.888
22323W        W94638  14.226  32.579   3.733
22324W        W94639  43.322  26.181  11.092
22325W        W94640  30.950  25.980  10.890
22326W        W94641  26.507  12.236  13.958
22327W        W94642   4.306  25.485   3.723
22328W        W94643  19.231  30.422  11.386
22329W        W94644  25.184  28.111   1.926
22330W        W94645  39.500   9.337   0.778
22331W        W94646  12.248  19.540   4.154
22332W        W94647  36.492  15.725  13.837
22333W        W94648  30.572  19.081  12.469
22334W        W94649  20.651   5.887   0.377
22335W        W94650  41.447  19.680  14.902
22336W        W94651  33.038  17.652   4.186
22337W        W94652   4.227  21.095  12.535
22338W        W94653  31.436  24.202   1.233
22339W        W94654   3.445  14.710  12.574
22340W        W94655  35.876  16.210   4.187
22341W        W94656  38.517  24.081   1.407
22342W        W94657   3.825   1.892  10.900
22343W        W94658   9.700  23.725  11.395
22344W        W94659  39.535   7.667   0.888
22345W        W94660  13.164  28.459  14.482
22346W        W94661   7.787   5.283   2.760
22347W        W94662  18.598  40.048  14.942
22348W        W94663   6.860  43.950   1.904
22349W        W94664  44.007  18.108  11.528
22350W        W94665  39.946  37.378  12.466
22351W        W94666  16.116  11.759  11.565
22352W        W94667  27.111  25.646   4.644
22353W        W94668   6.218  31.483   4.749
22354W        W94669  19.162  28.615   5.579
22355W        W94670  40.333   6.334   4.122
22356W        W94671   5.923  42.296  12.044
22357W        W94672   9.264   7.310  10.544
22358W        W94673  27.513  28.541  11.075
22359W        W94674  18.050  20.658  11.977
22360W        W94675   9.801  43.775  11.966
22361W        W94676  26.666  19.601  12.042
22362W        W94677  40.955  39.507  13.798
22363W        W94678  13.229   8.217   2.878
22364W        W94679   4.915  42.969  12.467
22365W        W94680   8.221   8.896   2.287
22366W        W94681  17.213  32.507   3.246
22367W        W94682  42.920  33.064   2.266
22368W        W94683  26.489  40.423   1.413
22369W        W94684   1.732  27.972   0.915
22370W        W94685   5.343  30.607   0.950
22371W        W94686  29.073  39.021  14.776
22372W        W94687  23.169  26.586  10.644
22373W        W94688  27.586   4.441  12.077
22374W        W94689  26.558   4.318  12.947
22375W        W94690  35.522   2.360  11.460
22376W        W94691   8.728  26.543   4.200
22377W        W94692  33.027  29.993   0.298
22378W        W94693  10.813   9.835   3.790
22379W        W94694  35.413  13.640  14.988
22380W        W94695   8.655  43.477   4.664
22381W        W94696  19.173  27.672  14.515
22382W        W94697  34.520   4.743  14.312
22383W        W94698  11.728   8.818  11.951
22384W        W94699  32.102  15.310   4.326
22385W        W94700  27.962  19.234  11.515
22386W        W94701  29.463   5.420  13.463
22387W        W94702  36.354  28.467  13.042
22388W        W94703  38.357   5.858  12.436
22389W        W94704  35.887  16.218   4.768
22390W        W94705  28.516  37.490  12.443
22391W        W94706   1.269   1.737  10.496
22392W        W94707  17.745  41.345  10.093
22393W        W94708  15.183  11.270  11.587
22394W        W94709  30.092   6.891   3.843
22395W        W94710  12.172  38.007  11.380
22396W        W94711   0.982  18.787   2.223
22397W        W94712   4.235  25.566  11.424
22398W        W94713   7.346  44.795   2.355
22399W        W94714   1.324  35.456   4.297
22400W        W94715  24.023  31.995  10.010
22401W        W94716  29.135  33.050   3.721
22402W        W94717   4.334  14.752  11.425
22403W        W94718   0.756  17.276  11.465
22404W        W94719   9.154   7.670  10.485
22405W        W94720  29.973  44.399   1.420
22406W        W94721  42.465  10.787   1.384
22407W        W94722  39.419  10.267   3.819
22408W        W94723  36.425  21.027  10.446
22409W        W94724  35.481  11.664  14.982
22410W        W94725  10.696  40.412   2.682
22411W        W94726  12.348  42.005   1.921
22412W        W94727  24.708  22.136   2.188
22413W        W94728   1.316  42.409   2.687
22414W        W94729  41.341   4.367   1.905
22415W        W94730  23.670  15.212   3.214
22416W        W94731  30.580  38.876  13.908
22417W        W94732  22.713  23.697   3.846
22418W        W94733  29.598  38.002  13.516
22419W        W94734  26.569   9.355  13.879
22420W        W94735  24.588   6.700  14.769
22421W        W94736  29.666  41.363  11.055
22422W        W94737  40.947  11.356   1.694
22423W        W94738  17.598  14.660   0.848
22424W        W94739  30.162  25.504  10.929
22425W        W94740   4.727  31.945   3.851
22426W        W94741  37.003  12.144  11.549
22427W        W94742  15.100  42.356   4.733
22428W        W94743  36.420  20.078   4.279
22429W        W94744  36.440  12.225  10.447
22430W        W94745   8.388  38.831   2.767
22431W        W94746   9.215  42.998   1.325
22432W        W94747  18.093   4.402  14.929
22433W        W94748   8.741  11.317   3.763
22434W        W94749  44.830  38.845   0.478
22435W        W94750   8.306  34.960   1.328
22436W        W94751  23.216  36.400   0.940
22437W        W94752  34.906  25.473  11.450
22438W        W94753  25.054  25.679  10.966
22439W        W94754  10.184  21.048   4.249
22440W        W94755  20.144   2.249   2.711
22441W        W94756  26.161  44.847   3.710
22442W        W94757  42.926  33.505   4.655
22443W        W94758   8.716  22.596   3.845
22444W        W94759  34.904  21.736   2.899
22445W        W94760  14.238  36.061  12.492
22446W        W94761   4.357   3.339  10.889
22447W        W94762  12.826  13.792  14.333
22448W        W94763  24.177   8.351  13.426
22449W        W94764  26.475   5.867   0.330
22450W        W94765  23.141  27.973   4.195
22451W        W94766   8.383   4.295  13.830
22452W        W94767  31.454   6.795   3.769
22453W        W94768  28.106  26.162  11.404
22454W        W94769  37.922   3.216   3.345
22455W        W94770  22.109  11.840   1.898
22456W        W94771  10.197  11.741   3.738
22457W        W94772   7.704  44.469  14.018
22458W        W94773   7.340  39.051   4.787
22459W        W94774   6.403  41.832   2.678
22460W        W94775  11.356  34.565   4.756
22461W        W94776  18.610  29.960   3.710
22462W        W94777   3.835  35.867  13.461
22463W        W94778  43.434  30.603  11.124
22464W        W94779  42.951  30.473   2.316
22465W        W94780  22.718  31.572   2.789
22466W        W94781  11.769  20.740   3.364
22467W        W94782  38.836  39.527  13.326
22468W        W94783  43.419  31.970  11.075
22469W        W94784  23.153  10.809   0.326
22470W        W94785  39.549   0.388   1.761
22471W        W94786  35.965  14.821   4.817
22472W        W94787  11.736  12.784   1.701
22473W        W94788   9.845  37.986  11.960
22474W        W94789  17.088  40.523   2.769
22475W        W94790  37.047  25.597   2.816
22476W        W94791  11.656  44.389   1.379
22477W        W94792  38.433  15.711   2.700
22478W        W94793  30.603  21.233  10.991
22479W        W94794  33.074  33.952  12.869
22480W        W94795  10.711  33.922   0.305
22481W        W94796  10.703   7.862  14.453
22482W        W94797  14.212   3.460  12.046
22483W        W94798  13.174  29.592   3.799
22484W        W94799   2.868  27.686  13.796
22485W        W94800   5.891  43.311  13.404
22486W        W94801  17.237  40.918  14.364
22487W        W94802  13.643  30.131  14.898
22488W        W94803  39.373  23.096   9.938
22489W        W94804   6.707  13.718  10.932
22490W        W94805  36.024  30.914   0.911
22491W        W94806  34.102  24.523   3.244
22492W        W94807  34.981   6.836   0.431
22493W        W94808   6.250  16.120   2.403
22494W        W94809   3.788  21.663  11.611
22495W        W94810  36.419  25.193  14.350
22496W        W94811  24.567   0.484   3.209
22497W        W94812  20.753   7.851   0.444
22498W        W94813  31.480  17.189   2.411
22499W        W94814  40.003  23.006   3.225
22500W        W94815  30.048  43.397   2.897
22501W        W94816  20.243  25.987   1.228
22502W        W94817  10.224  19.657   0.849
22503W        W94818  16.699  14.769  13.890
22504W        W94819  25.665  24.211  10.546
22505W        W94820  11.827  21.204  11.426
22506W        W94821   2.466  41.433   3.355
22507W        W94822  37.965   5.313  13.004
22508W        W94823  12.828  37.478   3.700
22509W        W94824   1.849   7.675   3.258
22510W        W94825   1.399  44.454   0.347
22511W        W94826  26.483  12.721   1.352
22512W        W94827  30.521  26.649  13.335
22513W        W94828   8.876  24.097   1.262
22514W        W94829  33.077   3.773  13.049
22515W        W94830  43.970  40.392   2.403
22516W        W94831  37.466  19.625  13.002
22517W        W94832  16.161  10.838  13.962
22518W        W94833  29.658  36.030  11.456
22519W        W94834   3.273   9.820  13.036
22520W        W94835  31.571  14.326   0.309
22521W        W94836  23.655  27.613   0.311
22522W        W94837   1.452  31.932   3.791
22523W        W94838  22.045  31.026   4.354
22524W        W94839  38.017   1.428   1.244
22525W        W94840  30.504  43.417   0.334
22526W        W94841  22.728  24.686   4.805
22527W        W94842  38.937  20.150   0.331
22528W        W94843   0.937  10.226   9.925
22529W        W94844   8.330  38.836   0.247
22530W        W94845  27.048  24.661  11.522
22531W        W94846   3.330  15.264  13.436
22532W        W94847  40.944   9.711  13.997
22533W        W94848  43.825  19.701  14.822
22534W        W94849  11.760   9.166  13.835
22535W        W94850  27.612  17.155  14.816
22536W        W94851  26.955  22.205  12.367
22537W        W94852  42.294  11.190   2.371
22538W        W94853  10.694  10.864   4.114
22539W        W94854  17.660  41.970  12.376
22540W        W94855  21.099  31.596   3.293
22541W        W94856  36.042  35.020   1.255
22542W        W94857  31.136  25.706   3.663
22543W        W94858  43.843  24.632   3.206
22544W        W94859  12.762  37.889   0.462
22545W        W94860  37.465  14.750   3.657
22546W        W94861  12.328  22.729   1.448
22547W        W94862  39.884  18.634  11.936
22548W        W94863  37.565  18.087  11.513
22549W        W94864  14.107  32.024  12.547
22550W        W94865  37.478  14.260   2.296
22551W        W94866  36.418  35.949  12.359
22552W        W94867  31.018   7.770   5.266
22553W        W94868  41.345  28.171  10.520
22554W        W94869  30.990  30.042   0.390
22555W        W94870  38.890  32.434  14.789
22556W        W94871  13.693  25.537   3.304
22557W        W94872  21.019   3.872   1.251
22558W        W94873  22.214  18.655  14.495
22559W        W94874  10.856  43.410   2.894
22560W        W94875  39.952  16.159  11.092
22561W        W94876  28.113  35.459   3.672
22562W        W94877  17.181   7.841   3.259
22563W        W94878  18.232  15.094  11.521
22564W        W94879   5.729  10.291  12.538
22565W        W94880  32.060  22.705   2.683
22566W        W94881  26.644  40.826  14.321
22567W        W94882  12.685  37.375  12.911
22568W        W94883  43.373  22.604  10.148
22569W        W94884  13.730  25.008  12.531
22570W        W94885  27.024   0.916   0.319
22571W        W94886  31.414   9.766   3.384
22572W        W94887  38.367  29.932  10.972
22573W        W94888   1.368  18.229   0.794
22574W        W94889  39.507   7.778   1.423
22575W        W94890   6.198  15.265   2.304
22576W        W94891  28.972   0.422   4.170
22577W        W94892  38.829  29.638   2.743
22578W        W94893  11.347  16.095  13.862
22579W        W94894  42.472  10.261   4.250
22580W        W94895  43.492  29.527   3.751
22581W        W94896  32.041  16.780  14.410
22582W        W94897   6.342  25.584  10.519
22583W        W94898  39.507  38.557   3.154
22584W        W94899  41.034  32.518   2.693
22585W        W94900  43.859  27.677   4.755
22586W        W94901  26.656  43.914  13.813
22587W        W94902  15.657  34.568  10.975
22588W        W94903  38.884  13.614  14.401
22589W        W94904  25.550  40.812  12.580
22590W        W94905  32.890  42.964  14.478
22591W        W94906  33.615   8.232  13.332
22592W        W94907  40.904  14.105  13.343
22593W        W94908  15.307   4.385   2.855
22594W        W94909   9.307  36.934  11.547
22595W        W94910  15.233   1.314   3.347
22596W        W94911  31.014  13.304  10.530
22597W        W94912  37.377  19.066  11.455
22598W        W94913  19.285  34.066  11.466
22599W        W94914  44.756  25.492  12.086
22600W        W94915   3.723  32.140   1.905
22601W        W94916  30.047  38.834  10.483
22602W        W94917  32.636  12.188   3.651
22603W        W94918  11.739   6.915  10.602
22604W        W94919  14.120   2.943  10.574
22605W        W94920  19.189  32.955   1.449
22606W        W94921   4.261  20.624   1.329
22607W        W94922   3.259  18.237  14.943
22608W        W94923  19.770  43.369   1.916
22609W        W94924  44.503  15.760  10.524
22610W        W94925  17.785  39.442  13.064
22611W        W94926  16.221   8.762  12.360
22612W        W94927   6.272   2.431   4.271
22613W        W94928  28.010  16.797  14.855
22614W        W94929  12.674  27.567  13.453
22615W        W94930   1.257  13.703   0.951
22616W        W94931  11.722  35.399  11.996
22617W        W94932   9.741   1.763  12.435
22618W        W94933   0.919  12.719   2.403
22619W        W94934  41.480   3.742   1.770
22620W        W94935  43.825  14.229   3.826
22621W        W94936   2.231  37.400   3.651
22622W        W94937  18.238  31.529   2.745
22623W        W94938  44.261  13.234   0.811
22624W        W94939  28.171  44.792  12.427
22625W        W94940  22.546  16.661  13.323
22626W        W94941  30.488  12.237   1.730
22627W        W94942  33.096  13.301   4.693
22628W        W94943  13.120  36.015  13.488
22629W        W94944  23.020  42.928  10.963
22630W        W94945  25.219  39.528  11.106
22631W        W94946  11.198  40.480   2.183
22632W        W94947  15.655  26.495   2.243
22633W        W94948   6.372   6.833  11.129
22634W        W94949  41.009  28.014  10.452
22635W        W94950  19.269  29.082   2.230
22636W        W94951   9.818   7.193  14.499
22637W        W94952  12.241  13.829  13.887
22638W        W94953  28.015  19.088  12.003
22639W        W94954   2.249  29.042   2.202
22640W        W94955  35.425  26.101   0.449
22641W        W94956  36.526   3.307  11.068
22642W        W94957  22.172  40.801  10.632
22643W        W94958  29.500  18.696  12.019
22644W        W94959   3.946  10.287   2.339
22645W        W94960  31.026  21.167   4.836
22646W        W94961  30.650   0.957   1.811
22647W        W94962  41.979  33.886  12.015
22648W        W94963   6.880   5.710   1.752
22649W        W94964  25.157  35.929  14.839
22650W        W94965   4.754  15.244   3.377
22651W        W94966   7.846  29.059   1.256
22652W        W94967  43.373  30.158  10.413
22653W        W94968  18.061  20.232   1.241
22654W        W94969  36.494  11.136  14.404
22655W        W94970  10.793  42.912  13.876
22656W        W94971  43.283  17.585   1.833
22657W        W94972  18.124  28.004  14.900
22658W        W94973  18.218  38.464   2.720
22659W        W94974  43.447  27.968  14.789
22660W        W94975  22.194  13.327   0.466
22661W        W94976   0.792  39.895   4.683
22662W        W94977  43.920  30.457   2.359
22663W        W94978  43.415  20.091  10.584
22664W        W94979  41.431  35.443  10.489
22665W        W94980  34.417  10.255  11.892
22666W        W94981   6.817  33.925   3.747
22667W        W94982   8.728  18.211  13.969
22668W        W94983   6.379   7.679  12.923
22669W        W94984  27.098  37.429  14.413
22670W        W94985  19.638  16.251  11.885
22671W        W94986  18.091  35.516  11.558
22672W        W94987  22.651  14.821  13.530
22673W        W94988  18.555  40.854   4.618
22674W        W94989  38.029  20.179  13.463
22675W        W94990  44.891  19.046   3.322
22676W        W94991  25.688   5.268   3.744
22677W        W94992  33.911  16.273   4.272
22678W        W94993  36.890   3.217   9.920
22679W        W94994  15.304   7.785  14.844
22680W        W94995  31.041  29.013  12.020
22681W        W94996  24.184   7.868  11.069
22682W        W94997  18.233   8.322  13.472
22683W        W94998  14.794   5.280  10.564
22684W        W94999   2.244   9.700   2.860
22685W        W95000  21.718  17.212  11.485
22686W        W95001  40.016  10.802   0.268
22687W        W95002  42.819  40.538  10.943
22688W        W95003  25.032  30.007  13.411
22689W        W95004  42.032  13.153  12.398
22690W        W95005  37.511   9.661   4.631
22691W        W95006  11.643  24.139   0.798
22692W        W95007  27.183  25.595  11.435
22693W        W95008  26.472  16.260  12.864
22694W        W95009  32.969  19.279  10.996
22695W        W95010  35.079  22.058   0.264
22696W        W95011  18.241  17.564   4.352
22697W        W95012  26.668  32.625  10.499
22698W        W95013  21.582  33.102   3.770
22699W        W95014  11.627  43.862   0.473
22700W        W95015  30.573  23.653  12.952
22701W        W95016  12.754  44.884   4.700
22702W        W95017  37.886  25.539   2.858
22703W        W95018  41.348  14.291   3.239
22704W        W95019   8.701  42.341  11.573
22705W        W95020  41.370   0.828   4.833
22706W        W95021   1.954  34.475   2.270
22707W        W95022  41.941   4.928   4.245
22708W        W95023  23.174  31.565   2.281
22709W        W95024  40.890  38.049   0.418
22710W        W95025  30.621  32.081  10.954
22711W        W95026  43.776  32.489   1.925
22712W        W95027  25.059  33.066   5.247
22713W        W95028   3.743  30.956   4.618
22714W        W95029  12.689  16.615   2.236
22715W        W95030  36.061  28.471   0.262
22716W        W95031  25.023  41.416   4.817
22717W        W95032  24.092  26.625  12.852
22718W        W95033   0.433  26.618  12.053
22719W        W95034  29.471   5.391   3.722
22720W        W95035  43.821  36.842  13.490
22721W        W95036  43.344  17.240   1.354
22722W        W95037  23.100  20.128  11.545
22723W        W95038  30.043  31.123  11.073
22724W        W95039   0.771  22.524  13.365
22725W        W95040   7.175  36.956   0.402
22726W        W95041  29.076  42.948  14.955
22727W        W95042  18.609  16.633   2.734
22728W        W95043  32.429   2.417   2.859
22729W        W95044   8.687  12.622  11.462
22730W        W95045   8.856  29.984  14.283
22731W        W95046  14.292  40.361  12.456
22732W        W95047  43.929  31.643   0.807
22733W        W95048  29.586  39.992  10.899
22734W        W95049  38.070  32.142  11.913
22735W        W95050  11.213  39.842   0.745
22736W        W95051  18.204   1.323  11.110
22737W        W95052  27.624  41.531   0.267
22738W        W95053  13.694  42.395   2.226
22739W        W95054  31.456  30.646  13.913
22740W        W95055   0.370   7.346  10.513
22741W        W95056  37.352  33.436  13.475
22742W        W95057   5.734  16.201  10.618
22743W        W95058  43.841   1.396  13.343
22744W        W95059  41.013   2.864  13.442
22745W        W95060   6.801  35.593   3.159
22746W        W95061  34.986  21.066   3.869
22747W        W95062  10.676  43.850   2.235
22748W        W95063  20.655  25.497  12.385
22749W        W95064  33.910  37.072  10.522
22750W        W95065  42.997   0.397  14.497
22751W        W95066  36.945   0.383  11.093
22752W        W95067  32.629  34.581   0.845
22753W        W95068  13.235  10.287  13.989
22754W        W95069  25.630  13.176  11.904
22755W        W95070  26.700   7.732   0.361
22756W        W95071  24.479  37.942  12.428
22757W        W95072  42.293  23.728   3.152
22758W        W95073  35.096  17.298  14.893
22759W        W95074  29.942   5.392   3.354
22760W        W95075  35.570   2.856  11.453
22761W        W95076  31.533  39.525  10.589
22762W        W95077   2.293  37.836   4.184
22763W        W95078  13.765  24.096   0.460
22764W        W95079  29.118  36.362  12.849
22765W        W95080   6.850  27.478  13.977
22766W        W95081  37.493  42.863  13.368
22767W        W95082  25.607   3.385   2.371
22768W        W95083  22.660  36.473  11.107
22769W        W95084  14.226   7.821  11.022
22770W        W95085  35.482   9.285   0.799
22771W        W95086  39.004  16.117   1.803
22772W        W95087  40.355  36.065  14.846
22773W        W95088   2.459  18.074  10.940
22774W        W95089  25.983   4.894  12.551
22775W        W95090  27.088   6.382   2.217
22776W        W95091  26.068  25.200   1.233
22777W        W95092   3.841  11.169  11.581
22778W        W95093  11.628  14.221   3.309
22779W        W95094  42.488  29.086  12.974
22780W        W95095  31.467  26.661   4.758
22781W        W95096  34.916  30.552  12.467
22782W        W95097  13.134  25.012  12.385
22783W        W95098  36.548  22.502  10.922
22784W        W95099  28.590  15.807   2.785
22785W        W95100  41.887  32.506  10.535
22786W        W95101  19.757   5.844  14.958
22787W        W95102  10.726  39.434  12.935
22788W        W95103  40.529  36.051   4.818
22789W        W95104  24.202  22.218  14.381
22790W        W95105  12.215  21.198  13.503
22791W        W95106  41.949   2.789   4.283
22792W        W95107  43.953   7.753   1.726
22793W        W95108  13.165  34.598   0.452
22794W        W95109  14.642  22.211   3.837
22795W        W95110  19.567  20.629   4.818
22796W        W95111  35.478  20.177   0.943
22797W        W95112  13.733  29.100   1.308
22798W        W95113  13.345  35.571  11.995
22799W        W95114  10.376   0.433   1.242
22800W        W95115   7.857  36.382  11.123
22801W        W95116  21.061  31.065  11.578
22802W        W95117  43.286   6.693   1.762
22803W        W95118   3.446  32.525   3.743
22804W        W95119   0.322  29.577  14.284
22805W        W95120  32.064  40.840  13.905
22806W        W95121  13.720  38.493  11.380
22807W        W95122  44.855   3.440   0.886
22808W        W95123  19.590  17.668   1.926
22809W        W95124   6.273   9.371   3.853
22810W        W95125  29.455  40.962  14.339
22811W        W95126  14.106  23.003  11.054
22812W        W95127  35.396  29.487  14.327
22813W        W95128  15.204  41.400   1.445
22814W        W95129  35.977   5.707  13.491
22815W        W95130  35.481  38.424  11.890
22816W        W95131   9.652  12.776  11.458
22817W        W95132  44.361   2.350  12.866
22818W        W95133  40.933  11.290  13.805
22819W        W95134   1.412  32.890   5.305
22820W        W95135  16.241  24.110   1.251
22821W        W95136  39.436  39.949   4.772
22822W        W95137  13.731   4.299   2.299
22823W        W95138  35.912  25.076  14.431
22824W        W95139   3.311  24.677  13.834
22825W        W95140  10.638   3.262  14.902
22826W        W95141  27.580  29.508  11.990
22827W        W95142  27.103  34.577  12.082
22828W        W95143  23.541  42.002   0.959
22829W        W95144  24.125  19.696   3.727
22830W        W95145  26.965   8.197   4.727
22831W        W95146  18.570  38.026  11.067
22832W        W95147  37.036  43.470  11.968
22833W        W95148  41.945   6.212  11.406
22834W        W95149  23.621  28.137   0.776
22835W        W95150  34.936  11.650   2.241
22836W        W95151  33.467  37.542  12.887
22837W        W95152  28.584  14.333   2.385
22838W        W95153  30.450  12.166  13.035
22839W        W95154   2.259   0.745   1.868
22840W        W95155   7.171  36.090  13.401
22841W        W95156  42.840   4.793  14.813
22842W        W95157   3.941  33.921  12.373
22843W        W95158  32.075  19.138   0.386
22844W        W95159  43.013  37.037  14.825
22845W        W95160  23.573  19.214  12.913
22846W        W95161  36.426  30.011  11.547
22847W        W95162  42.284  15.142   0.830
22848W        W95163  43.942  33.607  13.986
22849W        W95164  14.698   4.906   2.831
22850W        W95165  23.596  36.037   2.186
22851W        W95166  21.662  31.607   1.309
22852W        W95167  29.555  11.355   4.322
22853W        W95168  31.952  40.508  12.476
22854W        W95169  14.333  37.339   2.713
22855W        W95170  41.381  31.949  10.548
22856W        W95171  14.215  26.640   2.793
22857W        W95172  11.237   3.831   0.959
22858W        W95173  40.393  29.657   4.120
22859W        W95174  11.246  21.756   3.225
22860W        W95175  38.008  19.536  13.826
22861W        W95176  35.876  10.850   3.743
22862W        W95177  38.468   1.273  10.906
22863W        W95178  24.521  42.314  12.909
22864W        W95179  24.101  14.130  14.390
22865W        W95180  26.489  40.932   3.244
22866W        W95181  34.098  31.496  11.078
22867W        W95182  27.516   9.887   1.327
22868W        W95183   3.742  32.606   1.821
22869W        W95184  16.656  40.947   4.320
22870W        W95185  22.694  44.443  14.490
22871W        W95186   4.450   8.883  14.464
22872W        W95187  29.640  34.886  12.546
22873W        W95188  28.519  34.537  10.430
22874W        W95189   5.828  25.633  14.784
22875W        W95190  20.676  40.812  11.054
22876W        W95191  21.081  22.576  14.999
22877W        W95192  29.032  32.579   1.272
22878W        W95193  34.936  16.807  10.905
22879W        W95194  15.669  34.070  14.438
22880W        W95195  39.489  43.299  11.909
22881W        W95196  24.607  40.458   0.360
22882W        W95197  19.632  21.110  10.081
22883W        W95198  32.075  33.072   1.420
22884W        W95199  11.161   4.869   2.686
22885W        W95200   9.363  31.131   2.807
22886W        W95201  15.277   1.423  11.578
22887W        W95202   3.369  10.219  13.996
22888W        W95203  38.376  23.149   1.895
22889W        W95204  15.580   1.298  12.350
22890W        W95205  20.663  18.711   3.246
22891W        W95206  24.135   5.422  13.420
22892W        W95207   1.334   5.832   2.252
22893W        W95208  29.963  30.138   1.254
22894W        W95209  43.326  23.576  10.507
22895W        W95210  35.898  15.674   5.225
22896W        W95211  35.578  14.118  13.057
22897W        W95212  11.303  14.715   3.768
22898W        W95213  18.081  27.116  13.949
22899W        W95214   5.216  34.553  13.918
22900W        W95215  14.713  35.572   3.743
22901W        W95216  23.985  29.121  14.282
22902W        W95217   8.754  30.115  11.490
22903W        W95218   6.751  18.228  12.342
22904W        W95219  26.581  40.540  14.933
22905W        W95220  18.122   1.975   4.822
22906W        W95221  10.695  24.035  11.016
22907W        W95222  30.943  38.845   3.229
22908W        W95223   5.827  21.130   3.868
22909W        W95224   4.252  38.846   4.238
22910W        W95225   1.872  13.841   3.746
22911W        W95226  38.399   6.844   1.233
22912W        W95227   5.774  36.498  10.541
22913W        W95228  42.009  22.522   3.378
22914W        W95229   9.374  33.878   3.822
22915W        W95230   9.759  31.983  11.989
22916W        W95231   3.882  30.001   3.854
22917W        W95232  40.840   4.432  12.572
22918W        W95233  24.190  13.178  14.366
22919W        W95234   9.342  26.515   2.837
22920W        W95235   9.208  38.990  13.480
22921W        W95236  24.560  34.062   4.177
22922W        W95237  36.996  40.541   4.171
22923W        W95238  18.051  36.473   4.792
22924W        W95239  30.429  42.515   1.879
22925W        W95240  39.043  31.917   1.367
22926W        W95241  12.125  11.173  12.563
22927W        W95242  28.144  43.422  11.607
22928W        W95243   7.698   5.841  10.496
22929W        W95244  44.991  10.808   2.200
22930W        W95245  25.206  24.484  12.453
22931W        W95246  44.276  21.153  13.807
22932W        W95247  28.966  27.167   0.948
22933W        W95248  17.254  11.690   0.833
22934W        W95249   7.817  15.303   1.335
22935W        W95250  16.643  14.660   4.789
22936W        W95251  17.682   7.269  13.987
22937W        W95252   9.264  38.469  10.497
22938W        W95253  21.251  44.839  12.089
22939W        W95254  19.247  33.460  14.288
22940W        W95255  32.974   2.769   3.711
22941W        W95256   3.245   7.237   0.822
22942W        W95257  15.171  18.635  14.883
22943W        W95258  23.004   6.201  14.893
22944W        W95259  40.317  31.545   0.779
22945W        W95260  18.056   0.945  11.991
22946W        W95261  11.279  26.591   5.124
22947W        W95262   0.979  27.569   4.638
22948W        W95263  36.584  24.006  13.044
22949W        W95264  10.293   4.905  11.448
22950W        W95265  29.533   3.450  12.444
22951W        W95266  12.201  20.180  11.386
22952W        W95267   3.220  38.852   3.857
22953W        W95268  32.587  35.871  14.861
22954W        W95269   6.197  21.582  12.470
22955W        W95270  32.539  22.523  10.618
22956W        W95271  29.599  20.084   0.742
22957W        W95272  23.724  29.430  11.486
22958W        W95273   2.248   7.294   4.756
22959W        W95274  32.572  18.291   4.729
22960W        W95275   2.819  20.692   1.411
22961W        W95276  32.898   3.398  14.405
22962W        W95277   7.214  42.870  14.837
22963W        W95278  11.700  14.796   0.346
22964W        W95279  28.523  38.403  12.502
22965W        W95280  26.979  20.654  11.065
22966W        W95281  19.189  10.351  11.604
22967W        W95282  18.068  23.640   0.894
22968W        W95283  16.090  13.715  13.459
22969W        W95284  18.089  20.230   0.335
22970W        W95285  31.580   2.307  14.926
22971W        W95286   3.361  14.669  11.428
22972W        W95287   6.333   3.262  11.910
22973W        W95288  35.596  26.697   2.763
22974W        W95289  42.350  19.241   0.897
22975W        W95290  29.080  29.151   4.656
22976W        W95291  14.316  14.745   1.804
22977W        W95292  30.597  35.874  11.920
22978W        W95293  33.039  19.176   2.894
22979W        W95294  32.521  35.372  11.111
22980W        W95295  25.060  32.536   3.854
22981W        W95296  28.439   2.906   0.941
22982W        W95297  18.052   8.256  11.900
22983W        W95298  41.369  32.944   0.391
22984W        W95299   7.226   3.739   4.244
22985W        W95300  40.512   8.895  11.512
22986W        W95301  27.507  43.374   0.896
22987W        W95302  18.132  39.507   4.754
22988W        W95303  21.559  20.619  10.447
22989W        W95304  18.071  42.288  12.528
22990W        W95305  13.649   8.829   4.603
22991W        W95306  11.841  41.853  10.958
22992W        W95307   1.258  31.584   3.665
22993W        W95308  33.977  20.071   0.291
22994W        W95309  20.689   9.213   4.142
22995W        W95310  16.315  39.341  14.969
22996W        W95311  37.578  29.175  10.504
22997W        W95312  44.430   1.447   4.774
22998W        W95313  39.839  38.971  14.482
22999W        W95314  10.832   0.896  11.531
23000W        W95315  19.060  26.975   0.472
23001W        W95316  28.119   5.347  11.372
23002W        W95317  29.483  42.364   1.915
23003W        W95318  28.644   2.826   1.753
23004W        W95319   5.695  39.928  11.395
23005W        W95320  25.702  22.596  13.054
23006W        W95321  31.476  38.952  11.445
23007W        W95322   7.772  11.772  10.100
23008W        W95323  29.954   0.471   3.712
23009W        W95324  43.347  11.319   9.529
23010W        W95325  29.426  25.204   4.700
23011W        W95326  28.570  26.987  10.546
23012W        W95327  26.087   7.379  13.371
23013W        W95328  12.816  35.416   1.710
23014W        W95329  10.856   1.742  14.800
23015W        W95330  11.704  29.960   3.733
23016W        W95331  42.996  25.484  13.390
23017W        W95332  13.654  38.016  12.437
23018W        W95333   1.386  13.185  13.020
23019W        W95334  15.690  38.566   2.750
23020W        W95335  36.584  43.808   3.180
23021W        W95336  21.076  25.622   0.731
23022W        W95337  43.440  16.266   3.180
23023W        W95338  38.013   9.393   0.891
23024W        W95339   4.420   6.255   4.302
23025W        W95340  38.969  23.072   1.745
23026W        W95341  25.637  33.436   9.939
23027W        W95342  23.595  21.709  14.463
23028W        W95343  28.500  15.095   1.239
23029W        W95344  31.583  33.407  13.510
23030W        W95345   5.294  21.183   5.104
23031W        W95346  40.897  36.992  13.920
23032W        W95347  40.016  21.046  13.027
23033W        W95348  29.661   9.646   0.399
23034W        W95349  14.739  36.923  14.009
23035W        W95350  31.641  30.555  12.040
23036W        W95351   4.316  36.998  12.926
23037W        W95352   6.335  18.234   0.841
23038W        W95353   3.895  26.123  14.783
23039W        W95354   4.868   1.459  13.856
23040W        W95355  44.793  31.485   2.800
23041W        W95356   2.427  19.764  12.957
23042W        W95357  25.968  38.038   0.743
23043W        W95358   0.743  31.930  10.004
23044W        W95359  14.249  41.491   2.370
23045W        W95360  30.912  39.340   3.229
23046W        W95361  34.481   4.750  12.506
23047W        W95362  18.105   7.363   0.403
23048W        W95363  36.574  27.975   9.979
23049W        W95364  36.398  35.043  10.984
23050W        W95365  30.979   9.335  13.008
23051W        W95366  38.974  11.365   2.257
23052W        W95367  37.424   2.381   2.663
23053W        W95368  44.274   6.832   3.807
23054W        W95369  37.899  35.069   3.786
23055W        W95370   3.911  38.450   0.885
23056W        W95371  24.121  11.356   0.302
23057W        W95372  41.405   5.752  12.420
23058W        W95373  31.005  27.683   4.803
23059W        W95374  24.032   7.211  12.868
23060W        W95375  26.137   1.797  12.043
23061W        W95376  12.676  35.101   0.787
23062W        W95377  38.969  23.207  10.052
23063W        W95378  25.540  28.111   3.820
23064W        W95379  16.762  23.120  14.454
23065W        W95380  34.019  29.465  11.008
23066W        W95381  16.568  36.014  12.050
23067W        W95382  20.709  28.572   2.226
23068W        W95383  19.062  34.467   1.876
23069W        W95384   5.196  25.468   2.888
23070W        W95385   1.779   7.673  14.944
23071W        W95386   8.729  40.931  14.506
23072W        W95387  19.058  28.938  13.966
23073W        W95388  13.618  33.983   0.437
23074W        W95389  11.741  13.279   3.160
23075W        W95390  33.473  17.236   5.278
23076W        W95391  44.274  27.503   0.889
23077W        W95392   8.221  33.479   0.427
23078W        W95393  18.602  31.445  12.826
23079W        W95394  11.648  40.341   2.211
23080W        W95395   8.364  13.600   0.737
23081W        W95396  41.950  39.001   2.738
23082W        W95397  39.460  37.430   0.396
23083W        W95398  29.141  29.117  12.913
23084W        W95399  32.613  16.102  11.598
23085W        W95400  33.430  25.095  12.003
23086W        W95401   5.930  41.979  14.494
23087W        W95402  14.695  18.227   0.815
23088W        W95403   1.352  34.488   3.643
23089W        W95404  35.359  26.957   2.403
23090W        W95405  40.344   2.456   2.350
23091W        W95406  33.115  39.513   2.750
23092W        W95407  40.982  27.111  10.618
23093W        W95408  34.077  18.740  14.324
23094W        W95409  12.135  16.597  12.909
23095W        W95410  14.762  33.977  12.486
23096W        W95411   7.276  26.177  10.516
23097W        W95412  16.300  12.732   0.904
23098W        W95413  43.957  38.074   2.667
23099W        W95414  26.196  28.474   2.742
23100W        W95415  10.780  21.087  13.916
23101W        W95416  33.399  38.979   2.764
23102W        W95417  40.923  41.490  14.511
23103W        W95418  29.603  39.816  12.084
23104W        W95419   5.253  23.996   9.995
23105W        W95420  21.643   2.274   1.907
23106W        W95421  35.049  27.149   1.379
23107W        W95422  42.024  20.250  13.507
23108W        W95423  31.432  34.937   1.228
23109W        W95424  39.877  16.238   3.233
23110W        W95425   8.254  16.101   0.463
23111W        W95426   1.819  36.354  13.334
23112W        W95427  27.052  19.162   3.751
23113W        W95428  22.015  43.361   4.298
23114W        W95429  28.104  24.223   0.398
23115W        W95430  10.856  34.613   2.346
23116W        W95431  13.691  11.752  10.584
23117W        W95432  37.561   8.782   3.719
23118W        W95433  41.941  11.667   0.374
23119W        W95434   4.883  20.187   3.666
23120W        W95435  38.555  44.000   0.870
23121W        W95436   3.461   8.723   4.300
23122W        W95437  14.282  34.882   5.238
23123W        W95438  24.188  32.132  11.940
23124W        W95439  16.163  22.111   1.774
23125W        W95440  16.148  37.548   1.754
23126W        W95441  16.773  31.497   4.636
23127W        W95442  16.089  22.553  13.862
23128W        W95443  44.835  36.021  12.428
23129W        W95444   1.865  39.900   3.637
23130W        W95445  30.004   1.741   3.248
23131W        W95446   2.260  20.571  13.045
23132W        W95447  24.614  36.973  11.414
23133W        W95448   6.321  29.453  13.968
23134W        W95449  27.074  34.405  14.911
23135W        W95450  30.069  15.645  10.112
23136W        W95451  10.145   8.659  10.150
23137W        W95452  17.715   6.229  10.581
23138W        W95453  36.420  21.125   3.193
23139W        W95454  33.491  42.836   3.252
23140W        W95455   4.725  44.948  13.991
23141W        W95456  19.083  41.988   1.902
23142W        W95457  26.175  29.586  13.872
23143W        W95458  14.766  39.986   3.258
23144W        W95459  39.510  29.937  10.992
23145W        W95460   5.427   9.316  12.341
23146W        W95461  26.041  31.576  10.964
23147W        W95462  43.343  44.416  13.840
23148W        W95463  14.787   3.299  13.034
23149W        W95464  31.535  34.431  11.375
23150W        W95465  26.960  40.465   3.758
23151W        W95466  39.030  20.742  13.470
23152W        W95467  21.139  39.914  12.964
23153W        W95468  43.969   6.852   1.386
23154W        W95469  25.566  44.954  14.283
23155W        W95470  34.545  23.141  10.942
23156W        W95471   8.283  41.370  13.382
23157W        W95472  28.570  40.522  14.791
23158W        W95473  29.473  17.132  13.462
23159W        W95474   3.248   3.774  13.827
23160W        W95475  18.167   7.309  12.840
23161W        W95476  30.045  40.508  11.539
23162W        W95477   7.893  28.073   4.350
23163W        W95478  35.496  28.444   0.470
23164W        W95479  18.750  24.512   4.644
23165W        W95480  22.065  37.946  10.571
23166W        W95481  12.763  20.569   0.904
23167W        W95482  39.382  13.814  10.524
23168W        W95483  30.471  31.088   2.402
23169W        W95484  13.205  42.448  12.492
23170W        W95485  39.836  36.037   2.801
23171W        W95486   6.778   1.963  10.981
23172W        W95487  37.014  13.196  13.466
23173W        W95488  25.714  26.121  10.561
23174W        W95489   9.193  11.798   0.823
23175W        W95490  14.204  10.735  12.373
23176W        W95491  26.520  43.325  10.959
23177W        W95492  24.601  27.004  12.469
23178W        W95493   9.664  17.789   3.644
23179W        W95494  41.978  28.069   3.827
23180W        W95495  43.509  23.067   0.811
23181W        W95496  22.996  10.317  14.985
23182W        W95497  44.388  13.338   4.303
23183W        W95498  42.481  40.457   2.705
23184W        W95499   5.202  33.609   0.421
23185W        W95500  37.054  42.813   2.289
23186W        W95501   9.336   3.432  11.597
23187W        W95502  11.797  36.354   0.451
23188W        W95503  41.991  14.635   1.307
23189W        W95504   5.418  32.955  14.362
23190W        W95505  41.417  14.756  11.458
23191W        W95506  26.135  36.497  14.914
23192W        W95507  42.444  13.231  11.930
23193W        W95508  32.466  27.575  10.593
23194W        W95509   4.316  33.958   2.844
23195W        W95510  41.895  35.459   3.147
23196W        W95511  24.143  31.933  14.917
23197W        W95512  36.447   4.740   3.324
23198W        W95513  25.967  18.165   4.341
23199W        W95514   9.844   7.910   4.645
23200W        W95515  31.493  44.765  13.393
23201W        W95516  39.857  32.135  10.915
23202W        W95517  27.468  44.342   2.243
23203W        W95518  21.698  41.397   1.368
23204W        W95519   4.930  15.780   0.851
23205W        W95520  29.934  20.229  12.549
23206W        W95521  10.707   3.239  13.898
23207W        W95522  14.187   5.886  10.035
23208W        W95523  23.154  18.129  10.956
23209W        W95524  11.342  31.608  14.973
23210W        W95525   3.916  28.960   0.736
23211W        W95526  32.142   0.955  12.432
23212W        W95527  27.185  44.798   4.651
23213W        W95528  11.261  22.569   2.358
23214W        W95529  35.039  20.620   4.146
23215W        W95530  23.625   3.360  12.462
23216W        W95531  18.688  21.584  12.008
23217W        W95532  31.020  26.482  13.794
23218W        W95533  36.979   3.823   0.821
23219W        W95534  42.498  20.197  12.955
23220W        W95535  13.196  37.487  12.024
23221W        W95536   2.348  43.781  13.973
23222W        W95537  22.664  31.510  13.420
23223W        W95538  44.284  33.502   5.150
23224W        W95539  43.404   0.817  10.893
23225W        W95540  18.749  24.155  13.845
23226W        W95541   9.741   6.890  14.779
23227W        W95542  39.864  36.014   1.769
23228W        W95543  36.520  27.569  13.832
23229W        W95544   8.300  44.923   0.464
23230W        W95545  21.585  18.554   3.647
23231W        W95546  34.026   4.433   1.732
23232W        W95547   4.754  35.956  12.959
23233W        W95548  25.480  41.524   4.215
23234W        W95549  23.025  44.429   4.310
23235W        W95550  33.055  14.329  14.865
23236W        W95551  37.468   6.215  10.572
23237W        W95552  28.660  11.844  13.978
23238W        W95553  38.526  32.533   4.777
23239W        W95554  39.343  43.342  14.449
23240W        W95555  33.091  14.131   4.169
23241W        W95556  36.925  16.644   1.771
23242W        W95557  41.325  38.496  14.002
23243W        W95558  38.433  10.772  10.569
23244W        W95559  43.803   7.247   3.838
23245W        W95560  24.090  15.595   0.279
23246W        W95561   6.405  24.057  14.363
23247W        W95562  40.908   8.827  13.037
23248W        W95563   5.787  35.867  14.424
23249W        W95564   1.857  28.064   2.808
23250W        W95565   6.196  24.079  14.888
23251W        W95566  25.110  17.266   0.827
23252W        W95567  10.193   5.419   3.677
23253W        W95568  29.460  40.361   2.285
23254W        W95569  25.597  41.482  11.386
23255W        W95570  19.196   7.911  13.929
23256W        W95571   9.172  23.192  14.299
23257W        W95572  22.995   8.893   0.844
23258W        W95573  43.387  10.840  13.545
23259W        W95574  32.024  40.007   3.386
23260W        W95575  33.078  12.669   0.296
23261W        W95576  27.482  11.217   1.258
23262W        W95577  18.276  19.744  12.495
23263W        W95578  37.000  13.676   3.330
23264W        W95579  18.218  41.428   2.321
23265W        W95580   2.408   1.952   2.261
23266W        W95581   4.219  20.545  12.485
23267W        W95582   2.279  18.595   1.848
23268W        W95583  11.833  15.708   9.978
23269W        W95584  33.626   4.223  13.925
23270W        W95585  23.192  35.981   3.725
23271W        W95586  26.651  14.225  12.378
23272W        W95587  27.499  32.096   4.777
23273W        W95588  38.509  41.955   2.844
23274W        W95589  35.462  42.996  11.080
23275W        W95590  37.517  22.143  12.560
23276W        W95591  17.764  40.371   0.836
23277W        W95592  29.161  41.874  11.052
23278W        W95593  36.082  17.750   2.264
23279W        W95594   1.830  43.910  14.925
23280W        W95595   1.756  18.614   0.483
23281W        W95596  29.083  13.722  11.380
23282W        W95597   3.768  32.993  12.448
23283W        W95598  36.590  32.467   1.232
23284W        W95599   1.734  39.977   0.244
23285W        W95600  35.854   3.806  11.406
23286W        W95601   6.867  25.194   4.142
23287W        W95602  20.563  28.447   4.831
23288W        W95603  19.080  38.900  11.558
23289W        W95604  35.393  43.328   3.334
23290W        W95605  44.884  14.277   0.328
23291W        W95606  26.114  32.514   4.671
23292W        W95607  24.512  17.772  12.451
23293W        W95608  17.726  21.704  12.946
23294W        W95609  11.714   1.383  12.359
23295W        W95610  29.162  35.055   3.756
23296W        W95611  24.569   3.725   4.121
23297W        W95612  36.444  25.510   1.415
23298W        W95613  38.042  37.897  14.284
23299W        W95614  35.481  28.533  12.469
23300W        W95615  18.218  15.759   2.706
23301W        W95616  14.180  24.574   4.724
23302W        W95617  11.135   9.670  14.956
23303W        W95618  37.417   4.301   4.617
23304W        W95619  23.082  22.567  11.431
23305W        W95620   4.745  24.615  10.107
23306W        W95621   0.835  30.108   2.836
23307W        W95622  10.742  16.086  12.913
23308W        W95623   9.662  43.478  13.029
23309W        W95624  19.138  24.505   4.228
23310W        W95625  27.060  15.181  11.989
23311W        W95626  39.875  42.012   1.413
23312W        W95627  13.642  33.522  11.433
23313W        W95628  12.163  39.533  13.343
23314W        W95629   8.258  16.774  13.526
23315W        W95630  28.974   1.298  13.536
23316W        W95631  44.277   0.364   4.607
23317W        W95632  42.343   7.766   1.873
23318W        W95633  14.834  36.367  13.905
23319W        W95634  35.059  12.306   1.310
23320W        W95635   1.959  34.568   4.287
23321W        W95636  35.475  16.179  10.894
23322W        W95637  13.313  31.465   4.263
23323W        W95638   7.882  16.803  11.043
23324W        W95639  33.033   7.265   2.257
23325W        W95640   6.706   6.209   1.358
23326W        W95641  33.429  12.296   2.307
23327W        W95642  32.426   6.373   3.229
23328W        W95643   3.280  26.202  11.382
23329W        W95644  13.603   6.740   0.306
23330W        W95645  44.010  26.170  11.072
23331W        W95646  26.002  30.920   2.258
23332W        W95647   3.943  30.471  10.022
23333W        W95648  38.474  33.467  11.914
23334W        W95649  24.718  22.129  13.478
23335W        W95650   4.882  33.416   0.396
23336W        W95651   1.862  27.545   0.266
23337W        W95652  22.996  30.096   1.337
23338W        W95653  35.953  33.448  10.617
23339W        W95654  44.429  12.186  11.492
23340W        W95655  27.675  27.154  11.925
23341W        W95656   1.785  14.101   2.333
23342W        W95657  18.671  43.939  10.429
23343W        W95658  17.143  15.318  12.515
23344W        W95659  34.899   9.814   0.942
23345W        W95660  11.760  11.734  11.392
23346W        W95661   1.742  32.026  13.315
23347W        W95662  20.214  27.637  12.064
23348W        W95663  28.445   6.252   3.298
23349W        W95664  20.663  15.798  12.412
23350W        W95665  34.500  25.555   3.371
23351W        W95666  34.975   0.326  12.901
23352W        W95667   4.744  36.996   4.309
23353W        W95668   2.729   1.277   4.195
23354W        W95669  25.489  37.852  12.966
23355W        W95670  44.386  12.212  10.639
23356W        W95671   4.413  13.729  11.531
23357W        W95672  28.610  43.985  12.093
23358W        W95673  37.542  18.747   3.315
23359W        W95674  24.122   9.704   4.639
23360W        W95675  33.081  10.760  14.358
23361W        W95676   7.411  15.645   1.935
23362W        W95677  38.375  24.631   4.781
23363W        W95678  16.585   6.849  13.975
23364W        W95679   6.676  14.789   1.892
23365W        W95680   2.882  33.126   1.368
23366W        W95681  33.944  33.089   2.407
23367W        W95682   0.832   1.240   1.872
23368W        W95683   6.723   9.723  12.414
23369W        W95684  12.627  27.550  14.323
23370W        W95685  23.590  32.527  12.554
23371W        W95686  43.405  26.107   2.737
23372W        W95687  35.999  21.035   0.813
23373W        W95688   6.855  34.057  14.838
23374W        W95689  29.159  26.685  11.858
23375W        W95690   7.356   8.749  10.559
23376W        W95691  38.528  35.907   1.858
23377W        W95692  43.425  39.549  12.848
23378W        W95693   6.850  12.797  12.052
23379W        W95694  26.481   6.409   5.698
23380W        W95695  40.377   7.385   2.845
23381W        W95696  35.460  23.180  12.096
23382W        W95697  18.727  21.150   1.862
23383W        W95698  32.428  10.694   2.381
23384W        W95699   2.384  11.746  13.845
23385W        W95700  14.685  17.730   3.685
23386W        W95701  36.075  16.125   3.776
23387W        W95702  42.929  27.490   4.256
23388W        W95703  20.750  43.307  13.473
23389W        W95704  11.744   7.321  12.042
23390W        W95705   6.354   4.836  14.923
23391W        W95706  21.645   4.914   4.252
23392W        W95707  17.647   6.816   3.860
23393W        W95708  38.446  15.671  14.407
23394W        W95709  29.947  41.816  14.798
23395W        W95710  41.984  29.568   4.122
23396W        W95711  14.303  35.401  14.001
23397W        W95712  36.429  22.138   0.785
23398W        W95713  13.664  34.872   3.813
23399W        W95714   3.732  40.400  14.969
23400W        W95715  37.397  41.516  11.078
23401W        W95716  35.463  44.803   1.277
23402W        W95717  10.839  24.041  14.290
23403W        W95718   3.892  32.474  11.552
23404W        W95719   2.327  44.296  14.923
23405W        W95720  36.405   8.322  10.485
23406W        W95721  10.282  42.942   2.348
23407W        W95722   7.856  31.517  14.824
23408W        W95723  32.629  27.557  11.937
23409W        W95724   8.846  28.088   2.340
23410W        W95725  19.134  17.670   0.468
23411W        W95726  38.967  23.097  12.970
23412W        W95727   6.800  21.664  11.610
23413W        W95728  31.647  37.885  12.873
23414W        W95729  12.349   2.851  13.426
23415W        W95730   6.873   9.304   4.187
23416W        W95731   7.257  34.055  11.876
23417W        W95732  36.020   1.858  11.103
23418W        W95733  17.701  10.720   2.261
23419W        W95734  19.078  18.549   3.692
23420W        W95735  12.670   8.895  14.360
23421W        W95736  16.116  28.514  13.971
23422W        W95737  44.401  35.944  12.480
23423W        W95738   5.915  24.987   4.270
23424W        W95739  42.406  39.315   3.868
23425W        W95740  11.346  29.076  13.337
23426W        W95741   7.321  31.586   4.621
23427W        W95742  12.786  18.296   3.830
23428W        W95743  25.046  34.924  13.010
23429W        W95744   5.423  14.309   1.790
23430W        W95745  20.071  14.817  12.429
23431W        W95746  13.802  41.332   2.409
23432W        W95747  26.596  30.613   0.954
23433W        W95748  40.378  12.230  12.439
23434W        W95749  30.626   6.741   4.671
23435W        W95750  11.815   2.939   1.835
23436W        W95751  10.776  44.333   0.804
23437W        W95752   8.165   9.669   1.289
23438W        W95753  10.178  29.145  13.883
23439W        W95754  18.719   3.807  13.796
23440W        W95755  36.981  42.789  14.020
23441W        W95756  23.112   4.881   3.239
23442W        W95757  28.562  18.115   0.482
23443W        W95758   5.371  14.773   1.317
23444W        W95759   6.390  17.191  14.923
23445W        W95760   2.415  37.884  13.915
23446W        W95761  35.365  15.813   1.447
23447W        W95762  12.654  13.141   2.411
23448W        W95763  32.936  17.574   0.399
23449W        W95764  41.039  34.966   1.904
23450W        W95765  18.051  27.462  12.501
23451W        W95766  21.034  29.594   5.147
23452W        W95767  43.511  44.847   4.686
23453W        W95768  24.482   1.312  12.506
23454W        W95769   7.811  28.114  11.925
23455W        W95770  40.388  17.263  13.969
23456W        W95771  40.911  15.802   1.789
23457W        W95772  43.889  18.187   0.276
23458W        W95773  19.160  42.376  14.407
23459W        W95774  35.008  39.018   9.969
23460W        W95775  28.671  42.843  10.641
23461W        W95776  22.121  24.224  10.625
23462W        W95777  24.225  39.897   0.311
23463W        W95778   7.765  16.744  14.966
23464W        W95779  41.863  21.142   4.335
23465W        W95780  33.902  11.803   0.420
23466W        W95781  15.693  36.468  10.602
23467W        W95782  26.516   8.835  11.003
23468W        W95783  12.741  19.157  10.572
23469W        W95784   4.240  15.697  13.421
23470W        W95785  12.302  35.099   3.249
23471W        W95786  41.849  17.740   4.134
23472W        W95787  29.539  11.741  12.871
23473W        W95788   5.874  44.979  14.362
23474W        W95789  33.420  31.936   2.897
23475W        W95790  13.193  27.666  11.531
23476W        W95791  27.970   3.445  12.370
23477W        W95792  19.111  22.612  13.467
23478W        W95793  38.489  41.476   4.181
23479W        W95794   5.879  23.225   1.775
23480W        W95795  37.388  30.645   4.757
23481W        W95796  36.423  18.145   4.692
23482W        W95797  34.010  23.527   3.652
23483W        W95798  16.272  19.576  10.990
23484W        W95799  18.238  22.732   0.483
23485W        W95800   4.835  14.741  10.404
23486W        W95801   7.745  19.053   0.752
23487W        W95802  38.978  34.097   0.423
23488W        W95803   6.254  28.145   1.351
23489W        W95804  13.191  33.901   0.808
23490W        W95805  22.098  44.489  10.517
23491W        W95806  42.818  27.581   2.663
23492W        W95807  42.914  18.547   3.355
23493W        W95808  17.597  41.792   2.376
23494W        W95809  31.094   2.827   0.348
23495W        W95810  26.168  38.878  11.947
23496W        W95811  21.210  27.584  10.644
23497W        W95812  10.305  31.110  11.972
23498W        W95813  41.822  28.004   2.294
23499W        W95814  28.586  22.017   4.189
23500W        W95815   7.821  30.109   1.734
23501W        W95816  22.076  35.475  10.474
23502W        W95817  11.342   7.407  12.519
23503W        W95818  37.933   9.307   0.365
23504W        W95819  39.947  42.968   2.735
23505W        W95820   3.856  40.399  14.293
23506W        W95821  30.070   3.724  11.068
23507W        W95822  16.594  22.637  13.340
23508W        W95823  22.014  36.528  14.419
23509W        W95824  10.712  29.599   0.924
23510W        W95825  41.882  43.416  12.497
23511W        W95826  12.283  12.227  11.856
23512W        W95827  20.042  23.998   2.215
23513W        W95828  19.709  38.926   0.781
23514W        W95829  11.867  11.348   0.964
23515W        W95830  29.519   5.776   0.441
23516W        W95831  18.650  15.781   1.810
23517W        W95832  41.919  20.252  12.510
23518W        W95833  21.703  31.436   1.792
23519W        W95834  22.531  11.367  13.879
23520W        W95835  12.218   3.368   2.356
23521W        W95836  38.511  25.000  13.456
23522W        W95837  43.776  20.240  11.395
23523W        W95838  19.049  26.505  10.083
23524W        W95839  20.615   1.856  11.423
23525W        W95840  31.123  43.959  14.491
23526W        W95841  39.490  40.834   1.922
23527W        W95842  29.030  12.244  11.864
23528W        W95843   2.841  14.711  14.460
23529W        W95844  25.202   0.910  12.353
23530W        W95845   8.798  24.582  10.966
23531W        W95846  41.852   7.342  14.836
23532W        W95847  21.020   5.355  13.910
23533W        W95848  36.843  30.416   0.358
23534W        W95849  36.372  26.985  14.914
23535W        W95850  18.557  42.927  11.553
23536W        W95851  40.466  19.203   1.267
23537W        W95852   9.765  43.435   2.245
23538W        W95853  21.072  40.857   2.379
23539W        W95854  31.577  32.480  10.453
23540W        W95855  41.492  13.711   0.470
23541W        W95856  41.971  29.065   0.262
23542W        W95857  20.110  15.192   0.927
23543W        W95858  39.047  15.792  14.426
23544W        W95859  14.759  33.588   1.792
23545W        W95860  27.641   9.191   4.196
23546W        W95861  38.334  35.940   1.210
23547W        W95862  41.360  44.889  12.538
23548W        W95863   4.908  24.980   4.770
23549W        W95864   0.279  42.871  14.312
23550W        W95865   9.160  28.058  11.082
23551W        W95866  11.349  30.006  10.636
23552W        W95867  23.022   3.335   0.387
23553W        W95868   6.333  24.163   5.184
23554W        W95869  30.578   6.773   3.654
23555W        W95870  37.908  15.705   3.382
23556W        W95871  20.036  13.286  14.957
23557W        W95872  14.775  41.036  10.508
23558W        W95873  22.571  42.311  13.539
23559W        W95874  20.605   0.957   0.870
23560W        W95875  41.879  29.529   3.793
23561W        W95876  23.541  22.168  13.978
23562W        W95877  12.320  10.866  10.981
23563W        W95878  13.815  21.516   2.880
23564W        W95879  22.178  44.883   3.758
23565W        W95880  14.630  16.172   3.832
23566W        W95881  13.343  30.975  13.919
23567W        W95882  33.585  10.236   0.283
23568W        W95883   2.285  18.280   3.306
23569W        W95884  16.566  25.029  14.351
23570W        W95885  32.030  39.477   2.349
23571W        W95886  34.879   4.801   0.810
23572W        W95887   3.272  16.678  12.527
23573W        W95888  24.624  18.137   0.965
23574W        W95889  25.039  37.381   3.760
23575W        W95890  35.867  36.060   2.320
23576W        W95891  28.517  19.060  12.546
23577W        W95892  23.633  24.053  10.623
23578W        W95893  24.120  15.778   2.306
23579W        W95894  24.171  36.087   0.849
23580W        W95895  14.218  31.905   3.338
23581W        W95896   4.423  44.824  14.971
23582W        W95897  28.609  20.579  14.895
23583W        W95898  36.387  31.944  10.552
23584W        W95899  11.807   3.881  13.827
23585W        W95900   4.352   4.221   3.186
23586W        W95901  13.264   8.174  11.937
23587W        W95902  18.743  39.938   0.403
23588W        W95903  24.139   9.330   0.946
23589W        W95904  33.016  12.202  13.042
23590W        W95905  42.334   8.196   0.263
23591W        W95906   4.714  33.593  11.878
23592W        W95907   0.827  15.652  13.985
23593W        W95908  29.561   1.794   2.216
23594W        W95909  21.216  42.873  10.981
23595W        W95910  10.763  20.274  12.897
23596W        W95911  35.563  14.162   2.694
23597W        W95912  22.183  40.502  10.415
23598W        W95913  25.169  35.563   0.477
23599W        W95914   9.370   8.339   4.283
23600W        W95915  19.133   7.227   2.218
23601W        W95916  20.659  40.000   1.811
23602W        W95917   8.890  13.117  14.000
23603W        W95918  16.574  21.561  11.412
23604W        W95919  40.478   6.217  11.024
23605W        W95920  14.631   7.768  11.981
23606W        W95921   0.297  44.981   3.279
23607W        W95922  30.954  11.749   1.744
23608W        W95923  31.105  38.533  12.986
23609W        W95924  14.780  34.515   0.903
23610W        W95925  28.611   3.731   4.318
23611W        W95926  30.599   4.757   0.333
23612W        W95927   8.257  21.595   0.477
23613W        W95928  35.099  15.669   4.266
23614W        W95929   1.759  14.649  10.475
23615W        W95930   6.235  14.253  13.857
23616W        W95931  17.100  15.288   4.243
23617W        W95932  31.109  34.481  12.874
23618W        W95933  29.554  42.523   1.272
23619W        W95934  43.774  27.656  13.880
23620W        W95935  27.163  36.948  10.442
23621W        W95936  37.044  20.131   1.935
23622W        W95937  32.467   6.677   2.360
23623W        W95938  28.094  30.130  12.916
23624W        W95939  32.589  26.654   2.844
23625W        W95940  27.631  36.474   4.600
23626W        W95941  25.194  44.317   2.872
23627W        W95942  42.801   1.260   1.326
23628W        W95943  31.639   8.705   0.446
23629W        W95944  31.976  37.894  12.887
23630W        W95945  20.217   4.807   1.445
23631W        W95946  30.480  33.027   4.810
23632W        W95947  26.125  11.176  12.851
23633W        W95948  28.546  28.098   3.792
23634W        W95949   7.318  21.581  12.506
23635W        W95950  11.202   4.718   1.276
23636W        W95951   4.858  16.637  11.920
23637W        W95952   2.402  28.126   1.752
23638W        W95953  29.639  24.022   2.284
23639W        W95954  43.367  33.070   2.662
23640W        W95955  25.986  22.574  13.837
23641W        W95956  41.359  21.679   2.267
23642W        W95957  39.876   1.465   3.263
23643W        W95958  15.796   4.846  10.487
23644W        W95959  44.000   8.222   3.665
23645W        W95960  36.578  14.627   3.181
23646W        W95961  33.922  26.951  10.935
23647W        W95962  22.126  23.096   4.635
23648W        W95963  27.966  40.019   0.797
23649W        W95964   4.885  44.469   0.279
23650W        W95965  26.203  36.006   0.919
23651W        W95966   2.408  37.064   0.245
23652W        W95967  32.625  43.414  14.445
23653W        W95968   0.494   8.884   3.827
23654W        W95969  21.555   8.789   0.951
23655W        W95970   3.901   3.872  13.024
23656W        W95971  27.098  40.469   2.687
23657W        W95972  26.551  40.023  13.952
23658W        W95973  42.492  25.014  13.845
23659W        W95974   5.753   9.280  14.276
23660W        W95975  44.287  23.147   0.865
23661W        W95976  11.783  15.581   0.955
23662W        W95977  26.553   4.247   5.135
23663W        W95978   0.811  24.609  13.537
23664W        W95979  33.101  37.495  13.441
23665W        W95980  10.344   4.348  11.879
23666W        W95981  41.920   9.210   0.770
23667W        W95982  42.518  24.658   2.760
23668W        W95983   4.827   5.708  12.453
23669W        W95984  17.793  37.430   1.399
23670W        W95985  44.390  24.033   4.637
23671W        W95986  22.223   4.730  13.342
23672W        W95987  32.534  35.504  14.839
23673W        W95988  35.900   0.483  11.009
23674W        W95989  26.527  10.242   1.735
23675W        W95990  40.381  39.927  10.052
23676W        W95991  12.627  25.966   4.208
23677W        W95992   6.779  17.116  11.430
23678W        W95993  33.901  21.259   1.713
23679W        W95994  44.464   4.230  10.976
23680W        W95995  41.293  13.267  10.913
23681W        W95996  38.471  33.590   4.264
23682W        W95997  12.631  24.074  10.622
23683W        W95998  32.390  19.620  13.547
23684W        W95999   4.353   5.388  13.407
23685W        W96000  19.184  40.368  10.057
23686W        W96001  11.645  39.030  11.909
23687W        W96002  18.260  28.487  11.581
23688W        W96003  27.474  11.291   4.251
23689W        W96004  35.367  25.617  13.485
23690W        W96005   1.737  42.327   1.905
23691W        W96006  44.433  10.674  10.461
23692W        W96007  30.640  21.133   1.320
23693W        W96008  40.379  37.427   2.190
23694W        W96009   6.791  25.973  14.808
23695W        W96010   0.875  13.694  11.407
23696W        W96011   9.800  42.917  13.857
23697W        W96012  19.194  11.262  13.335
23698W        W96013  28.519  20.075   4.130
23699W        W96014  12.671  17.092   3.324
23700W        W96015   9.650  42.989   4.624
23701W        W96016   7.893  44.502   4.186
23702W        W96017  41.421  18.234  10.980
23703W        W96018  35.588  43.340  11.954
23704W        W96019  17.138  44.319  14.953
23705W        W96020   7.886  30.998  14.878
23706W        W96021  21.198  34.984   0.427
23707W        W96022  24.202   0.472  14.801
23708W        W96023  30.932  42.814   0.836
23709W        W96024  15.191  29.612  14.285
23710W        W96025  11.184  40.050  14.286
23711W        W96026  42.293  20.186   0.275
23712W        W96027  34.043   6.353   1.878
23713W        W96028  41.848  27.161   1.923
23714W        W96029  19.109  34.525  11.861
23715W        W96030  30.932   1.917   5.247
23716W        W96031  13.303  21.087  12.017
23717W        W96032  42.940  12.838   2.225
23718W        W96033   1.880  32.933  11.046
23719W        W96034  29.558   3.882  12.928
23720W        W96035   1.968  36.407   4.798
23721W        W96036  23.678  14.327   3.191
23722W        W96037  25.158   2.328  14.399
23723W        W96038  20.226  32.493  13.404
23724W        W96039   0.447  17.738   4.780
23725W        W96040  32.892  21.633   0.293
23726W        W96041  37.386  41.350  13.029
23727W        W96042  30.610  13.237   0.912
23728W        W96043  29.439  20.758   3.837
23729W        W96044  18.119   1.455  14.492
23730W        W96045  19.725  24.987   2.790
23731W        W96046  10.807  27.533   1.423
23732W        W96047  30.073  42.314  11.541
23733W        W96048   1.294   4.782   2.743
23734W        W96049   1.779  42.399  12.375
23735W        W96050   4.397  24.707   1.289
23736W        W96051  24.121  21.138  12.016
23737W        W96052  10.696  42.776   2.695
23738W        W96053  17.762  24.014   1.281
23739W        W96054   4.879  32.106   0.266
23740W        W96055   3.903  14.338  11.419
23741W        W96056   4.790  27.010   1.234
23742W        W96057   4.307  19.642  13.326
23743W        W96058   7.248   8.717   3.814
23744W        W96059  33.093  22.049  14.322
23745W        W96060  10.670  24.217   2.362
23746W        W96061  27.625  10.703   0.443
23747W        W96062  14.634   1.886  12.385
23748W        W96063   7.274  19.705   1.817
23749W        W96064  21.703  37.900  11.426
23750W        W96065   1.962  37.024  10.458
23751W        W96066  40.960  23.626   3.224
23752W        W96067  44.962  43.322   0.322
23753W        W96068   4.812   3.935  12.530
23754W        W96069  16.113  38.849   2.178
23755W        W96070  38.978  11.231  10.524
23756W        W96071   7.911  14.268  11.373
23757W        W96072   6.248  26.975   1.738
23758W        W96073   2.299  28.127  12.492
23759W        W96074   2.963   5.821  14.966
23760W        W96075  37.544  11.747   3.828
23761W        W96076  29.008   8.798  12.452
23762W        W96077  40.454  23.652  12.439
23763W        W96078  19.065  41.347   2.895
23764W        W96079   8.829  40.967  14.007
23765W        W96080  10.760  19.578  14.828
23766W        W96081  20.256  21.231  13.798
23767W        W96082  37.382  35.392   1.851
23768W        W96083  24.532  42.805  12.480
23769W        W96084  34.561  19.160  14.905
23770W        W96085  31.529   4.417   0.289
23771W        W96086  11.205  39.375   2.734
23772W        W96087   0.804   9.305   3.238
23773W        W96088  11.699  11.649   2.254
23774W        W96089  35.858  24.495  13.314
23775W        W96090   5.795  10.780   1.926
23776W        W96091  29.016  23.157  12.400
23777W        W96092  17.788  17.582   2.704
23778W        W96093   8.331   8.183  14.858
23779W        W96094   7.905  37.359  12.533
23780W        W96095  30.095  39.040  14.028
23781W        W96096  40.991   5.859  14.998
23782W        W96097   3.811   5.322   2.377
23783W        W96098  24.223  41.826   1.801
23784W        W96099   0.446  31.936   0.287
23785W        W96100   1.878   5.382   2.202
23786W        W96101   4.417   6.895   2.243
23787W        W96102  24.597  19.150   3.665
23788W        W96103  34.573   9.292  13.983
23789W        W96104  12.338  11.298  12.022
23790W        W96105  42.832  39.055  11.114
23791W        W96106  26.630   0.322  14.851
23792W        W96107  31.486  24.712   0.419
23793W        W96108  10.803  10.365  11.863
23794W        W96109  32.494  31.973   2.314
23795W        W96110  28.481  29.660  12.443
23796W        W96111  25.062  35.873   3.198
23797W        W96112  34.377   0.850  10.556
23798W        W96113   5.300   7.374  10.609
23799W        W96114  10.275  35.936   3.271
23800W        W96115  40.001  26.591   1.440
23801W        W96116  10.837   3.374  11.574
23802W        W96117  24.525  25.486  14.810
23803W        W96118  27.190  20.529  14.969
23804W        W96119  22.556  37.369   3.382
23805W        W96120  22.584  15.676   0.286
23806W        W96121  35.582  19.562  14.790
23807W        W96122  25.656  40.392   1.440
23808W        W96123  43.434  28.996  14.773
23809W        W96124  23.706  41.515  13.494
23810W        W96125  11.193   6.869   1.225
23811W        W96126   7.749   6.850   0.807
23812W        W96127  27.134  35.969   3.284
23813W        W96128  17.129   2.947   1.724
23814W        W96129  17.104  35.983   2.696
23815W        W96130   1.427  19.216   0.805
23816W        W96131  40.469  35.481  14.414
23817W        W96132  10.159   9.279  13.871
23818W        W96133  27.532  16.661  11.953
23819W        W96134  33.055  30.487  12.092
23820W        W96135  44.310  38.951   4.231
23821W        W96136  34.004  30.538  12.472
23822W        W96137   1.795  21.540   4.612
23823W        W96138  15.179   9.340  14.499
23824W        W96139  19.104  36.843   2.806
23825W        W96140   1.296   3.273   4.281
23826W        W96141   6.834  17.720  11.373
23827W        W96142  30.538  16.168  14.982
23828W        W96143   4.927  30.518  13.507
23829W        W96144  29.450  16.175  12.376
23830W        W96145  20.535   9.772  12.997
23831W        W96146  23.046  34.099  11.927
23832W        W96147   4.870  28.165  13.963
23833W        W96148  32.965  28.945  12.484
23834W        W96149   6.755  33.382   3.691
23835W        W96150  25.667  38.535  10.986
23836W        W96151  13.262  34.891   1.435
23837W        W96152  31.605  11.293  12.994
23838W        W96153  14.780  34.099  13.792
23839W        W96154   1.407  33.509   3.814
23840W        W96155   8.881  33.943   0.376
23841W        W96156   2.249  13.710   1.845
23842W        W96157  15.636  39.479  14.866
23843W        W96158  31.453  37.040  13.505
23844W        W96159   8.262  16.764   3.675
23845W        W96160  16.313  19.762  10.504
23846W        W96161   3.420  40.828  14.783
23847W        W96162  39.929  35.860  10.616
23848W        W96163  38.524  23.517   1.793
23849W        W96164  38.379   2.878  12.083
23850W        W96165  20.638   4.828   2.807
23851W        W96166  13.175   9.754   1.820
23852W        W96167  42.407  14.150  14.840
23853W        W96168  24.008  13.719  10.545
23854W        W96169   8.215  40.364  14.491
23855W        W96170  31.154  36.446  11.090
23856W        W96171  21.161  34.576  14.969
23857W        W96172  25.979  16.570  13.363
23858W        W96173  28.444  13.810   2.897
23859W        W96174  39.367  13.114   4.208
23860W        W96175   8.831   1.926   3.168
23861W        W96176  13.653  21.116   2.725
23862W        W96177  18.065  42.374  10.979
23863W        W96178  27.505  40.313  12.097
23864W        W96179  37.411  29.580   1.706
23865W        W96180   8.209  26.580   5.204
23866W        W96181  26.073  16.652  11.607
23867W        W96182  29.467  12.789  12.449
23868W        W96183   0.902  12.835  12.092
23869W        W96184  33.612  36.375   1.293
23870W        W96185  44.324   2.408  10.525
23871W        W96186  42.860  30.429   0.750
23872W        W96187  19.087   9.692   4.273
23873W        W96188   2.811  37.850  10.597
23874W        W96189   7.747   5.273   0.753
23875W        W96190  35.065  12.151  14.013
23876W        W96191  11.796  19.222  14.028
23877W        W96192  17.781  40.814   1.809
23878W        W96193  28.471  29.159  10.956
23879W        W96194  20.112  42.363   3.376
23880W        W96195  24.535  15.610  10.103
23881W        W96196  25.674   6.718   0.944
23882W        W96197  38.972  26.657  10.949
23883W        W96198  40.992  14.819  10.512
23884W        W96199   2.894  11.729   4.833
23885W        W96200  11.303  15.594  10.898
23886W        W96201  32.994   5.897   0.826
23887W        W96202  44.886  35.495   2.898
23888W        W96203  22.031  21.075  13.015
23889W        W96204  24.200  10.224   4.243
23890W        W96205  37.845  26.077   4.818
23891W        W96206   8.702   2.380   4.355
23892W        W96207   5.269   6.330  14.360
23893W        W96208   4.231  24.067   0.921
23894W        W96209   8.663   5.199   2.317
23895W        W96210  38.549  27.117   5.806
23896W        W96211  23.020  16.607   4.611
23897W        W96212  30.039  42.776   4.598
23898W        W96213  33.573  25.683   1.794
23899W        W96214  28.014  18.272   3.746
23900W        W96215  11.851   5.761  10.547
23901W        W96216  34.556  14.647  11.556
23902W        W96217  42.475  42.814   4.597
23903W        W96218  39.513  10.720  14.979
23904W        W96219  21.143   5.832  14.975
23905W        W96220  36.883   2.443   4.772
23906W        W96221   0.879  28.671   4.650
23907W        W96222  35.008  39.966  10.089
23908W        W96223   3.892  17.754  11.494
23909W        W96224   1.884   6.766  11.508
23910W        W96225   3.425  20.042   1.736
23911W        W96226   2.893   0.823   4.659
23912W        W96227  43.879  38.819  12.892
23913W        W96228  15.113  16.083  13.827
23914W        W96229  34.077   5.902  12.533
23915W        W96230  34.466  20.270   0.823
23916W        W96231  15.719  29.950  11.454
23917W        W96232  19.691  23.089   0.306
23918W        W96233   4.350  18.569   2.788
23919W        W96234  24.516   2.753  12.382
23920W        W96235  11.857   7.261  10.634
23921W        W96236  21.236  32.045   5.217
23922W        W96237  33.394  25.633  13.850
23923W        W96238  25.087  28.509  13.036
23924W        W96239   6.364   4.336  12.875
23925W        W96240   4.301  19.715  11.576
23926W        W96241  33.969   9.743   2.359
23927W        W96242   2.440  35.868  11.956
23928W        W96243   7.417  23.685  12.864
23929W        W96244  43.796  24.623   1.248
23930W        W96245  34.532  44.436  14.348
23931W        W96246  27.049  16.135   1.404
23932W        W96247  20.761  40.047  13.951
23933W        W96248  15.131  19.716   1.910
23934W        W96249  20.634   4.748   3.844
23935W        W96250  28.937   8.279   2.332
23936W        W96251  21.613   2.802  13.877
23937W        W96252  19.107  44.841   3.787
23938W        W96253   0.262   7.878   2.893
23939W        W96254  29.624   4.919  13.473
23940W        W96255  37.955   5.765  10.970
23941W        W96256  38.400  41.792   1.338
23942W        W96257  36.017  12.741  13.455
23943W        W96258  43.929  44.949  10.975
23944W        W96259  35.947  18.295   1.855
23945W        W96260  10.295  29.946   1.401
23946W        W96261  35.908  10.147  11.899
23947W        W96262  15.313  39.348  13.360
23948W        W96263  38.353  10.762   3.325
23949W        W96264  17.715  25.117   1.721
23950W        W96265  21.026  18.294  10.594
23951W        W96266  11.638  14.657  14.969
23952W        W96267  10.360   8.793  12.549
23953W        W96268  24.024  30.921  14.340
23954W        W96269   5.393  38.880   3.165
23955W        W96270  24.125  12.348  14.429
23956W        W96271   8.386   6.382   4.150
23957W        W96272   2.314  21.196   0.900
23958W        W96273  25.532  17.702  11.878
23959W        W96274  29.940   2.961   3.350
23960W        W96275  23.689  17.763  13.791
23961W        W96276  11.751  18.234   3.729
23962W        W96277  42.893  27.459  13.335
23963W        W96278  28.081  24.506  13.035
23964W        W96279  44.317   4.276   0.278
23965W        W96280  11.131   7.198  13.886
23966W        W96281   6.380  18.618   3.710
23967W        W96282  25.492  22.103   4.746
23968W        W96283  33.038   3.231   1.287
23969W        W96284   7.350  39.386   3.196
23970W        W96285  36.408  11.192   4.644
23971W        W96286  30.925  21.210   0.782
23972W        W96287   3.869  42.804   3.800
23973W        W96288  13.788  17.210   4.606
23974W        W96289  20.044  26.634  11.876
23975W        W96290  12.256  38.531  14.502
23976W        W96291  40.410  18.647   0.924
23977W        W96292   7.384  31.549   3.299
23978W        W96293  10.355  11.160  14.024
23979W        W96294   6.741  35.072   4.827
23980W        W96295   3.328  38.418  10.957
23981W        W96296  44.864  29.068  14.998
23982W        W96297  40.532  42.350  14.817
23983W        W96298  16.207   8.755  11.863
23984W        W96299   9.849  11.175   1.413
23985W        W96300  42.475  15.116   2.220
23986W        W96301  20.711   3.757  14.829
23987W        W96302  37.394  25.125   0.332
23988W        W96303   7.703  25.662   0.938
23989W        W96304  38.546   5.799   3.213
23990W        W96305   6.858   4.334  10.940
23991W        W96306  37.393  26.576   0.392
23992W        W96307  14.814  37.984   3.701
23993W        W96308  16.283  24.657  11.942
23994W        W96309  44.817  16.094   4.815
23995W        W96310   4.406  18.074   3.671
23996W        W96311  39.884  36.033   4.254
23997W        W96312  33.959  35.927  10.513
23998W        W96313  39.353  11.730  13.879
23999W        W96314  42.803  10.871   0.272
24000W        W96315  27.464  40.457   3.779
24001W        W96316  14.184  15.712  13.452
24002W        W96317  14.773   3.233   4.710
24003W        W96318  27.588  28.438   3.210
24004W        W96319  29.135   5.707   3.868
24005W        W96320   6.224  23.082  14.330
24006W        W96321  35.888  27.677  11.996
24007W        W96322  28.130  32.419   3.201
24008W        W96323  39.886  22.526   1.796
24009W        W96324  32.030   9.694   3.760
24010W        W96325  41.016   3.932   3.354
24011W        W96326   0.359  43.020   4.793
24012W        W96327   4.380  43.907   1.860
24013W        W96328  22.570  12.825   3.691
24014W        W96329  39.893  21.714  11.960
24015W        W96330   5.428   1.916   2.332
24016W        W96331  25.580  39.896  14.801
24017W        W96332  12.652  24.223   2.394
24018W        W96333   7.184  13.263  11.503
24019W        W96334  25.119  23.006   3.833
24020W        W96335  14.142   1.464   0.746
24021W        W96336  14.747  23.658  13.919
24022W        W96337  30.495  31.580   0.370
24023W        W96338  34.566  10.808  14.314
24024W        W96339  31.494  14.680   0.946
24025W        W96340  14.739  33.932   3.826
24026W        W96341  16.571  35.402  10.421
24027W        W96342  25.172  23.705   2.365
24028W        W96343  37.453  38.973  12.082
24029W        W96344   5.832  21.182  14.889
24030W        W96345  24.491  41.295   1.336
24031W        W96346  43.362  28.008  10.638
24032W        W96347  19.707  30.128   0.775
24033W        W96348  28.438  34.058   4.624
24034W        W96349  16.168  17.254  13.940
24035W        W96350   0.467  22.175   4.682
24036W        W96351  38.536  40.321  11.593
24037W        W96352  44.930  25.686  13.389
24038W        W96353   1.781   6.266  12.468
24039W        W96354  37.980  21.661   3.335
24040W        W96355   6.764  10.707  10.960
24041W        W96356  15.675  15.610   2.199
24042W        W96357   0.957  31.626  13.050
24043W        W96358  15.097   0.365   0.460
24044W        W96359  39.339  42.999   1.361
24045W        W96360  16.184  40.935   2.319
24046W        W96361  22.583  11.712  12.365
24047W        W96362   5.881  12.674  12.513
24048W        W96363  16.571  11.197  11.936
24049W        W96364  22.047   5.355   2.861
24050W        W96365  25.033  44.766  14.838
24051W        W96366   8.739  41.851  12.026
24052W        W96367  40.454   1.483  13.384
24053W        W96368  30.608  35.961   0.729
24054W        W96369  34.101  42.990  10.119
24055W        W96370  22.541   8.765  14.967
24056W        W96371   0.849  32.463   1.706
24057W        W96372  23.101  17.797   1.781
24058W        W96373   9.365   2.447   4.290
24059W        W96374   0.947  17.560  10.428
24060W        W96375  31.029  37.381   2.386
24061W        W96376  19.091   1.285   0.794
24062W        W96377   3.865   7.880   3.294
24063W        W96378   5.729  23.170   1.309
24064W        W96379  12.181   3.281  13.824
24065W        W96380  17.718  13.636   0.734
24066W        W96381  38.397  24.120   4.333
24067W        W96382  31.952  24.973   4.797
24068W        W96383   9.723  25.581  12.902
24069W        W96384  29.494  15.202  12.994
24070W        W96385   1.438  40.359  12.954
24071W        W96386  39.325  42.871   3.663
24072W        W96387  13.135  27.184   3.750
24073W        W96388  31.520   6.734   4.805
24074W        W96389  10.865  44.844  10.943
24075W        W96390  31.051  35.525   3.774
24076W        W96391   1.241  29.562  14.375
24077W        W96392  10.165   0.844  14.870
24078W        W96393   1.834  35.484   0.752
24079W        W96394   9.850  12.706  12.975
24080W        W96395  17.760   0.883  11.120
24081W        W96396  32.986  22.653   2.310
24082W        W96397  12.299  14.226  14.451
24083W        W96398  31.415  10.242  14.341
24084W        W96399  28.658  34.902  11.591
24085W        W96400  38.543  34.908   2.417
24086W        W96401  30.572  28.935  14.832
24087W        W96402   0.366  37.830  13.973
24088W        W96403  18.208  41.353   2.727
24089W        W96404  16.259   0.928  14.478
24090W        W96405  18.167   0.489   3.776
24091W        W96406  27.630  33.579  12.041
24092W        W96407  13.748  40.972   2.672
24093W        W96408  12.352  39.512   2.191
24094W        W96409   5.734  13.115  10.922
24095W        W96410  43.964  14.633  13.997
24096W        W96411  39.453  15.274  13.318
24097W        W96412  10.795  30.944   2.783
24098W        W96413  32.636  13.191  13.046
24099W        W96414   0.917  13.642   4.687
24100W        W96415   0.987  36.385  13.030
24101W        W96416   2.281  41.402  10.429
24102W        W96417  16.147  22.712   2.752
24103W        W96418  40.359  18.269  11.375
24104W        W96419  30.620  39.500  11.416
24105W        W96420  28.093  17.146  14.490
24106W        W96421  34.375  29.460  13.031
24107W        W96422  38.991  42.526   3.666
24108W        W96423  18.127  21.564   1.217
24109W        W96424  38.861   2.312   3.714
24110W        W96425  39.990  27.943   4.205
24111W        W96426  17.657  41.903   1.238
24112W        W96427  44.821  30.627  12.859
24113W        W96428  25.573  18.652   4.139
24114W        W96429  18.196   8.715   4.806
24115W        W96430  14.683  34.042   1.915
24116W        W96431  12.852  14.174   4.758
24117W        W96432  26.571  24.030  14.906
24118W        W96433  44.302  38.519   2.689
24119W        W96434  19.060  19.184   2.294
24120W        W96435   3.845  36.531  14.373
24121W        W96436   1.896  10.243   1.399
24122W        W96437   6.689  43.962  13.475
24123W        W96438   3.750  26.069   4.761
24124W        W96439  20.133   7.238   4.280
24125W        W96440  42.847   6.896  14.490
24126W        W96441  17.788  32.086  13.993
24127W        W96442  33.415  37.518   0.298
24128W        W96443   6.374  24.005  11.973
24129W        W96444  22.518  22.206  10.456
24130W        W96445  13.135   9.731   0.259
24131W        W96446  18.101  41.986  11.990
24132W        W96447  24.548   7.269  11.863
24133W        W96448  32.526  37.393  12.954
24134W        W96449  34.983  36.083   3.847
24135W        W96450  20.693   1.976  14.973
24136W        W96451   4.739  15.154  13.457
24137W        W96452  33.056  25.149   1.847
24138W        W96453   4.771  14.299  12.358
24139W        W96454  18.638  14.328  14.796
24140W        W96455  17.679   8.738  13.373
24141W        W96456  40.842  40.310  10.915
24142W        W96457  44.397   3.805  14.489
24143W        W96458  27.968  37.549   1.332
24144W        W96459  25.629  12.135  14.933
24145W        W96460   9.795  42.367   4.203
24146W        W96461  26.597  42.780   1.369
24147W        W96462  27.082  24.659   1.902
24148W        W96463  15.250  12.315   0.446
24149W        W96464   6.911  31.917   0.850
24150W        W96465   8.871  13.170   5.142
24151W        W96466   9.700  24.559  11.525
24152W        W96467  13.181  38.021   0.404
24153W        W96468  35.502  37.915   3.801
24154W        W96469  19.554   2.342  12.903
24155W        W96470  24.482   8.764   1.890
24156W        W96471  31.083  44.388   3.730
24157W        W96472  20.709  38.415  10.595
24158W        W96473  43.465   1.314  14.491
24159W        W96474   5.691  28.462   3.644
24160W        W96475  32.419   7.265   3.768
24161W        W96476   8.259   2.911  12.045
24162W        W96477   8.258  27.448  14.005
24163W        W96478  22.591  27.531  12.436
24164W        W96479  10.825  30.121  13.970
24165W        W96480  24.194  41.856  12.848
24166W        W96481  19.546  27.512  12.024
24167W        W96482   9.796  25.508  14.918
24168W        W96483   4.306   8.297   0.785
24169W        W96484   2.826   1.420   2.211
24170W        W96485  38.064  32.001  10.909
24171W        W96486   4.365  40.457   2.737
24172W        W96487   6.334  31.950  13.351
24173W        W96488  34.524  20.648   0.360
24174W        W96489  43.975   5.924  13.496
24175W        W96490  33.881  15.205  10.590
24176W        W96491  44.421  39.914  10.005
24177W        W96492   3.790  18.234  14.383
24178W        W96493  31.981  29.532   2.836
24179W        W96494  38.827  38.446  12.973
24180W        W96495   4.774  30.092  12.952
24181W        W96496   1.773  39.502   3.300
24182W        W96497  19.224  41.413  11.052
24183W        W96498  42.413  14.690   4.167
24184W        W96499  44.993  14.725  14.502
24185W        W96500  12.177   4.312  13.009
24186W        W96501  41.876  13.319   3.673
24187W        W96502  37.991   7.742  12.348
24188W        W96503  37.542  39.393   3.165
24189W        W96504  19.761  20.144  11.425
24190W        W96505   5.436  39.986   2.682
24191W        W96506  28.130   9.239   4.332
24192W        W96507   1.386  18.128  11.104
24193W        W96508   0.988  21.209  12.356
24194W        W96509   7.279  10.697  14.783
24195W        W96510  14.149  40.468  13.390
24196W        W96511   7.336  15.227   4.747
24197W        W96512  17.648  42.482  11.059
24198W        W96513  10.221   2.342   1.875
24199W        W96514  44.419  36.549  12.047
24200W        W96515  41.787  15.130   2.186
24201W        W96516  33.511  10.682   0.876
24202W        W96517  12.758  17.097  13.355
24203W        W96518  43.809   9.368  11.569
24204W        W96519  26.069  38.569   2.854
24205W        W96520  29.583  39.480   1.407
24206W        W96521   4.717  29.175  13.469
24207W        W96522   9.198  30.938  10.521
24208W        W96523  20.108  21.670  14.992
24209W        W96524  13.276  15.715   3.241
24210W        W96525  32.562   8.236  13.547
24211W        W96526  13.197  23.030  10.454
24212W        W96527  21.038  10.777   1.813
24213W        W96528  26.126  36.571  12.823
24214W        W96529  24.185   8.356  13.844
24215W        W96530  41.497  40.851   2.179
24216W        W96531  10.272  38.348   3.650
24217W        W96532  10.313  28.947  14.407
24218W        W96533  28.155  40.341  14.958
24219W        W96534  23.047   1.902  12.409
24220W        W96535  15.137  43.995  13.325
24221W        W96536  33.078   6.700   4.614
24222W        W96537   0.391  20.247   0.250
24223W        W96538  17.710  32.036  12.996
24224W        W96539  42.814  26.122  13.413
24225W        W96540  12.358  19.629  14.425
24226W        W96541  41.458  32.997   3.673
24227W        W96542   2.341  12.623  12.552
24228W        W96543  13.793  28.617   4.159
24229W        W96544   4.370   4.288  12.045
24230W        W96545   5.792  39.429  10.932
24231W        W96546   1.427   8.753   5.091
24232W        W96547  36.907  38.060   2.297
24233W        W96548   2.359  11.129  11.455
24234W        W96549   7.287  29.975   3.846
24235W        W96550  32.071  20.248   3.230
24236W        W96551  34.069  16.146  10.431
24237W        W96552  17.776  39.395   0.860
24238W        W96553  22.661  43.398  14.838
24239W        W96554   8.330   7.336  13.534
24240W        W96555  30.445   6.805  12.532
24241W        W96556  37.930  32.027   4.610
24242W        W96557  37.088  23.193  12.455
24243W        W96558  37.945  23.559   3.222
24244W        W96559  37.507   7.177  11.976
24245W        W96560  28.945  15.688  12.415
24246W        W96561  29.538   2.385   1.287
24247W        W96562   0.873  25.510   3.828
24248W        W96563  27.957  29.628  11.388
24249W        W96564  26.027  25.109   3.157
24250W        W96565  23.500  18.727   0.318
24251W        W96566  25.699  18.242  13.504
24252W        W96567   2.954  17.778  11.986
24253W        W96568  44.354  36.051   4.333
24254W        W96569  30.029   1.393   1.739
24255W        W96570  33.520  17.166  11.044
24256W        W96571  35.092  18.186   1.320
24257W        W96572  38.000  39.956   1.342
24258W        W96573  17.303  26.666  12.873
24259W        W96574  43.886  27.011   1.371
24260W        W96575   3.255  40.013  13.005
24261W        W96576   3.402  16.709  12.053
24262W        W96577  21.630  29.952   3.146
24263W        W96578  26.522  14.645  11.440
24264W        W96579  37.087  29.574  14.305
24265W        W96580  24.702   8.175   4.207
24266W        W96581  44.996  26.649  10.927
24267W        W96582   5.335  39.879  11.388
24268W        W96583   2.865  39.965  14.887
24269W        W96584  26.201  10.281   1.304
24270W        W96585  39.946   3.390  12.508
24271W        W96586  40.309  38.490   3.185
24272W        W96587  42.012   0.953   3.817
24273W        W96588  31.441  31.055  12.526
24274W        W96589  10.202   7.831   0.734
24275W        W96590   7.379   0.891   4.204
24276W        W96591  39.894  19.107   4.249
24277W        W96592  26.026  33.603  11.100
24278W        W96593  40.932  27.667  11.109
24279W        W96594   3.730  37.946   4.322
24280W        W96595   1.972  25.148  14.799
24281W        W96596  22.681   9.260  13.483
24282W        W96597   5.285  27.455   0.422
24283W        W96598   4.310   3.387  14.906
24284W        W96599   0.386  34.449  12.565
24285W        W96600   2.338   5.282  11.481
24286W        W96601  13.213   3.220  10.902
24287W        W96602   2.926  10.359  14.847
24288W        W96603   0.793  32.513   1.237
24289W        W96604   8.246  23.014  12.987
24290W        W96605  22.142  12.760  11.952
24291W        W96606  34.108  43.019  14.831
24292W        W96607  23.504  29.626  11.114
24293W        W96608  11.821  20.034  11.086
24294W        W96609   0.303   1.331   2.693
24295W        W96610  26.604  26.515   4.692
24296W        W96611  43.401   5.307  14.907
24297W        W96612  36.574  37.409  10.051
24298W        W96613  23.724  15.199  10.482
24299W        W96614  27.106  19.220  13.991
24300W        W96615  16.623   0.806   1.390
24301W        W96616   7.350  38.841  14.453
24302W        W96617  39.871  33.523  10.584
24303W        W96618  14.728  23.189   1.290
24304W        W96619  16.075  38.429   3.666
24305W        W96620  18.173  12.622  13.986
24306W        W96621  25.991  35.561  14.892
24307W        W96622  25.065  21.133  13.355
24308W        W96623  15.305  16.294   1.801
24309W        W96624  44.430  26.505   0.897
24310W        W96625  34.050  30.147   4.238
24311W        W96626  22.173   3.343  13.036
24312W        W96627  16.290  20.617  12.449
24313W        W96628  29.957  26.982   0.751
24314W        W96629   5.384  34.095  11.047
24315W        W96630  34.374  16.567   0.296
24316W        W96631  43.777   1.310   2.282
24317W        W96632  33.603   5.910  13.969
24318W        W96633  32.443  20.178  12.500
24319W        W96634  27.602  24.205   4.713
24320W        W96635  36.025  18.582  12.488
24321W        W96636  40.390  31.549  11.416
24322W        W96637   1.337   0.473  10.415
24323W        W96638   2.920  13.349  14.001
24324W        W96639  17.776   4.346  14.904
24325W        W96640  20.247  11.251   0.729
24326W        W96641  10.791   0.973   1.893
24327W        W96642  19.699   6.382  13.996
24328W        W96643  14.798  21.078  13.857
24329W        W96644  37.487  25.143  11.421
24330W        W96645  12.187  29.565   2.794
24331W        W96646  21.048   9.846   4.609
24332W        W96647  41.802  12.796   5.095
24333W        W96648  42.439  38.508   3.273
24334W        W96649  26.085   6.401   5.206
24335W        W96650   7.861  35.453   2.224
24336W        W96651  35.560  42.506   1.269
24337W        W96652  25.559  36.034  10.900
24338W        W96653  27.950  34.400   3.202
24339W        W96654   3.289   9.232  11.092
24340W        W96655  41.954  44.890  10.922
24341W        W96656  43.440   0.326   4.805
24342W        W96657  36.953   9.287  11.036
24343W        W96658   8.161  41.458   4.659
24344W        W96659   7.302  39.448   2.248
24345W        W96660   6.726   5.397   1.839
24346W        W96661  38.889  19.079  12.478
24347W        W96662  37.497  14.172  12.072
24348W        W96663  24.153  15.109  12.507
24349W        W96664  12.248  27.109  11.064
24350W        W96665  24.703  32.032  12.386
24351W        W96666   2.853  37.375   5.242
24352W        W96667   7.772  27.195  12.941
24353W        W96668  11.278  40.026  12.526
24354W        W96669   8.758   3.372   1.771
24355W        W96670  11.651  19.107   1.304
24356W        W96671  37.033   7.665  10.570
24357W        W96672  39.906  27.145   4.315
24358W        W96673   1.768   6.276   3.833
24359W        W96674  12.138  28.139   0.393
24360W        W96675  30.973  27.160   0.925
24361W        W96676  15.590  41.920  12.868
24362W        W96677  40.442  27.506   4.634
24363W        W96678  16.181  13.313  14.505
24364W        W96679   7.251  31.540   1.884
24365W        W96680  26.157  33.434   9.618
24366W        W96681  40.871  42.021   4.213
24367W        W96682  30.011  15.668  13.939
24368W        W96683  29.488  38.502   2.300
24369W        W96684  38.334  25.484   4.719
24370W        W96685  14.661  37.055   4.290
24371W        W96686   4.857  27.665   4.825
24372W        W96687   0.798  38.383  12.843
24373W        W96688  41.031  14.740   2.288
24374W        W96689   8.795  15.266   4.116
24375W        W96690  44.981  14.245  12.470
24376W        W96691  40.381   2.815   3.756
24377W        W96692  17.273  11.738   2.320
24378W        W96693  18.726  19.150   3.169
24379W        W96694  14.111  37.082  13.363
24380W        W96695  18.139  41.945   1.755
24381W        W96696  21.172  23.503   2.368
24382W        W96697  37.890  13.828   3.366
24383W        W96698  11.779  28.995  11.034
24384W        W96699   9.842  14.117  12.498
24385W        W96700   6.760  40.363  12.508
24386W        W96701  23.041   1.833   1.908
24387W        W96702  10.211  22.163  12.921
24388W        W96703  12.813  31.945   0.468
24389W        W96704   5.734   4.223  13.852
24390W        W96705  14.683  33.102   0.786
24391W        W96706   6.427  43.448  11.412
24392W        W96707   6.826  28.449  14.855
24393W        W96708   4.817  40.315  10.027
24394W        W96709  23.170  11.776   4.160
24395W        W96710  40.416  22.112  14.801
24396W        W96711  19.160   0.294  13.873
24397W        W96712  23.007  44.936   3.838
24398W        W96713  32.586   9.187  13.990
24399W        W96714  13.693  23.530  11.580
24400W        W96715   7.405  14.137  13.009
24401W        W96716  20.564   1.323  11.536
24402W        W96717  22.502  26.648  12.009
24403W        W96718  33.620  36.560   5.260
24404W        W96719   8.341  19.750   4.140
24405W        W96720  33.958  24.985  10.566
24406W        W96721   3.746   4.890  13.315
24407W        W96722  29.009   1.964   0.769
24408W        W96723  16.276  16.653  11.025
24409W        W96724  29.049  24.536  14.393
24410W        W96725   8.344  22.635   1.876
24411W        W96726  43.427  13.775  14.424
24412W        W96727  36.387  14.178   5.163
24413W        W96728  11.128   6.234   2.365
24414W        W96729  26.133   2.743  13.520
24415W        W96730   5.801  29.558   3.223
24416W        W96731  31.411  20.708  14.853
24417W        W96732  21.145  12.141  10.967
24418W        W96733  13.696  41.805  10.947
24419W        W96734  14.103  29.008  10.627
24420W        W96735  43.465  11.727   1.229
24421W        W96736   2.884  38.412  11.881
24422W        W96737  37.989  11.758   3.689
24423W        W96738  24.648  21.153  10.136
24424W        W96739   0.320  43.872  13.444
24425W        W96740   5.688  42.466   0.380
24426W        W96741  15.693  33.107  13.811
24427W        W96742  43.298   0.747   4.148
24428W        W96743  16.601  31.552   5.641
24429W        W96744  34.432  14.712  13.324
24430W        W96745  34.087  26.685   3.706
24431W        W96746  26.663  37.040  11.606
24432W        W96747  18.758  10.169  10.124
24433W        W96748  27.157   3.739  10.448
24434W        W96749   8.768  13.719   4.772
24435W        W96750  23.182  18.112   2.840
24436W        W96751  23.661  39.494  12.993
24437W        W96752  23.668  17.653  14.970
24438W        W96753  18.552   2.254  12.568
24439W        W96754  37.428  43.896   1.796
24440W        W96755  32.893   8.169  14.866
24441W        W96756  42.452  31.629   4.765
24442W        W96757  15.233  13.183   1.757
24443W        W96758  18.141   2.757  12.879
24444W        W96759   5.220   8.216   0.897
24445W        W96760  28.513   1.345   3.217
24446W        W96761  22.161  15.791  11.859
24447W        W96762   4.442  32.016  12.833
24448W        W96763  25.615  27.009  13.370
24449W        W96764   0.416  21.047  11.079
24450W        W96765  44.344   3.394  13.372
24451W        W96766  28.502  22.705  12.006
24452W        W96767  37.988  41.393   0.842
24453W        W96768  14.191  36.843  11.450
24454W        W96769   3.426  42.421   3.669
24455W        W96770   2.366   8.884   0.420
24456W        W96771  37.894  24.501   4.733
24457W        W96772   4.233  44.464   3.790
24458W        W96773  39.543   0.396  12.430
24459W        W96774  35.037  31.586  13.793
24460W        W96775  27.480  21.559   2.224
24461W        W96776  32.920   5.282  12.992
24462W        W96777  16.643  36.919  12.416
24463W        W96778   8.842  37.474  12.936
24464W        W96779   8.718   8.395   0.321
24465W        W96780   2.325  24.166   3.692
24466W        W96781   9.721  29.943   0.242
24467W        W96782  26.576  31.095   3.828
24468W        W96783  34.957  12.723   5.229
24469W        W96784  19.735  14.660   0.284
24470W        W96785   2.802  20.139  13.434
24471W        W96786  23.669  32.516   2.721
24472W        W96787   2.409  10.353   5.117
24473W        W96788   3.914  12.664   2.885
24474W        W96789  27.130  24.490   0.459
24475W        W96790  42.371  14.829  14.003
24476W        W96791  19.742   9.350   0.315
24477W        W96792   2.416  30.987  12.874
24478W        W96793  39.964  42.996  11.584
24479W        W96794  18.197  32.416   3.810
24480W        W96795  24.667  20.751  11.944
24481W        W96796  26.469  43.398  11.525
24482W        W96797   8.339   6.816   0.329
24483W        W96798  30.966  30.114  14.460
24484W        W96799  27.653  26.110  14.859
24485W        W96800  42.521  34.483  13.330
24486W        W96801  11.747  15.682  13.488
24487W        W96802  26.611   8.734  14.863
24488W        W96803  22.541  39.824  11.578
24489W        W96804  21.512   4.925   4.744
24490W        W96805  14.117  44.954  11.536
24491W        W96806  10.189  28.180   0.292
24492W        W96807  33.445  22.602  10.512
24493W        W96808  41.323  29.134  13.064
24494W        W96809  44.315  42.972  11.559
24495W        W96810  21.604  24.488  11.047
24496W        W96811   6.704  24.604  11.575
24497W        W96812   1.478  27.189   2.219
24498W        W96813   2.934  42.450  14.367
24499W        W96814  42.432  17.262  10.469
24500W        W96815  35.951  32.522  12.389
24501W        W96816  44.959  11.624   2.389
24502W        W96817  15.257  21.141  14.978
24503W        W96818  31.447  40.849   3.777
24504W        W96819  15.642   8.219  11.931
24505W        W96820  10.687   1.328  10.570
24506W        W96821  36.939  22.064   0.906
24507W        W96822  38.945  22.195  10.956
24508W        W96823  42.776  27.139   2.238
24509W        W96824  13.138  32.088   3.799
24510W        W96825  36.521   4.845  13.544
24511W        W96826   1.412  33.601   0.243
24512W        W96827  13.264  41.987  14.998
24513W        W96828  10.740  30.950   4.727
24514W        W96829  15.592   4.739   1.435
24515W        W96830   2.814  41.838   4.627
24516W        W96831  20.621  10.866  12.560
24517W        W96832  20.163   2.401   1.846
24518W        W96833  26.149  27.091  14.840
24519W        W96834  23.618  28.074  11.970
24520W        W96835   7.201  15.624  12.457
24521W        W96836   1.383   7.372   0.804
24522W        W96837  10.186  34.010  11.039
24523W        W96838  44.336  44.781  13.544
24524W        W96839   8.674  17.707  12.023
24525W        W96840  26.155   7.215  11.962
24526W        W96841  44.357  31.090   0.280
24527W        W96842  28.036  43.777  11.585
24528W        W96843   1.793  29.517   4.342
24529W        W96844   9.261  28.165   4.275
24530W        W96845  17.649  29.129  14.840
24531W        W96846  35.921  16.110  12.834
24532W        W96847  29.137  35.007  13.883
24533W        W96848   8.399   4.410  11.909
24534W        W96849  10.636  19.654  11.456
24535W        W96850  12.305  16.670   4.726
24536W        W96851  18.199   5.355   0.953
24537W        W96852  17.727  11.848   2.903
24538W        W96853  10.176   7.681   2.246
24539W        W96854   1.840   4.281   1.234
24540W        W96855  35.379  13.628   3.690
24541W        W96856  30.634  14.228  14.395
24542W        W96857  20.224  28.173  12.551
24543W        W96858   5.377  11.645   3.259
24544W        W96859  20.708  18.099  11.014
24545W        W96860  10.267  42.293   2.363
24546W        W96861  34.534  19.133  10.618
24547W        W96862  33.973  24.112  13.416
24548W        W96863   6.843  21.027   0.324
24549W        W96864  24.978  32.928  10.535
24550W        W96865  12.709  19.137  12.065
24551W        W96866   3.898  37.939  11.902
24552W        W96867   5.856  12.157   3.374
24553W        W96868   9.207  30.424  12.376
24554W        W96869  43.306  24.656   4.325
24555W        W96870   5.691  30.919   2.364
24556W        W96871  39.387  27.454  13.547
24557W        W96872   7.386  23.587   3.176
24558W        W96873  24.088  19.742  10.416
24559W        W96874   6.290   3.942   2.798
24560W        W96875  41.843  29.495   2.197
24561W        W96876  26.119  24.546  12.907
24562W        W96877  12.347  16.098   4.235
24563W        W96878  33.380  19.600  12.949
24564W        W96879  36.019  36.945   0.815
24565W        W96880  12.357  17.691  12.528
24566W        W96881  12.338  39.885  12.871
24567W        W96882  36.592  38.374  13.984
24568W        W96883  22.082  24.711   4.307
24569W        W96884  34.077  23.623   2.824
24570W        W96885  10.304  35.552  13.334
24571W        W96886  15.252  39.881  11.880
24572W        W96887   4.316  32.031  10.404
24573W        W96888  11.321  35.358   3.858
24574W        W96889   5.212  44.946  13.935
24575W        W96890   0.863  30.975  12.558
24576W        W96891  40.473  23.700  13.442
24577W        W96892  32.522  34.553   1.881
24578W        W96893  41.336  27.629  11.454
24579W        W96894  44.373  14.591  11.078
24580W        W96895  29.150  15.277  13.396
24581W        W96896   3.805  36.986  10.986
24582W        W96897  35.993  14.777  11.013
24583W        W96898  12.645  39.942   0.393
24584W        W96899  38.462   0.281   1.376
24585W        W96900  17.683   1.285  14.803
24586W        W96901  18.255  18.063   1.810
24587W        W96902  39.353  37.046  11.519
24588W        W96903  10.709  15.114   0.901
24589W        W96904  14.284  29.019   5.285
24590W        W96905  13.182  20.564   0.426
24591W        W96906  25.182  33.501  10.480
24592W        W96907  33.031   2.266  11.542
24593W        W96908  20.742  42.900   4.709
24594W        W96909  34.096   9.283  12.352
24595W        W96910  21.147   5.719   4.274
24596W        W96911  36.379  23.647  12.362
24597W        W96912  43.863  36.970   1.825
24598W        W96913  16.127  15.717   1.872
24599W        W96914  22.106  29.431  13.039
24600W        W96915   6.263  35.474   3.696
24601W        W96916  13.616  26.023   0.483
24602W        W96917  13.147  11.704   3.756
24603W        W96918  44.912  22.545  11.548
24604W        W96919  12.809  12.149  11.992
24605W        W96920  43.386  17.233   0.275
24606W        W96921  31.947   7.319  14.339
24607W        W96922   2.397  41.323  13.926
24608W        W96923  41.339  26.200   2.814
24609W        W96924  23.561  25.594  11.910
24610W        W96925  36.952   0.914  12.894
24611W        W96926  27.091  23.550  14.497
24612W        W96927  27.077  42.981   1.361
24613W        W96928  37.513  32.061  11.941
24614W        W96929  27.175  32.466   0.825
24615W        W96930  10.357   3.905   5.268
24616W        W96931  31.141  25.081   1.345
24617W        W96932   9.229   5.345  12.986
24618W        W96933  27.614  37.929   0.833
24619W        W96934  24.683  25.485   0.418
24620W        W96935  28.134  36.453   2.192
24621W        W96936  22.132   2.436   4.725
24622W        W96937  10.303  20.199   3.737
24623W        W96938  32.562  29.501  13.824
24624W        W96939   1.974  34.975  14.385
24625W        W96940   0.332  35.949   4.628
24626W        W96941  26.527  23.099   1.838
24627W        W96942  21.651  38.849   2.384
24628W        W96943  21.750  16.272  11.978
24629W        W96944  41.993  30.424  13.858
24630W        W96945  43.996  41.354  13.918
24631W        W96946  30.454  40.415  13.875
24632W        W96947  17.191   3.328  11.612
24633W        W96948  33.451  43.944   0.904
24634W        W96949  19.579  30.572   0.865
24635W        W96950  35.406   2.781  10.895
24636W        W96951   2.787   1.749  13.410
24637W        W96952  36.476  37.469   1.862
24638W        W96953  21.145  14.115   1.882
24639W        W96954  36.416  27.024   3.272
24640W        W96955   8.297  19.583   1.326
24641W        W96956  17.698  19.647  11.063
24642W        W96957  25.622  37.083   4.174
24643W        W96958  42.837   0.464   0.360
24644W        W96959  18.274  10.143   4.648
24645W        W96960   9.837  26.534   0.372
24646W        W96961  32.131   7.261  10.563
24647W        W96962  24.644   7.862  10.565
24648W        W96963  31.152  18.718   4.303
24649W        W96964  39.980  21.155  13.334
24650W        W96965  17.212   0.818  12.925
24651W        W96966  13.231   2.776   0.431
24652W        W96967  15.733  22.997   1.891
24653W        W96968  43.470  35.886   2.796
24654W        W96969  32.545   0.767   0.818
24655W        W96970  16.179  16.213   1.739
24656W        W96971  14.621  22.528  10.541
24657W        W96972  24.568   7.289   1.829
24658W        W96973  17.793   5.827   0.462
24659W        W96974  17.639  26.172  12.362
24660W        W96975  27.601  23.670  13.335
24661W        W96976  23.031   3.865   4.701
24662W        W96977   1.929  18.122  10.896
24663W        W96978  39.557  41.811  13.465
24664W        W96979  40.306  18.687   1.795
24665W        W96980  39.434  32.512  14.011
24666W        W96981  34.091  41.461   1.226
24667W        W96982  35.492  21.237   3.299
24668W        W96983  34.523  16.607   4.705
24669W        W96984   7.830  24.220   4.652
24670W        W96985  19.607  36.377   2.197
24671W        W96986  36.091  33.003   1.218
24672W        W96987  31.053   8.893   4.732
24673W        W96988   7.702  38.826   0.859
24674W        W96989  23.693  38.431  14.446
24675W        W96990  16.253  24.218   3.181
24676W        W96991   1.818  40.811  14.468
24677W        W96992  37.385   9.230   3.254
24678W        W96993   0.459  29.119  13.946
24679W        W96994  15.726   5.267  11.545
24680W        W96995  43.948  20.716  14.005
24681W        W96996   4.238  36.425  12.831
24682W        W96997   3.302  21.749   0.744
24683W        W96998  13.713   6.230  14.904
24684W        W96999   0.281  30.162  13.049
24685W        W97000  23.651   1.963   0.478
24686W        W97001  15.217  41.513   4.624
24687W        W97002  43.897  43.386  11.046
24688W        W97003  38.538   0.290   3.147
24689W        W97004  35.542  40.483  14.837
24690W        W97005   4.305  24.585  14.964
24691W        W97006  44.430  12.714  11.410
24692W        W97007  27.477  30.104   2.865
24693W        W97008  40.843  13.804   0.935
24694W        W97009  29.105  20.724  13.538
24695W        W97010  37.400  16.588   4.261
24696W        W97011  30.488  32.525   3.356
24697W        W97012   0.965  18.184  12.544
24698W        W97013  13.801  43.885  12.406
24699W        W97014  33.107   7.800   2.191
24700W        W97015  17.125  40.995  11.449
24701W        W97016  36.898  23.079   4.686
24702W        W97017  41.381  22.153   3.170
24703W        W97018  30.060  15.123   4.742
24704W        W97019  30.468  34.580   2.406
24705W        W97020  36.854   4.940  14.472
24706W        W97021  12.167  15.717   3.316
24707W        W97022   4.412   3.739  13.465
24708W        W97023   2.784  28.485   0.835
24709W        W97024  37.831   8.750  12.057
24710W        W97025   9.343  10.157  13.893
24711W        W97026   3.725  29.170   3.230
24712W        W97027  16.304  29.947  13.863
24713W        W97028  15.720  17.565  11.022
24714W        W97029  18.070  30.030   3.863
24715W        W97030  22.594  18.659   2.226
24716W        W97031  29.532  14.789  14.468
24717W        W97032  43.399  11.347  11.485
24718W        W97033  25.489  23.698   1.422
24719W        W97034  18.686  40.344   0.442
24720W        W97035  16.597   1.366  10.537
24721W        W97036  10.813  39.483  11.590
24722W        W97037  34.573  27.660   2.809
24723W        W97038  43.351  13.141  13.811
24724W        W97039  21.675  14.163   2.202
24725W        W97040   9.177  26.200  10.579
24726W        W97041   9.818  34.426  11.468
24727W        W97042  26.653  29.603   1.392
24728W        W97043  21.080  12.191   4.820
24729W        W97044  28.024  32.453  12.928
24730W        W97045  17.695   7.399  12.948
24731W        W97046  16.219  17.726  10.502
24732W        W97047  28.021   1.422  12.457
24733W        W97048  23.701   6.744   2.820
24734W        W97049   1.280  12.269   5.132
24735W        W97050  30.949  21.535  11.586
24736W        W97051  31.071   7.872   4.214
24737W        W97052  20.683  30.519   2.854
24738W        W97053  23.011  38.349   4.154
24739W        W97054  23.657  24.024   2.329
24740W        W97055   6.319   9.708  14.397
24741W        W97056  42.485  43.903  11.554
24742W        W97057   7.215  20.089  11.953
24743W        W97058  25.974   2.241   0.819
24744W        W97059  12.362   5.704   4.264
24745W        W97060  13.223  25.522   2.869
24746W        W97061  29.143  25.091  14.401
24747W        W97062  21.225  36.082  14.971
24748W        W97063   7.411  30.437   0.323
24749W        W97064   6.259  19.278   4.781
24750W        W97065  44.898  44.963   2.718
24751W        W97066  38.478   2.416   3.696
24752W        W97067  17.700  37.363   3.812
24753W        W97068   6.699  34.977  11.495
24754W        W97069  10.194  11.799  13.518
24755W        W97070  10.775   7.238  12.971
24756W        W97071  16.680  12.210  12.017
24757W        W97072  20.155  17.624   0.278
24758W        W97073  17.665  24.521  12.831
24759W        W97074   2.275  43.906   3.334
24760W        W97075   8.811  21.197   2.816
24761W        W97076  26.669  33.450  12.940
24762W        W97077  26.071  40.869   1.451
24763W        W97078  44.998   8.384   3.762
24764W        W97079  40.348   3.819  11.865
24765W        W97080  29.530  30.517  14.849
24766W        W97081  15.221  40.390   1.354
24767W        W97082  32.617  34.910   2.754
24768W        W97083  35.089  13.121   2.704
24769W        W97084  23.644  18.670   3.833
24770W        W97085  21.520  41.008  13.924
24771W        W97086   9.843  24.627  11.030
24772W        W97087  31.989  41.826   5.148
24773W        W97088  38.869  38.984  12.905
24774W        W97089  11.858  42.978   5.230
24775W        W97090  29.617  15.248   0.728
24776W        W97091  24.625   2.324  10.912
24777W        W97092   8.767  19.543   0.802
24778W        W97093  23.687  26.177  10.531
24779W        W97094  26.679  44.905  11.995
24780W        W97095  27.131   1.773   4.269
24781W        W97096  18.780   2.451   4.224
24782W        W97097   5.892   6.727   1.210
24783W        W97098  11.724  36.518   3.700
24784W        W97099  41.388  40.415   2.256
24785W        W97100  22.673  41.835  13.989
24786W        W97101  24.594  36.585   4.180
24787W        W97102  28.940  38.944  10.534
24788W        W97103   5.762  44.895   1.216
24789W        W97104  22.044  32.612   3.339
24790W        W97105  34.077   4.415   2.375
24791W        W97106   9.695  44.354   3.324
24792W        W97107  33.561   8.182   4.171
24793W        W97108   3.819  44.419  10.039
24794W        W97109   3.308  38.847  11.379
24795W        W97110  36.449   5.201  10.958
24796W        W97111  37.531  12.136  10.536
24797W        W97112  36.367  30.990   3.274
24798W        W97113   9.852  29.517   3.178
24799W        W97114  38.327  14.741   0.912
24800W        W97115  36.581  20.589  13.397
24801W        W97116   2.851  16.716  12.475
24802W        W97117  11.660  29.524  12.479
24803W        W97118   7.803   8.241  10.610
24804W        W97119  36.348   6.250  12.466
24805W        W97120  24.558  29.947   1.815
24806W        W97121  25.486  20.099  14.294
24807W        W97122  17.235  28.022  12.559
24808W        W97123  28.652  37.895   3.376
24809W        W97124  25.982  17.564   3.194
24810W        W97125   2.441   9.370   0.895
24811W        W97126  14.133   8.726  10.113
24812W        W97127  27.510  32.138   1.920
24813W        W97128  22.544  36.576   0.260
24814W        W97129  18.707  39.832  14.299
24815W        W97130  34.077  18.211   0.393
24816W        W97131  28.031  33.499  11.929
24817W        W97132  41.390  18.088   4.150
24818W        W97133  34.048  39.491   2.858
24819W        W97134   6.796  39.325   3.375
24820W        W97135   3.382   0.286  10.437
24821W        W97136  42.808  39.018   5.087
24822W        W97137  21.555  22.660  14.516
24823W        W97138  25.583   8.292  12.367
24824W        W97139   4.217  11.238  10.416
24825W        W97140  12.753   1.767   2.348
24826W        W97141   0.903  23.167  13.028
24827W        W97142  16.585   5.800  11.080
24828W        W97143  43.883  34.948  14.448
24829W        W97144   0.268  44.775   1.355
24830W        W97145  19.633  25.494   0.329
24831W        W97146  39.043  21.526   1.728
24832W        W97147  43.410  25.173  13.312
24833W        W97148  23.598   4.424   2.412
24834W        W97149  15.150  24.483   0.847
24835W        W97150  43.296  36.959   4.154
24836W        W97151  18.055  23.508  13.810
24837W        W97152  37.939  43.787   3.830
24838W        W97153  37.338  15.173   3.823
24839W        W97154  32.591  17.648   0.385
24840W        W97155  29.140   5.709   0.925
24841W        W97156  22.657  37.580   9.923
24842W        W97157  44.479  40.328   2.812
24843W        W97158  18.055  30.497   4.326
24844W        W97159  33.561  14.297  10.894
24845W        W97160  21.018   8.893   4.131
24846W        W97161  33.074  32.940  10.594
24847W        W97162  34.046  18.789   4.836
24848W        W97163  17.178  22.578  14.348
24849W        W97164   1.883  32.017  14.976
24850W        W97165   2.276   8.868  13.411
24851W        W97166  10.867  30.079  10.406
24852W        W97167  21.615  15.226   0.451
24853W        W97168  43.832   4.418   2.408
24854W        W97169  28.025  23.628   3.853
24855W        W97170  30.449  35.026  14.460
24856W        W97171  34.884  40.367   5.141
24857W        W97172  35.372  25.674  13.862
24858W        W97173   4.782  18.735   0.407
24859W        W97174  22.583  18.272   0.279
24860W        W97175  37.364   8.877   0.266
24861W        W97176  26.009  43.364  11.442
24862W        W97177   2.760   2.916   1.714
24863W        W97178  20.711  28.543   0.432
24864W        W97179  32.450  18.230   3.672
24865W        W97180  12.329   0.266   0.476
24866W        W97181   6.696   4.279   3.314
24867W        W97182  21.121  35.911   5.247
24868W        W97183  21.679  25.159   0.892
24869W        W97184  20.147  26.525   3.839
24870W        W97185  13.626  15.213  14.930
24871W        W97186  37.540  20.036   1.319
24872W        W97187  27.447  18.547   2.269
24873W        W97188  23.712  11.366   0.827
24874W        W97189  36.983  40.939   0.834
24875W        W97190  44.275  37.558   1.746
24876W        W97191   5.757   4.427   1.873
24877W        W97192   7.757  36.362   3.831
24878W        W97193   2.261  25.512  13.807
24879W        W97194  26.606  31.436   3.732
24880W        W97195  44.403  44.795   3.196
24881W        W97196  13.715  25.088  13.436
24882W        W97197  34.985  42.452  10.590
24883W        W97198   7.679  35.486   3.658
24884W        W97199  42.909  19.632   3.193
24885W        W97200  12.259  16.811  11.013
24886W        W97201  26.672  24.680  13.483
24887W        W97202  30.415   5.903   3.269
24888W        W97203  26.612  32.626   4.272
24889W        W97204  29.569   7.697  11.034
24890W        W97205   5.859  11.855  11.429
24891W        W97206  25.473   9.219   0.415
24892W        W97207   0.781  27.051   2.662
24893W        W97208  44.402   6.300   3.216
24894W        W97209  22.027  32.488   4.336
24895W        W97210  44.816  27.105   0.729
24896W        W97211  28.541  23.038  12.062
24897W        W97212   5.768  39.809   3.239
24898W        W97213  11.135  15.155  10.465
24899W        W97214  14.310  11.281  12.390
24900W        W97215  41.440  41.927  10.901
24901W        W97216  30.097  41.997   3.234
24902W        W97217  17.089  17.301   2.726
24903W        W97218   0.920  25.968   4.766
24904W        W97219  40.335  30.153  13.460
24905W        W97220  32.121  33.488   3.318
24906W        W97221  28.674  13.690  11.391
24907W        W97222   2.921  28.526  14.340
24908W        W97223  44.503  34.966   2.733
24909W        W97224  13.304   4.263  13.988
24910W        W97225  30.643  40.881  11.029
24911W        W97226  31.997  36.898  12.906
24912W        W97227  31.633   7.824  12.428
24913W        W97228   6.226  28.477  12.051
24914W        W97229   9.166  34.549  11.503
24915W        W97230  24.080  40.949   2.377
24916W        W97231  15.717  20.184  10.479
24917W        W97232  14.639  39.028  14.286
24918W        W97233  17.164   8.753  12.411
24919W        W97234  19.103  35.861   2.720
24920W        W97235  12.857   7.198   1.786
24921W        W97236  39.891  31.909   0.472
24922W        W97237  14.825  28.533  10.525
24923W        W97238  12.626  43.393   1.425
24924W        W97239   0.975  16.138  12.846
24925W        W97240  19.662  38.854  13.055
24926W        W97241  32.538   8.740   4.190
24927W        W97242  30.476  31.975   2.765
24928W        W97243   3.796   3.345   9.933
24929W        W97244   1.768  31.421  11.122
24930W        W97245  15.787  17.163   5.264
24931W        W97246   5.430  24.515   3.786
24932W        W97247  42.993  27.496   3.638
24933W        W97248  41.971   4.352  13.524
24934W        W97249  25.675  20.547  10.463
24935W        W97250  38.541  25.635  14.439
24936W        W97251  19.590  25.046   0.389
24937W        W97252  26.011  11.827  12.866
24938W        W97253  44.414  27.463   3.216
24939W        W97254  19.081  35.401   1.387
24940W        W97255   8.751  36.064   2.234
24941W        W97256  44.411  15.290  12.939
24942W        W97257   3.803  25.534  14.476
24943W        W97258  17.786  32.900  12.459
24944W        W97259   6.681  29.945  14.768
24945W        W97260  36.889  30.115   3.158
24946W        W97261  11.136  32.138   1.907
24947W        W97262   2.387  43.942   1.747
24948W        W97263   8.390  33.042   4.330
24949W        W97264  25.168  41.992   0.848
24950W        W97265  17.105  22.563   2.751
24951W        W97266  20.212  28.159  11.078
24952W        W97267   9.719  12.359   2.664
24953W        W97268  35.497  38.495   0.472
24954W        W97269  43.381  12.244   3.798
24955W        W97270  15.819  18.780   3.317
24956W        W97271   1.325  19.190  12.408
24957W        W97272  34.899  26.973  11.407
24958W        W97273  33.521  43.832   1.214
24959W        W97274  38.505  37.383   1.935
24960W        W97275  17.745  36.471   1.410
24961W        W97276  27.107  25.115  12.840
24962W        W97277  12.240  41.829  13.334
24963W        W97278   0.471  34.914   9.993
24964W        W97279  43.450  43.862  11.072
24965W        W97280   7.719  27.571  14.974
24966W        W97281  26.623  11.709   4.171
24967W        W97282  36.397  35.901  14.993
24968W        W97283   6.740  16.768   3.732
24969W        W97284   9.776  18.242   4.149
24970W        W97285  19.741   7.233  12.824
24971W        W97286  30.555  38.375   4.221
24972W        W97287   4.876  26.082  12.090
24973W        W97288   1.953  10.798   3.684
24974W        W97289   0.418  32.617  13.839
24975W        W97290  17.178  21.046  13.889
24976W        W97291  21.677   5.809   4.297
24977W        W97292  28.037  12.287   2.189
24978W        W97293  11.220   7.824   4.239
24979W        W97294  22.235   1.763  11.521
24980W        W97295  13.653  38.404   2.207
24981W        W97296  39.558  43.330   1.708
24982W        W97297  33.941  11.746   1.319
24983W        W97298  33.440   5.220   1.893
24984W        W97299   0.399  25.538   0.759
24985W        W97300  31.515  24.055   2.393
24986W        W97301  20.561   4.839  13.329
24987W        W97302  17.756  33.894   2.201
24988W        W97303  35.372  14.689   0.731
24989W        W97304  21.143  40.986   2.836
24990W        W97305  14.166  28.128  10.419
24991W        W97306  28.969   4.803  11.568
24992W        W97307   4.823  27.633   2.282
24993W        W97308  12.270  44.847  10.587
24994W        W97309  10.144  40.344   0.874
24995W        W97310  27.469  33.885   4.651
24996W        W97311  29.494  20.069   4.311
24997W        W97312  27.536  11.352   0.888
24998W        W97313  25.032  12.252   3.685
24999W        W97314   7.235  13.109  11.078
25000W        W97315  39.954  24.028   4.324
25001W        W97316  40.013  26.969   3.863
25002W        W97317  36.967  10.148   4.605
25003W        W97318  28.582  23.071  13.543
25004W        W97319  23.081   2.949   3.158
25005W        W97320  34.505   1.968  13.910
25006W        W97321  36.023   9.706  11.015
25007W        W97322  19.209  30.529   3.158
25008W        W97323  33.462  18.624   4.119
25009W        W97324   9.182  32.552  11.959
25010W        W97325  19.120  23.718  12.830
25011W        W97326  30.044  41.802   1.213
25012W        W97327  12.751   8.359   3.760
25013W        W97328  43.781   0.778   4.807
25014W        W97329   1.295  31.635  10.470
25015W        W97330   3.736  12.795  14.367
25016W        W97331  24.032   0.331  12.995
25017W        W97332   8.180  37.021   0.243
25018W        W97333   3.368   5.353   4.281
25019W        W97334  25.139   0.795   5.091
25020W        W97335  28.108  19.172   1.908
25021W        W97336   9.256   3.394   3.682
25022W        W97337  25.190  19.094   1.714
25023W        W97338  24.684  13.622   1.725
25024W        W97339   6.360  38.933   2.857
25025W        W97340  40.537  22.096  13.451
25026W        W97341  33.115  39.533   4.718
25027W        W97342  13.269   1.407   4.324
25028W        W97343  44.951  33.946  11.048
25029W        W97344  28.615  20.213  12.979
25030W        W97345  17.743   8.887   9.964
25031W        W97346   0.449  36.891  13.484
25032W        W97347   2.911  26.502   2.848
25033W        W97348   6.362  23.052  10.611
25034W        W97349   2.950  44.353  13.805
25035W        W97350  24.105  25.469  11.937
25036W        W97351  27.577  29.062   4.601
25037W        W97352   5.878  32.488   3.283
25038W        W97353  12.654  32.422   3.707
25039W        W97354  23.720  22.624  14.489
25040W        W97355  17.612  40.304   2.740
25041W        W97356   1.399  12.337  12.452
25042W        W97357  34.609  34.017  11.024
25043W        W97358  15.783  38.461   4.744
25044W        W97359  27.146  33.881   5.789
25045W        W97360  22.018  15.747  12.377
25046W        W97361  33.572  13.619  11.037
25047W        W97362  16.767  23.221  12.573
25048W        W97363   1.875  35.527  10.448
25049W        W97364   0.816  29.456  11.983
25050W        W97365  32.576  26.685  14.293
25051W        W97366   5.866  44.005  10.467
25052W        W97367  18.241   9.359   1.397
25053W        W97368  42.989  31.606   3.273
25054W        W97369  37.859  31.592   3.160
25055W        W97370   9.275  15.264   2.314
25056W        W97371  32.613  33.124  14.021
25057W        W97372  42.781  17.176   0.271
25058W        W97373   9.272   0.799  12.962
25059W        W97374  18.212  37.467  13.872
25060W        W97375  16.316  44.330   3.244
25061W        W97376  44.398  20.551   0.740
25062W        W97377   4.396  27.676   2.801
25063W        W97378  40.323  17.628  13.007
25064W        W97379  18.061  30.164   3.305
25065W        W97380  23.546  12.297   4.683
25066W        W97381   6.312  29.977   3.287
25067W        W97382   3.368  18.658   3.313
25068W        W97383  24.200  27.508   2.284
25069W        W97384  36.502  40.341   3.291
25070W        W97385  40.928  33.121   2.772
25071W        W97386   0.964   3.449  10.525
25072W        W97387  24.549  32.058  13.909
25073W        W97388  32.067   8.891   4.628
25074W        W97389  43.283   5.825  13.876
25075W        W97390   2.911  10.366   4.144
25076W        W97391   5.698  40.539   1.776
25077W        W97392  28.115  13.165  11.059
25078W        W97393   7.840  18.638  12.528
25079W        W97394   8.345  37.458   0.941
25080W        W97395  28.564  20.708  11.425
25081W        W97396  22.577   8.784  11.474
25082W        W97397  20.691  32.127   4.191
25083W        W97398  15.144  40.814   4.275
25084W        W97399  41.915  19.159  11.892
25085W        W97400  33.497  16.082   3.188
25086W        W97401  43.994  13.205   0.777
25087W        W97402   6.389  42.995  12.427
25088W        W97403  19.164  30.564   2.214
25089W        W97404   5.795  14.246  13.461
25090W        W97405  42.947  19.135   3.376
25091W        W97406  36.973   4.374  14.933
25092W        W97407  13.165  43.771  10.895
25093W        W97408  12.792  32.955  10.416
25094W        W97409  15.613   8.243   4.181
25095W        W97410  44.347  38.333  11.893
25096W        W97411   9.276  25.602  12.936
25097W        W97412  14.331   1.804   2.896
25098W        W97413   6.836  40.800  13.849
25099W        W97414  27.600  24.216  11.396
25100W        W97415  41.439   0.360   0.921
25101W        W97416  39.953  37.424   4.347
25102W        W97417   5.756  40.045   0.397
25103W        W97418   9.879  36.484   3.741
25104W        W97419  12.707  41.040  13.861
25105W        W97420  25.613  43.765   3.816
25106W        W97421  40.862  38.906  10.968
25107W        W97422  31.610  19.648  11.923
25108W        W97423  27.151  18.158   3.708
25109W        W97424  16.155  40.518  14.386
25110W        W97425  37.078  12.648   4.719
25111W        W97426  29.966  29.516   4.693
25112W        W97427   1.433   0.985  11.989
25113W        W97428  42.935  24.192  13.392
25114W        W97429  44.475  42.383  11.072
25115W        W97430  25.666  37.544  12.058
25116W        W97431  27.634  31.526  12.066
25117W        W97432  25.028  24.545  11.890
25118W        W97433   5.344   5.917  12.447
25119W        W97434  42.354  12.778  12.865
25120W        W97435  40.434  31.632  13.500
25121W        W97436   0.853   7.204   1.225
25122W        W97437  38.569   5.381   1.442
25123W        W97438  40.027   8.721   3.662
25124W        W97439  13.739  21.581  11.543
25125W        W97440  29.091  42.289   2.389
25126W        W97441  33.487   7.200   0.306
25127W        W97442  36.417  26.532  13.005
25128W        W97443  19.563  25.130  12.840
25129W        W97444  34.527  37.883   4.728
25130W        W97445  18.212  32.395   2.792
25131W        W97446  22.030  22.527  14.512
25132W        W97447  16.618  12.338  11.441
25133W        W97448   4.410   3.423  11.958
25134W        W97449  27.545  17.741  13.354
25135W        W97450  25.095  18.683  13.049
25136W        W97451  21.542  33.589  12.915
25137W        W97452   4.736  23.155   4.759
25138W        W97453  22.646  32.491  11.892
25139W        W97454  10.658  12.161   1.294
25140W        W97455  37.461  25.145  12.978
25141W        W97456  42.876  12.615  12.049
25142W        W97457  32.927  13.271  12.882
25143W        W97458  35.996  39.849   3.301
25144W        W97459  30.425  30.032  10.457
25145W        W97460  33.898  21.560   0.403
25146W        W97461  18.582  39.530  14.324
25147W        W97462  11.217  42.821  10.504
25148W        W97463   8.386  41.445  11.947
25149W        W97464   6.314   7.231  12.561
25150W        W97465   8.699   9.369  13.482
25151W        W97466  44.966  37.006   0.318
25152W        W97467  20.594  23.711   3.160
25153W        W97468  32.429   2.254  14.847
25154W        W97469  11.324  40.810  12.884
25155W        W97470  19.741   6.780  14.478
25156W        W97471  33.082  32.111  13.481
25157W        W97472  18.260  42.335   4.630
25158W        W97473  28.667  30.501   0.243
25159W        W97474  17.293  10.183   1.328
25160W        W97475  41.398  30.040   1.386
25161W        W97476  40.533  34.876   4.711
25162W        W97477  39.440   4.300  12.445
25163W        W97478  44.406  14.291   3.369
25164W        W97479  13.733  15.117   3.261
25165W        W97480  20.728   2.392   1.755
25166W        W97481   9.834  41.502   1.887
25167W        W97482  27.671  31.626   9.566
25168W        W97483  35.931   8.211  10.509
25169W        W97484  11.194  17.219  10.633
25170W        W97485  14.628   7.242  12.358
25171W        W97486  29.463  18.546  13.332
25172W        W97487  44.816  39.028  14.380
25173W        W97488  37.850  20.644   4.307
25174W        W97489  28.503  24.034   4.717
25175W        W97490  31.997  27.596  11.375
25176W        W97491  20.694  40.938  11.374
25177W        W97492  13.197  31.588   4.739
25178W        W97493  34.912  23.031  14.956
25179W        W97494  10.674   6.841  10.892
25180W        W97495   4.703   7.797   2.341
25181W        W97496  28.986  14.718   4.249
25182W        W97497  43.796  42.513   1.269
25183W        W97498   0.838  42.932   4.306
25184W        W97499  11.706   5.420  14.760
25185W        W97500  14.268   4.894  12.496
25186W        W97501  43.326  16.171  12.450
25187W        W97502  40.826  10.728  11.012
25188W        W97503  25.657   4.446  11.110
25189W        W97504  13.604  41.944   1.908
25190W        W97505  12.191   5.398   3.205
25191W        W97506   4.262  14.303   4.116
25192W        W97507  10.655  32.531   3.755
25193W        W97508  28.660   3.370   0.466
25194W        W97509  27.018   4.751  13.534
25195W        W97510  30.063  39.853   3.193
25196W        W97511  26.665  34.522   0.729
25197W        W97512   6.686   7.347  10.633
25198W        W97513  26.539  44.377  11.577
25199W        W97514  10.186   3.764   3.635
25200W        W97515  33.513  17.074   1.359
25201W        W97516  36.015   2.866   4.187
25202W        W97517   0.344  29.576  12.836
25203W        W97518   5.283  20.043   3.706
25204W        W97519  41.024  19.244  13.853
25205W        W97520  17.717  41.432  13.849
25206W        W97521  39.364  37.008   1.906
25207W        W97522  28.986  32.985   1.727
25208W        W97523  28.070  34.422  13.320
25209W        W97524  15.287  38.875   4.672
25210W        W97525  29.476  14.646   2.858
25211W        W97526   0.946  44.305   3.243
25212W        W97527  31.899  28.512  10.420
25213W        W97528  29.632  14.626  12.841
25214W        W97529   9.872  36.042   4.647
25215W        W97530  18.123  37.964  12.885
25216W        W97531  32.491  28.966  10.427
25217W        W97532   1.861  11.181   0.427
25218W        W97533  24.161   4.367   3.346
25219W        W97534   4.908  31.621   1.902
25220W        W97535  15.674  18.779   2.212
25221W        W97536  19.646  19.697   4.627
25222W        W97537  22.697  44.952  10.999
25223W        W97538  17.174  28.124   3.309
25224W        W97539   0.847  31.637   3.763
25225W        W97540  22.590  32.069  11.998
25226W        W97541  35.420  30.077  11.584
25227W        W97542  29.622  14.182   0.910
25228W        W97543  27.120  30.920  12.523
25229W        W97544  20.152  12.740   9.966
25230W        W97545  15.657  10.700   3.677
25231W        W97546  28.079  21.188   4.158
25232W        W97547  31.125  14.636   1.758
25233W        W97548   4.413  14.139   3.386
25234W        W97549  24.627   5.839  13.868
25235W        W97550  13.149  39.954  11.493
25236W        W97551  20.132   5.698   4.221
25237W        W97552  10.815  22.650  12.475
25238W        W97553  14.692  17.093   4.723
25239W        W97554  15.585  36.371   4.176
25240W        W97555   0.366  35.859  13.850
25241W        W97556  16.690  35.090   4.275
25242W        W97557  30.484   9.836  12.344
25243W        W97558  38.423   1.866   3.766
25244W        W97559   2.313   9.198   2.251
25245W        W97560  11.257  27.162  14.482
25246W        W97561  40.956   6.249   3.217
25247W        W97562   9.180  33.994   0.914
25248W        W97563  14.209  16.187  14.992
25249W        W97564  32.531   9.751   2.891
25250W        W97565  29.659  13.202   2.688
25251W        W97566   2.427  28.178  10.425
25252W        W97567  41.420   4.780  14.448
25253W        W97568  29.000  29.433  12.568
25254W        W97569  11.632  26.677   4.210
25255W        W97570   3.791  36.555   2.768
25256W        W97571   6.232  38.820   3.176
25257W        W97572  22.172   0.382  11.454
25258W        W97573  42.944  18.203   1.280
25259W        W97574  33.917   7.701   4.157
25260W        W97575  19.749  27.645   3.147
25261W        W97576   6.684  22.586   3.256
25262W        W97577   8.217  26.056   2.834
25263W        W97578  39.380  23.725   2.783
25264W        W97579   0.319  43.430   2.419
25265W        W97580  35.569  37.457   3.324
25266W        W97581  10.707  38.873  12.499
25267W        W97582  31.473  44.986   3.836
25268W        W97583  21.058  10.681  12.912
25269W        W97584   1.275  28.494  13.870
25270W        W97585   1.288  28.602  11.022
25271W        W97586  24.140  27.668  11.416
25272W        W97587  27.043  16.251   4.206
25273W        W97588  27.555   6.321   4.198
25274W        W97589  17.178  16.155   0.443
25275W        W97590   4.207  41.527  14.778
25276W        W97591  23.160  34.560  10.444
25277W        W97592  31.402  22.173   1.863
25278W        W97593  33.066  17.760  14.933
25279W        W97594  29.653  10.310   1.283
25280W        W97595  22.182   4.870   0.797
25281W        W97596  26.478  27.107  11.990
25282W        W97597  15.784  40.953  11.005
25283W        W97598  39.022  11.736  12.886
25284W        W97599  27.600   8.832   3.334
25285W        W97600  29.648  13.749  14.497
25286W        W97601  13.734  11.221  11.597
25287W        W97602  21.581  23.215   0.859
25288W        W97603   2.825  43.423   1.923
25289W        W97604  15.084  36.853  13.820
25290W        W97605  20.552  36.560   2.677
25291W        W97606   0.815   5.300   4.650
25292W        W97607  19.760  18.269  14.377
25293W        W97608   6.686  24.643  14.800
25294W        W97609   5.746   9.849   2.211
25295W        W97610  42.397   4.915  12.064
25296W        W97611  33.467   0.845  10.428
25297W        W97612  14.310   0.749  13.487
25298W        W97613   8.790  28.100   1.812
25299W        W97614  40.835  21.543  12.555
25300W        W97615  18.767  13.812   4.349
25301W        W97616  32.947  35.919   0.888
25302W        W97617   3.785  37.957   2.228
25303W        W97618   6.291  44.368  11.965
25304W        W97619  40.466  29.525  13.519
25305W        W97620  43.474  28.034  10.050
25306W        W97621  16.273  26.080   3.156
25307W        W97622  31.028  16.298   4.340
25308W        W97623   2.966  22.702  11.969
25309W        W97624  34.392  23.595  10.457
25310W        W97625   1.948  15.732  12.064
25311W        W97626   7.889   7.912  10.626
25312W        W97627  30.910  27.179   4.301
25313W        W97628  11.257   8.402   4.191
25314W        W97629  35.996  38.486  11.987
25315W        W97630  37.488  16.703   1.920
25316W        W97631  11.679   6.921  13.387
25317W        W97632   6.746  42.507  11.544
25318W        W97633  11.357  38.061   4.706
25319W        W97634  15.192  32.972  11.925
25320W        W97635  16.173  14.714  14.008
25321W        W97636  27.481   4.384   2.414
25322W        W97637  38.566  12.845  14.446
25323W        W97638  44.269   9.697   9.975
25324W        W97639  39.970  34.974   2.733
25325W        W97640  38.902   2.757  14.948
25326W        W97641   6.369   2.402  14.837
25327W        W97642  34.940  21.113   1.787
25328W        W97643   1.769  33.579  11.093
25329W        W97644  29.641  44.330   1.258
25330W        W97645  27.197  33.379  10.094
25331W        W97646  33.063  14.607   2.194
25332W        W97647  18.765  25.063  10.986
25333W        W97648  25.610  27.511   3.854
25334W        W97649  10.339  32.423  12.933
25335W        W97650   0.297  34.529  11.593
25336W        W97651  32.053  16.244  11.504
25337W        W97652  18.242  12.352   3.156
25338W        W97653  35.587  27.595  11.513
25339W        W97654   3.374  41.036   4.265
25340W        W97655  31.429  23.664   2.820
25341W        W97656  44.265  18.291   3.181
25342W        W97657  29.093   9.372  12.517
25343W        W97658  24.553   2.277  14.898
25344W        W97659   2.772   5.273  14.337
25345W        W97660  19.610  37.434   2.183
25346W        W97661  33.617  19.717  11.528
25347W        W97662  25.649  38.507   4.662
25348W        W97663  43.504  28.652   0.937
25349W        W97664  42.943  43.893  14.424
25350W        W97665  18.753  30.908   2.379
25351W        W97666  37.925  38.511   0.366
25352W        W97667  24.069  13.819   4.353
25353W        W97668  14.300  38.928  12.502
25354W        W97669   1.925  25.551   4.623
25355W        W97670  30.978  15.766  11.422
25356W        W97671   4.889  31.618  13.540
25357W        W97672  28.978  42.871   0.301
25358W        W97673  34.881  41.830   0.450
25359W        W97674  11.651  19.257   4.136
25360W        W97675  21.045   3.823  11.485
25361W        W97676   1.271  27.603  10.544
25362W        W97677  11.803   3.867   1.739
25363W        W97678  15.216  21.531   3.655
25364W        W97679  37.039  14.832  12.446
25365W        W97680  29.643   9.854  12.887
25366W        W97681  20.747   8.799  13.376
25367W        W97682  35.983  28.057   4.803
25368W        W97683  22.996  41.980  12.463
25369W        W97684  44.995  24.511  14.853
25370W        W97685   3.816  25.689   0.363
25371W        W97686   4.746   0.253  11.073
25372W        W97687  12.235  26.670   0.306
25373W        W97688  29.952  41.366   2.394
25374W        W97689  18.173  12.678  14.981
25375W        W97690  33.613   3.787   1.390
25376W        W97691  18.245  11.209   4.140
25377W        W97692   5.421  10.271   1.257
25378W        W97693  44.941  19.095  10.951
25379W        W97694  35.516   0.368   1.785
25380W        W97695  20.697   0.939  13.352
25381W        W97696  37.458  15.771  11.516
25382W        W97697  15.723  19.752  12.345
25383W        W97698  33.599  35.072   5.321
25384W        W97699  22.047  37.937   2.283
25385W        W97700  37.025  11.836   2.722
25386W        W97701  34.462  44.315  12.428
25387W        W97702   0.455  12.737   1.369
25388W        W97703  38.549  20.167  13.053
25389W        W97704  43.812   4.406  12.458
25390W        W97705  27.650  38.014   2.253
25391W        W97706  15.673  31.493  12.558
25392W        W97707  24.024  30.586   3.380
25393W        W97708  29.466  25.983   0.830
25394W        W97709   2.400  40.962   1.911
25395W        W97710   2.853  37.505  13.996
25396W        W97711  26.116   4.941   4.341
25397W        W97712   7.283  19.100  11.566
25398W        W97713  23.058  23.719  12.934
25399W        W97714   6.224   7.853  10.983
25400W        W97715  33.525  13.110  11.040
25401W        W97716   9.681   3.805  11.870
25402W        W97717  21.626  30.989  11.576
25403W        W97718  33.957  17.755  13.376
25404W        W97719  25.571   6.847  14.015
25405W        W97720  35.945   6.741   4.268
25406W        W97721  12.835  30.579  11.901
25407W        W97722  35.433  33.512   2.204
25408W        W97723  27.641   8.209   2.738
25409W        W97724  38.055  30.630   2.771
25410W        W97725  31.048  41.972  11.423
25411W        W97726  15.751  16.647   3.793
25412W        W97727   5.239  16.114  11.518
25413W        W97728  19.220  40.900  12.436
25414W        W97729  22.232  35.599   3.312
25415W        W97730  28.103  18.613  10.015
25416W        W97731  13.628  12.737   1.334
25417W        W97732  11.710  35.065  13.064
25418W        W97733  10.235  32.444  12.056
25419W        W97734   7.865   3.770   2.849
25420W        W97735  40.465  42.517  13.929
25421W        W97736  12.269  20.689  11.885
25422W        W97737   9.282  15.158  14.971
25423W        W97738   6.782   6.835   1.871
25424W        W97739  19.548  26.615   1.274
25425W        W97740  42.494  17.659   3.645
25426W        W97741  40.482   7.331  10.450
25427W        W97742  40.967  19.271   4.138
25428W        W97743  25.216  42.785   3.344
25429W        W97744  10.179  22.177  11.860
25430W        W97745  25.167  17.801  13.990
25431W        W97746  39.325  15.787  12.894
25432W        W97747  21.721   7.283  12.525
25433W        W97748  18.721  16.764  13.010
25434W        W97749  11.316  42.820  12.421
25435W        W97750  11.857  14.106  14.963
25436W        W97751   5.712   0.433   1.398
25437W        W97752  25.511  35.026   1.841
25438W        W97753  28.502  33.545   1.222
25439W        W97754   2.332  31.637  12.002
25440W        W97755  40.891   5.720  13.974
25441W        W97756  43.425  20.198   2.283
25442W        W97757   1.899  31.051  13.799
25443W        W97758   8.178  34.085  12.416
25444W        W97759   4.936  36.411   0.874
25445W        W97760   6.369   8.686   4.296
25446W        W97761  15.762  20.200   5.086
25447W        W97762  40.053  28.474  14.398
25448W        W97763   5.351   8.323  13.907
25449W        W97764  19.160  36.849  13.385
25450W        W97765  22.072  19.713  11.464
25451W        W97766  15.628   2.283   0.802
25452W        W97767   8.654  26.664   4.621
25453W        W97768  10.776  15.197  11.407
25454W        W97769  13.149   3.916   3.351
25455W        W97770  11.342  37.401   0.362
25456W        W97771  26.028  37.448   0.956
25457W        W97772   0.778  39.918   1.335
25458W        W97773  16.808  22.997   1.866
25459W        W97774   8.183   9.293  13.324
25460W        W97775  30.114  14.739   2.797
25461W        W97776  39.017  35.021  11.954
25462W        W97777  12.241  32.959   4.195
25463W        W97778  11.830  39.515   4.227
25464W        W97779  37.925  25.206  14.765
25465W        W97780  33.424  18.593  10.455
25466W        W97781   1.329  15.253  11.951
25467W        W97782  31.921  20.562   1.220
25468W        W97783  37.422   2.261   3.352
25469W        W97784  42.376   9.751   3.749
25470W        W97785  41.926   9.709  13.037
25471W        W97786   1.818  36.444  13.063
25472W        W97787  28.594  35.503   2.774
25473W        W97788   5.703  43.997  13.805
25474W        W97789   1.929  18.124   0.808
25475W        W97790  20.114  10.709  11.423
25476W        W97791   2.273  41.345  10.125
25477W        W97792  20.140   3.444  11.573
25478W        W97793  24.598  38.356   1.418
25479W        W97794   6.869  43.310   0.935
25480W        W97795  12.144  27.534  11.902
25481W        W97796  34.588  17.654   3.201
25482W        W97797  25.620   1.815  10.412
25483W        W97798   7.240  21.135  14.837
25484W        W97799  22.627  17.715  10.941
25485W        W97800  35.407  21.253  11.970
25486W        W97801  39.505  35.955   1.252
25487W        W97802  42.341   7.212   1.761
25488W        W97803   6.727  23.005   4.346
25489W        W97804  31.152  37.884  13.443
25490W        W97805  43.322  15.709   3.358
25491W        W97806  19.573  19.656  11.502
25492W        W97807   2.472  11.829   0.353
25493W        W97808  26.623  32.040  11.078
25494W        W97809  28.016  27.077  12.095
25495W        W97810   7.389  29.461  11.983
25496W        W97811  38.030  21.622   2.387
25497W        W97812  25.611  11.704   4.346
25498W        W97813  11.787  14.230   3.698
25499W        W97814  25.090  11.128  14.436
25500W        W97815  25.567  35.439  11.014
25501W        W97816  31.911  22.636  11.555
25502W        W97817  10.341  29.531  10.639
25503W        W97818   8.233  12.143   0.344
25504W        W97819  27.057  26.602   0.848
25505W        W97820  28.652  23.066   3.866
25506W        W97821  39.487   0.799  10.468
25507W        W97822  27.550   9.338  14.291
25508W        W97823  23.570   5.411   4.343
25509W        W97824  17.781  33.065   1.699
25510W        W97825  17.692  40.448   3.685
25511W        W97826   3.298  12.361   1.835
25512W        W97827   7.666   4.344  12.952
25513W        W97828  11.708  23.624  10.925
25514W        W97829  18.770  15.814  13.020
25515W        W97830  39.840  26.471  11.923
25516W        W97831  10.176  11.265  13.519
25517W        W97832  31.096  38.476   2.298
25518W        W97833   2.235  39.548   4.317
25519W        W97834  23.624  26.471  14.855
25520W        W97835  29.557  27.537   2.305
25521W        W97836   8.658  33.524   4.676
25522W        W97837  37.423   2.250  11.455
25523W        W97838  32.083  20.111   1.920
25524W        W97839   0.486  33.532  12.427
25525W        W97840  20.684  22.083  10.530
25526W        W97841  39.976  23.561   1.349
25527W        W97842  29.122  34.572  14.767
25528W        W97843  25.120  22.169   0.472
25529W        W97844  40.908  15.119   3.282
25530W        W97845  34.526  26.620   2.268
25531W        W97846   4.264  16.179  14.903
25532W        W97847  37.358   3.253   3.366
25533W        W97848  39.397  27.458  13.931
25534W        W97849   0.405   5.877  10.550
25535W        W97850  36.462   6.354   3.204
25536W        W97851  34.022   1.779  13.473
25537W        W97852   2.233   3.235  10.458
25538W        W97853  16.256   5.219  13.823
25539W        W97854  27.074   2.444   3.363
25540W        W97855  25.208  44.437  10.522
25541W        W97856  28.983  20.260   1.862
25542W        W97857  23.115  27.482  11.103
25543W        W97858  27.602  22.612   2.892
25544W        W97859   2.824  20.589  10.531
25545W        W97860   7.374  12.182   1.348
25546W        W97861  33.940  20.257  13.325
25547W        W97862  19.226  30.604  13.949
25548W        W97863  39.429   9.795   4.341
25549W        W97864  12.689   1.369   4.220
25550W        W97865  19.141  12.832  13.980
25551W        W97866  13.167  24.033   5.127
25552W        W97867  33.000  40.412  13.831
25553W        W97868  40.340  37.957   1.894
25554W        W97869  27.483   4.245   3.256
25555W        W97870   9.652  16.219  14.350
25556W        W97871   2.926  14.333   2.381
25557W        W97872  28.006   6.250   9.926
25558W        W97873  20.039  14.695  13.888
25559W        W97874  13.185  22.103  11.423
25560W        W97875  43.484   4.784   2.332
25561W        W97876   8.255  13.124   2.723
25562W        W97877   8.861  28.184   3.295
25563W        W97878  41.432  20.569  14.876
25564W        W97879   6.773  35.915   1.403
25565W        W97880  30.646   5.874  10.409
25566W        W97881  35.577  37.832  14.335
25567W        W97882   7.187  27.192   3.228
25568W        W97883   3.368   5.293   0.305
25569W        W97884   2.316  36.085   3.365
25570W        W97885  15.646  32.430  12.923
25571W        W97886   0.777  14.683  13.898
25572W        W97887  37.345  37.388   2.874
25573W        W97888  33.411   5.439  11.058
25574W        W97889  43.322   3.800  14.794
25575W        W97890  23.117  14.606   2.383
25576W        W97891   5.860  15.764   1.219
25577W        W97892   6.860  33.530  13.794
25578W        W97893  22.028   9.235  12.956
25579W        W97894   4.748   0.465   2.383
25580W        W97895  19.651  41.401  10.537
25581W        W97896  35.581  44.858  13.869
25582W        W97897  16.154  24.645   1.317
25583W        W97898  19.692  34.033  13.465
25584W        W97899  14.249  30.938  13.820
25585W        W97900  36.510  28.008  11.394
25586W        W97901  41.314  33.469   4.648
25587W        W97902   1.451   6.833   2.746
25588W        W97903   4.826  18.088  11.407
25589W        W97904  27.960  22.650   4.243
25590W        W97905   0.291  42.011  11.918
25591W        W97906  10.702  36.369   3.341
25592W        W97907   6.268   9.240   4.201
25593W        W97908   5.777  29.110   1.230
25594W        W97909  23.666  26.557   0.280
25595W        W97910  13.206  26.020   3.637
25596W        W97911  22.190  21.044  11.965
25597W        W97912  41.793  13.239   0.776
25598W        W97913  42.948  44.421  10.031
25599W        W97914  14.301  18.764   2.298
25600W        W97915  20.235  32.459   2.710
25601W        W97916   6.225  43.946   4.604
25602W        W97917  25.069  27.593  10.440
25603W        W97918  10.243   8.232   0.844
25604W        W97919  33.401  32.449  11.980
25605W        W97920  37.568   2.433  12.515
25606W        W97921   3.270   3.785   4.298
25607W        W97922  13.604  16.209  14.492
25608W        W97923  33.569   8.743  12.873
25609W        W97924   3.420   3.449  13.848
25610W        W97925  17.224   2.259   3.784
25611W        W97926  22.041   8.829  13.912
25612W        W97927   2.957  20.052   1.279
25613W        W97928  17.565  38.903  13.516
25614W        W97929  26.116  26.138  12.988
25615W        W97930  39.057  18.181   1.816
25616W        W97931   8.725   8.794   0.292
25617W        W97932  14.126  39.557  13.313
25618W        W97933  34.485  19.265   2.418
25619W        W97934   0.775   5.813  14.012
25620W        W97935  31.517   6.341  10.495
25621W        W97936  17.088  38.365   1.286
25622W        W97937  22.187  33.955   4.698
25623W        W97938  41.937   9.386  12.828
25624W        W97939  39.472  14.824   3.211
25625W        W97940  42.310  26.971  13.540
25626W        W97941   9.388  23.044   1.799
25627W        W97942  33.896  44.812  13.000
25628W        W97943  28.136  38.930   9.964
25629W        W97944  31.921   1.823   0.878
25630W        W97945  32.141   6.193  11.879
25631W        W97946  24.045  10.229  14.292
25632W        W97947  42.385  39.434   0.801
25633W        W97948  35.924  16.613  11.916
25634W        W97949   7.311  26.637   3.800
25635W        W97950  18.190   2.880  11.893
25636W        W97951  35.383   5.326   4.303
25637W        W97952  18.707  32.033   1.278
25638W        W97953   9.237  42.334   3.660
25639W        W97954   2.757  38.378   0.461
25640W        W97955  30.439   9.274  13.545
25641W        W97956  25.022  41.353   2.795
25642W        W97957  21.689  38.981   1.365
25643W        W97958  30.439  19.775   2.291
25644W        W97959   4.803  19.717  13.308
25645W        W97960  32.436  27.991  12.982
25646W        W97961  14.111  10.364  11.928
25647W        W97962  38.041  44.504  13.929
25648W        W97963  28.581   4.326   3.314
25649W        W97964  21.233  36.892   1.901
25650W        W97965  15.217  33.932   4.344
25651W        W97966  31.442  12.656  14.992
25652W        W97967  16.777  27.607   0.729
25653W        W97968   4.329   4.829  12.058
25654W        W97969  39.485   1.833  11.990
25655W        W97970   3.454  23.694   4.683
25656W        W97971   3.951  37.517  13.523
25657W        W97972   4.381  43.831   1.433
25658W        W97973   1.437  34.491   0.437
25659W        W97974  25.153   2.756   2.264
25660W        W97975  39.327  24.991   0.960
25661W        W97976  15.314  31.424   2.218
25662W        W97977  31.942  32.559   2.266
25663W        W97978   4.782  30.594   4.679
25664W        W97979  34.993  22.702   4.672
25665W        W97980  11.727  37.433  13.937
25666W        W97981  34.471  14.156   1.227
25667W        W97982  20.238  25.964   4.330
25668W        W97983  33.498  39.809  13.892
25669W        W97984  19.534  13.658  10.467
25670W        W97985  34.983  39.821   0.852
25671W        W97986  30.616   1.930  12.541
25672W        W97987  24.078   7.202   0.400
25673W        W97988  16.205  40.994   1.424
25674W        W97989   2.753  21.620   3.257
25675W        W97990  30.909  13.115   3.342
25676W        W97991  27.615   2.374   1.867
25677W        W97992  40.522  14.723   1.848
25678W        W97993  29.982  24.147  13.316
25679W        W97994   0.779  44.929   1.706
25680W        W97995  20.603  40.509   1.343
25681W        W97996  30.625  24.677  10.454
25682W        W97997  32.895   2.290   3.247
25683W        W97998  38.884  12.642   1.288
25684W        W97999  37.424  16.756  10.560
25685W        W98000  38.876  27.664   1.718
25686W        W98001   0.938  34.998  14.344
25687W        W98002  44.309  10.755  11.388
25688W        W98003  19.649  16.714  13.817
25689W        W98004  12.733  16.312   1.806
25690W        W98005  15.144  44.487  13.959
25691W        W98006  19.577  31.028  12.047
25692W        W98007  11.718  39.897   3.296
25693W        W98008  27.677   4.291   1.830
25694W        W98009  39.330  24.677  14.383
25695W        W98010  18.682  16.203  10.558
25696W        W98011  36.446   1.447  11.101
25697W        W98012  20.654  17.703   4.637
25698W        W98013  31.621  19.273   2.373
25699W        W98014  10.156   9.238   4.605
25700W        W98015  42.389  15.616  13.009
25701W        W98016  32.981  20.096  11.488
25702W        W98017  18.647  32.048  10.932
25703W        W98018  24.649  43.838   3.800
25704W        W98019  15.178   7.411   3.277
25705W        W98020  29.037   8.198   3.811
25706W        W98021  31.133  30.484  13.310
25707W        W98022  21.677  26.192   3.179
25708W        W98023  19.581  14.186   3.801
25709W        W98024  20.147   2.737   0.376
25710W        W98025  22.109  37.884   0.398
25711W        W98026  11.821  16.135  14.471
25712W        W98027  20.152  42.363  14.888
25713W        W98028   0.959  17.096   3.234
25714W        W98029  39.823  31.514  13.817
25715W        W98030  14.121   8.401  12.547
25716W        W98031  18.229   4.803   4.190
25717W        W98032  41.917  25.006  12.999
25718W        W98033  37.927  41.798  13.471
25719W        W98034  25.207  28.517   1.862
25720W        W98035   9.881  34.038   3.753
25721W        W98036  12.185  20.608   3.646
25722W        W98037  30.164  28.973  11.415
25723W        W98038  29.072  39.519   3.825
25724W        W98039   0.313  34.019  14.427
25725W        W98040  15.214   3.309   0.892
25726W        W98041  15.589   5.289  13.332
25727W        W98042  35.396  10.860  11.035
25728W        W98043  37.470  44.304   3.285
25729W        W98044  41.842  22.682   1.365
25730W        W98045  20.136   5.286   4.836
25731W        W98046  11.233   7.307   0.774
25732W        W98047   9.349  26.952   2.750
25733W        W98048  29.555  13.149   4.161
25734W        W98049   9.826  14.651  10.898
25735W        W98050  31.901  10.344  14.986
25736W        W98051  13.837  35.939  10.534
25737W        W98052   2.825   3.907   3.742
25738W        W98053  15.673  12.760  11.499
25739W        W98054   1.407  26.487   2.276
25740W        W98055  30.589  11.279  11.875
25741W        W98056  28.015  42.994  12.457
25742W        W98057  43.808  17.696   3.258
25743W        W98058   9.700  21.194  11.573
25744W        W98059  23.717  20.071   4.197
25745W        W98060  11.771  20.680  10.524
25746W        W98061  32.957  28.172  14.773
25747W        W98062  28.530  24.167  14.928
25748W        W98063  37.411  14.165  11.115
25749W        W98064  27.964  13.191   2.253
25750W        W98065   6.393  44.777  14.478
25751W        W98066   1.273   8.372   4.696
25752W        W98067  39.473  22.128   1.856
25753W        W98068  30.110   3.450  13.895
25754W        W98069  39.559   8.718   0.414
25755W        W98070  34.902  27.613  12.380
25756W        W98071  35.046   3.254  12.996
25757W        W98072  27.644  29.941  14.971
25758W        W98073   7.787  12.752   3.843
25759W        W98074  32.555  14.131   2.307
25760W        W98075  37.388  21.070  11.998
25761W        W98076  10.313   9.659   4.204
25762W        W98077  19.772  12.717  11.400
25763W        W98078  17.271   3.220   2.842
25764W        W98079  25.031  32.915  11.022
25765W        W98080  23.027  17.796  10.921
25766W        W98081  39.371   7.795   2.718
25767W        W98082  40.472  21.574  10.921
25768W        W98083  44.311   5.413   3.308
25769W        W98084  36.560   3.334   4.217
25770W        W98085  15.101  14.657   3.659
25771W        W98086  34.896  16.283   0.440
25772W        W98087  15.655  25.711  14.844
25773W        W98088   6.307  11.783  10.443
25774W        W98089  11.206  30.040  13.968
25775W        W98090  36.378  23.087   3.645
25776W        W98091  10.728  22.627   2.257
25777W        W98092  30.097  10.141  10.914
25778W        W98093   2.829  22.055  10.514
25779W        W98094   9.722  11.693   3.191
25780W        W98095  16.111  21.538  11.123
25781W        W98096  42.409  43.831  12.907
25782W        W98097  31.471  29.461  11.573
25783W        W98098  25.211  27.489  13.484
25784W        W98099  22.081   7.893   0.382
25785W        W98100  39.414   3.419   2.735
25786W        W98101   4.430   5.917   4.268
25787W        W98102  40.969  20.547  10.438
25788W        W98103  20.551  30.561  12.870
25789W        W98104  36.395  19.762  11.587
25790W        W98105  15.111  31.969   2.331
25791W        W98106  25.209  13.315  12.374
25792W        W98107  12.190   1.273   1.410
25793W        W98108  44.002  36.491  11.942
25794W        W98109  22.168  37.062  11.944
25795W        W98110  13.712   7.774  13.342
25796W        W98111  29.118  27.098   3.270
25797W        W98112  32.510  15.781  11.949
25798W        W98113  35.374  17.617   1.762
25799W        W98114  16.618  42.478  11.456
25800W        W98115  14.650  40.396   1.916
25801W        W98116  19.617   5.289  12.061
25802W        W98117  25.218   5.286  13.994
25803W        W98118  31.098  29.037   3.268
25804W        W98119  37.572  24.522  10.033
25805W        W98120  14.185  20.160  13.914
25806W        W98121  33.875  35.591  10.553
25807W        W98122  11.164   8.180  12.973
25808W        W98123  14.252  11.217   4.749
25809W        W98124   1.799   7.676   4.632
25810W        W98125   0.794   5.346   1.802
25811W        W98126  40.332  28.656   0.748
25812W        W98127   9.164  12.313   1.772
25813W        W98128  24.202  34.932  10.099
25814W        W98129  33.513  13.610   3.728
25815W        W98130  34.583  26.190   4.719
25816W        W98131  14.229   9.378  13.496
25817W        W98132  22.034  20.051   0.313
25818W        W98133  25.085  36.524   4.630
25819W        W98134  15.585  13.143   4.619
25820W        W98135   8.203  24.667  13.956
25821W        W98136  13.653   5.887   0.786
25822W        W98137   2.840  41.835  13.995
25823W        W98138  10.264  24.001  11.880
25824W        W98139  42.293   9.328  11.033
25825W        W98140  18.597  33.380  10.920
25826W        W98141  27.172  29.481   1.777
25827W        W98142  13.275  40.513   1.778
25828W        W98143  39.953   6.193  14.384
25829W        W98144  31.624  22.146   3.705
25830W        W98145   2.315  38.836   2.876
25831W        W98146  20.253  16.243   2.729
25832W        W98147  14.141  23.067   4.639
25833W        W98148  30.514   4.802   0.910
25834W        W98149  41.329   5.306  13.525
25835W        W98150  14.209  19.548   0.911
25836W        W98151  24.506   8.854   4.195
25837W        W98152  14.178  20.115   3.199
25838W        W98153  37.910  20.045   2.690
25839W        W98154  13.346  16.572  13.958
25840W        W98155  27.544  34.388  13.808
25841W        W98156  37.009  41.996  11.128
25842W        W98157   2.727  11.181   0.846
25843W        W98158  20.254   6.230  12.378
25844W        W98159  23.727  10.150   0.778
25845W        W98160  22.707  30.564  12.882
25846W        W98161  17.610  29.630   2.272
25847W        W98162   8.280  36.927  13.391
25848W        W98163  43.919  20.123   0.255
25849W        W98164  38.872  21.588   1.223
25850W        W98165  12.738  31.546  12.983
25851W        W98166  37.516   6.353  12.460
25852W        W98167  21.035  30.533  12.858
25853W        W98168  22.176  28.630   4.295
25854W        W98169   7.316  15.820   5.218
25855W        W98170  12.734  30.442   0.268
25856W        W98171   7.827   3.950   0.859
25857W        W98172   8.770   9.264   1.322
25858W        W98173  42.295  16.269   1.856
25859W        W98174  17.122  38.525   1.750
25860W        W98175  27.620  38.455  13.891
25861W        W98176  26.461  12.137  13.340
25862W        W98177  40.864   7.251   0.740
25863W        W98178  31.008   7.711  14.384
25864W        W98179  39.850  20.604  10.592
25865W        W98180  43.294   6.338  11.429
25866W        W98181  17.081   3.744   0.909
25867W        W98182  24.983   8.881  14.983
25868W        W98183   1.912   9.390   0.940
25869W        W98184  41.359   4.859   0.957
25870W        W98185  22.204  29.498  12.518
25871W        W98186  37.424  23.681   5.798
25872W        W98187  42.807   9.391  14.438
25873W        W98188  26.622   7.876  13.059
25874W        W98189  18.591  30.995  14.340
25875W        W98190  20.038  44.971   2.713
25876W        W98191   1.466  32.414  11.542
25877W        W98192   6.752   6.845   2.896
25878W        W98193  32.402  31.019   1.283
25879W        W98194  31.433  14.110  10.444
25880W        W98195   0.979  42.326  11.037
25881W        W98196  17.116  43.350   2.844
25882W        W98197  18.665   0.796   1.412
25883W        W98198   7.393   1.295   0.294
25884W        W98199  31.963  13.338   5.263
25885W        W98200  25.678   9.727  14.981
25886W        W98201   8.241  34.407  12.930
25887W        W98202  13.218   8.752  12.038
25888W        W98203  43.884   6.349  14.507
25889W        W98204  26.626  15.316  14.778
25890W        W98205  14.733  10.244   2.339
25891W        W98206  13.223   7.833  12.015
25892W        W98207   5.359  32.126  11.994
25893W        W98208  34.586  23.563   0.914
25894W        W98209   3.430  25.583   0.734
25895W        W98210  12.815  33.478  14.452
25896W        W98211   1.437  44.385  12.350
25897W        W98212  20.226  23.612   1.918
25898W        W98213  21.076   2.472   3.217
25899W        W98214   3.744  19.629   2.242
25900W        W98215  25.708   7.238  12.455
25901W        W98216  32.923  22.111  14.785
25902W        W98217  17.254  27.982  12.998
25903W        W98218  16.105  30.449  13.820
25904W        W98219   1.374   8.212   1.270
25905W        W98220  14.597  44.372   1.283
25906W        W98221  33.418  29.080  12.534
25907W        W98222  42.936  31.114  11.428
25908W        W98223  25.664   7.755  11.943
25909W        W98224  16.315  23.552  12.906
25910W        W98225  17.576  30.124  11.464
25911W        W98226  12.190  43.933   4.700
25912W        W98227  27.039  13.624   1.259
25913W        W98228  26.971   2.795   5.122
25914W        W98229  21.687  33.067   2.196
25915W        W98230  35.977  25.028  11.857
25916W        W98231  23.231  21.048  12.013
25917W        W98232  42.009  15.113  11.448
25918W        W98233   4.206  37.072   4.237
25919W        W98234  12.785  42.836  14.926
25920W        W98235  31.441   0.303  11.397
25921W        W98236   9.290   1.423  13.521
25922W        W98237  24.107  28.081  13.508
25923W        W98238  28.990   7.372   2.889
25924W        W98239  25.986  19.205   1.342
25925W        W98240   6.355   3.234   0.913
25926W        W98241   7.394  40.832   2.729
25927W        W98242  33.114  25.076   4.731
25928W        W98243  28.123   6.846  14.972
25929W        W98244  34.070  26.176   1.813
25930W        W98245  17.243  10.672   0.760
25931W        W98246   3.253  23.015  10.553
25932W        W98247  28.514  27.681  11.510
25933W        W98248  33.015   3.413  13.439
25934W        W98249  36.971  31.025   0.470
25935W        W98250  10.846  27.026  13.391
25936W        W98251  42.959   3.445   0.246
25937W        W98252  24.622  29.448   3.183
25938W        W98253  37.562  21.700  13.404
25939W        W98254  24.546  13.157  12.568
25940W        W98255  33.566  18.083  12.426
25941W        W98256  20.141   7.773  12.065
25942W        W98257   0.856  40.305   0.776
25943W        W98258  21.560  42.438   1.706
25944W        W98259  17.083   4.739  12.533
25945W        W98260  20.626  12.620  14.869
25946W        W98261  44.479   9.682  13.381
25947W        W98262  24.505   1.731  14.367
25948W        W98263  10.710  43.776  14.029
25949W        W98264  37.525  32.592  14.922
25950W        W98265  44.863  26.503  12.036
25951W        W98266  36.462  16.802  11.984
25952W        W98267   2.894  23.702  14.892
25953W        W98268  44.300  26.679   4.631
25954W        W98269   4.260  35.918   3.638
25955W        W98270  37.914  15.823  13.978
25956W        W98271   0.283   1.428   1.400
25957W        W98272  40.901   5.318   3.304
25958W        W98273   9.355   1.952   3.272
25959W        W98274  14.202  19.240  13.976
25960W        W98275  24.101  38.330   3.734
25961W        W98276  24.986  23.727   1.277
25962W        W98277  40.541  14.744   1.392
25963W        W98278  11.241  18.576   0.816
25964W        W98279  11.837  28.946  12.470
25965W        W98280  21.626  38.883  14.329
25966W        W98281  30.086  11.813  14.456
25967W        W98282   1.318  28.958  11.603
25968W        W98283  35.604  42.281  11.440
25969W        W98284  44.296  11.191  13.477
25970W        W98285  34.027  25.480   4.292
25971W        W98286  36.957  36.938  13.412
25972W        W98287   7.402  23.590   4.683
25973W        W98288  14.676  28.011  13.045
25974W        W98289   5.408  35.551   3.736
25975W        W98290  20.588  27.103  12.537
25976W        W98291  39.439  16.173  13.879
25977W        W98292   8.670  10.354  13.968
25978W        W98293  32.142  25.670  12.078
25979W        W98294  21.537  28.617   1.392
25980W        W98295  27.973  39.486   4.812
25981W        W98296  17.080   6.234   3.762
25982W        W98297  10.637  14.171  14.283
25983W        W98298   6.678  29.063  13.484
25984W        W98299  27.042  13.170   4.161
25985W        W98300  36.589  28.027  14.433
25986W        W98301  26.593  11.149  12.407
25987W        W98302   0.936  32.614  12.524
25988W        W98303  30.110   3.732  11.913
25989W        W98304  29.640  41.496  12.047
25990W        W98305  11.140   6.333  10.462
25991W        W98306  42.509  37.390   0.738
25992W        W98307   2.731  29.440   4.297
25993W        W98308  43.815  26.495  12.580
25994W        W98309   4.837  13.220   3.324
25995W        W98310  37.066  38.494   1.376
25996W        W98311  16.633   0.984  12.862
25997W        W98312  19.640  10.845   3.288
25998W        W98313  44.945   5.712  11.526
25999W        W98314  16.673  44.400  12.534
26000W        W98315  31.608  35.384  14.392
26001W        W98316   3.718  11.278   4.130
26002W        W98317  44.261  36.042  12.829
26003W        W98318  21.554   2.877   0.777
26004W        W98319  31.053   7.215   2.351
26005W        W98320   2.454  20.753  12.005
26006W        W98321  13.266   8.710  14.368
26007W        W98322   4.829  36.979  13.865
26008W        W98323  25.540  23.036  10.504
26009W        W98324  17.790  24.568  13.400
26010W        W98325  35.505  35.569  10.989
26011W        W98326  34.936   4.246   0.260
26012W        W98327  29.470  10.869  11.567
26013W        W98328  18.688  19.256  13.831
26014W        W98329  13.747   4.421   0.310
26015W        W98330  39.919  13.163   1.699
26016W        W98331  14.769  10.873  14.791
26017W        W98332  38.984   4.761   0.453
26018W        W98333  14.126  27.152   4.292
26019W        W98334  30.923  42.371   3.360
26020W        W98335  30.914  44.436  12.893
26021W        W98336   4.750  39.455   4.333
26022W        W98337  28.947  43.793   3.867
26023W        W98338  44.997   5.194  13.837
26024W        W98339  23.674   1.387   4.335
26025W        W98340   0.972  20.746   0.384
26026W        W98341  36.954  14.716  11.987
26027W        W98342  13.251  40.490   3.178
26028W        W98343  36.575  36.581  11.582
26029W        W98344  34.601  12.782   0.377
26030W        W98345  25.998  31.609  10.430
26031W        W98346  35.387  10.657   0.305
26032W        W98347  33.914  13.716   2.325
26033W        W98348  28.179  26.072   9.996
26034W        W98349   1.969  25.178   1.265
26035W        W98350  27.076  28.985  14.775
26036W        W98351  39.952  13.323   3.796
26037W        W98352  40.410   4.722   4.173
26038W        W98353  15.650  35.476  12.539
26039W        W98354  31.499  19.280  12.498
26040W        W98355  38.825  14.593  14.831
26041W        W98356  15.783  22.502   4.778
26042W        W98357   8.691  12.171   1.427
26043W        W98358  24.209  17.585   4.608
26044W        W98359  27.181   7.330   2.361
26045W        W98360  25.637  11.743   3.157
26046W        W98361  15.650  14.215   2.382
26047W        W98362  31.066  18.737  13.363
26048W        W98363  35.409  27.967  10.938
26049W        W98364   3.717  28.436   3.175
26050W        W98365  22.032  13.783  14.017
26051W        W98366   6.713  35.970  11.047
26052W        W98367  43.502  37.367   3.156
26053W        W98368  29.433   5.427  12.380
26054W        W98369  25.135   7.760  14.411
26055W        W98370  29.655  35.879  14.799
26056W        W98371   0.934   8.656  11.974
26057W        W98372  33.531  29.556  12.981
26058W        W98373  11.827  13.709  13.999
26059W        W98374  42.426   3.816  13.380
26060W        W98375  25.090  13.313   4.650
26061W        W98376  20.261  16.722  11.947
26062W        W98377  37.576  11.753   2.315
26063W        W98378   0.257  35.883  13.312
26064W        W98379   0.942   8.823  10.455
26065W        W98380  10.771   4.760   2.855
26066W        W98381  11.364  42.449  12.854
26067W        W98382  44.373  26.985  10.603
26068W        W98383  35.944  31.070  12.042
26069W        W98384  24.228  12.170   2.416
26070W        W98385  19.210  20.257   2.181
26071W        W98386  38.918   3.901  12.551
26072W        W98387  10.789  11.248  14.486
26073W        W98388  44.862  30.953  12.885
26074W        W98389  11.172  36.920   0.869
26075W        W98390  32.434  40.883   3.850
26076W        W98391  40.954  10.757   0.314
26077W        W98392   2.283  11.779   2.740
26078W        W98393  44.960   3.460  13.967
26079W        W98394   0.457   7.681  11.008
26080W        W98395   9.860  37.537   9.963
26081W        W98396   9.275   0.435   2.733
26082W        W98397  40.861  15.813  10.536
26083W        W98398  40.518  16.642  13.934
26084W        W98399  28.046  40.513   2.405
26085W        W98400  14.613  36.426  11.899
26086W        W98401  23.186   6.188   2.829
26087W        W98402  39.894  35.441   2.264
26088W        W98403  11.795   0.473  14.928
26089W        W98404  21.537  31.136   2.884
26090W        W98405  22.187  14.179  13.309
26091W        W98406  12.685  20.175  14.909
26092W        W98407   1.894  15.177  13.319
26093W        W98408  11.191  34.440   3.668
26094W        W98409   3.302  33.926   1.381
26095W        W98410   6.226  17.256   4.818
26096W        W98411  22.252  37.897  13.459
26097W        W98412   0.830  11.325  13.796
26098W        W98413  42.992  40.401  13.470
26099W        W98414  34.377  15.769  11.041
26100W        W98415  44.916  40.828   2.251
26101W        W98416  14.239  10.380   5.130
26102W        W98417  19.606  32.008   4.679
26103W        W98418  24.703  18.061   2.236
26104W        W98419  30.535  14.740   0.348
26105W        W98420  14.326   9.296   1.820
26106W        W98421   3.834  25.684   2.836
26107W        W98422   8.362  42.311   4.350
26108W        W98423  26.532   4.262   2.324
26109W        W98424  25.705  31.643   2.701
26110W        W98425  16.101  39.826  14.346
26111W        W98426  28.945  36.985   4.248
26112W        W98427  26.599  21.531  12.062
26113W        W98428  13.162  41.909   1.290
26114W        W98429  17.783  20.593   1.814
26115W        W98430  15.253   9.150  12.096
26116W        W98431   3.890  30.429  11.401
26117W        W98432  25.964   7.286   3.307
26118W        W98433  39.989   0.335  12.863
26119W        W98434  30.100  27.537  10.572
26120W        W98435  40.440   2.923  13.362
26121W        W98436  28.595  29.142  13.370
26122W        W98437  32.554  43.952  12.430
26123W        W98438  32.007  25.195   0.947
26124W        W98439  26.630   4.206  10.950
26125W        W98440  35.526  10.336   0.890
26126W        W98441  43.305  38.464   3.264
26127W        W98442   7.231  21.641   4.746
26128W        W98443   4.283   3.456   1.307
26129W        W98444  41.473  44.907   1.425
26130W        W98445   2.724  11.363   3.202
26131W        W98446  37.838  28.175   3.263
26132W        W98447  15.805  33.080   4.779
26133W        W98448  11.362  12.168  13.793
26134W        W98449  17.068  19.197  13.875
26135W        W98450   8.677  20.597  14.404
26136W        W98451  39.840  39.040   1.239
26137W        W98452  37.419  19.652   3.267
26138W        W98453  36.437   1.909  11.953
26139W        W98454   3.820  32.043  12.555
26140W        W98455  30.422  21.215  11.407
26141W        W98456  25.495  21.230  10.627
26142W        W98457  25.565  29.965   4.320
26143W        W98458  15.719  18.685   1.837
26144W        W98459  43.368  29.604   0.836
26145W        W98460  26.187  30.051   1.240
26146W        W98461   8.240  28.139  12.024
26147W        W98462  14.655  25.077   2.742
26148W        W98463  24.701  21.189  11.039
26149W        W98464  37.952  28.461  14.399
26150W        W98465   9.794  39.414   3.367
26151W        W98466  12.634  25.080  12.484
26152W        W98467  40.439   2.432  13.955
26153W        W98468  10.182   8.291   1.368
26154W        W98469  29.045  39.558   3.216
26155W        W98470  42.827  32.471  13.536
26156W        W98471  30.067  36.993   1.369
26157W        W98472  23.214  14.600  14.396
26158W        W98473  33.915  27.976  13.446
26159W        W98474   7.748  19.140  13.503
26160W        W98475  25.564  31.457  12.087
26161W        W98476  13.241  12.190   1.873
26162W        W98477   2.246   5.741   0.806
26163W        W98478  30.568  16.084  10.626
26164W        W98479  19.065  17.572  11.376
26165W        W98480   1.406  19.780  12.970
26166W        W98481  37.937  41.815   2.406
26167W        W98482  43.425  22.505  12.881
26168W        W98483  14.811   1.773   0.946
26169W        W98484   5.850  35.105  12.867
26170W        W98485   1.740  41.002  11.856
26171W        W98486  32.537  37.072  12.428
26172W        W98487   8.770  14.317   4.824
26173W        W98488  20.204  36.446   0.815
26174W        W98489  36.002  32.401   2.305
26175W        W98490  13.282  37.575   0.903
26176W        W98491  15.092  21.067   2.247
26177W        W98492  11.676  13.641   4.223
26178W        W98493  33.069   3.383  13.960
26179W        W98494   7.876  14.779   0.826
26180W        W98495  11.835  36.008  10.050
26181W        W98496  28.532  10.848  10.462
26182W        W98497  22.159  11.781  11.526
26183W        W98498  32.440  11.245  12.482
26184W        W98499  28.602   2.962   4.285
26185W        W98500   8.826  26.964   2.886
26186W        W98501  35.987  36.078  10.912
26187W        W98502  14.302  36.943  11.867
26188W        W98503  42.872   1.386  10.932
26189W        W98504  35.934  18.107  13.878
26190W        W98505  21.236  11.816   3.817
26191W        W98506   6.213  15.127   4.744
26192W        W98507   8.869   5.871   0.419
26193W        W98508   1.965  39.016   5.267
26194W        W98509  21.592  14.634  13.376
26195W        W98510   9.219   4.332   1.717
26196W        W98511   0.792  23.057   0.769
26197W        W98512  32.104  37.912  13.825
26198W        W98513  40.530  27.174  10.467
26199W        W98514  24.617   4.764  11.549
26200W        W98515  44.866  40.368  13.336
26201W        W98516  12.232  27.626   3.280
26202W        W98517  20.575  14.327   2.868
26203W        W98518  14.131   0.903  12.400
26204W        W98519   0.362   2.232  13.820
26205W        W98520  12.674  28.589  12.903
26206W        W98521  28.464  41.367   1.351
26207W        W98522   7.248  16.121   2.805
26208W        W98523  41.939  34.869   0.754
26209W        W98524  43.354  13.834   1.744
26210W        W98525   8.783  17.273  12.032
26211W        W98526  10.860  22.154   1.890
26212W        W98527  41.409  16.272  12.447
26213W        W98528   0.975   3.750   1.801
26214W        W98529  25.596  18.147  12.832
26215W        W98530   2.873   4.823   3.664
26216W        W98531  44.392  16.317  11.905
26217W        W98532   3.893  15.175  12.401
26218W        W98533   5.246  27.474  13.412
26219W        W98534  36.865   5.724   1.755
26220W        W98535   9.378   4.245  10.404
26221W        W98536  34.908  32.456   0.398
26222W        W98537  17.702  35.402   2.226
26223W        W98538  22.615  23.159   0.744
26224W        W98539  20.540  36.527   4.275
26225W        W98540  37.852  17.287  13.491
26226W        W98541   0.369   0.821  10.510
26227W        W98542  14.143  21.607   1.403
26228W        W98543  40.349  13.318   4.640
26229W        W98544  16.718  22.084  10.448
26230W        W98545  44.370  44.470  10.412
26231W        W98546   4.813   8.206   3.743
26232W        W98547  18.237  19.125   4.636
26233W        W98548  35.898  40.398   3.805
26234W        W98549   0.311  22.093  12.551
26235W        W98550  25.547   5.700   2.371
26236W        W98551  35.914  19.076   4.654
26237W        W98552  17.125  23.716  10.092
26238W        W98553  29.142  42.801  11.862
26239W        W98554  13.606  13.220   0.411
26240W        W98555   5.928  40.496   2.836
26241W        W98556  14.639  14.809   4.351
26242W        W98557  27.970  10.832   4.113
26243W        W98558   7.353   3.255  11.027
26244W        W98559  36.876  24.992   9.581
26245W        W98560  17.583  34.095  12.871
26246W        W98561   3.340   2.381   4.282
26247W        W98562  25.494  36.075  13.337
26248W        W98563  27.611   8.323  10.538
26249W        W98564  41.462  25.694   0.396
26250W        W98565   3.435  12.744   2.855
26251W        W98566  30.495  42.309  12.530
26252W        W98567   9.733  31.051   2.186
26253W        W98568  35.582   4.876  12.950
26254W        W98569  25.090   7.674   0.358
26255W        W98570  32.474  10.763   4.824
26256W        W98571   3.953  39.894  14.935
26257W        W98572  37.840  15.682   0.439
26258W        W98573   4.714   6.750   0.849
26259W        W98574  23.572  44.320  12.507
26260W        W98575   9.227   9.203  10.888
26261W        W98576  40.383  24.974  13.793
26262W        W98577  10.728  18.166   0.291
26263W        W98578  25.136  23.654  13.539
26264W        W98579  24.624  33.480   3.374
26265W        W98580  18.594  28.500  14.463
26266W        W98581  11.708   1.473  11.907
26267W        W98582   7.394  11.323   4.337
26268W        W98583  42.492   9.320  14.864
26269W        W98584   3.257  27.506  13.483
26270W        W98585  11.750  36.084  14.844
26271W        W98586  34.397   3.296  10.590
26272W        W98587  13.739  17.594   3.174
26273W        W98588  26.187  44.479  14.433
26274W        W98589  34.033  42.864  11.529
26275W        W98590  10.278   2.242  14.276
26276W        W98591  14.826  33.087   2.740
26277W        W98592   2.915  44.264  14.453
26278W        W98593   6.210  13.821  10.464
26279W        W98594  14.159  39.880  13.894
26280W        W98595  32.604  24.178   1.726
26281W        W98596   7.380  30.620   5.081
26282W        W98597  25.581  13.306   1.221
26283W        W98598  26.630  32.562  11.088
26284W        W98599  23.100  22.671  13.361
26285W        W98600   9.371   0.251   0.288
26286W        W98601  44.804  15.689   4.827
26287W        W98602  18.554   9.360  11.003
26288W        W98603  39.843  37.347  14.951
26289W        W98604   8.366  35.462  14.466
26290W        W98605  19.644   8.267   3.346
26291W        W98606  38.934  29.923  13.800
26292W        W98607   5.283  23.715   4.123
26293W        W98608  14.692  41.398  10.562
26294W        W98609  44.273  14.671   1.444
26295W        W98610  22.006  21.165   5.269
26296W        W98611  43.415  23.012   3.307
26297W        W98612  24.054  15.702  13.799
26298W        W98613  21.684  23.663  14.288
26299W        W98614  34.918  44.267   3.348
26300W        W98615  42.393  41.809   0.476
26301W        W98616  13.298  18.764   4.781
26302W        W98617  22.571  33.594   4.783
26303W        W98618  32.611  41.811   1.353
26304W        W98619   8.314  43.363  12.390
26305W        W98620   9.324  27.013  13.847
26306W        W98621  36.082  21.092   1.394
26307W        W98622  34.466   0.906  11.995
26308W        W98623   2.788  20.613  14.393
26309W        W98624  14.740  27.461  13.520
26310W        W98625   3.391  35.398  13.406
26311W        W98626  42.359  32.887  13.486
26312W        W98627  33.088  32.472   2.414
26313W        W98628   4.401  39.031   0.393
26314W        W98629   6.316  40.834   1.820
26315W        W98630  15.817  17.692   1.886
26316W        W98631  17.659  30.148   4.306
26317W        W98632   0.351  33.597  14.845
26318W        W98633  34.898  40.977  10.997
26319W        W98634  23.095  18.578  12.572
26320W        W98635  43.865  37.579   2.670
26321W        W98636  28.057  22.695   0.393
26322W        W98637  44.317  29.478  10.941
26323W        W98638  35.095  12.796  13.434
26324W        W98639  25.085  11.338  11.020
26325W        W98640  24.208  13.659  13.374
26326W        W98641  23.170  29.073   0.243
26327W        W98642  33.063  14.637  14.999
26328W        W98643  10.707  18.584  12.036
26329W        W98644  23.084  39.850  10.587
26330W        W98645  36.566  39.954  12.951
26331W        W98646  28.087   5.699   5.801
26332W        W98647   1.753   0.281   0.376
26333W        W98648   0.834  14.622  14.918
26334W        W98649   5.221  42.433   0.287
26335W        W98650   3.857   0.958  10.124
26336W        W98651   5.753  34.537   1.349
26337W        W98652  21.536  34.402   0.396
26338W        W98653   6.863  10.632   0.345
26339W        W98654  25.213  38.494   1.855
26340W        W98655  14.812  22.668   3.356
26341W        W98656  22.639  15.578  11.491
26342W        W98657  25.533  38.950   5.172
26343W        W98658  28.633  35.461  12.560
26344W        W98659  31.008  38.987   0.897
26345W        W98660  43.370  39.494   0.382
26346W        W98661  43.361   0.775   3.291
26347W        W98662  35.415  20.638  14.840
26348W        W98663   2.758  16.589   3.290
26349W        W98664  28.442  43.818   3.333
26350W        W98665  11.182  16.183  10.160
26351W        W98666  29.932  44.884  13.034
26352W        W98667  20.128   0.425   4.125
26353W        W98668  24.635   7.723   2.864
26354W        W98669  28.181  19.203   3.852
26355W        W98670  32.609  18.784  11.088
26356W        W98671  20.593  43.844   3.675
26357W        W98672  25.998   7.743  11.497
26358W        W98673  12.653  35.988  11.002
26359W        W98674  21.106  37.052   4.184
26360W        W98675  35.938  27.568  13.424
26361W        W98676  42.966  17.583   4.229
26362W        W98677  38.885  36.369   4.771
26363W        W98678   6.710  33.422   0.791
26364W        W98679   8.330  30.033   0.953
26365W        W98680  14.612  42.873  14.961
26366W        W98681  22.656  23.666   9.994
26367W        W98682  28.451  11.233   3.339
26368W        W98683   2.825  44.270  12.957
26369W        W98684  20.674  19.219   0.446
26370W        W98685  20.749  41.920  14.907
26371W        W98686  41.384  36.861   3.719
26372W        W98687  36.939  31.947   3.705
26373W        W98688  31.946   0.925   4.336
26374W        W98689  41.968  14.228   0.856
26375W        W98690  10.179  35.994   1.368
26376W        W98691  35.909  36.871  12.931
26377W        W98692  39.513   4.806  10.474
26378W        W98693  17.792  34.439   4.802
26379W        W98694  30.030  31.502  12.833
26380W        W98695  42.791   6.890   1.728
26381W        W98696  17.233  41.899  14.808
26382W        W98697  11.186  23.233   3.847
26383W        W98698  10.360   7.718   0.455
26384W        W98699   7.388   8.199  13.415
26385W        W98700  19.144  24.011   3.319
26386W        W98701  32.035  16.582  13.791
26387W        W98702  19.624  39.316   3.821
26388W        W98703  23.714   6.870   0.897
26389W        W98704   4.833  25.489  14.019
26390W        W98705  12.744   9.785   2.399
26391W        W98706  41.478  28.551   4.745
26392W        W98707  13.752   5.784  14.468
26393W        W98708  24.546  40.896  11.604
26394W        W98709  16.234  16.116  13.814
26395W        W98710  43.397  41.868   0.451
26396W        W98711  34.117   2.747   3.633
26397W        W98712  29.530  11.774  13.905
26398W        W98713  37.964  15.264   4.668
26399W        W98714  12.235  36.011  11.603
26400W        W98715   8.397  41.842  11.938
26401W        W98716  23.163  22.600   3.760
26402W        W98717   7.754  15.634  14.855
26403W        W98718  22.607  39.836   2.339
26404W        W98719  16.700  28.492   4.667
26405W        W98720  22.579  32.036  10.966
26406W        W98721  41.330   1.404  12.580
26407W        W98722  34.047  26.132   0.799
26408W        W98723  39.020  30.149  10.427
26409W        W98724  16.599  37.877   3.232
26410W        W98725   6.837  27.604   3.246
26411W        W98726  12.162   8.222  12.826
26412W        W98727  26.129  42.323  14.996
26413W        W98728  18.129  40.865   4.797
26414W        W98729  35.045  30.530   1.854
26415W        W98730  33.544  30.514   4.139
26416W        W98731  12.668  42.960   4.313
26417W        W98732   6.324  28.933   3.810
26418W        W98733  37.413  22.143  14.021
26419W        W98734  35.405  41.897  14.869
26420W        W98735  12.626  27.005   3.281
26421W        W98736  24.517  17.117  12.362
26422W        W98737  29.588  37.084   3.201
26423W        W98738  36.516  35.394  11.997
26424W        W98739   4.892  27.667  14.810
26425W        W98740  24.636  27.488   1.724
26426W        W98741  36.906   8.203  13.991
26427W        W98742  31.986  15.599   5.310
26428W        W98743  42.890  20.237  11.981
26429W        W98744  25.650  25.993   1.775
26430W        W98745  18.790  20.737   1.704
26431W        W98746   3.808  35.562  13.316
26432W        W98747  14.722  31.941   4.187
26433W        W98748  17.607   8.243  14.326
26434W        W98749   2.446   7.394   2.740
26435W        W98750  29.007  17.565  12.557
26436W        W98751  26.999  28.674  12.454
26437W        W98752  17.149  40.409   1.797
26438W        W98753  25.072   6.187   0.802
26439W        W98754  22.615  37.477   1.321
26440W        W98755  12.332  43.934   1.849
26441W        W98756  41.379  13.654  10.985
26442W        W98757  27.590  20.274   3.731
26443W        W98758   1.977  33.122  14.440
26444W        W98759  34.995  26.526   0.398
26445W        W98760  33.537  28.654   2.355
26446W        W98761  20.077  19.285  14.370
26447W        W98762   2.277   9.798   0.277
26448W        W98763   5.737  31.015   3.296
26449W        W98764  22.040  39.046   2.243
26450W        W98765  21.073   7.735  12.868
26451W        W98766  24.504  11.189  13.442
26452W        W98767  23.110  22.603  12.403
26453W        W98768  38.501   9.392   4.302
26454W        W98769  28.467  41.405  13.537
26455W        W98770  31.559  27.515  14.874
26456W        W98771  37.025  40.823  12.963
26457W        W98772  10.633  40.877   2.182
26458W        W98773  17.561  11.275   2.294
26459W        W98774  19.164  11.650   5.299
26460W        W98775  23.011  43.904   2.415
26461W        W98776  26.506  39.952  14.336
26462W        W98777  29.584  14.166   2.702
26463W        W98778   2.914  20.653   3.316
26464W        W98779  20.612  38.031   2.206
26465W        W98780  11.239   8.241  12.448
26466W        W98781  10.646   8.220  10.956
26467W        W98782  26.002  34.978  14.809
26468W        W98783  24.020  30.932   4.311
26469W        W98784  44.808  39.516  14.880
26470W        W98785   3.429  35.929   1.241
26471W        W98786  14.635   7.334   2.391
26472W        W98787  12.748  38.449   1.874
26473W        W98788  23.068  36.010  11.612
26474W        W98789   5.714   5.307   0.801
26475W        W98790  15.702   3.846   0.414
26476W        W98791   2.438  38.421   4.627
26477W        W98792  22.735  18.093  13.420
26478W        W98793  37.009   2.941  13.001
26479W        W98794   7.377  43.394   0.392
26480W        W98795  30.556  28.547  11.073
26481W        W98796  42.948  17.772  11.972
26482W        W98797   9.779  14.135   1.770
26483W        W98798  38.062  18.120  14.412
26484W        W98799  34.594   1.356  12.560
26485W        W98800  38.854  20.661   0.934
26486W        W98801  23.650  22.042   4.282
26487W        W98802  17.639   9.183   4.782
26488W        W98803   0.249  32.571  12.929
26489W        W98804  22.610  43.354   0.754
26490W        W98805  21.601  27.613  12.048
26491W        W98806  12.723  36.983  13.448
26492W        W98807  35.017   6.886  14.496
26493W        W98808  26.558   1.830   2.361
26494W        W98809   9.854  18.772  10.134
26495W        W98810  27.656  16.735   4.652
26496W        W98811   1.291  33.935   4.279
26497W        W98812  13.829  35.439  14.346
26498W        W98813  16.703  44.474  14.293
26499W        W98814  25.207  28.638   2.325
26500W        W98815   0.266  34.412  10.437
26501W        W98816  40.812  42.964   2.381
26502W        W98817   0.934  39.497   3.273
26503W        W98818  33.053  37.869  12.836
26504W        W98819   0.425  40.422   0.450
26505W        W98820   1.802   8.170  12.552
26506W        W98821  44.833   1.920   4.743
26507W        W98822   0.783  21.225  11.045
26508W        W98823   2.895  23.517   1.338
26509W        W98824  32.069  35.039  12.992
26510W        W98825   9.686  27.128   2.311
26511W        W98826  40.973  20.134   1.761
26512W        W98827  30.920  36.993   1.782
26513W        W98828  19.039  17.792   2.703
26514W        W98829  18.214  44.265   2.349
26515W        W98830  44.803   9.336   5.136
26516W        W98831  40.828  30.514  13.853
26517W        W98832   9.658  10.213   2.301
26518W        W98833   2.280  35.997  10.555
26519W        W98834  33.102  18.624   4.253
26520W        W98835  31.525  37.078  11.873
26521W        W98836  43.507  30.142  13.377
26522W        W98837   9.235  32.920   1.320
26523W        W98838  24.086   4.850   2.358
26524W        W98839  21.179  22.613  12.568
26525W        W98840  23.630  12.637  13.369
26526W        W98841  32.948   8.666   5.235
26527W        W98842   5.707  35.582  11.917
26528W        W98843  43.350  11.250   9.958
26529W        W98844  32.417  18.275  11.014
26530W        W98845  37.053  42.949   4.210
26531W        W98846  43.962  27.446   1.923
26532W        W98847  16.225  44.825   2.206
26533W        W98848   4.904   5.353   1.904
26534W        W98849  35.067   6.769   0.924
26535W        W98850  34.993   7.320  14.934
26536W        W98851  12.760  15.213   4.792
26537W        W98852  24.543  33.505  12.832
26538W        W98853   9.697  39.372  14.316
26539W        W98854  36.350  36.934  12.392
26540W        W98855  11.142  40.362   1.746
26541W        W98856   1.866   8.832   1.393
26542W        W98857  39.329  41.412  10.954
26543W        W98858  42.877  30.917  10.467
26544W        W98859  41.034  30.979   4.196
26545W        W98860   1.835   3.275   1.845
26546W        W98861  42.824   9.268  14.871
26547W        W98862   6.764  20.524   4.308
26548W        W98863  37.503  12.176   1.239
26549W        W98864  37.994   4.244   2.729
26550W        W98865  38.064  36.864   1.389
26551W        W98866  19.598  30.139  14.930
26552W        W98867  17.225   8.764  11.508
26553W        W98868  21.262  17.256  11.052
26554W        W98869  18.050  23.642   2.182
26555W        W98870  39.329   5.767   4.787
26556W        W98871  30.969  11.327   2.241
26557W        W98872  36.483  11.324   0.358
26558W        W98873  25.051  20.634   5.162
26559W        W98874   8.714  34.086   3.826
26560W        W98875  34.094  31.988  14.334
26561W        W98876  31.048  24.713  11.393
26562W        W98877  28.011  34.887  13.913
26563W        W98878  31.005  24.479   4.115
26564W        W98879  18.735  27.460   2.817
26565W        W98880   9.863   2.856  10.446
26566W        W98881  19.218  39.909   1.432
26567W        W98882  28.657  37.486  12.878
26568W        W98883  20.758  15.097   2.735
26569W        W98884  13.744   4.852  13.356
26570W        W98885  26.488  32.037   1.877
26571W        W98886   5.378  13.235   3.262
26572W        W98887  23.033   7.302  13.317
26573W        W98888   6.283  16.662  13.986
26574W        W98889  38.913   8.747  11.392
26575W        W98890   3.323  16.703   1.436
26576W        W98891   0.490  15.783  14.445
26577W        W98892  30.093  29.104   1.288
26578W        W98893  38.932  28.520  11.051
26579W        W98894  18.733  40.483  12.928
26580W        W98895  43.429   1.881   3.179
26581W        W98896  23.006  31.421  11.390
26582W        W98897  12.765   7.762   4.264
26583W        W98898  17.080  44.397  12.087
26584W        W98899  43.803   7.320  12.850
26585W        W98900  42.499   5.382   3.359
26586W        W98901  22.718   4.897  14.934
26587W        W98902  40.438  13.195   1.398
26588W        W98903  23.527  29.528   2.857
26589W        W98904  35.015  16.682   4.198
26590W        W98905   4.898  21.665  11.975
26591W        W98906  35.493   6.357  10.462
26592W        W98907   8.838  33.052  13.022
26593W        W98908  15.664  16.698  11.525
26594W        W98909  34.922  10.693   2.853
26595W        W98910  11.789  12.745   4.643
26596W        W98911  14.652  28.679  11.372
26597W        W98912  32.555  36.872  12.854
26598W        W98913   6.318   9.710   0.807
26599W        W98914  13.251  39.348  10.466
26600W        W98915  40.313  35.012  12.996
26601W        W98916  43.850  14.221   4.748
26602W        W98917  23.194  29.018   2.402
26603W        W98918  33.509  15.292   1.757
26604W        W98919  20.122  12.796  12.834
26605W        W98920  18.634  27.195   1.267
26606W        W98921   1.908  25.083  10.532
26607W        W98922  21.168  43.451  14.364
26608W        W98923  24.181  31.499  13.049
26609W        W98924  14.591  25.699   2.752
26610W        W98925  29.434   3.714  13.887
26611W        W98926  32.407  36.347  13.516
26612W        W98927  23.061  19.660  10.142
26613W        W98928   2.939  24.629   1.252
26614W        W98929  24.507  13.599  10.607
26615W        W98930  41.343  38.853   0.478
26616W        W98931  18.717  39.394   3.151
26617W        W98932  34.384  31.132   0.825
26618W        W98933  41.363  42.921   4.805
26619W        W98934  31.906  26.199  11.435
26620W        W98935  34.493   3.396   2.854
26621W        W98936   3.332  13.346  10.924
26622W        W98937  25.166  18.260  11.060
26623W        W98938  19.086  44.374   4.745
26624W        W98939  40.801   7.874   4.276
26625W        W98940  22.017  42.410  12.023
26626W        W98941  31.638  19.265  10.972
26627W        W98942  30.960  37.398  14.399
26628W        W98943  13.263  25.193  10.615
26629W        W98944  39.065   5.342  12.544
26630W        W98945  14.180  24.582  14.938
26631W        W98946  33.579  29.602  10.445
26632W        W98947  13.313  39.519   1.343
26633W        W98948   8.808  18.760   0.295
26634W        W98949  20.197   9.208   3.362
26635W        W98950  13.753  21.202  13.812
26636W        W98951  27.167  19.181  11.573
26637W        W98952  20.148  40.438  10.983
26638W        W98953  20.644  35.015  14.275
26639W        W98954  22.572  39.462   2.267
26640W        W98955  14.782   1.368   1.261
26641W        W98956  16.168  24.172   4.680
26642W        W98957  28.068  44.487  14.945
26643W        W98958  17.163  16.698  14.961
26644W        W98959  20.737  35.591  14.860
26645W        W98960  32.103  13.633   0.809
26646W        W98961  25.198  25.577  14.491
26647W        W98962  37.574  29.036   0.307
26648W        W98963  30.553  10.819  13.511
26649W        W98964  16.091   9.174  12.980
26650W        W98965   3.246  21.700   4.322
26651W        W98966  23.110   0.935   2.763
26652W        W98967  26.040  26.057  14.990
26653W        W98968  42.403  15.594   1.300
26654W        W98969  15.801   1.447  14.984
26655W        W98970  38.826  40.500   2.258
26656W        W98971  41.953  36.451  10.901
26657W        W98972  41.010  21.717   0.454
26658W        W98973   1.764  19.065   3.838
26659W        W98974   3.368  20.067  10.583
26660W        W98975  42.524  22.077   4.204
26661W        W98976  16.201  12.154  11.565
26662W        W98977  13.708  26.651  14.981
26663W        W98978   5.199  18.050  10.454
26664W        W98979   6.843  16.627  12.045
26665W        W98980  23.575  30.104   0.443
26666W        W98981  14.594   9.819  10.990
26667W        W98982  29.577   4.786  13.980
26668W        W98983  24.028  15.108   0.389
26669W        W98984  34.382  34.007   0.461
26670W        W98985  44.361  16.766  10.994
26671W        W98986   3.811  19.184  11.376
26672W        W98987  28.995   3.716   3.276
26673W        W98988   8.323  11.702  11.513
26674W        W98989  23.532  12.746  10.547
26675W        W98990  34.903   7.199  10.984
26676W        W98991  13.652   7.718   1.922
26677W        W98992   3.409  29.542  10.531
26678W        W98993  42.882  17.754   4.633
26679W        W98994  14.325  26.096   4.659
26680W        W98995  10.690  27.659   3.690
26681W        W98996  38.389  19.160   0.418
26682W        W98997   1.871  42.384   3.265
26683W        W98998  18.183   0.954  12.441
26684W        W98999  20.551  20.627  14.921
26685W        W99000   0.339   1.275  10.443
26686W        W99001  27.121  15.587  11.486
26687W        W99002  21.068  44.883  12.400
26688W        W99003   8.172  18.110  13.405
26689W        W99004   9.673  41.451   3.357
26690W        W99005  41.321  38.339  11.376
26691W        W99006  26.181  35.888   3.699
26692W        W99007  28.183  14.716  10.493
26693W        W99008   9.820  15.141   3.373
26694W        W99009  22.249  29.119  11.609
26695W        W99010  39.500  30.560   0.958
26696W        W99011  27.127   9.828   3.786
26697W        W99012  32.005  12.304  14.863
26698W        W99013  21.183  34.508   3.146
26699W        W99014  34.573   6.716  11.540
26700W        W99015  43.848  15.638  14.511
26701W        W99016   2.850  10.751  10.887
26702W        W99017  32.952  17.743  10.538
26703W        W99018   4.407   9.720   3.631
26704W        W99019  33.964  41.029   0.734
26705W        W99020  32.113   7.407   0.247
26706W        W99021  13.165  24.002   1.820
26707W        W99022  17.086  18.177  10.054
26708W        W99023  43.984   9.815   1.371
26709W        W99024  14.176  28.630   4.814
26710W        W99025   9.751   0.281  12.391
26711W        W99026  21.663  38.501  14.963
26712W        W99027   6.319  26.635   3.719
26713W        W99028  37.962  31.141  11.021
26714W        W99029  17.634   3.363  14.910
26715W        W99030  30.617  18.772  14.806
26716W        W99031   7.898  20.748   1.239
26717W        W99032  32.090  11.757  13.877
26718W        W99033  28.111  17.775  13.491
26719W        W99034  26.054   4.282  12.418
26720W        W99035  12.159  35.868  13.009
26721W        W99036  29.002  42.446   1.329
26722W        W99037  15.810  19.057   0.860
26723W        W99038  39.052   8.795  10.124
26724W        W99039  29.994  17.250   3.354
26725W        W99040  32.399  40.990  13.848
26726W        W99041   5.900   0.911  13.053
26727W        W99042   8.199   0.915  13.842
26728W        W99043  42.798  16.111  11.092
26729W        W99044  24.088  39.033  11.900
26730W        W99045  20.713   9.227   5.194
26731W        W99046  43.336  19.696   0.437
26732W        W99047  16.099  44.460   1.357
26733W        W99048  26.587  36.977  12.972
26734W        W99049  13.759  21.175   4.675
26735W        W99050  26.697   7.225  10.012
26736W        W99051  28.578  11.208  13.942
26737W        W99052   1.922  39.545  10.559
26738W        W99053   3.909   2.887   3.360
26739W        W99054   5.842  37.454   3.344
26740W        W99055  25.040  42.435  12.395
26741W        W99056   4.444  17.095  14.275
26742W        W99057  38.041  44.827   2.726
26743W        W99058  29.508  42.021  10.545
26744W        W99059  34.570  10.175  14.437
26745W        W99060   6.350  18.712  10.623
26746W        W99061   2.433  17.187   5.263
26747W        W99062  35.383  29.664   2.723
26748W        W99063  19.188   7.739   4.303
26749W        W99064   2.383  18.176  13.822
26750W        W99065  31.459   7.830   1.743
26751W        W99066  39.914  12.631  10.526
26752W        W99067   7.364  35.559  11.384
26753W        W99068  36.578  22.542  10.440
26754W        W99069  20.693  34.070   1.907
26755W        W99070  44.408  17.172  13.440
26756W        W99071  41.899  26.992  10.455
26757W        W99072  27.668  26.527   4.599
26758W        W99073  42.301  37.031  12.504
26759W        W99074  26.641  15.163   3.237
26760W        W99075  40.375  20.732  13.814
26761W        W99076  28.528  18.096  10.904
26762W        W99077   6.783  36.015   3.640
26763W        W99078   3.886  22.535  12.928
26764W        W99079   7.709   4.752  11.602
26765W        W99080   2.323  33.095   4.670
26766W        W99081  27.073  15.604  13.864
26767W        W99082  29.170  28.489  10.468
26768W        W99083   6.787  40.433  10.964
26769W        W99084  43.411  32.631  14.494
26770W        W99085   2.786  10.633  12.450
26771W        W99086   5.770   4.878  13.482
26772W        W99087  24.079  38.330  13.957
26773W        W99088   0.898  20.235  11.924
26774W        W99089   2.238  28.011  14.368
26775W        W99090  38.007  31.061   0.913
26776W        W99091  22.030   6.403   0.317
26777W        W99092  18.719  37.029  12.875
26778W        W99093  20.694   8.784   0.339
26779W        W99094  40.821  31.038   2.277
26780W        W99095  19.108  44.885   1.914
26781W        W99096   3.731  16.317   1.805
26782W        W99097  25.681  38.022  14.315
26783W        W99098  41.981   7.275   3.796
26784W        W99099  14.681  25.148   1.811
26785W        W99100  41.527  14.776   5.096
26786W        W99101  31.146   7.201  12.467
26787W        W99102  10.710  34.448   0.448
26788W        W99103  10.306  17.757   4.147
26789W        W99104  25.165  25.190  12.575
26790W        W99105  22.690  13.173  11.406
26791W        W99106   2.806  24.060  11.979
26792W        W99107  12.347  11.174  14.776
26793W        W99108  10.695  25.605  14.373
26794W        W99109   2.905  20.728  13.415
26795W        W99110  17.585   3.894   2.378
26796W        W99111  33.028  12.685   3.220
26797W        W99112  42.915  42.982  14.931
26798W        W99113  28.133  31.970   4.154
26799W        W99114  38.033  27.517  11.926
26800W        W99115  31.559  28.438  14.330
26801W        W99116   0.939   6.773   3.658
26802W        W99117  23.545  32.013   2.808
26803W        W99118  21.198  22.023   1.332
26804W        W99119  35.544   8.355  14.888
26805W        W99120  32.994  35.361  10.463
26806W        W99121  17.682   3.242   3.701
26807W        W99122  40.889  18.132  10.421
26808W        W99123  37.535  17.630  13.538
26809W        W99124  30.918  38.498  11.118
26810W        W99125   0.431  19.698   0.805
26811W        W99126  15.790  29.135   1.225
26812W        W99127   4.400  38.499  14.306
26813W        W99128  30.524  25.141   0.950
26814W        W99129  21.579   0.342  13.410
26815W        W99130   8.328  33.889   4.775
26816W        W99131   0.767  35.541   0.360
26817W        W99132   7.384  44.486   4.304
26818W        W99133  42.355   4.905   0.476
26819W        W99134  20.549  23.561  12.488
26820W        W99135  30.943  37.377  10.490
26821W        W99136   8.764   8.288   1.257
26822W        W99137  26.662  41.408   1.887
26823W        W99138   6.226  30.155  12.384
26824W        W99139  39.388  25.583   1.408
26825W        W99140  29.033  24.483  13.332
26826W        W99141  37.515  28.102   4.191
26827W        W99142  30.445  33.929   0.465
26828W        W99143   2.729  16.186   1.746
26829W        W99144  35.392   4.273   3.302
26830W        W99145  21.239  21.638  11.117
26831W        W99146  10.700   8.214   0.280
26832W        W99147  43.789  14.761   4.217
26833W        W99148  36.588   4.855   4.193
26834W        W99149   9.757  34.519  14.322
26835W        W99150   4.746  41.294  10.132
26836W        W99151  12.786  32.030   4.749
26837W        W99152  33.957  17.565   4.825
26838W        W99153  40.333  32.494  10.634
26839W        W99154  17.707  40.832  12.462
26840W        W99155  14.826  40.495   3.236
26841W        W99156  25.574  34.087  13.525
26842W        W99157  33.549   7.297  10.060
26843W        W99158   8.347  42.891  11.944
26844W        W99159   7.775  43.279   0.344
26845W        W99160   9.716   1.893   2.213
26846W        W99161  11.641   1.778   2.777
26847W        W99162  31.457   8.271  12.089
26848W        W99163  12.610  31.483  13.887
26849W        W99164  27.577  28.992   0.850
26850W        W99165  27.589   0.863   0.894
26851W        W99166  21.033  42.408   4.673
26852W        W99167  43.349  36.538   0.826
26853W        W99168   9.381  20.760   0.471
26854W        W99169  40.998  24.209   0.764
26855W        W99170  20.216  32.090  10.105
26856W        W99171   5.432  37.440   3.190
26857W        W99172   5.230  42.979  14.919
26858W        W99173  43.299  35.004   1.721
26859W        W99174  39.410  17.575  12.973
26860W        W99175  39.523  37.399   1.259
26861W        W99176  37.452  36.571   1.883
26862W        W99177  16.124  24.053  12.978
26863W        W99178  14.222  32.105   4.730
26864W        W99179   5.738  44.501  12.006
26865W        W99180  17.087  34.611  11.009
26866W        W99181  28.542  33.117   3.750
26867W        W99182  15.260  31.099  11.923
26868W        W99183  37.887  10.300   3.346
26869W        W99184  31.523  43.899   4.316
26870W        W99185  22.239  14.188   2.187
26871W        W99186  15.667  15.768   3.177
26872W        W99187  38.981  11.804  11.101
26873W        W99188  32.895  32.483   1.381
26874W        W99189  32.477  12.624   4.171
26875W        W99190  29.504  33.116  14.367
26876W        W99191  12.774  23.722  11.041
26877W        W99192  20.112  14.147   2.300
26878W        W99193   6.681  29.001  13.973
26879W        W99194  17.229   9.713  14.790
26880W        W99195  28.950  15.763  13.542
26881W        W99196  28.101  36.536  12.850
26882W        W99197  27.967  31.545   1.302
26883W        W99198  23.041  11.708   2.288
26884W        W99199  12.662  15.715  14.322
26885W        W99200  42.297  13.178  12.413
26886W        W99201   0.278  37.410  12.959
26887W        W99202  27.975  39.540  11.479
26888W        W99203  39.914  15.266  12.354
26889W        W99204   0.367  37.008   0.833
26890W        W99205  22.625  31.486   4.314
26891W        W99206   7.319   8.267   1.254
26892W        W99207  43.485   9.866   0.879
26893W        W99208  42.974  32.007  11.061
26894W        W99209  12.722  10.754  12.898
26895W        W99210   6.686  30.936   4.172
26896W        W99211   3.945   3.453   0.940
26897W        W99212   2.878  30.500   1.366
26898W        W99213  26.148  36.966  10.615
26899W        W99214  18.146  27.078   3.175
26900W        W99215  24.580  11.761   0.364
26901W        W99216  30.111   0.982   3.814
26902W        W99217   1.268   2.721  10.547
26903W        W99218  37.986  40.540  12.976
26904W        W99219  19.248  34.097  13.473
26905W        W99220   1.371  42.924  13.799
26906W        W99221  39.974  28.675   0.430
26907W        W99222  42.032  14.686  11.582
26908W        W99223  17.201  28.552   3.715
26909W        W99224  31.564  34.097  11.861
26910W        W99225  32.111  36.559  13.938
26911W        W99226  33.600  36.422  14.332
26912W        W99227   5.858  38.334  13.443
26913W        W99228  30.595  34.483  11.492
26914W        W99229  26.520  44.970   0.410
26915W        W99230   4.287  32.494   2.367
26916W        W99231  32.612  16.605   2.820
26917W        W99232  38.038  41.876   2.809
26918W        W99233   3.256  19.716  13.969
26919W        W99234  41.977  24.536   2.266
26920W        W99235  39.916  29.452   1.767
26921W        W99236  26.553   4.363   9.998
26922W        W99237  23.218  29.657  14.786
26923W        W99238  17.674   2.959   4.198
26924W        W99239  44.952   1.282  11.899
26925W        W99240  30.038  43.415   4.293
26926W        W99241  27.018  21.678  12.940
26927W        W99242   9.817   9.360   2.786
26928W        W99243  31.549  17.745  13.418
26929W        W99244  27.651  41.840   2.237
26930W        W99245  36.521  31.944   4.167
26931W        W99246  39.063  16.141   2.663
26932W        W99247  16.743  35.895   1.748
26933W        W99248  17.279  16.129   3.344
26934W        W99249  12.833  29.166  10.643
26935W        W99250  44.495  31.017  10.135
26936W        W99251  22.541   4.715   5.227
26937W        W99252   4.411  33.557  10.519
26938W        W99253   7.854  32.923  13.475
26939W        W99254  44.262  40.857  13.861
26940W        W99255  39.942   1.899   0.347
26941W        W99256  12.719  12.735  11.000
26942W        W99257  20.529  11.150   3.211
26943W        W99258  43.450  27.677  14.838
26944W        W99259  16.599  18.640   3.716
26945W        W99260  20.750  43.866   1.313
26946W        W99261  40.982  12.217   4.661
26947W        W99262   1.413   7.773   4.805
26948W        W99263   5.929  18.130   3.179
26949W        W99264  37.416  36.052  10.064
26950W        W99265  41.438  37.422   0.741
26951W        W99266  38.937  12.816   3.819
26952W        W99267  23.108   9.314   4.167
26953W        W99268   0.464  24.701   0.933
26954W        W99269  33.502   1.306  13.008
26955W        W99270  29.482  25.519  10.582
26956W        W99271  13.840  10.864   4.347
26957W        W99272  27.119  30.414  12.909
26958W        W99273  23.683  43.415  14.896
26959W        W99274  29.565  25.508  13.889
26960W        W99275  44.454  37.030  14.446
26961W        W99276   3.846  36.524   1.261
26962W        W99277  11.637  19.734   5.163
26963W        W99278  38.436  43.009  12.844
26964W        W99279  24.071  19.178  13.867
26965W        W99280  37.548   2.747  13.448
26966W        W99281  35.875  23.224  10.624
26967W        W99282  32.074  36.044   0.887
26968W        W99283  34.009  17.745   3.828
26969W        W99284  22.646  28.647   0.296
26970W        W99285  41.788  21.018   2.732
26971W        W99286  40.337  19.063  10.474
26972W        W99287  21.688  40.838   4.697
26973W        W99288  32.048  24.188   0.373
26974W        W99289  29.440  30.091  12.476
26975W        W99290  10.724  16.138   4.189
26976W        W99291  32.516  27.552   0.810
26977W        W99292  25.988  15.164  10.419
26978W        W99293  27.674   5.274  10.641
26979W        W99294   5.871  30.448   4.153
26980W        W99295  28.446  10.277   1.252
26981W        W99296  10.878  23.563   2.262
26982W        W99297  39.558   3.387   4.685
26983W        W99298  15.120  23.089   0.427
26984W        W99299  40.898  41.863   1.875
26985W        W99300  42.292  24.660   4.287
26986W        W99301  22.631  20.233   2.756
26987W        W99302  29.011  25.162   4.649
26988W        W99303  41.931  39.420   3.867
26989W        W99304   1.956  12.358   1.389
26990W        W99305  20.101   3.326  10.920
26991W        W99306  41.475  24.197  10.432
26992W        W99307   9.377  41.877  12.975
26993W        W99308  27.121   5.365  12.935
26994W        W99309   8.172  29.601  14.332
26995W        W99310   0.946  25.504  13.960
26996W        W99311  40.443  38.045   2.256
26997W        W99312  12.209  40.464  12.565
26998W        W99313  33.459  34.897  11.902
26999W        W99314  30.592  23.686  11.045
27000W        W99315  24.717   2.357  13.378
27001W        W99316  35.435   2.403   4.630
27002W        W99317  32.612  33.603   0.331
27003W        W99318   9.201  37.389   1.341
27004W        W99319  24.640  25.529   4.597
27005W        W99320  20.736   2.770  12.386
27006W        W99321  26.066  12.240  10.491
27007W        W99322   3.265  41.031  13.914
27008W        W99323   3.264  22.635  12.434
27009W        W99324  44.862  23.035  14.812
27010W        W99325   8.679  43.972   3.743
27011W        W99326  39.481  22.564  14.401
27012W        W99327  25.020  31.014  10.477
27013W        W99328  22.720  17.607   4.739
27014W        W99329  10.350  28.541  11.038
27015W        W99330   5.364  20.705  14.338
27016W        W99331  14.699  10.816  10.497
27017W        W99332   2.792   5.903   1.880
27018W        W99333  28.621  36.948   3.671
27019W        W99334  21.098  26.644   0.255
27020W        W99335   8.774   3.322   4.235
27021W        W99336  19.729  16.637  10.026
27022W        W99337  16.747  31.576  10.511
27023W        W99338  22.636  19.093   5.209
27024W        W99339  26.994   9.836  14.978
27025W        W99340   7.369  26.053   4.133
27026W        W99341   2.727  18.620   2.350
27027W        W99342  32.578   8.838  14.367
27028W        W99343  19.562  43.973  13.405
27029W        W99344  25.004   2.258   0.418
27030W        W99345  12.794   3.879   4.802
27031W        W99346  10.684  12.622  14.869
27032W        W99347   9.234  26.562  10.918
27033W        W99348   3.389  21.190  14.768
27034W        W99349   5.885  25.114  10.948
27035W        W99350  22.502   7.854   1.391
27036W        W99351  22.223  39.826  12.853
27037W        W99352  33.117  30.986   3.757
27038W        W99353  22.230  15.176  11.570
27039W        W99354  20.564   4.277  12.911
27040W        W99355  25.671  22.599   2.408
27041W        W99356  43.786  34.030  12.339
27042W        W99357  10.843   1.945   4.268
27043W        W99358  22.037  28.057   0.356
27044W        W99359   1.313  37.084  14.503
27045W        W99360  27.961  32.894  10.483
27046W        W99361  40.934  36.492  14.835
27047W        W99362   8.762   4.264  14.451
27048W        W99363   5.275   7.223   3.345
27049W        W99364   1.955  17.674  11.406
27050W        W99365  44.283  24.106   1.428
27051W        W99366  28.538  16.087   0.905
27052W        W99367  34.378  40.464   2.186
27053W        W99368  21.121  33.030  13.891
27054W        W99369  14.094   6.236   2.674
27055W        W99370  14.245   6.356   5.243
27056W        W99371  13.832  35.069   1.284
27057W        W99372  18.596  25.680   0.954
27058W        W99373  41.298  35.510  14.431
27059W        W99374  11.725  27.181  12.548
27060W        W99375   4.387   6.288   0.788
27061W        W99376  17.722   0.465  14.420
27062W        W99377  39.961  19.621   2.776
27063W        W99378  28.501  38.017  13.344
27064W        W99379  43.883  10.784  14.371
27065W        W99380  35.049   2.745  13.975
27066W        W99381  32.979  14.706   0.334
27067W        W99382  11.331  17.224  11.929
27068W        W99383  36.468   9.886  10.409
27069W        W99384  15.815  11.172   1.262
27070W        W99385  43.286  21.573   4.201
27071W        W99386  10.175   0.359  11.444
27072W        W99387  32.935   6.827   2.376
27073W        W99388  35.485   6.828  12.513
27074W        W99389  25.052  34.098   4.319
27075W        W99390   6.339   5.426  11.893
27076W        W99391  39.940  33.070  13.447
27077W        W99392  16.193  12.655   4.788
27078W        W99393   9.255   7.406  14.888
27079W        W99394  32.019  15.147  13.887
27080W        W99395  12.823  31.039   2.815
27081W        W99396  30.623   4.840   1.260
27082W        W99397  25.074   3.813   0.862
27083W        W99398  29.444  24.532  11.492
27084W        W99399  24.062   7.674   1.391
27085W        W99400  41.321  31.525  13.875
27086W        W99401  34.442  33.557  13.863
27087W        W99402  42.305  13.164   4.238
27088W        W99403  23.666  20.241  14.993
27089W        W99404   0.955  36.907  11.068
27090W        W99405  41.914   7.295  10.913
27091W        W99406  18.566  41.429   5.130
27092W        W99407  10.658  31.570   3.792
27093W        W99408   9.744  41.909   2.419
27094W        W99409  12.698  27.599   0.310
27095W        W99410  15.216  34.036  10.610
27096W        W99411  31.143  35.868   1.330
27097W        W99412  24.989  10.719   1.411
27098W        W99413  20.109  12.834  14.307
27099W        W99414   4.794  38.446  12.559
27100W        W99415  13.645  36.505   2.328
27101W        W99416  34.537  33.564  12.990
27102W        W99417   2.896  37.523   0.866
27103W        W99418  28.060   8.810   0.738
27104W        W99419  41.524  29.049  10.977
27105W        W99420  42.993  20.638  13.792
27106W        W99421  36.914   5.349   4.707
27107W        W99422  30.510   0.491  10.588
27108W        W99423   0.307  12.137   4.619
27109W        W99424  36.045  13.823   2.806
27110W        W99425   3.825  35.429  11.958
27111W        W99426   4.852  37.017   3.649
27112W        W99427  27.951  17.287  13.815
27113W        W99428   4.210  18.776  13.522
27114W        W99429  14.210  23.141  13.381
27115W        W99430  34.035  30.987  11.388
27116W        W99431  32.142  35.999  11.076
27117W        W99432  42.986  20.156  13.911
27118W        W99433   5.320  23.217  10.967
27119W        W99434  15.605  18.074   2.826
27120W        W99435  41.412  33.072   1.866
27121W        W99436  16.209  40.379   0.782
27122W        W99437  39.384   6.781   4.336
27123W        W99438  41.875  19.617  11.103
27124W        W99439  29.114  26.471   1.242
27125W        W99440  37.543  28.467  10.445
27126W        W99441   1.935  14.628  12.061
27127W        W99442  14.702   0.269  12.537
27128W        W99443  12.349  11.273   0.813
27129W        W99444  29.064  17.719  13.429
27130W        W99445   1.472  24.593  10.518
27131W        W99446  29.510  14.619   4.153
27132W        W99447  15.270  18.658   3.635
27133W        W99448  33.991  27.057   0.249
27134W        W99449   2.895   5.809   2.309
27135W        W99450  33.470  36.967  10.931
27136W        W99451  17.080  25.556   3.155
27137W        W99452  38.993  41.443   3.175
27138W        W99453   0.772  39.463  11.939
27139W        W99454  31.974  13.278  13.502
27140W        W99455  35.457   5.714  10.569
27141W        W99456  39.876  44.799  13.015
27142W        W99457  42.343  18.091   1.737
27143W        W99458   2.789  41.011   2.217
27144W        W99459  25.676  42.021  10.629
27145W        W99460   8.676   5.720  10.513
27146W        W99461   3.710  16.202  12.980
27147W        W99462  40.844  40.419   0.322
27148W        W99463   0.272  30.467   0.805
27149W        W99464  31.917   8.190  14.813
27150W        W99465   6.764  17.591  12.487
27151W        W99466  29.958  25.645  13.540
27152W        W99467  27.149   0.821  12.998
27153W        W99468  43.913  20.536  14.330
27154W        W99469   6.703  34.590  11.087
27155W        W99470  44.468  25.468   1.332
27156W        W99471   8.274  12.640   4.304
27157W        W99472   3.354   0.482   1.729
27158W        W99473   2.364  29.044  10.509
27159W        W99474  20.694  14.206   0.456
27160W        W99475   4.832   7.212  11.895
27161W        W99476  44.899  12.825  14.026
27162W        W99477  23.079  33.122   2.267
27163W        W99478  40.454  44.982   3.272
27164W        W99479  24.541  33.472  14.792
27165W        W99480  21.602  42.406   3.276
27166W        W99481  14.651   5.842   0.292
27167W        W99482  16.789  33.489  13.838
27168W        W99483  15.132  41.459  11.507
27169W        W99484  32.396   2.727   4.194
27170W        W99485  28.030  44.853  10.406
27171W        W99486  44.322  16.736  11.464
27172W        W99487  34.414  40.356  12.033
27173W        W99488  29.951   5.851  13.992
27174W        W99489  17.149  23.196  13.899
27175W        W99490  16.667   6.223   4.696
27176W        W99491  16.245  38.960   1.447
27177W        W99492  11.642  16.646  14.916
27178W        W99493   2.307   3.277  11.958
27179W        W99494  12.293   5.220   4.811
27180W        W99495  39.405  29.527  11.928
27181W        W99496  38.924   0.290   2.808
27182W        W99497   6.262  36.853   1.381
27183W        W99498  26.018   2.265   4.347
27184W        W99499  21.708  15.729   2.732
27185W        W99500  35.553   0.943  11.469
27186W        W99501   9.223  14.097  10.405
27187W        W99502  34.030  11.372   4.739
27188W        W99503   9.360  26.042  13.387
27189W        W99504  32.116  40.945  10.901
27190W        W99505   5.258  19.673  13.377
27191W        W99506  14.279   3.920   2.371
27192W        W99507  24.212  44.432  13.312
27193W        W99508  13.681  32.551   1.412
27194W        W99509   6.915  37.017  14.280
27195W        W99510  35.030  21.517  13.822
27196W        W99511  23.107  22.036   1.235
27197W        W99512  30.421  23.095   0.404
27198W        W99513  15.678   3.421   2.746
27199W        W99514  29.943  12.239   2.693
27200W        W99515  31.109   3.720  11.877
27201W        W99516  27.179  12.258  10.599
27202W        W99517  17.672  20.133  13.907
27203W        W99518  44.438  39.535  10.998
27204W        W99519  32.604   4.289  14.427
27205W        W99520  23.129  41.990   2.260
27206W        W99521   1.778  20.634   0.949
27207W        W99522   5.391   3.834  11.453
27208W        W99523  42.961   7.240  13.374
27209W        W99524  11.214  11.847   4.616
27210W        W99525  25.480  29.119   3.217
27211W        W99526  44.825  22.230  11.972
27212W        W99527   8.185  29.130   0.406
27213W        W99528   6.371  15.624   4.815
27214W        W99529  36.024  18.158  12.052
27215W        W99530   7.236  37.025  11.526
27216W        W99531  30.101   4.776   1.214
27217W        W99532   1.451  28.127  12.899
27218W        W99533  16.097  24.581  12.883
27219W        W99534  12.846  21.173  14.827
27220W        W99535  22.560  13.315   3.818
27221W        W99536  34.473  40.523   3.385
27222W        W99537  44.281  40.956   1.891
27223W        W99538   0.871  42.994  14.830
27224W        W99539   3.888   6.707  10.422
27225W        W99540   2.779  35.590   0.422
27226W        W99541  18.193  24.028  11.506
27227W        W99542  39.870  10.207   4.645
27228W        W99543  10.196  20.152  13.381
27229W        W99544  32.043   7.170  13.403
27230W        W99545  20.178  19.552  13.390
27231W        W99546   8.894  16.740   4.648
27232W        W99547  24.074   6.319  12.945
27233W        W99548   2.852  33.919  10.420
27234W        W99549  35.544  28.139  12.482
27235W        W99550   0.827  15.257   1.243
27236W        W99551  25.213   5.306   3.373
27237W        W99552  18.157  30.417  11.092
27238W        W99553  38.000  21.158  14.927
27239W        W99554  38.846  14.104   5.210
27240W        W99555   9.383  34.598  13.968
27241W        W99556  36.045  36.480   4.807
27242W        W99557  10.762  13.212   1.435
27243W        W99558   3.265  21.596   0.321
27244W        W99559  16.247  39.876  13.818
27245W        W99560  19.175  31.928  12.066
27246W        W99561  31.461  37.419  10.923
27247W        W99562  38.415  24.071   3.171
27248W        W99563  24.029  27.510   4.297
27249W        W99564   5.375  16.159  13.320
27250W        W99565  15.735  36.525   3.260
27251W        W99566  40.810  18.104   0.395
27252W        W99567  44.411  16.227  11.537
27253W        W99568  10.702  43.367   3.342
27254W        W99569  10.305  26.697  10.917
27255W        W99570  40.307  30.062   1.436
27256W        W99571  34.905  33.490  12.852
27257W        W99572  33.016  35.388  14.914
27258W        W99573  14.309  16.167  12.342
27259W        W99574  20.696  31.558  10.936
27260W        W99575  43.390   1.317   2.218
27261W        W99576  29.037  30.545  11.387
27262W        W99577  28.513   3.302  11.014
27263W        W99578  43.476   9.812  10.562
27264W        W99579   8.694  41.309   1.281
27265W        W99580  32.585   8.737   1.398
27266W        W99581   8.225  12.636   0.462
27267W        W99582   7.179   7.213   2.811
27268W        W99583  15.706   3.225  11.075
27269W        W99584  43.353  17.086  14.514
27270W        W99585  42.491  14.629   0.335
27271W        W99586  30.490  31.410   0.762
27272W        W99587  31.592  10.868   2.298
27273W        W99588  13.761  24.563  13.862
27274W        W99589  35.576  26.559   1.872
27275W        W99590  29.469  43.305   3.357
27276W        W99591  41.856  34.399   3.732
27277W        W99592  22.213  33.622   3.285
27278W        W99593  43.007  31.427  10.576
27279W        W99594  28.110  15.796   5.232
27280W        W99595  39.368  20.213  14.274
27281W        W99596   4.765  27.130   2.828
27282W        W99597  14.130  11.759   5.127
27283W        W99598  40.456   8.821  11.072
27284W        W99599  28.660   4.405  13.364
27285W        W99600  35.448  38.482  10.950
27286W        W99601  33.893  14.665  11.973
27287W        W99602  10.249  16.133  11.058
27288W        W99603  37.891  28.065  10.070
27289W        W99604  18.295  16.676  14.424
27290W        W99605  18.612  16.684  14.375
27291W        W99606  15.717  31.549   1.764
27292W        W99607  31.624  14.589  13.048
27293W        W99608  35.091  15.642   9.976
27294W        W99609  16.240  34.105  13.363
27295W        W99610  22.066  28.571   2.732
27296W        W99611  42.917  34.464   2.274
27297W        W99612   9.715  18.742  14.867
27298W        W99613  12.148  33.502   4.310
27299W        W99614  42.292  35.573  11.610
27300W        W99615  25.557  22.047  11.373
27301W        W99616  15.163  10.378  12.059
27302W        W99617   9.384  44.269   1.847
27303W        W99618  34.878   5.908   2.408
27304W        W99619  42.957  44.985  14.836
27305W        W99620  21.666  32.561  12.057
27306W        W99621  14.702   4.926  14.784
27307W        W99622  33.121  25.062  13.974
27308W        W99623  31.051  10.327   2.821
27309W        W99624  38.874  20.633   2.848
27310W        W99625  34.896  11.795  11.577
27311W        W99626  41.526   4.727   4.322
27312W        W99627  28.018  37.366   0.763
27313W        W99628  29.088  34.399  13.883
27314W        W99629  37.069  18.275   3.709
27315W        W99630   5.853  17.647   1.912
27316W        W99631  28.995   8.374  11.026
27317W        W99632  12.226  27.023   2.181
27318W        W99633   8.685  24.480   0.823
27319W        W99634  34.010  11.199  10.436
27320W        W99635  15.100   6.716  14.869
27321W        W99636   3.254  20.730  11.509
27322W        W99637   0.762  34.604  13.480
27323W        W99638  15.171  38.067   3.748
27324W        W99639  39.315  37.081   3.155
27325W        W99640  33.504  32.922  11.864
27326W        W99641  20.209   4.212  12.408
27327W        W99642  43.377  19.055  12.369
27328W        W99643  27.613  42.508  10.617
27329W        W99644   4.752  11.678  13.852
27330W        W99645  39.847  37.056  12.476
27331W        W99646  14.699   2.734  11.450
27332W        W99647  36.081  29.043   1.292
27333W        W99648  24.480  21.529   1.351
27334W        W99649   0.315  29.559   0.810
27335W        W99650   3.887   5.320   2.709
27336W        W99651  44.493   3.720   2.226
27337W        W99652  10.746  11.636   1.734
27338W        W99653  31.460   8.269   3.290
27339W        W99654  26.653  19.690  12.916
27340W        W99655  28.941  15.102  14.798
27341W        W99656  32.997   7.686   1.388
27342W        W99657  33.593  35.358  11.435
27343W        W99658  22.544  34.563  12.057
27344W        W99659  27.592   1.419   3.764
27345W        W99660  15.150  16.152  11.994
27346W        W99661   9.288  23.057   0.436
27347W        W99662  18.569  33.980  13.389
27348W        W99663  20.226  34.878  12.345
27349W        W99664  26.042  40.437   1.876
27350W        W99665   6.215  27.682   1.411
27351W        W99666  19.564   4.412  14.773
27352W        W99667   7.754  17.788  14.312
27353W        W99668  37.563  32.988   0.319
27354W        W99669  44.881  28.135  10.617
27355W        W99670  42.851  19.119   0.873
27356W        W99671  40.387  28.994   0.853
27357W        W99672   7.363   5.861  12.950
27358W        W99673  33.517  21.188   4.703
27359W        W99674  41.530  13.160   4.216
27360W        W99675   7.341  10.224   3.709
27361W        W99676  23.659  42.474  10.538
27362W        W99677  30.514  12.832  12.894
27363W        W99678  43.982  44.474  12.850
27364W        W99679   4.746  18.600   2.230
27365W        W99680  34.002  15.216   0.249
27366W        W99681  13.621   4.381   3.346
27367W        W99682  11.804  27.966   0.256
27368W        W99683  19.568  42.806   2.285
27369W        W99684  32.571  28.483  10.905
27370W        W99685  40.922  33.622   4.342
27371W        W99686  35.909  23.695   3.256
27372W        W99687   4.284   3.460   4.738
27373W        W99688  38.491  12.143  14.510
27374W        W99689   1.782  17.307   2.789
27375W        W99690  34.874  22.100   1.246
27376W        W99691  25.482   8.763  10.901
27377W        W99692   8.825  21.168  10.624
27378W        W99693  43.856  18.604   0.330
27379W        W99694  41.395  24.007  13.541
27380W        W99695   2.957  12.146  11.082
27381W        W99696  17.275  10.794  14.345
27382W        W99697  44.491  14.707  11.382
27383W        W99698   1.438   2.354   2.273
27384W        W99699  30.915   5.859  11.562
27385W        W99700  37.563  20.764  11.593
27386W        W99701  29.461  20.582   2.714
27387W        W99702  14.215  18.114  13.308
27388W        W99703  22.687  38.984   2.384
27389W        W99704   5.741  20.762  11.918
27390W        W99705  18.605  12.829   3.268
27391W        W99706  11.163  41.041  13.874
27392W        W99707  33.514  29.607   3.153
27393W        W99708  13.698   9.265  11.870
27394W        W99709  24.195  42.383  14.413
27395W        W99710  10.351   4.750   1.417
27396W        W99711   2.420  42.435   2.328
27397W        W99712  38.457  25.560  14.775
27398W        W99713  35.891  17.195  10.566
27399W        W99714  36.976  15.146   3.179
27400W        W99715  30.470  20.201  10.560
27401W        W99716   4.321  42.893  14.308
27402W        W99717  10.162  30.465  13.376
27403W        W99718   0.281  16.733  10.491
27404W        W99719  23.589   0.480   2.329
27405W        W99720  23.690  32.597  13.433
27406W        W99721  36.978  41.933   1.417
27407W        W99722   1.749  39.950  12.031
27408W        W99723  39.330  38.384   0.365
27409W        W99724  10.786  28.096   2.182
27410W        W99725  41.826  11.663  12.342
27411W        W99726  25.641   4.742  11.862
27412W        W99727  29.554   5.429   0.921
27413W        W99728  15.620  40.381   4.629
27414W        W99729  19.579  28.058  14.864
27415W        W99730  26.519   9.715  12.365
27416W        W99731  44.974  37.487   0.406
27417W        W99732  38.010  43.809   2.833
27418W        W99733  36.906  25.488   3.183
27419W        W99734  39.452  31.070  14.466
27420W        W99735  19.260  33.115  14.298
27421W        W99736  30.948  27.153   2.257
27422W        W99737  26.620  38.952   0.397
27423W        W99738  38.427   1.255  13.307
27424W        W99739  42.283  40.352   1.901
27425W        W99740  30.040   6.392  12.473
27426W        W99741  41.893   0.988  12.054
27427W        W99742   4.407  32.998   4.251
27428W        W99743  42.809   7.228   3.233
27429W        W99744  43.511   5.840   2.288
27430W        W99745   3.883  14.191  12.060
27431W        W99746   0.492  11.690   2.802
27432W        W99747  15.108   2.836   1.380
27433W        W99748  26.984  41.400  12.470
27434W        W99749  40.460   2.346   3.709
27435W        W99750  20.526  19.773   1.319
27436W        W99751  10.325   1.349   3.229
27437W        W99752  20.702  36.570   1.808
27438W        W99753  43.802  26.189  11.584
27439W        W99754  35.855  16.726   3.179
27440W        W99755  37.851   5.748   2.321
27441W        W99756  24.039   9.858  12.455
27442W        W99757  18.642  34.995   0.960
27443W        W99758  16.204   1.869   3.150
27444W        W99759   3.909  26.507  11.494
27445W        W99760   5.865  40.535  13.020
27446W        W99761  14.214   0.863  10.980
27447W        W99762  24.704  44.469  13.843
27448W        W99763  18.273  12.187  11.612
27449W        W99764  44.828  13.312   4.311
27450W        W99765  40.973  33.132   3.868
27451W        W99766  23.194  11.233   4.710
27452W        W99767  26.967  41.480   1.320
27453W        W99768  40.012   6.856   3.763
27454W        W99769  39.913   6.762   4.729
27455W        W99770  34.914  10.714   0.330
27456W        W99771  23.036  10.737  10.503
27457W        W99772  18.223  28.178   0.914
27458W        W99773   0.918  20.185  10.549
27459W        W99774  23.160   5.708  13.528
27460W        W99775  40.524  39.821  10.455
27461W        W99776  20.571  24.725   4.642
27462W        W99777  31.907  34.109   0.428
27463W        W99778   6.777  34.562   1.729
27464W        W99779  15.714  23.553   4.215
27465W        W99780  28.570  16.598   0.930
27466W        W99781  29.442  44.354  10.588
27467W        W99782   7.852  30.936  11.490
27468W        W99783  11.740  20.665   1.426
27469W        W99784  14.644   5.291   0.480
27470W        W99785  25.989   4.702   0.475
27471W        W99786  43.484   6.202   0.310
27472W        W99787  24.653  18.090  12.563
27473W        W99788  25.197  14.593   2.664
27474W        W99789  43.497  29.484  12.005
27475W        W99790  20.722  29.626  12.352
27476W        W99791  30.051  28.000  11.971
27477W        W99792   6.838  18.107   2.361
27478W        W99793  28.042  27.014   1.730
27479W        W99794   9.697  28.087   2.794
27480W        W99795  29.089   5.357  10.887
27481W        W99796  27.059  22.652  14.401
27482W        W99797  14.638  30.139   4.791
27483W        W99798  22.207   5.215   4.298
27484W        W99799  42.862  27.605  14.429
27485W        W99800   5.840  31.625  12.066
27486W        W99801  31.514  22.551   2.713
27487W        W99802  37.897  27.465   3.860
27488W        W99803   3.924  11.236  14.998
27489W        W99804  42.314  39.005  14.925
27490W        W99805  34.040  18.675  11.098
27491W        W99806  14.699  16.762  12.066
27492W        W99807  38.038  26.659   3.295
27493W        W99808  42.890   1.448   2.252
27494W        W99809  24.205  39.380   1.745
27495W        W99810  13.846  21.145  14.912
27496W        W99811  11.315  19.774   0.449
27497W        W99812  30.571  20.248   3.207
27498W        W99813  39.530  23.124  14.902
27499W        W99814   5.812  13.238   4.772
27500W        W99815  24.590   5.874   2.402
27501W        W99816  43.765  22.070   0.477
27502W        W99817  25.543   0.403  14.462
27503W        W99818  36.491  18.681  10.537
27504W        W99819  21.737  16.582  12.080
27505W        W99820  21.071  28.623   4.753
27506W        W99821  11.337  19.064  12.838
27507W        W99822  39.030  39.505   3.165
27508W        W99823   6.300  29.087  11.415
27509W        W99824   6.328   4.358  14.971
27510W        W99825  28.603  33.533   4.813
27511W        W99826  39.930   9.823  14.776
27512W        W99827  15.279  24.150  14.024
27513W        W99828  12.203  34.401   2.251
27514W        W99829  30.150  29.999   3.667
27515W        W99830   6.337  31.608   2.393
27516W        W99831  39.851  11.341   1.248
27517W        W99832  18.577  12.118   0.304
27518W        W99833  15.743  38.930  10.464
27519W        W99834  30.519  31.047   3.317
27520W        W99835  29.566  28.656  10.544
27521W        W99836   6.681  31.410  13.867
27522W        W99837  14.695  29.641   2.373
27523W        W99838   2.903  22.998  13.030
27524W        W99839  18.053  20.061   3.178
27525W        W99840  43.844  35.573  12.983
27526W        W99841  12.631  23.033   0.897
27527W        W99842  17.238  23.711  12.040
27528W        W99843  19.257   4.897   0.839
27529W        W99844  20.055  43.310   3.354
27530W        W99845  39.024  11.340   1.904
27531W        W99846   8.234  21.654   3.198
27532W        W99847  25.708  36.012  14.421
27533W        W99848  37.570  12.348  13.523
27534W        W99849  44.892  23.690   2.879
27535W        W99850  34.953  29.934  10.624
27536W        W99851   1.924  25.498  11.611
27537W        W99852  12.776  42.912  14.393
27538W        W99853  16.716  44.809  10.410
27539W        W99854   7.409   4.408  14.285
27540W        W99855   4.390  44.899  12.006
27541W        W99856  28.046  32.417   1.844
27542W        W99857   5.294  29.973   3.203
27543W        W99858  37.917   1.948   0.944
27544W        W99859  13.226   7.828  13.862
27545W        W99860  16.272  32.587  12.503
27546W        W99861  38.508  11.369   4.671
27547W        W99862  10.204  15.281  14.425
27548W        W99863  15.594  42.996   0.320
27549W        W99864  16.637  10.724  14.352
27550W        W99865  17.260   5.771   1.919
27551W        W99866  12.810  38.833   2.209
27552W        W99867  20.136  17.121  14.321
27553W        W99868  40.524  22.640  13.412
27554W        W99869   0.324  15.758   2.322
27555W        W99870  31.462   1.257   4.795
27556W        W99871   2.791  41.872   4.143
27557W        W99872  26.488  15.581  10.629
27558W        W99873  44.446   1.757   0.879
27559W        W99874  15.688  24.215   4.316
27560W        W99875   8.361  10.258  10.996
27561W        W99876  12.285  22.070   2.901
27562W        W99877  24.701  41.815  11.580
27563W        W99878  14.821  38.510  13.869
27564W        W99879   2.395  18.587  10.893
27565W        W99880  16.114  23.591   2.690
27566W        W99881  26.462  10.251   3.668
27567W        W99882  25.136  40.040   1.779
27568W        W99883  42.451  37.938  13.993
27569W        W99884  31.148   2.397  11.001
27570W        W99885  23.044  14.291   3.166
27571W        W99886  37.348  34.527   1.899
27572W        W99887  19.209  15.190   3.154
27573W        W99888  38.936  21.644  12.972
27574W        W99889  31.017  21.149  10.113
27575W        W99890  14.177  43.795   0.311
27576W        W99891  35.936   3.316   2.702
27577W        W99892  23.239   7.344  14.028
27578W        W99893  35.378   3.770   3.715
27579W        W99894  12.358  14.714  14.907
27580W        W99895  19.203   7.690  12.830
27581W        W99896  29.649  19.120   2.241
27582W        W99897  21.018  35.007   2.738
27583W        W99898  25.487  44.871  10.444
27584W        W99899  22.159   8.854   1.430
27585W        W99900  29.528  28.057   2.290
27586W        W99901  41.873  14.323   4.640
27587W        W99902   2.949  30.958   0.952
27588W        W99903  29.067   0.491  13.996
27589W        W99904  18.558   3.792  14.278
27590W        W99905  26.462   2.804   2.815
27591W        W99906  41.479  34.531   4.212
27592W        W99907  18.284   1.755   0.953
27593W        W99908   2.348  22.208  12.928
27594W        W99909  24.016  41.000   4.604
27595W        W99910  27.947  16.241   0.956
27596W        W99911  17.109  25.128   4.666
27597W        W99912  29.100  29.626  10.472
27598W        W99913  42.303  33.480  12.912
27599W        W99914  16.623  14.125  11.899
27600W        W99915   2.359  39.986   1.346
27601W        W99916  33.605  40.862  12.058
27602W        W99917  32.597  18.701  14.328
27603W        W99918  20.715  25.102  11.558
27604W        W99919  13.277  32.576   1.880
27605W        W99920   6.812   9.887   4.349
27606W        W99921  21.025  27.059  12.889
27607W        W99922  26.559  35.062  12.447
27608W        W99923  25.608   8.802   4.614
27609W        W99924  31.426  29.973   4.832
27610W        W99925  40.906  12.777   2.277
27611W        W99926  24.006   9.184  13.037
27612W        W99927   5.874  40.842  10.574
27613W        W99928   8.758  44.982   2.395
27614W        W99929  37.353  43.789  12.403
27615W        W99930  22.202  28.993   2.821
27616W        W99931  12.285  40.887  11.551
27617W        W99932  23.137   1.322   0.967
27618W        W99933  42.326  29.495  11.392
27619W        W99934   9.799   0.260   2.195
27620W        W99935  32.400  21.680  14.918
27621W        W99936  27.580  13.662  13.364
27622W        W99937  41.481   0.958  13.805
27623W        W99938  13.676  21.241   0.393
27624W        W99939  33.534   3.804   4.180
27625W        W99940  31.625  36.069   3.270
27626W        W99941  16.676  43.394  10.977
27627W        W99942  20.248   0.963   0.465
27628W        W99943  30.526   2.854  14.791
27629W        W99944  43.376  11.835  13.481
27630W        W99945   2.283  13.129   1.782
27631W        W99946   4.389   4.232  11.012
27632W        W99947   4.266  44.991   2.864
27633W        W99948   6.898  15.309  12.568
27634W        W99949  26.696   4.912  11.098
27635W        W99950   6.392  19.541   5.191
27636W        W99951  31.432  29.949  13.827
27637W        W99952  44.384  41.917  14.506
27638W        W99953  28.004  42.431   1.233
27639W        W99954  28.461  19.632  12.525
27640W        W99955  25.004  14.259  12.942
27641W        W99956   0.277   0.317  11.505
27642W        W99957   7.291  17.087  10.536
27643W        W99958  29.670  17.182  14.796
27644W        W99959  24.225  34.020  12.086
27645W        W99960  11.791  16.567   5.736
27646W        W99961   7.279  17.106  11.015
27647W        W99962  43.984  43.930  10.583
27648W        W99963  34.041  28.091   1.814
27649W        W99964  30.531  24.501   1.711
27650W        W99965  29.017  34.078  14.915
27651W        W99966   2.434  33.531  11.390
27652W        W99967   8.890  42.940  10.440
27653W        W99968  20.170  23.733  13.794
27654W        W99969  27.485  19.632  10.626
27655W        W99970  42.327  40.506   0.900
27656W        W99971   3.898  16.634  14.879
27657W        W99972  38.388  29.079  14.009
27658W        W99973  22.061  29.102  12.352
27659W        W99974   5.834   8.356   4.807
27660W        W99975  34.571  28.613   2.400
27661W        W99976  15.736   1.318  11.510
27662W        W99977  37.428  42.027   2.399
27663W        W99978  15.114   3.310   0.454
27664W        W99979  38.401  29.654   3.786
27665W        W99980  40.461  23.721   5.248
27666W        W99981  33.595  33.437   3.274
27667W        W99982   4.234  27.153   2.765
27668W        W99983  39.864  19.118  12.021
27669W        W99984  38.871  35.551   2.673
27670W        W99985  22.694   0.895  14.904
27671W        W99986  35.470  16.086   2.240
27672W        W99987   6.333   6.207  13.929
27673W        W99988  44.913  21.086   2.693
27674W        W99989  32.636  25.525  11.418
27675W        W99990  15.225   3.376   1.363
27676W        W99991  42.475  44.500  12.090
27677W        W99992  26.073  29.494   3.188
27678W        W99993  40.345  26.005  12.457
27679W        W99994   9.758  11.344  12.019
27680W        W99995  12.266  23.199   3.356
27681W        W99996   5.325  37.358  12.851
27682W        W99997  32.049  41.467   2.707
27683W        W99998   9.707  33.078   1.897
27684W        W99999  11.309  20.649  11.453
27685W        W    0  27.943   5.200  10.466
27686W        W    1  23.201  17.279  10.501
27687W        W    2  39.056   9.299   3.184
27688W        W    3   7.300  10.149  10.428
27689W        W    4  19.182  40.372   9.561
27690W        W    5   0.386   9.813  14.486
27691W        W    6  16.601  43.017   4.146
27692W        W    7  38.990   7.399  12.076
27693W        W    8   3.803   9.770  13.396
27694W        W    9  41.467  43.002   2.679
27695W        W   10   0.840  11.278   1.426
27696W        W   11   9.858  36.069  10.571
27697W        W   12  43.787   0.983  13.035
27698W        W   13  17.622  24.090   0.926
27699W        W   14   3.888   2.806  10.991
27700W        W   15  37.557   6.374  11.910
27701W        W   16   8.371  32.130   0.955
27702W        W   17   2.457  34.495   2.218
27703W        W   18  41.395   5.246   2.874
27704W        W   19  29.657  21.220  14.504
27705W        W   20  19.605   0.957  14.323
27706W        W   21   1.829   6.705   4.286
27707W        W   22  32.939  37.058   4.700
27708W        W   23  26.504  44.922  10.544
27709W        W   24  37.447  11.244   3.266
27710W        W   25  13.713  26.572   4.114
27711W        W   26  40.922  21.634  11.612
27712W        W   27   7.776   8.250  11.937
27713W        W   28  40.954  42.361  14.770
27714W        W   29  43.341   1.379  11.448
27715W        W   30  18.260  17.790  10.937
27716W        W   31  43.818  38.385   1.836
27717W        W   32  32.072   4.271  12.917
27718W        W   33  12.310   9.792  10.960
27719W        W   34   0.390  32.121  10.535
27720W        W   35  23.495  35.498  14.780
27721W        W   36   3.447  22.527  13.882
27722W        W   37  28.120  25.583   2.772
27723W        W   38  31.918  28.961  12.073
27724W        W   39   0.784  11.784   0.756
27725W        W   40  29.496   7.286   4.322
27726W        W   41  34.888  35.438   4.796
27727W        W   42  40.345  16.163  10.992
27728W        W   43  36.985  30.425  11.447
27729W        W   44  10.862  24.700   0.772
27730W        W   45   0.487  28.940   0.262
27731W        W   46  43.373  13.845   0.775
27732W        W   47  25.562   3.880  14.322
27733W        W   48  29.168  26.684  10.420
27734W        W   49  35.109  32.966  13.801
27735W        W   50   0.265  13.792   0.918
27736W        W   51  16.630   7.174   4.329
27737W        W   52   5.787  30.466   3.696
27738W        W   53  11.765  34.892   3.313
27739W        W   54  15.659  36.901   1.924
27740W        W   55  25.965  38.509  13.518
27741W        W   56  30.549  44.391   1.438
27742W        W   57  43.314  44.832  13.032
27743W        W   58  13.830  23.017  14.771
27744W        W   59  31.547  22.033  14.480
27745W        W   60  36.088  22.696   5.243
27746W        W   61   5.208   2.790  12.922
27747W        W   62   5.416   1.377  13.958
27748W        W   63  11.760  15.609  11.067
27749W        W   64  25.533   2.949   3.324
27750W        W   65   4.905  19.168   3.854
27751W        W   66  40.842  23.123  10.544
27752W        W   67  30.059  14.695  10.455
27753W        W   68  11.278  34.544  11.062
27754W        W   69   0.328  17.197   1.248
27755W        W   70  37.852  37.353   2.809
27756W        W   71  29.042  22.579  11.602
27757W        W   72  15.289   0.871  11.606
27758W        W   73  18.788  30.000   4.629
27759W        W   74  41.484  34.038  13.925
27760W        W   75  12.818   7.229  10.969
27761W        W   76  26.472  15.103   0.244
27762W        W   77  10.206  26.529   0.408
27763W        W   78   3.409  39.013   1.299
27764W        W   79  16.300   3.938  14.953
27765W        W   80  40.404   0.879  10.088
27766W        W   81  18.196  16.706   0.368
27767W        W   82  10.841  36.987   2.885
27768W        W   83  12.222  35.482   3.639
27769W        W   84  43.323  26.168   2.403
27770W        W   85  30.980  22.538   4.213
27771W        W   86  17.667  27.984  13.962
27772W        W   87   4.334  25.480   4.726
27773W        W   88  28.537  13.228   1.761
27774W        W   89  40.858  27.123   2.304
27775W        W   90  33.497  43.279   0.259
27776W        W   91  19.126  37.966  13.482
27777W        W   92  36.972   4.346   3.844
27778W        W   93  19.256  12.137  13.432
27779W        W   94  17.148  17.678  12.961
27780W        W   95  39.978  32.473  12.035
27781W        W   96  41.374  32.966  10.994
27782W        W   97  17.706   9.822  11.097
27783W        W   98  25.682   1.863  10.926
27784W        W   99   1.922   6.280  11.486
27785W        W  100  23.156  24.140   2.335
27786W        W  101  23.124  18.746   9.507
27787W        W  102   3.874  43.320   4.229
27788W        W  103  31.085  27.076  11.538
27789W        W  104  27.496   8.681  12.398
27790W        W  105  13.827  35.000  14.388
27791W        W  106   3.771  22.183   0.421
27792W        W  107   0.858  16.655  12.869
27793W        W  108  31.612  42.436  11.467
27794W        W  109  11.331  19.714  11.456
27795W        W  110  14.254  25.052  13.339
27796W        W  111  20.082  20.214   3.720
27797W        W  112  41.337  27.126  10.415
27798W        W  113  15.179   9.844  12.506
27799W        W  114  12.152  24.110  13.006
27800W        W  115  35.363   1.285   0.454
27801W        W  116  32.472  13.691   1.417
27802W        W  117   6.680  29.569   1.712
27803W        W  118  10.793  34.069  13.316
27804W        W  119  14.200  41.358   3.676
27805W        W  120  21.166  17.697  10.616
27806W        W  121  12.221  23.628  10.524
27807W        W  122  30.446  28.183   1.376
27808W        W  123  43.368  31.587   1.909
27809W        W  124  18.230  20.538   4.837
27810W        W  125   1.456   1.789  13.882
27811W        W  126   3.794  17.601   1.898
27812W        W  127  41.993  21.617  11.924
27813W        W  128  44.402  12.717  12.436
27814W        W  129  31.440  16.165   2.774
27815W        W  130   8.890   5.232  11.962
27816W        W  131   2.287  23.107   3.708
27817W        W  132   9.871   1.249  12.847
27818W        W  133  14.219  15.753  12.050
27819W        W  134   8.383  29.079  12.571
27820W        W  135  33.624  25.973  10.575
27821W        W  136   3.902  22.665  14.973
27822W        W  137  15.102  12.298   4.327
27823W        W  138  34.869  12.310  10.952
27824W        W  139  14.145  43.459   1.733
27825W        W  140  29.539  44.476  13.968
27826W        W  141  15.261  34.470  13.934
27827W        W  142  39.366  21.514  12.427
27828W        W  143   0.480  16.104  11.495
27829W        W  144  12.611  28.677  14.857
27830W        W  145  38.847  40.999   1.360
27831W        W  146  40.043  43.514  14.445
27832W        W  147  24.614  22.576   4.118
27833W        W  148   0.902  33.472  11.514
27834W        W  149  34.596  28.008   4.179
27835W        W  150  14.334  10.867  10.982
27836W        W  151   7.270   1.783  14.446
27837W        W  152   7.741   3.727   1.878
27838W        W  153  28.989  29.558  14.325
27839W        W  154   2.910  39.509  14.868
27840W        W  155  21.084  23.220   4.680
27841W        W  156   8.726  34.579   0.459
27842W        W  157  43.384  25.986  10.598
27843W        W  158  22.534  14.792   3.799
27844W        W  159  38.029   6.721   4.782
27845W        W  160  39.384   3.260  11.520
27846W        W  161   4.715  41.504  14.873
27847W        W  162  41.918  27.459   3.148
27848W        W  163  32.610  13.223   4.799
27849W        W  164  12.839   6.283   1.696
27850W        W  165   6.394  28.136   4.777
27851W        W  166  18.124  16.691  10.474
27852W        W  167   0.746  42.002   1.919
27853W        W  168  44.758  24.585   2.395
27854W        W  169  17.764  30.433   0.321
27855W        W  170   7.785  44.915   0.440
27856W        W  171   4.449   7.358   2.805
27857W        W  172  34.554  19.771  10.927
27858W        W  173   5.410   8.270  12.375
27859W        W  174   8.813  13.600  11.087
27860W        W  175  22.100   3.413   4.232
27861W        W  176  26.498  44.278   0.912
27862W        W  177  40.958  29.628  14.323
27863W        W  178  20.156  38.061  11.044
27864W        W  179  13.710   8.215  14.873
27865W        W  180  41.452   8.864  12.525
27866W        W  181  43.789  32.487  11.576
27867W        W  182  42.835  11.796   4.837
27868W        W  183  40.991  41.866  13.892
27869W        W  184  18.236  31.941   1.392
27870W        W  185  28.541  22.587  12.872
27871W        W  186  22.250  16.807  13.387
27872W        W  187  27.631  37.882  14.324
27873W        W  188  12.332  23.611   4.306
27874W        W  189  14.794  20.764  13.385
27875W        W  190  11.812  34.605   2.829
27876W        W  191  38.362   8.895   1.855
27877W        W  192  10.163  28.014  11.095
27878W        W  193  14.608  42.329  10.573
27879W        W  194  18.231  29.617  11.073
27880W        W  195  11.717  21.709  10.611
27881W        W  196   2.964  41.837  11.382
27882W        W  197  43.901  32.976   1.840
27883W        W  198  23.713  31.009   0.829
27884W        W  199  24.583  28.147  13.426
27885W        W  200  15.755   7.818  14.975
27886W        W  201   1.812  28.647  13.399
27887W        W  202  16.307   0.428  11.492
27888W        W  203   4.364   7.258   3.821
27889W        W  204  34.994  26.173  11.048
27890W        W  205   1.318  11.648  12.481
27891W        W  206  22.079  44.881   1.433
27892W        W  207  28.148   4.880   1.335
27893W        W  208  24.975   5.786  12.931
27894W        W  209  26.543   3.838  10.043
27895W        W  210  31.906  18.170  14.904
27896W        W  211   2.393  19.282   2.403
27897W        W  212  42.351  15.092   3.302
27898W        W  213  24.601   7.353   3.154
27899W        W  214  40.384  37.375  10.000
27900W        W  215  17.277  39.933  14.319
27901W        W  216  18.609  43.346   1.782
27902W        W  217  33.974  30.001   3.717
27903W        W  218   4.269  38.998  13.030
27904W        W  219  23.143  11.332   1.287
27905W        W  220  23.019  40.361   3.342
27906W        W  221   3.830   0.806  11.887
27907W        W  222   3.949   9.353  14.941
27908W        W  223  13.697  26.638  10.518
27909W        W  224  35.107  23.692  14.338
27910W        W  225  32.136  29.612   4.118
27911W        W  226   2.232  37.994  14.821
27912W        W  227  10.360   6.700   1.857
27913W        W  228  40.998  34.499  13.859
27914W        W  229  19.772   6.823   0.474
27915W        W  230  11.857  19.770   4.758
27916W        W  231  35.932   7.314   2.209
27917W        W  232   5.689  42.457  10.432
27918W        W  233  17.588  14.304  10.541
27919W        W  234  19.157  40.051   0.954
27920W        W  235  22.252   0.484  12.892
27921W        W  236  12.758   4.765   1.745
27922W        W  237  21.029  34.873   1.847
27923W        W  238  44.293  13.123  14.499
27924W        W  239  19.629  23.076  10.922
27925W        W  240  29.028  25.547  11.424
27926W        W  241  11.347  24.580  14.938
27927W        W  242  31.512  18.599   0.793
27928W        W  243  44.965  44.492  12.992
27929W        W  244  37.056  37.355  13.942
27930W        W  245  44.291  18.671   1.759
27931W        W  246   3.768  24.484   2.701
27932W        W  247  26.643  12.641   4.323
27933W        W  248  41.405  41.907  14.929
27934W        W  249  29.997   4.912  13.315
27935W        W  250  37.514  12.656   2.245
27936W        W  251   3.220   9.175  12.054
27937W        W  252   3.860  21.707  13.535
27938W        W  253   3.741  21.539   3.783
27939W        W  254  44.822  38.973   3.800
27940W        W  255  29.574  35.927  12.068
27941W        W  256  40.927  16.193  14.922
27942W        W  257  42.910  33.625  14.292
27943W        W  258  21.122  41.307   0.450
27944W        W  259  18.602  18.660  12.496
27945W        W  260  31.041  26.470   2.198
27946W        W  261  20.128  10.858   3.323
27947W        W  262  43.455  22.181   0.904
27948W        W  263   7.203   8.339  13.979
27949W        W  264  32.529  40.479   3.378
27950W        W  265   4.775  37.084  13.032
27951W        W  266  20.121  41.932  11.971
27952W        W  267   3.312  20.043  10.912
27953W        W  268  34.516  27.644  13.353
27954W        W  269  42.510   9.707  14.989
27955W        W  270  42.497  25.212   1.328
27956W        W  271  41.439  12.171  11.464
27957W        W  272  17.734  43.020   4.723
27958W        W  273  29.511  33.875   3.214
27959W        W  274   7.272   4.754  10.638
27960W        W  275  31.514   7.788  10.602
27961W        W  276   9.362  30.594   0.468
27962W        W  277  13.276  34.047  12.844
27963W        W  278  14.749  22.171  11.397
27964W        W  279  40.849  10.368  13.403
27965W        W  280  44.006  43.322  13.518
27966W        W  281  39.330  18.071  14.815
27967W        W  282  37.055  32.423  13.843
27968W        W  283  18.120  31.978   2.856
27969W        W  284  44.818  25.191   1.801
27970W        W  285   8.729  23.724  13.416
27971W        W  286  39.400  42.013   0.336
27972W        W  287  20.622  24.544  10.551
27973W        W  288  13.262  16.590   1.216
27974W        W  289  20.565  34.962   2.314
27975W        W  290  18.254  36.536   1.711
27976W        W  291  16.681  13.188   1.352
27977W        W  292  30.479  22.062   0.266
27978W        W  293  35.979  36.958   4.355
27979W        W  294  29.996  33.496   0.436
27980W        W  295  44.452  39.810  12.890
27981W        W  296  31.020  35.357   3.253
27982W        W  297  30.997   3.431  11.396
27983W        W  298  15.719   6.341   1.223
27984W        W  299  29.096  22.609   2.728
27985W        W  300  12.822  15.702   1.831
27986W        W  301  24.617  28.609   2.888
27987W        W  302  41.021   4.319   3.741
27988W        W  303   8.829  15.206   1.895
27989W        W  304  15.819  38.858   4.713
27990W        W  305  27.641  24.689   3.330
27991W        W  306   2.802  11.729   2.368
27992W        W  307  16.810  34.983   0.470
27993W        W  308   5.738   0.405  14.795
27994W        W  309  15.197  21.643  13.034
27995W        W  310  24.119   9.749   0.412
27996W        W  311  22.742  36.054   4.668
27997W        W  312  22.252  32.497  11.082
27998W        W  313  21.740   1.956   0.793
27999W        W  314  12.223  11.844   0.844
28000W        W  315  22.632  40.859  14.317
28001W        W  316  10.193  25.030   4.654
28002W        W  317  28.643  29.660   3.345
28003W        W  318  28.610  19.091   3.696
28004W        W  319  25.971  31.136   1.922
28005W        W  320  41.335  17.786   2.253
28006W        W  321  15.616  10.334   2.807
28007W        W  322  40.853   3.758   2.264
28008W        W  323  36.974  40.421   3.746
28009W        W  324  21.568  12.612   1.733
28010W        W  325  33.617  33.932  10.434
28011W        W  326  36.851   1.883  14.030
28012W        W  327  22.123  12.751  13.427
28013W        W  328  19.573  37.577  13.940
28014W        W  329  37.576  35.026   2.808
28015W        W  330  14.706   9.790   1.796
28016W        W  331  14.614  27.645  13.955
28017W        W  332  29.143  36.009  14.826
28018W        W  333  23.536  43.982   4.668
28019W        W  334  40.547  16.588   2.290
28020W        W  335  35.435  31.555   3.723
28021W        W  336  15.111  22.062  11.478
28022W        W  337  16.790  14.629   1.350
28023W        W  338   3.949  16.300  14.806
28024W        W  339  14.249  33.090   0.258
28025W        W  340  17.623  28.566   4.273
28026W        W  341  15.663  21.610   2.312
28027W        W  342  12.290  13.203  12.838
28028W        W  343  43.332  22.703  13.334
28029W        W  344  37.905   5.298  11.606
28030W        W  345  25.120  38.923   1.297
28031W        W  346  40.306  13.207  14.843
28032W        W  347  28.968  29.636   2.301
28033W        W  348   2.948  27.048  10.916
28034W        W  349  21.074  37.581  12.505
28035W        W  350  38.954  27.151  10.010
28036W        W  351  25.012  13.175  11.380
28037W        W  352  35.867  38.332  13.437
28038W        W  353  42.787  20.627   2.721
28039W        W  354  36.908  32.525  14.365
28040W        W  355   6.718  37.894   0.782
28041W        W  356  17.250  12.732   0.479
28042W        W  357   8.200  26.139   1.345
28043W        W  358   4.265  19.606   3.179
28044W        W  359  37.553  13.177  13.434
28045W        W  360   6.268  32.474  13.492
28046W        W  361  18.636  27.625  13.314
28047W        W  362  12.279  22.008   1.255
28048W        W  363  22.649  30.073  11.564
28049W        W  364  21.740   1.448  12.468
28050W        W  365  13.270   9.810  12.554
28051W        W  366  24.213   2.415  10.907
28052W        W  367  34.493  40.816  14.819
28053W        W  368   7.256  44.320  12.347
28054W        W  369  43.967  20.085  13.041
28055W        W  370   0.914  24.045   4.817
28056W        W  371  22.724  23.073  13.372
28057W        W  372  25.054   1.325   2.689
28058W        W  373  23.240   7.851  10.917
28059W        W  374  29.019   9.160  13.337
28060W        W  375  31.527   0.414  14.403
28061W        W  376  32.904  11.292   1.287
28062W        W  377   8.383  40.924   0.749
28063W        W  378  31.128   3.801   1.915
28064W        W  379  28.460  16.225  13.014
28065W        W  380  11.690  32.411   1.909
28066W        W  381  24.618  41.030  12.879
28067W        W  382  12.829   5.735  14.846
28068W        W  383  21.697  38.526  13.471
28069W        W  384  30.565   9.845   4.663
28070W        W  385  37.476   0.298   2.232
28071W        W  386  32.462  25.106   0.875
28072W        W  387   4.323  42.775  10.405
28073W        W  388  35.373  41.318   1.723
28074W        W  389  40.366  23.628  11.586
28075W        W  390  44.415   0.408  12.861
28076W        W  391  13.743  40.937   3.268
28077W        W  392  17.141  28.543   4.797
28078W        W  393  17.777   1.916  10.428
28079W        W  394  36.442  20.033   1.752
28080W        W  395  27.528  21.714  13.422
28081W        W  396  43.890  33.077  12.858
28082W        W  397  18.657  27.005  14.401
28083W        W  398  25.099  12.751   3.312
28084W        W  399  16.600  28.640  10.437
28085W        W  400  44.468   2.952  11.098
28086W        W  401   3.952  18.085  14.887
28087W        W  402  28.939  34.014  13.343
28088W        W  403  19.259  16.274   4.767
28089W        W  404  17.251  42.474   4.677
28090W        W  405  41.016  20.123  13.880
28091W        W  406  12.696  29.638   0.272
28092W        W  407  25.163  32.517  10.081
28093W        W  408  13.839  35.066  12.508
28094W        W  409  42.864   2.362   0.474
28095W        W  410  39.480  10.234   3.299
28096W        W  411  43.962  43.790   0.414
28097W        W  412  43.509  31.120   3.347
28098W        W  413  28.465  27.057   1.747
28099W        W  414  28.014  17.215   3.869
28100W        W  415  43.285  12.221  13.002
28101W        W  416  16.648  27.625  12.996
28102W        W  417   9.834  40.979   3.147
28103W        W  418  39.988   2.242   4.183
28104W        W  419  17.128  39.929   3.359
28105W        W  420  21.640  27.124  14.830
28106W        W  421   8.288  19.102  13.327
28107W        W  422  40.432  18.619  10.627
28108W        W  423  16.314  11.781   3.662
28109W        W  424  37.085  30.065   1.709
28110W        W  425   2.925  34.019   4.755
28111W        W  426  15.650   6.221   0.334
28112W        W  427   2.248   0.939  12.074
28113W        W  428   9.302  35.911  13.995
28114W        W  429  40.477  11.137   2.893
28115W        W  430  30.939   8.381   0.802
28116W        W  431  44.961  10.778  13.003
28117W        W  432   4.389   9.302   1.290
28118W        W  433  25.538  42.025  14.948
28119W        W  434  12.643  10.368   1.726
28120W        W  435   9.230  24.167   4.738
28121W        W  436  32.466   2.873  12.837
28122W        W  437  42.400   5.388   2.414
28123W        W  438   7.213  24.498  12.425
28124W        W  439  29.514  16.147  14.381
28125W        W  440  20.047  17.247   0.373
28126W        W  441   6.881  13.152  11.943
28127W        W  442  12.746  35.502   2.845
28128W        W  443  39.817   6.191   3.304
28129W        W  444   7.823   7.371   1.315
28130W        W  445  41.503  12.193   1.776
28131W        W  446  22.514   3.945  12.949
28132W        W  447   2.884  11.641   3.300
28133W        W  448  17.246  22.170  11.410
28134W        W  449  44.870  40.424   2.336
28135W        W  450   3.294   1.326   2.751
28136W        W  451  18.219  25.130   0.735
28137W        W  452  22.011  38.933   3.241
28138W        W  453  13.770  28.604  11.111
28139W        W  454  22.167  35.505   4.123
28140W        W  455  34.892  32.396  13.877
28141W        W  456   3.892  13.818  11.531
28142W        W  457  33.474  19.263  10.966
28143W        W  458   6.375  14.217   2.694
28144W        W  459  31.449  24.222   0.313
28145W        W  460   1.238  37.875   4.729
28146W        W  461  15.302  23.690   2.858
28147W        W  462  25.046   6.810  14.484
28148W        W  463  18.145  43.855  13.417
28149W        W  464   5.800  43.957   2.229
28150W        W  465  35.494  24.503  14.797
28151W        W  466   9.727  31.442   4.644
28152W        W  467  29.505  39.061   4.152
28153W        W  468  26.049  36.877  14.998
28154W        W  469  41.305  33.397   0.281
28155W        W  470  40.995  38.967   2.259
28156W        W  471  30.135  11.714   4.205
28157W        W  472   2.876  18.120   1.887
28158W        W  473  34.963  30.032  13.362
28159W        W  474  13.813  29.597   4.718
28160W        W  475  23.190  25.581   4.290
28161W        W  476  27.978   0.422   4.739
28162W        W  477  41.981  24.557  10.933
28163W        W  478  34.988  12.122   3.238
28164W        W  479   5.896  17.650   2.791
28165W        W  480   6.260  31.052   2.196
28166W        W  481  25.015  40.986   1.934
28167W        W  482   2.257   2.468   3.653
28168W        W  483   5.721   8.751   2.663
28169W        W  484  25.151   7.265   2.286
28170W        W  485  25.665   1.921   0.756
28171W        W  486  24.213  15.188   1.326
28172W        W  487  33.547  19.187  13.035
28173W        W  488   9.784   7.830  12.928
28174W        W  489  16.250  28.572   2.757
28175W        W  490  39.388  17.717  13.413
28176W        W  491  23.600   3.851  12.486
28177W        W  492  21.706  24.596   0.807
28178W        W  493  17.214  19.721  11.577
28179W        W  494   5.774  38.487  10.528
28180W        W  495  38.995  21.176   0.361
28181W        W  496  27.126  31.995  11.609
28182W        W  497  15.725  37.832  14.465
28183W        W  498   0.928   8.291   4.230
28184W        W  499   4.823  23.670   4.632
28185W        W  500  10.798  44.460  12.574
28186W        W  501   0.276  33.061  12.048
28187W        W  502  30.415  19.059   2.671
28188W        W  503  23.150   0.928  14.841
28189W        W  504  25.047  33.982   3.712
28190W        W  505   9.728   5.722  14.317
28191W        W  506  20.191  39.049  12.507
28192W        W  507   8.818  29.632  11.374
28193W        W  508  28.140  43.848  14.376
28194W        W  509  40.389   2.376  14.305
28195W        W  510  30.043  30.019  10.926
28196W        W  511  19.640  31.415  14.017
28197W        W  512  38.516  14.212  14.459
28198W        W  513  24.684  34.499  12.361
28199W        W  514  34.510   5.874   2.715
28200W        W  515  31.938  26.559   1.265
28201W        W  516  30.150  19.186   0.461
28202W        W  517  18.122  19.677  14.819
28203W        W  518  29.570  29.061  11.015
28204W        W  519  37.838  36.903  12.411
28205W        W  520   9.713  34.446  13.391
28206W        W  521  34.607  33.520  11.461
28207W        W  522  18.651  43.290  12.832
28208W        W  523  34.607  28.648   1.347
28209W        W  524  18.671  10.236   4.795
28210W        W  525  44.939  40.520   3.823
28211W        W  526   0.392  23.132   0.783
28212W        W  527   6.393  21.741   2.387
28213W        W  528  35.992  31.910  11.988
28214W        W  529   2.722   5.789   0.966
28215W        W  530   8.185  36.954   3.333
28216W        W  531  41.513   0.307  11.926
28217W        W  532  33.967   6.829   0.360
28218W        W  533  22.023   4.824  14.897
28219W        W  534  35.018   0.963   3.795
28220W        W  535  23.019  30.014  14.469
28221W        W  536  23.215  37.524  10.446
28222W        W  537   3.262  20.078   2.856
28223W        W  538  11.694   1.974   1.227
28224W        W  539  24.001  44.984   0.262
28225W        W  540   2.849  15.164   1.902
28226W        W  541  20.039   0.921   4.123
28227W        W  542  34.111  42.432   3.180
28228W        W  543   3.834  29.511   3.168
28229W        W  544  15.302   8.813  11.016
28230W        W  545   2.921  34.409  14.415
28231W        W  546  36.349  33.591  11.972
28232W        W  547  14.102  36.499   3.731
28233W        W  548  18.232   9.886   2.849
28234W        W  549  39.419  23.530  11.478
28235W        W  550  20.686   9.326   3.674
28236W        W  551  17.590   7.695  12.871
28237W        W  552  34.549  19.685  10.628
28238W        W  553  41.477  31.118   2.751
28239W        W  554   6.679  31.564  11.997
28240W        W  555  28.480  31.484   2.694
28241W        W  556  22.579  34.401   3.711
28242W        W  557  29.018  41.521  11.878
28243W        W  558  39.462  25.673  12.829
28244W        W  559  14.737  40.935   3.740
28245W        W  560  19.281  36.080  13.063
28246W        W  561  44.320   3.938   1.849
28247W        W  562  20.718  33.059   4.318
28248W        W  563  10.837   9.271  12.447
28249W        W  564  43.409  25.693   3.752
28250W        W  565  20.132  16.250   0.928
28251W        W  566  10.209  28.990   3.821
28252W        W  567  13.760  12.640   3.799
28253W        W  568  22.590  28.126   1.327
28254W        W  569  44.768  22.616  10.459
28255W        W  570  19.247  27.103   4.722
28256W        W  571   0.985  32.424   0.829
28257W        W  572   6.920  27.181  14.333
28258W        W  573   4.289  20.655  14.316
28259W        W  574   7.831  17.162   2.333
28260W        W  575  10.199  26.525   0.807
28261W        W  576   7.693  14.663  14.275
28262W        W  577  27.115  37.879   2.260
28263W        W  578  40.403  13.226  10.556
28264W        W  579  38.447  37.360  10.096
28265W        W  580   2.824  40.927  13.892
28266W        W  581  10.227  11.323   2.332
28267W        W  582   3.717  10.873   0.309
28268W        W  583   5.784  15.186   4.779
28269W        W  584  44.818  19.602  11.930
28270W        W  585  37.409  39.916  14.780
28271W        W  586  29.171  34.984  11.879
28272W        W  587  41.842  24.115   3.809
28273W        W  588   4.891  31.640  13.798
28274W        W  589  32.113   0.337   3.295
28275W        W  590  34.560  38.511   1.912
28276W        W  591  17.272  40.544  11.072
28277W        W  592   9.246   1.448  12.014
28278W        W  593   9.160  32.935  11.945
28279W        W  594  38.328  23.227   5.163
28280W        W  595   5.391  18.288  12.442
28281W        W  596  41.951  34.013   1.934
28282W        W  597  30.923  34.424  13.836
28283W        W  598   0.363  44.940  11.540
28284W        W  599   6.737  28.967  14.491
28285W        W  600  36.492  44.899  13.805
28286W        W  601  30.920  33.019   1.248
28287W        W  602  15.714  39.819  14.926
28288W        W  603  23.539   0.410  12.891
28289W        W  604  35.603   0.840  14.807
28290W        W  605  19.577   9.225  10.512
28291W        W  606  44.853   5.419  11.975
28292W        W  607   0.493  32.553   4.777
28293W        W  608  41.009  15.219  10.638
28294W        W  609  30.514  36.462  14.277
28295W        W  610  17.292  15.126   1.444
28296W        W  611  18.139  15.166   2.831
28297W        W  612  14.175  25.124   9.933
28298W        W  613  40.975   2.840  14.890
28299W        W  614  39.823   4.214   3.708
28300W        W  615  18.272   7.254  14.368
28301W        W  616  20.620  22.724   3.200
28302W        W  617  32.475  30.980  14.389
28303W        W  618  26.666  21.082  10.528
28304W        W  619   3.369  28.618   2.331
28305W        W  620  16.090  35.378   4.830
28306W        W  621   9.793  28.571   1.715
28307W        W  622  15.169  21.020   3.340
28308W        W  623  39.477  12.621   3.319
28309W        W  624  15.667  34.041   3.203
28310W        W  625  34.411  14.265  13.819
28311W        W  626   4.313   2.794   0.922
28312W        W  627  17.617  15.636   0.392
28313W        W  628  24.571  26.678  10.580
28314W        W  629  12.815   5.299   0.778
28315W        W  630   2.451  14.189   0.750
28316W        W  631  28.035  17.639  10.924
28317W        W  632  23.045  11.867  10.953
28318W        W  633  11.333  23.190  14.796
28319W        W  634  35.032  41.463  13.887
28320W        W  635  39.357  20.222  13.318
28321W        W  636  21.133  14.155   2.785
28322W        W  637  11.804  14.253   4.701
28323W        W  638  13.245   6.418   3.679
28324W        W  639  33.456  44.812  13.003
28325W        W  640  27.613  44.264  10.925
28326W        W  641  27.018  31.558  14.019
28327W        W  642   5.247  38.930   9.981
28328W        W  643  27.607  40.477  10.431
28329W        W  644  28.489   3.777  10.012
28330W        W  645  17.269  40.907  12.823
28331W        W  646  28.461  12.725   2.183
28332W        W  647  36.847  37.410  11.382
28333W        W  648  31.079   4.718   3.870
28334W        W  649  33.455  35.453  13.341
28335W        W  650  40.388   4.807   5.202
28336W        W  651   2.919  37.922   0.806
28337W        W  652   8.814  27.132   3.352
28338W        W  653  11.817  18.112   2.888
28339W        W  654   2.243  13.764  14.492
28340W        W  655  13.602  37.947  11.590
28341W        W  656  31.627  29.095   2.409
28342W        W  657  27.486  15.790   0.930
28343W        W  658  13.209  42.952  13.499
28344W        W  659  24.001  23.051   4.620
28345W        W  660   0.315  38.011   0.892
28346W        W  661  37.420   2.341   4.314
28347W        W  662  17.577  13.712   2.188
28348W        W  663  15.643  16.653  10.408
28349W        W  664  40.807  22.149   4.254
28350W        W  665  32.080  39.421   3.285
28351W        W  666  35.400  33.938   1.429
28352W        W  667   5.701  30.542   2.352
28353W        W  668   9.748  33.589  10.465
28354W        W  669  39.370  40.966  10.964
28355W        W  670  31.551  28.543   2.354
28356W        W  671   8.888  32.584  11.026
28357W        W  672  20.068  44.901   4.142
28358W        W  673  30.580  29.594   4.261
28359W        W  674  34.556  32.909  13.879
28360W        W  675  36.998  27.947   2.363
28361W        W  676   9.303  22.624  11.435
28362W        W  677  26.459  18.069  14.387
28363W        W  678  38.432  22.118   0.729
28364W        W  679  34.002   2.282  13.925
28365W        W  680  23.061  12.304  12.382
28366W        W  681  32.050  11.206   1.237
28367W        W  682  40.341   8.684  12.015
28368W        W  683  30.599  38.494  11.885
28369W        W  684  36.533  25.205   2.662
28370W        W  685  22.053   9.294   4.745
28371W        W  686  27.465  21.138   4.671
28372W        W  687  32.517  43.851  12.954
28373W        W  688  36.406   7.674  12.399
28374W        W  689   6.739  32.459   1.743
28375W        W  690  11.369  19.677   0.869
28376W        W  691   1.368   0.812   0.811
28377W        W  692  25.515  27.024   1.345
28378W        W  693   4.775  17.130  10.408
28379W        W  694  37.547  34.958  11.574
28380W        W  695  11.790  35.430   0.316
28381W        W  696  22.540   4.932   4.789
28382W        W  697  10.784  13.725   4.168
28383W        W  698  18.723   4.399   1.880
28384W        W  699  20.675  42.926   1.895
28385W        W  700  38.459   0.399  13.979
28386W        W  701   4.820  44.476   5.157
28387W        W  702  33.567  36.540   0.949
28388W        W  703  13.108  23.702   2.285
28389W        W  704  15.148  10.318   1.431
28390W        W  705   6.847   3.752   0.827
28391W        W  706  13.796  21.059  10.460
28392W        W  707  27.148  26.649   2.728
28393W        W  708   6.709  14.141   1.241
28394W        W  709   0.746  25.482  11.581
28395W        W  710   7.300  26.555  10.450
28396W        W  711  18.760   5.822   1.274
28397W        W  712  10.755  30.484   1.915
28398W        W  713  24.596  16.230   1.450
28399W        W  714  39.840  26.175  10.100
28400W        W  715  21.687  27.614   0.347
28401W        W  716  14.699  23.222   3.682
28402W        W  717  37.576   0.878   2.804
28403W        W  718  37.977  34.405   3.306
28404W        W  719  40.466  24.178   5.748
28405W        W  720   3.280  39.352   4.219
28406W        W  721   7.303  11.144   1.854
28407W        W  722  23.153  19.160   5.671
28408W        W  723  43.858   1.752   0.461
28409W        W  724  34.484   6.386   4.349
28410W        W  725   7.792  28.080  10.625
28411W        W  726  37.520  30.138  11.448
28412W        W  727   6.396  25.694  13.057
28413W        W  728  24.111   5.315  14.774
28414W        W  729  42.457  31.544   3.283
28415W        W  730  27.143  19.709   3.635
28416W        W  731  37.883  43.830  11.447
28417W        W  732  21.672  11.205   4.140
28418W        W  733  32.472  19.768  10.595
28419W        W  734  18.174  44.792   4.124
28420W        W  735  38.822  21.042  14.878
28421W        W  736   7.877  38.864  13.798
28422W        W  737  37.343  19.703   4.230
28423W        W  738  10.644  29.067   4.755
28424W        W  739  29.928  41.995   2.193
28425W        W  740   1.285  10.381  13.897
28426W        W  741  14.169  17.667  13.535
28427W        W  742  38.490  33.061   1.900
28428W        W  743   3.849  14.698  12.087
28429W        W  744  33.443  30.104  10.496
28430W        W  745  30.941  22.507   0.767
28431W        W  746  15.782  26.684  10.495
28432W        W  747  24.699  36.041   3.151
28433W        W  748  36.480  18.185  10.966
28434W        W  749  20.692  38.500  13.031
28435W        W  750  28.945   7.790  12.573
28436W        W  751  11.664  31.984  11.504
28437W        W  752  13.602  11.837   3.309
28438W        W  753  19.156  24.542  13.340
28439W        W  754  11.322   2.910  13.457
28440W        W  755  24.588  38.385  13.041
28441W        W  756  21.679  19.091  14.421
28442W        W  757  38.861  42.827  10.077
28443W        W  758  25.028  19.239  14.375
28444W        W  759  26.188  31.070  14.491
28445W        W  760  25.587  26.082  13.984
28446W        W  761  26.637  12.786   3.289
28447W        W  762  31.628  34.038  13.410
28448W        W  763   0.486  13.656   0.247
28449W        W  764  35.408  26.521  13.874
28450W        W  765  26.539  17.586  11.963
28451W        W  766  39.814  13.822   1.257
28452W        W  767  29.159  12.768  13.947
28453W        W  768  25.179  37.846   3.787
28454W        W  769  34.078  11.286  13.873
28455W        W  770  16.236  43.492  10.987
28456W        W  771  16.694  36.499  13.981
28457W        W  772  31.067  38.045   1.322
28458W        W  773  27.627  31.013   4.617
28459W        W  774  44.351  44.000  11.377
28460W        W  775  39.382  25.219  11.090
28461W        W  776   8.246  33.467  11.510
28462W        W  777  23.576  11.740  12.074
28463W        W  778  22.063  30.524  11.002
28464W        W  779  29.950   3.931   4.269
28465W        W  780  37.077   3.853  13.008
28466W        W  781  14.762  14.591  10.981
28467W        W  782  23.655  10.692   1.441
28468W        W  783  18.087  15.182   4.327
28469W        W  784  13.165   5.224   1.307
28470W        W  785  29.050   6.680   2.833
28471W        W  786  19.731   8.700  13.999
28472W        W  787  41.433  22.053   3.801
28473W        W  788  31.927  36.907   1.245
28474W        W  789  41.341  14.244  13.022
28475W        W  790  42.427   4.819  12.420
28476W        W  791   4.415   8.248   4.677
28477W        W  792  15.695  44.338  12.908
28478W        W  793  35.402  34.071   4.741
28479W        W  794   5.915  39.809  10.450
28480W        W  795  24.229  16.569  13.328
28481W        W  796  34.419  39.399  11.606
28482W        W  797  33.474  44.906   3.713
28483W        W  798  18.094  16.808   1.739
28484W        W  799  11.187   6.730   3.634
28485W        W  800  30.991  36.442   0.280
28486W        W  801  43.508   1.432  13.345
28487W        W  802  33.478  15.605   4.609
28488W        W  803  18.215   3.334   3.760
28489W        W  804   1.342   2.386   0.480
28490W        W  805  31.402   1.375   0.426
28491W        W  806  30.541  10.713  13.891
28492W        W  807  33.444  25.137   5.131
28493W        W  808  44.280  41.786   0.813
28494W        W  809  11.270   9.198  13.030
28495W        W  810  20.096  11.868   0.438
28496W        W  811  42.919   3.883  13.308
28497W        W  812  17.613  41.823  12.867
28498W        W  813  15.794  17.633   2.736
28499W        W  814   9.283  15.312   3.847
28500W        W  815  21.243   4.270   0.865
28501W        W  816  37.358  15.101   1.844
28502W        W  817  18.759  40.453  13.825
28503W        W  818   4.245  29.095  13.897
28504W        W  819  35.927  35.376  14.991
28505W        W  820  22.102  40.855  12.912
28506W        W  821   9.285  36.362  13.406
28507W        W  822  38.461   9.263  12.825
28508W        W  823  40.969   9.664  10.625
28509W        W  824  12.190  40.815  12.404
28510W        W  825  34.054  40.886  12.461
28511W        W  826  43.472   0.323  14.311
28512W        W  827  24.070  24.156  14.833
28513W        W  828  43.794  18.582   2.886
28514W        W  829  33.958   3.321  14.421
28515W        W  830  17.651   3.245   4.219
28516W        W  831  25.037  27.124   0.820
28517W        W  832   0.442  12.239   4.310
28518W        W  833  22.140  26.640  11.862
28519W        W  834   0.488  29.491   1.918
28520W        W  835  42.783  38.357  13.372
28521W        W  836  39.536  34.530  12.526
28522W        W  837  39.431  10.851  10.521
28523W        W  838  35.517  34.448  13.487
28524W        W  839  21.234  36.943   3.832
28525W        W  840  30.037   2.951   1.728
28526W        W  841  25.971  13.351  12.563
28527W        W  842  18.169   8.262  14.289
28528W        W  843  42.982  27.639  13.877
28529W        W  844  31.937  33.066  11.032
28530W        W  845   8.247  31.593  14.760
28531W        W  846   8.715  44.471  14.301
28532W        W  847   4.840  28.118   2.792
28533W        W  848  38.495  35.513  13.400
28534W        W  849   3.944   2.342   4.633
28535W        W  850  30.580   0.492  12.494
28536W        W  851  32.131   4.334   0.797
28537W        W  852  21.050  33.949  11.045
28538W        W  853   2.253  35.059  14.410
28539W        W  854  44.006  33.456  11.463
28540W        W  855  41.305  13.302   3.800
28541W        W  856   6.256  17.793  10.510
28542W        W  857  33.399  22.500  14.842
28543W        W  858  19.105   4.444   2.394
28544W        W  859  43.778  28.091   1.717
28545W        W  860  33.485   0.764  14.290
28546W        W  861  21.189  25.007  13.498
28547W        W  862   9.262  39.823   4.127
28548W        W  863  37.580  38.335   1.262
28549W        W  864  22.074  22.593  10.057
28550W        W  865  44.957  27.977  12.563
28551W        W  866  28.594  33.894   5.581
28552W        W  867  36.396  16.618  11.532
28553W        W  868  19.565  38.452   4.340
28554W        W  869  38.478  30.583  12.457
28555W        W  870   6.855  17.613   4.697
28556W        W  871  37.343  36.414  12.562
28557W        W  872  36.448  19.043   3.759
28558W        W  873  18.655  12.339  10.011
28559W        W  874  24.573   8.329  11.441
28560W        W  875  22.537  37.924   3.779
28561W        W  876  32.533  36.508  13.898
28562W        W  877   6.715   2.439  10.941
28563W        W  878  26.585  25.707  14.769
28564W        W  879  20.531  10.168   9.450
28565W        W  880  35.103  32.428   2.765
28566W        W  881  35.411  15.230  14.314
28567W        W  882  32.989  11.317   3.763
28568W        W  883  28.180  23.650   1.862
28569W        W  884  16.315  18.126  11.380
28570W        W  885   9.863  19.232  13.462
28571W        W  886  34.964  17.129   0.381
28572W        W  887  39.365  20.183  13.893
28573W        W  888  24.996   2.316  11.030
28574W        W  889   8.789  27.585   0.851
28575W        W  890  34.390   2.825  13.326
28576W        W  891  37.443  20.542   4.788
28577W        W  892  33.914  41.033  14.946
28578W        W  893  37.343  14.781  14.001
28579W        W  894  41.797   2.818   2.283
28580W        W  895  35.524  41.826   3.177
28581W        W  896   0.920  20.183  14.839
28582W        W  897  33.955  41.976   4.695
28583W        W  898  13.239  23.572   3.727
28584W        W  899  31.068  12.644  12.383
28585W        W  900  32.918  27.118  14.278
28586W        W  901  40.392  42.820   4.139
28587W        W  902  30.954  38.939  14.966
28588W        W  903   2.862  27.131  11.944
28589W        W  904  18.186  26.497   0.295
28590W        W  905  25.637  21.258   2.818
28591W        W  906   0.327  23.004  12.080
28592W        W  907  28.115  15.677  11.079
28593W        W  908  42.448  22.222   2.741
28594W        W  909  27.147  44.367  11.559
28595W        W  910  14.244  16.691  12.568
28596W        W  911  10.860  32.037  12.845
28597W        W  912  18.102  41.871  10.091
28598W        W  913  32.123   3.310  13.400
28599W        W  914  35.100   8.810   0.245
28600W        W  915  27.133  25.029   2.327
28601W        W  916  12.701  41.429   1.890
28602W        W  917   2.455  34.919   5.241
28603W        W  918  12.648   5.901  12.967
28604W        W  919   3.222  11.229   3.783
28605W        W  920  39.897   9.325   3.325
28606W        W  921  35.925  29.156  14.426
28607W        W  922  14.808  23.657   3.366
28608W        W  923  22.688  35.436  13.335
28609W        W  924  16.233   2.840   2.672
28610W        W  925  11.654  28.441  10.542
28611W        W  926  25.646  12.798   5.224
28612W        W  927  27.052  39.814  11.108
28613W        W  928  37.027  33.911   1.288
28614W        W  929  21.231  30.019   2.851
28615W        W  930   6.398   6.351   2.351
28616W        W  931  43.439  30.539  13.429
28617W        W  932  34.520  14.328   2.233
28618W        W  933  43.367   3.796  10.891
28619W        W  934  32.992  42.314  13.346
28620W        W  935  44.351  22.576  14.899
28621W        W  936  20.086  20.238   1.227
28622W        W  937  22.634  24.024  10.139
28623W        W  938  22.080   7.809  13.876
28624W        W  939  37.846  12.140  13.905
28625W        W  940  43.336  30.462   2.734
28626W        W  941   1.840  42.879   0.778
28627W        W  942   1.473  27.983   2.682
28628W        W  943  18.057  42.857   0.246
28629W        W  944   4.211  12.751   2.300
28630W        W  945  36.848  44.259   0.776
28631W        W  946   3.738   4.203  11.116
28632W        W  947   6.824  23.667  10.941
28633W        W  948  16.610   5.848   0.355
28634W        W  949  40.866  27.165  11.861
28635W        W  950  13.644  24.130   2.396
28636W        W  951  24.197  17.781  11.599
28637W        W  952   8.683  30.018  13.056
28638W        W  953  35.009  28.101   1.823
28639W        W  954   8.257   5.345  12.975
28640W        W  955  29.427  32.096   1.308
28641W        W  956  26.110  39.359   4.753
28642W        W  957  17.287  38.445  13.454
28643W        W  958   6.358  36.499   1.823
28644W        W  959   5.373  16.798   0.727
28645W        W  960  33.588   2.231   4.807
28646W        W  961  40.023   5.832  12.976
28647W        W  962   0.782  20.220  13.431
28648W        W  963  36.591  17.196   3.792
28649W        W  964  20.531  33.003   3.206
28650W        W  965  39.357   5.242   4.335
28651W        W  966  11.789   9.386  14.506
28652W        W  967  32.413  44.343  10.004
28653W        W  968   4.743  33.489  14.501
28654W        W  969  38.464  21.244   2.898
28655W        W  970  12.162  22.051   4.815
28656W        W  971  43.512  37.464  13.488
28657W        W  972  34.410  29.612  12.560
28658W        W  973   2.422  29.152  10.959
28659W        W  974  34.909   1.422  10.411
28660W        W  975  32.008  24.110  10.996
28661W        W  976  40.896  29.066  11.519
28662W        W  977  42.513   8.195  10.627
28663W        W  978  26.146  33.950  12.903
28664W        W  979  11.845  27.620   3.318
28665W        W  980  14.660  13.165  11.384
28666W        W  981  36.446  31.408   0.762
28667W        W  982   3.285  18.053   9.996
28668W        W  983  23.674  37.365   3.660
28669W        W  984  35.109  37.999   1.715
28670W        W  985  35.501  11.666  10.887
28671W        W  986   1.946  12.644  13.028
28672W        W  987  17.120  12.764  10.006
28673W        W  988  42.947   3.231  14.412
28674W        W  989   0.494   3.409  14.318
28675W        W  990   3.419  34.596  12.446
28676W        W  991   3.828  21.528   2.411
28677W        W  992  44.880   9.752   5.728
28678W        W  993  23.994  44.465   5.178
28679W        W  994  29.106  14.759  11.080
28680W        W  995  38.065  35.087   4.352
28681W        W  996  25.574  13.152   0.834
28682W        W  997   2.279  39.390   3.174
28683W        W  998  24.533  39.987  11.382
28684W        W  999  10.157  32.415   4.650
28685W        W 1000   2.760  28.681   2.280
28686W        W 1001   6.799  29.579  10.998
28687W        W 1002  42.932  40.854  14.767
28688W        W 1003   5.916  31.966   3.368
28689W        W 1004  24.979  26.510   3.148
28690W        W 1005  11.138  39.969   3.698
28691W        W 1006  25.134  32.572  12.941
28692W        W 1007  21.115  15.625  10.452
28693W        W 1008  30.511  39.478  10.903
28694W        W 1009  36.450  44.857   1.257
28695W        W 1010  33.407  18.240  10.613
28696W        W 1011  27.584  20.043  12.450
28697W        W 1012  26.027   1.868  11.100
28698W        W 1013   2.394  38.566   4.155
28699W        W 1014  35.567  38.996  12.577
28700W        W 1015   0.959  44.385  14.972
28701W        W 1016  21.699   2.819  11.079
28702W        W 1017  31.596   3.314   1.239
28703W        W 1018   9.819  10.192  14.417
28704W        W 1019  40.534  44.398  10.570
28705W        W 1020  10.640  28.511  12.427
28706W        W 1021  43.336  35.479   2.225
28707W        W 1022  20.085  13.298   2.195
28708W        W 1023   9.829  19.051   0.285
28709W        W 1024  15.618  20.169   2.879
28710W        W 1025  38.370  38.481   0.752
28711W        W 1026   2.947  38.868   4.351
28712W        W 1027  33.419  35.520  11.115
28713W        W 1028  32.936  15.192   4.674
28714W        W 1029  28.145  29.559   3.189
28715W        W 1030   0.465   4.821   0.772
28716W        W 1031  16.752  23.161  10.896
28717W        W 1032  35.899  16.668   4.241
28718W        W 1033  13.800   8.380  11.390
28719W        W 1034  12.803  19.586   2.792
28720W        W 1035   1.395  14.618  10.888
28721W        W 1036  24.644  17.654   1.733
28722W        W 1037  30.014  40.015  11.538
28723W        W 1038   3.938  32.917  10.510
28724W        W 1039  44.430  37.494   3.256
28725W        W 1040  23.681  39.901  14.988
28726W        W 1041  11.701  28.561  10.899
28727W        W 1042   8.793  42.876  12.518
28728W        W 1043  40.831  28.100  13.399
28729W        W 1044  15.329  34.572   2.740
28730W        W 1045  26.547  24.022  11.118
28731W        W 1046  31.508   0.798  14.280
28732W        W 1047  20.522  36.045   3.151
28733W        W 1048  39.817  26.205  13.540
28734W        W 1049   6.212  42.389   2.736
28735W        W 1050  18.133  37.909   0.344
28736W        W 1051   1.256  10.773  12.534
28737W        W 1052   9.764  28.552   2.787
28738W        W 1053   8.759   4.805  10.447
28739W        W 1054   0.415   9.311  13.441
28740W        W 1055  22.514  23.519   0.735
28741W        W 1056   6.822  35.515  11.963
28742W        W 1057   4.853  10.229   1.375
28743W        W 1058  19.623  14.149  12.947
28744W        W 1059  11.744  25.519   3.379
28745W        W 1060  17.182  38.896   4.692
28746W        W 1061   3.262  37.904  14.991
28747W        W 1062  20.579  44.339   2.372
28748W        W 1063   8.294  25.636  13.391
28749W        W 1064  29.608  16.681   2.297
28750W        W 1065  17.129   6.342   0.261
28751W        W 1066  12.236  17.798   4.266
28752W        W 1067  30.963  18.664   1.887
28753W        W 1068  33.991  35.546  14.411
28754W        W 1069  18.164  36.960  13.542
28755W        W 1070  11.705  35.430  10.535
28756W        W 1071  21.681   9.363  12.872
28757W        W 1072  27.080   0.439   1.702
28758W        W 1073  30.503  32.051   5.148
28759W        W 1074  20.653  22.010   4.212
28760W        W 1075  27.487  29.953  12.489
28761W        W 1076  26.526  12.202   0.400
28762W        W 1077  30.038   5.242  13.338
28763W        W 1078  30.952  17.282  10.452
28764W        W 1079  25.621  15.750  12.041
28765W        W 1080  17.161   1.955  11.107
28766W        W 1081  39.881  30.057  12.397
28767W        W 1082  25.091   3.847  12.459
28768W        W 1083   2.244   0.798  13.849
28769W        W 1084   1.380  32.433  14.440
28770W        W 1085   2.956  15.182  14.911
28771W        W 1086  36.572  42.293   0.467
28772W        W 1087  24.040  25.617   2.880
28773W        W 1088  25.117  22.163  12.829
28774W        W 1089  39.009  24.033   0.965
28775W        W 1090  15.685  44.873  13.328
28776W        W 1091  12.201  39.313   4.176
28777W        W 1092  31.985   3.793   2.200
28778W        W 1093  31.071  30.637  13.028
28779W        W 1094   6.421  32.512   2.295
28780W        W 1095  26.964  44.282  13.041
28781W        W 1096  41.860  41.887  11.426
28782W        W 1097  39.913  11.831   2.323
28783W        W 1098   3.870  19.088   4.727
28784W        W 1099  43.918  32.987  11.948
28785W        W 1100  37.927  43.826   1.863
28786W        W 1101  27.528  16.106   0.939
28787W        W 1102  42.811  39.810   3.649
28788W        W 1103  35.466  13.266   1.447
28789W        W 1104  38.877  40.032   1.385
28790W        W 1105  42.931   9.228   0.298
28791W        W 1106  26.679  33.052  10.475
28792W        W 1107  36.404   9.156   2.725
28793W        W 1108  41.332  30.063   2.704
28794W        W 1109  31.124  26.617  10.090
28795W        W 1110  39.974  28.178   2.665
28796W        W 1111  17.164  34.522   1.218
28797W        W 1112  23.181  24.987   2.264
28798W        W 1113  27.042   1.335  10.623
28799W        W 1114  10.161  37.535   1.856
28800W        W 1115  33.000  30.513  12.946
28801W        W 1116  35.440   0.952  14.440
28802W        W 1117  30.658  29.439  11.092
28803W        W 1118  12.261  29.577  12.995
28804W        W 1119  40.835  44.370   0.360
28805W        W 1120  29.519  19.105   4.614
28806W        W 1121  39.424  43.296  13.453
28807W        W 1122  44.955  20.163  13.521
28808W        W 1123   1.869  40.464  14.015
28809W        W 1124  41.913  34.538   2.410
28810W        W 1125  24.479  27.042  10.995
28811W        W 1126  25.544   0.948  13.394
28812W        W 1127  39.840  22.589  12.026
28813W        W 1128  37.963   0.407   3.833
28814W        W 1129  36.513  18.198   1.324
28815W        W 1130  43.916  34.949  11.573
28816W        W 1131  25.497  12.207   4.762
28817W        W 1132  10.341  33.040   3.365
28818W        W 1133  39.415  29.436   0.459
28819W        W 1134   9.845  24.207  11.099
28820W        W 1135  34.911  21.518  14.912
28821W        W 1136  16.297  21.241  13.437
28822W        W 1137   4.303   6.829  11.940
28823W        W 1138  23.554   5.863   2.771
28824W        W 1139  23.029   9.664  10.544
28825W        W 1140  43.461  17.141  10.094
28826W        W 1141  32.896  24.619  12.554
28827W        W 1142  17.648  42.319  14.499
28828W        W 1143  18.156  31.520   1.399
28829W        W 1144   3.771  14.209   4.610
28830W        W 1145  26.206  27.608   4.160
28831W        W 1146   3.320  28.676  12.342
28832W        W 1147  44.319  13.728  10.459
28833W        W 1148  23.507  42.899  14.867
28834W        W 1149  32.574  11.306   4.253
28835W        W 1150   0.325  24.617  13.359
28836W        W 1151  29.645  23.490   1.903
28837W        W 1152   9.254  25.196  13.826
28838W        W 1153  21.067   4.944   4.603
28839W        W 1154  26.515  42.370   3.710
28840W        W 1155  38.359  20.631   2.821
28841W        W 1156   7.780   7.251  11.523
28842W        W 1157  12.325  43.966   4.166
28843W        W 1158  20.702   6.197   3.858
28844W        W 1159   3.380   1.256   0.870
28845W        W 1160  16.780  11.243   1.272
28846W        W 1161  41.800  33.988  11.518
28847W        W 1162  36.579  37.865   1.860
28848W        W 1163  44.999   2.300  12.073
28849W        W 1164  24.075  26.489  10.917
28850W        W 1165  18.167  28.636   3.317
28851W        W 1166  16.142  29.670  12.868
28852W        W 1167   2.387   4.303  11.059
28853W        W 1168  40.468  40.042  14.031
28854W        W 1169  42.430  29.937   2.368
28855W        W 1170  37.391   6.701   0.275
28856W        W 1171  13.217  40.418  10.152
28857W        W 1172  33.616  23.196  10.504
28858W        W 1173   3.953  30.035   4.679
28859W        W 1174   4.261  18.198   3.331
28860W        W 1175  11.164  15.648  13.801
28861W        W 1176  17.271  35.026  14.497
28862W        W 1177  19.780  21.656  12.435
28863W        W 1178  31.926  16.655   0.434
28864W        W 1179   5.313  44.945   2.360
28865W        W 1180  34.578  35.378  14.487
28866W        W 1181  38.921  41.798  10.579
28867W        W 1182  28.559  38.019  11.427
28868W        W 1183  23.555  43.313  11.004
28869W        W 1184  23.139  40.497  13.372
28870W        W 1185  22.160  12.786   2.393
28871W        W 1186   3.363  19.117  12.932
28872W        W 1187  23.034  37.996   3.168
28873W        W 1188  36.047  43.313  13.525
28874W        W 1189  33.582   5.796  11.087
28875W        W 1190  11.265  40.508  12.580
28876W        W 1191  10.319  25.576   0.319
28877W        W 1192  22.740  41.294   2.309
28878W        W 1193   9.299  14.811   4.137
28879W        W 1194  39.397  31.482  14.011
28880W        W 1195   1.398  43.872  10.584
28881W        W 1196  43.369  31.029  11.570
28882W        W 1197  18.120  27.036  10.923
28883W        W 1198  32.965   2.846   2.749
28884W        W 1199  42.522  20.531  12.527
28885W        W 1200  26.001  37.040  12.958
28886W        W 1201  23.138  25.965   4.343
28887W        W 1202  27.499  24.686  14.307
28888W        W 1203  27.162  27.520   0.476
28889W        W 1204   5.343  11.815   2.783
28890W        W 1205  42.801   9.654  11.119
28891W        W 1206  36.524  26.691   3.790
28892W        W 1207  41.931  24.660   2.868
28893W        W 1208  26.632  16.176   4.665
28894W        W 1209   3.380   9.852  13.846
28895W        W 1210  40.465   6.749   1.812
28896W        W 1211  14.826   1.252   1.888
28897W        W 1212   5.247  15.684  13.347
28898W        W 1213  15.304  10.334  13.879
28899W        W 1214  43.955  40.973   3.716
28900W        W 1215  28.618  25.634   4.630
28901W        W 1216  39.546  43.812   2.709
28902W        W 1217  31.153  42.396  11.076
28903W        W 1218  26.623  30.098  10.458
28904W        W 1219  23.108  12.830   0.818
28905W        W 1220  21.634  18.239   1.406
28906W        W 1221  11.784   2.421   4.653
28907W        W 1222  32.088  32.063   4.323
28908W        W 1223  28.084  17.090  14.802
28909W        W 1224  19.726  12.262   0.337
28910W        W 1225   8.283   5.928  13.926
28911W        W 1226  19.678  10.190  12.007
28912W        W 1227  17.589   0.880  10.619
28913W        W 1228  18.756   9.295   1.375
28914W        W 1229   8.350  18.693  14.471
28915W        W 1230  19.744  34.398   0.270
28916W        W 1231  29.976  29.470   3.183
28917W        W 1232   4.916  27.686  14.391
28918W        W 1233  18.577  39.873  13.375
28919W        W 1234  14.216   5.759  14.460
28920W        W 1235   8.834   0.772   3.356
28921W        W 1236  38.888   6.374  11.949
28922W        W 1237  23.568  27.982   3.230
28923W        W 1238  27.567  25.514  11.079
28924W        W 1239  25.135  11.369   3.760
28925W        W 1240  12.174  36.072  11.888
28926W        W 1241  34.383  42.863   1.215
28927W        W 1242  39.395  44.391  11.404
28928W        W 1243  26.115  38.542   4.685
28929W        W 1244  10.158  22.605   4.318
28930W        W 1245  19.667  28.955   2.229
28931W        W 1246   4.938  32.503  10.460
28932W        W 1247  29.563  37.461   3.215
28933W        W 1248   4.814  11.307   1.245
28934W        W 1249  30.653  23.014   4.187
28935W        W 1250  34.939  43.817  10.570
28936W        W 1251  21.252  29.100  13.845
28937W        W 1252   5.873  13.799  12.906
28938W        W 1253  39.387  22.089   3.386
28939W        W 1254  27.618  36.383  14.994
28940W        W 1255  43.775  39.845  10.578
28941W        W 1256  37.404   5.418   0.340
28942W        W 1257   7.358   2.368   5.145
28943W        W 1258  22.610  26.111   0.789
28944W        W 1259  24.041  32.936   3.313
28945W        W 1260  29.135  36.076  10.966
28946W        W 1261   4.365  27.095  12.572
28947W        W 1262  37.431   2.237  12.988
28948W        W 1263  39.407  13.726   2.791
28949W        W 1264  34.979  26.474  11.533
28950W        W 1265   5.897  36.560  13.810
28951W        W 1266  36.403   4.208   1.375
28952W        W 1267  15.613   2.318   0.390
28953W        W 1268   4.422  36.987   4.665
28954W        W 1269  33.451  21.539   1.274
28955W        W 1270  41.933  42.835   0.255
28956W        W 1271  44.284  21.260   2.699
28957W        W 1272  31.053  28.953  11.454
28958W        W 1273   3.826  35.977   0.884
28959W        W 1274  22.221  31.431  11.010
28960W        W 1275  26.595   2.403  10.477
28961W        W 1276  31.516  33.403  12.487
28962W        W 1277  19.557  36.448   0.868
28963W        W 1278  41.851   3.890  11.106
28964W        W 1279   7.253  23.173  14.029
28965W        W 1280  28.034   7.328  10.623
28966W        W 1281   4.869  21.604   2.203
28967W        W 1282  24.693  31.530   2.417
28968W        W 1283  39.393  10.142   0.363
28969W        W 1284  40.320   9.695   2.826
28970W        W 1285  39.852   5.713   3.150
28971W        W 1286   7.205  23.499  13.820
28972W        W 1287  32.488  22.017   4.783
28973W        W 1288   1.463  18.224   1.803
28974W        W 1289  17.638  37.833   4.675
28975W        W 1290  13.647   0.811   1.373
28976W        W 1291   0.973  19.191   4.263
28977W        W 1292   9.702  38.051  11.025
28978W        W 1293  27.988  36.573  10.556
28979W        W 1294  31.053  29.665   3.778
28980W        W 1295  17.234  31.973  11.560
28981W        W 1296  17.609  44.498   0.796
28982W        W 1297  27.500   8.880   4.230
28983W        W 1298  19.587  27.074  14.889
28984W        W 1299  25.078  23.220  12.962
28985W        W 1300  35.972   8.211  13.970
28986W        W 1301  18.716  15.085   1.324
28987W        W 1302  43.295   5.315   3.733
28988W        W 1303  41.304  18.662  13.412
28989W        W 1304   1.854  19.717  12.576
28990W        W 1305  18.561   4.729   2.708
28991W        W 1306   8.329  29.978  14.891
28992W        W 1307  18.730   0.831   0.270
28993W        W 1308  30.443  19.580   2.842
28994W        W 1309  11.144  12.251  12.494
28995W        W 1310  22.737   4.407  12.834
28996W        W 1311  28.998  18.642   3.159
28997W        W 1312  43.903   0.769   1.710
28998W        W 1313  27.517  19.156  12.833
28999W        W 1314  12.207  40.018  11.051
29000W        W 1315  11.278   6.751  11.426
29001W        W 1316   9.274  18.241   4.807
29002W        W 1317  31.481  33.049   0.455
29003W        W 1318  15.595   4.260   5.138
29004W        W 1319  44.408   2.901   4.745
29005W        W 1320  17.289  24.154   3.153
29006W        W 1321  12.747  38.438  11.587
29007W        W 1322   5.906  38.336  11.558
29008W        W 1323  33.982  32.527  14.374
29009W        W 1324  30.632  33.075   1.763
29010W        W 1325  44.791  12.610  10.643
29011W        W 1326  33.531  29.442   1.904
29012W        W 1327  36.057   5.348  11.022
29013W        W 1328  23.609  21.211  10.537
29014W        W 1329  17.616   9.282   3.702
29015W        W 1330  41.379  29.937   3.783
29016W        W 1331   7.186  21.196  14.467
29017W        W 1332  35.464  42.413   3.325
29018W        W 1333   7.675  36.492  13.013
29019W        W 1334  16.124  29.938  10.996
29020W        W 1335  40.984  17.198   4.782
29021W        W 1336  44.944  31.600   2.242
29022W        W 1337  33.982  34.916  11.086
29023W        W 1338   6.718  24.028   0.797
29024W        W 1339  28.046  16.689   2.406
29025W        W 1340  24.718  30.470   2.763
29026W        W 1341   1.954   3.773   3.834
29027W        W 1342  33.078  13.765   4.691
29028W        W 1343  25.709   6.700  10.957
29029W        W 1344  40.443  15.747   3.775
29030W        W 1345  24.032   8.810   0.823
29031W        W 1346   8.297   8.328   3.863
29032W        W 1347  44.376  15.797   3.758
29033W        W 1348  33.386  37.954   1.366
29034W        W 1349  42.878  37.918   4.744
29035W        W 1350  19.557  42.806   1.779
29036W        W 1351  28.129   1.953   3.842
29037W        W 1352  38.943   6.798   4.734
29038W        W 1353  20.162  16.230  11.978
29039W        W 1354  43.476  23.652   3.757
29040W        W 1355  29.087  31.026  13.361
29041W        W 1356  31.072  38.399  11.568
29042W        W 1357  10.828   6.244   4.150
29043W        W 1358  42.836  11.136  13.919
29044W        W 1359  20.063  35.395   3.226
29045W        W 1360  19.740  28.486  13.985
29046W        W 1361  27.679   1.284  11.382
29047W        W 1362  12.310  31.013  13.427
29048W        W 1363   9.882   6.847   0.366
29049W        W 1364  14.590  25.213   5.248
29050W        W 1365  24.091  26.667  11.545
29051W        W 1366   2.826   3.309  12.443
29052W        W 1367  23.112  44.792  11.089
29053W        W 1368   0.879  35.906   1.234
29054W        W 1369  32.125  17.561   3.182
29055W        W 1370  21.048  31.534  11.857
29056W        W 1371  41.973  32.575  13.542
29057W        W 1372   1.822  34.945   5.137
29058W        W 1373  14.102  32.441   0.884
29059W        W 1374  21.033  29.962   1.319
29060W        W 1375   1.474  31.122  12.997
29061W        W 1376  21.527  36.498   1.862
29062W        W 1377   3.743  39.485  11.924
29063W        W 1378   4.290  32.082  14.903
29064W        W 1379  28.162   4.832  12.966
29065W        W 1380  17.298   7.779  14.422
29066W        W 1381  14.122  41.337  10.140
29067W        W 1382  24.208  34.864  12.986
29068W        W 1383  21.684  41.908   2.786
29069W        W 1384  30.543  16.114  11.543
29070W        W 1385  28.437  31.563   4.775
29071W        W 1386  18.246   0.840   0.815
29072W        W 1387   6.196  40.039  12.445
29073W        W 1388  30.986  31.106   0.828
29074W        W 1389   9.246  15.148  14.003
29075W        W 1390  43.882   3.294  14.812
29076W        W 1391  11.646  10.833   2.240
29077W        W 1392  43.983  21.586  13.927
29078W        W 1393  34.038  34.893  14.792
29079W        W 1394   3.760   7.891   0.326
29080W        W 1395  14.661  35.428   0.815
29081W        W 1396  35.367  27.446   1.305
29082W        W 1397   5.858  43.480   0.735
29083W        W 1398  28.609   0.776  11.120
29084W        W 1399  20.665  17.280  12.386
29085W        W 1400   7.708  19.093  12.080
29086W        W 1401  27.148  44.276  14.932
29087W        W 1402  28.946  40.418  11.472
29088W        W 1403  11.304  26.196   0.876
29089W        W 1404  40.348   3.410   1.432
29090W        W 1405   6.417   3.275   5.150
29091W        W 1406  35.424  18.555  13.791
29092W        W 1407   2.393  13.137   4.683
29093W        W 1408  17.737  20.546   2.797
29094W        W 1409  38.465  39.540  11.590
29095W        W 1410  19.570   2.935  14.809
29096W        W 1411  44.287   7.773  14.393
29097W        W 1412   2.750  26.509   1.877
29098W        W 1413  40.857   4.706  10.642
29099W        W 1414  29.985  14.225   1.434
29100W        W 1415   0.253  23.110   3.212
29101W        W 1416  44.764  33.591  13.406
29102W        W 1417   5.827  35.422   0.270
29103W        W 1418  20.230  14.249   0.842
29104W        W 1419  31.035  14.144  10.070
29105W        W 1420   6.865  36.383  14.324
29106W        W 1421   8.338  32.004  11.965
29107W        W 1422  42.793  29.502   4.788
29108W        W 1423  41.993   5.725  10.924
29109W        W 1424  27.037  22.666   0.465
29110W        W 1425  42.001   7.674  12.863
29111W        W 1426  40.974   2.372  10.608
29112W        W 1427  14.225  11.861   3.312
29113W        W 1428  13.793   2.338  12.848
29114W        W 1429  34.040  26.627   2.779
29115W        W 1430  31.984  37.506   4.331
29116W        W 1431  29.931   3.823   3.360
29117W        W 1432   1.293  16.194  12.365
29118W        W 1433  17.777  41.807   3.803
29119W        W 1434   7.908  41.346   3.237
29120W        W 1435   8.777   4.715  13.981
29121W        W 1436  34.562  31.555   4.175
29122W        W 1437  15.719  17.204  12.971
29123W        W 1438  15.643   8.267  14.823
29124W        W 1439  44.492  11.713   1.852
29125W        W 1440  11.664   1.906  12.020
29126W        W 1441  29.481   3.389   3.288
29127W        W 1442   9.315  31.420   0.260
29128W        W 1443  41.869   1.938  12.873
29129W        W 1444  15.286  32.473  13.839
29130W        W 1445  33.119  25.133  11.048
29131W        W 1446   1.461  13.192  11.583
29132W        W 1447  38.047  15.713   9.928
29133W        W 1448  16.735  28.983   1.838
29134W        W 1449  42.786  27.972  12.372
29135W        W 1450  41.873   1.786  14.925
29136W        W 1451  20.153  23.992  11.116
29137W        W 1452   0.857  22.577   2.286
29138W        W 1453  35.094  30.032  13.843
29139W        W 1454   6.897  38.904  13.439
29140W        W 1455  10.208  26.971   4.267
29141W        W 1456  23.530   1.830   1.904
29142W        W 1457   4.941  30.154   1.697
29143W        W 1458  37.411  39.984   4.653
29144W        W 1459  43.873   6.229  13.934
29145W        W 1460  13.635   5.740   2.343
29146W        W 1461  23.639  20.551   3.183
29147W        W 1462  18.287  17.565   3.354
29148W        W 1463  26.124  44.426   2.681
29149W        W 1464   0.462  13.173   0.336
29150W        W 1465  31.987  40.450  13.886
29151W        W 1466  39.821  23.593   9.478
29152W        W 1467  35.438   9.250  12.910
29153W        W 1468   2.960  25.137   1.381
29154W        W 1469   4.781  34.517  10.993
29155W        W 1470   1.319  18.156   2.775
29156W        W 1471   9.692  35.047   2.233
29157W        W 1472  11.191  33.931  13.978
29158W        W 1473   0.887  43.772  12.958
29159W        W 1474   9.698  33.946  12.034
29160W        W 1475  22.729  44.932  12.042
29161W        W 1476  44.817  18.281  13.889
29162W        W 1477  18.601  13.724   4.613
29163W        W 1478   2.328  41.851   0.957
29164W        W 1479   8.242  38.917  11.016
29165W        W 1480  21.752   4.269  14.883
29166W        W 1481   0.807  17.641  11.916
29167W        W 1482  41.893   8.770   4.804
29168W        W 1483  34.090   8.302  14.428
29169W        W 1484   7.397   2.328  14.347
29170W        W 1485  29.652  38.350  11.028
29171W        W 1486  44.945   5.899   3.249
29172W        W 1487  23.666  25.477   0.792
29173W        W 1488  22.738  33.429  13.001
29174W        W 1489  14.169  24.672   1.850
29175W        W 1490   9.200  19.198   1.904
29176W        W 1491  21.250  44.787  14.327
29177W        W 1492  19.665   5.428   1.823
29178W        W 1493   5.353  32.396   0.314
29179W        W 1494  29.956  33.462   2.809
29180W        W 1495  41.875  25.169  14.478
29181W        W 1496   4.255  33.507   0.958
29182W        W 1497   8.317   5.726  11.985
29183W        W 1498  37.457  32.391   1.378
29184W        W 1499  19.712  13.613   2.868
29185W        W 1500  41.331  38.361   0.421
29186W        W 1501  44.003   0.972  10.951
29187W        W 1502  10.336  14.326  12.570
29188W        W 1503  13.149  19.217  11.423
29189W        W 1504  39.058  40.454  10.889
29190W        W 1505  24.650  16.724  11.564
29191W        W 1506  40.006  36.441  13.791
29192W        W 1507  43.801  11.720   5.633
29193W        W 1508  29.535  34.039  10.902
29194W        W 1509   1.342   9.833  12.854
29195W        W 1510  20.218  26.099   0.253
29196W        W 1511  12.707  34.961  13.017
29197W        W 1512  34.507  29.990  10.942
29198W        W 1513   9.328   5.420  14.878
29199W        W 1514  27.631  31.060   3.650
29200W        W 1515  31.443  18.788  14.392
29201W        W 1516  36.448  24.018   4.339
29202W        W 1517   4.800  23.633   2.864
29203W        W 1518  36.914  12.624   2.890
29204W        W 1519  29.029  14.610   3.770
29205W        W 1520  30.121   0.266  14.864
29206W        W 1521   0.907  10.369   2.864
29207W        W 1522   9.266  32.554   0.781
29208W        W 1523   9.258  24.481  14.298
29209W        W 1524  19.617   1.281   4.341
29210W        W 1525  42.822   2.452  12.575
29211W        W 1526  38.022   6.900  10.986
29212W        W 1527  38.958  26.104  14.844
29213W        W 1528  44.970  38.474   1.886
29214W        W 1529  30.653  35.418  13.426
29215W        W 1530  38.826   1.449   2.205
29216W        W 1531  39.946  26.540   5.132
29217W        W 1532  41.923  41.409   4.206
29218W        W 1533  19.539  14.180   2.349
29219W        W 1534  32.485  16.715   2.185
29220W        W 1535  15.157  11.673   1.329
29221W        W 1536   4.715  23.227   1.287
29222W        W 1537  30.505  37.373   5.104
29223W        W 1538  16.809   9.220  10.998
29224W        W 1539  18.178  40.036  12.572
29225W        W 1540  15.091  35.537   3.310
29226W        W 1541   2.285   0.374   2.775
29227W        W 1542  14.136  23.610  10.117
29228W        W 1543  29.998   9.326   4.128
29229W        W 1544   0.366  39.337  12.438
29230W        W 1545  44.368  34.469  14.414
29231W        W 1546  25.098  38.495  14.828
29232W        W 1547  14.698  11.776   4.276
29233W        W 1548  29.483  40.470   1.695
29234W        W 1549  28.638  23.233   0.272
29235W        W 1550  31.070  14.117   4.344
29236W        W 1551  27.054  27.108  11.452
29237W        W 1552   7.740  32.994  13.890
29238W        W 1553  28.664   1.336   4.113
29239W        W 1554  39.995  32.055  13.429
29240W        W 1555  18.158   4.868  12.568
29241W        W 1556  41.907  28.506  14.363
29242W        W 1557  32.405  18.639  11.525
29243W        W 1558  41.346   0.956   0.930
29244W        W 1559  31.110   6.856  10.955
29245W        W 1560  43.765  19.601  13.045
29246W        W 1561  33.566  39.509  11.577
29247W        W 1562  26.089   3.273  13.796
29248W        W 1563  13.156  35.889  14.932
29249W        W 1564  25.640  25.025   0.309
29250W        W 1565  21.577  19.560  11.473
29251W        W 1566  33.888  40.523  14.515
29252W        W 1567  21.075   3.441  12.482
29253W        W 1568  28.438   3.301  12.502
29254W        W 1569   2.741   4.922   2.259
29255W        W 1570  24.088  43.891  11.907
29256W        W 1571  19.598  38.932  14.415
29257W        W 1572  10.831  40.381   4.838
29258W        W 1573  25.096  34.925   3.762
29259W        W 1574   3.937  44.909  14.371
29260W        W 1575  13.727  22.589  13.826
29261W        W 1576   1.297  30.014   2.264
29262W        W 1577  37.521   3.279  12.004
29263W        W 1578  19.539  13.623   0.837
29264W        W 1579  21.688  11.209   2.854
29265W        W 1580  12.223   4.868  14.833
29266W        W 1581  29.661  27.523   4.702
29267W        W 1582   2.252   6.191   2.327
29268W        W 1583   0.835  41.802  13.053
29269W        W 1584  41.999  42.347   1.418
29270W        W 1585  20.757  26.513   1.262
29271W        W 1586  42.789   8.310   3.151
29272W        W 1587  18.586  26.635  10.585
29273W        W 1588   9.370  17.662  10.438
29274W        W 1589  35.074  31.522   0.867
29275W        W 1590  20.068  40.025   0.300
29276W        W 1591   2.237   6.823  14.980
29277W        W 1592  38.851  39.008  10.410
29278W        W 1593  18.134  20.257  14.953
29279W        W 1594  18.051  24.613  11.048
29280W        W 1595  20.695  29.064  13.410
29281W        W 1596  22.210  42.460   4.289
29282W        W 1597  24.537  36.061  11.533
29283W        W 1598  21.572  12.846  12.066
29284W        W 1599  30.486  43.007  11.052
29285W        W 1600   9.758  40.942  14.450
29286W        W 1601   0.987  11.285  12.911
29287W        W 1602   9.354   0.282  10.553
29288W        W 1603   8.181  17.062   2.678
29289W        W 1604  15.263  39.497   2.204
29290W        W 1605   5.835  35.573  14.798
29291W        W 1606  23.620  15.615   0.944
29292W        W 1607   8.888   4.885  12.579
29293W        W 1608  25.046  21.237  14.979
29294W        W 1609   8.238  25.991   1.723
29295W        W 1610   8.753  24.576  13.514
29296W        W 1611  35.517  26.684   4.147
29297W        W 1612  41.892   5.799  12.066
29298W        W 1613  36.925  22.566  10.931
29299W        W 1614  19.614  25.623  12.481
29300W        W 1615  44.348  10.349   3.346
29301W        W 1616   3.860  25.208  12.461
29302W        W 1617  27.066  20.551  10.512
29303W        W 1618  11.150   3.226   4.744
29304W        W 1619  11.766  17.745  13.320
29305W        W 1620   0.409  14.642   1.259
29306W        W 1621  12.345   7.283   4.336
29307W        W 1622  15.120  32.555  12.011
29308W        W 1623   8.895  15.700  11.090
29309W        W 1624  10.183  39.463  11.398
29310W        W 1625  12.250   3.821  12.902
29311W        W 1626  14.731  31.611  14.017
29312W        W 1627  30.481   7.763   3.759
29313W        W 1628  23.185  41.841  14.873
29314W        W 1629  29.071   8.188   1.426
29315W        W 1630  16.763  17.777  12.084
29316W        W 1631   2.344  21.138  11.036
29317W        W 1632  18.074  14.095  11.101
29318W        W 1633  31.118  41.510  14.898
29319W        W 1634   0.808   9.813   9.649
29320W        W 1635  16.198   0.839  14.905
29321W        W 1636  24.138  27.056  12.498
29322W        W 1637  10.740  19.755   0.807
29323W        W 1638  44.397  28.956   0.430
29324W        W 1639  40.835  20.040  11.999
29325W        W 1640  34.515  16.174  12.564
29326W        W 1641   1.296  37.342   2.304
29327W        W 1642  40.326  38.024   3.153
29328W        W 1643  15.306   0.900   4.670
29329W        W 1644  39.975  14.739   1.885
29330W        W 1645  21.622  23.212  14.492
29331W        W 1646  26.470  39.046  14.781
29332W        W 1647  37.408  44.490   4.678
29333W        W 1648  13.168  43.876   3.279
29334W        W 1649   4.728  26.056   3.728
29335W        W 1650  24.010  29.481  10.513
29336W        W 1651   0.316   3.855  11.972
29337W        W 1652  44.768  44.878   3.786
29338W        W 1653   6.880  28.992   3.740
29339W        W 1654  29.116  36.449   1.268
29340W        W 1655   4.810  11.247  10.906
29341W        W 1656  33.926  30.071  10.890
29342W        W 1657   7.724  23.205  10.641
29343W        W 1658  16.131  11.225  11.381
29344W        W 1659   3.751   9.791   2.288
29345W        W 1660  35.912  20.273  14.953
29346W        W 1661  17.564  11.752  13.307
29347W        W 1662  41.301   8.389  13.976
29348W        W 1663  13.722  15.223   2.842
29349W        W 1664  12.295  17.696   0.254
29350W        W 1665  22.668  11.851   1.780
29351W        W 1666  18.136  24.721   0.454
29352W        W 1667  44.448  17.609  13.456
29353W        W 1668  23.198  30.987   0.749
29354W        W 1669   3.271   5.266  11.980
29355W        W 1670  15.748  37.067  14.317
29356W        W 1671  36.041   8.694  13.456
29357W        W 1672  33.574  39.949   2.237
29358W        W 1673  43.312  24.710  11.126
29359W        W 1674  18.617  12.706   4.236
29360W        W 1675   2.736   2.306   4.203
29361W        W 1676   5.240   7.313   0.244
29362W        W 1677   2.396  29.102   4.747
29363W        W 1678  33.398  44.451   2.404
29364W        W 1679   5.696  35.594  14.471
29365W        W 1680   4.388  33.042  12.889
29366W        W 1681  41.292  44.319   4.765
29367W        W 1682  24.591  21.745   4.288
29368W        W 1683   5.226  44.412  11.019
29369W        W 1684  30.516  13.711   1.869
29370W        W 1685   8.691   4.434  11.124
29371W        W 1686  39.434  20.756  11.931
29372W        W 1687  20.562  37.481   2.890
29373W        W 1688  16.084   9.682  11.083
29374W        W 1689  35.410   4.220  13.881
29375W        W 1690  20.202  42.526   4.694
29376W        W 1691  34.474   0.375   0.400
29377W        W 1692  35.001   1.310   3.183
29378W        W 1693  27.491   6.784  12.989
29379W        W 1694   8.386  41.397   2.354
29380W        W 1695  44.886  38.931   3.331
29381W        W 1696  25.129  40.990  10.956
29382W        W 1697  14.800  24.500   1.810
29383W        W 1698  39.811  19.734  13.324
29384W        W 1699  16.688   0.923   4.629
29385W        W 1700  22.060  16.115  14.436
29386W        W 1701  38.066   6.192   2.183
29387W        W 1702  23.192   4.859   2.773
29388W        W 1703  11.360  24.598   2.206
29389W        W 1704   6.851  16.235  11.510
29390W        W 1705  20.587  29.425  10.966
29391W        W 1706   0.435   4.939  10.548
29392W        W 1707   2.423  21.140  10.539
29393W        W 1708  12.723   9.388  13.315
29394W        W 1709   9.322  26.491   3.369
29395W        W 1710  41.534  31.628   0.836
29396W        W 1711  22.097  44.811  12.492
29397W        W 1712  13.186  18.772   3.835
29398W        W 1713  22.059   4.229  13.048
29399W        W 1714  18.567  38.945  14.429
29400W        W 1715  44.443  19.080   0.814
29401W        W 1716  21.746  42.836   0.937
29402W        W 1717  37.922  26.670   1.291
29403W        W 1718   9.744  12.354   3.744
29404W        W 1719  16.719  44.766   0.320
29405W        W 1720  29.664  44.502   0.956
29406W        W 1721  29.166  36.521   4.683
29407W        W 1722  18.176  31.529   3.181
29408W        W 1723  34.379  38.832  11.939
29409W        W 1724  27.079  33.548  14.931
29410W        W 1725  11.309   5.759  13.349
29411W        W 1726   1.784  34.401   5.304
29412W        W 1727  14.834   3.835   3.299
29413W        W 1728  37.056  24.641   2.817
29414W        W 1729  24.019  17.586  12.357
29415W        W 1730   6.324  40.852   2.805
29416W        W 1731   2.877  23.515   0.270
29417W        W 1732  29.026   0.325   2.211
29418W        W 1733   2.301  37.367   1.332
29419W        W 1734  25.080  36.362   4.237
29420W        W 1735  16.642  25.973   2.347
29421W        W 1736  43.338  40.532   0.375
29422W        W 1737   7.769  31.987  10.509
29423W        W 1738   1.394  10.875   3.830
29424W        W 1739  24.715  24.132  12.514
29425W        W 1740  36.364  29.994   3.678
29426W        W 1741  19.266   9.352  14.879
29427W        W 1742  13.210   1.854   1.291
29428W        W 1743  25.993   7.906   0.348
29429W        W 1744  36.084   6.908   4.683
29430W        W 1745  39.885   9.826  13.343
29431W        W 1746  15.620  28.114  11.861
29432W        W 1747  20.644   7.335  14.345
29433W        W 1748   2.818  38.076  10.949
29434W        W 1749  42.388   9.856   2.200
29435W        W 1750  31.640  34.481  12.071
29436W        W 1751  11.185  21.663  13.933
29437W        W 1752  39.321   3.888   3.154
29438W        W 1753  11.624  23.057   1.734
29439W        W 1754  21.666  18.279   0.284
29440W        W 1755   0.296   2.267   1.805
29441W        W 1756  28.050  14.760  11.882
29442W        W 1757  26.628   4.702   0.297
29443W        W 1758   8.270  36.550  10.522
29444W        W 1759  44.985  40.030  12.399
29445W        W 1760  18.189  10.294  12.541
29446W        W 1761   6.858   7.676   0.850
29447W        W 1762  16.569  14.106   0.957
29448W        W 1763  23.529  10.195   0.402
29449W        W 1764  17.767   3.446   0.785
29450W        W 1765  27.564   3.870  14.925
29451W        W 1766   6.707   3.353  10.540
29452W        W 1767  39.954  32.944  10.564
29453W        W 1768  27.499  18.736  12.414
29454W        W 1769   2.744  36.550  11.055
29455W        W 1770  15.307   2.453  13.946
29456W        W 1771  38.421   7.855   2.401
29457W        W 1772  25.127  33.599  11.394
29458W        W 1773  27.576   9.654   0.824
29459W        W 1774  40.923   4.361  11.508
29460W        W 1775  14.775   9.251  13.967
29461W        W 1776  30.013  14.607  13.879
29462W        W 1777  22.023  36.430  10.975
29463W        W 1778   3.234   1.406  13.796
29464W        W 1779  12.790   9.364  10.554
29465W        W 1780  13.125  25.208  11.876
29466W        W 1781   9.252  29.628  12.914
29467W        W 1782  29.158  30.134  10.643
29468W        W 1783  31.525   0.467   0.836
29469W        W 1784  27.588  33.489  12.401
29470W        W 1785  15.763  44.804   2.371
29471W        W 1786  13.158  20.136  13.417
29472W        W 1787  21.205  15.672  12.949
29473W        W 1788  14.830  43.451  11.376
29474W        W 1789  12.848  24.513  11.491
29475W        W 1790  42.524   9.881  11.536
29476W        W 1791   5.851  35.039   2.389
29477W        W 1792   6.766  27.160  12.027
29478W        W 1793  41.438  33.520  12.079
29479W        W 1794  38.454  34.614  14.466
29480W        W 1795   1.372  44.774   1.700
29481W        W 1796  42.933  30.947   1.885
29482W        W 1797   0.919  25.527  11.070
29483W        W 1798  14.626  13.174  10.523
29484W        W 1799  26.193  40.322  11.392
29485W        W 1800   4.356  22.549  10.985
29486W        W 1801  41.301   3.250   1.254
29487W        W 1802  30.447   7.730  12.016
29488W        W 1803  27.956  38.024   0.457
29489W        W 1804  15.666  34.112   2.293
29490W        W 1805   1.326  30.542  13.061
29491W        W 1806  29.941  40.844   4.805
29492W        W 1807   0.451  39.064   4.809
29493W        W 1808   2.468  40.376  14.949
29494W        W 1809   1.796  26.676   4.813
29495W        W 1810  25.708   2.368   0.247
29496W        W 1811  34.594  20.767  12.924
29497W        W 1812  24.191  12.815  14.996
29498W        W 1813   3.265  36.007   3.823
29499W        W 1814  12.189  17.118   9.545
29500W        W 1815   2.270  16.224   3.232
29501W        W 1816  31.063  18.251  13.904
29502W        W 1817  38.937   1.864  11.372
29503W        W 1818   1.950   4.363   0.736
29504W        W 1819  36.470  36.068  11.122
29505W        W 1820  12.667   0.279   4.721
29506W        W 1821  10.797  16.699  12.881
29507W        W 1822  39.983  13.764   0.453
29508W        W 1823  34.963  42.403   3.736
29509W        W 1824  40.988  29.664  12.072
29510W        W 1825  41.966  35.090  12.997
29511W        W 1826  35.362  31.418   0.819
29512W        W 1827  41.035  19.761   4.305
29513W        W 1828   7.794  25.496  14.813
29514W        W 1829  43.944  26.983   0.913
29515W        W 1830  26.587  21.703  10.991
29516W        W 1831  20.054  15.725  14.457
29517W        W 1832   2.409  25.078  14.440
29518W        W 1833  20.696  37.452  10.461
29519W        W 1834   7.720  11.245  13.806
29520W        W 1835  44.785  20.116   4.157
29521W        W 1836  37.382  38.369  10.460
29522W        W 1837   3.871  25.186   2.227
29523W        W 1838  14.787  37.921   0.251
29524W        W 1839  25.481  23.000   4.318
29525W        W 1840  14.651  31.136   3.660
29526W        W 1841  43.939  38.990   2.837
29527W        W 1842  36.037  20.189  13.946
29528W        W 1843  17.707   6.250  11.995
29529W        W 1844  37.866  13.656   4.832
29530W        W 1845  20.257   1.441  12.486
29531W        W 1846  35.084   8.759   1.398
29532W        W 1847  10.677  36.023  12.955
29533W        W 1848  25.628  19.725  12.930
29534W        W 1849  15.684  13.689   2.728
29535W        W 1850  37.345  36.358  13.056
29536W        W 1851  36.567   2.397  14.839
29537W        W 1852  28.152  15.257  12.394
29538W        W 1853  37.979  14.830   4.272
29539W        W 1854  17.796   2.318   1.405
29540W        W 1855  43.890   2.339  10.632
29541W        W 1856  23.647  21.149  12.049
29542W        W 1857   4.850  28.485   0.857
29543W        W 1858  21.697  23.174   0.264
29544W        W 1859  39.368  14.695   2.745
29545W        W 1860  27.994   8.301  14.818
29546W        W 1861  33.428   5.827  12.011
29547W        W 1862  23.669  34.895   0.906
29548W        W 1863  30.127  30.011  12.350
29549W        W 1864  14.121  12.163  10.444
29550W        W 1865   6.757  22.552  11.401
29551W        W 1866  19.134  13.733  12.401
29552W        W 1867  31.972  22.108   0.374
29553W        W 1868  11.141  16.764   2.816
29554W        W 1869   7.378  25.216  14.286
29555W        W 1870  34.969  25.986   4.632
29556W        W 1871  37.934  29.160  10.124
29557W        W 1872   8.286   6.208   1.265
29558W        W 1873  16.275  16.578   0.353
29559W        W 1874  24.506  32.898  12.960
29560W        W 1875  24.999  26.606   4.219
29561W        W 1876  26.676   5.912  14.375
29562W        W 1877  38.876  38.041  14.365
29563W        W 1878  21.132  12.313   0.741
29564W        W 1879  30.137   1.816  13.360
29565W        W 1880  27.943  21.727   0.441
29566W        W 1881  30.021  22.162  13.855
29567W        W 1882  16.183  35.528  13.976
29568W        W 1883  36.538  15.735  12.409
29569W        W 1884   8.876   7.668   4.661
29570W        W 1885  27.521  19.114   2.379
29571W        W 1886  26.043   3.419  12.962
29572W        W 1887   5.728  44.496  12.905
29573W        W 1888  41.336  41.348   4.185
29574W        W 1889  23.631  23.530   1.876
29575W        W 1890   5.296  35.000  13.308
29576W        W 1891  39.417  22.552   0.728
29577W        W 1892   7.235   4.877   1.226
29578W        W 1893  10.634  22.674   3.178
29579W        W 1894  21.135  25.064   4.148
29580W        W 1895  22.647  27.590  13.801
29581W        W 1896  31.935  35.438   2.230
29582W        W 1897  33.910   3.454   1.369
29583W        W 1898   9.232  27.955   1.860
29584W        W 1899   0.441  18.721  12.985
29585W        W 1900   3.872   3.916   0.806
29586W        W 1901  42.991   9.358  13.462
29587W        W 1902  24.636  11.840  10.430
29588W        W 1903  19.695  32.131   0.462
29589W        W 1904  33.394  16.640  11.086
29590W        W 1905  13.297  34.103   4.194
29591W        W 1906  38.362  11.322   2.241
29592W        W 1907   8.720  20.200  12.004
29593W        W 1908  15.119   5.726  11.109
29594W        W 1909  30.937  23.722  13.950
29595W        W 1910  31.064  31.116   1.392
29596W        W 1911  27.481  17.757   3.233
29597W        W 1912  40.810   5.403  12.409
29598W        W 1913   9.341  23.559  11.450
29599W        W 1914  39.431  34.937  11.929
29600W        W 1915  15.679  28.005   2.388
29601W        W 1916  40.019  43.907  12.487
29602W        W 1917  13.325  23.694   2.819
29603W        W 1918  17.572  27.088  14.416
29604W        W 1919  41.453  12.133   0.394
29605W        W 1920  15.169  10.874  13.473
29606W        W 1921   2.310  14.599  11.930
29607W        W 1922  19.542  32.945  14.298
29608W        W 1923  39.483  16.216   1.884
29609W        W 1924  30.117  13.335  10.524
29610W        W 1925   5.313  36.916  12.848
29611W        W 1926  22.569  12.340   3.338
29612W        W 1927  33.915  17.209   1.815
29613W        W 1928  34.428  32.440   2.815
29614W        W 1929   8.716  22.238   1.902
29615W        W 1930   3.955   8.240   2.697
29616W        W 1931  10.151  41.453  14.302
29617W        W 1932   3.949  10.821  12.950
29618W        W 1933  19.138  28.938   1.270
29619W        W 1934  42.518  34.985  12.930
29620W        W 1935  41.450  24.544   4.696
29621W        W 1936   6.316   6.879  13.388
29622W        W 1937  17.707  29.954   5.300
29623W        W 1938  20.237  32.622   3.224
29624W        W 1939   8.216   3.916   3.763
29625W        W 1940  11.629  23.645  13.397
29626W        W 1941  41.381  36.088   1.226
29627W        W 1942  35.945   2.278  11.858
29628W        W 1943   0.354   6.828  11.888
29629W        W 1944  26.138   3.218  12.024
29630W        W 1945  30.448  19.577   1.283
29631W        W 1946  29.936  40.008   3.836
29632W        W 1947  42.281  37.354  11.558
29633W        W 1948   3.221   8.395  11.999
29634W        W 1949   9.274  15.265   2.751
29635W        W 1950  21.685  43.790   4.650
29636W        W 1951  16.649  20.098  14.495
29637W        W 1952  29.488   8.708  13.411
29638W        W 1953   6.372   8.210   3.239
29639W        W 1954  19.126  25.651  12.001
29640W        W 1955  33.482  33.017  11.052
29641W        W 1956   2.960  16.728   1.297
29642W        W 1957  26.625  22.680   1.360
29643W        W 1958   8.741  27.011   1.234
29644W        W 1959  33.473   2.944  12.436
29645W        W 1960  21.145  16.716   2.220
29646W        W 1961  41.932  23.070  12.450
29647W        W 1962  16.258  44.449  10.920
29648W        W 1963   4.831  42.980   4.724
29649W        W 1964   5.326  35.601   2.890
29650W        W 1965  18.652  27.127  12.011
29651W        W 1966  43.333  30.608  12.340
29652W        W 1967  39.486  39.319  12.864
29653W        W 1968   6.210  21.675  11.487
29654W        W 1969  35.473  37.963   4.162
29655W        W 1970  31.937   3.720  14.319
29656W        W 1971  28.980  13.290   0.962
29657W        W 1972  31.589   0.275   2.771
29658W        W 1973  35.411  23.500  13.486
29659W        W 1974  43.974  26.532  11.903
29660W        W 1975   3.899  13.185  12.860
29661W        W 1976  37.922   4.869   0.267
29662W        W 1977  41.038  12.726   3.788
29663W        W 1978   7.724  27.160   2.766
29664W        W 1979   2.944   7.748  11.068
29665W        W 1980  20.669  44.351  14.924
29666W        W 1981  15.146  27.587   2.814
29667W        W 1982  16.253  43.869   3.347
29668W        W 1983  14.263   8.834  13.315
29669W        W 1984  28.556  27.629  13.051
29670W        W 1985   7.240   2.821   2.813
29671W        W 1986   9.329   0.263  13.407
29672W        W 1987  29.966   6.391  13.796
29673W        W 1988  40.544  10.877  14.919
29674W        W 1989  39.942   6.395   4.328
29675W        W 1990  34.088  14.597   3.857
29676W        W 1991   9.316   2.456  12.857
29677W        W 1992  31.981  23.648   1.721
29678W        W 1993  13.246  12.785   3.788
29679W        W 1994  42.343  11.204  14.390
29680W        W 1995  35.445  42.787   4.217
29681W        W 1996   7.777   6.728  11.967
29682W        W 1997  20.581   3.760  13.018
29683W        W 1998  21.175   3.941  13.361
29684W        W 1999  18.728   9.247  12.343
29685W        W 2000  21.251  44.503   3.364
29686W        W 2001  19.744  31.525  13.401
29687W        W 2002  23.578  27.528   2.678
29688W        W 2003  14.110  11.853   0.881
29689W        W 2004  41.492  22.549   0.447
29690W        W 2005  14.768  44.359  10.616
29691W        W 2006   6.837  32.002   3.701
29692W        W 2007  41.316   1.953  13.810
29693W        W 2008  39.955  25.635  12.364
29694W        W 2009  13.643   3.925  12.558
29695W        W 2010  28.600  21.755   4.256
29696W        W 2011   6.420  28.029  12.475
29697W        W 2012  15.697  12.191   3.707
29698W        W 2013  44.825  23.222  10.524
29699W        W 2014  44.848  26.063   4.275
29700W        W 2015  10.639  25.098  11.958
29701W        W 2016  28.627  24.501  13.026
29702W        W 2017  34.471  34.475   4.114
29703W        W 2018  12.332  24.646   4.151
29704W        W 2019  36.570  16.317   1.868
29705W        W 2020  31.011  34.047   4.184
29706W        W 2021  41.407  11.166   4.349
29707W        W 2022  12.766  21.542   0.304
29708W        W 2023  32.508   5.715   0.371
29709W        W 2024  26.136  29.596  13.001
29710W        W 2025  10.358  37.373  10.096
29711W        W 2026  21.232   9.361  13.821
29712W        W 2027  18.735   9.670  10.069
29713W        W 2028  31.583  42.019   1.733
29714W        W 2029  36.872  21.174   5.226
29715W        W 2030  14.714   1.792   0.359
29716W        W 2031  22.630  33.892   1.932
29717W        W 2032  28.053  11.264   2.316
29718W        W 2033   0.804  32.132  11.560
29719W        W 2034  12.805  29.924  10.919
29720W        W 2035   8.824   1.929  11.873
29721W        W 2036  29.925  26.093  13.377
29722W        W 2037  22.244  16.579   0.740
29723W        W 2038  16.212  27.591   5.122
29724W        W 2039  27.598  34.895   3.184
29725W        W 2040   8.881  44.982   0.274
29726W        W 2041  24.218  20.120   2.235
29727W        W 2042  13.722   0.270   0.849
29728W        W 2043  13.251  37.346   1.917
29729W        W 2044  34.929  15.239  13.000
29730W        W 2045  15.661  17.759  13.544
29731W        W 2046  43.849  22.214   3.236
29732W        W 2047  32.122  25.634  14.358
29733W        W 2048  14.204  16.626  13.923
29734W        W 2049  20.266   1.318  13.485
29735W        W 2050  21.559  43.326   2.808
29736W        W 2051   2.863  29.645  14.910
29737W        W 2052  44.966  16.754   2.792
29738W        W 2053   5.819  25.679   4.602
29739W        W 2054  11.188  30.150   4.151
29740W        W 2055  43.433  33.404   3.831
29741W        W 2056  39.988  25.112  10.515
29742W        W 2057  42.797  24.032  11.044
29743W        W 2058  14.108  35.588  12.870
29744W        W 2059  33.604  24.112   0.376
29745W        W 2060  28.614  36.511  13.441
29746W        W 2061  43.819  11.622  12.873
29747W        W 2062  30.954  24.161   4.264
29748W        W 2063  18.660  40.822   1.845
29749W        W 2064  29.921  37.056   3.705
29750W        W 2065  25.206  39.505   0.441
29751W        W 2066  36.091  18.764  10.981
29752W        W 2067   2.384   7.725  10.628
29753W        W 2068  10.248   4.400   4.221
29754W        W 2069  20.159   2.884   3.217
29755W        W 2070   0.361   3.327   5.089
29756W        W 2071  23.731  20.696  10.160
29757W        W 2072  39.344  41.407  12.454
29758W        W 2073   3.419  29.000  14.030
29759W        W 2074  10.274  34.886   0.854
29760W        W 2075  14.151  22.183   3.647
29761W        W 2076  12.814  20.102   3.682
29762W        W 2077  28.009  38.997   4.692
29763W        W 2078  40.340  20.657   3.637
29764W        W 2079  17.065  35.954  13.896
29765W        W 2080  27.646   2.779   0.479
29766W        W 2081   8.887  17.261  11.605
29767W        W 2082  23.634  36.844  13.489
29768W        W 2083  28.512   0.921   1.227
29769W        W 2084   3.857  23.178  14.289
29770W        W 2085   4.707  11.722  10.642
29771W        W 2086  13.608   8.345   2.820
29772W        W 2087  35.448  12.673  14.371
29773W        W 2088  11.806  14.677  11.584
29774W        W 2089   6.411  42.522   3.821
29775W        W 2090  12.181  42.487  14.969
29776W        W 2091  14.663  14.801  12.518
29777W        W 2092   5.342  26.494   1.426
29778W        W 2093  44.927   7.846   1.336
29779W        W 2094  31.069  26.068  12.842
29780W        W 2095  23.154  29.603  13.481
29781W        W 2096  13.127  20.159  13.794
29782W        W 2097   3.784  40.434  13.370
29783W        W 2098   3.414   4.873   1.694
29784W        W 2099  31.939  15.578   0.367
29785W        W 2100  10.856   5.711   0.475
29786W        W 2101  12.822  14.695  13.423
29787W        W 2102   2.286  21.639   0.388
29788W        W 2103  30.608   7.230  14.461
29789W        W 2104   1.844  11.812   9.565
29790W        W 2105  28.178  44.896  14.455
29791W        W 2106  36.901  26.553  14.295
29792W        W 2107  30.977  34.433   3.211
29793W        W 2108   1.390  35.458  12.035
29794W        W 2109   5.298  29.553   0.386
29795W        W 2110  21.122   2.846   1.701
29796W        W 2111  38.973   9.301   3.755
29797W        W 2112   5.202  22.214  10.434
29798W        W 2113  38.514  37.086   1.281
29799W        W 2114   8.353  44.872   4.292
29800W        W 2115  41.901  21.747  12.865
29801W        W 2116  34.970  43.794  12.841
29802W        W 2117   8.829   9.287  12.520
29803W        W 2118  37.414   3.458   4.613
29804W        W 2119   2.345  13.342  13.816
29805W        W 2120  39.823   5.900   4.619
29806W        W 2121  37.025  13.721  13.341
29807W        W 2122   9.327   4.210   2.856
29808W        W 2123   8.740   9.368   4.210
29809W        W 2124  19.606   7.780  14.851
29810W        W 2125   7.303  41.975  11.439
29811W        W 2126   2.358  19.534  10.950
29812W        W 2127  36.549  16.092  11.126
29813W        W 2128  11.782  33.908   4.222
29814W        W 2129  30.608  43.999  13.996
29815W        W 2130  34.547   3.832  14.998
29816W        W 2131  18.582  37.437   2.385
29817W        W 2132  43.781  40.507   4.689
29818W        W 2133  44.995  27.601   1.836
29819W        W 2134  43.809  24.186   4.272
29820W        W 2135  12.132  12.810   3.299
29821W        W 2136  44.896  21.556   3.695
29822W        W 2137  33.414  40.014  14.283
29823W        W 2138  38.032  16.232  13.850
29824W        W 2139  15.218  11.862  11.579
29825W        W 2140  28.643  22.560   3.311
29826W        W 2141  34.507  36.494   3.748
29827W        W 2142  34.460  42.357  12.901
29828W        W 2143   2.303  16.149  12.393
29829W        W 2144  32.949   8.838  13.483
29830W        W 2145  10.311   8.869  11.389
29831W        W 2146   2.297   7.752  10.973
29832W        W 2147  23.610  41.871   1.789
29833W        W 2148   0.457  27.029   1.263
29834W        W 2149  39.452  23.512   9.496
29835W        W 2150  22.192  38.040  14.933
29836W        W 2151  40.356  25.566  11.017
29837W        W 2152  31.907  15.816   1.830
29838W        W 2153  20.526  28.566  12.385
29839W        W 2154   6.385  15.231  10.964
29840W        W 2155  33.548  23.079   2.289
29841W        W 2156  13.172  39.947  12.399
29842W        W 2157  44.465  16.079   2.255
29843W        W 2158  17.603   1.860  14.893
29844W        W 2159  31.503  40.470  13.352
29845W        W 2160   9.688   2.416   4.231
29846W        W 2161   1.947  28.031  13.953
29847W        W 2162   5.866   1.348   4.314
29848W        W 2163  39.389  29.099  12.381
29849W        W 2164  44.351  29.586   2.290
29850W        W 2165  30.519  18.790  14.427
29851W        W 2166  22.127  31.907   4.327
29852W        W 2167  31.940  15.609   1.250
29853W        W 2168  21.052  26.046   0.447
29854W        W 2169  30.537   8.822   4.658
29855W        W 2170  34.072  19.220   3.200
29856W        W 2171   9.208  43.334  10.564
29857W        W 2172  13.222  42.785   3.741
29858W        W 2173   2.787  23.673  13.794
29859W        W 2174  42.776  17.182   4.273
29860W        W 2175  24.145  42.523  11.951
29861W        W 2176  23.661  37.844   1.215
29862W        W 2177   0.808  40.869   3.637
29863W        W 2178  14.109  33.582  11.408
29864W        W 2179  12.731  14.265   3.331
29865W        W 2180  30.154  16.100  13.950
29866W        W 2181  16.632  41.538   1.392
29867W        W 2182  41.929  14.283   2.766
29868W        W 2183  35.364  41.994   4.769
29869W        W 2184  18.635  31.062   3.707
29870W        W 2185  20.620   8.677   3.639
29871W        W 2186  41.820   4.766   4.773
29872W        W 2187  22.040  36.543   2.406
29873W        W 2188   2.226  20.092  12.036
29874W        W 2189   7.783  43.891   4.643
29875W        W 2190  33.380  17.628   0.812
29876W        W 2191  43.317  20.692  13.945
29877W        W 2192   3.922  16.131   1.400
29878W        W 2193  38.397   0.412  12.931
29879W        W 2194   9.200  20.033  13.472
29880W        W 2195  25.217  20.214   0.409
29881W        W 2196  42.971   4.907   2.721
29882W        W 2197  34.941  22.727  13.371
29883W        W 2198   6.817  38.338   0.950
29884W        W 2199  12.666  11.211  13.957
29885W        W 2200  13.137  10.729  14.841
29886W        W 2201  36.893  25.158  14.287
29887W        W 2202  17.608  37.040   4.786
29888W        W 2203  43.509   1.479   0.819
29889W        W 2204  29.090  25.986  10.572
29890W        W 2205  12.666  37.436   0.483
29891W        W 2206  12.653  19.135   1.411
29892W        W 2207  19.117  31.042   2.270
29893W        W 2208  13.285   1.903   0.953
29894W        W 2209   1.397   7.336   1.225
29895W        W 2210  20.204   0.764  13.993
29896W        W 2211  18.291  41.878  10.913
29897W        W 2212  28.570  22.225  14.888
29898W        W 2213  15.171  41.857  11.437
29899W        W 2214  20.247   6.746   0.881
29900W        W 2215  35.011   8.852  12.051
29901W        W 2216  35.884   9.281   1.223
29902W        W 2217  41.417  23.574   3.680
29903W        W 2218   2.288  16.121  13.315
29904W        W 2219   5.707  30.070   0.755
29905W        W 2220  27.009  32.561  11.399
29906W        W 2221  20.034  20.626  14.386
29907W        W 2222  16.306  12.640   3.198
29908W        W 2223  22.181  11.153  12.465
29909W        W 2224   6.850  26.009   0.728
29910W        W 2225  26.960  10.211   1.881
29911W        W 2226  26.209  37.384  13.503
29912W        W 2227  41.888  10.810   3.839
29913W        W 2228  43.269  28.030  13.352
29914W        W 2229  20.758  23.643  11.098
29915W        W 2230   0.833  11.218   1.913
29916W        W 2231  15.807  16.645   2.701
29917W        W 2232   0.910  15.766   5.134
29918W        W 2233  10.815  43.880  11.453
29919W        W 2234   9.221  19.197  13.909
29920W        W 2235   4.308  40.346   0.243
29921W        W 2236  27.027  43.449  14.448
29922W        W 2237  17.620  40.935   9.493
29923W        W 2238  30.949  27.005   3.245
29924W        W 2239  14.218  27.662  10.629
29925W        W 2240  38.045  14.244  13.531
29926W        W 2241  25.663  15.802  12.998
29927W        W 2242  14.154  16.272  12.973
29928W        W 2243  24.139  24.125   2.733
29929W        W 2244  26.043  30.573  13.062
29930W        W 2245  10.289   3.261  13.395
29931W        W 2246  16.130  21.258   1.288
29932W        W 2247  11.635  25.691   3.856
29933W        W 2248  43.836  32.590   4.820
29934W        W 2249   8.269   9.350   3.188
29935W        W 2250  23.058  40.546  13.006
29936W        W 2251   6.746  26.996  13.452
29937W        W 2252  20.146  28.006  11.540
29938W        W 2253   1.931  36.904  11.611
29939W        W 2254  23.563  43.000  12.898
29940W        W 2255   5.795  23.073  11.587
29941W        W 2256  17.304   5.204  14.768
29942W        W 2257  36.484  44.844  14.467
29943W        W 2258  24.114  34.535   1.712
29944W        W 2259  21.109   1.393  12.382
29945W        W 2260  44.998  22.626   0.902
29946W        W 2261  36.085   8.184   2.277
29947W        W 2262  35.542  15.586   0.926
29948W        W 2263  25.623  29.167  10.418
29949W        W 2264  41.312  31.573  14.459
29950W        W 2265   6.790   6.767  14.828
29951W        W 2266   0.465  31.523  12.339
29952W        W 2267  22.225  17.591  11.593
29953W        W 2268   7.892  32.600   4.812
29954W        W 2269  14.826  38.895   2.378
29955W        W 2270  30.506   8.661   3.799
29956W        W 2271  38.024  40.973  13.501
29957W        W 2272  26.135  44.876  11.549
29958W        W 2273   6.264  23.684   1.771
29959W        W 2274  19.266  33.881   1.756
29960W        W 2275   9.337  22.568   4.307
29961W        W 2276  25.199   5.260  12.874
29962W        W 2277   0.983  11.349  11.559
29963W        W 2278  10.727   3.400   3.353
29964W        W 2279  16.192  42.497  11.127
29965W        W 2280  42.455  38.063   2.266
29966W        W 2281  16.211  12.715  11.557
29967W        W 2282   1.280  14.103   1.761
29968W        W 2283  37.408  23.515   1.324
29969W        W 2284  33.090  40.036  14.886
29970W        W 2285  21.741  25.491  14.357
29971W        W 2286  30.917  24.560  14.816
29972W        W 2287  20.768  40.525  13.441
29973W        W 2288  19.730  25.203  11.453
29974W        W 2289  39.441  34.988  13.509
29975W        W 2290  15.251  42.352   2.256
29976W        W 2291  11.299   5.351   4.330
29977W        W 2292  41.314  36.474   0.271
29978W        W 2293  28.463   4.775  10.108
29979W        W 2294  21.048  13.133  13.972
29980W        W 2295  20.531  33.057  10.631
29981W        W 2296  44.994   5.295  10.560
29982W        W 2297  40.022  23.636  14.300
29983W        W 2298   2.847  31.078  12.426
29984W        W 2299  37.422   8.314  14.911
29985W        W 2300  31.587  24.227  12.414
29986W        W 2301   6.341  44.771  12.376
29987W        W 2302  42.302  39.013   1.286
29988W        W 2303   9.364   9.338  12.436
29989W        W 2304  12.219  39.035  13.496
29990W        W 2305  24.620  34.588   0.893
29991W        W 2306   5.393   4.372   2.727
29992W        W 2307  24.178   1.882  10.616
29993W        W 2308  36.895   4.773   1.306
29994W        W 2309   1.316  32.979  10.440
29995W        W 2310  21.249  10.809   3.667
29996W        W 2311  40.349  15.640   3.369
29997W        W 2312  33.105  10.309  14.935
29998W        W 2313  18.549  29.526  14.382
29999W        W 2314   4.406  33.561   0.283
30000W        W 2315  24.670  25.708   2.245
30001W        W 2316  13.690  37.567  14.425
30002W        W 2317   4.854  43.358   4.758
30003W        W 2318   2.890  29.118   3.804
30004W        W 2319  12.295  33.038  10.407
30005W        W 2320  37.570   5.328  10.527
30006W        W 2321  23.107  19.239   1.232
30007W        W 2322  10.141  37.547  10.948
30008W        W 2323  38.041   0.861   3.636
30009W        W 2324  43.314  26.049  14.457
30010W        W 2325  35.873   5.391   3.701
30011W        W 2326  18.672  10.714  14.914
30012W        W 2327  16.608  12.750   0.462
30013W        W 2328  41.843  36.537  12.541
30014W        W 2329  41.940  27.465   3.850
30015W        W 2330  37.462  30.121   1.798
30016W        W 2331  13.657  37.956   2.788
30017W        W 2332  19.613  26.208  13.919
30018W        W 2333  20.590   8.321   4.337
30019W        W 2334  43.497  17.751   3.359
30020W        W 2335   3.855  33.887   4.729
30021W        W 2336   3.279  11.708   4.728
30022W        W 2337  39.934  18.256  10.899
30023W        W 2338   9.307   3.359  13.521
30024W        W 2339   8.717  31.530   1.757
30025W        W 2340   9.286  25.504  14.973
30026W        W 2341   6.903  13.155  13.918
30027W        W 2342  22.068  12.226   0.369
30028W        W 2343  40.511  19.688  13.472
30029W        W 2344   3.256   0.255  14.860
30030W        W 2345  38.386  40.994   2.300
30031W        W 2346  22.598  23.620  12.966
30032W        W 2347  27.580  36.097  13.020
30033W        W 2348  13.329  15.809   1.907
30034W        W 2349   0.494  36.885   1.826
30035W        W 2350  32.627  19.173  12.067
30036W        W 2351   1.799  28.605  10.992
30037W        W 2352  16.152  42.998  12.569
30038W        W 2353  29.639  13.626   4.782
30039W        W 2354  33.001  14.273  10.433
30040W        W 2355  32.563  41.451   2.397
30041W        W 2356   1.965  12.125  10.988
30042W        W 2357   1.320  36.927  11.944
30043W        W 2358  18.204  40.929   0.385
30044W        W 2359  11.215   8.780  12.385
30045W        W 2360  44.292   8.892   1.225
30046W        W 2361  23.085  28.059  13.369
30047W        W 2362  18.780  26.023  11.002
30048W        W 2363   2.828   2.919   3.768
30049W        W 2364  20.539  16.160   3.678
30050W        W 2365  25.648  17.577  13.377
30051W        W 2366  16.149  28.014   4.647
30052W        W 2367  28.117  18.711  11.868
30053W        W 2368  12.857  28.554  12.393
30054W        W 2369  34.022  37.066  14.370
30055W        W 2370  10.221   1.836   3.343
30056W        W 2371  22.560  28.102   4.644
30057W        W 2372  42.479  41.475   2.399
30058W        W 2373  11.642  43.939   3.201
30059W        W 2374   6.694   8.242   4.817
30060W        W 2375  33.469   4.927   0.371
30061W        W 2376  25.192  37.000  13.053
30062W        W 2377  30.541  26.089   4.658
30063W        W 2378  24.569  35.556   1.237
30064W        W 2379   8.695  18.089   4.118
30065W        W 2380  20.059  37.417   1.261
30066W        W 2381  10.373  43.883  13.888
30067W        W 2382  40.407  25.153   9.997
30068W        W 2383  11.169  17.727  14.769
30069W        W 2384  27.617  40.054   0.836
30070W        W 2385  16.582  31.929   3.315
30071W        W 2386  35.924  32.522  14.000
30072W        W 2387   3.320  10.207  12.831
30073W        W 2388  18.549  19.631   3.850
30074W        W 2389  18.066  35.071   4.744
30075W        W 2390   4.889  42.510  11.947
30076W        W 2391  15.715   7.305   2.824
30077W        W 2392  26.703   9.855  14.905
30078W        W 2393  15.234  38.423  12.881
30079W        W 2394  16.806   4.340   4.307
30080W        W 2395  36.015  44.398   5.225
30081W        W 2396  22.516   4.215  10.931
30082W        W 2397  42.526  13.677  11.993
30083W        W 2398  24.636  26.088   2.268
30084W        W 2399  24.197   1.735  11.855
30085W        W 2400  22.112  41.891   0.752
30086W        W 2401   4.414  39.058   1.341
30087W        W 2402  16.775  31.091  10.416
30088W        W 2403   7.766  36.409  14.858
30089W        W 2404  35.941  22.184   4.801
30090W        W 2405   3.952  20.267   1.783
30091W        W 2406  25.110  13.146   0.392
30092W        W 2407   3.438  38.819   0.897
30093W        W 2408  11.699  44.881   3.223
30094W        W 2409  32.968   3.414  13.016
30095W        W 2410  34.896  11.217   2.382
30096W        W 2411  14.614  20.596   3.222
30097W        W 2412   9.349  16.706  12.842
30098W        W 2413  35.552  27.691  14.852
30099W        W 2414  35.067  22.538  14.488
30100W        W 2415  27.510  39.941   1.220
30101W        W 2416  33.559   3.393  12.360
30102W        W 2417  42.351  28.984   4.348
30103W        W 2418   8.352  41.393  13.880
30104W        W 2419  32.040  44.406  10.450
30105W        W 2420  17.185  42.296   1.332
30106W        W 2421  32.545  34.927   3.353
30107W        W 2422  35.862  21.729  10.635
30108W        W 2423   2.801  35.059   3.159
30109W        W 2424  28.127  31.905   2.709
30110W        W 2425  44.361  39.504   3.366
30111W        W 2426  10.670  17.125  13.435
30112W        W 2427  15.292   1.299   0.807
30113W        W 2428  30.084   6.290  10.484
30114W        W 2429  26.138  44.988  13.377
30115W        W 2430  28.497  32.085  14.342
30116W        W 2431  26.629  36.917  10.644
30117W        W 2432  40.375  44.345   0.929
30118W        W 2433   4.926  20.127  11.001
30119W        W 2434  22.168   4.790  12.861
30120W        W 2435   4.919  14.605  13.491
30121W        W 2436  39.413  38.452   2.297
30122W        W 2437   3.441  31.088  10.526
30123W        W 2438   8.888  43.453  13.353
30124W        W 2439  31.020  38.981  13.533
30125W        W 2440  26.189  28.630  12.502
30126W        W 2441  21.100  15.106  10.443
30127W        W 2442  40.996  43.415   2.354
30128W        W 2443  32.482  20.230  10.891
30129W        W 2444   4.253   8.391   2.309
30130W        W 2445   7.358  16.316  14.870
30131W        W 2446   0.378  44.337  13.912
30132W        W 2447  44.896  11.224  10.895
30133W        W 2448  16.243   0.486   2.735
30134W        W 2449  33.519  42.526   2.295
30135W        W 2450  20.196   5.884   1.222
30136W        W 2451   0.876  18.668  14.015
30137W        W 2452   0.447  31.637  11.095
30138W        W 2453  16.789  10.364  10.964
30139W        W 2454  22.540  22.010   0.326
30140W        W 2455  30.608  28.536  14.906
30141W        W 2456  32.406   1.903   0.728
30142W        W 2457  43.358  10.841  10.941
30143W        W 2458  40.529  17.181   4.783
30144W        W 2459   8.862  14.682  10.486
30145W        W 2460  20.609   9.739  11.429
30146W        W 2461   2.834  36.561  11.973
30147W        W 2462   6.305  42.382  10.408
30148W        W 2463   6.427  23.148  13.026
30149W        W 2464   9.643   1.402  14.352
30150W        W 2465  42.430  38.934  14.350
30151W        W 2466  16.112  32.406   1.310
30152W        W 2467  38.411  44.357   1.703
30153W        W 2468  25.533   8.685   1.726
30154W        W 2469  17.272  28.503   2.783
30155W        W 2470  32.103  14.757   0.287
30156W        W 2471  31.991  21.732   2.719
30157W        W 2472  12.847  25.703  14.426
30158W        W 2473   6.892   9.775   3.227
30159W        W 2474  22.069  35.595   4.778
30160W        W 2475  26.588   5.220   4.788
30161W        W 2476  32.088  22.051   4.648
30162W        W 2477   2.235  41.460   1.802
30163W        W 2478  29.957  15.174   1.710
30164W        W 2479   8.755  17.633   1.236
30165W        W 2480  11.220   7.313   4.214
30166W        W 2481   9.855  42.294   1.227
30167W        W 2482  19.547  21.575   4.304
30168W        W 2483   3.319   2.845  13.863
30169W        W 2484   6.754   0.493   0.740
30170W        W 2485  39.542  26.021  12.513
30171W        W 2486  10.184   3.718   0.439
30172W        W 2487   0.390  29.543   4.146
30173W        W 2488  37.867  34.912  14.024
30174W        W 2489   0.305  36.459   3.800
30175W        W 2490   2.914  22.562   3.795
30176W        W 2491   0.773  43.022  13.956
30177W        W 2492  37.425  37.900   1.268
30178W        W 2493  39.931  10.198  11.444
30179W        W 2494  28.017  21.571   3.720
30180W        W 2495  40.494  18.138  13.529
30181W        W 2496  14.669  32.963  13.460
30182W        W 2497  19.061  20.273   1.750
30183W        W 2498  14.262  12.240   4.191
30184W        W 2499  18.224  41.995  14.971
30185W        W 2500   7.337  18.229   3.671
30186W        W 2501  33.486  19.100  13.451
30187W        W 2502  41.404  29.034  13.527
30188W        W 2503  43.450  13.204  10.610
30189W        W 2504   9.302  15.230  10.492
30190W        W 2505  44.925   6.806   4.301
30191W        W 2506  17.162   9.780   4.180
30192W        W 2507   1.313  38.331   3.737
30193W        W 2508  41.381  40.020  13.543
30194W        W 2509  10.825  15.180   1.837
30195W        W 2510  33.938  31.920  10.629
30196W        W 2511  23.136  29.922   0.471
30197W        W 2512  42.930  38.466   4.330
30198W        W 2513  44.010  37.929  11.059
30199W        W 2514   7.860  28.072   4.600
30200W        W 2515   7.764  38.053   4.639
30201W        W 2516  13.231   5.356   3.782
30202W        W 2517  16.811  32.515   3.269
30203W        W 2518  39.552  38.513  12.431
30204W        W 2519  27.515   3.414   5.174
30205W        W 2520  20.043  32.926   2.712
30206W        W 2521  15.716  41.012  11.944
30207W        W 2522  23.686  36.929  13.820
30208W        W 2523  30.633  32.134  14.318
30209W        W 2524  20.081  44.848   4.633
30210W        W 2525  38.029   5.864  12.558
30211W        W 2526  25.161  22.195   4.238
30212W        W 2527  15.620  21.156   3.173
30213W        W 2528   6.823  15.181   0.331
30214W        W 2529   4.377  22.504   1.232
30215W        W 2530  11.783  19.086   2.823
30216W        W 2531  31.016  22.534  11.474
30217W        W 2532  35.974  37.039   1.797
30218W        W 2533   2.273  35.455   2.795
30219W        W 2534  38.838  21.061  10.447
30220W        W 2535   8.380  13.213   4.619
30221W        W 2536  35.871  13.209   1.346
30222W        W 2537   8.751  10.729   4.344
30223W        W 2538   9.686  32.039  12.955
30224W        W 2539  22.139  37.846  13.952
30225W        W 2540  31.114  42.030  12.853
30226W        W 2541  21.729  21.098   0.750
30227W        W 2542  13.296  29.465  12.477
30228W        W 2543   2.431   6.232   1.726
30229W        W 2544  14.666   4.838  10.958
30230W        W 2545  40.832   2.267  12.039
30231W        W 2546  16.282  25.667  11.110
30232W        W 2547  18.254  13.338   1.289
30233W        W 2548   4.894  13.803   3.837
30234W        W 2549   2.884   5.278  13.057
30235W        W 2550  11.270  18.591   4.615
30236W        W 2551  31.632  31.053  10.632
30237W        W 2552   5.270  36.463   4.194
30238W        W 2553  43.789  43.482   0.281
30239W        W 2554  36.512  37.044  11.058
30240W        W 2555  26.170  13.154   0.390
30241W        W 2556  20.673  36.038  12.047
30242W        W 2557   6.888   4.780   2.696
30243W        W 2558  39.344   9.759   0.439
30244W        W 2559   0.471  44.917   0.828
30245W        W 2560  39.889  33.964  13.002
30246W        W 2561  36.377  16.629  10.920
30247W        W 2562   3.796  27.678   1.739
30248W        W 2563  11.293  17.598   1.215
30249W        W 2564   4.409  37.887  13.528
30250W        W 2565   4.235  36.871  13.910
30251W        W 2566  32.053  20.134   2.801
30252W        W 2567   9.392  44.461   2.714
30253W        W 2568   2.293  32.023  13.991
30254W        W 2569   6.780   7.818   2.720
30255W        W 2570  18.622  19.135   3.768
30256W        W 2571  30.589  18.094  14.766
30257W        W 2572   7.273  27.043   1.383
30258W        W 2573  32.037  37.989   2.839
30259W        W 2574  11.845  16.109   2.393
30260W        W 2575   0.927  20.526  11.975
30261W        W 2576  24.703  27.452  11.883
30262W        W 2577   2.900  34.408   1.795
30263W        W 2578  38.868  35.860   1.397
30264W        W 2579   9.654  16.279   3.220
30265W        W 2580   1.382  43.303   3.718
30266W        W 2581  39.512   1.952   0.784
30267W        W 2582  15.264   9.874   2.232
30268W        W 2583  31.152   4.846  10.529
30269W        W 2584  33.935  13.693   0.286
30270W        W 2585  32.448   4.265   0.350
30271W        W 2586  43.976   7.208  13.349
30272W        W 2587  12.794  34.595   0.768
30273W        W 2588  34.421  21.637  12.002
30274W        W 2589   5.755   3.762   4.817
30275W        W 2590  14.752  11.814   0.960
30276W        W 2591  21.556  37.902   4.190
30277W        W 2592  27.194  41.890  10.483
30278W        W 2593  22.578  34.527   3.377
30279W        W 2594   6.718  24.621   3.675
30280W        W 2595   0.257  41.881  12.952
30281W        W 2596  41.875  35.031   4.798
30282W        W 2597  20.711  29.026  13.813
30283W        W 2598  13.337  17.590  12.911
30284W        W 2599  33.934  14.327   1.843
30285W        W 2600  38.042   0.851  11.437
30286W        W 2601  23.988   9.179  14.989
30287W        W 2602  30.021  25.196  14.812
30288W        W 2603   4.423  33.608  12.909
30289W        W 2604  27.551  10.754  12.092
30290W        W 2605  34.541  22.032  11.120
30291W        W 2606   0.879  25.173   3.866
30292W        W 2607  28.623  11.784  10.559
30293W        W 2608   7.859  34.988   4.759
30294W        W 2609   6.833  24.686   2.668
30295W        W 2610  20.243   0.853   3.245
30296W        W 2611  24.586  30.521   0.926
30297W        W 2612  23.582   9.875  12.928
30298W        W 2613  28.465   6.822  10.012
30299W        W 2614   0.885  26.575   0.799
30300W        W 2615  24.687  34.535   1.254
30301W        W 2616  31.551  30.920   4.329
30302W        W 2617  31.420  41.978  12.922
30303W        W 2618   0.781  32.948  11.876
30304W        W 2619  28.065   7.708  10.454
30305W        W 2620   4.784  30.123  13.465
30306W        W 2621   7.391  16.193  10.568
30307W        W 2622  29.634  35.993  14.401
30308W        W 2623  24.129   7.796   2.834
30309W        W 2624  22.508  35.869   0.746
30310W        W 2625  20.265  16.602  10.567
30311W        W 2626  40.880  24.206   1.747
30312W        W 2627  21.645  29.110  10.536
30313W        W 2628   5.298   9.752  12.424
30314W        W 2629   6.804  25.520  11.898
30315W        W 2630   3.452   3.854   0.448
30316W        W 2631   2.813  23.674   4.169
30317W        W 2632   2.389  14.763   1.905
30318W        W 2633  25.051  41.009  10.562
30319W        W 2634   9.168  15.741  10.911
30320W        W 2635  39.532   6.383   2.682
30321W        W 2636  18.114   3.829   4.712
30322W        W 2637   5.777   9.784  14.914
30323W        W 2638   6.297  42.481  12.010
30324W        W 2639  11.295   8.249   4.681
30325W        W 2640   2.743   4.744  13.018
30326W        W 2641  42.813  14.817  12.409
30327W        W 2642   6.299   1.737   1.855
30328W        W 2643  22.702   1.288   0.348
30329W        W 2644  26.149   6.362   3.379
30330W        W 2645   8.663  17.199   4.280
30331W        W 2646  29.601   7.186  11.506
30332W        W 2647  37.858  15.215  11.497
30333W        W 2648  17.101  38.850   0.829
30334W        W 2649  11.276  27.564  12.367
30335W        W 2650  23.053   2.856  10.922
30336W        W 2651   2.916  27.076  11.534
30337W        W 2652  19.053   9.272   3.355
30338W        W 2653   8.258   9.761  14.902
30339W        W 2654  12.797   7.771  12.087
30340W        W 2655  23.680   3.223   1.359
30341W        W 2656   2.436  13.718   2.749
30342W        W 2657  36.050  43.834   4.746
30343W        W 2658   6.401   4.731   4.600
30344W        W 2659  15.786  10.821  10.510
30345W        W 2660  41.947   6.398  14.357
30346W        W 2661  19.584  11.147   4.822
30347W        W 2662  44.329  44.406   0.826
30348W        W 2663   1.285  38.346   4.676
30349W        W 2664   5.848  32.394   2.362
30350W        W 2665  44.402  22.022  14.490
30351W        W 2666  32.393  24.722   4.127
30352W        W 2667  38.842  14.280  11.119
30353W        W 2668  23.230  39.335  13.878
30354W        W 2669  40.440  25.025   1.362
30355W        W 2670  35.470  43.932   4.771
30356W        W 2671  13.229  22.019   0.442
30357W        W 2672  29.592   1.395  11.424
30358W        W 2673  25.170  18.603  12.426
30359W        W 2674  41.858  16.724  14.904
30360W        W 2675   0.315  40.322  14.887
30361W        W 2676  14.770  43.812  14.814
30362W        W 2677   5.780  27.014   2.745
30363W        W 2678  31.999  40.834   2.714
30364W        W 2679  27.007  35.882  11.453
30365W        W 2680  26.660  18.209   3.200
30366W        W 2681  17.748   5.269  13.325
30367W        W 2682  18.134  13.253   2.872
30368W        W 2683  32.128  33.111   3.727
30369W        W 2684   4.718  25.109  12.835
30370W        W 2685   2.941   7.702   0.737
30371W        W 2686  26.587  41.403   4.694
30372W        W 2687  38.075  27.562  14.926
30373W        W 2688  22.735  40.308   4.176
30374W        W 2689   1.751  22.733   4.692
30375W        W 2690   5.235  34.428   3.359
30376W        W 2691   8.721   9.250  11.021
30377W        W 2692   7.895  11.668   1.392
30378W        W 2693   9.764  16.120   1.393
30379W        W 2694   4.394  22.006  13.473
30380W        W 2695  39.508  38.502  11.087
30381W        W 2696  28.050  16.301  11.966
30382W        W 2697  33.013   7.174  13.540
30383W        W 2698  31.136  32.972   4.623
30384W        W 2699  24.224  28.606  14.825
30385W        W 2700   4.369  13.806   0.394
30386W        W 2701  18.776  23.100   3.764
30387W        W 2702  22.736  41.519   3.287
30388W        W 2703   2.255  27.493  11.500
30389W        W 2704  28.604  44.428   3.798
30390W        W 2705   7.412  15.670  10.574
30391W        W 2706  26.680   8.874  12.368
30392W        W 2707  28.538  20.680   0.925
30393W        W 2708  12.832  39.509  14.329
30394W        W 2709  27.528   9.756   3.773
30395W        W 2710  44.358  25.193   1.893
30396W        W 2711   1.787  31.445  14.467
30397W        W 2712  34.589  34.947   4.692
30398W        W 2713  42.997  11.321   3.200
30399W        W 2714   9.715   2.317  11.975
30400W        W 2715  38.361  11.182   1.288
30401W        W 2716  39.845  42.524  13.909
30402W        W 2717  33.088  11.172  10.584
30403W        W 2718  25.078  33.461   3.192
30404W        W 2719  28.573   5.868   3.271
30405W        W 2720  27.614  12.728  11.437
30406W        W 2721   6.359  20.200   2.713
30407W        W 2722   9.802  29.457   1.248
30408W        W 2723   6.333  42.873  10.960
30409W        W 2724   5.302  31.645  11.613
30410W        W 2725  22.591  36.058   1.802
30411W        W 2726  40.431  26.665   1.753
30412W        W 2727  29.513  43.860  13.506
30413W        W 2728  12.206   7.361   4.666
30414W        W 2729  37.876  11.793  14.769
30415W        W 2730  13.159  31.911  10.435
30416W        W 2731  36.572  37.004   3.849
30417W        W 2732   3.258  19.694   2.327
30418W        W 2733  39.838   8.292   0.887
30419W        W 2734  16.807  31.418  14.307
30420W        W 2735  33.621   1.479   4.288
30421W        W 2736  30.918  35.062  10.448
30422W        W 2737  10.653   5.857  13.861
30423W        W 2738  18.571  20.066  13.018
30424W        W 2739  36.523  30.025   0.837
30425W        W 2740  38.471   3.452  11.924
30426W        W 2741   5.826  18.761  10.889
30427W        W 2742  19.759  10.684  10.977
30428W        W 2743  11.685  24.516   2.194
30429W        W 2744  10.262   9.864   1.901
30430W        W 2745  28.119  31.524   3.735
30431W        W 2746   9.362  34.117   1.316
30432W        W 2747   0.351  13.234  12.978
30433W        W 2748   6.406  20.154   4.637
30434W        W 2749  30.106  23.647   1.357
30435W        W 2750  42.887  21.115  12.567
30436W        W 2751  30.022  26.561  13.813
30437W        W 2752   2.282  15.683   5.106
30438W        W 2753   0.306  33.584   5.276
30439W        W 2754  34.103  16.609  10.529
30440W        W 2755  36.544   1.373  14.771
30441W        W 2756  34.515  41.787   0.889
30442W        W 2757   2.948   4.774  14.906
30443W        W 2758  27.037  39.368  12.039
30444W        W 2759  30.948  33.091  13.902
30445W        W 2760  34.441  34.874  13.011
30446W        W 2761  28.964  16.647   4.350
30447W        W 2762  23.006  10.776  13.963
30448W        W 2763  37.882   7.740  14.782
30449W        W 2764  32.958  26.954   3.850
30450W        W 2765   8.382  32.588   4.668
30451W        W 2766  11.202  12.788   2.691
30452W        W 2767  31.022   8.280   1.220
30453W        W 2768  10.736  26.480   2.308
30454W        W 2769  41.313  17.255  13.910
30455W        W 2770  43.868  38.448  13.063
30456W        W 2771  42.444   4.745  14.362
30457W        W 2772  24.190  15.184   3.776
30458W        W 2773  26.464  34.106   9.942
30459W        W 2774  32.958  25.494  10.889
30460W        W 2775  24.640  21.611   0.785
30461W        W 2776  31.045  15.659   4.613
30462W        W 2777   4.365  36.084   2.740
30463W        W 2778  20.124  20.723   3.857
30464W        W 2779  12.171  10.713   1.442
30465W        W 2780  30.146  28.452  12.922
30466W        W 2781  18.739  29.108   2.210
30467W        W 2782  27.032  11.151   0.877
30468W        W 2783  17.746  43.325   4.299
30469W        W 2784  43.832  32.555   3.283
30470W        W 2785  11.755  14.125  14.432
30471W        W 2786  17.223  38.861  10.463
30472W        W 2787  22.568  43.411   3.149
30473W        W 2788   7.779  17.298  10.988
30474W        W 2789  11.242   3.369  10.430
30475W        W 2790  37.046  29.552   1.220
30476W        W 2791  40.985   3.843  13.537
30477W        W 2792  27.082   6.250  13.017
30478W        W 2793  24.016   9.753  14.897
30479W        W 2794  20.628   4.939  14.286
30480W        W 2795  35.039  27.182  13.063
30481W        W 2796  14.118  42.459  12.493
30482W        W 2797  31.513  14.278  12.519
30483W        W 2798  16.603  12.700   1.787
30484W        W 2799  11.183  32.089   3.669
30485W        W 2800  23.681   2.926   2.383
30486W        W 2801  33.519  37.450   1.858
30487W        W 2802  43.337  30.573  10.536
30488W        W 2803  23.988  34.597  14.778
30489W        W 2804  16.158  25.026   5.266
30490W        W 2805   7.417  41.398  12.052
30491W        W 2806  38.358  13.168  11.079
30492W        W 2807  31.518  28.174  12.042
30493W        W 2808  10.764  10.322  12.999
30494W        W 2809   3.840  12.643  12.895
30495W        W 2810   0.899   3.432   2.348
30496W        W 2811  11.766  23.207  11.107
30497W        W 2812   6.775  16.645   0.749
30498W        W 2813  33.023   9.187   0.839
30499W        W 2814   5.419  19.779  14.349
30500W        W 2815   0.422   0.869   4.672
30501W        W 2816  19.741  25.037  14.484
30502W        W 2817  11.754  30.509  13.341
30503W        W 2818  25.050  13.351   2.801
30504W        W 2819  44.845  12.649   0.327
30505W        W 2820  16.096  36.510   2.303
30506W        W 2821  39.003  24.541   1.266
30507W        W 2822  44.335  42.348  12.341
30508W        W 2823  23.700   9.856  13.961
30509W        W 2824   4.699  22.518   0.867
30510W        W 2825  10.372  43.455  12.341
30511W        W 2826  15.754  35.563   2.741
30512W        W 2827  19.698  12.156   2.868
30513W        W 2828   4.835  38.026  13.931
30514W        W 2829  31.003  29.124  14.507
30515W        W 2830  19.535  17.780   2.666
30516W        W 2831  43.504   9.691  11.983
30517W        W 2832  31.913   4.761   3.831
30518W        W 2833  15.295  28.178   2.229
30519W        W 2834  14.175  31.448  13.822
30520W        W 2835  41.819  28.529   1.262
30521W        W 2836  40.500  36.999  12.056
30522W        W 2837   6.245  35.432   0.253
30523W        W 2838   1.771   8.398  10.950
30524W        W 2839  12.760  27.573   1.786
30525W        W 2840  16.085  42.907  14.761
30526W        W 2841   8.796  31.636  12.945
30527W        W 2842   2.928  31.451  14.356
30528W        W 2843   2.399  24.066   3.171
30529W        W 2844   1.264   1.866  14.929
30530W        W 2845  36.456  32.089   1.875
30531W        W 2846  28.961   4.360   5.160
30532W        W 2847  15.691  25.614   1.723
30533W        W 2848  18.560  19.559   5.106
30534W        W 2849  24.638  39.892   1.935
30535W        W 2850  15.735  15.619  10.083
30536W        W 2851  18.726   8.885  14.783
30537W        W 2852  10.855  17.673  12.539
30538W        W 2853  36.982  23.027   1.347
30539W        W 2854   8.313  30.068  13.924
30540W        W 2855  21.655  42.526  13.362
30541W        W 2856  29.647  25.208   4.350
30542W        W 2857  21.106  23.120   2.698
30543W        W 2858  38.568  23.142  12.026
30544W        W 2859   7.417  31.506  14.957
30545W        W 2860   9.179  28.586  12.968
30546W        W 2861   0.760  16.632  11.878
30547W        W 2862  21.157  32.894  14.462
30548W        W 2863  40.809  26.004   1.716
30549W        W 2864   3.845  41.906   2.867
30550W        W 2865  44.997  13.773   0.934
30551W        W 2866  27.135  28.982   3.766
30552W        W 2867  25.484  19.627   5.286
30553W        W 2868  31.906   5.220  14.903
30554W        W 2869  16.097  37.951   3.223
30555W        W 2870  20.730  20.074  13.866
30556W        W 2871   0.337  25.603   4.736
30557W        W 2872   6.220  23.519  10.084
30558W        W 2873  38.552  14.332  11.069
30559W        W 2874  22.557   5.825   0.933
30560W        W 2875  26.513  42.797  11.400
30561W        W 2876  32.006  21.150  11.018
30562W        W 2877  24.481  20.751  10.620
30563W        W 2878  18.711  22.565   3.719
30564W        W 2879  11.192   7.776  11.043
30565W        W 2880  24.215  18.294   2.725
30566W        W 2881  35.402  19.619   4.171
30567W        W 2882  30.139  38.442  10.996
30568W        W 2883  22.197  23.521  11.021
30569W        W 2884  26.701  32.622  12.082
30570W        W 2885   6.732  36.998  12.081
30571W        W 2886  19.746   0.404  10.129
30572W        W 2887  23.516  21.050   0.293
30573W        W 2888  24.542  27.161   2.227
30574W        W 2889   4.921   1.965   1.334
30575W        W 2890  34.877  23.535   0.347
30576W        W 2891  43.334   3.278   1.350
30577W        W 2892  14.098  33.883   2.686
30578W        W 2893  42.331   1.309  13.338
30579W        W 2894  13.815  34.084   4.163
30580W        W 2895  28.581   5.694   4.116
30581W        W 2896  40.519  34.084   1.392
30582W        W 2897   9.267   6.774  14.416
30583W        W 2898  31.029   3.296   4.644
30584W        W 2899  41.315  41.373   0.917
30585W        W 2900  13.646  25.526  11.895
30586W        W 2901  37.550  26.976  14.433
30587W        W 2902  43.826   1.429   2.872
30588W        W 2903  15.625   5.885  12.947
30589W        W 2904  11.146  12.346   0.462
30590W        W 2905  26.107   3.440  12.513
30591W        W 2906  26.156  11.785   4.237
30592W        W 2907  39.973  24.666   2.393
30593W        W 2908  33.548  22.565   4.341
30594W        W 2909   8.855   2.307  11.063
30595W        W 2910   6.410  24.004   2.333
30596W        W 2911  13.319  10.815  12.067
30597W        W 2912  38.531  27.640   3.686
30598W        W 2913  44.802   8.350  13.361
30599W        W 2914   8.810  37.005   1.777
30600W        W 2915  43.451  40.371  12.069
30601W        W 2916  41.933   0.314   0.302
30602W        W 2917  40.031  35.985  10.999
30603W        W 2918   8.373  16.731   0.467
30604W        W 2919  21.019  34.118  14.472
30605W        W 2920  15.255   7.885   2.293
30606W        W 2921  10.244  30.135  12.420
30607W        W 2922  10.724  36.007   4.829
30608W        W 2923  29.479  22.689  10.951
30609W        W 2924  20.093  19.226   0.280
30610W        W 2925  37.566  43.378   1.366
30611W        W 2926  26.961   1.417   0.281
30612W        W 2927  15.088  29.496   5.618
30613W        W 2928  37.946  17.755   2.684
30614W        W 2929   7.841  20.555   3.245
30615W        W 2930  37.533   1.429   0.932
30616W        W 2931  31.451  44.259  14.498
30617W        W 2932  34.473  26.170  13.973
30618W        W 2933  35.440  15.772  13.958
30619W        W 2934  35.947  21.067  11.417
30620W        W 2935  24.647  11.251   0.867
30621W        W 2936  22.161  12.811  11.523
30622W        W 2937  35.957   7.890   2.871
30623W        W 2938   6.724   1.306   1.925
30624W        W 2939  36.530  23.031   4.817
30625W        W 2940   7.412  42.861   2.212
30626W        W 2941   3.931   5.884  14.953
30627W        W 2942   2.391  11.285  11.056
30628W        W 2943   4.315  35.397  11.404
30629W        W 2944  26.202  12.302   1.696
30630W        W 2945   7.695   6.871   3.256
30631W        W 2946  11.300   6.742   1.932
30632W        W 2947   6.894  26.043  13.838
30633W        W 2948  18.640   8.238   1.277
30634W        W 2949  12.810  32.536  10.963
30635W        W 2950  36.478  39.014  11.059
30636W        W 2951  18.140   0.487  14.944
30637W        W 2952   1.292  23.586  12.063
30638W        W 2953   2.314  24.108  10.642
30639W        W 2954  19.043   2.398   1.765
30640W        W 2955  32.960  28.024   1.229
30641W        W 2956  12.144  27.478  14.983
30642W        W 2957  12.754   5.324   4.195
30643W        W 2958   9.875   2.885   3.790
30644W        W 2959  20.252  39.005  10.636
30645W        W 2960  13.749  29.488   1.771
30646W        W 2961  41.523  15.809   2.187
30647W        W 2962  11.305   3.779   4.166
30648W        W 2963   3.793  13.752  13.453
30649W        W 2964  31.466  37.579  13.968
30650W        W 2965  30.120  41.792  12.397
30651W        W 2966  42.932  38.847   0.962
30652W        W 2967   1.841   9.149  12.966
30653W        W 2968  18.294  10.748   1.874
30654W        W 2969  36.391  38.840   4.173
30655W        W 2970  37.374  44.447  13.526
30656W        W 2971  23.213  35.086  11.528
30657W        W 2972  25.002  33.495   0.475
30658W        W 2973  19.064  37.045  14.004
30659W        W 2974  18.618  24.669  14.937
30660W        W 2975  21.192  17.196   4.293
30661W        W 2976   6.191   8.842   4.655
30662W        W 2977  22.120  14.803   1.372
30663W        W 2978   7.216  13.140  13.518
30664W        W 2979   0.372   8.337  12.534
30665W        W 2980   3.355  29.618   2.775
30666W        W 2981  19.571  24.001  12.494
30667W        W 2982  27.503  17.591   1.748
30668W        W 2983  33.406  16.644   0.954
30669W        W 2984   3.308  33.122  14.408
30670W        W 2985  22.675   6.384  11.459
30671W        W 2986   6.681  28.119   1.782
30672W        W 2987  13.730  22.163   0.406
30673W        W 2988   9.318  18.051  11.867
30674W        W 2989  21.673  37.354   1.931
30675W        W 2990  11.157  35.017  11.108
30676W        W 2991  35.391  40.005  14.865
30677W        W 2992  26.601   3.460  11.917
30678W        W 2993   5.398  28.487   1.224
30679W        W 2994   8.337  28.152  11.078
30680W        W 2995  18.707  30.060  13.878
30681W        W 2996   6.355  34.413  12.867
30682W        W 2997  24.579  12.617   4.332
30683W        W 2998  11.302  43.863  12.522
30684W        W 2999  15.770  13.615  10.896
30685W        W 3000  34.966   9.737  11.082
30686W        W 3001  12.257  39.052   2.228
30687W        W 3002  38.327  19.196  12.867
30688W        W 3003  10.787  25.993  12.469
30689W        W 3004  30.946   3.725   4.150
30690W        W 3005   4.286  14.173   4.695
30691W        W 3006  35.486  24.069   3.152
30692W        W 3007  26.065  33.485   9.955
30693W        W 3008   8.888  35.068   3.642
30694W        W 3009  23.222  41.995  14.318
30695W        W 3010  41.385  42.982   3.290
30696W        W 3011  33.929  42.032  13.977
30697W        W 3012   3.859  24.639  12.886
30698W        W 3013  32.977  36.038   2.805
30699W        W 3014  33.034  27.977  13.375
30700W        W 3015  34.874  36.040   0.809
30701W        W 3016  13.344  31.946  14.385
30702W        W 3017  38.487  13.258  13.006
30703W        W 3018  25.989  27.613   2.792
30704W        W 3019  15.124   2.288   3.347
30705W        W 3020  39.013  24.003   1.328
30706W        W 3021  34.932   5.285  12.869
30707W        W 3022  35.510  40.871  11.860
30708W        W 3023  22.203   2.763   4.775
30709W        W 3024   2.273  34.472   3.684
30710W        W 3025  40.905  28.503  14.276
30711W        W 3026  42.280   5.825   4.171
30712W        W 3027  23.113   5.290  14.324
30713W        W 3028  43.765  39.320  13.309
30714W        W 3029  12.194  33.559   0.458
30715W        W 3030   1.781   6.322   0.345
30716W        W 3031  32.929   2.386  10.470
30717W        W 3032  34.451  35.501   2.720
30718W        W 3033  38.435  38.825   3.162
30719W        W 3034   3.805  40.928  10.902
30720W        W 3035   5.378  37.081  11.887
30721W        W 3036  35.992   1.406  14.944
30722W        W 3037   8.288  28.149  12.931
30723W        W 3038   3.726  30.910  11.442
30724W        W 3039  25.544   1.945  14.445
30725W        W 3040  19.757   2.808  13.928
30726W        W 3041  39.860   7.708  13.504
30727W        W 3042  18.179   9.683   0.899
30728W        W 3043  43.273  26.082  12.998
30729W        W 3044   6.918  44.779  13.527
30730W        W 3045  30.909  44.441  14.889
30731W        W 3046  35.585  30.052   1.450
30732W        W 3047  16.580  13.729   1.838
30733W        W 3048  17.639  28.994  14.453
30734W        W 3049  35.039  42.813   0.789
30735W        W 3050  11.272   2.867  10.520
30736W        W 3051  12.617  10.319   9.928
30737W        W 3052  24.721   9.756   3.691
30738W        W 3053  25.542   7.871   4.203
30739W        W 3054  24.662  35.427  12.908
30740W        W 3055  33.617   7.911   4.261
30741W        W 3056  44.831  29.000   3.653
30742W        W 3057  33.089   7.364  13.060
30743W        W 3058  15.136  35.582   0.951
30744W        W 3059   5.932  25.653   1.239
30745W        W 3060  10.175  32.073   4.669
30746W        W 3061  28.055  10.771  14.828
30747W        W 3062  27.995  33.911   2.903
30748W        W 3063  42.896  23.987  14.779
30749W        W 3064  16.086  40.930   4.672
30750W        W 3065   3.365  39.954  13.847
30751W        W 3066  40.968   0.752   4.305
30752W        W 3067  11.653  40.427   5.188
30753W        W 3068  10.163  23.121   3.273
30754W        W 3069  18.566  35.476   2.761
30755W        W 3070  29.476   1.343   1.846
30756W        W 3071  24.714  14.268   4.717
30757W        W 3072  39.528  21.195  14.503
30758W        W 3073  10.325   3.712   2.258
30759W        W 3074  12.355   7.276   1.411
30760W        W 3075  34.039  13.131   1.932
30761W        W 3076  42.335  33.411  13.795
30762W        W 3077   2.286  37.026  14.490
30763W        W 3078  28.613  37.393  11.987
30764W        W 3079  23.096  23.205   4.723
30765W        W 3080  21.568  11.336   3.632
30766W        W 3081  23.624  37.457  11.505
30767W        W 3082  11.849  36.420   2.393
30768W        W 3083  33.040   9.757   1.823
30769W        W 3084  10.685  19.728  11.022
30770W        W 3085  12.767   1.757   0.322
30771W        W 3086  21.075   4.822   3.824
30772W        W 3087  33.550   8.774  13.794
30773W        W 3088  14.207  21.264  12.986
30774W        W 3089  35.029  14.284   3.643
30775W        W 3090  24.588   4.883   0.419
30776W        W 3091  25.512  29.476   2.274
30777W        W 3092  43.800   5.728  14.889
30778W        W 3093  40.342  23.548   0.320
30779W        W 3094  41.322   0.363   1.415
30780W        W 3095  16.275  22.235   4.252
30781W        W 3096  39.432  17.212  10.022
30782W        W 3097  35.363  38.387   2.833
30783W        W 3098  20.100  26.687  13.905
30784W        W 3099  32.421   4.342  14.950
30785W        W 3100  21.121  35.985  11.965
30786W        W 3101   4.814  16.197  12.921
30787W        W 3102  11.838   6.188  14.513
30788W        W 3103  23.562  16.686  10.425
30789W        W 3104  33.392  43.353  14.014
30790W        W 3105  37.085  30.637  10.984
30791W        W 3106  43.442  16.247   2.724
30792W        W 3107   1.944  24.127   1.923
30793W        W 3108  15.707   3.412  10.515
30794W        W 3109   0.304   7.374  13.516
30795W        W 3110  11.137  28.655   3.181
30796W        W 3111  15.634  11.706   3.821
30797W        W 3112  24.712  14.595   4.342
30798W        W 3113  19.094  31.582  11.467
30799W        W 3114  35.945  25.981   3.641
30800W        W 3115  11.677   6.312   0.378
30801W        W 3116  19.151  33.623  14.017
30802W        W 3117  37.080   4.707  13.443
30803W        W 3118  33.070  41.404  10.495
30804W        W 3119   4.853  10.275  11.566
30805W        W 3120  27.607  11.743  13.342
30806W        W 3121  44.454  21.674   0.242
30807W        W 3122  35.896   5.239  12.939
30808W        W 3123  29.494   1.888  13.859
30809W        W 3124  36.011  30.920   2.419
30810W        W 3125  37.850  11.639   2.785
30811W        W 3126  38.945  31.116   2.240
30812W        W 3127  37.407  36.923  14.385
30813W        W 3128   8.209  33.622   4.191
30814W        W 3129  39.960  28.040  13.547
30815W        W 3130   9.790  41.845   1.813
30816W        W 3131   7.217  12.331  10.922
30817W        W 3132  11.855  18.186   0.826
30818W        W 3133  21.608  26.030   0.729
30819W        W 3134   1.310   3.743  12.873
30820W        W 3135  20.607  31.464   2.406
30821W        W 3136   1.451  20.210   3.778
30822W        W 3137  43.295   3.925   2.410
30823W        W 3138  14.207  28.662   1.904
30824W        W 3139  20.681  11.143   1.285
30825W        W 3140   2.790   4.412  11.071
30826W        W 3141   7.331  23.512  11.046
30827W        W 3142  16.570  11.749   4.167
30828W        W 3143  13.269  21.609  12.530
30829W        W 3144  11.679  10.349   1.333
30830W        W 3145  43.810  15.141  11.875
30831W        W 3146  22.641  34.491   4.138
30832W        W 3147  17.212   0.838  13.912
30833W        W 3148  31.943  22.610  14.364
30834W        W 3149  12.219  17.161   1.785
30835W        W 3150   1.912   9.773  10.996
30836W        W 3151  33.010  22.671  14.413
30837W        W 3152  37.430  24.225   0.738
30838W        W 3153  26.598  43.475  12.932
30839W        W 3154  30.431  33.443   1.379
30840W        W 3155  21.706  10.751   2.234
30841W        W 3156  32.092  23.128   0.780
30842W        W 3157  39.899  37.082   4.311
30843W        W 3158  29.980  25.014   2.767
30844W        W 3159  42.284   9.152   3.152
30845W        W 3160  30.917  31.039   2.789
30846W        W 3161  15.789  39.929  11.934
30847W        W 3162  26.992   6.879   9.943
30848W        W 3163  34.380  31.942  12.517
30849W        W 3164   7.910   6.760   4.705
30850W        W 3165  24.625  23.125   4.159
30851W        W 3166  28.646   0.981   2.794
30852W        W 3167  15.760  31.019  13.842
30853W        W 3168  43.498   2.248  13.317
30854W        W 3169  43.815  20.548   0.814
30855W        W 3170  26.195  26.178  12.433
30856W        W 3171  28.065   6.807  10.127
30857W        W 3172  24.130   4.760   4.328
30858W        W 3173  23.627  15.687  14.856
30859W        W 3174  44.861  30.046  11.492
30860W        W 3175  22.097  39.492   2.888
30861W        W 3176  44.320  25.623  12.980
30862W        W 3177  28.084  24.153  14.477
30863W        W 3178  33.386  13.320  12.472
30864W        W 3179   6.736  43.792   0.917
30865W        W 3180  24.720  14.811  14.386
30866W        W 3181  22.534  31.913  13.804
30867W        W 3182  13.685  37.019   0.872
30868W        W 3183   7.687  14.769   2.670
30869W        W 3184   7.178  41.828  10.603
30870W        W 3185  33.909  36.933   1.894
30871W        W 3186  26.562  40.911  12.940
30872W        W 3187  16.780  44.314   4.735
30873W        W 3188  11.656  43.006   4.291
30874W        W 3189  29.566  30.594   3.301
30875W        W 3190   2.902  13.728  10.481
30876W        W 3191   2.740   0.427   2.354
30877W        W 3192  19.640  41.442   2.702
30878W        W 3193   0.352  30.018   1.335
30879W        W 3194   8.379  44.479   1.307
30880W        W 3195  11.828   3.944   0.740
30881W        W 3196   2.367  31.505   0.942
30882W        W 3197  37.915  29.921  14.497
30883W        W 3198  24.200  35.579   3.366
30884W        W 3199  29.165  35.375   4.215
30885W        W 3200   9.720  14.631  12.962
30886W        W 3201  29.485   6.182   4.153
30887W        W 3202  16.311  16.805  14.004
30888W        W 3203   9.342  29.032  12.824
30889W        W 3204   3.452  25.592  11.419
30890W        W 3205  13.641  21.535   4.244
30891W        W 3206   8.818  40.011  11.967
30892W        W 3207  24.104  23.227  14.763
30893W        W 3208  36.025   7.328   4.305
30894W        W 3209  20.074  15.608  13.863
30895W        W 3210  21.248   9.712   4.348
30896W        W 3211  31.646  29.514  14.799
30897W        W 3212  41.858  25.995  11.950
30898W        W 3213  26.688  37.423   3.842
30899W        W 3214   2.723   5.825  10.466
30900W        W 3215  13.322  30.154   4.214
30901W        W 3216  42.444  10.761   2.894
30902W        W 3217   6.208   9.853  13.509
30903W        W 3218  35.495  21.039   0.805
30904W        W 3219  18.790   6.280   3.824
30905W        W 3220   7.884  43.950   0.747
30906W        W 3221  36.410  26.112  14.317
30907W        W 3222  33.023  19.590  14.326
30908W        W 3223  43.274  27.530   2.209
30909W        W 3224  10.358   8.286  14.958
30910W        W 3225   6.401  14.608   1.827
30911W        W 3226  40.333  37.048   2.747
30912W        W 3227  11.173   4.739   4.183
30913W        W 3228  36.087   9.649   2.208
30914W        W 3229   0.285  42.417   4.213
30915W        W 3230  38.821  26.113   9.975
30916W        W 3231  18.206  25.489  10.441
30917W        W 3232  15.322  27.610  13.307
30918W        W 3233  36.396  20.235   0.807
30919W        W 3234   1.856   3.726   2.882
30920W        W 3235  31.153   1.819  12.014
30921W        W 3236  26.671  39.346  14.487
30922W        W 3237  29.015  20.585   2.416
30923W        W 3238  23.133   3.862  14.024
30924W        W 3239  34.963  32.111  12.547
30925W        W 3240  25.573   5.706   0.302
30926W        W 3241  18.200  18.583  13.507
30927W        W 3242  42.983  28.617  10.892
30928W        W 3243  23.594  31.486   3.354
30929W        W 3244   8.233   5.354   0.338
30930W        W 3245  33.511  19.720   3.862
30931W        W 3246   0.811   4.294  13.430
30932W        W 3247  18.248  25.976  14.760
30933W        W 3248  32.922  19.601   3.818
30934W        W 3249  12.158  11.163   3.815
30935W        W 3250  12.821   2.297   1.707
30936W        W 3251  17.564  11.173   0.284
30937W        W 3252  22.056  10.854  12.082
30938W        W 3253  31.529  27.990  13.445
30939W        W 3254   2.853  17.095   2.760
30940W        W 3255   5.801  41.334   1.368
30941W        W 3256  13.184  15.626  11.952
30942W        W 3257  34.053   1.880   4.333
30943W        W 3258  43.904   5.860  11.944
30944W        W 3259  17.229  13.834   4.747
30945W        W 3260  36.478  20.585   1.758
30946W        W 3261  37.476   0.447   1.732
30947W        W 3262  22.066  41.980  13.970
30948W        W 3263   7.329   8.802  12.829
30949W        W 3264   7.857  27.448   3.646
30950W        W 3265  11.843   6.913   1.753
30951W        W 3266   7.714  12.804  12.940
30952W        W 3267  11.700  23.068   0.800
30953W        W 3268  23.500   8.901   4.831
30954W        W 3269  22.568  18.551  12.870
30955W        W 3270  12.175  25.555   1.279
30956W        W 3271  10.378  42.391  13.457
30957W        W 3272  30.551  27.581  11.004
30958W        W 3273   9.768  20.136  10.561
30959W        W 3274  28.100   4.745  13.899
30960W        W 3275  34.416  27.178  14.349
30961W        W 3276  15.789  27.970  13.010
30962W        W 3277  12.623  38.399  14.771
30963W        W 3278  37.947   7.199   2.752
30964W        W 3279  42.896   6.227  12.490
30965W        W 3280  18.697   0.260  12.405
30966W        W 3281  25.500  31.077  10.984
30967W        W 3282  35.562  25.711   0.269
30968W        W 3283  25.031   8.869   2.742
30969W        W 3284   6.839  22.071   2.316
30970W        W 3285  43.428  14.791  10.555
30971W        W 3286  14.742  42.339  13.455
30972W        W 3287  17.195  40.467  12.929
30973W        W 3288  12.619  15.111   1.385
30974W        W 3289  44.429  35.367  12.494
30975W        W 3290   0.312  19.040  13.407
30976W        W 3291  15.138  19.569  12.895
30977W        W 3292  32.446  22.236  11.019
30978W        W 3293  38.962  41.492   1.303
30979W        W 3294   3.711  10.320  14.501
30980W        W 3295  19.113   6.895  12.094
30981W        W 3296  25.482  42.913   5.113
30982W        W 3297   6.342  15.283   2.764
30983W        W 3298  28.563  25.583   4.340
30984W        W 3299  31.595  39.912  13.893
30985W        W 3300  12.214  21.566  13.418
30986W        W 3301  39.897  32.579   2.722
30987W        W 3302  44.372  13.780   2.290
30988W        W 3303  33.895  29.539  10.581
30989W        W 3304  30.077  24.153  12.952
30990W        W 3305  25.004  20.674  11.119
30991W        W 3306  15.223  13.260   0.425
30992W        W 3307   4.715  14.737  12.052
30993W        W 3308  29.034  38.886   3.762
30994W        W 3309  34.417  43.899   2.895
30995W        W 3310  24.635  14.723  11.567
30996W        W 3311  27.139   7.318   5.088
30997W        W 3312  40.829   8.228  13.894
30998W        W 3313  10.794  28.042  11.025
30999W        W 3314   9.171   4.285  13.809
31000W        W 3315   2.374  32.401  13.917
31001W        W 3316  27.993  25.606   4.737
31002W        W 3317  42.504  11.225  12.549
31003W        W 3318  10.280   0.306   0.849
31004W        W 3319  18.620  32.944   1.856
31005W        W 3320  27.150   4.212  10.447
31006W        W 3321  19.728   9.801   3.150
31007W        W 3322  30.487  41.486  11.897
31008W        W 3323   6.693  23.045   1.867
31009W        W 3324  35.595  16.619   1.261
31010W        W 3325  27.654   6.739  13.311
31011W        W 3326  35.500  24.540  11.455
31012W        W 3327  18.590  20.576   4.636
31013W        W 3328   3.739  23.224  11.033
31014W        W 3329   6.765  36.504  14.864
31015W        W 3330  17.556  18.754  14.299
31016W        W 3331  39.911   4.312  14.324
31017W        W 3332   8.820   3.288  14.955
31018W        W 3333  34.450  13.749  13.944
31019W        W 3334  43.940  41.341  12.476
31020W        W 3335   7.173  34.525  13.345
31021W        W 3336  19.704  26.047   3.857
31022W        W 3337   8.355  33.448   2.699
31023W        W 3338   8.689  26.584  11.014
31024W        W 3339  18.233  22.580  11.386
31025W        W 3340  16.166   3.719   4.155
31026W        W 3341  41.827  28.970  11.002
31027W        W 3342  31.522  38.945   4.192
31028W        W 3343   0.967  24.524  12.373
31029W        W 3344   8.785  26.685  14.941
31030W        W 3345  14.106   1.416  10.608
31031W        W 3346  24.536  38.997   3.812
31032W        W 3347  34.002  21.634  11.091
31033W        W 3348   9.226  28.570  13.870
31034W        W 3349  25.176  43.871  14.478
31035W        W 3350  40.440   0.953  11.123
31036W        W 3351  44.320  43.828  13.428
31037W        W 3352  20.165  39.860   4.177
31038W        W 3353   0.851   1.327   2.410
31039W        W 3354  19.270  37.917   0.362
31040W        W 3355  20.595  26.569   1.762
31041W        W 3356  27.682  12.741   1.769
31042W        W 3357  21.234  17.276   3.851
31043W        W 3358   5.775  17.779   4.203
31044W        W 3359  38.524  26.677   0.908
31045W        W 3360  13.816  21.750   3.848
31046W        W 3361  25.175   2.228   3.649
31047W        W 3362  42.505  40.315   2.385
31048W        W 3363   4.876   8.663   1.320
31049W        W 3364   0.815  20.691   4.243
31050W        W 3365  19.268  24.131  10.525
31051W        W 3366  23.624  21.515  11.415
31052W        W 3367  26.534  33.002   3.384
31053W        W 3368   6.227  40.837   0.882
31054W        W 3369  20.154  38.901   2.812
31055W        W 3370  26.165   3.369   3.786
31056W        W 3371  16.104  14.705  11.420
31057W        W 3372  40.374   5.889   2.836
31058W        W 3373   4.220  23.571   2.378
31059W        W 3374  33.550  29.542   3.659
31060W        W 3375  35.515  41.982   1.845
31061W        W 3376  33.428  25.215   0.250
31062W        W 3377  12.251   5.832  10.457
31063W        W 3378  17.635   9.266   2.786
31064W        W 3379   5.407  24.986   3.859
31065W        W 3380  37.942   3.359  14.295
31066W        W 3381   1.916   7.902  13.330
31067W        W 3382  11.796  34.888   2.329
31068W        W 3383  17.162  19.183  10.932
31069W        W 3384  44.437   5.845   0.849
31070W        W 3385  30.116   9.298   2.870
31071W        W 3386  30.913  19.199   4.714
31072W        W 3387   2.325  11.753  11.528
31073W        W 3388   0.827  30.604  12.507
31074W        W 3389  22.680  25.495  11.908
31075W        W 3390  29.510  28.071  12.569
31076W        W 3391  15.283  27.990   1.727
31077W        W 3392  30.579  33.402  14.470
31078W        W 3393   3.434  13.695   1.414
31079W        W 3394  38.026  36.426  14.954
31080W        W 3395   7.404  10.845  14.496
31081W        W 3396  21.155  15.800   0.336
31082W        W 3397   7.261   5.904   0.298
31083W        W 3398  12.190  42.341   0.830
31084W        W 3399  25.685  24.037  14.306
31085W        W 3400  20.524   3.242  12.886
31086W        W 3401  32.485  10.337   4.287
31087W        W 3402   6.422  26.967   3.835
31088W        W 3403  41.376  13.315   0.275
31089W        W 3404   3.245  17.101  12.351
31090W        W 3405  30.450  21.524  14.868
31091W        W 3406  44.893  15.793   5.219
31092W        W 3407  16.162  42.333   0.922
31093W        W 3408  40.842  28.122  14.815
31094W        W 3409  25.649  10.297   0.892
31095W        W 3410  30.944  34.011  12.080
31096W        W 3411  34.059   4.868  11.492
31097W        W 3412  37.996  20.705  12.341
31098W        W 3413  15.262  25.102  14.832
31099W        W 3414  31.904  19.653   1.788
31100W        W 3415   7.311  15.734  13.797
31101W        W 3416  41.386   3.274   0.430
31102W        W 3417  19.652  16.115  12.458
31103W        W 3418  28.012  16.732   4.265
31104W        W 3419  30.463  20.227  14.863
31105W        W 3420   2.417  14.131  11.908
31106W        W 3421  40.374  23.203   4.176
31107W        W 3422  43.340   8.897  11.406
31108W        W 3423  21.571  24.159  12.379
31109W        W 3424  24.501  40.438   2.253
31110W        W 3425  42.792   5.256   0.790
31111W        W 3426  34.457  33.886   1.884
31112W        W 3427  32.102  31.049   3.342
31113W        W 3428  32.451  44.353  12.392
31114W        W 3429  21.020   3.883   3.148
31115W        W 3430  36.482  33.924  13.003
31116W        W 3431   6.271  36.084  10.529
31117W        W 3432   9.669   9.722  11.933
31118W        W 3433   0.443  10.822  10.074
31119W        W 3434  22.031  37.014   4.673
31120W        W 3435  35.856  22.676   0.370
31121W        W 3436   1.765   7.226   3.288
31122W        W 3437  41.507  31.132   0.754
31123W        W 3438  29.652  26.646   4.823
31124W        W 3439  17.299  41.841   3.270
31125W        W 3440  18.550   4.349  14.456
31126W        W 3441  28.541  26.593   4.770
31127W        W 3442  30.926   7.393  10.019
31128W        W 3443  23.642  30.909   1.769
31129W        W 3444  22.550  38.075  11.553
31130W        W 3445  25.979  19.245   3.306
31131W        W 3446  24.086  31.461   4.714
31132W        W 3447  19.210  26.068   4.144
31133W        W 3448  23.521  13.154  13.931
31134W        W 3449  38.901  37.046  13.498
31135W        W 3450  29.175  26.558  12.489
31136W        W 3451  31.426  31.434   3.786
31137W        W 3452  41.501   8.674   2.866
31138W        W 3453  35.546  15.644   3.738
31139W        W 3454  28.070  11.171  13.410
31140W        W 3455  40.986  44.358   1.293
31141W        W 3456  36.513  15.301   2.781
31142W        W 3457  40.859   9.388   0.398
31143W        W 3458  28.508  11.697   1.922
31144W        W 3459  17.655   2.344   1.823
31145W        W 3460   3.375  18.230   2.299
31146W        W 3461  32.433  38.044  12.404
31147W        W 3462  28.012  39.418  10.506
31148W        W 3463  29.627  15.112  12.408
31149W        W 3464  17.560  16.694   4.207
31150W        W 3465  21.194  40.344   0.912
31151W        W 3466  16.121  27.611   4.302
31152W        W 3467   5.281  19.680  14.924
31153W        W 3468  15.174   3.313   4.808
31154W        W 3469  25.688  27.680  11.914
31155W        W 3470  17.562  22.677   4.821
31156W        W 3471  34.106   7.401   0.320
31157W        W 3472  39.009  33.499   3.703
31158W        W 3473  27.532  30.499  11.569
31159W        W 3474  12.620  36.498  13.972
31160W        W 3475  42.855   1.829   0.452
31161W        W 3476   3.877  30.155   2.363
31162W        W 3477  37.971   5.721  13.543
31163W        W 3478  35.396  33.948  10.570
31164W        W 3479   1.394  23.675   1.442
31165W        W 3480  27.644  15.630  12.018
31166W        W 3481   5.907  35.401   2.786
31167W        W 3482  37.961  12.284   4.214
31168W        W 3483  17.774  25.576  12.512
31169W        W 3484  21.131  23.600   1.917
31170W        W 3485  35.360  42.290  12.570
31171W        W 3486  30.161  22.552  11.521
31172W        W 3487  19.618  39.437  12.531
31173W        W 3488  35.557   7.857  10.493
31174W        W 3489  18.554  31.469  14.285
31175W        W 3490   9.677  37.044   2.258
31176W        W 3491  15.187  22.738  11.956
31177W        W 3492   0.354  13.728  10.927
31178W        W 3493  30.143  39.932   1.866
31179W        W 3494  17.574  40.456   3.202
31180W        W 3495   6.808  44.469  10.903
31181W        W 3496  13.135   6.254   3.383
31182W        W 3497   9.249  33.036  13.044
31183W        W 3498  18.585  18.208  10.114
31184W        W 3499  16.120  42.376   2.842
31185W        W 3500  43.322   5.248   0.741
31186W        W 3501  30.610  21.057   1.737
31187W        W 3502  37.499  14.801   2.261
31188W        W 3503   6.857   0.321   4.648
31189W        W 3504  26.020  22.050  13.514
31190W        W 3505   4.408  17.771   3.209
31191W        W 3506  27.164   2.283   4.822
31192W        W 3507  10.361  19.181  14.503
31193W        W 3508  43.920  20.174  13.980
31194W        W 3509  19.108  44.765  13.001
31195W        W 3510  18.612  31.568  14.847
31196W        W 3511  30.932  37.951  10.900
31197W        W 3512  10.750  22.009  11.462
31198W        W 3513  31.950  41.791  13.980
31199W        W 3514  34.904   1.337   4.125
31200W        W 3515  32.934  36.494  10.902
31201W        W 3516  24.569   2.787   2.352
31202W        W 3517  18.184  15.715  10.905
31203W        W 3518   0.923  24.100  12.072
31204W        W 3519   4.708  12.652   3.355
31205W        W 3520  22.207  17.270   2.275
31206W        W 3521  18.591  21.100  10.611
31207W        W 3522   0.323  22.626   4.267
31208W        W 3523  31.576  25.202   1.335
31209W        W 3524   1.742   6.742   1.893
31210W        W 3525  25.655  11.303  12.941
31211W        W 3526  35.100  44.849  11.487
31212W        W 3527  33.965  14.726  10.581
31213W        W 3528  35.990  11.253   2.760
31214W        W 3529  31.948   0.288  13.976
31215W        W 3530   5.756  43.849   0.386
31216W        W 3531  21.150  27.588   0.929
31217W        W 3532   0.821  21.186  14.836
31218W        W 3533   8.879   6.677  11.059
31219W        W 3534  15.283   7.285   1.344
31220W        W 3535  29.068  43.980   4.301
31221W        W 3536  24.147   0.293  11.379
31222W        W 3537  13.813  30.077  10.481
31223W        W 3538  11.324   1.429  13.437
31224W        W 3539  24.147  41.922  12.070
31225W        W 3540  42.312  28.181  11.467
31226W        W 3541   8.793   8.343   2.371
31227W        W 3542  42.521  28.673   3.352
31228W        W 3543  29.121  16.680   3.798
31229W        W 3544   4.205  13.255   1.328
31230W        W 3545  42.483  37.452  12.051
31231W        W 3546  32.435  33.926   2.306
31232W        W 3547  17.293  19.167  10.416
31233W        W 3548  43.837  10.659  14.032
31234W        W 3549  33.552  15.132   4.816
31235W        W 3550  42.835  36.974  13.049
31236W        W 3551  18.605  14.703  14.855
31237W        W 3552  11.162  30.608  12.352
31238W        W 3553  14.164   3.360   0.307
31239W        W 3554  31.402  22.559  13.390
31240W        W 3555  34.065   6.917   1.255
31241W        W 3556  25.182  34.562   4.290
31242W        W 3557  29.465  33.907  13.874
31243W        W 3558  41.040  27.088   3.377
31244W        W 3559  35.395  30.590   3.755
31245W        W 3560  38.986   6.293  11.526
31246W        W 3561  25.121  15.217  12.407
31247W        W 3562  31.918  17.782  13.544
31248W        W 3563  30.134  40.363  10.935
31249W        W 3564  44.765  13.777   4.142
31250W        W 3565  29.493  12.793  10.980
31251W        W 3566  14.603  20.160  12.541
31252W        W 3567  43.453  37.500   1.411
31253W        W 3568   0.832  27.475  13.797
31254W        W 3569  42.395  34.611  10.900
31255W        W 3570   3.238  22.103  10.917
31256W        W 3571  17.201  11.264  10.586
31257W        W 3572  27.551  15.734   1.871
31258W        W 3573  37.535  41.379   4.787
31259W        W 3574  42.899  34.567   0.739
31260W        W 3575  24.103  28.045   5.289
31261W        W 3576  21.240   7.678  11.917
31262W        W 3577   3.813  17.781   1.415
31263W        W 3578  14.662  22.623  11.081
31264W        W 3579  38.826   1.830   3.679
31265W        W 3580  32.963  33.896  12.523
31266W        W 3581   6.753   5.797   0.902
31267W        W 3582   1.409  11.676   0.384
31268W        W 3583  14.118  17.191   0.483
31269W        W 3584  34.446   7.792  14.823
31270W        W 3585  23.531  14.156  10.901
31271W        W 3586  30.915  19.111   1.853
31272W        W 3587  28.092   6.833  10.926
31273W        W 3588   9.286  12.813   5.321
31274W        W 3589  19.084   0.925   4.669
31275W        W 3590  27.001  23.088  10.993
31276W        W 3591  11.241  27.462   1.758
31277W        W 3592  37.461  17.596   1.913
31278W        W 3593  30.149  24.559  13.370
31279W        W 3594   8.333   5.227  11.915
31280W        W 3595  10.634   6.323   1.817
31281W        W 3596  11.782   1.453  12.912
31282W        W 3597  15.808   5.746  10.602
31283W        W 3598  13.274  32.581   0.298
31284W        W 3599   7.698  28.149  12.929
31285W        W 3600  32.396   5.919  14.959
31286W        W 3601  39.920  12.345   0.252
31287W        W 3602  17.221   5.765   4.830
31288W        W 3603  42.493   2.416  12.415
31289W        W 3604   4.922   3.710  13.384
31290W        W 3605   3.720   5.856   0.280
31291W        W 3606   8.353   1.396   4.644
31292W        W 3607   5.225  12.697  12.362
31293W        W 3608  15.229  34.599  12.824
31294W        W 3609  16.216  37.532   2.823
31295W        W 3610  39.478  32.106   1.715
31296W        W 3611  42.924  37.509  13.887
31297W        W 3612  12.690  13.205  14.502
31298W        W 3613  13.251  21.166  10.439
31299W        W 3614   5.314  41.489   1.872
31300W        W 3615  44.502  42.381   1.827
31301W        W 3616   6.255  43.512  14.772
31302W        W 3617  11.366  11.771  13.057
31303W        W 3618  23.655  18.157   3.700
31304W        W 3619  17.212  11.791  11.029
31305W        W 3620  24.491  14.340  13.870
31306W        W 3621  22.019  24.495  13.019
31307W        W 3622  35.070  43.017   5.207
31308W        W 3623  23.110  21.682  10.416
31309W        W 3624  25.547   8.258   3.250
31310W        W 3625  41.836   2.260  10.532
31311W        W 3626  30.617  26.093   0.267
31312W        W 3627   8.738  23.704   2.364
31313W        W 3628   8.277  31.469   4.795
31314W        W 3629   8.864   4.261  12.955
31315W        W 3630   6.317  25.125   3.350
31316W        W 3631  38.056  10.170  10.046
31317W        W 3632  18.789  38.524   4.277
31318W        W 3633   5.313  12.120  14.302
31319W        W 3634  43.319  28.948   1.860
31320W        W 3635  32.005  13.201  14.291
31321W        W 3636  11.820  10.326  14.873
31322W        W 3637  40.047  29.426  10.609
31323W        W 3638   8.802  20.675   9.950
31324W        W 3639   6.806   8.165  14.028
31325W        W 3640   1.423  36.408  13.059
31326W        W 3641  28.108  43.806   4.295
31327W        W 3642  22.641  28.644  11.496
31328W        W 3643  14.798   2.447  10.624
31329W        W 3644  20.119  41.915   2.309
31330W        W 3645  39.941  43.892   2.264
31331W        W 3646  40.386  17.087   3.650
31332W        W 3647   5.700  14.294   5.263
31333W        W 3648  43.953   5.837   4.667
31334W        W 3649   7.834  26.067  10.435
31335W        W 3650   7.177  21.190   3.339
31336W        W 3651   4.882  11.666  14.835
31337W        W 3652  16.303  25.571  13.828
31338W        W 3653   6.349  23.063   4.788
31339W        W 3654  14.830   1.262   4.237
31340W        W 3655  19.692   8.237   9.603
31341W        W 3656  17.102   4.800  10.494
31342W        W 3657  13.741  23.119   2.665
31343W        W 3658   3.754  17.171  11.517
31344W        W 3659  30.614  18.274  12.540
31345W        W 3660   1.434  13.129   4.221
31346W        W 3661   7.358  31.032   3.860
31347W        W 3662   9.738  33.978   4.758
31348W        W 3663  23.146  16.239   3.726
31349W        W 3664  12.822  24.676  10.542
31350W        W 3665   8.365  26.096   2.278
31351W        W 3666  34.038   6.204   3.226
31352W        W 3667   4.775  23.092  11.089
31353W        W 3668  15.581  12.228  12.831
31354W        W 3669  20.182   9.832  10.478
31355W        W 3670   0.444  18.780  14.985
31356W        W 3671  22.665  10.654  12.401
31357W        W 3672  15.609  41.974  11.389
31358W        W 3673   6.414  12.837  10.606
31359W        W 3674   8.874  37.847  14.504
31360W        W 3675  36.097  34.499  12.360
31361W        W 3676  10.666  17.157  10.405
31362W        W 3677  42.464   4.778  11.448
31363W        W 3678   8.329  22.538   4.307
31364W        W 3679  44.000  40.894   4.769
31365W        W 3680  33.982  43.952  11.044
31366W        W 3681  42.898   0.812   3.737
31367W        W 3682  38.351  10.757  11.932
31368W        W 3683  36.463  37.549  13.476
31369W        W 3684  32.986   5.360   1.223
31370W        W 3685  36.843  36.469  12.475
31371W        W 3686  37.456  12.126   1.934
31372W        W 3687   5.795  13.223   2.763
31373W        W 3688   9.302  18.050  10.135
31374W        W 3689  29.646  27.538  14.887
31375W        W 3690   2.334  10.260   2.897
31376W        W 3691  42.356   7.695  11.610
31377W        W 3692  33.421  14.758   2.800
31378W        W 3693  41.969  44.846   1.341
31379W        W 3694   2.466   8.830  10.010
31380W        W 3695   5.207  37.926  11.923
31381W        W 3696   6.190  37.575  13.032
31382W        W 3697  31.459  11.132   1.837
31383W        W 3698  16.617  36.942   4.301
31384W        W 3699   9.694  17.724  14.912
31385W        W 3700  30.127   2.884  14.768
31386W        W 3701   9.854   8.346  10.598
31387W        W 3702  44.006  40.000   3.386
31388W        W 3703  42.415   0.847   2.399
31389W        W 3704  18.791  22.616  13.495
31390W        W 3705   4.385  32.940   1.820
31391W        W 3706   6.202   1.435   0.396
31392W        W 3707  36.505  22.626  11.422
31393W        W 3708  32.465  21.573   2.332
31394W        W 3709  25.565  36.048   3.151
31395W        W 3710  31.041   7.845   3.777
31396W        W 3711  22.729  34.919  11.863
31397W        W 3712  40.508  32.573   1.429
31398W        W 3713  21.087  19.204  12.510
31399W        W 3714  24.705  36.924   4.608
31400W        W 3715   7.910  25.536  13.830
31401W        W 3716  33.615   6.269   1.400
31402W        W 3717   0.842  13.773  14.850
31403W        W 3718  40.965   6.396   2.818
31404W        W 3719  17.745  34.945   1.782
31405W        W 3720  43.774  14.122  11.428
31406W        W 3721  41.401  10.212  14.338
31407W        W 3722  24.479  36.560   3.228
31408W        W 3723   7.321  36.875   3.181
31409W        W 3724  28.582   6.856   4.228
31410W        W 3725  14.736   0.959   9.929
31411W        W 3726   8.785  33.490   1.862
31412W        W 3727  37.857  14.687  11.103
31413W        W 3728   1.951  10.762  10.051
31414W        W 3729  27.575  21.672  14.919
31415W        W 3730  15.639   4.767  12.919
31416W        W 3731  19.110  14.650  14.307
31417W        W 3732   6.342  28.632  13.537
31418W        W 3733  22.146  41.835   3.755
31419W        W 3734  30.493  13.318   4.686
31420W        W 3735   0.930  25.565   1.355
31421W        W 3736  22.669  29.451  11.922
31422W        W 3737  16.230  22.105   3.200
31423W        W 3738   8.892  16.647  14.336
31424W        W 3739  18.287  29.139   4.148
31425W        W 3740  30.456   7.231   0.866
31426W        W 3741  28.997   4.374   4.168
31427W        W 3742  28.009  35.464   3.186
31428W        W 3743  26.669  14.289  10.958
31429W        W 3744  39.049  37.482   0.460
31430W        W 3745  31.120   4.444  14.293
31431W        W 3746  31.592   0.256   2.396
31432W        W 3747   6.304  10.773  14.837
31433W        W 3748  14.710  19.054  13.320
31434W        W 3749  27.131  38.967   1.786
31435W        W 3750  17.777  29.057   3.861
31436W        W 3751  17.711   1.378  10.532
31437W        W 3752   8.313  40.013  14.440
31438W        W 3753  21.247  12.721   4.600
31439W        W 3754  17.084   9.391  11.595
31440W        W 3755   8.173  22.079  10.962
31441W        W 3756   2.945  20.680   3.852
31442W        W 3757  25.200  15.623  11.613
31443W        W 3758   3.736  41.011   1.220
31444W        W 3759  23.991  31.988  11.558
31445W        W 3760  23.074  32.041   3.730
31446W        W 3761  12.273  11.826   1.803
31447W        W 3762  16.254  13.696   0.727
31448W        W 3763   7.211  30.479   1.740
31449W        W 3764   1.963  31.010   4.621
31450W        W 3765  19.720  31.069   3.693
31451W        W 3766  31.034   9.185  11.123
31452W        W 3767  12.854  37.472  10.581
31453W        W 3768   8.343   0.756  11.582
31454W        W 3769  31.978  11.753   4.646
31455W        W 3770   9.169  36.954  14.384
31456W        W 3771  12.337  24.110   3.772
31457W        W 3772   5.913  33.118  14.376
31458W        W 3773   8.300  16.729  12.955
31459W        W 3774   1.919  17.596   4.655
31460W        W 3775  38.532  38.047  11.413
31461W        W 3776   4.378  43.490  11.941
31462W        W 3777  18.222  42.918   2.790
31463W        W 3778  29.564  42.358  13.522
31464W        W 3779   7.861  36.982   4.665
31465W        W 3780  25.491  28.138  12.001
31466W        W 3781  19.623  28.507   1.731
31467W        W 3782  11.727  35.541   2.884
31468W        W 3783   7.862  16.631   2.677
31469W        W 3784  35.915  10.640  13.499
31470W        W 3785  19.250  37.902   2.820
31471W        W 3786  37.024  34.488   0.856
31472W        W 3787   6.888  43.002  12.078
31473W        W 3788  11.210  23.996   1.220
31474W        W 3789   9.658  21.240   3.713
31475W        W 3790  24.077  27.123   1.784
31476W        W 3791  44.414  38.881  11.371
31477W        W 3792  15.321  40.368   4.796
31478W        W 3793  22.099   9.235   1.865
31479W        W 3794  13.757  25.565   0.915
31480W        W 3795  40.806  40.460   4.610
31481W        W 3796  44.949  27.596   2.805
31482W        W 3797  39.522  11.747   4.798
31483W        W 3798  44.474  29.120   3.267
31484W        W 3799  44.373  23.501   0.916
31485W        W 3800  19.105   7.797  13.540
31486W        W 3801  36.592   5.775  12.838
31487W        W 3802  19.046  41.984   0.773
31488W        W 3803   0.274   5.314   0.470
31489W        W 3804  39.536  36.998   0.476
31490W        W 3805  27.143  16.203  14.998
31491W        W 3806   7.255  22.656  12.952
31492W        W 3807  12.648  35.470  14.797
31493W        W 3808  38.823  13.135   0.862
31494W        W 3809  13.170   9.164   1.793
31495W        W 3810  41.916  10.839   4.799
31496W        W 3811  43.936  28.487   3.247
31497W        W 3812   4.374  21.020   2.278
31498W        W 3813  32.397  23.171  12.859
31499W        W 3814  22.511  26.642   3.751
31500W        W 3815   8.226  43.487   0.822
31501W        W 3816  10.247  22.006   3.721
31502W        W 3817  33.458  25.094  14.781
31503W        W 3818  15.293   7.297  13.048
31504W        W 3819  43.319  34.528   2.391
31505W        W 3820  38.052  35.872  11.103
31506W        W 3821  37.984  16.166   3.295
31507W        W 3822  19.207   6.248  11.519
31508W        W 3823  28.071   7.703   4.163
31509W        W 3824  25.169  15.283  10.612
31510W        W 3825  35.914  34.501   3.712
31511W        W 3826  13.838  34.528  14.010
31512W        W 3827  25.157   0.824   4.677
31513W        W 3828   3.441  15.302   2.855
31514W        W 3829  39.923  26.546   3.679
31515W        W 3830   5.790  33.398   3.811
31516W        W 3831  30.539  18.769   5.176
31517W        W 3832   2.802  25.156   0.890
31518W        W 3833   8.703  26.584   1.440
31519W        W 3834  38.478  10.713   2.337
31520W        W 3835   9.829  41.876   4.211
31521W        W 3836  16.074  10.172  13.899
31522W        W 3837   6.320  36.892  11.486
31523W        W 3838  12.821   2.781   0.867
31524W        W 3839  32.014   3.765  11.934
31525W        W 3840  39.830  14.654   2.689
31526W        W 3841  17.600  33.094   2.770
31527W        W 3842  29.628  20.650   4.722
31528W        W 3843   1.932  12.824  14.845
31529W        W 3844  20.055  13.132  10.530
31530W        W 3845  39.344  24.209   0.809
31531W        W 3846  41.867  29.149   1.278
31532W        W 3847  25.014  25.974  14.023
31533W        W 3848  12.736  39.957   3.194
31534W        W 3849  13.619   8.879  10.947
31535W        W 3850  33.388  25.704  13.352
31536W        W 3851   2.728  29.657  11.383
31537W        W 3852  25.650  34.894  12.076
31538W        W 3853  32.462  17.607   4.195
31539W        W 3854  40.997  31.125  14.940
31540W        W 3855  31.590   7.243   2.200
31541W        W 3856   7.743  27.493   3.381
31542W        W 3857  14.687  16.618   2.403
31543W        W 3858  13.316  30.550  11.521
31544W        W 3859  16.179  28.479  13.064
31545W        W 3860  14.330  36.553  13.534
31546W        W 3861  31.011   7.180   4.167
31547W        W 3862  32.101  23.709   1.235
31548W        W 3863  28.018  21.244  14.985
31549W        W 3864  38.821  25.614   9.922
31550W        W 3865   7.223   8.173  14.369
31551W        W 3866  16.674  21.653  12.064
31552W        W 3867  13.697  38.562   4.692
31553W        W 3868  10.835  29.648   1.818
31554W        W 3869   8.250  36.511   4.646
31555W        W 3870  40.877  41.801   0.248
31556W        W 3871  37.434   1.886   3.762
31557W        W 3872  18.227  14.687  12.467
31558W        W 3873  34.472   7.871   4.662
31559W        W 3874  22.129  30.921  14.436
31560W        W 3875  44.480  17.592   2.848
31561W        W 3876  39.501   7.267   4.623
31562W        W 3877  38.072  29.579  11.378
31563W        W 3878  29.544  13.642   0.898
31564W        W 3879  39.498  44.379   1.380
31565W        W 3880  16.587  36.446  11.603
31566W        W 3881  12.320   5.241  12.523
31567W        W 3882  33.406  24.163  12.071
31568W        W 3883  16.144  43.368  11.975
31569W        W 3884  22.745  24.715   2.183
31570W        W 3885  20.149  29.004   0.903
31571W        W 3886  24.578  18.751   4.797
31572W        W 3887   2.347   2.804  14.358
31573W        W 3888  38.454  27.566   4.239
31574W        W 3889  16.604  37.450  10.466
31575W        W 3890  19.144  40.362  12.475
31576W        W 3891   9.171  19.187   4.734
31577W        W 3892  10.741  38.462   1.441
31578W        W 3893  30.606  43.378  12.027
31579W        W 3894  37.441  20.685  13.501
31580W        W 3895   6.344   6.865  13.007
31581W        W 3896  20.227   8.285   0.875
31582W        W 3897  36.875   2.420  11.445
31583W        W 3898  38.843  44.884  13.901
31584W        W 3899  21.231  15.291   2.217
31585W        W 3900  28.077  28.080  14.982
31586W        W 3901  31.604  20.620   3.149
31587W        W 3902  23.543  38.456   4.300
31588W        W 3903  34.537  36.466  12.462
31589W        W 3904  42.833   1.366   1.755
31590W        W 3905  38.457  28.669   1.403
31591W        W 3906   9.646  28.660   0.855
31592W        W 3907  14.194   8.816  14.025
31593W        W 3908  22.708  41.901  12.046
31594W        W 3909   4.331  39.349   1.772
31595W        W 3910  38.377   4.382  11.905
31596W        W 3911  28.486  32.120   4.739
31597W        W 3912  20.041  33.491   3.212
31598W        W 3913  28.585   0.463   1.714
31599W        W 3914  26.083  31.110   3.333
31600W        W 3915  13.134  17.090   0.786
31601W        W 3916  10.769  26.458   0.956
31602W        W 3917  36.422  13.618   3.318
31603W        W 3918   0.401  25.649  10.535
31604W        W 3919   0.854  36.555   4.205
31605W        W 3920   8.823  36.395  14.478
31606W        W 3921  23.672  39.979  13.028
31607W        W 3922  14.094  23.719   4.314
31608W        W 3923  13.808  27.052  11.436
31609W        W 3924  43.848  21.096   4.135
31610W        W 3925   7.759  20.188  13.893
31611W        W 3926  28.960  27.599  11.541
31612W        W 3927  36.558   9.228  14.345
31613W        W 3928  42.969  29.607  10.560
31614W        W 3929   3.757  27.123   2.730
31615W        W 3930   9.798  15.759  13.370
31616W        W 3931  35.407  10.150   2.754
31617W        W 3932   4.711  40.486   4.737
31618W        W 3933   3.376  13.247   4.714
31619W        W 3934  40.333   7.246   2.288
31620W        W 3935  41.919   5.239  14.437
31621W        W 3936  32.546  20.735   0.321
31622W        W 3937   0.917   5.760   3.723
31623W        W 3938   8.733  15.154  14.489
31624W        W 3939  21.740  37.059  12.892
31625W        W 3940   9.704  27.476  12.342
31626W        W 3941  26.066   3.413  11.083
31627W        W 3942  22.627  17.566   1.313
31628W        W 3943  24.640   3.819   0.388
31629W        W 3944  11.358  31.478  11.943
31630W        W 3945  13.153  11.654   5.193
31631W        W 3946  29.143  11.181   3.193
31632W        W 3947  38.353   1.309  11.541
31633W        W 3948   8.876  43.351   0.968
31634W        W 3949  32.030   2.779   1.328
31635W        W 3950   8.743  21.561   2.300
31636W        W 3951  38.832   4.369   2.379
31637W        W 3952  36.349  21.729   0.404
31638W        W 3953  22.716  12.855  11.868
31639W        W 3954   9.854  19.074   2.801
31640W        W 3955  19.560  16.759  14.381
31641W        W 3956  10.301   4.404   3.202
31642W        W 3957   1.779  37.962   3.775
31643W        W 3958   0.337  44.765   1.830
31644W        W 3959  10.784  42.931   0.383
31645W        W 3960  24.038  38.888   5.132
31646W        W 3961  38.344  25.575   0.879
31647W        W 3962  37.365   0.281   9.987
31648W        W 3963  23.131  12.714  13.363
31649W        W 3964  17.098  12.828   2.759
31650W        W 3965  20.029  37.465  13.868
31651W        W 3966  16.759  27.971  14.320
31652W        W 3967  41.852  18.660  11.599
31653W        W 3968  25.598  19.658  11.951
31654W        W 3969   9.293  39.950   2.724
31655W        W 3970  24.601  18.272  14.307
31656W        W 3971   1.414  12.129  14.834
31657W        W 3972  25.094  42.028   0.466
31658W        W 3973   1.863  24.036  13.400
31659W        W 3974  44.864  42.325  10.524
31660W        W 3975  36.853   9.778   1.854
31661W        W 3976   5.395  36.444   3.790
31662W        W 3977  19.202   5.910  11.864
31663W        W 3978  20.198  44.302   1.328
31664W        W 3979   4.428  21.213  14.964
31665W        W 3980  27.477   8.898   0.322
31666W        W 3981  37.074   6.841   2.707
31667W        W 3982  19.776  28.583  11.928
31668W        W 3983  30.479   8.756   0.295
31669W        W 3984  12.691  24.707   0.299
31670W        W 3985  36.578  39.489   1.420
31671W        W 3986  43.889  15.639   2.319
31672W        W 3987  14.285  24.508  10.907
31673W        W 3988  13.174  38.567  13.054
31674W        W 3989  12.710  10.675   0.901
31675W        W 3990  11.770   3.389   3.715
31676W        W 3991  21.154  12.832   9.942
31677W        W 3992  37.391  21.695  14.485
31678W        W 3993   1.877  38.899   0.728
31679W        W 3994  27.455   2.833   4.277
31680W        W 3995   9.157  44.872  14.411
31681W        W 3996  10.810   2.389  13.396
31682W        W 3997  12.722  20.726   0.313
31683W        W 3998  22.596  11.273  10.896
31684W        W 3999  14.235   1.257   2.345
31685W        W 4000  17.207   5.779   3.383
31686W        W 4001  44.382  33.439  12.566
31687W        W 4002  14.632  36.351  11.074
31688W        W 4003  44.453  16.713   2.400
31689W        W 4004  30.508   2.762   3.189
31690W        W 4005  18.169  24.501  12.505
31691W        W 4006  29.532   4.397   4.640
31692W        W 4007  44.399  36.966   4.761
31693W        W 4008  31.563  31.963  12.963
31694W        W 4009   0.948  40.428   4.704
31695W        W 4010  32.448  37.384  13.397
31696W        W 4011  28.515  38.571  11.384
31697W        W 4012  22.636   4.239   2.364
31698W        W 4013   1.266   6.783   2.226
31699W        W 4014  30.125  15.665   2.411
31700W        W 4015   6.887   3.354  14.884
31701W        W 4016   4.922  42.911   4.119
31702W        W 4017   6.406  39.851  13.848
31703W        W 4018  31.064  30.580   0.816
31704W        W 4019   4.415  17.685   0.744
31705W        W 4020  26.702   6.303   0.444
31706W        W 4021   8.809  29.438   0.819
31707W        W 4022   1.426  22.695   4.814
31708W        W 4023  26.533   3.412   3.754
31709W        W 4024  29.444  11.773   0.932
31710W        W 4025  33.989  33.456  12.483
31711W        W 4026   3.320  22.249  11.600
31712W        W 4027  41.953   1.881   0.366
31713W        W 4028  41.419   6.889   3.190
31714W        W 4029  20.762  26.563   5.114
31715W        W 4030  18.223  23.718  12.988
31716W        W 4031  27.559  11.653   0.861
31717W        W 4032  18.682  34.613  11.986
31718W        W 4033  38.533   5.360   0.820
31719W        W 4034  13.735  22.184  13.463
31720W        W 4035  20.735  37.023  14.860
31721W        W 4036  22.528  21.110  13.520
31722W        W 4037  37.582  28.996  12.043
31723W        W 4038  25.569  25.098   2.388
31724W        W 4039   2.416   3.233   2.413
31725W        W 4040  40.888   2.257   1.822
31726W        W 4041  21.124  19.715  12.845
31727W        W 4042  30.465  33.067  10.562
31728W        W 4043  24.652  32.131  11.425
31729W        W 4044  44.450  30.557   3.269
31730W        W 4045  41.845  13.250  10.011
31731W        W 4046   4.868   3.355  13.513
31732W        W 4047  14.194  39.846  13.480
31733W        W 4048  36.389  17.142  12.869
31734W        W 4049   6.922  12.677  10.503
31735W        W 4050   5.738  32.395  12.568
31736W        W 4051  28.155  42.861   0.728
31737W        W 4052  17.103  42.509  10.028
31738W        W 4053  23.997  10.233  13.413
31739W        W 4054   7.712  23.723  10.619
31740W        W 4055  25.020  32.579   1.405
31741W        W 4056  13.620  17.569  14.364
31742W        W 4057  33.031  16.683   3.672
31743W        W 4058  20.257   8.660   2.839
31744W        W 4059   2.848  13.611  11.489
31745W        W 4060  23.736   7.332   3.744
31746W        W 4061  12.162   6.408   1.797
31747W        W 4062  13.669  44.269  13.052
31748W        W 4063  30.041  30.653  12.919
31749W        W 4064  27.025   7.196   1.231
31750W        W 4065  34.573  24.664  10.611
31751W        W 4066   3.242  12.705  10.996
31752W        W 4067   6.849  24.135  14.359
31753W        W 4068  39.814  42.918   4.629
31754W        W 4069   9.150  28.148   4.636
31755W        W 4070  36.858  43.349  12.913
31756W        W 4071  29.980  43.350  14.861
31757W        W 4072   4.410  16.297  14.282
31758W        W 4073  40.039  35.378  13.963
31759W        W 4074   8.253   6.270   0.911
31760W        W 4075  31.009  30.429   4.160
31761W        W 4076  25.063  36.917  14.853
31762W        W 4077  21.206  25.195  11.568
31763W        W 4078   7.784  23.645  14.944
31764W        W 4079  36.900  11.751   1.250
31765W        W 4080  12.702  33.085  11.892
31766W        W 4081  38.334  33.936   4.123
31767W        W 4082  29.173  19.099   2.350
31768W        W 4083  18.761   7.904   5.231
31769W        W 4084  38.047  19.651  12.950
31770W        W 4085  30.158  15.636   0.891
31771W        W 4086  38.337  37.385  10.611
31772W        W 4087  26.616  42.500   4.675
31773W        W 4088  31.631  27.138   0.941
31774W        W 4089  12.275  33.938   1.244
31775W        W 4090  26.527  20.261   1.245
31776W        W 4091   2.871  17.594  13.996
31777W        W 4092  22.569   9.659   0.897
31778W        W 4093   3.868  38.453  13.037
31779W        W 4094  14.595  26.055   2.712
31780W        W 4095  40.034  17.261  13.501
31781W        W 4096  44.998  27.069   1.391
31782W        W 4097  32.418   9.227   4.794
31783W        W 4098  10.283  16.221  13.898
31784W        W 4099  16.166  44.881  13.495
31785W        W 4100  10.240   6.255  14.383
31786W        W 4101  17.613  26.601   4.664
31787W        W 4102  11.336  33.406   4.790
31788W        W 4103   1.882  26.487  11.440
31789W        W 4104  18.553  39.430   3.757
31790W        W 4105  24.678  28.999  14.431
31791W        W 4106  13.269  18.077   3.668
31792W        W 4107  14.700  21.084  14.404
31793W        W 4108  28.058   6.302   0.405
31794W        W 4109  38.824  41.900   0.429
31795W        W 4110  12.798  32.020  12.549
31796W        W 4111  22.064  19.645   1.261
31797W        W 4112  44.443   1.738  10.516
31798W        W 4113   7.401  38.901   3.176
31799W        W 4114  18.233  40.872   9.606
31800W        W 4115   3.800  44.480  14.370
31801W        W 4116  38.398  26.041   0.726
31802W        W 4117  12.205  38.512   4.693
31803W        W 4118  13.159   4.290   0.447
31804W        W 4119  14.749  18.252  12.401
31805W        W 4120   3.279  25.093  14.349
31806W        W 4121  17.119  10.242  10.143
31807W        W 4122  41.490  30.958   5.110
31808W        W 4123   0.348   5.894   0.430
31809W        W 4124  22.148  14.673   0.454
31810W        W 4125   6.251  33.510   3.212
31811W        W 4126  43.504   7.897   3.211
31812W        W 4127   2.230   4.219  12.559
31813W        W 4128  40.525  29.516   5.167
31814W        W 4129  42.374  33.603  10.924
31815W        W 4130  22.118  11.809   3.870
31816W        W 4131  27.090  21.674   1.839
31817W        W 4132  34.030  10.357  13.867
31818W        W 4133  10.813  44.384  12.033
31819W        W 4134  17.778  10.329   4.263
31820W        W 4135  36.949  26.566   5.278
31821W        W 4136  21.157  37.492  13.509
31822W        W 4137   2.383   2.342  13.420
31823W        W 4138  29.123  10.666   4.199
31824W        W 4139  19.777  13.212  11.467
31825W        W 4140  15.675  35.413   3.286
31826W        W 4141  35.963  30.989   0.457
31827W        W 4142  25.186  29.124  11.942
31828W        W 4143  23.548  21.040  13.901
31829W        W 4144  41.788  24.227  14.392
31830W        W 4145  32.122  35.600   4.190
31831W        W 4146   0.470  18.621   2.699
31832W        W 4147   5.811   2.461  11.606
31833W        W 4148   4.431  39.444  12.010
31834W        W 4149  11.205  16.184   9.606
31835W        W 4150   5.288   1.849  11.973
31836W        W 4151  26.681  18.222   4.167
31837W        W 4152  23.989  18.772  13.464
31838W        W 4153  11.138   3.771   3.669
31839W        W 4154  29.605   1.837  14.995
31840W        W 4155  38.402  29.938  12.086
31841W        W 4156  43.928   8.318  14.913
31842W        W 4157   8.286  28.169   1.914
31843W        W 4158  35.052  28.510   2.772
31844W        W 4159  31.448   5.908   0.966
31845W        W 4160  40.495  15.127   3.208
31846W        W 4161  30.638  15.642   2.278
31847W        W 4162   5.848   3.409  11.016
31848W        W 4163  19.676  42.890  14.902
31849W        W 4164  31.478  37.502   1.275
31850W        W 4165   2.281  19.545  12.410
31851W        W 4166  39.474  16.752  10.954
31852W        W 4167  14.593   4.404  14.976
31853W        W 4168  30.112  33.085   3.724
31854W        W 4169   7.690  32.140  10.134
31855W        W 4170  44.972  35.015  11.535
31856W        W 4171  42.820  35.005  11.949
31857W        W 4172   1.458   0.454   2.382
31858W        W 4173  36.929  31.990   5.322
31859W        W 4174  16.097  11.251  10.992
31860W        W 4175  42.398  19.545  13.319
31861W        W 4176   9.264  15.808  10.505
31862W        W 4177  17.137  36.015   0.274
31863W        W 4178  21.708  19.112   2.722
31864W        W 4179  44.319   8.301  11.063
31865W        W 4180  27.574  38.442   4.255
31866W        W 4181  29.138  27.107  13.991
31867W        W 4182  21.185  23.605   0.799
31868W        W 4183  40.045  30.501   3.213
31869W        W 4184   1.976  38.362   2.414
31870W        W 4185  18.084  13.292  10.541
31871W        W 4186  10.353  15.230   2.777
31872W        W 4187  39.437  30.576   1.806
31873W        W 4188  21.543  28.147   1.761
31874W        W 4189  18.234  16.622  11.393
31875W        W 4190  32.052  44.436  12.891
31876W        W 4191  38.061  29.556   1.334
31877W        W 4192   6.283  15.262  12.531
31878W        W 4193  35.101  38.558   0.463
31879W        W 4194  13.316  21.031   0.278
31880W        W 4195   1.872  37.066  13.854
31881W        W 4196  28.951  32.924   5.263
31882W        W 4197  16.163  29.943   1.307
31883W        W 4198   1.810  20.681  11.946
31884W        W 4199   0.812  41.951   4.295
31885W        W 4200  33.926   9.227  11.966
31886W        W 4201  41.877   0.395  13.020
31887W        W 4202  15.217  19.130  10.479
31888W        W 4203  19.230  25.998  13.888
31889W        W 4204  37.371   2.788  14.449
31890W        W 4205   1.393   5.328   0.738
31891W        W 4206  43.905   3.313   0.347
31892W        W 4207  20.236  27.099   4.190
31893W        W 4208  23.551  16.568  13.491
31894W        W 4209   1.840  11.288  14.847
31895W        W 4210   7.828  33.452  14.395
31896W        W 4211  24.679   2.735   1.228
31897W        W 4212  29.651   9.687  13.956
31898W        W 4213  27.583  14.105  11.521
31899W        W 4214   6.254  44.385  12.996
31900W        W 4215  15.327  31.006   4.638
31901W        W 4216  32.494  17.619  11.494
31902W        W 4217  16.138  35.578  12.011
31903W        W 4218  22.012  18.077   0.755
31904W        W 4219   8.265   0.441  14.514
31905W        W 4220   0.838  25.595  13.403
31906W        W 4221  37.909  21.733  13.926
31907W        W 4222  28.492  30.159   3.660
31908W        W 4223  12.741  17.583   2.191
31909W        W 4224  15.664  29.956  14.001
31910W        W 4225  28.973  21.127   3.782
31911W        W 4226  13.711  20.535  14.320
31912W        W 4227  44.786   0.403   1.827
31913W        W 4228  39.465  11.716  13.494
31914W        W 4229  12.675  17.297   1.226
31915W        W 4230  17.147  19.641   1.252
31916W        W 4231   5.865  30.465  10.575
31917W        W 4232  25.134  34.936  12.542
31918W        W 4233  42.523  10.281   1.345
31919W        W 4234  35.103   9.171  12.998
31920W        W 4235  16.117  26.087  12.093
31921W        W 4236  35.562  42.939   0.473
31922W        W 4237  13.124  42.828   0.779
31923W        W 4238  32.447  36.540   1.394
31924W        W 4239  33.972  24.678   2.856
31925W        W 4240  21.586  26.011  13.479
31926W        W 4241  44.858  16.081   2.208
31927W        W 4242  22.679   5.827  14.284
31928W        W 4243  30.477   9.218   2.775
31929W        W 4244  35.999   5.814  10.940
31930W        W 4245  12.178   6.739  11.109
31931W        W 4246  10.334  13.104  12.509
31932W        W 4247   4.926  30.464   5.217
31933W        W 4248  29.130  28.021   4.692
31934W        W 4249  21.191  32.564  13.463
31935W        W 4250  27.069  20.632  13.371
31936W        W 4251  31.996  39.480   0.745
31937W        W 4252  14.319  35.479  12.017
31938W        W 4253  14.294  35.547  11.109
31939W        W 4254  34.893   4.249   1.353
31940W        W 4255  34.545   0.864   1.392
31941W        W 4256  24.509  24.065  11.906
31942W        W 4257  18.085  30.970   0.287
31943W        W 4258  18.750  14.337   0.844
31944W        W 4259  23.581  39.869   3.304
31945W        W 4260  41.011  30.007   3.638
31946W        W 4261  39.915  36.492   2.821
31947W        W 4262  14.609  26.168  10.644
31948W        W 4263  38.495  19.063   2.769
31949W        W 4264   6.198   8.899  13.440
31950W        W 4265  18.052  38.400   3.223
31951W        W 4266   7.905  36.415   2.369
31952W        W 4267  37.838  44.385   3.311
31953W        W 4268  34.379  10.810  11.476
31954W        W 4269  12.180   7.794  14.016
31955W        W 4270  36.457  19.654   2.895
31956W        W 4271  42.837  19.178  12.550
31957W        W 4272  28.617   5.201   5.626
31958W        W 4273   4.408   4.770  14.491
31959W        W 4274   5.239  26.013  13.530
31960W        W 4275   4.434  18.737   1.351
31961W        W 4276   9.646  34.460   0.473
31962W        W 4277  16.713  20.524   2.675
31963W        W 4278  13.745   3.884  14.290
31964W        W 4279  26.581   1.973  13.798
31965W        W 4280  13.326  35.979  12.406
31966W        W 4281  11.141   3.316   3.759
31967W        W 4282  25.482   2.949  10.905
31968W        W 4283   3.887  16.705  12.990
31969W        W 4284  27.664   9.878   2.877
31970W        W 4285  22.092   0.846  10.950
31971W        W 4286   0.949   8.372   0.845
31972W        W 4287  37.419  35.884   3.764
31973W        W 4288  28.985  12.119  14.466
31974W        W 4289  22.719  25.564  13.440
31975W        W 4290  24.563  23.523   4.187
31976W        W 4291  37.006  28.628  11.609
31977W        W 4292  37.549  29.435   4.809
31978W        W 4293  33.491  21.524   4.353
31979W        W 4294  42.861  40.501  11.523
31980W        W 4295  42.012  15.613  11.000
31981W        W 4296  29.050  34.583   0.434
31982W        W 4297   4.370  37.861   1.751
31983W        W 4298  28.987  29.534  14.918
31984W        W 4299  30.149  38.354   2.368
31985W        W 4300   1.427  26.111  11.405
31986W        W 4301   5.209  10.741   3.715
31987W        W 4302  34.508  43.821   1.805
31988W        W 4303   2.431   9.765   2.314
31989W        W 4304  13.249  34.386  11.495
31990W        W 4305  11.698  15.091   1.914
31991W        W 4306  33.969  29.504   3.168
31992W        W 4307  40.384  37.493  11.874
31993W        W 4308   4.285  34.999  10.512
31994W        W 4309   8.319  21.171  14.995
31995W        W 4310  19.679   2.268   1.823
31996W        W 4311  14.599  35.376   2.674
31997W        W 4312  16.752   5.304  14.848
31998W        W 4313  23.089  30.446  13.472
31999W        W 4314  34.120   5.281  11.426
32000W        W 4315  10.810  39.903   4.738
32001W        W 4316   2.845  25.704   4.693
32002W        W 4317  13.656  24.099  12.852
32003W        W 4318  33.956  43.885   3.867
32004W        W 4319  34.892  44.322  12.937
32005W        W 4320   9.721  44.969  14.772
32006W        W 4321  25.199  36.394   0.383
32007W        W 4322  42.393  42.803   2.773
32008W        W 4323  28.143  18.784   3.858
32009W        W 4324  17.736  21.567   1.827
32010W        W 4325  29.082  43.464  13.891
32011W        W 4326  28.045  20.152   0.956
32012W        W 4327  19.085  27.669  12.998
32013W        W 4328  23.605  32.491  11.556
32014W        W 4329  31.936  37.510   5.162
32015W        W 4330  27.029   1.291   3.705
32016W        W 4331  32.413  30.096   1.822
32017W        W 4332   1.237  42.792  11.509
32018W        W 4333   4.221  40.034  12.027
32019W        W 4334  34.915  22.583  10.051
32020W        W 4335  10.850  44.429   4.344
32021W        W 4336  31.589  27.664   4.780
32022W        W 4337  34.026  11.292   0.456
32023W        W 4338  37.930   7.839  11.442
32024W        W 4339  17.732   0.941   3.352
32025W        W 4340  11.673  18.646  12.368
32026W        W 4341  41.022  42.964  14.989
32027W        W 4342  23.515  34.032   1.697
32028W        W 4343  23.494   5.287   2.220
32029W        W 4344  23.209  31.146   1.848
32030W        W 4345   6.796  33.882  12.089
32031W        W 4346   0.791  40.350   3.774
32032W        W 4347   8.288  24.230  12.566
32033W        W 4348  44.493  20.630   3.639
32034W        W 4349  14.652  29.999   0.357
32035W        W 4350  19.197  35.589   4.701
32036W        W 4351  23.985  16.784   1.767
32037W        W 4352  12.226  11.161  13.010
32038W        W 4353  43.839  39.847  12.465
32039W        W 4354  26.656  16.613   1.929
32040W        W 4355  35.440  14.746   3.378
32041W        W 4356  26.702  10.814  12.995
32042W        W 4357   2.888  22.559  11.049
32043W        W 4358  38.360  22.052  14.436
32044W        W 4359  42.836  28.953  12.065
32045W        W 4360   1.851   3.421  13.932
32046W        W 4361   0.438  25.499  14.012
32047W        W 4362  11.859   8.717   2.312
32048W        W 4363  41.963  22.043   4.837
32049W        W 4364  18.627  21.058   2.689
32050W        W 4365  27.649  44.813   3.631
32051W        W 4366  16.759  22.522  11.499
32052W        W 4367  16.138   7.238   2.413
32053W        W 4368  24.702  33.106   1.337
32054W        W 4369   1.837  31.063   1.433
32055W        W 4370  19.059   7.908   3.262
32056W        W 4371   2.413  22.686   0.809
32057W        W 4372  22.131  14.711  13.857
32058W        W 4373  12.707   5.883   3.636
32059W        W 4374  28.437   0.465  11.883
32060W        W 4375  16.222  13.748  13.952
32061W        W 4376  27.691  27.498  13.542
32062W        W 4377  39.992  38.947  11.553
32063W        W 4378  24.649  36.889   4.272
32064W        W 4379  42.420   1.335  11.556
32065W        W 4380  40.351  16.621  14.378
32066W        W 4381  40.939  10.381   3.213
32067W        W 4382  22.719  39.560   0.430
32068W        W 4383   8.756  12.793  13.492
32069W        W 4384  37.516  27.092   0.370
32070W        W 4385  18.753  42.477   1.876
32071W        W 4386   6.197  35.532  12.925
32072W        W 4387  44.329  23.699  13.944
32073W        W 4388  21.748  16.099   4.236
32074W        W 4389  25.977  13.724   3.754
32075W        W 4390   3.440   1.869   1.362
32076W        W 4391  18.186   5.742   1.751
32077W        W 4392  35.537  39.503   0.426
32078W        W 4393  11.866  28.180  12.559
32079W        W 4394  37.361  44.445  10.616
32080W        W 4395  17.207  13.671   3.152
32081W        W 4396  31.051  28.443  12.920
32082W        W 4397   4.391   6.839   0.415
32083W        W 4398   5.764  36.861  14.828
32084W        W 4399  41.930  11.836  13.505
32085W        W 4400  11.708  24.672  12.561
32086W        W 4401  13.649  35.052   0.767
32087W        W 4402  31.563  15.579  12.932
32088W        W 4403  13.310  22.509   4.117
32089W        W 4404  38.343  35.569  12.894
32090W        W 4405  23.186  26.661  11.027
32091W        W 4406  36.999   2.888  13.498
32092W        W 4407  32.452  10.243   3.630
32093W        W 4408   3.949   9.805  11.559
32094W        W 4409  10.291  16.652   0.337
32095W        W 4410  18.597  13.258  13.039
32096W        W 4411  18.280  35.532   3.236
32097W        W 4412  22.240  35.993  10.564
32098W        W 4413  27.167  35.042   1.402
32099W        W 4414  38.963  26.968   0.779
32100W        W 4415  37.450  26.692  12.351
32101W        W 4416  31.943  34.579   1.801
32102W        W 4417   7.351  25.591   4.135
32103W        W 4418  11.328  26.001  13.948
32104W        W 4419  24.135  30.064  10.500
32105W        W 4420  10.722  16.082   2.302
32106W        W 4421   0.967  17.241   0.793
32107W        W 4422   9.253  23.598   1.747
32108W        W 4423  27.160  44.328   2.258
32109W        W 4424   2.941  16.153   4.295
32110W        W 4425  44.842  39.496  13.454
32111W        W 4426  16.156  13.666   4.730
32112W        W 4427  40.493  11.735  12.549
32113W        W 4428   5.308   6.344   1.358
32114W        W 4429   0.404  23.667   4.801
32115W        W 4430  30.918  38.493  14.793
32116W        W 4431  35.899   3.898   0.865
32117W        W 4432  22.154  14.114   4.724
32118W        W 4433   8.711   2.469   2.218
32119W        W 4434  15.668  43.441  12.383
32120W        W 4435  33.465  38.420   2.293
32121W        W 4436  30.091  25.473   3.693
32122W        W 4437  30.921   0.982   1.887
32123W        W 4438   8.657  17.674   2.709
32124W        W 4439  12.796   0.367   0.871
32125W        W 4440  39.353  19.610   3.219
32126W        W 4441  10.155  15.275  14.929
32127W        W 4442  30.642  26.039   1.438
32128W        W 4443   5.849  38.076  11.104
32129W        W 4444  35.855   7.896   4.674
32130W        W 4445  31.538  39.839  10.553
32131W        W 4446  39.472   4.360  13.987
32132W        W 4447   8.224  21.628  13.956
32133W        W 4448  44.397  20.738   4.655
32134W        W 4449   0.857  18.077  11.460
32135W        W 4450  10.694  42.886  11.918
32136W        W 4451   1.318  38.861   0.822
32137W        W 4452   2.785  12.726   0.846
32138W        W 4453  28.675  19.151   2.322
32139W        W 4454  12.318  24.170  10.413
32140W        W 4455  37.006  17.207  13.988
32141W        W 4456  37.371  39.482  11.375
32142W        W 4457  21.648  11.643   3.687
32143W        W 4458  44.411   7.743  11.967
32144W        W 4459  40.968  31.017  11.408
32145W        W 4460  36.373  44.363  12.040
32146W        W 4461  21.141  13.792   1.865
32147W        W 4462  11.735  10.348   4.337
32148W        W 4463  23.705   8.211   4.796
32149W        W 4464  30.141   8.244  10.492
32150W        W 4465  31.104  17.139  10.979
32151W        W 4466   7.401  35.960   3.688
32152W        W 4467  31.563  18.642  12.835
32153W        W 4468  35.483  29.155   2.798
32154W        W 4469  21.177  38.403   2.713
32155W        W 4470  17.777  13.801   4.608
32156W        W 4471  42.807  22.517  13.857
32157W        W 4472  21.097  21.146  14.799
32158W        W 4473  11.327   9.687   2.710
32159W        W 4474  35.397  40.435   1.890
32160W        W 4475   1.262  40.032   2.247
32161W        W 4476  10.750  38.361   1.814
32162W        W 4477  42.439  12.209   3.690
32163W        W 4478   3.809  11.674   4.806
32164W        W 4479  23.165  29.065   4.195
32165W        W 4480  30.556  20.650  10.520
32166W        W 4481  36.577   7.394   1.836
32167W        W 4482  39.884  28.680   2.357
32168W        W 4483  25.554  13.307  14.449
32169W        W 4484   6.725   2.926  14.371
32170W        W 4485  39.405  32.487  11.980
32171W        W 4486   7.301  39.889   2.299
32172W        W 4487  42.500   8.772   1.355
32173W        W 4488  25.473  18.247   3.259
32174W        W 4489  18.590   1.951   4.267
32175W        W 4490  39.885  12.630  13.898
32176W        W 4491  22.229  22.575   0.468
32177W        W 4492  41.862  35.074  13.846
32178W        W 4493  34.963   6.777  12.562
32179W        W 4494  22.507  14.198  10.996
32180W        W 4495  38.541   9.362   0.416
32181W        W 4496  19.110  29.969  13.023
32182W        W 4497  12.303  12.805   2.897
32183W        W 4498  22.133  41.043   4.751
32184W        W 4499  26.529  27.143  11.001
32185W        W 4500  23.098  30.535   3.381
32186W        W 4501  10.641   3.710   1.723
32187W        W 4502  44.975  12.156   9.442
32188W        W 4503  17.295  15.143  11.094
32189W        W 4504  21.564   0.946  12.058
32190W        W 4505   2.883  23.114   3.819
32191W        W 4506   3.944  17.754  14.316
32192W        W 4507  17.165  44.798   4.766
32193W        W 4508  26.166  27.036  12.575
32194W        W 4509  43.438  42.455  13.382
32195W        W 4510  14.664   0.800   5.100
32196W        W 4511  10.235  27.062  12.508
32197W        W 4512   1.904  25.604   0.948
32198W        W 4513  26.702   3.455   4.779
32199W        W 4514  44.494  21.183   4.173
32200W        W 4515  38.957  29.524  14.964
32201W        W 4516   5.383  30.916   4.724
32202W        W 4517   8.683  40.362  10.490
32203W        W 4518   3.928  19.576  12.433
32204W        W 4519  33.390   1.761   5.240
32205W        W 4520  38.901   3.890  11.541
32206W        W 4521  31.924   9.742   0.883
32207W        W 4522   0.427  34.066   3.716
32208W        W 4523  30.109  33.383   1.406
32209W        W 4524  38.989  28.022   3.358
32210W        W 4525   8.857  21.539  14.918
32211W        W 4526  34.597   8.179   2.777
32212W        W 4527   3.887  26.968   0.797
32213W        W 4528  13.242  35.085  14.399
32214W        W 4529  17.219  34.553  14.311
32215W        W 4530  40.856  31.027  11.891
32216W        W 4531   0.841  34.465  14.807
32217W        W 4532  33.439  43.879   3.300
32218W        W 4533  20.074  12.655  12.349
32219W        W 4534   0.746   3.416  14.917
32220W        W 4535  27.060   0.365  12.009
32221W        W 4536  11.644   6.415  11.436
32222W        W 4537  40.962   8.389   1.746
32223W        W 4538   9.675  21.091   1.445
32224W        W 4539   5.292  13.729  13.536
32225W        W 4540  24.684   8.285   0.745
32226W        W 4541  42.401  19.551  10.506
32227W        W 4542  29.068  16.572  14.803
32228W        W 4543  35.408   2.470  14.503
32229W        W 4544  11.368  18.655   0.283
32230W        W 4545  24.105  14.273   0.306
32231W        W 4546  26.016  43.782   0.750
32232W        W 4547  43.356  34.534   1.382
32233W        W 4548   5.266   9.189  14.807
32234W        W 4549   2.297   9.724  12.865
32235W        W 4550  10.765  26.001  13.496
32236W        W 4551  12.653  17.174  10.566
32237W        W 4552  19.686  30.086   1.800
32238W        W 4553  38.523  11.780   3.791
32239W        W 4554  19.169   5.750   4.748
32240W        W 4555  39.860  19.609  11.426
32241W        W 4556  41.351   1.288   4.327
32242W        W 4557   4.355   5.881   0.835
32243W        W 4558  40.381   0.254   3.671
32244W        W 4559  36.588  29.102  14.307
32245W        W 4560  42.823  44.376  10.591
32246W        W 4561   3.298  30.128   0.307
32247W        W 4562  15.206   8.698   0.400
32248W        W 4563  14.111  10.253   3.844
32249W        W 4564  44.297  27.632   4.762
32250W        W 4565  36.563  29.610   4.674
32251W        W 4566   6.700   6.749   0.750
32252W        W 4567  15.621  29.996   1.748
32253W        W 4568  27.678   7.727  13.349
32254W        W 4569  15.588   7.822  12.857
32255W        W 4570  23.226  32.443  12.878
32256W        W 4571   5.888  42.799   1.749
32257W        W 4572  31.986  22.626   4.348
32258W        W 4573  10.171  20.571   0.831
32259W        W 4574   5.729  15.226   4.217
32260W        W 4575  20.156  24.170  10.064
32261W        W 4576  29.062   6.197  10.595
32262W        W 4577  17.621  15.643  10.459
32263W        W 4578  27.079  33.897   2.823
32264W        W 4579  22.664  18.757  12.383
32265W        W 4580  43.867  14.313  14.888
32266W        W 4581  28.955  22.238  14.799
32267W        W 4582  37.488   9.880  11.375
32268W        W 4583  26.507  34.002  10.594
32269W        W 4584   7.232  25.004  14.855
32270W        W 4585   0.795  20.752  13.383
32271W        W 4586  43.873   2.824  12.945
32272W        W 4587  32.486   6.243  11.860
32273W        W 4588  42.855  23.210   4.682
32274W        W 4589  19.750   8.197  14.414
32275W        W 4590  11.850  27.987  14.381
32276W        W 4591   9.811  30.064  13.501
32277W        W 4592  43.995  12.716   1.248
32278W        W 4593  44.822  25.551  12.992
32279W        W 4594   5.931   4.276  11.867
32280W        W 4595   7.414  30.090   2.784
32281W        W 4596   7.768  39.819   2.794
32282W        W 4597  35.950  17.582  13.038
32283W        W 4598  38.993  31.031  12.851
32284W        W 4599   4.279  26.468   4.605
32285W        W 4600  15.751  20.640   3.288
32286W        W 4601  22.580   7.674  11.410
32287W        W 4602  28.583   0.448   2.359
32288W        W 4603  35.876  23.101  11.554
32289W        W 4604  40.302   8.375  10.945
32290W        W 4605  13.339   3.394  11.494
32291W        W 4606  36.496  11.703  12.449
32292W        W 4607  44.421  24.227  13.479
32293W        W 4608  23.195   4.899   0.765
32294W        W 4609  42.521  25.511   2.849
32295W        W 4610   3.345  43.339  13.486
32296W        W 4611  21.630  24.684  13.921
32297W        W 4612   6.276  36.420  14.816
32298W        W 4613  34.882  18.646   2.230
32299W        W 4614  41.519  25.495   1.363
32300W        W 4615  32.555  37.869   4.224
32301W        W 4616  27.112  16.291  11.893
32302W        W 4617  18.169  38.902  14.874
32303W        W 4618  40.494  16.693  11.442
32304W        W 4619   3.868   0.469   1.911
32305W        W 4620  43.838  19.238  13.514
32306W        W 4621  18.286  23.642   2.726
32307W        W 4622  36.942   1.928  11.944
32308W        W 4623  12.628  14.717   2.845
32309W        W 4624  20.169  44.981   0.905
32310W        W 4625   4.812  17.649  11.541
32311W        W 4626   5.212  39.911   3.782
32312W        W 4627   0.942  41.421   3.855
32313W        W 4628  41.892  24.616  12.865
32314W        W 4629  38.557   7.891   1.297
32315W        W 4630  22.561  43.382  11.465
32316W        W 4631  11.235  24.625   2.726
32317W        W 4632  23.038  38.341   0.965
32318W        W 4633   6.420  20.575   3.793
32319W        W 4634  30.164  15.773  12.509
32320W        W 4635  40.904  33.950   3.712
32321W        W 4636  33.067   5.364  10.610
32322W        W 4637  19.737  28.670   3.353
32323W        W 4638   1.260  40.483  13.498
32324W        W 4639   2.342   1.870   3.299
32325W        W 4640   1.822  41.028  12.863
32326W        W 4641  21.633  15.607   3.298
32327W        W 4642  41.475   4.386   4.807
32328W        W 4643  25.610  42.455   1.354
32329W        W 4644  31.561  28.635   0.749
32330W        W 4645   7.795  34.438  11.985
32331W        W 4646  29.525  11.315   1.899
32332W        W 4647   8.678  41.449  12.848
32333W        W 4648  44.836  40.456  10.430
32334W        W 4649  11.628  43.356   3.305
32335W        W 4650   3.779   3.262  12.033
32336W        W 4651  34.985   6.834  13.536
32337W        W 4652  39.860  15.622   2.864
32338W        W 4653  28.117  41.815  10.044
32339W        W 4654  30.986  16.797   3.306
32340W        W 4655   4.226  28.549  10.410
32341W        W 4656  20.250  35.066  10.018
32342W        W 4657  43.880  30.463   0.261
32343W        W 4658  30.640  31.019  13.473
32344W        W 4659  28.047  18.661   0.754
32345W        W 4660  36.506  41.355   3.770
32346W        W 4661   6.283  35.060  14.868
32347W        W 4662  28.112   4.788   3.332
32348W        W 4663  38.960   1.362  11.052
32349W        W 4664  31.648   2.274   0.463
32350W        W 4665  18.216  28.464   5.702
32351W        W 4666  16.110   3.839  13.806
32352W        W 4667  34.451  27.600  14.995
32353W        W 4668  23.541   5.274   3.816
32354W        W 4669  38.356  44.981  11.099
32355W        W 4670  24.483  39.927  11.884
32356W        W 4671  28.609  19.649  10.449
32357W        W 4672  17.771  31.073   3.755
32358W        W 4673  33.392  43.442   2.330
32359W        W 4674  35.945  30.928  10.411
32360W        W 4675  26.147   9.196  13.809
32361W        W 4676  33.983  37.513   3.719
32362W        W 4677  22.156   6.752  12.951
32363W        W 4678  27.592  15.261   1.791
32364W        W 4679  19.221  23.706   0.305
32365W        W 4680  37.035  25.984   2.368
32366W        W 4681  38.430  15.799   5.288
32367W        W 4682  41.317  39.320  11.537
32368W        W 4683  36.018  26.610   2.897
32369W        W 4684   9.281  10.651  14.848
32370W        W 4685  12.842   0.748   3.727
32371W        W 4686   6.325  15.622  11.867
32372W        W 4687  27.547   3.266   3.220
32373W        W 4688  20.685  43.863   4.687
32374W        W 4689   1.376   7.186  14.369
32375W        W 4690  13.351   6.236   0.431
32376W        W 4691   1.373   8.686  12.442
32377W        W 4692  32.632  38.482   0.801
32378W        W 4693  31.417  19.656  13.058
32379W        W 4694  22.500  21.157   3.848
32380W        W 4695  26.003  28.178  10.631
32381W        W 4696  34.434  29.014  14.839
32382W        W 4697   8.318  37.377  12.079
32383W        W 4698  23.602  17.193  14.900
32384W        W 4699  29.588  17.294   4.261
32385W        W 4700  43.922  30.646  10.467
32386W        W 4701  14.178  13.616  14.006
32387W        W 4702  27.991  16.075   0.430
32388W        W 4703  44.425  23.233  12.861
32389W        W 4704   4.249  37.535  10.437
32390W        W 4705  19.627  42.412  13.057
32391W        W 4706  28.643  43.377  12.480
32392W        W 4707  28.597  41.816   1.369
32393W        W 4708   1.366  20.742   1.311
32394W        W 4709  41.992  26.602   4.286
32395W        W 4710  19.198   9.650  12.091
32396W        W 4711  31.926  34.078   3.370
32397W        W 4712  31.611  32.094  13.939
32398W        W 4713   6.715  39.336   1.307
32399W        W 4714  31.480   7.268  13.892
32400W        W 4715  27.072  18.137  12.560
32401W        W 4716   2.958  21.019  10.906
32402W        W 4717  25.008  40.463   0.842
32403W        W 4718   1.403  39.337  11.373
32404W        W 4719  40.544  29.145  11.412
32405W        W 4720  26.155  28.070  11.901
32406W        W 4721  14.650  23.063   4.164
32407W        W 4722   1.753  22.591  11.957
32408W        W 4723   1.797  14.732  13.343
32409W        W 4724  43.504   6.812   0.771
32410W        W 4725  13.610   6.784  12.475
32411W        W 4726  30.991  20.574   1.846
32412W        W 4727  28.649  26.083   4.613
32413W        W 4728  25.702  29.985   2.341
32414W        W 4729  18.154  20.612  11.493
32415W        W 4730  30.616  42.928  12.984
32416W        W 4731   7.225  28.509   1.712
32417W        W 4732  19.771  18.158   3.218
32418W        W 4733  22.046  17.122  10.992
32419W        W 4734  38.490   3.452   3.740
32420W        W 4735  21.579  44.775   0.860
32421W        W 4736  21.653   9.799  11.505
32422W        W 4737  39.868   1.833   2.387
32423W        W 4738  20.578  21.048  13.997
32424W        W 4739  22.585  14.146   4.308
32425W        W 4740   8.866  26.686  10.623
32426W        W 4741   4.212   2.934  13.313
32427W        W 4742  32.627  40.994  13.318
32428W        W 4743  36.041  19.544   4.673
32429W        W 4744  36.570  25.496   4.325
32430W        W 4745   6.252  28.485   2.755
32431W        W 4746   9.244  16.082   2.875
32432W        W 4747  39.912  14.313  12.450
32433W        W 4748   8.658  24.034   0.346
32434W        W 4749  21.542  14.112  13.450
32435W        W 4750  18.073  26.538   0.783
32436W        W 4751  42.874  12.721   1.849
32437W        W 4752   4.341  42.891  11.423
32438W        W 4753  39.379  23.689  10.138
32439W        W 4754  23.191  28.443   1.250
32440W        W 4755  39.511   5.931   1.928
32441W        W 4756  11.721   3.734   4.808
32442W        W 4757   6.796  14.733  14.910
32443W        W 4758   9.777  13.730   1.290
32444W        W 4759  24.188  26.961   2.348
32445W        W 4760  11.333   2.443   4.723
32446W        W 4761  40.852  35.052   2.408
32447W        W 4762  42.980   1.329  13.452
32448W        W 4763   3.418  32.952   2.259
32449W        W 4764  34.010  16.187  12.977
32450W        W 4765   9.309  43.290  12.414
32451W        W 4766  41.518  42.910  11.478
32452W        W 4767  32.099  17.093  12.459
32453W        W 4768  27.110  14.212   1.837
32454W        W 4769  10.333  14.340   0.253
32455W        W 4770  24.154   5.920  13.432
32456W        W 4771  13.265  43.313   2.357
32457W        W 4772   1.320  16.586   4.665
32458W        W 4773  37.062  30.611  13.815
32459W        W 4774  10.842  11.149  13.345
32460W        W 4775  10.304   2.242   2.823
32461W        W 4776  44.283   9.650  12.404
32462W        W 4777  24.034  11.744   1.336
32463W        W 4778  34.060  17.631  14.783
32464W        W 4779  23.732  16.170   4.240
32465W        W 4780  28.086  10.198   5.291
32466W        W 4781  27.562   5.836   1.329
32467W        W 4782  42.401  40.362   4.138
32468W        W 4783  11.356  40.887  13.329
32469W        W 4784   1.945  41.015   1.308
32470W        W 4785   6.757  38.887  14.821
32471W        W 4786  22.111   7.680  11.444
32472W        W 4787  21.165   7.721  13.433
32473W        W 4788  21.671  33.403  13.968
32474W        W 4789  42.006  28.487  10.997
32475W        W 4790  41.486  15.646  12.040
32476W        W 4791  26.467  43.866  11.531
32477W        W 4792   4.317   3.832   0.375
32478W        W 4793   4.401  42.451   0.291
32479W        W 4794   6.232  30.982  10.618
32480W        W 4795  17.699   6.836  13.975
32481W        W 4796  24.193   2.411  12.579
32482W        W 4797   6.912  10.205  12.947
32483W        W 4798  33.018  38.403  12.828
32484W        W 4799  15.314   8.805   4.735
32485W        W 4800   4.737  37.483   2.197
32486W        W 4801  14.691   1.385  12.833
32487W        W 4802  15.647   7.869   1.213
32488W        W 4803  31.095  35.097   2.411
32489W        W 4804  20.121  33.536  14.841
32490W        W 4805  11.773  44.342  14.402
32491W        W 4806  29.084   4.830   2.854
32492W        W 4807  20.551  28.598  13.853
32493W        W 4808  42.309  35.998   1.211
32494W        W 4809  44.337  37.846  10.545
32495W        W 4810  43.950  18.680  14.959
32496W        W 4811  27.107  10.178  10.457
32497W        W 4812   3.372  42.423  11.446
32498W        W 4813  31.990  41.818  11.877
32499W        W 4814  32.942  14.687  10.954
32500W        W 4815  22.168  18.145  11.576
32501W        W 4816  21.248   2.277  14.010
32502W        W 4817  23.735  37.426  14.015
32503W        W 4818  12.308  27.673   2.774
32504W        W 4819   7.240   5.723  13.327
32505W        W 4820  37.507  13.263   2.225
32506W        W 4821  13.109  21.532  10.982
32507W        W 4822  18.672  28.529  13.488
32508W        W 4823  29.054  32.419   2.349
32509W        W 4824  12.685  31.445  13.433
32510W        W 4825  18.199  29.563  12.911
32511W        W 4826  15.790  31.514  14.926
32512W        W 4827  17.649  26.503  10.448
32513W        W 4828  30.524  26.553  14.284
32514W        W 4829   1.483  32.472  10.633
32515W        W 4830  15.178  32.992  11.485
32516W        W 4831  33.617   5.920   2.834
32517W        W 4832  37.958   1.442   0.957
32518W        W 4833   2.393  28.594   0.420
32519W        W 4834  28.521  36.438  12.519
32520W        W 4835  31.414  44.448  11.034
32521W        W 4836   1.357   9.157   4.634
32522W        W 4837  41.929  18.681   2.711
32523W        W 4838  30.604   0.744   5.158
32524W        W 4839  20.172  16.711   2.849
32525W        W 4840  28.085  13.753   0.345
32526W        W 4841  16.097  43.875   0.253
32527W        W 4842   1.258  19.048  14.785
32528W        W 4843  16.113   6.865  13.002
32529W        W 4844  32.598  27.673  12.576
32530W        W 4845   7.691   6.716  13.969
32531W        W 4846  25.637  23.234  14.000
32532W        W 4847  15.301  34.475  14.778
32533W        W 4848  20.563  17.579   0.410
32534W        W 4849  15.591   6.324  13.438
32535W        W 4850  30.423  44.342   2.849
32536W        W 4851  22.709   0.837   2.871
32537W        W 4852  43.937   1.732   1.308
32538W        W 4853  12.703  41.886   1.706
32539W        W 4854  21.648  14.751  13.981
32540W        W 4855   8.786  38.010  13.817
32541W        W 4856   7.771   3.715   3.189
32542W        W 4857  16.580  15.309  13.526
32543W        W 4858  43.862  32.099  13.310
32544W        W 4859  13.605   3.860  10.917
32545W        W 4860   5.723  23.510   2.772
32546W        W 4861  16.158  31.602   2.374
32547W        W 4862   2.439  20.710   2.353
32548W        W 4863  21.680  17.279   0.307
32549W        W 4864  39.896  18.108   2.406
32550W        W 4865  19.040   0.921   3.804
32551W        W 4866   0.263  14.652  10.591
32552W        W 4867  37.961  30.982  14.882
32553W        W 4868  43.368  30.960   4.230
32554W        W 4869  21.067   3.946  10.618
32555W        W 4870   0.793  23.543  10.468
32556W        W 4871  17.112   4.230   0.326
32557W        W 4872  23.692  10.268  13.027
32558W        W 4873  10.723  33.988  11.574
32559W        W 4874  41.405  43.857   4.743
32560W        W 4875  38.504   6.308   0.782
32561W        W 4876   4.719  43.442  13.017
32562W        W 4877  40.426   8.327  12.562
32563W        W 4878  20.194   2.932   0.935
32564W        W 4879  38.389   5.750   4.697
32565W        W 4880   9.701   0.433  12.891
32566W        W 4881  31.623  20.173   1.432
32567W        W 4882   9.770  39.980   0.829
32568W        W 4883  41.518   1.914  10.600
32569W        W 4884  14.772  33.889  11.560
32570W        W 4885  42.521  37.493   1.235
32571W        W 4886   2.937  11.805   3.811
32572W        W 4887  39.812  18.560   2.347
32573W        W 4888   3.351   0.395   2.892
32574W        W 4889  33.891  24.085   2.872
32575W        W 4890  41.430  44.818  14.813
32576W        W 4891   8.709  27.453   4.644
32577W        W 4892  32.973  23.228  10.990
32578W        W 4893  19.197  21.118  11.928
32579W        W 4894  32.096   7.334   1.791
32580W        W 4895   9.381  26.531  12.506
32581W        W 4896  39.819  32.967   4.633
32582W        W 4897  38.546  11.697  13.925
32583W        W 4898  31.082   1.839   0.881
32584W        W 4899  31.026   5.728  14.981
32585W        W 4900  36.937  33.499  14.952
32586W        W 4901  12.660  32.954  12.967
32587W        W 4902  31.443   3.826  13.889
32588W        W 4903  44.438  30.941  13.907
32589W        W 4904   4.227  24.996  12.089
32590W        W 4905   2.835  12.840   3.658
32591W        W 4906   6.201  39.835  12.062
32592W        W 4907  19.195   3.918   2.695
32593W        W 4908  44.896  14.297  11.433
32594W        W 4909   0.287  30.094   1.831
32595W        W 4910  44.436   0.885   3.828
32596W        W 4911  12.334   6.391   4.668
32597W        W 4912   0.969   1.249  11.494
32598W        W 4913  27.981  11.861  11.396
32599W        W 4914  13.267  22.047   3.822
32600W        W 4915  35.477  42.516  11.037
32601W        W 4916  44.484   4.913  13.047
32602W        W 4917  41.816   1.390  14.834
32603W        W 4918   7.260  36.896  14.772
32604W        W 4919  17.579  31.625   4.825
32605W        W 4920   5.193   8.731   0.323
32606W        W 4921  26.168  19.049  11.053
32607W        W 4922  20.220  39.511  13.848
32608W        W 4923  23.132  42.327   2.772
32609W        W 4924   1.951  27.957   1.340
32610W        W 4925  37.533  44.877   2.695
32611W        W 4926  12.116  24.580  13.345
32612W        W 4927  43.765  36.351   3.378
32613W        W 4928  18.211  19.185   4.321
32614W        W 4929  44.372   0.945   0.740
32615W        W 4930  16.163   7.368   4.273
32616W        W 4931  38.980  36.397   1.419
32617W        W 4932  30.084  23.516  14.367
32618W        W 4933   3.934  16.187  10.610
32619W        W 4934  23.555   4.387   3.866
32620W        W 4935  34.414  42.284   4.289
32621W        W 4936  21.710  19.707  13.490
32622W        W 4937  32.044   9.170   4.293
32623W        W 4938   5.245  13.333   2.293
32624W        W 4939  43.952   8.400  11.415
32625W        W 4940   0.301   7.711   0.431
32626W        W 4941   7.685   0.340  14.340
32627W        W 4942  13.688  19.687   1.276
32628W        W 4943  44.398  36.538   3.224
32629W        W 4944  41.030  17.596   2.191
32630W        W 4945  16.615  44.858  14.457
32631W        W 4946  11.135  28.479  14.989
32632W        W 4947  18.275  38.050  10.004
32633W        W 4948  37.904   8.723   2.813
32634W        W 4949  17.592  14.235   1.827
32635W        W 4950   4.766  41.845  11.097
32636W        W 4951  15.290  19.618  11.452
32637W        W 4952  31.012   6.691  10.620
32638W        W 4953  27.498  42.003   1.700
32639W        W 4954  23.637  22.089   0.423
32640W        W 4955  17.768   8.172   0.287
32641W        W 4956  41.336  42.012   2.758
32642W        W 4957   4.822  29.065   2.900
32643W        W 4958  12.836  20.547  13.999
32644W        W 4959  40.527  25.711   3.672
32645W        W 4960  40.327   3.429  12.890
32646W        W 4961  20.756  17.115   0.790
32647W        W 4962   1.748  40.876   1.769
32648W        W 4963  33.063  10.298   3.209
32649W        W 4964  40.507  23.573  12.967
32650W        W 4965  11.149  17.589  13.471
32651W        W 4966  42.281  31.147   0.259
32652W        W 4967  14.730  36.845  11.530
32653W        W 4968  27.510  28.938   0.452
32654W        W 4969   7.261  33.954   4.153
32655W        W 4970   8.877  39.325  10.960
32656W        W 4971   5.900  12.742  10.625
32657W        W 4972  25.502  38.544  14.275
32658W        W 4973  17.273  30.652  10.431
32659W        W 4974  36.097  10.259   2.834
32660W        W 4975  18.186  39.334  14.838
32661W        W 4976  12.613  36.925   1.769
32662W        W 4977  15.208   5.716   3.160
32663W        W 4978  42.407  26.551  11.550
32664W        W 4979  38.035   6.784  13.841
32665W        W 4980  42.355  10.849   4.630
32666W        W 4981  23.126  43.804   0.301
32667W        W 4982  19.187  44.838  10.430
32668W        W 4983   7.214   4.246  11.606
32669W        W 4984   0.309  25.122   1.804
32670W        W 4985  28.972  35.533  11.426
32671W        W 4986  34.465  12.669  12.364
32672W        W 4987   6.736  31.464  13.335
32673W        W 4988  27.512   3.871   0.874
32674W        W 4989  15.690  22.632   0.301
32675W        W 4990  26.562  41.958  11.513
32676W        W 4991  42.972   1.402  10.535
32677W        W 4992  10.832  13.653  11.970
32678W        W 4993  37.439  25.633  12.364
32679W        W 4994  18.096   7.745  14.848
32680W        W 4995  10.365  12.831  10.916
32681W        W 4996  17.769  37.978   1.427
32682W        W 4997  32.470   3.254   3.682
32683W        W 4998  36.894  32.981   2.815
32684W        W 4999   3.434  44.500  13.829
32685W        W 5000  20.581  18.706  12.088
32686W        W 5001  44.778   4.910   4.162
32687W        W 5002  21.686  38.483  14.337
32688W        W 5003  30.571  25.199   3.658
32689W        W 5004  39.336   6.261   3.156
32690W        W 5005  18.243  14.193  14.832
32691W        W 5006  19.149   8.680   4.760
32692W        W 5007   1.258   6.192  12.499
32693W        W 5008  37.996   9.149   3.148
32694W        W 5009   6.707  34.537  14.978
32695W        W 5010  28.677  32.078   0.410
32696W        W 5011  24.656  14.102   1.826
32697W        W 5012  30.077  16.226   1.727
32698W        W 5013   9.792  11.256  11.029
32699W        W 5014  31.019  16.713   3.788
32700W        W 5015  21.171  26.198   1.420
32701W        W 5016  25.549  24.025  12.849
32702W        W 5017   0.953  10.187  13.914
32703W        W 5018   2.306  40.399   2.825
32704W        W 5019  25.562  37.026  13.825
32705W        W 5020  10.861  38.013  13.792
32706W        W 5021  34.016  25.690   4.745
32707W        W 5022  44.391  21.223   0.263
32708W        W 5023  21.559  22.668  12.397
32709W        W 5024   1.290   9.257   1.873
32710W        W 5025   5.287  23.691   0.375
32711W        W 5026  43.883  39.465  13.009
32712W        W 5027  30.567  26.061  11.054
32713W        W 5028  32.554  30.655  11.008
32714W        W 5029  24.710  37.070  10.932
32715W        W 5030  40.364  10.707   3.755
32716W        W 5031   9.325  29.011   5.314
32717W        W 5032  37.944  11.366   3.239
32718W        W 5033  36.459  23.659  11.523
32719W        W 5034  20.125   8.366  13.545
32720W        W 5035  30.612  38.938   1.285
32721W        W 5036   5.709  43.993   4.118
32722W        W 5037  19.575   4.259   0.334
32723W        W 5038  16.771  39.062  13.318
32724W        W 5039  44.864   6.328  11.110
32725W        W 5040  44.816  16.788   2.389
32726W        W 5041  36.579  20.114   1.279
32727W        W 5042  20.537  25.133   4.658
32728W        W 5043  31.092  31.058   2.413
32729W        W 5044   2.312   0.421   0.474
32730W        W 5045   9.656   0.250   1.389
32731W        W 5046  38.871  10.748  10.998
32732W        W 5047   9.870  30.945  14.403
32733W        W 5048  38.069  39.423   1.764
32734W        W 5049  40.305  27.993   1.729
32735W        W 5050  33.898   1.917   1.698
32736W        W 5051  36.894   0.865   3.321
32737W        W 5052  33.598  25.561   4.288
32738W        W 5053  13.120   5.863  13.521
32739W        W 5054  23.207  40.352   4.834
32740W        W 5055  38.915  12.275  12.855
32741W        W 5056  44.911   0.358   4.223
32742W        W 5057  42.404  44.358   4.620
32743W        W 5058  43.494  16.303   1.359
32744W        W 5059  42.357  15.120  11.564
32745W        W 5060   9.823   5.898  11.452
32746W        W 5061  44.303  39.545  13.934
32747W        W 5062  44.934  39.488  13.944
32748W        W 5063  10.728  35.941   3.277
32749W        W 5064  36.578  18.171  10.571
32750W        W 5065   3.420  31.469   4.774
32751W        W 5066  14.759  35.088   4.150
32752W        W 5067  13.724  10.298  10.640
32753W        W 5068  35.016  28.059  13.915
32754W        W 5069  19.748  26.140   0.398
32755W        W 5070  26.119   0.809   1.439
32756W        W 5071  26.651  19.059  12.580
32757W        W 5072  18.600  32.017  10.432
32758W        W 5073  16.247   3.440  14.759
32759W        W 5074  41.352  12.722  10.488
32760W        W 5075  44.865  34.531   3.325
32761W        W 5076  26.185  31.126   1.221
32762W        W 5077  26.570  12.811   0.766
32763W        W 5078  32.507  13.278  10.404
32764W        W 5079  25.058  42.309   4.274
32765W        W 5080   4.356  38.360   3.171
32766W        W 5081   4.294  14.621   4.625
32767W        W 5082  41.965  30.966   1.833
32768W        W 5083  21.131  39.054  13.912
32769W        W 5084   1.827   1.819  13.383
32770W        W 5085  30.142   9.688   2.182
32771W        W 5086  40.481  26.119   5.099
32772W        W 5087  26.471  34.863  10.406
32773W        W 5088  19.221  42.417   2.224
32774W        W 5089   3.311   0.275  10.936
32775W        W 5090  20.226  29.939  11.088
32776W        W 5091  33.414  28.181   4.180
32777W        W 5092  40.385  39.495  12.947
32778W        W 5093   2.377  31.124  13.407
32779W        W 5094  12.833  43.275  11.582
32780W        W 5095  28.653  15.266   4.161
32781W        W 5096  11.188  18.213   3.637
32782W        W 5097  28.460  43.872   3.689
32783W        W 5098   0.970  40.513  14.931
32784W        W 5099   9.381  40.455   1.918
32785W        W 5100   8.289  29.477   4.153
32786W        W 5101  40.989  28.528  14.766
32787W        W 5102  23.720  21.041  11.502
32788W        W 5103  38.966  23.003   0.948
32789W        W 5104  15.144  39.000   2.230
32790W        W 5105   0.942   6.849  11.447
32791W        W 5106  23.592  18.080   2.799
32792W        W 5107  33.582  36.028  11.028
32793W        W 5108   2.453  37.548   1.887
32794W        W 5109  15.139  39.888  13.544
32795W        W 5110  30.006  11.695   3.688
32796W        W 5111  23.056   5.403   3.337
32797W        W 5112  17.231  10.320  11.397
32798W        W 5113  23.078  27.493  11.509
32799W        W 5114  27.506  35.897  12.532
32800W        W 5115  25.068  44.491  13.321
32801W        W 5116  17.648  35.958   0.271
32802W        W 5117  29.511  19.732   2.263
32803W        W 5118   8.829   5.205  13.530
32804W        W 5119  28.565  21.065   3.788
32805W        W 5120   9.353  24.552   3.631
32806W        W 5121  15.714  21.555  13.833
32807W        W 5122  33.008  36.855  14.283
32808W        W 5123  41.455  20.057   3.756
32809W        W 5124  30.459  17.176  12.006
32810W        W 5125   2.272  40.936  12.339
32811W        W 5126  24.552   5.835  12.369
32812W        W 5127   3.248  40.812  13.429
32813W        W 5128   9.199  11.372  12.860
32814W        W 5129  41.514  17.269   0.884
32815W        W 5130   3.915  11.696   1.263
32816W        W 5131  27.507  13.656  14.287
32817W        W 5132  36.992  12.282   4.820
32818W        W 5133  21.525  32.477  12.562
32819W        W 5134  16.625   4.319  12.386
32820W        W 5135  13.267  27.657   2.372
32821W        W 5136  26.643  22.149   2.894
32822W        W 5137   5.221   6.723  12.044
32823W        W 5138  13.310  18.282   4.168
32824W        W 5139  23.126  19.718   2.799
32825W        W 5140  24.575  29.137   4.174
32826W        W 5141   1.950  12.745   4.281
32827W        W 5142  28.481   7.285  12.020
32828W        W 5143   3.340   4.922   3.757
32829W        W 5144  26.055  23.072   3.835
32830W        W 5145  32.636  29.586  11.021
32831W        W 5146   6.760  11.738  14.835
32832W        W 5147   2.322  32.058  14.431
32833W        W 5148   7.323  11.793  10.494
32834W        W 5149   8.820  26.118   4.701
32835W        W 5150  34.933  35.960   4.722
32836W        W 5151  43.378  21.152  10.495
32837W        W 5152  12.788  37.848  10.982
32838W        W 5153  36.499  40.840   4.838
32839W        W 5154  36.477  13.308   3.678
32840W        W 5155  19.247  25.662   1.260
32841W        W 5156  28.040   3.386   0.265
32842W        W 5157  31.009  21.709  13.005
32843W        W 5158  40.544  37.861  11.436
32844W        W 5159  16.728   4.395  11.569
32845W        W 5160  43.442  11.730   3.838
32846W        W 5161  38.904   5.832  14.925
32847W        W 5162  23.511  30.429   0.831
32848W        W 5163  12.338  43.880   3.256
32849W        W 5164  39.392  41.525  11.524
32850W        W 5165   2.927  41.976  13.456
32851W        W 5166   0.263  29.449  11.078
32852W        W 5167  43.915   5.237   0.439
32853W        W 5168  26.103   6.208   9.603
32854W        W 5169  32.625   4.217  12.057
32855W        W 5170  20.180  27.994   0.821
32856W        W 5171  19.216   6.199  14.831
32857W        W 5172  29.933  17.083   4.612
32858W        W 5173  15.096  30.154  12.930
32859W        W 5174   8.185   4.255   0.743
32860W        W 5175   3.800  40.047   3.737
32861W        W 5176  28.515  14.183   0.929
32862W        W 5177  32.482  35.968   3.677
32863W        W 5178   4.772  31.595   4.333
32864W        W 5179  28.148   5.359   0.297
32865W        W 5180   7.727  34.374   1.919
32866W        W 5181  34.967  30.921  12.576
32867W        W 5182   5.705   8.160  11.490
32868W        W 5183  43.281  28.042  11.522
32869W        W 5184  43.408   4.699  13.938
32870W        W 5185  41.315  18.161   2.739
32871W        W 5186   9.686   3.408   5.182
32872W        W 5187  39.421  44.287  11.952
32873W        W 5188  20.151  17.584  12.912
32874W        W 5189  24.111  29.999   2.676
32875W        W 5190   5.929   7.851  11.451
32876W        W 5191  39.908  33.473  14.785
32877W        W 5192   9.189  23.676   4.119
32878W        W 5193  29.569  40.399   0.378
32879W        W 5194  40.453  27.533   2.784
32880W        W 5195   9.873  19.246  12.093
32881W        W 5196   7.291  19.234  13.462
32882W        W 5197  19.571  14.811  11.475
32883W        W 5198  16.586   2.267   0.870
32884W        W 5199  44.430  28.074  11.553
32885W        W 5200  35.868  41.977  12.568
32886W        W 5201  11.162  17.215  14.023
32887W        W 5202  20.141   9.887   1.882
32888W        W 5203  19.162   1.820  14.468
32889W        W 5204   5.408  25.591  12.079
32890W        W 5205  41.986  21.147   3.272
32891W        W 5206  10.842   9.382  11.411
32892W        W 5207  23.173   0.486  13.858
32893W        W 5208  23.157  19.548  12.374
32894W        W 5209  35.079  39.443  11.971
32895W        W 5210  22.637  27.140   3.866
32896W        W 5211   6.254   4.317   1.715
32897W        W 5212   0.933   1.751   2.755
32898W        W 5213  11.817   3.229  10.927
32899W        W 5214   3.727  24.112  12.071
32900W        W 5215  33.897   1.453   0.379
32901W        W 5216   7.742  38.946   2.709
32902W        W 5217  11.655  33.011   1.248
32903W        W 5218  18.621  12.700  12.398
32904W        W 5219  24.994  24.147  14.927
32905W        W 5220   9.346  30.596   3.223
32906W        W 5221  42.527   8.720   4.269
32907W        W 5222   8.367  32.062  11.112
32908W        W 5223  22.626   7.323  11.000
32909W        W 5224   9.237  43.890  10.618
32910W        W 5225  15.725  24.085   2.201
32911W        W 5226  32.116   0.875   4.748
32912W        W 5227  10.285  12.845  14.350
32913W        W 5228  12.677  24.986   0.760
32914W        W 5229  14.692  13.316  12.370
32915W        W 5230  21.262  31.138   3.252
32916W        W 5231  36.907  42.483  11.884
32917W        W 5232  24.505  22.166   3.198
32918W        W 5233  42.363   6.747   4.771
32919W        W 5234  35.069   7.395  12.045
32920W        W 5235  13.332  24.173  11.868
32921W        W 5236   3.437  12.761  10.443
32922W        W 5237  16.718  15.216  12.433
32923W        W 5238  42.908  14.252  13.011
32924W        W 5239  17.759   0.873  13.514
32925W        W 5240  15.583  17.665   0.333
32926W        W 5241  38.042   2.738  14.467
32927W        W 5242  37.419  22.587   2.186
32928W        W 5243  36.448  17.772  12.084
32929W        W 5244  12.150   2.408   1.322
32930W        W 5245   8.330  30.956   1.881
32931W        W 5246  32.020  21.539   1.422
32932W        W 5247  29.547  28.463  14.962
32933W        W 5248  13.719  12.294   0.420
32934W        W 5249  15.143  13.315  13.811
32935W        W 5250  20.589   3.893   3.331
32936W        W 5251  42.392  26.054  13.325
32937W        W 5252  40.956  10.230   4.132
32938W        W 5253  33.047  23.541   4.683
32939W        W 5254  31.595  15.734   0.453
32940W        W 5255  25.966   9.854   3.251
32941W        W 5256  41.355  28.618  13.492
32942W        W 5257  31.524  32.629  11.417
32943W        W 5258  26.957   0.868  13.447
32944W        W 5259  33.569  23.068   3.383
32945W        W 5260  10.808  14.817  11.960
32946W        W 5261  21.071  28.590  12.897
32947W        W 5262   9.874  17.191   0.860
32948W        W 5263   2.255  13.131   0.847
32949W        W 5264  10.296  18.296  12.442
32950W        W 5265  34.067   0.288   1.934
32951W        W 5266  23.517   0.471  12.458
32952W        W 5267  13.125   9.186  13.043
32953W        W 5268   3.923  29.944  11.473
32954W        W 5269   1.405   6.904  11.426
32955W        W 5270  40.422  11.360   3.709
32956W        W 5271  26.653  38.927   1.782
32957W        W 5272  16.282  24.169  10.605
32958W        W 5273  31.973  42.462   4.123
32959W        W 5274  17.663  21.120   4.135
32960W        W 5275  20.141  10.339  12.477
32961W        W 5276  36.078  11.623   2.272
32962W        W 5277   5.196  41.408   2.360
32963W        W 5278  27.640  10.336   3.332
32964W        W 5279  21.732   3.715  11.538
32965W        W 5280  21.139  25.118  12.853
32966W        W 5281  37.961  14.601   0.286
32967W        W 5282  36.926  17.729  14.383
32968W        W 5283   2.430  23.526   0.947
32969W        W 5284  25.183  10.195   3.340
32970W        W 5285  11.803  16.237  11.929
32971W        W 5286   2.394  27.079  13.033
32972W        W 5287  28.964  10.324   3.314
32973W        W 5288  11.229  20.271   2.897
32974W        W 5289  22.669   6.405  13.958
32975W        W 5290  34.466  31.456   1.403
32976W        W 5291  20.754  27.187  11.112
32977W        W 5292  34.550  14.254   5.290
32978W        W 5293  27.455  14.783  14.434
32979W        W 5294  23.098  12.271   3.724
32980W        W 5295  10.810  36.426   0.476
32981W        W 5296  44.944  23.120   3.253
32982W        W 5297  33.500  14.641  12.965
32983W        W 5298  18.632  29.109   3.789
32984W        W 5299   6.266  16.751  10.993
32985W        W 5300  44.868  13.796   1.784
32986W        W 5301  34.014  24.222   4.766
32987W        W 5302  22.035  18.685  12.369
32988W        W 5303   9.712  26.970  14.922
32989W        W 5304  35.070  21.151  14.897
32990W        W 5305  21.214  15.821  10.084
32991W        W 5306  25.135  32.119  13.387
32992W        W 5307  23.220  23.591   0.729
32993W        W 5308  33.485   6.899   2.687
32994W        W 5309  20.693  40.334  11.421
32995W        W 5310  15.659  22.180   3.633
32996W        W 5311  27.676  38.456  10.596
32997W        W 5312   0.309   1.809   3.158
32998W        W 5313  23.062  21.058   0.910
32999W        W 5314  24.549  13.807  14.510
33000W        W 5315   1.840  14.315   1.839
33001W        W 5316   8.283  18.786   3.204
33002W        W 5317  39.490  14.591  14.453
33003W        W 5318  18.279  26.517   4.604
33004W        W 5319  40.816   4.830   3.292
33005W        W 5320  32.991  15.241  12.042
33006W        W 5321  12.206  18.075   5.188
33007W        W 5322  10.338  42.026   5.163
33008W        W 5323  18.237  39.950   0.322
33009W        W 5324  13.778  18.090   0.437
33010W        W 5325  17.780  34.954  14.911
33011W        W 5326  25.634  14.743   0.390
33012W        W 5327  13.238   1.880   3.705
33013W        W 5328  27.546  39.863  14.783
33014W        W 5329  10.204  25.656   4.724
33015W        W 5330  21.586  29.957  12.097
33016W        W 5331  31.594   8.225   3.793
33017W        W 5332  42.893  23.067  12.922
33018W        W 5333  25.603   4.887   2.335
33019W        W 5334  23.231  38.471  13.431
33020W        W 5335  41.348  29.166   4.669
33021W        W 5336  14.663  17.268  13.921
33022W        W 5337  20.653   4.845   4.763
33023W        W 5338   2.891  10.687  14.960
33024W        W 5339  16.231  35.937   4.677
33025W        W 5340  31.951   1.279   4.695
33026W        W 5341   5.382  14.191   5.163
33027W        W 5342  20.529  37.487  11.513
33028W        W 5343  22.518  34.890  13.417
33029W        W 5344  19.776  30.951  10.926
33030W        W 5345  22.504  33.981  11.866
33031W        W 5346  27.147  43.457   0.850
33032W        W 5347  21.134  14.263  10.641
33033W        W 5348   1.774  35.575  10.962
33034W        W 5349   4.742  22.115  13.314
33035W        W 5350  19.732  44.996  11.399
33036W        W 5351  20.237  19.225  12.385
33037W        W 5352  35.094  36.409  12.993
33038W        W 5353  25.036   8.656  10.629
33039W        W 5354   3.239  18.774  12.050
33040W        W 5355  10.656  36.369  14.481
33041W        W 5356   7.850  34.368  11.071
33042W        W 5357  32.525  38.860  13.944
33043W        W 5358  26.976  10.211   4.672
33044W        W 5359  35.968   7.182  14.323
33045W        W 5360  26.964  29.432  11.108
33046W        W 5361  14.711  13.345   3.691
33047W        W 5362  41.906  25.176  10.462
33048W        W 5363   1.324  17.076  14.451
33049W        W 5364   7.243  16.117  12.065
33050W        W 5365  41.801  44.400   4.668
33051W        W 5366  42.850  32.028  13.948
33052W        W 5367  17.655   1.458   3.263
33053W        W 5368  33.510  20.202  14.382
33054W        W 5369  38.043  20.187   1.265
33055W        W 5370  37.010  37.010  11.446
33056W        W 5371   7.864  12.628  11.460
33057W        W 5372  35.989  33.593   4.620
33058W        W 5373   5.245  10.310  13.337
33059W        W 5374  25.160  29.488   4.235
33060W        W 5375  16.087  21.165  12.982
33061W        W 5376   2.343  17.204  11.859
33062W        W 5377  27.985   2.764   3.846
33063W        W 5378  27.609  23.021  13.846
33064W        W 5379  44.891  41.512   3.167
33065W        W 5380  34.613  23.726  14.023
33066W        W 5381  31.506  12.290  13.484
33067W        W 5382  24.150   2.829   0.754
33068W        W 5383  43.299   8.862   0.902
33069W        W 5384   2.252  35.073   3.153
33070W        W 5385  40.419  13.317   2.316
33071W        W 5386  29.095  27.067  12.494
33072W        W 5387   4.922  35.022  11.411
33073W        W 5388  44.447   1.898  14.820
33074W        W 5389  18.694  28.033   3.354
33075W        W 5390  40.033  37.832   2.675
33076W        W 5391  36.410  41.826   2.727
33077W        W 5392  34.401   9.274  11.984
33078W        W 5393  23.539   3.234  10.610
33079W        W 5394   1.815  14.701   4.776
33080W        W 5395  18.769   4.877  13.879
33081W        W 5396  28.991  25.042   4.340
33082W        W 5397  36.952  12.647   3.299
33083W        W 5398   1.821  15.174  14.973
33084W        W 5399   3.310  37.417  14.970
33085W        W 5400  13.678  42.920   4.832
33086W        W 5401  11.129  31.907  10.577
33087W        W 5402  30.112   7.176  12.025
33088W        W 5403  20.253  12.243   0.863
33089W        W 5404  26.181  42.808  12.412
33090W        W 5405  43.770   5.260  14.434
33091W        W 5406  34.563  17.071  10.603
33092W        W 5407   3.759  28.178   0.916
33093W        W 5408  38.510  37.371  11.527
33094W        W 5409  34.872   2.234   3.657
33095W        W 5410  17.191  12.835  13.375
33096W        W 5411  24.681   9.748  14.420
33097W        W 5412  33.977  28.171   4.621
33098W        W 5413  17.673  11.281   3.653
33099W        W 5414  14.095  17.122   1.747
33100W        W 5415  29.091  33.429  13.971
33101W        W 5416  29.526   8.325   1.822
33102W        W 5417  11.197  26.598  10.932
33103W        W 5418  41.925  42.853  12.083
33104W        W 5419  41.942  12.698   4.286
33105W        W 5420  22.148  44.902   0.790
33106W        W 5421  42.449  39.903  12.418
33107W        W 5422  34.435   0.268   0.894
33108W        W 5423  24.703  23.733  11.556
33109W        W 5424  15.726  34.088  10.897
33110W        W 5425   9.873  23.642   0.846
33111W        W 5426  23.584  24.654   0.309
33112W        W 5427  15.171  26.968  13.987
33113W        W 5428  20.238  11.634   3.742
33114W        W 5429  20.749  20.740  10.954
33115W        W 5430  42.419  25.198  14.899
33116W        W 5431  30.016  33.874   1.313
33117W        W 5432  11.344  24.523   1.222
33118W        W 5433  30.028  10.231  14.935
33119W        W 5434  32.533  40.954   3.292
33120W        W 5435   9.207  41.517   4.601
33121W        W 5436  37.957  38.368  12.539
33122W        W 5437  25.019   0.277  12.044
33123W        W 5438  16.128  36.433   3.342
33124W        W 5439  30.998  44.298   9.965
33125W        W 5440  43.371   8.818  13.951
33126W        W 5441   7.318   9.236   0.745
33127W        W 5442  22.505  15.183   2.179
33128W        W 5443  43.333  29.955   1.278
33129W        W 5444  27.691   6.254   4.726
33130W        W 5445  35.885  31.575   2.801
33131W        W 5446  25.183  40.980   1.415
33132W        W 5447   8.864  39.828   1.218
33133W        W 5448   9.314  26.056   1.864
33134W        W 5449   2.398  43.431   4.765
33135W        W 5450   3.319   2.743  12.052
33136W        W 5451  25.490  27.507   4.832
33137W        W 5452  31.961   7.201   4.688
33138W        W 5453  16.083   6.324  13.004
33139W        W 5454  25.121  44.393  11.066
33140W        W 5455  13.319  43.788  12.942
33141W        W 5456  23.028  30.079   4.244
33142W        W 5457  18.051  23.033  10.890
33143W        W 5458  35.968  43.972  12.543
33144W        W 5459  30.481   7.866  14.004
33145W        W 5460  37.535  14.192  14.009
33146W        W 5461   6.184  23.185   0.307
33147W        W 5462  13.240   7.715   0.475
33148W        W 5463  31.041  35.941   3.376
33149W        W 5464   2.831  35.914   0.844
33150W        W 5465  31.046   6.914  13.433
33151W        W 5466  24.101  26.132   1.918
33152W        W 5467  18.259  31.079  12.834
33153W        W 5468  29.543  27.649   0.249
33154W        W 5469   3.776  26.108   4.135
33155W        W 5470   0.813  23.135  13.980
33156W        W 5471  42.947  44.374  13.915
33157W        W 5472   2.356  25.173  10.940
33158W        W 5473   5.904  44.762  10.952
33159W        W 5474  28.991  19.049  11.438
33160W        W 5475   0.280   4.892   4.219
33161W        W 5476  10.375   7.670  13.884
33162W        W 5477  39.447  18.546   1.790
33163W        W 5478  13.146  42.842  12.083
33164W        W 5479  34.061  24.673  10.893
33165W        W 5480  11.134  30.912  13.540
33166W        W 5481  41.420  35.952   1.873
33167W        W 5482  44.459  34.055  14.293
33168W        W 5483  16.586  28.465   2.836
33169W        W 5484  31.130  14.826   4.728
33170W        W 5485  19.041  30.108  14.878
33171W        W 5486  39.958  34.575   1.871
33172W        W 5487  31.148   1.279   1.384
33173W        W 5488  36.883  12.164  13.534
33174W        W 5489  19.775   9.338  11.907
33175W        W 5490  43.313  39.939   2.297
33176W        W 5491  13.761  18.149   4.230
33177W        W 5492  27.518   0.975  11.973
33178W        W 5493  24.074   4.895   1.895
33179W        W 5494  25.548  24.033  13.471
33180W        W 5495  23.496  23.533   0.949
33181W        W 5496  13.777  23.995  11.599
33182W        W 5497  16.647  17.775  13.413
33183W        W 5498  42.304  29.558  10.455
33184W        W 5499   5.857  31.588   1.441
33185W        W 5500  27.063   7.377  14.826
33186W        W 5501   4.723  30.417  10.159
33187W        W 5502   4.883  41.398  10.590
33188W        W 5503  15.215  26.997   0.308
33189W        W 5504  29.630  40.977  10.441
33190W        W 5505  28.664   4.301  13.881
33191W        W 5506  33.107  41.843   2.829
33192W        W 5507  14.824  44.450  11.398
33193W        W 5508  30.429  21.520   0.821
33194W        W 5509  20.211  35.404   2.690
33195W        W 5510  44.422   3.256  12.372
33196W        W 5511  27.530  26.687   2.710
33197W        W 5512  26.055  29.601   0.391
33198W        W 5513  16.179  28.089   0.750
33199W        W 5514   8.256  32.393  13.935
33200W        W 5515  29.651   1.252   2.706
33201W        W 5516  31.637  19.167  11.371
33202W        W 5517   8.877   8.665   1.760
33203W        W 5518  25.082   6.336  10.041
33204W        W 5519  15.605  19.165  13.930
33205W        W 5520  24.102   5.326  14.486
33206W        W 5521  35.491   3.349  10.428
33207W        W 5522  27.962  37.566  14.845
33208W        W 5523  20.261  39.439   0.955
33209W        W 5524  24.094  16.254  12.076
33210W        W 5525  37.341  42.295   1.716
33211W        W 5526  17.081  25.107  10.608
33212W        W 5527  26.090  37.460  12.513
33213W        W 5528   6.333   1.923   9.941
33214W        W 5529  40.407  39.466   1.249
33215W        W 5530  28.057  22.203   0.936
33216W        W 5531  40.374  28.973   0.444
33217W        W 5532  41.799  13.239  10.404
33218W        W 5533  22.112  37.345   3.241
33219W        W 5534  38.383   2.763   0.775
33220W        W 5535  38.325   4.339   1.932
33221W        W 5536   7.684   4.422  14.929
33222W        W 5537  21.625  35.030  12.971
33223W        W 5538  18.271  27.191   1.721
33224W        W 5539  43.889  35.580   3.705
33225W        W 5540  21.129  32.023  14.382
33226W        W 5541   7.719  34.999   4.136
33227W        W 5542  13.341   4.881  13.970
33228W        W 5543   1.747  27.146  11.008
33229W        W 5544  29.984  14.235  10.590
33230W        W 5545  30.443  35.476   2.779
33231W        W 5546  25.200  37.523   0.815
33232W        W 5547   9.663  23.719  12.376
33233W        W 5548  25.064  41.419  14.957
33234W        W 5549   2.457   0.293   4.633
33235W        W 5550  34.513  39.961   2.333
33236W        W 5551  26.162   9.885   4.725
33237W        W 5552  38.010  27.670   2.692
33238W        W 5553   6.350  25.683   4.793
33239W        W 5554  32.886  23.514   2.855
33240W        W 5555   0.362  24.508   2.317
33241W        W 5556  28.436  37.487   2.386
33242W        W 5557  43.816  24.688  12.077
33243W        W 5558  26.520   2.891   5.133
33244W        W 5559  30.441   7.322   2.672
33245W        W 5560  21.237  11.350   4.303
33246W        W 5561  36.427  38.010   0.762
33247W        W 5562  44.477  41.927  11.394
33248W        W 5563  40.868   3.376   0.483
33249W        W 5564  23.056   1.458  11.442
33250W        W 5565  36.844   4.925   1.749
33251W        W 5566  15.584  18.244   0.277
33252W        W 5567  18.787  14.665  14.012
33253W        W 5568  30.576  28.105   0.793
33254W        W 5569  24.137  43.981   4.287
33255W        W 5570  11.747  29.659   2.276
33256W        W 5571  34.073  33.988  14.994
33257W        W 5572  32.519  24.123  12.380
33258W        W 5573  43.406  42.313  14.282
33259W        W 5574  22.709  31.901  12.385
33260W        W 5575   2.931  16.156  13.831
33261W        W 5576   8.370  18.084  12.835
33262W        W 5577   3.409  24.009  12.823
33263W        W 5578   1.473  41.947  11.522
33264W        W 5579  44.402   1.294   3.268
33265W        W 5580   1.364  21.024   4.236
33266W        W 5581  34.416  16.611  10.614
33267W        W 5582  24.072   1.815   5.095
33268W        W 5583  23.038  25.198  12.394
33269W        W 5584  33.884  19.247  10.620
33270W        W 5585  21.220   4.343   1.804
33271W        W 5586   3.882  35.574   3.321
33272W        W 5587  25.641   1.966  12.540
33273W        W 5588  20.570  13.127  10.424
33274W        W 5589  17.168  44.925   3.357
33275W        W 5590  38.497  44.403  10.510
33276W        W 5591   4.279   4.245   2.716
33277W        W 5592   1.768   7.679   0.314
33278W        W 5593  14.830  33.425  10.154
33279W        W 5594  38.057  34.475   0.265
33280W        W 5595   7.706  11.287   0.966
33281W        W 5596   6.855  19.171   0.358
33282W        W 5597  27.509   7.726   3.655
33283W        W 5598  11.129  37.986  11.514
33284W        W 5599   3.890  43.354  10.599
33285W        W 5600  32.977   8.678   4.314
33286W        W 5601  14.618  15.593   3.745
33287W        W 5602  27.480  25.664  14.436
33288W        W 5603  29.540   9.395  11.953
33289W        W 5604   2.919  36.468   0.951
33290W        W 5605  21.045  28.991   1.315
33291W        W 5606   9.656   1.781   4.825
33292W        W 5607   6.200  16.639   3.341
33293W        W 5608  12.834  42.433   4.322
33294W        W 5609   4.855  27.617  11.072
33295W        W 5610  14.097  22.122  14.286
33296W        W 5611  25.178  41.314   3.635
33297W        W 5612  32.392  36.070  12.842
33298W        W 5613  23.205  20.039  11.043
33299W        W 5614  22.609  19.649   9.952
33300W        W 5615  39.412  28.978   3.780
33301W        W 5616  43.862   4.855   0.404
33302W        W 5617  36.402  26.106  11.908
33303W        W 5618  17.672  28.482   1.903
33304W        W 5619  10.683  18.051  10.893
33305W        W 5620  36.865  26.143  13.487
33306W        W 5621  25.686  13.234   2.745
33307W        W 5622  40.477  36.494  14.890
33308W        W 5623  44.453  23.106   3.787
33309W        W 5624  32.554  10.165   0.276
33310W        W 5625  35.523  40.954  11.436
33311W        W 5626  33.475  33.437  11.423
33312W        W 5627  39.537  28.658   3.649
33313W        W 5628  31.986  29.918  14.789
33314W        W 5629   6.290  16.259   4.781
33315W        W 5630  13.322  40.860  10.510
33316W        W 5631  15.292  41.526   0.435
33317W        W 5632  25.011   3.789   2.734
33318W        W 5633  10.860  40.853   0.928
33319W        W 5634  43.322  10.217  12.580
33320W        W 5635   8.220  14.637  14.975
33321W        W 5636  36.885  21.218   4.219
33322W        W 5637   6.746  27.556  14.809
33323W        W 5638  32.957  14.780  14.385
33324W        W 5639  39.484  30.029   2.190
33325W        W 5640  29.614  36.436  11.099
33326W        W 5641  42.412  17.584   0.359
33327W        W 5642  34.479   1.757   3.258
33328W        W 5643   2.746  30.482   4.770
33329W        W 5644  16.740  43.958   2.899
33330W        W 5645  14.613   7.239  11.589
33331W        W 5646  18.135  34.553  13.840
33332W        W 5647  25.704  11.748   0.372
33333W        W 5648  30.552  10.863   2.326
33334W        W 5649  18.294  16.676   1.302
33335W        W 5650  38.420  37.405   4.814
33336W        W 5651  37.555   6.712   2.748
33337W        W 5652  36.888  22.681   1.356
33338W        W 5653  44.311  24.139   3.727
33339W        W 5654  39.446  10.210  11.474
33340W        W 5655  14.221  22.218  14.856
33341W        W 5656  29.633  39.977  14.772
33342W        W 5657   4.865   1.823   2.739
33343W        W 5658   5.381  36.011  11.950
33344W        W 5659   1.338  37.443   2.704
33345W        W 5660  43.883  38.394  14.006
33346W        W 5661   5.775   8.863  14.835
33347W        W 5662  36.502  19.609   1.248
33348W        W 5663  26.461   1.814   3.838
33349W        W 5664  31.449   6.706   0.755
33350W        W 5665  38.346  31.624   3.295
33351W        W 5666  11.264  17.151  11.523
33352W        W 5667   6.840  24.632  14.439
33353W        W 5668   7.334  42.402   0.314
33354W        W 5669  31.088  18.547   0.736
33355W        W 5670  30.937  40.535  10.592
33356W        W 5671   9.159   4.862   1.341
33357W        W 5672  41.403  10.288   5.213
33358W        W 5673  33.981  22.676  11.434
33359W        W 5674  38.523   2.407   0.764
33360W        W 5675  14.805  18.655   1.820
33361W        W 5676  40.983  38.066   2.327
33362W        W 5677   9.801   3.441  13.471
33363W        W 5678  25.481  33.906  13.889
33364W        W 5679  11.859  23.572   3.222
33365W        W 5680  41.533  23.649   2.346
33366W        W 5681  14.235   5.208   1.892
33367W        W 5682  16.185  34.446  14.464
33368W        W 5683  13.137  43.815   0.952
33369W        W 5684   8.223   9.249  14.017
33370W        W 5685  44.330  20.214   2.774
33371W        W 5686  43.781  27.683  11.011
33372W        W 5687  27.088  20.134  11.490
33373W        W 5688  10.867   5.809   2.705
33374W        W 5689   2.368  25.604   0.915
33375W        W 5690  19.536  37.018  12.557
33376W        W 5691  10.290  33.536  13.889
33377W        W 5692  14.323  27.186  10.609
33378W        W 5693  31.458  25.698  10.937
33379W        W 5694  14.693   6.297   1.867
33380W        W 5695   2.374  41.833  13.949
33381W        W 5696  14.122  29.578  10.934
33382W        W 5697  43.964   8.798  10.904
33383W        W 5698  19.246  40.428   3.191
33384W        W 5699  15.319  33.040   2.759
33385W        W 5700  44.925  29.432   0.786
33386W        W 5701   2.820   0.812  13.835
33387W        W 5702  10.687  14.718   3.796
33388W        W 5703  32.572   8.349  14.800
33389W        W 5704  14.193   6.264  13.347
33390W        W 5705  42.374   6.321   3.870
33391W        W 5706   2.228  33.062  11.864
33392W        W 5707   8.864  29.622   1.751
33393W        W 5708  29.100  40.867  14.306
33394W        W 5709  13.659  19.635  12.545
33395W        W 5710  26.538  24.035  11.506
33396W        W 5711  34.371  32.500   1.879
33397W        W 5712  32.528  22.561   4.665
33398W        W 5713   3.233  21.591  11.420
33399W        W 5714  30.994  42.464   4.786
33400W        W 5715  20.033  43.899   2.417
33401W        W 5716  14.674  13.142   2.397
33402W        W 5717  28.649  12.821   0.808
33403W        W 5718  15.787  33.967  12.072
33404W        W 5719  43.919  16.080  14.767
33405W        W 5720  24.634  28.994  11.021
33406W        W 5721   4.715  28.971   3.376
33407W        W 5722  27.538  11.818   2.186
33408W        W 5723  17.305  30.963  13.931
33409W        W 5724  27.646  28.452   4.809
33410W        W 5725  36.079  38.472  11.519
33411W        W 5726  36.468  42.285   1.818
33412W        W 5727  12.241  36.508  11.971
33413W        W 5728  39.064  34.104  13.794
33414W        W 5729  20.531   3.893  11.985
33415W        W 5730  25.058   0.415   0.841
33416W        W 5731  35.563  30.588  11.522
33417W        W 5732   1.376   3.856   0.252
33418W        W 5733   1.367  15.592   0.341
33419W        W 5734  38.016  24.020   1.245
33420W        W 5735  30.418   4.865  14.459
33421W        W 5736  10.821  26.679   3.246
33422W        W 5737  44.417  14.723   0.772
33423W        W 5738  28.095  20.557   0.263
33424W        W 5739  38.076  26.063   2.803
33425W        W 5740   3.848  37.940   3.773
33426W        W 5741  14.639  41.967   4.646
33427W        W 5742  12.621   0.284  14.428
33428W        W 5743  42.846  33.037  12.873
33429W        W 5744  33.491   1.394   0.905
33430W        W 5745  38.498  11.845   1.240
33431W        W 5746  13.145  26.578  12.434
33432W        W 5747  41.864  44.380  10.628
33433W        W 5748  34.423  40.983   3.826
33434W        W 5749  22.548  42.786  12.422
33435W        W 5750  28.669  13.718  14.927
33436W        W 5751  31.984  26.552   1.742
33437W        W 5752  28.012  36.862   0.457
33438W        W 5753  21.755  21.636  14.964
33439W        W 5754   5.267  28.161  13.041
33440W        W 5755  31.963  21.066  13.354
33441W        W 5756   6.325  34.460   2.880
33442W        W 5757  16.121  10.260   4.669
33443W        W 5758   8.718  41.797   2.256
33444W        W 5759  14.804   8.894   0.943
33445W        W 5760  38.034  44.418   4.661
33446W        W 5761  35.580  16.108  14.846
33447W        W 5762  10.257  16.094  13.385
33448W        W 5763  17.246  16.073  11.050
33449W        W 5764  11.364  28.030   2.767
33450W        W 5765  42.376  20.682  11.500
33451W        W 5766   3.773  27.553   2.767
33452W        W 5767   1.977  44.433  12.575
33453W        W 5768   2.313  28.671   4.294
33454W        W 5769  13.200  40.374  11.905
33455W        W 5770   3.715  38.342   2.833
33456W        W 5771  12.254  30.571  12.470
33457W        W 5772   9.701  19.572   2.899
33458W        W 5773  24.166  33.023   1.379
33459W        W 5774  27.981   2.325   1.838
33460W        W 5775   1.394  17.567   3.714
33461W        W 5776   7.259  23.530   0.770
33462W        W 5777  33.462   7.378   3.641
33463W        W 5778  33.985  23.002   4.187
33464W        W 5779  38.533   7.403   4.213
33465W        W 5780  25.680   4.830   5.203
33466W        W 5781  41.340  31.609  13.501
33467W        W 5782  31.066  43.778   4.814
33468W        W 5783  30.071  22.115   1.389
33469W        W 5784  10.650  10.871  13.872
33470W        W 5785  22.501   8.864  10.991
33471W        W 5786  42.954   1.779   4.277
33472W        W 5787  36.451  44.450   4.751
33473W        W 5788   7.369  12.834  11.513
33474W        W 5789  27.121   3.948  11.959
33475W        W 5790  10.713  24.645   3.723
33476W        W 5791  27.196  29.949  14.446
33477W        W 5792  38.921  37.429  10.897
33478W        W 5793  20.579  39.879  12.952
33479W        W 5794  28.610   4.371   9.473
33480W        W 5795  32.975  29.979  13.992
33481W        W 5796  13.136  30.564  13.532
33482W        W 5797   6.731  10.758   0.875
33483W        W 5798  31.533  39.496  11.915
33484W        W 5799  39.475  22.229   4.150
33485W        W 5800  29.529  13.659  12.572
33486W        W 5801  20.764  11.348  10.493
33487W        W 5802  28.642  13.202   0.354
33488W        W 5803  36.588   6.214  10.495
33489W        W 5804  24.119   3.392   0.291
33490W        W 5805  33.058  43.442   4.119
33491W        W 5806   3.378  40.865   3.851
33492W        W 5807  22.189  31.046   0.832
33493W        W 5808  41.426   0.300   2.762
33494W        W 5809  22.022  31.967  11.424
33495W        W 5810  28.070  20.731   4.621
33496W        W 5811  14.098   4.279   3.700
33497W        W 5812  41.907  33.980   0.803
33498W        W 5813  38.918  21.034   5.289
33499W        W 5814  19.122  32.053   4.194
33500W        W 5815  17.307  37.057   0.381
33501W        W 5816  35.104   1.451  13.510
33502W        W 5817  12.642  18.121   5.165
33503W        W 5818   0.804   4.776  12.853
33504W        W 5819  10.769  24.601   1.855
33505W        W 5820  33.506  37.891   1.826
33506W        W 5821  22.708  23.623   0.369
33507W        W 5822  32.977  42.288   4.294
33508W        W 5823  33.023   4.927  10.419
33509W        W 5824   3.764  33.552  11.512
33510W        W 5825  30.443  26.992  11.901
33511W        W 5826   9.800  31.919  10.573
33512W        W 5827  15.751   9.689  10.065
33513W        W 5828   4.926  42.999   0.868
33514W        W 5829  14.710  23.698  14.871
33515W        W 5830   4.381  21.737   0.752
33516W        W 5831  34.904  32.894  11.940
33517W        W 5832   7.336  31.112   1.420
33518W        W 5833  31.409  15.648   1.261
33519W        W 5834  14.326  15.233   2.358
33520W        W 5835   2.884  14.316   4.686
33521W        W 5836  11.347  14.703  14.909
33522W        W 5837  30.565  11.166   1.424
33523W        W 5838  30.134  38.970  12.933
33524W        W 5839  11.636  29.606   0.245
33525W        W 5840  40.870   3.248   3.175
33526W        W 5841  21.535  24.618   4.238
33527W        W 5842  23.522  26.031  12.560
33528W        W 5843  10.340   9.292  14.800
33529W        W 5844  26.462  33.559  14.859
33530W        W 5845  41.382   0.746   1.805
33531W        W 5846  33.400  25.660   4.758
33532W        W 5847  41.495  11.654   4.805
33533W        W 5848  23.045  33.396   1.235
33534W        W 5849  35.576  10.303   3.195
33535W        W 5850  31.028  14.105  12.874
33536W        W 5851  37.897   6.260  11.892
33537W        W 5852  36.572  40.470   1.762
33538W        W 5853  41.414  14.239   4.167
33539W        W 5854  12.693  35.088   2.206
33540W        W 5855   7.699  20.159   1.406
33541W        W 5856  35.061  34.379   0.961
33542W        W 5857  38.525   4.838   0.964
33543W        W 5858  19.570   2.443   1.425
33544W        W 5859  30.992   6.397  14.761
33545W        W 5860   6.682   9.319  13.470
33546W        W 5861  19.714   9.800  14.981
33547W        W 5862   2.801   4.863   3.235
33548W        W 5863  17.118  13.764   0.853
33549W        W 5864  22.550  17.146  14.305
33550W        W 5865  24.125   4.761  14.375
33551W        W 5866  20.706  16.747  13.008
33552W        W 5867  25.693   3.953  13.359
33553W        W 5868  20.116  42.871   5.200
33554W        W 5869   8.764   1.860  13.795
33555W        W 5870  31.050  42.316  14.953
33556W        W 5871   5.813  30.472   0.903
33557W        W 5872  33.584  16.228   0.939
33558W        W 5873  12.191   4.423   0.405
33559W        W 5874  22.509   7.756  13.869
33560W        W 5875  20.742  21.591   0.473
33561W        W 5876  24.603   1.932  12.867
33562W        W 5877  38.994  36.370   3.796
33563W        W 5878  38.008  24.714   0.410
33564W        W 5879  42.437  26.169   2.290
33565W        W 5880  33.500  32.476   3.851
33566W        W 5881  37.943  26.635  10.937
33567W        W 5882  19.043  40.363   2.228
33568W        W 5883   5.714   6.805   0.397
33569W        W 5884  32.997  36.083   0.287
33570W        W 5885  11.816  24.117   3.146
33571W        W 5886  17.124   9.273   0.861
33572W        W 5887  33.396  10.305  13.486
33573W        W 5888   8.883  27.180   1.895
33574W        W 5889  36.940  38.922   2.815
33575W        W 5890  20.071   9.288   1.705
33576W        W 5891   5.902  42.423   4.164
33577W        W 5892  13.815   0.468   4.785
33578W        W 5893   4.325   2.402   4.766
33579W        W 5894   1.961  25.022  12.073
33580W        W 5895   9.859  29.124  10.607
33581W        W 5896  10.718  25.151   1.422
33582W        W 5897   6.202  38.977   4.326
33583W        W 5898   2.747  33.887  14.515
33584W        W 5899  14.301   5.824   1.327
33585W        W 5900  12.742   0.292  12.080
33586W        W 5901  42.903  21.069   0.828
33587W        W 5902  21.721  11.258   1.872
33588W        W 5903  26.151   3.399  14.787
33589W        W 5904   2.746   5.219   3.758
33590W        W 5905   0.333  41.307  13.804
33591W        W 5906   1.379  38.485  13.027
33592W        W 5907  31.420  27.521  13.995
33593W        W 5908  26.467  36.872   3.727
33594W        W 5909  27.606  24.602   0.805
33595W        W 5910   6.293  28.640   0.807
33596W        W 5911  17.139  16.177  10.535
33597W        W 5912  32.610  44.903   1.736
33598W        W 5913  36.475  25.485  13.969
33599W        W 5914  12.635  16.698  14.417
33600W        W 5915  35.068   4.747   5.208
33601W        W 5916  39.333   5.865   1.348
33602W        W 5917   5.729  25.119   4.688
33603W        W 5918  37.513  30.977   2.320
33604W        W 5919  16.274   8.264  13.920
33605W        W 5920  20.207  42.874  11.555
33606W        W 5921  37.835  10.760  13.433
33607W        W 5922   5.754  42.907   3.691
33608W        W 5923   6.188  10.813  13.822
33609W        W 5924  18.160  38.570  11.029
33610W        W 5925  30.641  31.144   4.304
33611W        W 5926  37.904   2.910  11.098
33612W        W 5927  28.680  41.319   4.154
33613W        W 5928  38.466  24.721  14.314
33614W        W 5929   9.325   8.323  10.621
33615W        W 5930  42.287  12.631  14.902
33616W        W 5931  44.312  12.834   3.690
33617W        W 5932  15.264  22.583   3.758
33618W        W 5933  26.030   5.921   0.750
33619W        W 5934   8.203   1.257  14.430
33620W        W 5935  18.645   6.681   1.382
33621W        W 5936  20.175  44.985  11.446
33622W        W 5937  44.931  36.357  12.948
33623W        W 5938  36.454  39.466   4.633
33624W        W 5939  24.062  33.533  12.834
33625W        W 5940  10.234  44.953  14.286
33626W        W 5941  38.378   6.901  11.522
33627W        W 5942   0.972  37.504   4.303
33628W        W 5943  30.427  16.118  13.502
33629W        W 5944   6.207  33.411   1.751
33630W        W 5945  27.099  11.857  13.393
33631W        W 5946  41.035   8.675   1.277
33632W        W 5947   1.842  31.587  13.843
33633W        W 5948  19.283  28.136  10.907
33634W        W 5949  14.780  41.018  11.409
33635W        W 5950  35.061   9.709   4.179
33636W        W 5951  33.912  28.600  11.114
33637W        W 5952  25.487  22.017  12.344
33638W        W 5953   6.255   4.372   3.380
33639W        W 5954  41.311  30.628  12.575
33640W        W 5955  19.133  12.630   0.443
33641W        W 5956  37.483   1.967   4.188
33642W        W 5957  29.100  42.524   3.279
33643W        W 5958  23.527   0.923  10.599
33644W        W 5959  27.121  19.104   0.817
33645W        W 5960  19.059  44.342   2.839
33646W        W 5961  41.923  30.969  10.894
33647W        W 5962  25.037   4.786  13.811
33648W        W 5963  27.519  37.065  11.516
33649W        W 5964  33.983   8.348   4.287
33650W        W 5965   7.777  26.147  11.492
33651W        W 5966  15.747  36.499   0.416
33652W        W 5967  19.641  34.407  12.441
33653W        W 5968   5.394  33.038   0.271
33654W        W 5969  22.724  18.706   2.884
33655W        W 5970  38.455   8.324   3.259
33656W        W 5971  15.802  40.871  14.867
33657W        W 5972  10.368  28.130  14.951
33658W        W 5973  34.530  22.521  14.931
33659W        W 5974  25.601  32.080   0.279
33660W        W 5975  40.012  34.057   4.136
33661W        W 5976   8.256  41.906   0.868
33662W        W 5977   0.783  37.985   0.394
33663W        W 5978   4.444  36.380  11.477
33664W        W 5979  22.552  32.533   3.186
33665W        W 5980  18.765  41.031  14.932
33666W        W 5981  19.747  16.744  11.597
33667W        W 5982  14.817  14.328   0.932
33668W        W 5983   1.255  14.315   5.293
33669W        W 5984  40.910  43.987  14.367
33670W        W 5985  32.055   5.319  14.481
33671W        W 5986  15.818   7.403   1.883
33672W        W 5987  17.686  26.012  11.479
33673W        W 5988  28.591  38.865  12.452
33674W        W 5989   1.246  13.115  11.107
33675W        W 5990   8.855  21.555  14.438
33676W        W 5991  11.855  33.016   0.360
33677W        W 5992  44.963  29.462   2.835
33678W        W 5993  26.584  38.069   2.413
33679W        W 5994  41.400   1.261  11.028
33680W        W 5995  38.034  39.816  13.520
33681W        W 5996   0.436   1.459  11.975
33682W        W 5997  18.219  20.198  11.880
33683W        W 5998  19.657   3.429   0.337
33684W        W 5999   3.361   4.354   2.214
33685W        W 6000   1.823  20.568  13.014
33686W        W 6001   3.815   1.752  12.426
33687W        W 6002  30.030  18.137   3.285
33688W        W 6003  25.561  33.544  11.547
33689W        W 6004   4.790  36.983   3.262
33690W        W 6005  20.227  27.661   4.224
33691W        W 6006  14.612  43.980  13.898
33692W        W 6007   6.700  22.526   4.663
33693W        W 6008  20.662  10.692  11.927
33694W        W 6009  23.212  16.241   0.308
33695W        W 6010  35.890   5.789   0.763
33696W        W 6011  12.636  20.754   1.241
33697W        W 6012  20.627  16.121   2.886
33698W        W 6013  24.028  24.597   2.870
33699W        W 6014  11.190  27.997  13.318
33700W        W 6015   9.266  44.453   1.422
33701W        W 6016  19.130  17.601  11.919
33702W        W 6017  37.078   2.966   2.368
33703W        W 6018  17.600  16.781  12.019
33704W        W 6019  16.619   8.195  12.440
33705W        W 6020  25.107  37.547   2.730
33706W        W 6021  11.196  27.040   0.304
33707W        W 6022  34.396  21.181   1.789
33708W        W 6023   9.684  17.788   1.932
33709W        W 6024  37.021  25.605   0.295
33710W        W 6025  23.995  39.864   1.432
33711W        W 6026  26.464  19.612  10.129
33712W        W 6027  15.650  12.130   4.129
33713W        W 6028   5.837  29.483   3.714
33714W        W 6029   4.746  38.571  12.930
33715W        W 6030  19.598  17.716   3.655
33716W        W 6031   3.755   0.443  14.845
33717W        W 6032  21.556   7.724   4.344
33718W        W 6033  32.451  11.298  12.839
33719W        W 6034  22.552   8.887  12.502
33720W        W 6035  13.268   3.770  10.485
33721W        W 6036  36.562   2.303  14.339
33722W        W 6037  35.546  22.524   1.345
33723W        W 6038  25.068  20.203  13.440
33724W        W 6039  36.485  40.441   4.221
33725W        W 6040  31.513  29.591   3.824
33726W        W 6041   3.754  30.617  14.889
33727W        W 6042   1.760  13.750  14.414
33728W        W 6043  35.931  28.009  13.899
33729W        W 6044  28.102  35.549   0.858
33730W        W 6045  34.945   3.328   2.897
33731W        W 6046   8.398  27.517   0.436
33732W        W 6047  11.664   4.788  10.960
33733W        W 6048  16.105  22.627  10.425
33734W        W 6049  24.647   3.455   2.818
33735W        W 6050  16.703  24.097  11.977
33736W        W 6051   7.292  24.668  10.447
33737W        W 6052  33.019  42.418   0.342
33738W        W 6053   8.186  26.015  10.618
33739W        W 6054  18.091  27.548  14.486
33740W        W 6055  22.173  21.057   5.716
33741W        W 6056  41.980   6.202   1.927
33742W        W 6057   1.786  11.678   3.767
33743W        W 6058  27.479  19.193   1.389
33744W        W 6059  18.178   3.750  14.916
33745W        W 6060  41.955  44.870   3.766
33746W        W 6061  28.531  35.450   0.444
33747W        W 6062  13.611   8.235   0.916
33748W        W 6063  16.648  34.051   1.447
33749W        W 6064  20.593  14.830   3.376
33750W        W 6065  44.925  14.200   4.176
33751W        W 6066   8.179   8.195   3.226
33752W        W 6067  30.951  44.388  13.853
33753W        W 6068  44.306  44.271   4.129
33754W        W 6069   5.693   7.815   2.387
33755W        W 6070   1.904  42.428   4.193
33756W        W 6071  27.138  33.061  14.514
33757W        W 6072  41.464  38.968  12.489
33758W        W 6073  28.660  43.998  13.497
33759W        W 6074  12.811   8.769   2.848
33760W        W 6075  37.481   3.287   0.440
33761W        W 6076   4.735  15.672  12.544
33762W        W 6077  16.176  27.503   4.759
33763W        W 6078  37.833  39.409  12.513
33764W        W 6079  14.126  38.827  10.550
33765W        W 6080   8.826  10.208   0.839
33766W        W 6081  19.095   5.370  12.929
33767W        W 6082   9.791  27.080  13.485
33768W        W 6083  14.799  12.741  11.518
33769W        W 6084  18.547   9.374   1.797
33770W        W 6085  20.248   0.417   4.781
33771W        W 6086  43.924  44.783   0.876
33772W        W 6087   8.747  28.568   0.730
33773W        W 6088  40.504  18.188   4.712
33774W        W 6089  32.508  13.117  13.341
33775W        W 6090  40.354  36.076   4.353
33776W        W 6091  30.101  13.798   1.289
33777W        W 6092  37.029   5.421   1.214
33778W        W 6093  10.168  29.137  13.411
33779W        W 6094  19.131  14.167  12.935
33780W        W 6095  14.807  21.698   4.277
33781W        W 6096   0.420  31.609   3.212
33782W        W 6097  10.837  38.423   4.719
33783W        W 6098  14.601  41.821  10.495
33784W        W 6099  25.629  16.195   4.159
33785W        W 6100  40.956  27.495  13.512
33786W        W 6101  36.055  30.060  11.406
33787W        W 6102  16.261  43.311  14.871
33788W        W 6103  43.896  13.736  10.544
33789W        W 6104   0.751  33.053   5.120
33790W        W 6105  16.079   5.196  14.402
33791W        W 6106  10.814  23.173   3.328
33792W        W 6107  27.058  27.553   1.307
33793W        W 6108  11.625   8.683   0.836
33794W        W 6109   5.381  42.406   1.307
33795W        W 6110  22.672   5.271  12.836
33796W        W 6111  19.049  22.188  13.050
33797W        W 6112  12.240  29.440  13.822
33798W        W 6113  21.643  18.209  11.589
33799W        W 6114  28.108  25.973  14.328
33800W        W 6115  22.714  14.181  13.390
33801W        W 6116  39.860  36.416  11.580
33802W        W 6117   9.782  14.666  14.506
33803W        W 6118  27.638  34.950   4.257
33804W        W 6119   0.975  35.910   3.155
33805W        W 6120  24.558  10.668   4.677
33806W        W 6121  17.063  37.565   0.830
33807W        W 6122  39.555  24.029   4.725
33808W        W 6123   3.338  30.615  13.416
33809W        W 6124   9.710  37.861   2.808
33810W        W 6125  14.700  26.122  13.439
33811W        W 6126  15.286  26.613  12.007
33812W        W 6127  36.870   7.183   2.324
33813W        W 6128  38.878  44.954   4.688
33814W        W 6129  38.048  42.386   1.707
33815W        W 6130  33.047   5.923   4.261
33816W        W 6131  33.126  14.136   2.274
33817W        W 6132  17.704   1.261  12.504
33818W        W 6133  19.602  25.511  11.005
33819W        W 6134  43.892  28.000   3.694
33820W        W 6135  22.076  26.188  14.284
33821W        W 6136  23.104  18.079   1.702
33822W        W 6137  38.917  39.003  12.435
33823W        W 6138  11.630   0.272  13.349
33824W        W 6139   9.257   3.932  14.945
33825W        W 6140  13.716  14.689   1.427
33826W        W 6141  14.831  40.928   2.789
33827W        W 6142  25.058  20.154   5.798
33828W        W 6143  17.234  13.746  13.509
33829W        W 6144  13.773  35.987   1.836
33830W        W 6145   8.706  19.265   2.340
33831W        W 6146  24.613  13.152  12.060
33832W        W 6147  26.129   1.773  13.992
33833W        W 6148  43.389  37.077   4.653
33834W        W 6149  24.149  16.156  11.591
33835W        W 6150   0.844   2.819   1.333
33836W        W 6151  36.531   5.411   4.679
33837W        W 6152  43.508   7.268  12.887
33838W        W 6153  16.248  26.101  14.947
33839W        W 6154  29.941  21.247   2.747
33840W        W 6155  43.883  34.516  10.897
33841W        W 6156   5.317  33.618  14.501
33842W        W 6157   5.243  21.237  13.336
33843W        W 6158  39.861  23.086  13.017
33844W        W 6159  13.194  41.874   3.258
33845W        W 6160  14.301  15.301  12.029
33846W        W 6161  17.128  42.319  12.497
33847W        W 6162  34.446  11.799  10.605
33848W        W 6163  22.618   4.766   1.904
33849W        W 6164  21.553  25.152   3.853
33850W        W 6165  30.952  25.534   4.147
33851W        W 6166   0.484  40.354  12.908
33852W        W 6167   8.722   9.191  14.278
33853W        W 6168   2.741  37.945  12.957
33854W        W 6169  29.048  33.450   2.189
33855W        W 6170  12.756  17.687   4.825
33856W        W 6171  36.841  42.010   0.392
33857W        W 6172  15.816   2.825  12.575
33858W        W 6173  16.135  25.564  14.383
33859W        W 6174   0.827   0.853   4.602
33860W        W 6175  30.145  31.646   0.816
33861W        W 6176  21.631   2.830   1.715
33862W        W 6177  42.358   3.430  10.437
33863W        W 6178  25.131  43.907   3.848
33864W        W 6179  38.556  36.411   0.775
33865W        W 6180   5.274  17.242   1.437
33866W        W 6181  40.511  27.503  14.828
33867W        W 6182  29.164   0.832  10.552
33868W        W 6183   1.344  27.625  11.579
33869W        W 6184  10.240   4.855   0.962
33870W        W 6185  34.010  35.038  10.512
33871W        W 6186  33.906  34.073  10.429
33872W        W 6187  35.992  36.855   4.728
33873W        W 6188  39.040  28.133   0.913
33874W        W 6189   4.924  28.666  11.903
33875W        W 6190  15.138  20.670  13.831
33876W        W 6191   6.914  32.390   0.314
33877W        W 6192   0.424  33.521  12.827
33878W        W 6193  28.447   8.852   5.233
33879W        W 6194  21.554   2.729   3.836
33880W        W 6195  44.949  21.570  13.547
33881W        W 6196  43.394  17.695  13.462
33882W        W 6197  26.181  41.353  13.015
33883W        W 6198  31.021  15.659  13.908
33884W        W 6199  12.626  15.286  10.470
33885W        W 6200  27.115   1.348   1.218
33886W        W 6201  24.183  44.468  11.416
33887W        W 6202  22.664   3.269   1.334
33888W        W 6203  34.504  23.043   4.328
33889W        W 6204  24.657  31.488   1.849
33890W        W 6205  42.298  28.620   2.760
33891W        W 6206  26.178  20.204  14.385
33892W        W 6207  24.544  11.242  12.514
33893W        W 6208   9.772  38.831   0.730
33894W        W 6209   9.194  37.869  10.555
33895W        W 6210   4.277  40.836  12.492
33896W        W 6211   9.216  37.000   2.398
33897W        W 6212   0.818  24.591  10.890
33898W        W 6213   5.712  33.611   0.914
33899W        W 6214  34.102   5.366   1.720
33900W        W 6215   8.728  13.124  14.766
33901W        W 6216  37.527  10.285   5.322
33902W        W 6217  11.645   6.758  14.002
33903W        W 6218  38.905  35.506   0.787
33904W        W 6219  21.566  23.037  10.911
33905W        W 6220  40.354  37.544   0.270
33906W        W 6221  29.970  12.356   0.934
33907W        W 6222  16.807  13.138   4.612
33908W        W 6223  14.169  32.555  11.996
33909W        W 6224  30.951  10.644   3.710
33910W        W 6225  44.417  18.171   1.763
33911W        W 6226   7.862  27.990   0.921
33912W        W 6227  21.755   1.876   4.307
33913W        W 6228  42.822  17.559   1.240
33914W        W 6229  25.612  19.145   0.844
33915W        W 6230   7.813  35.009  12.836
33916W        W 6231  27.036  13.284   1.321
33917W        W 6232   5.837  28.166  12.844
33918W        W 6233  26.586   2.299   5.119
33919W        W 6234  23.992  37.000   1.410
33920W        W 6235   5.300  28.069  13.478
33921W        W 6236  38.051  31.520  13.822
33922W        W 6237   6.412  43.021   2.223
33923W        W 6238  43.809  31.069  13.960
33924W        W 6239  16.072   4.933   2.832
33925W        W 6240  40.428   3.251  11.878
33926W        W 6241  39.853  18.129  14.977
33927W        W 6242  23.229   6.243   1.877
33928W        W 6243  12.641   1.918   1.312
33929W        W 6244   6.275  15.309   0.931
33930W        W 6245  17.256   1.411  10.441
33931W        W 6246  15.288   1.843   3.293
33932W        W 6247   4.907  24.081   3.765
33933W        W 6248  13.129  30.004   0.731
33934W        W 6249  39.968   1.289  12.542
33935W        W 6250   9.866  23.519   2.256
33936W        W 6251  22.086   9.728   4.662
33937W        W 6252  40.378  13.780  10.622
33938W        W 6253  20.187   6.228   1.274
33939W        W 6254  31.531  20.651   4.189
33940W        W 6255   4.814  12.724  14.486
33941W        W 6256  44.397   6.394   5.177
33942W        W 6257  17.138  22.735   3.199
33943W        W 6258   4.321  40.353  14.018
33944W        W 6259  42.946  40.986  11.120
33945W        W 6260  26.208   2.442   3.865
33946W        W 6261  10.144   7.206   0.941
33947W        W 6262  21.697  37.349   1.248
33948W        W 6263  17.697  34.444  14.283
33949W        W 6264  44.941  39.399  11.061
33950W        W 6265  38.941  31.628  10.963
33951W        W 6266  23.118  40.812   2.889
33952W        W 6267  28.637  39.862  14.845
33953W        W 6268  11.840  21.190   4.180
33954W        W 6269  37.565  16.790   3.365
33955W        W 6270   3.360  26.627  12.057
33956W        W 6271  32.945   9.659  11.462
33957W        W 6272   7.907  34.533   3.226
33958W        W 6273  26.149  43.822   1.233
33959W        W 6274  13.719  29.965  12.571
33960W        W 6275  40.820  40.406   3.306
33961W        W 6276   0.776  34.606  11.945
33962W        W 6277  44.298  33.028  10.058
33963W        W 6278  16.786  17.153   0.956
33964W        W 6279  35.541  13.626   2.381
33965W        W 6280  25.105  36.348  13.362
33966W        W 6281   5.817  31.485   3.182
33967W        W 6282  38.900   8.384  13.323
33968W        W 6283  17.150  27.482   0.840
33969W        W 6284  13.214  24.580  13.474
33970W        W 6285  26.600  20.116  14.303
33971W        W 6286  11.354  13.292  13.388
33972W        W 6287   8.835  22.502   4.779
33973W        W 6288  19.538  41.506  11.927
33974W        W 6289   0.830   4.906  14.446
33975W        W 6290  20.232  25.182  14.026
33976W        W 6291  40.860  29.982   1.825
33977W        W 6292  41.307  38.819   1.293
33978W        W 6293  43.286  38.471  14.915
33979W        W 6294   4.246  30.520  13.368
33980W        W 6295  26.619   8.193  10.951
33981W        W 6296  36.044  38.963   1.442
33982W        W 6297  41.878  36.028  12.901
33983W        W 6298  23.993  26.959   4.613
33984W        W 6299  21.625   0.908   0.941
33985W        W 6300  13.838  15.098   2.399
33986W        W 6301   5.723   5.809  12.566
33987W        W 6302  18.635  29.939   4.305
33988W        W 6303  17.664  39.026   0.385
33989W        W 6304   3.437  13.677   4.778
33990W        W 6305  30.511  23.019   3.307
33991W        W 6306  33.616  29.082  12.853
33992W        W 6307   9.715  19.777  12.054
33993W        W 6308  37.500  19.097   2.709
33994W        W 6309   3.278  42.941  11.119
33995W        W 6310  32.123  28.064  11.469
33996W        W 6311  35.056  27.608   1.716
33997W        W 6312  28.545  26.094  13.977
33998W        W 6313   7.672  11.692   1.889
33999W        W 6314  13.209  33.926  11.929
34000W        W 6315  35.921   6.428   2.804
34001W        W 6316   3.801  31.447  13.833
34002W        W 6317   3.435   5.751   9.922
34003W        W 6318  25.171  27.563  12.457
34004W        W 6319   7.385  25.503   2.857
34005W        W 6320  18.181  28.020  10.533
34006W        W 6321  28.467   6.746   2.677
34007W        W 6322  38.003  33.959  10.629
34008W        W 6323  28.452  35.065  13.817
34009W        W 6324  33.601  42.346   4.224
34010W        W 6325  41.322  15.761  11.399
34011W        W 6326  14.767  39.338  10.623
34012W        W 6327  15.816  26.532  14.965
34013W        W 6328   8.868  17.706  10.493
34014W        W 6329   7.855  37.451   2.406
34015W        W 6330  21.627  21.537   4.136
34016W        W 6331   2.398   5.815   1.851
34017W        W 6332   3.805  26.683  10.634
34018W        W 6333  10.725  35.949   1.893
34019W        W 6334  30.555  38.448  13.895
34020W        W 6335  26.956  42.843  11.556
34021W        W 6336  36.360   0.942   3.647
34022W        W 6337   0.311  37.528   1.899
34023W        W 6338   3.802  38.478  14.337
34024W        W 6339  35.963  37.073   1.292
34025W        W 6340  15.750  33.966  12.989
34026W        W 6341  27.188  17.704  13.507
34027W        W 6342  39.055  26.481   4.701
34028W        W 6343  40.396  10.229   4.745
34029W        W 6344  31.559  33.875   3.843
34030W        W 6345   3.844   3.278  14.484
34031W        W 6346  42.901  25.203   1.767
34032W        W 6347  13.637  12.671  14.409
34033W        W 6348  18.645  35.888  14.407
34034W        W 6349  40.960  36.401  13.321
34035W        W 6350  28.185   5.846   0.311
34036W        W 6351  41.043   7.338   1.842
34037W        W 6352  42.857  23.676  11.123
34038W        W 6353  23.153  20.144  12.046
34039W        W 6354   2.328  27.080   0.445
34040W        W 6355  28.120   8.323   2.755
34041W        W 6356  23.182  26.653   4.688
34042W        W 6357   6.296  21.107  14.300
34043W        W 6358  24.609  24.682  11.105
34044W        W 6359   0.353  18.604   3.656
34045W        W 6360   6.899   9.757   2.332
34046W        W 6361  32.964  34.902  12.840
34047W        W 6362  27.652  32.913  14.324
34048W        W 6363   8.833  16.080  13.317
34049W        W 6364  11.219  25.166  13.819
34050W        W 6365  38.052  19.723  10.926
34051W        W 6366  10.675  21.156   4.318
34052W        W 6367   1.812  36.412   0.966
34053W        W 6368  25.494  33.036  14.382
34054W        W 6369  17.141  21.591  14.771
34055W        W 6370  29.456  15.138  11.010
34056W        W 6371  31.935  21.047   4.600
34057W        W 6372  37.431  43.786   4.698
34058W        W 6373  20.592  42.997  12.401
34059W        W 6374  38.476  39.414  14.805
34060W        W 6375  16.664  20.753  12.057
34061W        W 6376   6.794  41.463  14.801
34062W        W 6377  13.656  36.863   4.270
34063W        W 6378  32.116  26.490   5.303
34064W        W 6379  27.057  24.662  12.490
34065W        W 6380   6.722  23.725   0.295
34066W        W 6381  44.313  14.170   9.968
34067W        W 6382  13.808  33.028   3.846
34068W        W 6383  12.765  20.031  14.008
34069W        W 6384  27.003  43.343  10.964
34070W        W 6385   4.449   7.783  13.004
34071W        W 6386  18.653  42.333  12.454
34072W        W 6387  17.214  11.820  14.870
34073W        W 6388  14.196  39.933  10.473
34074W        W 6389  41.389   3.364   1.826
34075W        W 6390  25.512  20.126   4.653
34076W        W 6391  38.970  33.117  13.005
34077W        W 6392  36.452  36.001  10.516
34078W        W 6393  26.114  26.467   0.342
34079W        W 6394  14.171   4.727   0.303
34080W        W 6395   8.297  17.689  13.028
34081W        W 6396  38.541  25.596   1.390
34082W        W 6397  43.944   1.286  11.875
34083W        W 6398  32.521  25.530   1.696
34084W        W 6399   7.364  40.514   2.882
34085W        W 6400   3.328   0.494   1.226
34086W        W 6401  31.575  15.782  12.398
34087W        W 6402   5.340  15.605  10.058
34088W        W 6403  28.480  13.147   2.780
34089W        W 6404  21.142  21.066  12.531
34090W        W 6405  41.976   3.449   3.364
34091W        W 6406  27.157  12.319  14.496
34092W        W 6407  27.185   3.261   5.682
34093W        W 6408  24.125  39.360  13.902
34094W        W 6409   8.287  22.156   4.261
34095W        W 6410  25.107  42.797  12.382
34096W        W 6411  13.247  33.955   3.360
34097W        W 6412  30.523  39.030  11.047
34098W        W 6413  25.655  32.922  10.620
34099W        W 6414  12.119  24.714   2.745
34100W        W 6415   0.430  44.414  10.583
34101W        W 6416   7.888  23.117   2.770
34102W        W 6417  14.194  41.915  13.434
34103W        W 6418  27.106  26.600  11.451
34104W        W 6419  12.159   8.276   3.744
34105W        W 6420   2.381  32.924  12.448
34106W        W 6421  18.196  18.634   4.147
34107W        W 6422  14.109  34.396   3.720
34108W        W 6423  21.121  16.737  14.919
34109W        W 6424  32.519  12.726  14.825
34110W        W 6425  13.683  19.710  14.360
34111W        W 6426  28.931  15.622   5.214
34112W        W 6427  30.093  34.486   2.300
34113W        W 6428   5.273  18.244   4.794
34114W        W 6429  13.642   2.723  12.909
34115W        W 6430  22.067  17.288   4.739
34116W        W 6431  37.393  17.777  14.475
34117W        W 6432   2.922  44.274   1.873
34118W        W 6433  32.466  35.053  13.901
34119W        W 6434  39.978  27.991  12.352
34120W        W 6435  17.586  15.595   2.888
34121W        W 6436  34.037  15.584  13.857
34122W        W 6437  29.145  42.936   3.789
34123W        W 6438   6.312  34.524   0.349
34124W        W 6439  43.488  38.003   1.708
34125W        W 6440  29.548  20.047   2.279
34126W        W 6441  32.616  11.666   0.261
34127W        W 6442  21.613  28.521  12.955
34128W        W 6443  36.528  32.948   2.835
34129W        W 6444  26.569  13.715  10.919
34130W        W 6445  25.113  19.230  11.030
34131W        W 6446  35.951  43.378  11.598
34132W        W 6447   0.818  17.615   0.422
34133W        W 6448  39.445  38.947   3.284
34134W        W 6449   6.348  25.208   1.325
34135W        W 6450   7.859  42.988  14.886
34136W        W 6451  29.925  31.984  10.546
34137W        W 6452  43.000  19.738  10.601
34138W        W 6453  17.708  18.126  13.844
34139W        W 6454  29.664   4.354   5.122
34140W        W 6455  22.043  29.560  14.897
34141W        W 6456  22.109  24.178  12.486
34142W        W 6457  15.176  24.681   0.389
34143W        W 6458   4.394   0.756  10.615
34144W        W 6459  33.953  37.508   0.911
34145W        W 6460  40.822  42.522   1.862
34146W        W 6461   5.295  34.001   2.269
34147W        W 6462   2.329  23.104  14.940
34148W        W 6463   0.454  32.055   0.932
34149W        W 6464  11.712  13.702  10.407
34150W        W 6465  38.329   3.725   3.306
34151W        W 6466  42.365  11.681  11.933
34152W        W 6467  44.293   6.282  10.571
34153W        W 6468   8.807  38.453  13.514
34154W        W 6469  13.300  39.446   0.300
34155W        W 6470  10.665  19.216   1.793
34156W        W 6471  30.081   4.367  11.485
34157W        W 6472   6.751  42.984   3.292
34158W        W 6473   4.768  31.546  14.841
34159W        W 6474  20.686   0.883  14.412
34160W        W 6475  13.611  20.659  12.459
34161W        W 6476  36.506  17.725  12.836
34162W        W 6477  31.616  29.649   1.287
34163W        W 6478   3.326  37.463   0.299
34164W        W 6479  41.462  11.764  10.412
34165W        W 6480   7.244   4.212  13.455
34166W        W 6481   6.194   0.793  12.535
34167W        W 6482   0.323  31.623  11.933
34168W        W 6483  10.843  27.187   1.312
34169W        W 6484  20.245  25.488  12.462
34170W        W 6485   0.403   7.888  14.992
34171W        W 6486  29.942  39.027  11.937
34172W        W 6487  10.800  22.628  10.969
34173W        W 6488  23.583  13.205   3.179
34174W        W 6489  37.983   0.807  13.419
34175W        W 6490  28.051  10.637  13.002
34176W        W 6491  23.234   9.673   0.477
34177W        W 6492  24.493  25.009   4.257
34178W        W 6493  22.996  16.713   0.322
34179W        W 6494  24.546  14.340   2.371
34180W        W 6495   8.361  26.604  11.396
34181W        W 6496   1.315   2.422  13.502
34182W        W 6497   7.747  31.617   3.726
34183W        W 6498  38.415  13.298  13.375
34184W        W 6499  37.418  26.663   2.357
34185W        W 6500  36.395  25.628  12.475
34186W        W 6501  41.791   9.645   1.229
34187W        W 6502  37.477  43.806   3.324
34188W        W 6503  19.165  10.244  10.048
34189W        W 6504  32.447  10.196   9.973
34190W        W 6505   4.927   2.277   2.234
34191W        W 6506  16.272  11.833  11.866
34192W        W 6507  38.982  41.306   4.333
34193W        W 6508  34.924  33.984  11.076
34194W        W 6509  22.061  31.005  13.405
34195W        W 6510  26.085  42.439  12.472
34196W        W 6511   8.900  24.101  11.563
34197W        W 6512  44.265  30.572   0.816
34198W        W 6513  28.522   0.346  10.602
34199W        W 6514  44.475   0.831  14.907
34200W        W 6515  12.830  21.238  13.054
34201W        W 6516  16.784   4.782   2.297
34202W        W 6517  42.030  43.834   0.278
34203W        W 6518   5.907  21.167   4.232
34204W        W 6519   7.366  11.810   3.147
34205W        W 6520  30.046   8.391   2.865
34206W        W 6521  24.124   5.769   3.797
34207W        W 6522  28.999   1.779  11.559
34208W        W 6523  41.360  15.682  10.433
34209W        W 6524  12.206   1.245  13.950
34210W        W 6525  21.260  28.552   3.308
34211W        W 6526   2.850  32.514  14.026
34212W        W 6527  33.397   2.848   0.870
34213W        W 6528  25.973  36.537   4.333
34214W        W 6529  30.982  25.176   1.739
34215W        W 6530  33.077  44.869   4.694
34216W        W 6531  29.483  30.036   2.814
34217W        W 6532   8.405   8.349   4.211
34218W        W 6533  36.908  19.726  12.367
34219W        W 6534   0.428   6.429  13.453
34220W        W 6535  39.380   7.720  13.462
34221W        W 6536   5.853  10.766  12.843
34222W        W 6537  16.756   7.290   1.394
34223W        W 6538  39.993  19.764   1.810
34224W        W 6539  33.971  38.566  11.907
34225W        W 6540   5.223  11.851   0.375
34226W        W 6541  10.158  30.499  10.160
34227W        W 6542  40.806  42.947   1.239
34228W        W 6543  28.025   9.698   1.366
34229W        W 6544   4.333  41.441  13.987
34230W        W 6545  11.299   4.893   3.318
34231W        W 6546  12.164  25.152  10.936
34232W        W 6547  20.213  14.668   1.925
34233W        W 6548   0.988  39.958  11.457
34234W        W 6549  11.707   2.362  12.038
34235W        W 6550   5.318   9.278   1.825
34236W        W 6551  44.961  43.920   4.774
34237W        W 6552   5.344  35.374   3.217
34238W        W 6553  17.298  39.875  14.955
34239W        W 6554  14.128  21.022   5.207
34240W        W 6555  29.985  36.396  14.399
34241W        W 6556  29.558   4.776   0.247
34242W        W 6557  42.814  15.149  10.418
34243W        W 6558   1.941  13.290  12.932
34244W        W 6559  33.983  18.776   4.244
34245W        W 6560   2.437  42.849  10.902
34246W        W 6561  39.890  22.084   3.275
34247W        W 6562  34.434   8.339   1.289
34248W        W 6563  42.362  20.549  13.874
34249W        W 6564  38.947   2.239  11.892
34250W        W 6565  15.222  26.091   0.252
34251W        W 6566  15.307  17.683   0.283
34252W        W 6567  40.334  21.747   1.802
34253W        W 6568  20.049  39.499  13.446
34254W        W 6569  28.987   9.772  14.802
34255W        W 6570   5.295  23.202   0.782
34256W        W 6571  23.024  38.008  14.936
34257W        W 6572  33.443  22.177  11.393
34258W        W 6573  20.154  34.013  10.551
34259W        W 6574  32.404  17.120  13.536
34260W        W 6575  30.951  34.511  11.400
34261W        W 6576  32.930  30.052   2.773
34262W        W 6577  14.139  34.869  14.439
34263W        W 6578  35.860  18.164   4.135
34264W        W 6579  16.250   2.344   3.858
34265W        W 6580  19.628   9.726  12.093
34266W        W 6581  31.596  19.778   0.934
34267W        W 6582   1.434  35.549  13.816
34268W        W 6583   8.739   7.262   0.760
34269W        W 6584  19.060  32.446   2.874
34270W        W 6585   3.945   4.886  12.480
34271W        W 6586  17.133  25.553   0.416
34272W        W 6587  25.542   9.202  11.114
34273W        W 6588  36.855   9.391  11.586
34274W        W 6589  31.482  22.199  12.397
34275W        W 6590  28.661   8.391  13.891
34276W        W 6591  20.643  21.220  11.014
34277W        W 6592  26.503   1.344  11.373
34278W        W 6593  31.514  35.872   4.623
34279W        W 6594  29.014  16.314  11.861
34280W        W 6595  37.056  21.123  11.384
34281W        W 6596  12.719  35.071  11.954
34282W        W 6597  19.637  13.257  12.352
34283W        W 6598   3.753   3.427   2.299
34284W        W 6599   8.678  24.998   4.327
34285W        W 6600  40.015  25.059   1.911
34286W        W 6601  28.566  30.631   3.708
34287W        W 6602  33.541   8.682   3.372
34288W        W 6603   1.466  16.783   2.238
34289W        W 6604  24.598  21.611   4.770
34290W        W 6605  13.141  39.965  13.895
34291W        W 6606  30.082  28.178   4.670
34292W        W 6607   8.705  27.653   4.236
34293W        W 6608  35.459  36.069  14.441
34294W        W 6609  13.308  37.915   0.879
34295W        W 6610  23.232  21.225  13.368
34296W        W 6611  42.883   6.320   2.410
34297W        W 6612  42.844  15.219   2.799
34298W        W 6613   2.839  20.213   2.305
34299W        W 6614  10.213   9.180  12.937
34300W        W 6615   3.346  36.579   4.693
34301W        W 6616  23.126  35.511   0.441
34302W        W 6617  43.886  39.863  14.340
34303W        W 6618   7.855  22.995   1.845
34304W        W 6619  22.123   1.351   4.118
34305W        W 6620  18.630  43.780  13.010
34306W        W 6621  26.650  39.986  12.069
34307W        W 6622   7.676   0.330  11.101
34308W        W 6623  44.995  24.051  14.287
34309W        W 6624  30.006  29.116   0.880
34310W        W 6625  19.581  36.917  13.006
34311W        W 6626  30.562  29.159   2.714
34312W        W 6627   0.266  30.597  11.037
34313W        W 6628   6.681  13.760  11.499
34314W        W 6629  13.262  25.197  11.544
34315W        W 6630  44.337  32.918  10.459
34316W        W 6631  39.317   3.945  12.554
34317W        W 6632  42.424  11.164   1.363
34318W        W 6633  10.160  11.330   1.815
34319W        W 6634  21.121  28.628  11.002
34320W        W 6635  32.898  44.454  12.921
34321W        W 6636  14.266  16.610   2.307
34322W        W 6637  14.255   6.910   4.239
34323W        W 6638  15.230  25.645  11.091
34324W        W 6639  44.264  29.573   4.771
34325W        W 6640  28.491   8.234   1.909
34326W        W 6641  10.810  15.700   1.915
34327W        W 6642   4.286  18.194  13.805
34328W        W 6643   5.806   2.897   4.352
34329W        W 6644  21.732  36.868   2.687
34330W        W 6645  20.168  39.333   2.239
34331W        W 6646  26.190   2.284  10.998
34332W        W 6647   7.712   3.770  12.006
34333W        W 6648   6.907   3.363  13.897
34334W        W 6649  38.437  22.047  10.951
34335W        W 6650  28.594  41.880  13.974
34336W        W 6651   5.347  10.847  13.401
34337W        W 6652  38.408  19.180   1.326
34338W        W 6653  37.492   2.759  12.390
34339W        W 6654  39.926   9.314  14.407
34340W        W 6655  10.178   8.704  10.572
34341W        W 6656  10.834  38.939   4.634
34342W        W 6657  14.141   0.474   0.271
34343W        W 6658  43.414  43.409   3.265
34344W        W 6659  43.448  30.586  12.840
34345W        W 6660  18.563   2.340  11.066
34346W        W 6661  17.738  14.603   1.443
34347W        W 6662  27.018  11.302  11.530
34348W        W 6663  33.986   1.315  12.068
34349W        W 6664  34.514  17.662  13.846
34350W        W 6665  39.905  21.723   4.608
34351W        W 6666  20.091  40.842   3.154
34352W        W 6667   8.681  40.802   2.695
34353W        W 6668  22.731   0.753   0.804
34354W        W 6669  25.064  32.555  14.959
34355W        W 6670  14.277  22.181  11.019
34356W        W 6671  28.435   4.323   0.402
34357W        W 6672   4.217  10.874   2.189
34358W        W 6673  18.270   8.252   1.433
34359W        W 6674  32.910  39.543   4.291
34360W        W 6675  23.588  26.494  13.801
34361W        W 6676   6.809   8.812   0.277
34362W        W 6677  13.626   1.262   4.766
34363W        W 6678   7.860  16.568   1.289
34364W        W 6679  33.887  39.454   3.363
34365W        W 6680  24.059  18.663  11.021
34366W        W 6681   9.884  13.296  13.409
34367W        W 6682   3.923  12.259   0.732
34368W        W 6683  32.577  16.294  13.338
34369W        W 6684  34.529   1.335  13.376
34370W        W 6685  25.617  17.749  11.009
34371W        W 6686  11.724  12.780   2.835
34372W        W 6687  20.116  26.644   4.232
34373W        W 6688   4.261  28.177  10.948
34374W        W 6689  18.200   5.767  11.035
34375W        W 6690   5.768   6.803   3.865
34376W        W 6691  38.890  33.001   0.347
34377W        W 6692  23.562  24.594  11.025
34378W        W 6693  13.784  25.507  10.414
34379W        W 6694  22.737  35.935  12.954
34380W        W 6695  29.159  28.680   2.876
34381W        W 6696  13.827  41.350   2.760
34382W        W 6697  43.320  17.112   4.739
34383W        W 6698  32.038  33.881   2.318
34384W        W 6699  34.433  34.503  12.940
34385W        W 6700  37.456  40.937  13.385
34386W        W 6701  28.545   1.398  14.782
34387W        W 6702  38.360  15.753  13.855
34388W        W 6703   8.274   5.279  13.893
34389W        W 6704  41.848  17.224   2.782
34390W        W 6705  41.952  41.423  11.127
34391W        W 6706   1.381   0.418   2.692
34392W        W 6707  39.013  27.660  13.000
34393W        W 6708  13.240  36.429   4.233
34394W        W 6709  44.322  35.981  11.862
34395W        W 6710  29.174  12.733  10.407
34396W        W 6711  23.009  25.200  13.310
34397W        W 6712   4.322  30.957  14.402
34398W        W 6713   3.954  18.680   0.858
34399W        W 6714  18.772  37.430   4.138
34400W        W 6715  40.050  20.072   0.932
34401W        W 6716  30.581  23.705   4.263
34402W        W 6717  40.536   7.900   0.359
34403W        W 6718   8.753  18.050   0.747
34404W        W 6719  20.228  38.488   3.793
34405W        W 6720  17.649  15.310   0.752
34406W        W 6721  22.034  21.075   4.228
34407W        W 6722  15.595  38.942  13.459
34408W        W 6723   5.292  14.754   0.418
34409W        W 6724  11.358   3.424   1.398
34410W        W 6725  32.549  41.880  12.506
34411W        W 6726  36.010  42.816   3.359
34412W        W 6727   5.398   6.890  12.841
34413W        W 6728  38.911  14.106   3.682
34414W        W 6729   8.243  15.711  13.338
34415W        W 6730  40.991  17.715  10.511
34416W        W 6731   5.786  14.610   2.861
34417W        W 6732  25.192  40.822  12.511
34418W        W 6733  12.351   7.217  13.925
34419W        W 6734   7.212  15.160   2.723
34420W        W 6735  31.425  39.922   0.395
34421W        W 6736  38.064  10.348  13.919
34422W        W 6737   0.931  28.149   5.191
34423W        W 6738  12.839  36.002   3.816
34424W        W 6739  38.463   4.321  11.074
34425W        W 6740  22.538  20.631   2.213
34426W        W 6741   4.815  39.375   4.598
34427W        W 6742  18.756  36.960   0.435
34428W        W 6743   1.335  13.150  14.504
34429W        W 6744  17.163  37.351  10.622
34430W        W 6745  34.079  16.190  11.112
34431W        W 6746   5.917  17.767   1.259
34432W        W 6747  43.959   8.230  14.426
34433W        W 6748  19.091  19.730   4.313
34434W        W 6749  32.917   3.397   0.422
34435W        W 6750  12.136  22.165  11.399
34436W        W 6751  31.902   8.268   3.196
34437W        W 6752  35.925   8.769   1.791
34438W        W 6753  33.507  17.556   1.444
34439W        W 6754  34.496  23.495  10.900
34440W        W 6755   9.198   9.833   2.247
34441W        W 6756  42.338  13.845   0.730
34442W        W 6757  40.409  41.496  10.489
34443W        W 6758  28.511   5.259   2.886
34444W        W 6759   9.290  35.910   0.451
34445W        W 6760  37.857  42.498   1.431
34446W        W 6761  29.985  10.199   4.735
34447W        W 6762  41.505  36.401  12.509
34448W        W 6763  43.342  44.359  12.494
34449W        W 6764  30.045  36.533  14.931
34450W        W 6765  30.934   4.770   2.374
34451W        W 6766  22.693  16.706  11.101
34452W        W 6767  43.830   7.833   1.281
34453W        W 6768   1.303  11.665  13.822
34454W        W 6769  37.937  44.499   2.694
34455W        W 6770  38.953   9.375   1.396
34456W        W 6771  44.811  17.795   0.943
34457W        W 6772  11.634   0.493   2.370
34458W        W 6773  35.925  39.460   3.640
34459W        W 6774  26.030  36.892  14.441
34460W        W 6775  13.795  40.944  12.544
34461W        W 6776  16.315  43.376  13.533
34462W        W 6777   9.338  33.614  10.625
34463W        W 6778  35.868  14.681   1.818
34464W        W 6779   4.448  21.533  11.938
34465W        W 6780  31.000  36.356  14.396
34466W        W 6781  35.450   8.286  13.994
34467W        W 6782  36.499  28.451  11.564
34468W        W 6783  11.623   6.818   4.328
34469W        W 6784  27.453  15.295   0.360
34470W        W 6785  39.483  43.817   3.334
34471W        W 6786  25.178  40.319   3.818
34472W        W 6787  44.823  23.509  11.475
34473W        W 6788  27.194   0.827  11.610
34474W        W 6789   2.252  37.468   0.836
34475W        W 6790   3.276  23.598   0.355
34476W        W 6791  23.033  21.199   3.858
34477W        W 6792  19.231  30.126   3.324
34478W        W 6793  29.446  39.000   4.838
34479W        W 6794  12.256  27.449  14.459
34480W        W 6795  19.744  39.850  12.424
34481W        W 6796  13.193   0.768  10.894
34482W        W 6797  10.240  34.956   2.365
34483W        W 6798  24.184  27.456  14.438
34484W        W 6799  41.513  36.856  12.472
34485W        W 6800  10.798  43.504   3.808
34486W        W 6801  24.721  33.933  14.853
34487W        W 6802  33.576  18.064  10.918
34488W        W 6803  20.039  43.767  12.527
34489W        W 6804  19.257  22.187   2.304
34490W        W 6805   2.412  28.560  13.377
34491W        W 6806  23.037  11.221   0.751
34492W        W 6807  24.682   1.945   2.842
34493W        W 6808  21.215  16.181   1.332
34494W        W 6809  23.492  41.471   3.353
34495W        W 6810  37.459  11.824   0.270
34496W        W 6811  41.978  40.477   1.877
34497W        W 6812  31.437   3.844  11.542
34498W        W 6813   0.873  33.604   1.702
34499W        W 6814  15.733   2.783   4.114
34500W        W 6815   3.721  14.231  14.826
34501W        W 6816   0.344  31.936   4.745
34502W        W 6817  37.960  42.003   1.829
34503W        W 6818  43.905   4.414   3.679
34504W        W 6819   9.197  10.207   3.217
34505W        W 6820  28.581  21.564   3.674
34506W        W 6821  26.641   5.794  11.424
34507W        W 6822  40.367  27.606  12.041
34508W        W 6823  41.497  41.359  13.462
34509W        W 6824  13.140  15.792   0.757
34510W        W 6825  33.950  25.122   2.684
34511W        W 6826  43.799  23.631   2.752
34512W        W 6827   8.165  14.636   4.778
34513W        W 6828  21.524  34.117  12.890
34514W        W 6829  42.337  32.534  10.538
34515W        W 6830  41.481  40.455  12.860
34516W        W 6831   3.228  31.145  14.869
34517W        W 6832   5.221   3.313  10.618
34518W        W 6833  14.598  15.742  11.578
34519W        W 6834   5.226  14.607   0.947
34520W        W 6835  26.037  35.367   4.686
34521W        W 6836  19.196  40.465   3.711
34522W        W 6837  19.699  20.257  14.490
34523W        W 6838  36.845  28.466   1.288
34524W        W 6839  41.953  20.751   2.877
34525W        W 6840  15.139  33.387   0.829
34526W        W 6841   8.715  31.521   2.293
34527W        W 6842  29.592  43.481   2.889
34528W        W 6843  23.624  35.855  13.814
34529W        W 6844  11.812  40.433   4.263
34530W        W 6845  31.092  27.029  14.808
34531W        W 6846  36.890  35.893   0.440
34532W        W 6847   6.911  35.959  13.449
34533W        W 6848  11.788   6.749   0.946
34534W        W 6849  42.879  43.414  11.541
34535W        W 6850  11.308  18.645  12.464
34536W        W 6851  21.687  27.587  14.370
34537W        W 6852  23.063  20.130   4.739
34538W        W 6853  21.651  11.352   0.733
34539W        W 6854  40.403   4.720  12.841
34540W        W 6855  25.646   9.217  14.995
34541W        W 6856  38.383   7.739  14.784
34542W        W 6857   7.235  30.614  14.354
34543W        W 6858  26.195  38.852  10.137
34544W        W 6859  29.003   4.219  12.952
34545W        W 6860  36.473  18.592   3.730
34546W        W 6861  32.600   5.404  12.565
34547W        W 6862  10.302  18.619   2.412
34548W        W 6863   3.844  34.594  14.865
34549W        W 6864  24.554  14.781   4.709
34550W        W 6865  13.169  24.035   0.786
34551W        W 6866   1.428   6.203   4.709
34552W        W 6867  25.634   2.901  12.966
34553W        W 6868   9.700  43.416  13.933
34554W        W 6869  22.643  29.511   4.294
34555W        W 6870  24.554  22.158   5.723
34556W        W 6871  39.347   3.939   1.927
34557W        W 6872   0.978  31.588   2.708
34558W        W 6873  24.641  21.529  12.443
34559W        W 6874  21.245  33.383  12.958
34560W        W 6875  31.537  10.655  14.487
34561W        W 6876  32.524   6.800  13.443
34562W        W 6877  40.984   5.271  14.480
34563W        W 6878  44.828  23.114   2.302
34564W        W 6879  16.762  32.921  12.452
34565W        W 6880  13.606   8.759  12.398
34566W        W 6881  21.627  12.266  11.932
34567W        W 6882   2.898  10.173   1.897
34568W        W 6883  27.671  39.975  13.922
34569W        W 6884   8.856  44.931   1.327
34570W        W 6885  37.348  36.899   2.699
34571W        W 6886   1.432   4.337   3.673
34572W        W 6887  12.324  35.366  11.536
34573W        W 6888  36.588  22.630   0.898
34574W        W 6889  28.026  44.975   1.300
34575W        W 6890  13.298  11.750   0.934
34576W        W 6891   1.432  18.623   3.785
34577W        W 6892  27.583  42.379  14.303
34578W        W 6893  17.603  36.475   1.895
34579W        W 6894  36.841  35.519  13.864
34580W        W 6895  19.168  32.579   3.312
34581W        W 6896  18.782  16.730   0.397
34582W        W 6897  39.894  37.910   4.142
34583W        W 6898  30.120  13.625   2.418
34584W        W 6899  36.440  39.423  10.530
34585W        W 6900   3.359  22.182   1.303
34586W        W 6901   0.378  38.375   1.403
34587W        W 6902  33.029  15.182   0.802
34588W        W 6903  20.613  23.166  11.886
34589W        W 6904  33.030  13.226   4.155
34590W        W 6905  26.119  34.894  14.367
34591W        W 6906  14.103  25.477   3.160
34592W        W 6907  28.109  25.562  14.014
34593W        W 6908  25.061  20.560   2.700
34594W        W 6909  35.900  25.529  14.502
34595W        W 6910  19.716  36.558   4.145
34596W        W 6911  44.445  43.349   2.810
34597W        W 6912  16.690  25.050   2.260
34598W        W 6913  19.222  42.940  12.031
34599W        W 6914  36.057  38.354   4.764
34600W        W 6915   2.240   2.337   1.845
34601W        W 6916  35.998  31.574   4.763
34602W        W 6917  10.220  43.019  10.488
34603W        W 6918  36.855  10.687  12.994
34604W        W 6919  29.586  25.524   1.420
34605W        W 6920  27.135   8.324   0.322
34606W        W 6921  26.202   8.372  14.324
34607W        W 6922  29.091  37.574  11.593
34608W        W 6923  40.819  12.678   1.782
34609W        W 6924   1.840   5.395   1.748
34610W        W 6925  28.649  29.635  11.425
34611W        W 6926  29.643   1.809  12.495
34612W        W 6927  34.951   9.248  10.414
34613W        W 6928   1.480  11.769  11.545
34614W        W 6929   6.330   9.197   3.248
34615W        W 6930  11.225  20.603   1.329
34616W        W 6931  33.095  20.602   1.389
34617W        W 6932  24.533  10.159  11.380
34618W        W 6933   2.766  38.830  12.872
34619W        W 6934  39.349  23.498   0.919
34620W        W 6935  20.729  26.523  14.783
34621W        W 6936  18.545  10.696   0.967
34622W        W 6937   1.798  21.179   4.131
34623W        W 6938  36.998  17.793   4.284
34624W        W 6939  10.729  44.820  12.015
34625W        W 6940  19.260  13.317  10.561
34626W        W 6941   8.743  10.300   1.782
34627W        W 6942  42.867  25.536  12.916
34628W        W 6943   9.164  31.544   3.372
34629W        W 6944  40.492  21.035  10.959
34630W        W 6945  17.198  35.576   1.891
34631W        W 6946   4.236  31.512  12.447
34632W        W 6947  40.335  34.432   4.145
34633W        W 6948  13.832  35.879   2.721
34634W        W 6949   2.384  20.655  13.842
34635W        W 6950  11.741   4.774   4.826
34636W        W 6951  29.073  12.746   2.713
34637W        W 6952  44.001  21.217   1.431
34638W        W 6953  27.130  20.194   1.423
34639W        W 6954  21.143   8.747  13.376
34640W        W 6955  28.946  17.797   2.714
34641W        W 6956  11.273   1.944   3.857
34642W        W 6957  33.384  31.560   2.206
34643W        W 6958  31.113  32.483  11.610
34644W        W 6959   1.909  27.949  14.300
34645W        W 6960   7.808  14.280   3.715
34646W        W 6961  20.733  20.120   0.851
34647W        W 6962   2.357  39.529   1.291
34648W        W 6963   4.772  24.547   0.732
34649W        W 6964  21.232  32.915  12.905
34650W        W 6965  12.212  32.547   1.228
34651W        W 6966  35.429   0.287   0.817
34652W        W 6967  44.307  19.596  11.040
34653W        W 6968   7.404  17.580   0.942
34654W        W 6969  20.033   8.695  11.981
34655W        W 6970  32.900   1.344  14.842
34656W        W 6971  12.855  16.619  11.376
34657W        W 6972   4.925   9.153  12.358
34658W        W 6973  22.587  20.560   2.738
34659W        W 6974   3.415   9.199  10.421
34660W        W 6975   5.342  43.402  10.909
34661W        W 6976   7.852  18.545   2.208
34662W        W 6977  36.983  41.933   2.856
34663W        W 6978   1.841  39.549  11.600
34664W        W 6979  42.524  38.372  11.513
34665W        W 6980  30.506  27.638   1.440
34666W        W 6981  40.494  21.224  11.383
34667W        W 6982  16.110  10.280   2.740
34668W        W 6983  21.151  43.374   1.425
34669W        W 6984  19.556  39.998  10.010
34670W        W 6985   0.830  44.375  10.511
34671W        W 6986  32.634   7.741   4.775
34672W        W 6987  24.534  33.524   1.292
34673W        W 6988  25.485  29.630   4.823
34674W        W 6989   6.677   6.356   2.367
34675W        W 6990  15.775  27.618  13.899
34676W        W 6991  44.786  32.079  11.881
34677W        W 6992  34.395  14.790  13.943
34678W        W 6993  27.094  11.351   4.249
34679W        W 6994  29.516  14.227  12.872
34680W        W 6995   7.325   4.723   4.679
34681W        W 6996  13.321  24.117   3.384
34682W        W 6997  41.995  17.623  10.605
34683W        W 6998  10.810  29.104  11.381
34684W        W 6999  27.534  15.664   2.664
34685W        W 7000  15.599   9.207  12.403
34686W        W 7001  18.669  20.228   2.662
34687W        W 7002  24.003   0.338   3.162
34688W        W 7003  22.251   3.719  12.849
34689W        W 7004  42.965  43.306  13.395
34690W        W 7005  40.884  23.028   3.722
34691W        W 7006   2.827  33.570  11.022
34692W        W 7007   4.230  12.623   4.236
34693W        W 7008  29.508  26.152   3.808
34694W        W 7009  10.252  37.947   4.329
34695W        W 7010  22.671  43.771  10.412
34696W        W 7011  30.522  30.493  12.898
34697W        W 7012  19.201  35.077  10.908
34698W        W 7013  28.055  16.602  12.534
34699W        W 7014  16.813   4.908  13.850
34700W        W 7015  12.656  41.453   3.228
34701W        W 7016  32.927  30.053  10.546
34702W        W 7017   9.787   8.824   3.648
34703W        W 7018   0.408  23.055   1.890
34704W        W 7019  18.141   4.863   2.331
34705W        W 7020  25.598  36.364  14.331
34706W        W 7021   8.888  10.791   0.779
34707W        W 7022  29.615   3.284  10.089
34708W        W 7023  25.475  37.909  13.933
34709W        W 7024  42.350  24.213   3.663
34710W        W 7025  39.868  42.490   3.704
34711W        W 7026  31.021  25.131  13.914
34712W        W 7027  22.213  29.128   4.674
34713W        W 7028  24.630  43.958  14.310
34714W        W 7029  41.798  15.603   0.331
34715W        W 7030  30.035   0.267  11.605
34716W        W 7031   6.419   4.236  13.378
34717W        W 7032  26.168   4.908  14.351
34718W        W 7033  30.922  15.733   4.113
34719W        W 7034  28.466  14.266  13.054
34720W        W 7035  19.171  19.166   0.918
34721W        W 7036  18.257   8.721   3.165
34722W        W 7037  31.037  19.283   2.825
34723W        W 7038  12.813  13.112  12.009
34724W        W 7039   3.755  25.698   4.167
34725W        W 7040  11.768  23.505  10.598
34726W        W 7041   8.178  26.461   0.863
34727W        W 7042  18.571  40.373   1.338
34728W        W 7043  20.102  40.949   2.698
34729W        W 7044  30.122  11.853  11.439
34730W        W 7045   3.739   7.910  12.027
34731W        W 7046  21.207  43.331   0.467
34732W        W 7047  26.665   5.283  11.125
34733W        W 7048  41.444  43.464   2.818
34734W        W 7049  31.524  13.846  10.912
34735W        W 7050  24.535  20.081   2.180
34736W        W 7051   2.752  17.559   1.772
34737W        W 7052  24.008   5.707  12.037
34738W        W 7053  42.989  39.326  11.542
34739W        W 7054  30.485  27.482   4.833
34740W        W 7055   9.870  33.028  11.909
34741W        W 7056   5.833  25.614   2.676
34742W        W 7057  29.009  23.562   2.347
34743W        W 7058  22.697  14.196  14.009
34744W        W 7059   5.795  32.038   1.746
34745W        W 7060  26.619  31.520   3.335
34746W        W 7061   3.398   0.845  14.908
34747W        W 7062   9.374   1.795   4.267
34748W        W 7063  38.025   3.771   3.230
34749W        W 7064   2.766  41.331  11.400
34750W        W 7065   0.479  31.003   4.182
34751W        W 7066  18.569   0.857  12.012
34752W        W 7067  13.253  41.001   2.798
34753W        W 7068  43.887   0.290  12.503
34754W        W 7069  41.853  38.546  13.014
34755W        W 7070  18.680  11.721   4.199
34756W        W 7071  44.999  12.620   4.312
34757W        W 7072  44.383  29.602   3.199
34758W        W 7073  36.095  15.707   0.959
34759W        W 7074  36.551  11.248  10.643
34760W        W 7075  17.305  28.084  13.945
34761W        W 7076  44.842  37.841   0.769
34762W        W 7077  27.079  35.955   0.958
34763W        W 7078  33.110  22.221  12.390
34764W        W 7079  12.340   8.759  12.511
34765W        W 7080  34.566  19.079   3.267
34766W        W 7081  40.384  21.530  12.458
34767W        W 7082  33.122   7.210   3.366
34768W        W 7083  30.634   5.818  12.046
34769W        W 7084   5.251   9.748   1.809
34770W        W 7085  19.081  34.880   4.318
34771W        W 7086  41.984  36.534  12.057
34772W        W 7087  13.179  24.530   3.864
34773W        W 7088  16.162  23.126   0.454
34774W        W 7089   9.369  11.156  11.898
34775W        W 7090   8.869  16.162  11.384
34776W        W 7091  24.538   3.875  11.883
34777W        W 7092  32.069  30.549   1.828
34778W        W 7093  28.124   4.277  12.360
34779W        W 7094  29.934  42.836   3.246
34780W        W 7095  37.355  15.293  13.464
34781W        W 7096  27.613  31.438   5.135
34782W        W 7097  19.650  24.514  10.563
34783W        W 7098  15.630  37.946  12.905
34784W        W 7099  14.274  33.011   2.203
34785W        W 7100  18.753   6.738   2.770
34786W        W 7101   3.714  18.548   1.919
34787W        W 7102  42.778  22.239  13.062
34788W        W 7103  25.146  21.179   5.570
34789W        W 7104  19.541  40.473   4.635
34790W        W 7105  27.613   3.885  13.870
34791W        W 7106   8.295  12.343   4.210
34792W        W 7107  33.074  16.157   0.447
34793W        W 7108  33.501   5.702  14.916
34794W        W 7109  39.896  30.630  11.120
34795W        W 7110  37.486  17.703   0.814
34796W        W 7111  22.629  17.280   3.180
34797W        W 7112   2.827  10.766  10.481
34798W        W 7113   8.825  40.312   4.616
34799W        W 7114  10.288   1.284   1.717
34800W        W 7115  14.757   3.756   4.712
34801W        W 7116   4.917  23.134   4.136
34802W        W 7117   2.788  30.145  13.458
34803W        W 7118  40.981  14.739   0.397
34804W        W 7119   5.199  17.131  11.430
34805W        W 7120  32.104  31.418   0.807
34806W        W 7121  23.220  12.613  14.022
34807W        W 7122  37.433  38.837  14.772
34808W        W 7123  10.319  39.910  10.911
34809W        W 7124   0.307  25.092  12.374
34810W        W 7125  44.423  17.244   1.229
34811W        W 7126  18.671  44.271   3.210
34812W        W 7127  22.614   5.373   2.269
34813W        W 7128  28.036  27.542  13.850
34814W        W 7129  10.686  40.846   2.763
34815W        W 7130  14.642   3.736   2.847
34816W        W 7131  32.627  25.656  11.981
34817W        W 7132  39.060  32.438  11.884
34818W        W 7133  19.101  35.908  14.984
34819W        W 7134   6.880  29.063   1.358
34820W        W 7135  30.486  22.101   1.350
34821W        W 7136  13.677   4.286  13.998
34822W        W 7137  29.921  13.790  11.107
34823W        W 7138  15.719   8.224   2.412
34824W        W 7139  12.140  39.431  12.014
34825W        W 7140  38.910  40.498  14.799
34826W        W 7141  13.276  22.591  10.070
34827W        W 7142  23.731  38.978  12.502
34828W        W 7143  23.495  36.096   3.282
34829W        W 7144  12.205  16.278   3.302
34830W        W 7145  28.586  18.567  12.838
34831W        W 7146  26.683  26.576  11.932
34832W        W 7147  28.951   2.322  13.996
34833W        W 7148  16.317  32.493   3.810
34834W        W 7149  18.172  15.665  10.562
34835W        W 7150  32.461  31.042   3.218
34836W        W 7151  24.077  36.515  11.522
34837W        W 7152  15.249  44.364   3.748
34838W        W 7153  10.826  16.229  14.890
34839W        W 7154  40.328  10.874  10.589
34840W        W 7155  14.795  17.120   3.858
34841W        W 7156  19.273  38.457  10.011
34842W        W 7157  18.222  43.020  14.023
34843W        W 7158  23.146  40.925  12.476
34844W        W 7159  22.676  37.910   0.376
34845W        W 7160  34.556   4.741   0.417
34846W        W 7161  35.947  21.643  11.476
34847W        W 7162  42.302  16.074   2.323
34848W        W 7163   6.324  39.372  10.944
34849W        W 7164  23.645  42.846   1.879
34850W        W 7165  44.423  26.176  13.796
34851W        W 7166   4.208  21.145  11.102
34852W        W 7167  28.186  40.325  10.930
34853W        W 7168  29.137  39.326  13.492
34854W        W 7169  24.170  18.196  13.993
34855W        W 7170   6.366  36.944  13.546
34856W        W 7171  27.474   5.757   0.864
34857W        W 7172  12.210  23.626  12.838
34858W        W 7173  10.183  12.763   0.419
34859W        W 7174  14.804   1.842   2.199
34860W        W 7175   7.279   4.343   3.651
34861W        W 7176  39.006  28.606  14.361
34862W        W 7177   9.721  34.113  11.547
34863W        W 7178  18.776  21.556  12.533
34864W        W 7179  16.120  44.384  12.394
34865W        W 7180  27.669  36.574  11.872
34866W        W 7181  36.979  35.548  13.543
34867W        W 7182  14.645   1.362   0.442
34868W        W 7183  18.583  14.795  11.490
34869W        W 7184  13.114  14.670   2.259
34870W        W 7185  41.492   2.924  12.346
34871W        W 7186  18.753   0.807  11.613
34872W        W 7187  36.551  34.401   2.744
34873W        W 7188  39.884  11.795  13.396
34874W        W 7189  12.218   8.787   5.172
34875W        W 7190   4.860  27.076  12.560
34876W        W 7191  37.556  15.172   2.217
34877W        W 7192  43.911   5.772   1.715
34878W        W 7193  23.522  14.806   2.305
34879W        W 7194  28.676  11.192  14.421
34880W        W 7195  36.463   2.874  14.476
34881W        W 7196  26.518  42.916   3.806
34882W        W 7197  18.714  26.568  12.476
34883W        W 7198  25.515   4.812  13.449
34884W        W 7199  21.585  36.979   1.231
34885W        W 7200  39.843  20.269   4.686
34886W        W 7201  17.561  43.450   3.225
34887W        W 7202  15.821  14.258   1.838
34888W        W 7203  15.671  18.717  10.454
34889W        W 7204  28.082  24.095  11.896
34890W        W 7205  40.939  40.964  11.428
34891W        W 7206   0.933  40.465  14.447
34892W        W 7207  44.840  36.505  11.597
34893W        W 7208   8.276  44.943  13.931
34894W        W 7209  28.128  15.112  14.285
34895W        W 7210  16.175  23.571  14.510
34896W        W 7211  27.955  24.988   3.662
34897W        W 7212  36.491  10.180   0.829
34898W        W 7213  42.030  39.010  13.887
34899W        W 7214  17.611   4.900  10.605
34900W        W 7215  13.303  44.963   4.202
34901W        W 7216  14.169  34.426  13.389
34902W        W 7217  42.497  43.882  13.973
34903W        W 7218  21.203  35.007  11.084
34904W        W 7219  35.597  27.163   4.693
34905W        W 7220  15.135  14.817   4.305
34906W        W 7221  43.812  10.283  13.845
34907W        W 7222   2.921  27.132  12.493
34908W        W 7223   3.886   5.393   3.772
34909W        W 7224  11.313  35.989   3.715
34910W        W 7225  42.899   6.237   5.093
34911W        W 7226  43.764  24.600   3.756
34912W        W 7227  33.096  35.063   1.788
34913W        W 7228  38.930  39.396  11.609
34914W        W 7229   7.197  44.398   2.292
34915W        W 7230  37.061  39.423   4.775
34916W        W 7231  14.204  22.252   2.417
34917W        W 7232   6.779   1.927   0.476
34918W        W 7233  23.632  19.590   2.184
34919W        W 7234  42.941  13.168   2.780
34920W        W 7235   5.691  28.462   4.178
34921W        W 7236  39.317   6.733  12.941
34922W        W 7237   3.712  28.039  12.994
34923W        W 7238  37.569  39.829  11.871
34924W        W 7239  22.688  23.029  10.923
34925W        W 7240  12.840  28.502   2.770
34926W        W 7241  34.441   1.447   1.301
34927W        W 7242  40.529  38.325   1.356
34928W        W 7243  35.864  29.426  14.315
34929W        W 7244  36.063  22.507  11.924
34930W        W 7245  35.415  39.949   1.823
34931W        W 7246  43.401  31.522  11.921
34932W        W 7247  36.857  36.039   1.782
34933W        W 7248  27.670  42.856   0.307
34934W        W 7249  21.023  42.382   2.879
34935W        W 7250  37.979  13.732   2.256
34936W        W 7251   6.359   7.718   4.232
34937W        W 7252  33.485  42.916  14.450
34938W        W 7253  26.075   5.904   0.287
34939W        W 7254   6.330  30.026  13.313
34940W        W 7255  13.723  26.702   2.322
34941W        W 7256   9.304  14.806   0.381
34942W        W 7257  21.743  33.601   9.938
34943W        W 7258  41.012  35.486  14.951
34944W        W 7259  12.261  30.062   2.303
34945W        W 7260  12.701  24.009  14.919
34946W        W 7261  25.054   7.309  13.943
34947W        W 7262  10.642  19.039   1.429
34948W        W 7263  29.618  37.478  10.982
34949W        W 7264   0.960  36.036   0.447
34950W        W 7265   5.252   7.327  14.759
34951W        W 7266  42.363  10.375  10.582
34952W        W 7267  13.667  38.342  14.886
34953W        W 7268  37.889  37.994  10.499
34954W        W 7269   7.190  39.454   4.705
34955W        W 7270   5.274   7.677   0.356
34956W        W 7271   8.881  35.091  14.391
34957W        W 7272  13.819  35.988  11.518
34958W        W 7273   7.837  24.690   2.204
34959W        W 7274  10.670  35.086   3.763
34960W        W 7275  39.830   9.812   1.412
34961W        W 7276  21.211  29.175   3.656
34962W        W 7277  28.547   5.719  11.416
34963W        W 7278  19.596  35.368   1.352
34964W        W 7279  14.148   9.654  14.844
34965W        W 7280  21.131  15.728   1.386
34966W        W 7281  37.369  11.736  14.990
34967W        W 7282  16.088  18.755  11.436
34968W        W 7283   5.905  24.127  10.413
34969W        W 7284  34.984  22.015   4.346
34970W        W 7285  23.543  43.011  11.401
34971W        W 7286  30.497  19.639   4.736
34972W        W 7287  23.207  28.501   0.846
34973W        W 7288  18.752  10.849   5.568
34974W        W 7289  22.076  44.985  11.374
34975W        W 7290   3.892  22.663   3.197
34976W        W 7291  27.180  21.199  11.048
34977W        W 7292  30.100  40.487  12.443
34978W        W 7293  33.044   1.888  13.497
34979W        W 7294  28.552  28.520   0.466
34980W        W 7295  40.456   2.930  12.341
34981W        W 7296  40.807   6.751  10.986
34982W        W 7297  35.578   9.758  11.994
34983W        W 7298  28.027  40.944   3.149
34984W        W 7299   3.915  41.322   3.247
34985W        W 7300  35.522  26.503   3.733
34986W        W 7301  42.917  26.113  13.990
34987W        W 7302   5.340  18.752  11.519
34988W        W 7303  39.434  15.594  11.415
34989W        W 7304  30.093  37.574  14.381
34990W        W 7305   4.212  28.017   3.801
34991W        W 7306   7.840  36.440   0.852
34992W        W 7307  25.651  33.468  12.006
34993W        W 7308  13.331  17.091   0.338
34994W        W 7309  34.580   7.678  10.559
34995W        W 7310  32.469  19.637   1.723
34996W        W 7311  36.460  44.953  12.046
34997W        W 7312   8.770  41.402   3.244
34998W        W 7313  18.550  21.582  14.804
34999W        W 7314  20.656  19.605  13.978
35000W        W 7315  16.114   7.857   0.815
35001W        W 7316   9.373   3.277   0.332
35002W        W 7317  28.971  34.018  14.406
35003W        W 7318  32.944  21.257   2.673
35004W        W 7319  24.670  28.153   0.787
35005W        W 7320   2.243  44.362   3.743
35006W        W 7321  40.996  44.925  10.522
35007W        W 7322  18.606  20.263   0.436
35008W        W 7323  17.109  27.162   2.682
35009W        W 7324   9.815  34.911  10.467
35010W        W 7325  10.239  40.840  10.413
35011W        W 7326  19.249  44.346  11.501
35012W        W 7327  18.054  27.457  13.359
35013W        W 7328  14.335   4.850   1.330
35014W        W 7329  13.755  34.047  12.831
35015W        W 7330  26.150  17.612   4.200
35016W        W 7331   2.917  39.509  11.123
35017W        W 7332   3.841  16.571   3.640
35018W        W 7333  39.818  31.420   3.275
35019W        W 7334   7.307   0.911  12.845
35020W        W 7335  12.307  14.307  13.378
35021W        W 7336  24.681  15.219  13.906
35022W        W 7337  37.505  22.171  12.842
35023W        W 7338   9.232  40.973   0.747
35024W        W 7339  24.641  35.080   4.834
35025W        W 7340  29.999   3.405  12.355
35026W        W 7341  31.032  42.285   1.731
35027W        W 7342   8.775  36.882   0.364
35028W        W 7343  10.255  43.271  13.401
35029W        W 7344   1.429  36.502  13.876
35030W        W 7345  36.909  27.950  14.389
35031W        W 7346  25.602  26.067   0.874
35032W        W 7347  41.802  23.189   0.400
35033W        W 7348   1.307  12.287  12.905
35034W        W 7349  40.973  13.786  14.016
35035W        W 7350  30.030  28.592  11.978
35036W        W 7351   3.254  36.938   4.650
35037W        W 7352  38.016  44.779  11.400
35038W        W 7353  15.579  37.063   4.708
35039W        W 7354  34.895  39.985   2.275
35040W        W 7355  30.572  37.848  13.905
35041W        W 7356  37.462  25.663  10.121
35042W        W 7357   4.313  15.765   0.434
35043W        W 7358  25.498  30.476   1.744
35044W        W 7359   1.286  40.053  13.336
35045W        W 7360   3.933  40.005  12.054
35046W        W 7361  43.809  17.566  14.474
35047W        W 7362  31.453  42.012   4.814
35048W        W 7363  10.337  10.782  10.483
35049W        W 7364  30.988  33.409  14.883
35050W        W 7365  30.567   7.695  13.439
35051W        W 7366  21.167  18.715   5.181
35052W        W 7367   8.866  38.887   0.930
35053W        W 7368  43.875   5.738   3.342
35054W        W 7369  31.595  29.613   3.188
35055W        W 7370  44.876  33.927   5.200
35056W        W 7371   2.909  22.730  12.454
35057W        W 7372  16.086  22.094  14.427
35058W        W 7373  36.889  32.398   1.755
35059W        W 7374  13.220  39.476   3.293
35060W        W 7375  43.768  22.081  13.959
35061W        W 7376  25.072  26.062   4.756
35062W        W 7377  31.147   9.210   1.859
35063W        W 7378   7.333  11.203  10.572
35064W        W 7379  42.454  18.053  13.815
35065W        W 7380  10.867  25.148  14.288
35066W        W 7381   6.273  43.808  14.932
35067W        W 7382  29.430  21.062  12.490
35068W        W 7383  26.491   1.859   0.835
35069W        W 7384  21.742  24.015  14.330
35070W        W 7385  37.498  21.614   4.284
35071W        W 7386  34.560  13.768   0.728
35072W        W 7387  37.483  22.700  11.863
35073W        W 7388  13.776  23.222  11.969
35074W        W 7389   9.785  16.125  14.976
35075W        W 7390  40.931  40.490  13.925
35076W        W 7391  26.628  36.576  14.857
35077W        W 7392  32.008  29.435   0.954
35078W        W 7393   6.746  34.583  10.451
35079W        W 7394  13.822  15.763   3.723
35080W        W 7395  31.048  39.836   2.304
35081W        W 7396  28.939  21.743  14.287
35082W        W 7397   7.868  37.570   4.330
35083W        W 7398   5.915  13.248  10.452
35084W        W 7399  25.025   7.299  11.447
35085W        W 7400   9.680   8.806  10.553
35086W        W 7401  19.147   3.881   1.768
35087W        W 7402   0.397  24.158  12.920
35088W        W 7403   6.804  29.990  13.316
35089W        W 7404  33.954  12.826   3.371
35090W        W 7405  41.971  29.449  14.433
35091W        W 7406  38.565   6.829   3.730
35092W        W 7407  30.558  27.603  12.985
35093W        W 7408   9.674   5.851   1.848
35094W        W 7409  39.919  35.420  11.600
35095W        W 7410   6.828  16.120  12.437
35096W        W 7411  33.508  44.388  10.038
35097W        W 7412  29.452  30.112   3.866
35098W        W 7413   6.786  24.578  13.020
35099W        W 7414  30.128  38.569  10.506
35100W        W 7415  15.272  33.437   4.770
35101W        W 7416  38.342  26.627   5.568
35102W        W 7417  13.293  29.526  14.918
35103W        W 7418  12.330  31.069  10.510
35104W        W 7419  12.285   1.473   4.292
35105W        W 7420  38.558  26.114  14.767
35106W        W 7421  28.024  17.682  12.070
35107W        W 7422  18.216   1.873  12.981
35108W        W 7423  41.532  25.631   3.236
35109W        W 7424  30.480  26.600   2.245
35110W        W 7425  41.313  39.411  12.398
35111W        W 7426  42.878  16.198  13.452
35112W        W 7427  25.500  28.524   0.798
35113W        W 7428   8.671  13.164  11.492
35114W        W 7429  29.436  33.925   2.339
35115W        W 7430  17.241   5.283   1.264
35116W        W 7431  23.651   7.346   0.307
35117W        W 7432  36.480  44.869   2.244
35118W        W 7433   2.786  19.195   1.390
35119W        W 7434   5.277  44.429  12.032
35120W        W 7435  40.819   3.933   0.922
35121W        W 7436  12.815  22.558   2.347
35122W        W 7437  19.646  17.220  14.786
35123W        W 7438  39.405  11.824  14.425
35124W        W 7439   9.845  32.137   3.644
35125W        W 7440  31.115  32.050   3.344
35126W        W 7441  29.974  35.490  11.602
35127W        W 7442   8.900   5.316   1.716
35128W        W 7443  22.045  10.296  12.382
35129W        W 7444   8.822  16.210   2.342
35130W        W 7445  11.666  36.488   4.773
35131W        W 7446   8.707  41.406   2.244
35132W        W 7447   9.755  41.982   0.927
35133W        W 7448  10.364  13.608   4.685
35134W        W 7449  14.654  22.187   2.867
35135W        W 7450   3.424   0.854   2.900
35136W        W 7451  21.133  15.101   3.303
35137W        W 7452  20.728  25.600  12.058
35138W        W 7453  12.831  44.779   1.312
35139W        W 7454  18.603  10.633  10.417
35140W        W 7455  35.602  17.105  14.395
35141W        W 7456  31.459  13.729  11.582
35142W        W 7457  16.633  27.559   1.271
35143W        W 7458  43.324  39.836   3.690
35144W        W 7459  21.630   6.294   1.765
35145W        W 7460  35.056  41.294   4.787
35146W        W 7461  30.081  35.020  11.547
35147W        W 7462  35.443  28.109   2.290
35148W        W 7463  36.085  17.713  11.051
35149W        W 7464  29.461   9.790   1.855
35150W        W 7465  24.975   4.758   2.832
35151W        W 7466   0.410  12.716  11.074
35152W        W 7467  30.608  15.780  13.373
35153W        W 7468  20.665  32.930   1.876
35154W        W 7469  35.865  18.250  14.282
35155W        W 7470  21.017  12.162  13.508
35156W        W 7471  12.710  44.387   0.745
35157W        W 7472  21.671  13.144  12.990
35158W        W 7473  18.251  19.102  12.023
35159W        W 7474  11.764  24.645  11.442
35160W        W 7475  14.099  25.521  12.342
35161W        W 7476  18.726  38.340  11.475
35162W        W 7477   2.439  43.800  10.967
35163W        W 7478  25.067  33.929   1.222
35164W        W 7479  20.097  42.456   0.254
35165W        W 7480  19.743  19.191   4.300
35166W        W 7481  22.028  43.358   2.316
35167W        W 7482   2.306  43.985  10.492
35168W        W 7483  14.134   6.186  14.874
35169W        W 7484   0.939  34.546   1.347
35170W        W 7485  10.379  32.887   9.951
35171W        W 7486   1.393   4.234  13.431
35172W        W 7487  23.164  15.791   4.176
35173W        W 7488  24.046  40.534   3.325
35174W        W 7489   7.171  27.578   0.920
35175W        W 7490  30.052  30.566  11.014
35176W        W 7491  23.564  34.880  11.069
35177W        W 7492  39.326   1.742   4.139
35178W        W 7493  23.054  23.050  11.908
35179W        W 7494   5.707  35.548   4.751
35180W        W 7495   5.425  36.885  14.947
35181W        W 7496  26.131  18.124   0.439
35182W        W 7497  25.044  20.559  11.401
35183W        W 7498  37.853  33.604   2.883
35184W        W 7499  39.012  31.505   1.922
35185W        W 7500  14.182  16.600   4.815
35186W        W 7501  21.582  32.962  12.340
35187W        W 7502  14.802  43.282   2.885
35188W        W 7503  14.107  11.765  12.562
35189W        W 7504  14.608   6.375  10.915
35190W        W 7505  24.211  19.141  10.050
35191W        W 7506  11.228  21.624  14.500
35192W        W 7507  26.648  34.568   1.274
35193W        W 7508  35.392  39.856   4.313
35194W        W 7509  44.832  39.956   2.835
35195W        W 7510  19.130  30.002   3.774
35196W        W 7511  20.613  35.454   0.733
35197W        W 7512  28.521   8.238  10.406
35198W        W 7513   3.359  40.932   2.252
35199W        W 7514  12.210  26.460  14.991
35200W        W 7515  14.185  19.271  11.942
35201W        W 7516  28.163  41.850   4.808
35202W        W 7517  44.409  18.260  10.625
35203W        W 7518  42.953  13.620  13.881
35204W        W 7519  34.462   1.350  14.481
35205W        W 7520   6.410   5.823   3.657
35206W        W 7521  36.434   3.901   0.315
35207W        W 7522  44.329  18.143  12.474
35208W        W 7523  37.989   0.743   1.871
35209W        W 7524  16.710  20.116  11.032
35210W        W 7525  33.021  29.495   3.347
35211W        W 7526   8.835  40.937   3.381
35212W        W 7527  39.862   3.433   4.837
35213W        W 7528   9.774  32.549   2.811
35214W        W 7529  26.572  13.729  14.325
35215W        W 7530  14.612  26.700   9.958
35216W        W 7531  20.730  40.412   0.318
35217W        W 7532  19.049  36.019  11.128
35218W        W 7533  34.052  15.090  14.944
35219W        W 7534  22.511  28.618  14.365
35220W        W 7535  23.694   5.280   0.756
35221W        W 7536  29.560  19.658   5.122
35222W        W 7537  26.184  11.137  10.635
35223W        W 7538  29.052   1.744   1.740
35224W        W 7539   6.420   4.311  12.072
35225W        W 7540  41.473  28.488   1.252
35226W        W 7541   3.913  35.003   1.416
35227W        W 7542  27.031   7.843   1.767
35228W        W 7543  43.842   1.831  12.578
35229W        W 7544  30.959  11.837  13.424
35230W        W 7545  17.152  22.139  14.374
35231W        W 7546   5.260  10.857  11.918
35232W        W 7547   2.850  37.423   4.684
35233W        W 7548  38.340  31.479  14.940
35234W        W 7549   4.405  43.501  13.864
35235W        W 7550  26.208  28.468   0.245
35236W        W 7551  33.581  22.069   2.263
35237W        W 7552  25.626  27.103  12.063
35238W        W 7553  38.012  16.792   3.206
35239W        W 7554  13.106   7.784   2.389
35240W        W 7555  11.136  43.370   0.346
35241W        W 7556  14.713  43.918  11.494
35242W        W 7557  20.632  22.628   0.891
35243W        W 7558  27.084  28.489   2.356
35244W        W 7559  40.885  28.165  12.868
35245W        W 7560  20.675  15.119  13.436
35246W        W 7561  33.922  42.453  11.127
35247W        W 7562  40.395  32.905  11.429
35248W        W 7563  44.436  28.048   1.770
35249W        W 7564   9.235  44.979   0.262
35250W        W 7565  23.045  44.816   2.390
35251W        W 7566   0.364  29.670  10.423
35252W        W 7567  37.863  42.359  13.946
35253W        W 7568  34.971  44.374   3.758
35254W        W 7569  10.832   5.795   5.166
35255W        W 7570   4.319  18.211   2.812
35256W        W 7571  25.105  44.785   0.353
35257W        W 7572   5.414  36.520  14.354
35258W        W 7573   6.423   6.201   4.217
35259W        W 7574   7.908   2.235   1.247
35260W        W 7575  14.314  28.058   4.164
35261W        W 7576  20.669  27.568  11.550
35262W        W 7577   4.280  20.533   3.850
35263W        W 7578  21.549   5.248   2.763
35264W        W 7579  32.101   3.782   3.635
35265W        W 7580  32.528   8.846  11.122
35266W        W 7581  15.585  38.881   0.757
35267W        W 7582   7.346   3.873   4.683
35268W        W 7583  34.001  29.099   3.285
35269W        W 7584  22.201  36.020   0.842
35270W        W 7585  22.566  31.575   4.671
35271W        W 7586  24.587  16.280   2.851
35272W        W 7587  11.710  28.614   2.400
35273W        W 7588  18.685  19.244  14.356
35274W        W 7589   5.799   4.867   3.653
35275W        W 7590  44.373   4.750  14.831
35276W        W 7591  28.669  41.834   2.275
35277W        W 7592  38.894  19.681  10.529
35278W        W 7593  21.162  35.997  13.511
35279W        W 7594  17.061  34.967   2.183
35280W        W 7595  28.935  41.504  10.912
35281W        W 7596  39.060  43.787  12.533
35282W        W 7597  18.735  37.952  12.934
35283W        W 7598   8.333  12.700  13.976
35284W        W 7599  44.836   6.256   3.784
35285W        W 7600   9.749  36.541  14.901
35286W        W 7601  29.061  17.077  12.092
35287W        W 7602  37.492  24.065  10.008
35288W        W 7603  11.161  26.703   0.428
35289W        W 7604  29.958  34.544  14.926
35290W        W 7605  38.844   7.297   1.282
35291W        W 7606  18.645  21.594  14.011
35292W        W 7607   0.333  25.516   2.809
35293W        W 7608  34.536  10.658   1.350
35294W        W 7609   5.253  26.167   0.461
35295W        W 7610  25.480  23.594  12.508
35296W        W 7611  10.811  12.330   3.352
35297W        W 7612   4.307  14.265  11.459
35298W        W 7613   8.315  14.250  14.779
35299W        W 7614  44.340  22.605   5.216
35300W        W 7615  21.061  12.316  13.976
35301W        W 7616  38.546  16.084   2.202
35302W        W 7617  13.169  32.997   0.951
35303W        W 7618  41.938  32.416   4.612
35304W        W 7619   5.794  13.292  14.989
35305W        W 7620  30.128  14.274   0.393
35306W        W 7621  36.505  36.383   2.812
35307W        W 7622  13.698  44.926   0.919
35308W        W 7623  37.540  13.125  14.799
35309W        W 7624  10.381  15.660  12.391
35310W        W 7625  22.144  24.130   1.337
35311W        W 7626   5.838  13.709   1.301
35312W        W 7627  12.689  35.428  12.089
35313W        W 7628   0.898   1.880   0.819
35314W        W 7629  13.807   4.414  11.441
35315W        W 7630  19.703  26.619   4.252
35316W        W 7631  24.608  42.885  10.423
35317W        W 7632  12.820  32.510  13.015
35318W        W 7633  41.815   6.217   2.712
35319W        W 7634  10.679  17.736  11.036
35320W        W 7635  13.213  36.962   2.339
35321W        W 7636  10.673  32.515   4.767
35322W        W 7637  23.207  18.134  13.329
35323W        W 7638  39.396  25.076  12.875
35324W        W 7639  30.163  18.283  13.425
35325W        W 7640  27.061  31.421  10.953
35326W        W 7641  27.139  27.187   0.854
35327W        W 7642  30.607  12.686   4.812
35328W        W 7643  26.689   9.356   4.786
35329W        W 7644  28.441   3.761   4.678
35330W        W 7645   4.282   0.410  13.801
35331W        W 7646   3.376  34.566  13.528
35332W        W 7647  25.658   0.966   1.421
35333W        W 7648  27.640  19.057   3.729
35334W        W 7649  37.831   6.820  14.819
35335W        W 7650  15.583  24.529  12.938
35336W        W 7651   8.813   8.848  12.918
35337W        W 7652  15.605  20.617  11.595
35338W        W 7653  37.525  22.103   1.436
35339W        W 7654  37.393   9.313   0.338
35340W        W 7655  36.467   5.284  11.930
35341W        W 7656   8.286   9.227  10.458
35342W        W 7657  26.068  37.508   1.360
35343W        W 7658  40.807  33.429  12.923
35344W        W 7659  14.687  39.946   1.322
35345W        W 7660   1.253  43.934   3.776
35346W        W 7661  22.613  15.699  14.306
35347W        W 7662  20.084  31.493  12.883
35348W        W 7663  17.625   1.829  12.411
35349W        W 7664  19.176  13.806  14.352
35350W        W 7665  23.711  40.307  11.061
35351W        W 7666   1.446  20.223   1.890
35352W        W 7667   3.339   7.234   1.319
35353W        W 7668  14.792  34.000   3.230
35354W        W 7669  27.137   9.782  11.945
35355W        W 7670  13.822  11.161   2.308
35356W        W 7671  33.951  21.150   3.691
35357W        W 7672  35.023  34.520  13.449
35358W        W 7673   8.317   9.379   2.192
35359W        W 7674  38.550  37.017  12.020
35360W        W 7675  21.057  40.433   2.770
35361W        W 7676  10.668  26.183  10.462
35362W        W 7677  12.676   4.704  12.375
35363W        W 7678   3.954  41.295  13.026
35364W        W 7679  20.626   5.400   3.199
35365W        W 7680   0.397  30.431  14.888
35366W        W 7681  15.322   7.201  11.585
35367W        W 7682   6.784   8.237   1.267
35368W        W 7683  37.083  25.968  11.408
35369W        W 7684   2.830   8.775  13.797
35370W        W 7685   7.406  44.307  13.019
35371W        W 7686  41.439  43.809  12.876
35372W        W 7687  35.548  22.047   4.154
35373W        W 7688  23.727   6.761   1.801
35374W        W 7689  26.480  25.033   3.635
35375W        W 7690  24.150   8.306   1.397
35376W        W 7691   5.902  26.079   3.802
35377W        W 7692   5.330  25.147   1.790
35378W        W 7693   3.434  24.637  10.996
35379W        W 7694  25.614   9.860   1.797
35380W        W 7695  38.867  24.660   2.341
35381W        W 7696  38.434  13.115   1.800
35382W        W 7697  24.164  36.959   0.322
35383W        W 7698  26.570  11.718   0.801
35384W        W 7699  28.629   7.178  12.433
35385W        W 7700   3.855  12.617   0.420
35386W        W 7701  18.271  25.598   2.719
35387W        W 7702  44.005  40.492  11.610
35388W        W 7703   9.680  29.612   3.861
35389W        W 7704  26.567   5.875   4.269
35390W        W 7705  32.534  37.914  12.895
35391W        W 7706   8.814   8.182  11.004
35392W        W 7707   6.223  23.524  10.942
35393W        W 7708   8.813  21.599   4.685
35394W        W 7709   8.834  28.667  14.833
35395W        W 7710  18.232  12.772   1.805
35396W        W 7711   7.353  24.089   1.760
35397W        W 7712  44.876  39.061   2.200
35398W        W 7713  38.833  10.208   0.389
35399W        W 7714   5.906  13.829  13.808
35400W        W 7715  42.408  21.093  14.836
35401W        W 7716  11.356  10.768  12.533
35402W        W 7717  26.692  25.606   2.214
35403W        W 7718  38.990  28.168  14.935
35404W        W 7719  33.081  16.239  13.030
35405W        W 7720  42.498  12.636   0.454
35406W        W 7721  11.235  44.944   3.277
35407W        W 7722  21.120  34.604  14.380
35408W        W 7723  42.349   1.841  14.501
35409W        W 7724  17.125  14.290   3.275
35410W        W 7725   0.768   4.311  12.964
35411W        W 7726   5.226  15.595   1.409
35412W        W 7727  40.900  14.302   0.377
35413W        W 7728   9.663  23.526   3.242
35414W        W 7729  30.100   2.799   1.241
35415W        W 7730  31.525  21.629   1.413
35416W        W 7731   1.326  15.809   0.818
35417W        W 7732  23.009  18.079   3.371
35418W        W 7733  30.505  25.042   3.336
35419W        W 7734  34.567  20.183  13.815
35420W        W 7735  22.124  19.643   5.602
35421W        W 7736  44.987  17.569  10.595
35422W        W 7737  10.278  39.378   3.837
35423W        W 7738   9.169  41.833  14.837
35424W        W 7739  44.802   6.824  12.961
35425W        W 7740  26.190  31.987  13.860
35426W        W 7741   9.169  33.908  13.861
35427W        W 7742  38.472   9.850   0.926
35428W        W 7743  37.938  11.695  11.125
35429W        W 7744   3.246  23.992   3.818
35430W        W 7745  36.052  23.197   0.439
35431W        W 7746  27.461  42.444   2.832
35432W        W 7747  42.811  23.729   4.288
35433W        W 7748  42.845  44.477   0.404
35434W        W 7749  10.192  44.000  11.495
35435W        W 7750  32.528  16.597  14.403
35436W        W 7751  14.222   2.908  12.353
35437W        W 7752   9.247  20.697  14.982
35438W        W 7753  34.480  34.480   1.853
35439W        W 7754  14.252  41.011  13.881
35440W        W 7755   2.880  41.321   0.868
35441W        W 7756  16.130   2.783   0.887
35442W        W 7757  32.948  17.646   2.865
35443W        W 7758  24.644  35.095  10.906
35444W        W 7759  11.859   8.665   1.372
35445W        W 7760  19.661  33.408   5.251
35446W        W 7761   1.877  26.186   3.666
35447W        W 7762   1.335  22.212   4.753
35448W        W 7763  41.003  22.240   4.730
35449W        W 7764  25.112  28.992   0.333
35450W        W 7765   1.769  31.020  13.442
35451W        W 7766  19.582  26.122   4.683
35452W        W 7767   1.783  31.943   3.309
35453W        W 7768  39.874   2.370  12.015
35454W        W 7769  22.102  39.884  14.934
35455W        W 7770  36.039  35.426   2.208
35456W        W 7771  42.300   8.240   3.786
35457W        W 7772  11.629   7.186  12.520
35458W        W 7773  22.579   0.434   0.249
35459W        W 7774  40.478  28.544  13.478
35460W        W 7775  41.438  27.616  13.431
35461W        W 7776  19.550  20.768   0.346
35462W        W 7777  36.071  15.115   2.298
35463W        W 7778   5.294   2.964   0.355
35464W        W 7779  23.560  22.647   5.294
35465W        W 7780  16.308  44.464   4.351
35466W        W 7781   1.284  22.141  14.952
35467W        W 7782  20.660   0.371   1.790
35468W        W 7783  17.726  28.034   4.695
35469W        W 7784  11.628  43.769   1.754
35470W        W 7785  21.195  28.559   2.798
35471W        W 7786   9.263  16.225  11.922
35472W        W 7787  12.817  19.072   2.828
35473W        W 7788   4.390  20.617   3.338
35474W        W 7789   0.303   2.446  12.988
35475W        W 7790   1.361  27.089  12.477
35476W        W 7791  38.837  37.405   3.255
35477W        W 7792   1.889  27.023  10.409
35478W        W 7793  40.331  29.129   2.775
35479W        W 7794  14.648  40.387   2.397
35480W        W 7795  33.020  17.567  13.437
35481W        W 7796  27.027   6.697   5.691
35482W        W 7797  12.225  42.947   4.833
35483W        W 7798  41.900  10.655   2.216
35484W        W 7799  22.219   7.780   4.769
35485W        W 7800  24.082  21.127  12.893
35486W        W 7801  11.330  15.227   3.666
35487W        W 7802  21.048  24.522   4.640
35488W        W 7803  17.605  42.784   1.808
35489W        W 7804  38.341  36.935  14.917
35490W        W 7805  35.358  15.107  13.793
35491W        W 7806  16.136   7.846   4.302
35492W        W 7807  20.034  42.335  12.446
35493W        W 7808  12.195  26.678   2.810
35494W        W 7809  16.622   5.915   4.270
35495W        W 7810  24.146  41.802   2.885
35496W        W 7811   3.415  44.795  10.613
35497W        W 7812  11.790  22.699  12.396
35498W        W 7813  33.010  30.915   4.328
35499W        W 7814  42.314  14.664   1.217
35500W        W 7815  44.311  26.068  13.466
35501W        W 7816  16.785  42.807   0.799
35502W        W 7817  29.588  40.893   0.350
35503W        W 7818   3.414  19.761  10.894
35504W        W 7819   2.308  18.278   2.680
35505W        W 7820   1.827  20.621   4.837
35506W        W 7821  14.189   0.262  13.918
35507W        W 7822  16.654   6.910   4.300
35508W        W 7823   8.867  37.083   4.735
35509W        W 7824  38.555  25.497   1.868
35510W        W 7825  33.462  32.085   1.834
35511W        W 7826  38.964  32.426   4.636
35512W        W 7827   7.353  31.528   2.784
35513W        W 7828  33.072  12.804   3.677
35514W        W 7829  42.422   2.253   0.956
35515W        W 7830  12.760  35.093   1.265
35516W        W 7831  37.081  37.376  12.560
35517W        W 7832  35.090  36.536   0.303
35518W        W 7833  17.740  14.209   1.441
35519W        W 7834  28.524   7.787   0.285
35520W        W 7835  30.159   6.375  14.444
35521W        W 7836  28.554  17.189   0.336
35522W        W 7837  28.131  10.750   2.277
35523W        W 7838  22.015  30.934  14.920
35524W        W 7839  15.090  37.553  10.638
35525W        W 7840  25.013  16.192  10.545
35526W        W 7841  13.149  38.477  14.784
35527W        W 7842  10.161  43.508   2.268
35528W        W 7843  14.127  25.973   4.301
35529W        W 7844  26.522  38.559   1.881
35530W        W 7845  29.429  38.402  12.999
35531W        W 7846   6.224  34.443   3.843
35532W        W 7847  40.031  42.323   4.717
35533W        W 7848  34.936  22.683  12.562
35534W        W 7849  15.250  35.439  14.913
35535W        W 7850  43.460  32.011   3.289
35536W        W 7851  36.496  32.041  12.433
35537W        W 7852  13.342  18.072   1.213
35538W        W 7853  18.106  38.012   1.214
35539W        W 7854  23.639  21.712  13.829
35540W        W 7855   5.327  20.200   0.872
35541W        W 7856  16.677  15.220   0.444
35542W        W 7857  14.641  37.441  12.901
35543W        W 7858   0.976  23.121  10.999
35544W        W 7859  30.138  21.646   4.747
35545W        W 7860   9.234  31.493   1.213
35546W        W 7861  24.993  27.012  11.380
35547W        W 7862  30.014  33.552  10.927
35548W        W 7863   0.347   8.751   4.815
35549W        W 7864  21.252   2.826  14.451
35550W        W 7865  36.021   1.329  12.073
35551W        W 7866  43.824   1.883   3.318
35552W        W 7867  41.460  24.082  11.476
35553W        W 7868  22.999  32.037   0.756
35554W        W 7869  10.705  25.582  11.979
35555W        W 7870  22.252  31.461  11.456
35556W        W 7871   7.347  43.396  12.996
35557W        W 7872  24.613   5.353   1.358
35558W        W 7873   6.267  12.315  11.450
35559W        W 7874   9.324   1.454   2.696
35560W        W 7875   9.718   3.459   4.687
35561W        W 7876  16.173  36.354  14.818
35562W        W 7877  35.599  15.090  14.949
35563W        W 7878  10.765  35.023   1.229
35564W        W 7879  17.649   5.905  14.438
35565W        W 7880  44.826  35.567  12.406
35566W        W 7881  23.141  19.162  14.499
35567W        W 7882   1.427  22.695   3.639
35568W        W 7883  11.821  29.550  10.442
35569W        W 7884  40.952  34.951  11.117
35570W        W 7885  34.025   3.872   4.315
35571W        W 7886  39.545  14.728   1.698
35572W        W 7887  11.684   1.943  10.978
35573W        W 7888   6.687  25.199   3.801
35574W        W 7889   8.669   3.916   4.600
35575W        W 7890  34.935  39.922   1.765
35576W        W 7891   8.689   7.682   2.397
35577W        W 7892   8.894  32.127   3.202
35578W        W 7893  23.709  15.719  11.397
35579W        W 7894   4.331  22.016   1.378
35580W        W 7895  32.527  12.787  14.428
35581W        W 7896  24.014  20.524   0.257
35582W        W 7897  19.230   0.302   3.181
35583W        W 7898  27.490  17.737   4.322
35584W        W 7899   0.777   2.406  10.919
35585W        W 7900  37.503  27.151  13.057
35586W        W 7901  35.929  27.619   2.179
35587W        W 7902  41.533   2.787  14.315
35588W        W 7903  10.144  30.917  10.575
35589W        W 7904   5.347  38.888  11.580
35590W        W 7905   5.824  22.615  12.030
35591W        W 7906  26.680  22.057  12.891
35592W        W 7907  30.047   5.857   0.872
35593W        W 7908  16.620  13.249  11.488
35594W        W 7909  14.273   1.242   4.220
35595W        W 7910  22.029   6.278  13.468
35596W        W 7911   7.362  43.272   4.778
35597W        W 7912  19.675   8.718   2.846
35598W        W 7913  14.185  44.434   1.400
35599W        W 7914  21.515  29.508   0.312
35600W        W 7915  42.507  44.320   1.399
35601W        W 7916   3.872  38.365  12.561
35602W        W 7917  29.490  24.051  14.391
35603W        W 7918  22.541  33.014   2.852
35604W        W 7919  30.094   3.761   4.815
35605W        W 7920   2.368  23.495  13.418
35606W        W 7921  23.691  18.078   4.297
35607W        W 7922  29.117  43.294   3.796
35608W        W 7923  26.066  26.491  12.939
35609W        W 7924   2.374   1.885  13.364
35610W        W 7925  29.485  42.776   4.162
35611W        W 7926  24.035  34.939  13.338
35612W        W 7927  43.968  14.288  10.984
35613W        W 7928  19.049  19.702  10.549
35614W        W 7929   3.265  28.972   0.386
35615W        W 7930  24.584   8.685  12.833
35616W        W 7931   1.245   5.404   3.831
35617W        W 7932  12.325  40.813   3.663
35618W        W 7933  13.303  25.526   3.213
35619W        W 7934  19.079  31.635   2.779
35620W        W 7935   8.347  43.346   1.803
35621W        W 7936   1.751  14.129  11.598
35622W        W 7937  37.456   0.303  13.536
35623W        W 7938  22.535   3.735  14.491
35624W        W 7939  44.803   2.430   0.773
35625W        W 7940   4.205  42.999  12.466
35626W        W 7941  38.551  34.508   1.382
35627W        W 7942   7.733   8.697  12.069
35628W        W 7943   0.777  43.379  13.991
35629W        W 7944  13.710   2.953   0.370
35630W        W 7945  26.550  24.160  14.004
35631W        W 7946  20.251   8.709   4.771
35632W        W 7947   7.177   9.366  13.401
35633W        W 7948  13.743  17.767   4.662
35634W        W 7949  34.047   5.212   1.312
35635W        W 7950   8.780  34.368  11.949
35636W        W 7951  36.984  36.369   1.784
35637W        W 7952  44.889   3.445  10.601
35638W        W 7953  33.499  18.146   3.791
35639W        W 7954   5.835  40.875   0.764
35640W        W 7955  26.112  33.575  11.602
35641W        W 7956  22.739  11.150   4.614
35642W        W 7957  23.141  15.803   3.733
35643W        W 7958  44.481  10.251  11.872
35644W        W 7959  39.995  34.601   1.327
35645W        W 7960  37.487  14.234  14.805
35646W        W 7961   7.260  26.510   4.607
35647W        W 7962  33.413   0.912  12.359
35648W        W 7963  29.588  24.973  11.021
35649W        W 7964  40.818  40.347   4.131
35650W        W 7965   5.394  26.067  14.853
35651W        W 7966   5.360  28.589   2.202
35652W        W 7967  27.541   7.700  10.645
35653W        W 7968  25.570  33.994   3.290
35654W        W 7969  44.965  23.591   1.721
35655W        W 7970  42.477  40.426  12.075
35656W        W 7971   0.796  38.035  14.989
35657W        W 7972  44.931   1.934  14.785
35658W        W 7973  18.180  25.639   0.271
35659W        W 7974  37.567   9.173  11.422
35660W        W 7975  31.046  12.827  10.155
35661W        W 7976   9.372  36.851  11.068
35662W        W 7977  14.157  33.506  11.888
35663W        W 7978   7.171  16.625  12.837
35664W        W 7979   5.810  44.926  12.852
35665W        W 7980  16.736   4.745  13.537
35666W        W 7981   9.170  31.089   4.688
35667W        W 7982   3.918   8.770   2.370
35668W        W 7983  16.676  14.783   0.424
35669W        W 7984  35.368  17.771   2.772
35670W        W 7985  24.218  13.818  14.831
35671W        W 7986  25.638  34.918   2.708
35672W        W 7987  20.605  16.616   1.253
35673W        W 7988   4.244   0.826  13.348
35674W        W 7989  25.603   9.220   0.819
35675W        W 7990  30.434  34.899  11.486
35676W        W 7991  28.096   1.807  10.103
35677W        W 7992  35.543  28.448   0.855
35678W        W 7993  30.114  11.245  14.930
35679W        W 7994   4.765  43.939   3.668
35680W        W 7995  17.263  39.418  11.528
35681W        W 7996  12.245  42.996  10.531
35682W        W 7997   6.698  14.748   3.340
35683W        W 7998  23.528   3.261   1.917
35684W        W 7999  12.349  31.984  10.017
35685W        W 8000  42.869   8.824   5.283
35686W        W 8001  15.181  43.911   2.708
35687W        W 8002  35.378  43.861   0.315
35688W        W 8003   6.253  38.071   1.334
35689W        W 8004  23.045   8.662  13.887
35690W        W 8005  35.361  20.158  12.839
35691W        W 8006   4.377  36.908  11.496
35692W        W 8007  37.946  36.384   3.797
35693W        W 8008  40.491  39.933   4.116
35694W        W 8009  25.148  18.216  14.811
35695W        W 8010  17.656  39.472   3.232
35696W        W 8011  15.218  30.603  11.050
35697W        W 8012  29.149  13.746   2.190
35698W        W 8013  30.622  17.636  10.939
35699W        W 8014  26.156  13.232   1.764
35700W        W 8015  37.004  32.427  10.588
35701W        W 8016   4.875  10.845   3.152
35702W        W 8017   9.664  13.263  10.481
35703W        W 8018  26.954  17.141   4.767
35704W        W 8019  18.673  28.932  13.035
35705W        W 8020   5.246  33.582   3.349
35706W        W 8021  20.689  27.490   1.228
35707W        W 8022  17.110  28.096  13.463
35708W        W 8023   0.854   4.411   1.292
35709W        W 8024  12.819  12.116  14.853
35710W        W 8025   3.753  13.749  14.834
35711W        W 8026  28.446   0.866   4.711
35712W        W 8027  21.697  21.201   3.208
35713W        W 8028   3.336  39.516   2.862
35714W        W 8029  37.928   0.960   4.166
35715W        W 8030   0.457  27.541   0.415
35716W        W 8031  28.450  10.760   2.751
35717W        W 8032  38.390  19.171  13.451
35718W        W 8033  44.935  23.588  12.546
35719W        W 8034  14.770   7.188   4.318
35720W        W 8035  30.635   3.307   2.844
35721W        W 8036  15.739  26.091  13.923
35722W        W 8037  30.548  28.560   3.301
35723W        W 8038  33.882  34.954   3.658
35724W        W 8039  21.198  39.898  12.359
35725W        W 8040  17.581  18.559   0.274
35726W        W 8041  16.710  15.773  10.890
35727W        W 8042  34.539  37.841   3.242
35728W        W 8043   5.258  26.564   0.293
35729W        W 8044  37.470  27.164  10.555
35730W        W 8045  22.082  37.025  11.402
35731W        W 8046   5.702  12.709   2.684
35732W        W 8047  20.542  13.763  13.460
35733W        W 8048  40.834   7.728  11.398
35734W        W 8049   1.847  11.274   0.867
35735W        W 8050   0.342  31.588   4.732
35736W        W 8051   4.749   6.221   2.854
35737W        W 8052  21.536   7.200   4.709
35738W        W 8053   3.897  19.743  13.450
35739W        W 8054  11.240   8.679   1.878
35740W        W 8055  19.243  17.756  12.376
35741W        W 8056  13.614  21.204   1.913
35742W        W 8057  26.041  20.153  13.866
35743W        W 8058  11.734   3.431  13.814
35744W        W 8059  33.042  16.088  14.022
35745W        W 8060   5.311  10.697   2.319
35746W        W 8061   7.333  44.277   2.794
35747W        W 8062  22.130  43.354   3.829
35748W        W 8063  14.777  41.419  13.327
35749W        W 8064  35.100  24.168  13.469
35750W        W 8065  41.364  14.217  11.036
35751W        W 8066  39.025  39.022   3.749
35752W        W 8067   4.791  39.337  10.439
35753W        W 8068  23.202  43.940   4.244
35754W        W 8069  42.387   4.401   0.936
35755W        W 8070  42.950  25.594  11.881
35756W        W 8071  29.138  35.931   4.188
35757W        W 8072   3.918  41.313  13.537
35758W        W 8073  22.020  12.777   4.811
35759W        W 8074  32.458   7.363  12.902
35760W        W 8075  11.704   4.909   4.317
35761W        W 8076  13.697  44.331  13.408
35762W        W 8077  10.854   6.759  13.385
35763W        W 8078  10.318  25.986   2.324
35764W        W 8079  38.886   1.760  13.442
35765W        W 8080  25.140  39.383   1.861
35766W        W 8081  26.548  41.843   3.739
35767W        W 8082   8.259  16.197   1.398
35768W        W 8083   2.396   8.349   2.180
35769W        W 8084  19.554  14.693  13.813
35770W        W 8085  43.405   4.852  11.043
35771W        W 8086  17.150  39.993  13.862
35772W        W 8087  42.927  22.086   3.218
35773W        W 8088  29.944  39.884   1.394
35774W        W 8089  25.652  43.425  12.992
35775W        W 8090  13.246   8.853   2.389
35776W        W 8091  17.151   1.876   9.939
35777W        W 8092  43.444   2.325   2.743
35778W        W 8093  43.273  35.095   1.277
35779W        W 8094   3.351   4.351  11.967
35780W        W 8095  41.954  13.161  11.040
35781W        W 8096  35.419  19.077  10.514
35782W        W 8097  10.178  36.097  11.902
35783W        W 8098  27.090  11.362  10.014
35784W        W 8099   0.411  37.441  13.527
35785W        W 8100  10.291   6.884  14.921
35786W        W 8101  29.661   7.772   1.708
35787W        W 8102   5.399  39.054  10.921
35788W        W 8103   0.853  24.208   0.835
35789W        W 8104   1.333  27.594  13.515
35790W        W 8105  29.647  10.658  14.835
35791W        W 8106  23.581  13.324   0.945
35792W        W 8107  13.691  14.298  14.478
35793W        W 8108  13.293   3.349   0.749
35794W        W 8109  13.171   8.811  12.446
35795W        W 8110  43.879  42.957   4.216
35796W        W 8111  14.622  40.311  14.802
35797W        W 8112  40.364  15.111   4.172
35798W        W 8113  21.157  39.441  11.902
35799W        W 8114  39.965   4.702  10.576
35800W        W 8115  16.677  33.889   1.725
35801W        W 8116   1.394  12.299   2.858
35802W        W 8117  30.971  10.291  13.862
35803W        W 8118  26.526  30.921  11.875
35804W        W 8119  32.566  35.997   1.816
35805W        W 8120  39.041  11.170  11.438
35806W        W 8121  11.848  23.654   2.673
35807W        W 8122   8.759  27.481  13.853
35808W        W 8123  19.077   8.874  11.894
35809W        W 8124   2.272  34.432   0.334
35810W        W 8125   5.238  31.575   0.796
35811W        W 8126  39.540  26.495   3.266
35812W        W 8127  33.011  24.182  11.378
35813W        W 8128  39.360  36.083  14.475
35814W        W 8129  33.114  30.151   1.337
35815W        W 8130   4.435  38.917   2.881
35816W        W 8131   2.376  18.169   1.836
35817W        W 8132  10.267  32.965   0.314
35818W        W 8133  11.177  34.946  12.434
35819W        W 8134  42.394  37.984  11.104
35820W        W 8135   9.867  30.477  12.530
35821W        W 8136   0.913   6.711  12.082
35822W        W 8137  39.033   8.668   3.257
35823W        W 8138  17.110  30.465   4.202
35824W        W 8139  21.576  24.009  12.823
35825W        W 8140   9.820  14.815   4.620
35826W        W 8141   7.689  36.513   3.216
35827W        W 8142   4.808  25.542   4.160
35828W        W 8143   4.335  31.026  10.933
35829W        W 8144   6.879   6.203   4.828
35830W        W 8145   1.832  38.036  11.995
35831W        W 8146   0.415  18.618   4.115
35832W        W 8147  44.973  32.608   1.907
35833W        W 8148   3.452  28.972  12.568
35834W        W 8149  13.600   6.805  11.103
35835W        W 8150  37.553   8.688  10.120
35836W        W 8151  36.426   4.804   3.790
35837W        W 8152  23.121  32.480   0.344
35838W        W 8153   7.264  36.530   1.868
35839W        W 8154  42.334  14.331   3.758
35840W        W 8155   3.361  12.278  14.964
35841W        W 8156  13.238  11.670   4.645
35842W        W 8157  23.702   6.235  11.045
35843W        W 8158  28.643  37.853   0.808
35844W        W 8159  32.983  14.244   0.314
35845W        W 8160  41.898   8.782   0.358
35846W        W 8161  25.032  12.328  10.956
35847W        W 8162  32.979  21.169   4.344
35848W        W 8163   0.865   3.375  13.314
35849W        W 8164  40.422   6.235   3.258
35850W        W 8165  36.032  18.296   4.662
35851W        W 8166  24.161   0.382  14.437
35852W        W 8167  22.580  20.687   3.659
35853W        W 8168  35.597   8.831   2.324
35854W        W 8169   1.813   5.359  13.503
35855W        W 8170  17.573  11.318  14.963
35856W        W 8171  15.669  10.768  13.044
35857W        W 8172  10.209  38.905  10.615
35858W        W 8173  39.820  41.451   1.324
35859W        W 8174  17.175  39.366   2.309
35860W        W 8175  18.069  30.959   2.779
35861W        W 8176  15.612  13.316  14.342
35862W        W 8177  34.405  31.931   2.346
35863W        W 8178  27.511  31.486   2.409
35864W        W 8179  36.890   5.351   4.141
35865W        W 8180  39.902   3.402   0.865
35866W        W 8181  17.766  30.483  11.030
35867W        W 8182  31.043  34.549  14.506
35868W        W 8183  29.160  39.985  13.436
35869W        W 8184  24.225  37.073  11.992
35870W        W 8185  21.134  22.025  12.043
35871W        W 8186  18.619  13.341  11.962
35872W        W 8187  39.403  18.594   3.150
35873W        W 8188   0.295   7.692   4.206
35874W        W 8189  44.307  29.151  10.972
35875W        W 8190  43.811  38.009   1.291
35876W        W 8191  36.991  44.954  12.421
35877W        W 8192  34.876   9.825   1.811
35878W        W 8193  24.621  44.301   4.706
35879W        W 8194  22.060  15.318   4.137
35880W        W 8195  12.764  34.489   2.352
35881W        W 8196  30.977  44.872   1.812
35882W        W 8197  44.415  27.622  11.412
35883W        W 8198  16.759  16.622  12.950
35884W        W 8199   6.241  43.984  13.941
35885W        W 8200  40.958  22.519   2.328
35886W        W 8201  18.111   2.957  11.043
35887W        W 8202  40.438  11.172  12.867
35888W        W 8203  43.445  33.973  13.935
35889W        W 8204  17.210  29.079   0.346
35890W        W 8205  21.528  37.900  14.308
35891W        W 8206  42.874  22.522  10.529
35892W        W 8207   0.312  14.235   4.209
35893W        W 8208  20.216  23.113  10.955
35894W        W 8209   1.420  17.776   1.812
35895W        W 8210  11.252  21.095  10.561
35896W        W 8211   2.811  24.495   3.316
35897W        W 8212  38.927   6.334   3.843
35898W        W 8213  40.335  33.380  14.976
35899W        W 8214  22.567  12.286  11.492
35900W        W 8215  35.413  28.504  11.408
35901W        W 8216  28.975   6.764  11.400
35902W        W 8217  24.577  20.135  12.014
35903W        W 8218  27.066  34.077  11.423
35904W        W 8219   8.356  11.841  13.466
35905W        W 8220   4.220  33.510   1.844
35906W        W 8221  28.161  34.925   3.805
35907W        W 8222  29.612  24.989   9.974
35908W        W 8223  13.223  37.875   2.770
35909W        W 8224  21.123  34.484  13.815
35910W        W 8225  39.035  34.583   4.268
35911W        W 8226  10.729  31.545   2.383
35912W        W 8227  43.892   7.302  11.561
35913W        W 8228  44.447  42.331  12.076
35914W        W 8229  28.140  18.726   0.438
35915W        W 8230  25.480   9.211   3.768
35916W        W 8231  21.104   4.354   1.338
35917W        W 8232  22.139  29.921   1.923
35918W        W 8233  41.480  11.642   3.784
35919W        W 8234  34.501  28.130   1.351
35920W        W 8235   8.341  16.084  13.340
35921W        W 8236  27.953   7.736   5.175
35922W        W 8237  24.707  25.663  12.579
35923W        W 8238  11.356  22.577   3.640
35924W        W 8239  24.492  43.941   0.317
35925W        W 8240  21.565  30.918   2.410
35926W        W 8241  21.036  41.319  13.018
35927W        W 8242  17.226   8.694  10.537
35928W        W 8243   3.783  11.663   0.466
35929W        W 8244  22.612  33.416  11.111
35930W        W 8245  20.524   3.289   3.865
35931W        W 8246  31.481  20.141  11.034
35932W        W 8247  21.542  32.941   2.732
35933W        W 8248  25.540  40.356  10.990
35934W        W 8249  36.872  43.508  13.928
35935W        W 8250  35.570  26.998  14.813
35936W        W 8251  25.585  35.503  10.569
35937W        W 8252   5.752  16.145  13.837
35938W        W 8253  37.987  42.018   0.259
35939W        W 8254  39.954  43.876   2.886
35940W        W 8255   5.844  12.238   4.600
35941W        W 8256  40.469   6.219  12.874
35942W        W 8257   6.231  13.176  10.897
35943W        W 8258   0.912  35.600   0.858
35944W        W 8259  26.658  23.050   0.953
35945W        W 8260  31.102  35.067  11.961
35946W        W 8261   8.751  11.359   4.755
35947W        W 8262   8.379  35.076  14.416
35948W        W 8263  31.530   9.659   2.892
35949W        W 8264   9.261  19.598  14.472
35950W        W 8265  36.899  12.281  11.924
35951W        W 8266  23.984   0.376  13.413
35952W        W 8267  13.703   8.661  12.004
35953W        W 8268   1.790  24.110   1.423
35954W        W 8269   6.818   6.367  14.282
35955W        W 8270   1.464  40.800  10.530
35956W        W 8271  26.486  30.633   4.260
35957W        W 8272  33.512  23.520  13.439
35958W        W 8273  40.989  37.434   5.164
35959W        W 8274  21.697  30.563   1.756
35960W        W 8275  40.343  19.187  10.905
35961W        W 8276   2.965   5.800  11.964
35962W        W 8277  20.044  15.238  12.042
35963W        W 8278  11.359  26.959  14.952
35964W        W 8279  33.011  38.009  12.061
35965W        W 8280  12.176   2.859   0.918
35966W        W 8281   0.480   2.806   3.212
35967W        W 8282   9.253  13.844  11.869
35968W        W 8283  26.193  26.978  12.982
35969W        W 8284  37.867  27.649   3.372
35970W        W 8285  14.115  19.264   4.764
35971W        W 8286  25.686  23.622  11.497
35972W        W 8287  26.101   6.923  14.987
35973W        W 8288  27.567  23.577   1.396
35974W        W 8289   7.808  41.518  10.601
35975W        W 8290  43.924  24.993  13.888
35976W        W 8291  10.143  28.173   3.686
35977W        W 8292  37.399   2.266  10.473
35978W        W 8293   4.919   6.723   1.877
35979W        W 8294  15.171  32.107   1.219
35980W        W 8295   5.334  31.620  12.519
35981W        W 8296  11.695  38.446  13.404
35982W        W 8297   5.914  11.194  10.439
35983W        W 8298  34.992   6.281   2.204
35984W        W 8299  41.373  18.740  14.371
35985W        W 8300  29.493  29.998   1.895
35986W        W 8301  21.153  30.158   3.689
35987W        W 8302  25.624  40.911   4.184
35988W        W 8303  23.665  17.683  12.508
35989W        W 8304  10.862  10.377   4.766
35990W        W 8305  32.428  17.108  11.997
35991W        W 8306  30.462  21.588  12.016
35992W        W 8307  13.179  11.161   1.256
35993W        W 8308  41.349  16.104  14.001
35994W        W 8309  25.136  39.397  10.509
35995W        W 8310  29.929   6.678  13.308
35996W        W 8311  19.557  28.951   0.750
35997W        W 8312  23.519  39.985   2.247
35998W        W 8313  10.226  30.136   1.879
35999W        W 8314  39.560  25.009  14.292
36000W        W 8315  16.236  29.606   2.227
36001W        W 8316  44.831  31.117  13.967
36002W        W 8317  30.996  28.005  12.552
36003W        W 8318  22.666  17.067   1.243
36004W        W 8319   5.375  40.822  11.555
36005W        W 8320  35.031   8.703  10.964
36006W        W 8321  39.050   8.723  14.003
36007W        W 8322  11.129  43.373   4.322
36008W        W 8323  40.427   4.886  11.429
36009W        W 8324  23.701  37.880  12.898
36010W        W 8325   3.283  33.451   4.239
36011W        W 8326  42.432  21.600   1.704
36012W        W 8327   5.300  41.330   5.220
36013W        W 8328  19.559  28.583   2.761
36014W        W 8329   5.691  21.243  13.041
36015W        W 8330  11.144  40.326  10.407
36016W        W 8331   3.895  31.487   0.842
36017W        W 8332  13.150   3.361   1.318
36018W        W 8333  40.910  33.018   3.223
36019W        W 8334  42.320  35.440  13.026
36020W        W 8335  16.271  33.403   3.689
36021W        W 8336   2.226   1.894  14.328
36022W        W 8337  12.685  34.012  14.937
36023W        W 8338  10.735  24.071  12.957
36024W        W 8339  28.618  41.502  11.385
36025W        W 8340  19.710   8.324   0.728
36026W        W 8341  26.593   2.236   3.812
36027W        W 8342  28.176  19.605  13.430
36028W        W 8343  11.186  28.629  10.406
36029W        W 8344   4.410  40.917  10.554
36030W        W 8345  14.145  28.986  12.047
36031W        W 8346  40.886  24.028  12.088
36032W        W 8347  32.486  31.644   4.169
36033W        W 8348  27.604  18.245  14.428
36034W        W 8349  18.605  34.515   3.246
36035W        W 8350   3.800  15.086   1.750
36036W        W 8351   5.414   6.783   1.844
36037W        W 8352  23.702  27.963   2.784
36038W        W 8353   0.398   0.862  11.123
36039W        W 8354  20.193  29.927   4.222
36040W        W 8355  17.189  15.733  14.466
36041W        W 8356  41.790  31.455   4.808
36042W        W 8357   0.371  43.442  11.989
36043W        W 8358  18.587  10.863  11.949
36044W        W 8359  30.466  12.202   2.244
36045W        W 8360   3.346   6.699  11.896
36046W        W 8361   6.314  16.659  12.939
36047W        W 8362  23.005  25.191   4.767
36048W        W 8363  23.010  37.888  11.454
36049W        W 8364  24.026  28.456  13.036
36050W        W 8365  27.973  34.563  14.849
36051W        W 8366  11.224   8.400   2.736
36052W        W 8367  16.754  36.987  10.926
36053W        W 8368  40.376  20.663  14.871
36054W        W 8369   3.902   7.848  14.979
36055W        W 8370  27.086   7.758  10.528
36056W        W 8371  18.158  39.556  10.639
36057W        W 8372  27.175  40.542  11.035
36058W        W 8373  28.046  22.661   2.788
36059W        W 8374  30.498  11.670   2.871
36060W        W 8375   1.779  44.321   3.735
36061W        W 8376  32.125  38.338   4.621
36062W        W 8377   2.317  24.078  13.501
36063W        W 8378  34.090  32.916  14.368
36064W        W 8379  26.622  12.279  12.368
36065W        W 8380  37.901  36.967   4.326
36066W        W 8381   0.922   1.973  14.867
36067W        W 8382  12.350  10.252   3.693
36068W        W 8383  35.492  27.969   4.318
36069W        W 8384  32.579   6.379   4.299
36070W        W 8385  28.068  22.542  14.854
36071W        W 8386  39.357  29.129  13.025
36072W        W 8387  44.793  15.320   0.384
36073W        W 8388  16.673   2.252  14.321
36074W        W 8389  11.712  13.337  11.420
36075W        W 8390  18.751  31.578   0.468
36076W        W 8391  17.212  35.430  13.517
36077W        W 8392   8.660  31.080   1.788
36078W        W 8393  38.385  18.670   0.792
36079W        W 8394  40.014  25.516  12.891
36080W        W 8395  17.725  25.702  11.511
36081W        W 8396  23.649  12.821   1.331
36082W        W 8397  36.539  21.208  13.442
36083W        W 8398  21.228  29.641  13.460
36084W        W 8399  13.694  24.481   1.224
36085W        W 8400  13.139  33.524  13.459
36086W        W 8401   9.674  19.739  12.494
36087W        W 8402  36.409  28.037  10.485
36088W        W 8403  44.416  17.668   4.349
36089W        W 8404   1.879  30.044  14.776
36090W        W 8405  18.603   4.436   3.376
36091W        W 8406  33.604   3.370   3.364
36092W        W 8407  34.531  38.917  11.464
36093W        W 8408  40.490  12.825  12.056
36094W        W 8409  35.917  34.601  11.855
36095W        W 8410  44.457  43.415   3.181
36096W        W 8411  41.534  39.020   4.753
36097W        W 8412  16.701  11.660   3.198
36098W        W 8413   8.307  29.088   3.782
36099W        W 8414   2.294  41.433   0.303
36100W        W 8415  39.891  16.085  12.902
36101W        W 8416  10.848  17.106   2.838
36102W        W 8417   5.361  11.639   1.239
36103W        W 8418  15.294  41.387  11.889
36104W        W 8419   8.182  14.197   2.363
36105W        W 8420   7.897   4.278   1.292
36106W        W 8421  42.426  23.159   1.730
36107W        W 8422  30.419  26.588   1.449
36108W        W 8423  16.681  25.084   1.774
36109W        W 8424  40.327  23.218  12.544
36110W        W 8425   6.682  40.799   1.864
36111W        W 8426  22.670  42.415   3.632
36112W        W 8427  10.156   7.196   9.991
36113W        W 8428   7.232  41.857  12.035
36114W        W 8429  10.792  14.783   4.813
36115W        W 8430  34.974   2.274  11.032
36116W        W 8431  10.766  41.454   0.916
36117W        W 8432   8.750   7.794   3.650
36118W        W 8433  43.808  38.464   0.960
36119W        W 8434   2.259   3.881  11.955
36120W        W 8435  40.918  38.565   0.822
36121W        W 8436  29.448   3.275   1.321
36122W        W 8437  11.804  30.516   3.327
36123W        W 8438  21.755   6.759   0.858
36124W        W 8439  14.168  20.240   0.868
36125W        W 8440   0.492  10.236  12.979
36126W        W 8441  37.535  30.631   0.418
36127W        W 8442  39.390  18.220  12.080
36128W        W 8443  16.585  28.521   1.826
36129W        W 8444  22.540   8.323  11.989
36130W        W 8445   4.901  12.648  10.982
36131W        W 8446  29.115  11.148  12.395
36132W        W 8447   7.886  21.260  12.438
36133W        W 8448  41.893  23.025  14.329
36134W        W 8449  27.651  15.758  13.345
36135W        W 8450  43.914  10.282   2.743
36136W        W 8451  16.256  40.036   1.354
36137W        W 8452  34.427  13.734   1.376
36138W        W 8453   6.222   2.231   4.731
36139W        W 8454  13.122   6.346   9.923
36140W        W 8455   1.316   6.853   4.292
36141W        W 8456  27.041  30.998   1.351
36142W        W 8457   0.494  39.349  12.885
36143W        W 8458  30.122  43.892   3.693
36144W        W 8459  30.965  11.838   2.282
36145W        W 8460  24.578  41.787  14.997
36146W        W 8461  12.816  15.651  12.985
36147W        W 8462  16.728  34.047  14.941
36148W        W 8463   7.827   1.766  14.441
36149W        W 8464  38.415  30.975  12.473
36150W        W 8465   8.796   6.841  13.814
36151W        W 8466  10.363   0.933   3.646
36152W        W 8467  10.225   6.382  12.016
36153W        W 8468  44.291  40.928   0.930
36154W        W 8469  18.082   8.805  13.471
36155W        W 8470  33.386  41.447  11.443
36156W        W 8471  41.976  42.892   2.200
36157W        W 8472  39.001  41.414  14.894
36158W        W 8473  37.384   9.678   4.349
36159W        W 8474   6.305  34.099  14.785
36160W        W 8475   8.681  26.111  14.829
36161W        W 8476  41.521  17.761  13.829
36162W        W 8477  10.195  42.312   3.801
36163W        W 8478  36.920  34.101  10.453
36164W        W 8479  41.334   6.861  13.413
36165W        W 8480  21.256  15.197  14.287
36166W        W 8481  17.767  30.147  14.369
36167W        W 8482  23.175  21.143  10.626
36168W        W 8483   8.798  15.724  11.504
36169W        W 8484  38.329  42.987   2.329
36170W        W 8485  12.349  23.218  14.359
36171W        W 8486   0.360   1.799  13.803
36172W        W 8487  19.767  22.641   2.282
36173W        W 8488  11.270  12.138   4.345
36174W        W 8489   6.370  15.727   0.364
36175W        W 8490  25.086  23.017  10.986
36176W        W 8491   5.842  13.326   4.273
36177W        W 8492  18.617   2.245  12.957
36178W        W 8493  21.629  43.791   2.703
36179W        W 8494  16.223  40.429  10.142
36180W        W 8495  35.055  17.105   0.918
36181W        W 8496  30.523   0.855   1.386
36182W        W 8497  42.343  27.944  13.929
36183W        W 8498  43.279  38.945  10.634
36184W        W 8499  14.151   7.800  11.971
36185W        W 8500  29.454  28.042   5.185
36186W        W 8501   2.792  35.381  12.833
36187W        W 8502  25.996  35.888  12.992
36188W        W 8503   9.886  31.039  13.820
36189W        W 8504  27.643   9.238   1.277
36190W        W 8505  13.151  19.538  11.609
36191W        W 8506  18.266  37.843  14.857
36192W        W 8507  43.278  44.994   1.885
36193W        W 8508  15.604  40.340  13.498
36194W        W 8509  33.397   5.912   4.308
36195W        W 8510  17.280  32.564  14.461
36196W        W 8511   7.282  32.429  13.915
36197W        W 8512   8.326  30.513  14.023
36198W        W 8513  19.174  21.122   2.677
36199W        W 8514  34.567   3.427   0.247
36200W        W 8515  19.759  27.949   0.847
36201W        W 8516  38.441  13.791   4.239
36202W        W 8517  20.061  23.124  14.799
36203W        W 8518  16.718  12.772   3.207
36204W        W 8519   1.761  38.350  11.925
36205W        W 8520  43.349  31.962   4.114
36206W        W 8521  43.942  25.703  13.529
36207W        W 8522  10.699   0.895  14.837
36208W        W 8523  22.547   5.735   3.758
36209W        W 8524   3.944  25.162  14.870
36210W        W 8525  30.989  17.294  13.796
36211W        W 8526  32.439  40.326   4.718
36212W        W 8527  38.491   1.893  10.560
36213W        W 8528   9.779  38.327   1.213
36214W        W 8529  36.870  24.059   3.386
36215W        W 8530  30.428  27.955   4.350
36216W        W 8531  36.541  12.227   3.182
36217W        W 8532  18.238   2.273   3.319
36218W        W 8533  35.581  44.484   1.850
36219W        W 8534  12.297  15.100   1.823
36220W        W 8535   7.227  21.577   2.185
36221W        W 8536  12.173  26.055   1.798
36222W        W 8537  24.016  21.641   5.598
36223W        W 8538  32.092  33.049  10.601
36224W        W 8539  35.523  37.014   1.802
36225W        W 8540  26.136  33.909   5.743
36226W        W 8541  21.210  13.207   0.862
36227W        W 8542   9.788  24.550  11.917
36228W        W 8543  32.923   3.813   2.379
36229W        W 8544  36.440  17.611  13.420
36230W        W 8545  35.881  23.501   2.353
36231W        W 8546  26.103  41.009   3.738
36232W        W 8547  10.879  20.174   3.847
36233W        W 8548   0.259  19.613  10.942
36234W        W 8549   6.827  18.633  11.476
36235W        W 8550  33.407  42.970   4.755
36236W        W 8551  27.635  34.979  13.396
36237W        W 8552  25.591   4.823  13.898
36238W        W 8553  11.354  22.117  12.966
36239W        W 8554  40.460  39.900   0.257
36240W        W 8555  17.571  37.075   1.366
36241W        W 8556  21.078  33.384   4.621
36242W        W 8557  27.008  33.438  11.101
36243W        W 8558  40.879  26.008  10.149
36244W        W 8559  14.103  40.872  14.874
36245W        W 8560  41.937  30.915  11.401
36246W        W 8561  41.311  34.992   2.299
36247W        W 8562  11.354   1.399  12.926
36248W        W 8563  40.373   7.177  11.398
36249W        W 8564  40.811  13.266  12.442
36250W        W 8565  35.525  31.063  11.387
36251W        W 8566  41.530   0.406  14.433
36252W        W 8567   0.409  43.914   3.811
36253W        W 8568   4.775  35.587   3.647
36254W        W 8569  41.878   0.248  10.597
36255W        W 8570  24.551  19.067  13.517
36256W        W 8571  22.681  32.997   1.292
36257W        W 8572  13.687  29.627  10.470
36258W        W 8573  39.319  26.646   9.597
36259W        W 8574  36.039   6.790   2.750
36260W        W 8575  41.458  41.042   3.353
36261W        W 8576  18.079  39.316   9.943
36262W        W 8577  30.984   0.343  13.485
36263W        W 8578  29.088  42.978  14.312
36264W        W 8579  23.655  27.073   3.733
36265W        W 8580  20.084   3.234   2.401
36266W        W 8581  29.141   1.846   2.818
36267W        W 8582  20.709  29.119   1.876
36268W        W 8583  17.623  10.745   1.268
36269W        W 8584  36.447  13.845   4.761
36270W        W 8585  22.091   2.729   3.866
36271W        W 8586  37.021  10.140   0.362
36272W        W 8587  34.883  12.259  14.512
36273W        W 8588  21.575  16.686  11.387
36274W        W 8589   3.731  26.487   0.438
36275W        W 8590  29.635   4.905  14.473
36276W        W 8591  22.642  18.760   1.220
36277W        W 8592  10.729  34.082  10.436
36278W        W 8593  22.043  19.543  13.357
36279W        W 8594  31.546  38.838  14.879
36280W        W 8595  21.140  23.712   4.152
36281W        W 8596  31.133  16.305   1.913
36282W        W 8597   3.461  41.827   2.314
36283W        W 8598  13.120  42.910  11.520
36284W        W 8599  40.424  41.898   3.335
36285W        W 8600  16.746  40.380   1.879
36286W        W 8601  12.693  21.232   4.143
36287W        W 8602  40.473  20.065   3.334
36288W        W 8603  36.841  19.645   0.448
36289W        W 8604  37.980  32.905   0.442
36290W        W 8605   0.963  23.001   1.265
36291W        W 8606  24.597  15.200  11.991
36292W        W 8607   1.889   2.234  14.479
36293W        W 8608   0.461  25.109   3.162
36294W        W 8609  23.592  30.646   4.251
36295W        W 8610  17.114   2.407   0.359
36296W        W 8611   5.201  29.475  13.490
36297W        W 8612  32.959  42.333   3.772
36298W        W 8613  35.585  38.049  12.079
36299W        W 8614  34.467  37.397  12.005
36300W        W 8615  16.319   4.777   4.648
36301W        W 8616  10.367  37.412   5.265
36302W        W 8617   9.691  15.109   1.255
36303W        W 8618   4.767  36.496   4.165
36304W        W 8619  13.136  12.717  12.562
36305W        W 8620  29.046  37.407  14.285
36306W        W 8621  44.859  43.887  12.889
36307W        W 8622  43.284  43.966  11.973
36308W        W 8623  34.076  10.655   3.853
36309W        W 8624   3.334  35.078  12.968
36310W        W 8625  22.147  18.169  12.419
36311W        W 8626  41.013   0.406  11.588
36312W        W 8627   7.218  12.851   0.925
36313W        W 8628  17.620   9.205  13.481
36314W        W 8629   8.317   5.367   4.141
36315W        W 8630  31.118  22.708  14.488
36316W        W 8631  36.424  30.608  10.523
36317W        W 8632  30.647  21.710   0.257
36318W        W 8633  32.409   4.719   1.821
36319W        W 8634  22.654  41.021  13.836
36320W        W 8635  21.179   8.327   4.116
36321W        W 8636  41.359  27.026  11.518
36322W        W 8637  23.156  34.907   2.829
36323W        W 8638  30.555  12.176   1.436
36324W        W 8639  34.378   3.347  12.452
36325W        W 8640   7.850  41.494  12.018
36326W        W 8641  38.848   2.225  13.393
36327W        W 8642  44.887  10.168   0.327
36328W        W 8643   2.958   2.464  11.946
36329W        W 8644  30.652  34.877   2.302
36330W        W 8645  40.506  34.597  10.626
36331W        W 8646  42.851  40.819  12.413
36332W        W 8647  20.753   3.387  14.366
36333W        W 8648   4.287  37.544  13.821
36334W        W 8649  44.817  15.751   4.153
36335W        W 8650  25.206  39.533   2.387
36336W        W 8651  22.243  38.377  12.482
36337W        W 8652  27.172  42.425  12.396
36338W        W 8653  36.457  44.352   2.204
36339W        W 8654  16.572  21.202   4.765
36340W        W 8655  30.502   0.375  13.437
36341W        W 8656   3.875  13.264  11.508
36342W        W 8657   5.303   6.686   4.732
36343W        W 8658  38.512  22.660   0.875
36344W        W 8659   8.369  15.706  10.534
36345W        W 8660  16.750   6.733   0.757
36346W        W 8661  13.679  21.031  14.381
36347W        W 8662  30.537  23.168   2.684
36348W        W 8663  21.232  42.408   3.805
36349W        W 8664  31.635   9.187   3.231
36350W        W 8665  19.145  36.947  12.340
36351W        W 8666   5.914  22.073  11.560
36352W        W 8667   3.264  18.294   4.286
36353W        W 8668  11.328  25.522  14.397
36354W        W 8669  33.626  28.134  10.463
36355W        W 8670  26.542  36.470   3.675
36356W        W 8671  16.156  12.657  11.077
36357W        W 8672  18.715  24.694   3.633
36358W        W 8673  36.393  32.072  11.037
36359W        W 8674  14.829   7.889   3.746
36360W        W 8675   7.891  30.635   0.850
36361W        W 8676  23.083  11.828   1.706
36362W        W 8677  24.719  20.577   0.287
36363W        W 8678   2.727  22.051   4.763
36364W        W 8679  43.800  35.443  14.907
36365W        W 8680  10.662  35.534   2.315
36366W        W 8681   0.378  21.075   4.769
36367W        W 8682  27.075  37.348  13.013
36368W        W 8683   2.735  40.456   1.914
36369W        W 8684  20.077  16.671   1.284
36370W        W 8685  28.644   9.180   3.362
36371W        W 8686  43.836  24.044  12.494
36372W        W 8687  25.521  10.729   2.712
36373W        W 8688   5.261   8.768   0.930
36374W        W 8689  40.464  21.633   0.934
36375W        W 8690   7.776  30.063  12.550
36376W        W 8691  44.278  41.533   1.737
36377W        W 8692  30.655   9.763   1.441
36378W        W 8693  35.563  20.702   3.161
36379W        W 8694  27.675  25.704   2.804
36380W        W 8695  43.381  26.670  13.421
36381W        W 8696  28.441   0.432  14.825
36382W        W 8697  23.521  32.557  12.011
36383W        W 8698   0.421  13.312   9.497
36384W        W 8699  40.320  21.215   1.795
36385W        W 8700   5.870   6.419  11.029
36386W        W 8701  18.765  16.138   0.347
36387W        W 8702  13.789  24.999   0.853
36388W        W 8703  20.754   9.851   0.473
36389W        W 8704  29.964  33.005   2.694
36390W        W 8705  21.657  24.218   1.834
36391W        W 8706  16.106  42.498  11.966
36392W        W 8707  19.586   6.340  13.379
36393W        W 8708  30.043  16.217   4.271
36394W        W 8709  30.137   6.231   0.865
36395W        W 8710  27.603  11.822  11.401
36396W        W 8711  36.446   1.300   4.690
36397W        W 8712  42.318  28.980   1.790
36398W        W 8713  18.748  18.711   0.464
36399W        W 8714  37.854  22.106  13.978
36400W        W 8715  33.601   1.822  14.503
36401W        W 8716  34.904  37.831  12.409
36402W        W 8717  22.583  40.833  11.498
36403W        W 8718  38.917  26.087   2.711
36404W        W 8719  10.772   0.907   3.689
36405W        W 8720  15.191  36.951   2.223
36406W        W 8721  21.744  42.374   2.291
36407W        W 8722  27.048  13.728   3.802
36408W        W 8723  40.549   4.889   4.651
36409W        W 8724   0.305  18.563  12.556
36410W        W 8725   7.194   1.322   2.674
36411W        W 8726  19.085  25.545  10.549
36412W        W 8727  19.049  12.610   4.315
36413W        W 8728  35.948  32.396   4.152
36414W        W 8729  14.615  12.215  13.048
36415W        W 8730  40.876   3.838  12.021
36416W        W 8731  13.334   4.851  11.379
36417W        W 8732  12.305  31.512  13.367
36418W        W 8733  24.565  18.224  11.975
36419W        W 8734   5.722   1.900  11.420
36420W        W 8735   7.770  34.583  12.917
36421W        W 8736  13.726  34.096   0.922
36422W        W 8737  27.054  27.643  10.425
36423W        W 8738  38.015  14.129  11.394
36424W        W 8739   2.340  30.624   1.326
36425W        W 8740  28.644  26.677  10.527
36426W        W 8741   2.901  42.873  14.280
36427W        W 8742  35.888  41.450   3.861
36428W        W 8743  20.531  15.729  12.871
36429W        W 8744  19.639  17.723  11.595
36430W        W 8745  36.997  30.578  10.572
36431W        W 8746  24.077  41.342  11.076
36432W        W 8747  20.188   6.397   1.801
36433W        W 8748  19.244  22.100  10.921
36434W        W 8749  31.531   1.831   4.763
36435W        W 8750  40.416   0.921   1.225
36436W        W 8751  22.571  43.836   1.736
36437W        W 8752  11.210  16.677   3.734
36438W        W 8753  33.511  38.951   5.213
36439W        W 8754  24.186  12.754   2.700
36440W        W 8755  43.417  36.384   3.753
36441W        W 8756  14.801  21.681  14.497
36442W        W 8757   2.888  29.128  13.948
36443W        W 8758  18.647  30.531   1.354
36444W        W 8759  26.586  31.924   3.178
36445W        W 8760  24.018  28.135  11.000
36446W        W 8761   3.872  11.864  13.366
36447W        W 8762  41.426  37.483   4.280
36448W        W 8763   8.858  30.575  11.420
36449W        W 8764   5.850  26.549   2.837
36450W        W 8765   2.911  34.591  13.378
36451W        W 8766  30.611  26.697  12.578
36452W        W 8767   4.926  14.728   3.809
36453W        W 8768  28.024  12.215  12.883
36454W        W 8769   8.353  23.239  12.061
36455W        W 8770  14.266  33.439  10.527
36456W        W 8771  12.348  27.175   3.717
36457W        W 8772  10.195  10.865  12.029
36458W        W 8773  19.222  24.028   2.359
36459W        W 8774  19.677  29.665  14.506
36460W        W 8775  39.549  27.079  10.034
36461W        W 8776  22.698  35.990   5.296
36462W        W 8777   0.280  35.527   0.470
36463W        W 8778  10.831  44.994   3.748
36464W        W 8779   4.374  30.050  11.443
36465W        W 8780  26.157  27.590   3.718
36466W        W 8781   7.345  15.750  12.944
36467W        W 8782  26.556   0.839   0.826
36468W        W 8783  18.741  28.165   1.331
36469W        W 8784  42.492  20.639   1.438
36470W        W 8785  17.186  32.393  11.905
36471W        W 8786  14.601   9.656   2.779
36472W        W 8787  25.187  21.541   5.149
36473W        W 8788  11.843   7.692  10.964
36474W        W 8789  42.416  13.741  11.407
36475W        W 8790  35.007  32.036   5.300
36476W        W 8791  20.616  19.084  13.997
36477W        W 8792  39.457   2.463   3.335
36478W        W 8793  20.650  17.147  11.383
36479W        W 8794  37.897  42.372  11.004
36480W        W 8795  38.450   2.910   4.698
36481W        W 8796  19.699   4.229  10.948
36482W        W 8797  30.948  36.572  10.519
36483W        W 8798   6.734  31.137   2.848
36484W        W 8799  32.558  44.896   2.737
36485W        W 8800  43.871  18.625  13.849
36486W        W 8801  39.520  44.846  14.009
36487W        W 8802  23.620  10.228  13.834
36488W        W 8803  23.167  13.265   1.796
36489W        W 8804  35.929  40.406  11.449
36490W        W 8805  11.143  33.592  10.592
36491W        W 8806   9.326   1.836   0.476
36492W        W 8807  29.088   2.965  14.462
36493W        W 8808   2.764   9.157   4.211
36494W        W 8809  26.136  25.675  12.467
36495W        W 8810   5.250  33.933   4.702
36496W        W 8811  42.875   3.777   3.728
36497W        W 8812  43.995  36.387  14.796
36498W        W 8813  28.438  21.711   0.936
36499W        W 8814  22.176   8.355   0.249
36500W        W 8815  40.393  22.030  13.879
36501W        W 8816  26.512  42.004  11.028
36502W        W 8817  35.005  28.965   3.783
36503W        W 8818  43.001   7.381   3.765
36504W        W 8819  35.532  19.137   3.298
36505W        W 8820  18.701  37.566   0.276
36506W        W 8821  41.500   3.309  12.001
36507W        W 8822  41.504  41.002  10.489
36508W        W 8823  43.988   6.302   2.344
36509W        W 8824  33.882   6.308  13.427
36510W        W 8825  15.723  38.525   4.198
36511W        W 8826  26.581  34.452   5.649
36512W        W 8827  33.513   9.717  10.543
36513W        W 8828  20.081  10.682  10.139
36514W        W 8829   9.702  35.017   1.833
36515W        W 8830   8.847  22.134  11.445
36516W        W 8831  21.113  14.267  13.809
36517W        W 8832  25.128  39.015   2.223
36518W        W 8833   0.761  28.578  13.548
36519W        W 8834   2.326   9.889  11.990
36520W        W 8835   6.910  31.921   4.352
36521W        W 8836  31.555  40.392  10.472
36522W        W 8837  19.765  12.846   0.963
36523W        W 8838  36.015  36.079   1.926
36524W        W 8839  24.175  10.238  11.090
36525W        W 8840  44.413  41.359   4.306
36526W        W 8841  34.566  37.369   3.227
36527W        W 8842  24.511  25.007  13.427
36528W        W 8843  40.020  10.729  13.370
36529W        W 8844  41.923  36.086  10.102
36530W        W 8845   3.218  18.158  13.830
36531W        W 8846   9.392  39.486  11.057
36532W        W 8847  25.073  28.987  10.502
36533W        W 8848   7.397  28.629   4.348
36534W        W 8849  25.977   9.254   0.883
36535W        W 8850  16.196   1.409  10.639
36536W        W 8851  40.874  12.774   2.798
36537W        W 8852  21.719  27.551   1.220
36538W        W 8853   2.868   3.803   1.372
36539W        W 8854  20.064  28.530  12.565
36540W        W 8855   6.694   0.286  11.041
36541W        W 8856  34.090  13.185  11.449
36542W        W 8857  37.362  16.232   3.744
36543W        W 8858  38.868   0.320   1.440
36544W        W 8859   1.841  20.716  11.430
36545W        W 8860  29.564  20.591  13.370
36546W        W 8861  19.763  17.286  14.499
36547W        W 8862  39.476  16.297  11.544
36548W        W 8863  11.263  10.196  10.089
36549W        W 8864  32.606  25.655   1.323
36550W        W 8865  38.920  13.827   3.713
36551W        W 8866   8.207  10.702  14.277
36552W        W 8867   4.313  11.867  12.544
36553W        W 8868  18.293   8.386  13.996
36554W        W 8869   9.844  43.820   1.934
36555W        W 8870  22.647   3.805  13.968
36556W        W 8871  25.128   0.475  14.867
36557W        W 8872   3.948  13.240   1.933
36558W        W 8873  21.101  32.601  12.995
36559W        W 8874  32.396   6.844  11.021
36560W        W 8875  11.659  28.073  13.849
36561W        W 8876  27.953  20.647  10.629
36562W        W 8877  35.457  11.647   2.231
36563W        W 8878  17.299  18.164   5.149
36564W        W 8879  41.988  41.329   1.251
36565W        W 8880  23.145  39.450   1.277
36566W        W 8881  17.301   3.332  10.948
36567W        W 8882  15.582  20.587   1.901
36568W        W 8883  26.062  17.164  12.833
36569W        W 8884  29.081  35.106   3.346
36570W        W 8885  38.888  24.135  13.530
36571W        W 8886  30.935  27.945   1.367
36572W        W 8887  34.031  24.699  12.016
36573W        W 8888  12.775  35.021   4.259
36574W        W 8889  21.741  10.220  11.469
36575W        W 8890  24.715   4.338   0.441
36576W        W 8891   8.195  25.686   1.403
36577W        W 8892  10.675  30.982  11.128
36578W        W 8893  39.868  18.688   4.742
36579W        W 8894  20.534  40.356  10.985
36580W        W 8895   4.842  38.415   0.355
36581W        W 8896   9.216  35.454  12.854
36582W        W 8897  25.175   0.923  14.981
36583W        W 8898   3.446   2.300   3.272
36584W        W 8899  16.770  28.175   4.793
36585W        W 8900  28.121  32.508   1.225
36586W        W 8901   2.823  17.608   1.320
36587W        W 8902  44.416  37.084   2.723
36588W        W 8903  40.851  13.224   4.684
36589W        W 8904  28.965  44.357  10.892
36590W        W 8905  24.123  34.102  13.458
36591W        W 8906  38.443  40.900  12.830
36592W        W 8907  10.232   7.866  14.807
36593W        W 8908  35.573   3.405  14.293
36594W        W 8909  12.278  31.525   2.391
36595W        W 8910  26.546   0.289   2.211
36596W        W 8911  19.709   3.446   3.365
36597W        W 8912  30.962  39.477  11.514
36598W        W 8913  27.181  40.498  14.835
36599W        W 8914  12.753  21.153  13.926
36600W        W 8915  22.603  26.680  12.354
36601W        W 8916   7.805  13.779   0.420
36602W        W 8917  40.473   5.370   1.352
36603W        W 8918  22.099  42.785  11.070
36604W        W 8919  17.735   1.967   0.782
36605W        W 8920  44.300  36.900   0.367
36606W        W 8921  17.255  38.873   0.244
36607W        W 8922  29.605  15.274   1.217
36608W        W 8923  17.581  37.388  10.521
36609W        W 8924   9.190  14.641   4.818
36610W        W 8925   7.306   2.276   2.347
36611W        W 8926   9.341  26.025  14.436
36612W        W 8927  12.285  15.822   4.327
36613W        W 8928  13.723   6.702   4.176
36614W        W 8929  29.601  41.795  13.369
36615W        W 8930  40.034  38.976   1.908
36616W        W 8931  40.900  16.309  12.090
36617W        W 8932  14.779  18.156   1.451
36618W        W 8933   5.714  39.520  11.996
36619W        W 8934  23.017  21.654  12.083
36620W        W 8935  33.894   6.748  10.548
36621W        W 8936  26.960   8.254   2.191
36622W        W 8937  42.343  44.819   2.402
36623W        W 8938  41.868  28.157  13.542
36624W        W 8939   3.219  38.044  12.085
36625W        W 8940  20.549  39.930   3.182
36626W        W 8941   8.665  19.202   4.820
36627W        W 8942  13.106   9.366  14.820
36628W        W 8943  18.084  24.155   3.661
36629W        W 8944  13.739  25.022   2.332
36630W        W 8945  44.945  18.088  14.994
36631W        W 8946  38.867  29.508  13.031
36632W        W 8947  33.018  32.455  13.861
36633W        W 8948  39.550  29.110   2.756
36634W        W 8949  44.324  13.134   2.727
36635W        W 8950  41.012  29.544   2.374
36636W        W 8951  36.355  30.023   4.837
36637W        W 8952  22.237  39.546  11.378
36638W        W 8953  36.866  33.571  11.965
36639W        W 8954   1.281  22.242  11.555
36640W        W 8955  35.089   0.797  12.932
36641W        W 8956  40.950  11.137   2.200
36642W        W 8957  41.372  30.608   0.951
36643W        W 8958  28.500  34.559  11.458
36644W        W 8959  10.792  22.040  13.027
36645W        W 8960   2.320  12.673  13.379
36646W        W 8961   0.985  37.927  11.528
36647W        W 8962  10.322  19.679  10.916
36648W        W 8963  28.086  32.073   3.374
36649W        W 8964   9.740  41.937   2.750
36650W        W 8965  37.400  25.073   3.725
36651W        W 8966  43.455  17.603  11.010
36652W        W 8967  23.176   8.403  13.823
36653W        W 8968  16.788  13.351   3.704
36654W        W 8969  43.456  23.522  11.865
36655W        W 8970   5.912   2.879  10.562
36656W        W 8971   9.863  36.507  10.419
36657W        W 8972  34.452  36.964  12.053
36658W        W 8973  24.064  41.439   0.313
36659W        W 8974   1.403  19.110   2.842
36660W        W 8975  39.430  34.440   0.434
36661W        W 8976   0.353  36.078  14.841
36662W        W 8977  41.835   1.426   2.252
36663W        W 8978  30.502   9.872   2.715
36664W        W 8979   2.339  39.399  10.613
36665W        W 8980  36.525  33.573  14.858
36666W        W 8981  35.971  33.383   3.247
36667W        W 8982  33.047  22.112   4.618
36668W        W 8983  13.821  24.715  10.522
36669W        W 8984  34.957  24.627  10.435
36670W        W 8985   5.362  37.338  11.986
36671W        W 8986  20.180  38.483   3.176
36672W        W 8987  32.483  40.407   2.289
36673W        W 8988  33.129  39.484  11.541
36674W        W 8989  38.918   9.206   4.219
36675W        W 8990  22.662   4.229   4.208
36676W        W 8991  17.576  37.458  14.817
36677W        W 8992   9.833  44.332  11.919
36678W        W 8993  13.122  37.561   2.720
36679W        W 8994  31.132   2.732  11.933
36680W        W 8995  28.083  16.671  13.984
36681W        W 8996   9.759   2.413  12.493
36682W        W 8997  21.687  29.435  14.358
36683W        W 8998  28.936  25.105   1.800
36684W        W 8999  14.184  42.833   4.643
36685W        W 9000  44.275   7.248   4.218
36686W        W 9001  13.158   5.886   4.657
36687W        W 9002  41.042  41.911  10.533
36688W        W 9003  11.285  17.776  13.932
36689W        W 9004   3.709  44.903   1.228
36690W        W 9005  43.389  23.096  14.451
36691W        W 9006  44.854  16.717   3.733
36692W        W 9007  21.607   8.890   1.931
36693W        W 9008   3.739   5.295  14.971
36694W        W 9009  44.371  13.776   1.321
36695W        W 9010  14.238  36.845  14.837
36696W        W 9011  25.482  13.234  13.970
36697W        W 9012  19.692   1.460  13.419
36698W        W 9013  41.515  21.020   0.736
36699W        W 9014  19.630  38.351   3.162
36700W        W 9015  17.729  41.334  14.439
36701W        W 9016   7.871  34.118  14.978
36702W        W 9017  34.109  13.203   0.844
36703W        W 9018   7.861  38.010  11.513
36704W        W 9019  18.652   7.718   3.797
36705W        W 9020  29.001  34.584  14.430
36706W        W 9021  31.956  28.595   1.912
36707W        W 9022  17.281   3.219   0.816
36708W        W 9023  31.509  41.327  11.429
36709W        W 9024  20.630  33.960  10.426
36710W        W 9025  26.092  14.600   3.727
36711W        W 9026   8.673  10.828  12.360
36712W        W 9027  44.280   1.842  12.994
36713W        W 9028   7.195   5.773  14.009
36714W        W 9029  34.909  21.214  12.966
36715W        W 9030  10.851  33.571   3.212
36716W        W 9031  12.641  32.084  10.989
36717W        W 9032   2.794  22.171   1.925
36718W        W 9033  23.122  17.261   3.207
36719W        W 9034  26.639   6.245  12.872
36720W        W 9035  37.558  15.683   4.734
36721W        W 9036  34.932  19.681   2.188
36722W        W 9037  16.790  44.334  13.352
36723W        W 9038  30.065   6.844   0.853
36724W        W 9039  15.191  36.425   2.348
36725W        W 9040  19.543   5.772   0.900
36726W        W 9041  41.823  37.538  13.421
36727W        W 9042  19.269  31.565  13.966
36728W        W 9043  10.695   6.407  14.928
36729W        W 9044   6.249  15.176  14.292
36730W        W 9045  26.991   2.766   3.720
36731W        W 9046   8.220  43.806   1.793
36732W        W 9047  16.191   2.943   3.866
36733W        W 9048   1.839   6.700  12.541
36734W        W 9049  34.121  30.473   4.675
36735W        W 9050  34.979  13.754   2.185
36736W        W 9051  26.042  25.530   3.861
36737W        W 9052  32.623   1.407  14.986
36738W        W 9053  37.049  18.213   3.259
36739W        W 9054  18.709  44.904   0.243
36740W        W 9055  11.767  35.403   2.193
36741W        W 9056   9.763  12.669   3.161
36742W        W 9057  37.941  39.403   3.238
36743W        W 9058  20.193  35.933  12.963
36744W        W 9059  29.664  13.127  10.638
36745W        W 9060  34.028  29.486   4.707
36746W        W 9061   2.859  13.176  14.415
36747W        W 9062  11.345   1.302   2.731
36748W        W 9063  13.310   1.472   1.901
36749W        W 9064  15.178  21.174  11.576
36750W        W 9065  33.126  11.222   2.834
36751W        W 9066  31.549   4.819  13.917
36752W        W 9067  24.195  14.728  10.571
36753W        W 9068   3.460  41.876  12.005
36754W        W 9069  37.542   6.201  11.024
36755W        W 9070  40.002  12.215  11.967
36756W        W 9071  31.449  27.085   4.305
36757W        W 9072  31.024  18.605  14.779
36758W        W 9073  36.569  26.483  10.476
36759W        W 9074  17.150  17.770   1.214
36760W        W 9075  31.543  25.040   3.347
36761W        W 9076  15.202  15.304   2.848
36762W        W 9077  38.511  23.628   0.859
36763W        W 9078   2.882  15.168  11.511
36764W        W 9079   4.384  27.973  11.572
36765W        W 9080   4.366  16.303   1.906
36766W        W 9081  24.527  18.126   4.186
36767W        W 9082  44.871  20.142  12.575
36768W        W 9083  40.978  29.439   1.880
36769W        W 9084  38.467  35.599  10.492
36770W        W 9085  44.319  22.566   2.871
36771W        W 9086  12.129  37.384   3.156
36772W        W 9087   1.819   8.225   3.301
36773W        W 9088  27.611  33.059  13.898
36774W        W 9089  13.718  34.985  12.890
36775W        W 9090  28.487  28.964   2.723
36776W        W 9091   2.444  11.360  14.820
36777W        W 9092  20.702  31.999  12.918
36778W        W 9093   1.925  11.341   4.812
36779W        W 9094  42.326  15.717  13.914
36780W        W 9095  32.516  33.471  11.498
36781W        W 9096  36.011  21.035  10.062
36782W        W 9097   9.204  24.519  13.420
36783W        W 9098  28.999  42.350   0.932
36784W        W 9099  10.201  39.949   1.891
36785W        W 9100  18.200  39.042   1.422
36786W        W 9101  40.046  17.622   4.748
36787W        W 9102   5.213  35.883  13.462
36788W        W 9103  34.894  28.047  10.987
36789W        W 9104   4.272  24.129   0.285
36790W        W 9105  41.484   8.386   0.901
36791W        W 9106  14.220  12.689  11.987
36792W        W 9107   3.402  14.651  11.043
36793W        W 9108  30.055   5.238  12.886
36794W        W 9109   5.853  15.759  14.322
36795W        W 9110  38.899  10.800   1.211
36796W        W 9111  10.811  39.006   0.848
36797W        W 9112  13.341   9.230   3.834
36798W        W 9113  28.069  28.626  14.869
36799W        W 9114   6.333   8.876   1.395
36800W        W 9115  32.999  38.831  14.461
36801W        W 9116  14.160  11.644   0.391
36802W        W 9117   4.927  32.396  14.980
36803W        W 9118   6.895  41.460   2.254
36804W        W 9119   9.282   9.834  14.923
36805W        W 9120  31.897   8.300  12.996
36806W        W 9121  43.506  36.391  11.508
36807W        W 9122   4.938   8.221  14.009
36808W        W 9123   5.809  14.218   3.845
36809W        W 9124   4.754  36.079   2.754
36810W        W 9125  11.647  35.965  14.305
36811W        W 9126   1.373   4.272  13.824
36812W        W 9127  17.795   7.681   2.262
36813W        W 9128  25.558   5.712   9.969
36814W        W 9129  25.083  33.126   1.447
36815W        W 9130   0.883   0.862  12.878
36816W        W 9131  20.100   7.337   3.350
36817W        W 9132  18.083  43.493   0.844
36818W        W 9133  18.149   8.804   1.820
36819W        W 9134  31.468  25.017  13.867
36820W        W 9135  26.554  11.323  12.847
36821W        W 9136  31.606  38.355   3.829
36822W        W 9137   4.447  14.791   2.319
36823W        W 9138  43.315   2.312   4.649
36824W        W 9139   6.754  44.956   4.278
36825W        W 9140  39.451  39.488   1.379
36826W        W 9141  37.004  33.577  10.455
36827W        W 9142   9.229  13.171  14.951
36828W        W 9143   7.767   5.812  13.053
36829W        W 9144   9.801  28.968  12.425
36830W        W 9145  29.611  38.838  10.052
36831W        W 9146   2.791  35.971   4.805
36832W        W 9147   5.343  26.974   2.867
36833W        W 9148  35.955  16.134   2.350
36834W        W 9149  35.033  42.907  12.339
36835W        W 9150  36.549  29.519  13.908
36836W        W 9151   6.293  36.382   0.756
36837W        W 9152  37.936  17.713   4.271
36838W        W 9153   4.848   7.375   5.159
36839W        W 9154   1.889  33.419  14.005
36840W        W 9155  11.233  29.985  13.513
36841W        W 9156  15.593   3.244  13.523
36842W        W 9157  12.156  17.592   3.167
36843W        W 9158  40.993   8.243   3.815
36844W        W 9159  18.571   0.770  11.099
36845W        W 9160  34.434  33.900   3.694
36846W        W 9161  44.994   8.166   4.782
36847W        W 9162  34.933  31.468  13.415
36848W        W 9163  33.895  26.661   2.316
36849W        W 9164   8.774  35.933  11.382
36850W        W 9165  23.189  14.315  10.613
36851W        W 9166  29.103  29.057   0.746
36852W        W 9167  39.877  17.569   2.330
36853W        W 9168  21.709  24.980  11.118
36854W        W 9169  11.737  17.217   1.275
36855W        W 9170  29.060  23.008   2.266
36856W        W 9171  26.570  11.809   1.375
36857W        W 9172  30.107  10.839  10.513
36858W        W 9173  37.834  41.532   5.318
36859W        W 9174  19.645  32.929   0.835
36860W        W 9175  28.660   6.339  11.521
36861W        W 9176  32.586  17.640  12.848
36862W        W 9177  38.010  26.132   5.730
36863W        W 9178  41.995  13.783   3.333
36864W        W 9179  22.714  16.183  11.565
36865W        W 9180  16.660  30.055  11.126
36866W        W 9181  21.045  41.406  14.801
36867W        W 9182  43.020  36.418   3.803
36868W        W 9183   9.771  36.456  12.094
36869W        W 9184   5.744   1.463   1.854
36870W        W 9185  36.018  25.100   3.812
36871W        W 9186  37.873   6.315   2.690
36872W        W 9187  39.523  14.657  13.852
36873W        W 9188  14.135  16.279  10.953
36874W        W 9189  36.888  21.065  11.915
36875W        W 9190  32.585  20.684   2.722
36876W        W 9191  18.751  14.750   2.667
36877W        W 9192   2.418  14.201   1.705
36878W        W 9193   2.885   4.304   1.376
36879W        W 9194  16.757  40.373   2.789
36880W        W 9195  15.326  23.638  14.858
36881W        W 9196   8.250   0.810   1.799
36882W        W 9197  12.785  22.504  11.901
36883W        W 9198   4.277  34.472   3.757
36884W        W 9199  23.656  43.826  10.482
36885W        W 9200  42.824  20.675   1.367
36886W        W 9201   3.758  33.483   4.684
36887W        W 9202  29.596   5.214  11.469
36888W        W 9203  18.226   2.878  13.868
36889W        W 9204  39.393  10.683   3.325
36890W        W 9205  39.473  36.048   3.341
36891W        W 9206  26.683   0.395  12.383
36892W        W 9207   3.837  23.066   2.895
36893W        W 9208   5.792  15.143  12.032
36894W        W 9209   5.282  37.550  10.458
36895W        W 9210  40.901  41.010  10.459
36896W        W 9211   6.199  40.516   5.256
36897W        W 9212  11.795  40.425  10.077
36898W        W 9213  25.695  23.502   1.700
36899W        W 9214  11.346  20.755  11.885
36900W        W 9215  28.115  27.473   3.838
36901W        W 9216  41.971  36.014  11.930
36902W        W 9217  34.525   4.858   1.316
36903W        W 9218  27.544   9.721   1.842
36904W        W 9219  38.827  24.078   0.450
36905W        W 9220  37.494  26.059   1.746
36906W        W 9221   3.954  26.089  11.041
36907W        W 9222   7.753  20.136   4.350
36908W        W 9223  32.072  34.068  14.900
36909W        W 9224   3.445  19.268   1.824
36910W        W 9225  11.633  24.986   4.280
36911W        W 9226   0.828  32.059   1.382
36912W        W 9227  32.519  39.863  10.907
36913W        W 9228  27.571  25.689   3.738
36914W        W 9229  29.126   9.344  11.604
36915W        W 9230  44.763  28.585   4.658
36916W        W 9231  20.129   4.722  11.422
36917W        W 9232  20.138  24.712  13.334
36918W        W 9233   2.363  24.202  14.933
36919W        W 9234   2.765  36.358   2.714
36920W        W 9235  39.487  44.987  11.949
36921W        W 9236   1.973  37.552   0.427
36922W        W 9237  24.650  32.922   0.739
36923W        W 9238   5.782  25.634  13.534
36924W        W 9239  39.909   9.826   0.843
36925W        W 9240   0.791   5.419  14.850
36926W        W 9241  10.190  19.677   0.306
36927W        W 9242  40.941  38.912  12.849
36928W        W 9243  20.263   0.413  10.474
36929W        W 9244   9.282  44.365   4.125
36930W        W 9245  33.046   2.831  10.522
36931W        W 9246  39.955   2.904   0.780
36932W        W 9247  20.261  44.427   4.196
36933W        W 9248  19.702  24.993   4.781
36934W        W 9249   3.867   8.291  10.918
36935W        W 9250  14.198  31.602  13.335
36936W        W 9251  25.588  30.622   3.723
36937W        W 9252  39.503  42.411   4.148
36938W        W 9253  18.224  34.005   1.850
36939W        W 9254  36.907  21.653   4.598
36940W        W 9255  24.663   3.916  10.955
36941W        W 9256   9.749  24.072   0.330
36942W        W 9257   2.804  30.014  11.542
36943W        W 9258  39.513  14.762   3.862
36944W        W 9259  24.069  37.049   3.211
36945W        W 9260  44.317   6.746   2.898
36946W        W 9261  24.999  22.617   0.934
36947W        W 9262  36.992  18.740   3.677
36948W        W 9263  39.459  22.999   1.704
36949W        W 9264  24.182  20.556  11.127
36950W        W 9265  37.572  11.174  13.456
36951W        W 9266   2.945  15.615   1.426
36952W        W 9267  22.156  31.103   1.252
36953W        W 9268  28.166  25.524  10.935
36954W        W 9269  25.176  12.614   1.844
36955W        W 9270   9.301  43.311   2.240
36956W        W 9271  43.014   1.761  14.336
36957W        W 9272  11.803   0.828  12.064
36958W        W 9273   3.754  15.659   4.118
36959W        W 9274  38.383  22.618   3.282
36960W        W 9275  39.859   9.242  10.919
36961W        W 9276  36.947  36.579  13.451
36962W        W 9277  13.764   7.392  14.002
36963W        W 9278  43.398  38.347  12.964
36964W        W 9279  28.569  37.377  10.558
36965W        W 9280  27.128   5.877  12.460
36966W        W 9281   3.345  27.161  12.948
36967W        W 9282   9.736  12.152   0.442
36968W        W 9283  20.077  15.226  14.455
36969W        W 9284  38.035   8.301   4.209
36970W        W 9285  35.412   8.236   2.256
36971W        W 9286   1.747  39.358   1.306
36972W        W 9287   2.426   2.278   2.697
36973W        W 9288  14.774   8.165   1.709
36974W        W 9289  38.839  15.670  13.888
36975W        W 9290  17.234  18.083   0.461
36976W        W 9291  32.128  29.455   0.432
36977W        W 9292  31.434  42.999   1.443
36978W        W 9293  13.721  34.989  14.026
36979W        W 9294   3.843  33.905  13.357
36980W        W 9295  35.586  40.845   1.786
36981W        W 9296  44.421  15.287  12.458
36982W        W 9297  43.456  28.660  12.465
36983W        W 9298   6.397  24.074   0.840
36984W        W 9299  37.350  23.061   3.360
36985W        W 9300   6.211  42.876   0.913
36986W        W 9301  11.644  14.626   3.829
36987W        W 9302  25.574  23.120   1.407
36988W        W 9303   5.763  39.343  12.575
36989W        W 9304  10.371   7.174  14.450
36990W        W 9305  34.100  27.562  14.380
36991W        W 9306  17.304   9.300   2.761
36992W        W 9307  12.172   7.300   3.310
36993W        W 9308  34.036   6.821  11.514
36994W        W 9309  44.416  30.631   2.219
36995W        W 9310  20.618  10.360   3.367
36996W        W 9311   4.759  20.732   1.248
36997W        W 9312  28.673  16.695   4.646
36998W        W 9313  26.158  18.210  12.974
36999W        W 9314   3.776   7.861   1.325
37000W        W 9315  39.867  39.050   0.291
37001W        W 9316  39.986  21.027  13.995
37002W        W 9317  37.369   6.216  13.898
37003W        W 9318  22.161  12.746  11.013
37004W        W 9319  33.423  27.661   4.697
37005W        W 9320   4.937  30.016   2.807
37006W        W 9321  20.037  31.125   0.471
37007W        W 9322  19.546  33.384   1.270
37008W        W 9323  40.381  14.192   9.988
37009W        W 9324  22.708  13.239   4.837
37010W        W 9325  35.075  22.166  13.325
37011W        W 9326  34.016  32.427  14.891
37012W        W 9327  30.583  15.673   0.812
37013W        W 9328  35.517   4.419   2.224
37014W        W 9329  16.719  24.200  11.553
37015W        W 9330   2.286  27.981   3.385
37016W        W 9331  34.956  15.787  12.567
37017W        W 9332  33.959  22.136   4.261
37018W        W 9333  11.261  16.190   4.748
37019W        W 9334  39.361  33.438   1.898
37020W        W 9335  18.773   7.758  14.826
37021W        W 9336  42.354   5.857  13.392
37022W        W 9337   4.932   8.164   4.792
37023W        W 9338  19.777  15.798  12.384
37024W        W 9339  31.955  44.427   2.843
37025W        W 9340  14.114  41.025   3.387
37026W        W 9341  26.629  36.059   3.191
37027W        W 9342  40.352  36.083  10.516
37028W        W 9343  20.075  40.955  12.380
37029W        W 9344  26.604  19.769  14.956
37030W        W 9345  11.175   7.243   1.697
37031W        W 9346  23.641  43.321  10.632
37032W        W 9347  24.533  24.000   4.597
37033W        W 9348  19.716  14.230  11.607
37034W        W 9349  19.137  40.997   0.290
37035W        W 9350  13.635  39.928   2.855
37036W        W 9351  20.180  19.759   4.748
37037W        W 9352  17.732   1.915   3.218
37038W        W 9353  35.091  15.759  14.909
37039W        W 9354  11.634  28.065  10.022
37040W        W 9355  28.475  20.612   3.372
37041W        W 9356  32.549  42.514   3.248
37042W        W 9357  39.922  28.985  14.363
37043W        W 9358   8.662  32.983  11.458
37044W        W 9359  18.158  28.510   3.702
37045W        W 9360  27.678   5.307   0.387
37046W        W 9361   6.218   2.951   3.289
37047W        W 9362  38.960  43.303  10.943
37048W        W 9363  36.486   8.400  14.881
37049W        W 9364  43.492  25.545  13.823
37050W        W 9365  36.483  40.331   5.268
37051W        W 9366  21.164   0.336   2.337
37052W        W 9367   2.454   4.328  13.817
37053W        W 9368   1.762   3.395  12.046
37054W        W 9369  38.351  35.478   4.681
37055W        W 9370  16.751   3.330  11.426
37056W        W 9371  28.623  41.318  14.801
37057W        W 9372  23.710  39.987  10.604
37058W        W 9373   6.912   1.936   1.774
37059W        W 9374  29.938  12.187   4.157
37060W        W 9375  33.042  39.999   0.785
37061W        W 9376  12.713  28.547   1.738
37062W        W 9377   2.959  37.914  11.985
37063W        W 9378  12.755  44.272  13.495
37064W        W 9379  40.839  12.322  13.323
37065W        W 9380   1.449   5.933   2.903
37066W        W 9381   9.756  16.566   2.878
37067W        W 9382  19.534  44.855  11.103
37068W        W 9383  19.110  16.772   0.345
37069W        W 9384  29.992  30.610  13.378
37070W        W 9385  27.104  30.552   2.393
37071W        W 9386  28.095  28.099   3.750
37072W        W 9387  24.671  39.956   3.658
37073W        W 9388  25.636  13.126  11.513
37074W        W 9389  31.132  21.621   2.692
37075W        W 9390   8.281  39.920   4.664
37076W        W 9391   4.835   0.919   2.191
37077W        W 9392  10.343  29.163   1.215
37078W        W 9393  44.830  15.777  13.495
37079W        W 9394  28.544  39.872   2.693
37080W        W 9395  12.807  41.440  13.983
37081W        W 9396  23.688   6.309   3.238
37082W        W 9397  40.522  25.647  11.444
37083W        W 9398   1.298  26.690  12.980
37084W        W 9399  15.097  31.577   0.823
37085W        W 9400  19.215  19.704   3.724
37086W        W 9401  41.021   8.716  11.048
37087W        W 9402   6.209  44.356   4.708
37088W        W 9403   0.294  27.620  12.515
37089W        W 9404  23.639  35.857  13.061
37090W        W 9405  13.798  22.702   2.678
37091W        W 9406  39.402  43.779   1.801
37092W        W 9407  34.899   0.963   1.799
37093W        W 9408   8.302   0.392   3.242
37094W        W 9409   6.366  11.131   3.732
37095W        W 9410  12.138  20.712   2.797
37096W        W 9411  32.398   9.335  11.014
37097W        W 9412  10.342  22.040  14.971
37098W        W 9413  20.067  23.064  14.489
37099W        W 9414  10.381  15.169   2.396
37100W        W 9415  29.140  13.161   2.196
37101W        W 9416  29.097  44.875   2.333
37102W        W 9417   6.823  18.078   4.339
37103W        W 9418  44.292   4.393  10.643
37104W        W 9419  22.540  43.824  13.359
37105W        W 9420  23.546  30.133  14.815
37106W        W 9421   4.259  22.237   3.197
37107W        W 9422   2.436  33.537  14.911
37108W        W 9423   7.255  42.320  13.818
37109W        W 9424  26.127  33.014  14.384
37110W        W 9425   2.403   3.319  13.406
37111W        W 9426  13.619   4.774   3.813
37112W        W 9427  25.577   5.231  11.432
37113W        W 9428  12.801  23.629   4.214
37114W        W 9429  36.897  43.399   4.610
37115W        W 9430   8.893  10.150  10.616
37116W        W 9431  17.215  43.943   0.764
37117W        W 9432  25.592  38.908   3.158
37118W        W 9433  37.050  27.018  12.094
37119W        W 9434   1.760  14.288  14.795
37120W        W 9435  15.209  33.536  11.509
37121W        W 9436   7.244  15.652   2.677
37122W        W 9437  19.160  11.174  14.393
37123W        W 9438  23.123  11.293  12.521
37124W        W 9439  29.424  43.845   1.341
37125W        W 9440  16.688  42.419  13.901
37126W        W 9441   9.226  21.210  13.356
37127W        W 9442  34.915  11.649  10.948
37128W        W 9443  11.299  21.517   2.352
37129W        W 9444  11.362  12.721   2.327
37130W        W 9445  35.854  29.494   2.350
37131W        W 9446  26.514  36.000  14.429
37132W        W 9447  15.638   9.649   1.881
37133W        W 9448   7.851  18.641   1.864
37134W        W 9449  24.536  21.025   4.220
37135W        W 9450  22.595   2.448  10.543
37136W        W 9451   0.847   8.198   1.362
37137W        W 9452   4.733  18.080   0.844
37138W        W 9453  44.976  23.101   1.310
37139W        W 9454   9.326  23.203   0.732
37140W        W 9455  36.370  30.101  11.126
37141W        W 9456   6.876   8.291   0.844
37142W        W 9457   8.669  39.500  13.447
37143W        W 9458   3.933  36.971   2.283
37144W        W 9459   8.344  40.376   4.755
37145W        W 9460  13.172  36.507   1.826
37146W        W 9461   4.912  29.091  10.590
37147W        W 9462  36.080  41.422  14.369
37148W        W 9463  39.001  35.898   3.296
37149W        W 9464  20.722   8.394  13.414
37150W        W 9465   3.942   1.292   4.745
37151W        W 9466   7.173   3.813   1.848
37152W        W 9467  30.445  36.891   4.651
37153W        W 9468  16.209  38.531   2.873
37154W        W 9469  16.605  28.596  13.947
37155W        W 9470  24.032  32.593   0.750
37156W        W 9471  11.215   2.919   1.354
37157W        W 9472  39.837   4.785  11.879
37158W        W 9473  26.580   9.320  14.471
37159W        W 9474   8.319  38.852  12.976
37160W        W 9475   6.195  32.012  12.443
37161W        W 9476   0.258  14.264   3.238
37162W        W 9477   5.883  25.655  12.825
37163W        W 9478   5.719  16.706  10.949
37164W        W 9479  19.657  24.069  14.010
37165W        W 9480  30.070   4.807   1.725
37166W        W 9481   4.340  26.954  12.973
37167W        W 9482   7.818  39.518  13.319
37168W        W 9483  20.590   3.760   1.241
37169W        W 9484  33.517  16.273  14.458
37170W        W 9485   3.289  21.128   1.924
37171W        W 9486  22.744  26.574   4.749
37172W        W 9487  41.308   6.213  11.400
37173W        W 9488  21.569   1.430  13.997
37174W        W 9489  15.727  43.420   2.878
37175W        W 9490  15.322  40.920  10.993
37176W        W 9491  21.667  30.973  14.790
37177W        W 9492  12.198  39.047   4.350
37178W        W 9493  20.141  20.262  10.524
37179W        W 9494  18.259   5.911  11.550
37180W        W 9495  41.407   0.873  13.479
37181W        W 9496   6.761  29.656  14.507
37182W        W 9497  12.770  30.528   1.893
37183W        W 9498  15.171  24.217  11.548
37184W        W 9499  34.950  16.746   0.839
37185W        W 9500  40.984  17.093  13.448
37186W        W 9501  25.681  24.157  11.597
37187W        W 9502  41.878   2.964  13.967
37188W        W 9503  42.830  24.231   2.685
37189W        W 9504  12.678   5.336   2.352
37190W        W 9505  30.526  24.987   4.141
37191W        W 9506  34.432  36.509  10.604
37192W        W 9507  18.293  29.029   0.388
37193W        W 9508  10.222   5.334  14.326
37194W        W 9509  16.087   4.212   2.714
37195W        W 9510  40.972  39.882   4.122
37196W        W 9511  35.098  39.859   2.675
37197W        W 9512  20.060   1.947  12.360
37198W        W 9513  38.397  32.458   1.392
37199W        W 9514  33.540  23.715  10.907
37200W        W 9515  37.363  21.136   3.211
37201W        W 9516  24.479  35.532   4.637
37202W        W 9517   5.346   9.861   2.411
37203W        W 9518  36.883  37.954   3.739
37204W        W 9519  34.474  20.050  11.404
37205W        W 9520   1.944  26.165   4.835
37206W        W 9521  33.080   7.712  12.824
37207W        W 9522  23.688  28.637   1.929
37208W        W 9523   8.235  12.666   3.780
37209W        W 9524   1.444  18.660  14.323
37210W        W 9525  31.403  21.559   0.848
37211W        W 9526  33.006  24.097   2.241
37212W        W 9527   7.246  22.737   4.290
37213W        W 9528  17.096   0.381  13.889
37214W        W 9529   3.900  17.695  13.870
37215W        W 9530  22.653  41.343  12.846
37216W        W 9531   0.373  32.949   2.733
37217W        W 9532  30.952  42.009  14.968
37218W        W 9533  37.066  14.120   3.815
37219W        W 9534  12.767  28.612  13.505
37220W        W 9535  28.532  18.771   2.344
37221W        W 9536   4.775  42.027   4.691
37222W        W 9537  32.023  19.225   4.146
37223W        W 9538  23.550  39.977   1.895
37224W        W 9539  42.498   2.408  13.535
37225W        W 9540   1.929  18.610   4.773
37226W        W 9541   8.375  31.030  14.024
37227W        W 9542   2.843   5.726  11.045
37228W        W 9543  34.548  12.171   0.261
37229W        W 9544  26.458  25.027  14.936
37230W        W 9545  21.174  38.512   3.321
37231W        W 9546  35.020  37.919  13.799
37232W        W 9547  29.993  44.908   4.688
37233W        W 9548   9.201  29.079   4.344
37234W        W 9549  36.501  21.729  12.954
37235W        W 9550   9.783  21.072  10.894
37236W        W 9551   9.796  33.423  14.505
37237W        W 9552  27.068   4.246  11.554
37238W        W 9553  35.051  23.583  11.982
37239W        W 9554   1.245  25.071  14.012
37240W        W 9555  41.840  39.534   3.173
37241W        W 9556  24.183   2.937  12.006
37242W        W 9557   8.262   2.298   4.832
37243W        W 9558  25.696  21.196   4.184
37244W        W 9559  13.218  16.597   0.732
37245W        W 9560  20.756  29.993   1.766
37246W        W 9561   3.223  27.535  14.466
37247W        W 9562  39.036   3.222  10.492
37248W        W 9563  39.823  26.700   4.210
37249W        W 9564   7.177  33.914  14.900
37250W        W 9565   2.865  32.888  13.015
37251W        W 9566  18.070  20.730  13.326
37252W        W 9567   5.391  39.387   3.204
37253W        W 9568  14.760  43.958   2.741
37254W        W 9569  38.890  27.601   4.296
37255W        W 9570   4.917  38.040  13.057
37256W        W 9571  41.972  40.930   2.694
37257W        W 9572  29.669  37.051  11.435
37258W        W 9573  43.999  14.597   4.798
37259W        W 9574  11.648  40.916  10.441
37260W        W 9575  16.781  24.098  13.482
37261W        W 9576  38.513   2.455   1.400
37262W        W 9577  29.993   1.846  13.900
37263W        W 9578  14.098  44.900  14.291
37264W        W 9579  43.454  31.101  10.464
37265W        W 9580   8.764  22.027  10.569
37266W        W 9581  27.102   3.905   1.892
37267W        W 9582  14.301  28.131   3.871
37268W        W 9583  25.487  19.174   2.286
37269W        W 9584  38.823   0.315   3.161
37270W        W 9585  29.633   5.315  12.911
37271W        W 9586  40.960   5.883  12.490
37272W        W 9587  16.080  39.976   5.738
37273W        W 9588  11.279  38.954  10.897
37274W        W 9589  22.038   4.331  14.028
37275W        W 9590  41.329  21.605   1.726
37276W        W 9591  39.941  22.247   2.726
37277W        W 9592  13.257   4.709  11.019
37278W        W 9593  16.760  34.868   3.247
37279W        W 9594  19.216  14.256   0.753
37280W        W 9595  28.097  28.150  10.147
37281W        W 9596  43.297   0.391   0.260
37282W        W 9597  25.522  41.331  10.607
37283W        W 9598  21.176  14.146   0.797
37284W        W 9599  10.818  32.583   4.342
37285W        W 9600   1.977   3.871   1.777
37286W        W 9601   8.796   5.861  14.957
37287W        W 9602  30.992  30.106  10.951
37288W        W 9603  13.201  12.175  11.454
37289W        W 9604  21.215  18.158  10.955
37290W        W 9605  31.131  24.623   4.753
37291W        W 9606   4.873  20.653  10.615
37292W        W 9607  32.511  39.940   0.782
37293W        W 9608  17.556  26.591   0.784
37294W        W 9609  15.821  15.772  14.414
37295W        W 9610  25.008   7.319  11.106
37296W        W 9611  24.521  36.055   1.360
37297W        W 9612  42.367  29.569  12.381
37298W        W 9613  24.640  28.140  12.830
37299W        W 9614  41.922  39.824  13.411
37300W        W 9615   2.954  16.585  12.990
37301W        W 9616  24.140   8.738  12.888
37302W        W 9617  43.337   9.677   1.788
37303W        W 9618  38.017  27.488   0.255
37304W        W 9619  23.588  21.669  10.592
37305W        W 9620  20.570  23.154   3.816
37306W        W 9621  41.525  26.008   1.420
37307W        W 9622   9.667  14.662  14.911
37308W        W 9623  38.997   9.791  12.399
37309W        W 9624   1.742  32.477  13.040
37310W        W 9625  29.922  15.809   2.887
37311W        W 9626   1.804  15.130   0.776
37312W        W 9627  32.489  34.870  12.844
37313W        W 9628  34.433  32.558  14.418
37314W        W 9629  28.155  28.073   3.244
37315W        W 9630  28.555   6.257  11.006
37316W        W 9631  23.706   3.935  13.941
37317W        W 9632  21.171  19.603  11.418
37318W        W 9633  24.088  28.627  11.049
37319W        W 9634  28.007  41.786  12.404
37320W        W 9635   7.371  44.781  11.055
37321W        W 9636  44.485  38.935   1.721
37322W        W 9637  14.688  24.120  13.339
37323W        W 9638  17.623  35.433   2.844
37324W        W 9639  22.233  14.230   3.804
37325W        W 9640  40.945  39.944  13.904
37326W        W 9641  24.080  36.401   1.787
37327W        W 9642  23.534  19.201  14.835
37328W        W 9643  11.342  27.090   4.749
37329W        W 9644  16.244  29.963  11.510
37330W        W 9645  38.481  20.535   4.166
37331W        W 9646  16.772  13.146   0.372
37332W        W 9647  39.523   2.916  12.011
37333W        W 9648  21.553   5.833   1.295
37334W        W 9649  20.206  31.112   4.235
37335W        W 9650  18.786  36.844   3.315
37336W        W 9651  38.902  37.523   4.305
37337W        W 9652  20.662  36.895   3.858
37338W        W 9653  39.338  22.685   4.816
37339W        W 9654  33.605  21.208   1.260
37340W        W 9655  18.628   4.805   0.404
37341W        W 9656   8.388  29.632   4.701
37342W        W 9657  28.060  18.697   4.736
37343W        W 9658  11.144  15.165   4.608
37344W        W 9659   9.885  32.071   4.139
37345W        W 9660  34.904  42.466   4.811
37346W        W 9661  35.419  44.990  11.508
37347W        W 9662  32.965  41.471   2.747
37348W        W 9663  27.086  36.048  13.523
37349W        W 9664   0.955  36.016   0.805
37350W        W 9665  16.630  20.243   0.915
37351W        W 9666   1.316  40.992   4.179
37352W        W 9667   7.333   7.341   1.279
37353W        W 9668  30.959  15.329   0.964
37354W        W 9669  15.590  17.666  11.499
37355W        W 9670  36.901  38.891   1.750
37356W        W 9671  33.894   0.379   4.352
37357W        W 9672  25.103   8.882   2.359
37358W        W 9673  41.485   5.282   4.215
37359W        W 9674  24.209  43.847   1.763
37360W        W 9675  21.685  42.918  14.777
37361W        W 9676   7.316  28.945  10.979
37362W        W 9677   3.914  13.657   4.718
37363W        W 9678  16.583  26.464   1.339
37364W        W 9679  13.257  19.283  14.892
37365W        W 9680  41.811  14.245  14.318
37366W        W 9681  28.562  30.612  14.484
37367W        W 9682  43.997  19.055   0.409
37368W        W 9683  33.556  34.884  11.129
37369W        W 9684  40.908  29.648   4.800
37370W        W 9685  35.463   0.798  11.945
37371W        W 9686   6.768  24.604   0.464
37372W        W 9687  14.730  40.852  13.327
37373W        W 9688  30.465  21.201  13.487
37374W        W 9689  42.287  38.938  13.318
37375W        W 9690  20.197  16.623   2.235
37376W        W 9691   4.446  25.677   0.376
37377W        W 9692  38.372   3.828   4.747
37378W        W 9693   5.735  31.486   4.685
37379W        W 9694  25.972   1.459  14.945
37380W        W 9695   3.849  26.592   1.825
37381W        W 9696   5.753  18.238   2.766
37382W        W 9697   7.665   9.326  14.342
37383W        W 9698  27.615   4.756  12.990
37384W        W 9699   8.685  24.695  13.928
37385W        W 9700  29.440  27.479   3.669
37386W        W 9701  13.306  34.963   4.814
37387W        W 9702  33.396  34.461  10.968
37388W        W 9703  43.504  33.470  11.529
37389W        W 9704   0.760   9.820   2.793
37390W        W 9705  39.467  34.450   2.882
37391W        W 9706  20.122  13.732  13.359
37392W        W 9707  32.080  32.478  11.371
37393W        W 9708  43.271  43.427   4.173
37394W        W 9709  19.152   9.682  11.008
37395W        W 9710   1.253   9.384   4.286
37396W        W 9711  22.598  30.574   0.797
37397W        W 9712  11.208  20.069  14.443
37398W        W 9713  30.579   4.411  12.029
37399W        W 9714  14.756  18.685   3.256
37400W        W 9715  16.110  36.996   3.317
37401W        W 9716  43.975  29.547  12.487
37402W        W 9717  44.478   5.903   1.404
37403W        W 9718   1.375  24.103  14.298
37404W        W 9719  20.743   7.720   1.240
37405W        W 9720  33.462   2.364   1.910
37406W        W 9721  18.659  17.573   3.171
37407W        W 9722  15.600  40.006  11.444
37408W        W 9723   4.425  22.122   2.202
37409W        W 9724  33.938  41.371  14.007
37410W        W 9725  14.814  38.981  12.084
37411W        W 9726  28.017   2.382  11.405
37412W        W 9727  21.539  22.185   1.405
37413W        W 9728  33.129   8.737   4.672
37414W        W 9729  18.555  39.522  10.594
37415W        W 9730   0.856  27.166  12.991
37416W        W 9731  22.214  23.644   4.256
37417W        W 9732   9.382  10.652  10.520
37418W        W 9733  25.015  11.732  13.907
37419W        W 9734   9.190  22.080  11.593
37420W        W 9735  26.966   0.416  14.319
37421W        W 9736  19.544  18.547  13.389
37422W        W 9737   5.434  34.438   2.683
37423W        W 9738  37.869  26.151   1.740
37424W        W 9739  22.106   1.362  11.465
37425W        W 9740  26.698  38.501  10.975
37426W        W 9741  16.185  16.581   3.751
37427W        W 9742  40.970  39.362   1.350
37428W        W 9743  32.911  17.150  12.424
37429W        W 9744  22.747  36.949   1.384
37430W        W 9745   5.747   9.829   0.415
37431W        W 9746  11.284  38.478  13.347
37432W        W 9747  36.360  30.573  11.974
37433W        W 9748  31.108   4.441   4.707
37434W        W 9749  44.418  22.029   9.940
37435W        W 9750  29.579   2.767  10.906
37436W        W 9751  24.545   9.670   2.772
37437W        W 9752  27.118  31.401   0.375
37438W        W 9753  25.658  39.965  10.563
37439W        W 9754  32.100  39.019   2.300
37440W        W 9755  18.083  11.793   2.689
37441W        W 9756  28.572  14.628   1.796
37442W        W 9757  15.127  13.310  14.516
37443W        W 9758  44.990  25.031  14.941
37444W        W 9759   6.267  37.462  10.058
37445W        W 9760  24.070  26.029   0.319
37446W        W 9761  37.439  27.526  14.456
37447W        W 9762  14.156  34.459   2.881
37448W        W 9763  39.358  25.016  12.070
37449W        W 9764   9.754  39.339   2.340
37450W        W 9765  31.937  13.754  14.853
37451W        W 9766  26.974   2.786   1.865
37452W        W 9767  14.094   8.899  11.000
37453W        W 9768  42.895  18.634   1.250
37454W        W 9769  17.675  29.580  11.079
37455W        W 9770  40.315  40.862   4.307
37456W        W 9771   3.814  13.155  13.495
37457W        W 9772  32.108   0.764  13.054
37458W        W 9773  26.458  35.056   4.607
37459W        W 9774   2.330  26.523   1.838
37460W        W 9775   8.856  37.960   4.718
37461W        W 9776  32.496  31.614   4.805
37462W        W 9777  12.855  32.920   1.212
37463W        W 9778  42.289  16.653  10.963
37464W        W 9779  24.993   9.274  14.362
37465W        W 9780   2.306  29.015   4.197
37466W        W 9781  28.621  13.611  12.566
37467W        W 9782  28.979  25.580  12.942
37468W        W 9783   7.314   8.273   3.244
37469W        W 9784  40.987   0.394   4.138
37470W        W 9785  13.639   9.794   2.330
37471W        W 9786  31.078  26.965  10.421
37472W        W 9787   0.426  30.976   0.913
37473W        W 9788  38.393  35.913  13.830
37474W        W 9789  24.163  17.556  13.936
37475W        W 9790  43.443   1.383  14.916
37476W        W 9791  14.191  36.547  14.395
37477W        W 9792  33.035  10.672   0.305
37478W        W 9793  25.065  21.023   0.402
37479W        W 9794  43.974  35.887  10.502
37480W        W 9795  34.931  39.547  11.051
37481W        W 9796   7.717  33.924  12.529
37482W        W 9797  15.210  42.852   0.253
37483W        W 9798  26.544   4.943  14.349
37484W        W 9799  17.124  37.933   0.319
37485W        W 9800  35.365  18.770   3.757
37486W        W 9801  28.100   3.889  11.374
37487W        W 9802  33.022  28.157   0.903
37488W        W 9803  27.006   8.685   1.923
37489W        W 9804   4.938   2.284   4.302
37490W        W 9805  23.996  11.692  12.491
37491W        W 9806  36.366  39.012  12.480
37492W        W 9807  40.355   6.222  10.041
37493W        W 9808  16.687  39.473   4.655
37494W        W 9809  17.070  13.203   4.661
37495W        W 9810  38.546  26.517   0.460
37496W        W 9811   5.228   1.396   0.469
37497W        W 9812   0.449  26.114  12.841
37498W        W 9813   2.878  25.098   3.689
37499W        W 9814   1.266  38.921   3.710
37500W        W 9815  25.003   4.810  11.970
37501W        W 9816   6.686  25.200   3.152
37502W        W 9817  27.641  39.557   0.787
37503W        W 9818  20.571  13.644  12.058
37504W        W 9819  36.542  14.144   1.281
37505W        W 9820  11.180  22.995   0.316
37506W        W 9821   9.737  37.518   3.678
37507W        W 9822   3.322   2.369  10.912
37508W        W 9823  41.933  35.864  14.284
37509W        W 9824  37.548  41.037  12.387
37510W        W 9825  44.354  24.162   0.907
37511W        W 9826  43.910   2.338   4.654
37512W        W 9827  33.111   7.890  13.892
37513W        W 9828  42.314  17.112  12.073
37514W        W 9829  13.745   8.307  12.014
37515W        W 9830  20.049  32.020   1.329
37516W        W 9831   3.713  18.191   4.599
37517W        W 9832  19.734  13.694   2.322
37518W        W 9833  30.073  24.616   0.332
37519W        W 9834   7.819  18.119  13.320
37520W        W 9835  44.923  27.139  13.921
37521W        W 9836  24.983  11.853   3.781
37522W        W 9837  30.556  35.578  12.020
37523W        W 9838  10.830  22.626   0.816
37524W        W 9839   0.870  33.500   5.194
37525W        W 9840  39.515   2.463   0.252
37526W        W 9841  10.246  36.928  12.047
37527W        W 9842   8.370  22.109  10.641
37528W        W 9843  37.357  20.229   5.195
37529W        W 9844  20.131   2.300  13.438
37530W        W 9845  38.402   5.215  14.798
37531W        W 9846   6.808  34.520  12.862
37532W        W 9847  13.319   7.716  14.956
37533W        W 9848  12.734  35.543   1.374
37534W        W 9849  36.893  42.498   1.838
37535W        W 9850   5.275   6.875  10.985
37536W        W 9851  38.475   6.867  13.990
37537W        W 9852  22.050  21.049   0.383
37538W        W 9853   7.888  21.743  12.913
37539W        W 9854   1.943  35.857   3.805
37540W        W 9855   0.759  31.948   3.674
37541W        W 9856  31.961  10.194  13.814
37542W        W 9857  30.550  43.806  11.548
37543W        W 9858  34.949  19.743   1.244
37544W        W 9859  28.079  41.368   1.278
37545W        W 9860  27.001  10.778   0.276
37546W        W 9861   1.397  14.763   4.694
37547W        W 9862  21.204  34.491   1.765
37548W        W 9863   3.909  12.124   1.242
37549W        W 9864  23.127  18.197   2.208
37550W        W 9865  35.891  34.374   4.802
37551W        W 9866  18.710  10.332   2.335
37552W        W 9867  33.475  28.515   0.894
37553W        W 9868  23.218  23.017   1.270
37554W        W 9869  38.406  38.462  12.579
37555W        W 9870  36.495   1.834   1.872
37556W        W 9871  38.453  43.372   0.346
37557W        W 9872  38.930   6.246   5.199
37558W        W 9873  41.957  42.368  14.032
37559W        W 9874  24.038  23.545  11.532
37560W        W 9875  37.541   0.880   1.907
37561W        W 9876  39.524  32.903  14.348
37562W        W 9877  41.310  32.971  12.372
37563W        W 9878  21.137   4.300   3.342
37564W        W 9879  22.182  10.385   3.851
37565W        W 9880  39.378  42.508  14.426
37566W        W 9881  12.243   8.201   0.820
37567W        W 9882  44.432  37.417  12.442
37568W        W 9883  34.408   3.439   2.335
37569W        W 9884  31.626  28.936   1.399
37570W        W 9885  38.973   2.303   5.141
37571W        W 9886  17.182  15.297   0.867
37572W        W 9887   0.269  16.246   1.902
37573W        W 9888   2.808  20.540  12.373
37574W        W 9889   9.151   9.181   4.178
37575W        W 9890  27.148   2.278  13.491
37576W        W 9891  13.260  20.061   0.387
37577W        W 9892   9.343  37.364   3.844
37578W        W 9893   9.888  26.143   3.667
37579W        W 9894   4.370  34.477   1.414
37580W        W 9895  37.499  18.605   1.706
37581W        W 9896   4.374  44.456   4.681
37582W        W 9897  30.096  32.965   0.280
37583W        W 9898  43.931  43.854  13.445
37584W        W 9899  10.315  19.054  10.435
37585W        W 9900  17.717  18.672   3.773
37586W        W 9901   7.859  17.675   2.291
37587W        W 9902  32.523  33.398   2.813
37588W        W 9903  39.009  17.785  12.833
37589W        W 9904  42.514  35.032   3.171
37590W        W 9905   6.218  24.593  10.638
37591W        W 9906   9.250  31.486  14.501
37592W        W 9907  39.835  30.656  10.588
37593W        W 9908  26.952  25.704   1.702
37594W        W 9909  40.889  32.106  14.999
37595W        W 9910   3.785  14.756  12.406
37596W        W 9911   9.265  22.022  14.425
37597W        W 9912  35.090  23.549   4.313
37598W        W 9913  34.107  14.280   2.271
37599W        W 9914  30.457   6.866   2.202
37600W        W 9915  23.238  18.597   2.789
37601W        W 9916  40.894   4.388   1.351
37602W        W 9917  27.171  12.770  10.950
37603W        W 9918  29.530  33.382   4.710
37604W        W 9919  21.068  26.158  13.064
37605W        W 9920   4.919  14.673  14.952
37606W        W 9921  24.098   1.430   4.757
37607W        W 9922  15.763   5.825   2.729
37608W        W 9923   1.873   4.428   0.263
37609W        W 9924  22.536  28.089  14.370
37610W        W 9925  17.758  39.972   1.315
37611W        W 9926  22.069  29.992  12.496
37612W        W 9927   4.226   8.229  11.069
37613W        W 9928  24.628  21.116  13.488
37614W        W 9929  41.377  17.061  11.862
37615W        W 9930   0.764  25.049   4.697
37616W        W 9931  10.161  12.193   4.826
37617W        W 9932  26.975  22.579  11.491
37618W        W 9933  18.722  28.446   5.736
37619W        W 9934   4.331   7.391  10.961
37620W        W 9935  42.457  11.275  13.457
37621W        W 9936   5.855  16.693  13.515
37622W        W 9937  25.629  29.454  13.976
37623W        W 9938  24.019  35.976  13.937
37624W        W 9939   9.374   3.223   4.740
37625W        W 9940  17.678  30.034  10.993
37626W        W 9941  37.563  19.707  12.479
37627W        W 9942   1.791  28.553   4.774
37628W        W 9943  36.430  44.810  10.914
37629W        W 9944  13.726  29.494  11.106
37630W        W 9945  16.810  16.271  10.455
37631W        W 9946  39.901   0.921   0.814
37632W        W 9947  15.124  30.648  12.005
37633W        W 9948   7.251  13.703   0.247
37634W        W 9949   1.311  36.913   4.339
37635W        W 9950   9.858  22.697   0.244
37636W        W 9951  34.929  43.313  14.394
37637W        W 9952   5.281  30.564  10.486
37638W        W 9953   4.939   7.836  11.389
37639W        W 9954   3.348  39.515  12.077
37640W        W 9955  43.778  27.691  13.521
37641W        W 9956   5.757  13.189   1.296
37642W        W 9957  41.867   3.722  11.423
37643W        W 9958  30.943   7.195  13.338
37644W        W 9959  37.885  31.913  13.013
37645W        W 9960   8.337  42.956   4.703
37646W        W 9961  35.398   1.374   2.250
37647W        W 9962  35.106   1.857   2.749
37648W        W 9963  35.973   7.382   0.280
37649W        W 9964  25.022  33.432   0.732
37650W        W 9965  42.825  44.373   4.774
37651W        W 9966   2.423  34.515  12.558
37652W        W 9967  12.349  40.444  10.470
37653W        W 9968   1.391  15.262   1.335
37654W        W 9969  40.896  18.594  12.991
37655W        W 9970  31.151  25.121   4.268
37656W        W 9971  40.314  19.644  11.936
37657W        W 9972  31.133  28.464   1.717
37658W        W 9973  20.105  17.721   0.762
37659W        W 9974  19.179  29.467   3.370
37660W        W 9975  40.540  11.680  11.557
37661W        W 9976  44.493  44.357  12.475
37662W        W 9977  19.113  15.652   0.909
37663W        W 9978  14.787  41.459  10.988
37664W        W 9979  11.257  18.643   3.717
37665W        W 9980  44.422  35.548  14.921
37666W        W 9981  17.567  19.132   1.325
37667W        W 9982  39.426  23.518  11.022
37668W        W 9983  11.840   1.376   4.687
37669W        W 9984  23.068  28.681   0.327
37670W        W 9985  21.603  27.546  12.431
37671W        W 9986   4.428   1.868  12.438
37672W        W 9987   1.820   1.771  14.342
37673W        W 9988  15.253  43.314  11.403
37674W        W 9989  12.168  33.399  10.439
37675W        W 9990  18.278  24.097  13.372
37676W        W 9991   5.259  38.901   4.666
37677W        W 9992   9.262  40.384   2.890
37678W        W 9993  28.039  14.809  11.558
37679W        W 9994   1.920  15.164   0.447
37680W        W 9995  32.408  23.503  12.840
37681W        W 9996   6.763   2.746  11.548
37682W        W 9997  10.231  37.000   4.637
37683W        W 9998  42.925  26.498  11.577
37684W        W 9999  29.130  43.375   3.295
37685W        W10000  16.762  40.809  14.862
37686W        W10001   6.818  43.435  10.896
37687W        W10002  22.597  37.993  12.093
37688W        W10003   8.659   2.753  11.404
37689W        W10004  28.546   9.229  14.497
37690W        W10005  13.777  43.497  14.320
37691W        W10006  39.963  32.995  14.966
37692W        W10007   0.287  33.045  14.030
37693W        W10008  31.065  11.731  14.497
37694W        W10009   3.445  34.527   1.744
37695W        W10010  11.853  23.232   4.229
37696W        W10011  41.365   6.272   1.833
37697W        W10012  21.185   8.656  14.431
37698W        W10013  34.563  10.150  11.022
37699W        W10014  19.546  18.784  12.888
37700W        W10015  22.219  22.150   4.682
37701W        W10016  14.696  14.182   5.090
37702W        W10017  14.730  11.162  11.086
37703W        W10018   5.843  15.760   9.960
37704W        W10019  33.568  27.564  14.464
37705W        W10020  19.121  42.006   3.326
37706W        W10021  23.006   9.859  14.509
37707W        W10022  16.285  38.496   5.757
37708W        W10023   6.822  12.129  14.761
37709W        W10024  40.985  17.672   0.867
37710W        W10025  30.570  16.193  13.044
37711W        W10026  34.394  29.055   4.282
37712W        W10027  20.729  20.217  14.808
37713W        W10028   8.750  34.436   3.348
37714W        W10029  38.039  16.231  10.641
37715W        W10030  33.876  19.729  13.513
37716W        W10031   6.743  19.596   2.832
37717W        W10032  13.624  19.279   3.376
37718W        W10033   2.251   5.346  12.834
37719W        W10034  42.374  37.997  12.077
37720W        W10035  34.912  16.192  12.464
37721W        W10036  19.205  23.072   3.302
37722W        W10037   6.912  35.887  13.954
37723W        W10038  30.101  28.089  12.527
37724W        W10039  27.496  26.481  10.431
37725W        W10040  34.058  25.565  11.500
37726W        W10041  20.228  34.598   1.713
37727W        W10042  10.187  40.352  13.442
37728W        W10043  21.740  25.204   1.787
37729W        W10044  10.850  18.574  13.909
37730W        W10045  33.577  36.043  13.337
37731W        W10046  18.234  18.756  10.915
37732W        W10047  37.837  32.552   0.261
37733W        W10048  26.547  16.782  14.789
37734W        W10049  34.971  35.092  10.463
37735W        W10050  34.975  28.561   4.167
37736W        W10051  33.552   9.325  13.005
37737W        W10052  26.004  36.012   1.730
37738W        W10053  22.110  11.193  12.850
37739W        W10054  13.181   2.371   2.692
37740W        W10055  38.934  25.149   4.200
37741W        W10056  14.599  32.888   1.245
37742W        W10057  15.611  23.119  11.965
37743W        W10058  31.512  19.773   0.405
37744W        W10059  24.546  10.215   4.331
37745W        W10060  39.925  28.117   1.394
37746W        W10061  42.782  37.021   2.825
37747W        W10062   9.250  39.554  13.433
37748W        W10063  27.621  20.600  13.878
37749W        W10064   3.770   5.427  12.048
37750W        W10065  32.100  18.257  11.505
37751W        W10066  40.815  34.492  10.406
37752W        W10067   1.854  12.630   0.462
37753W        W10068   3.772  17.202   3.270
37754W        W10069  26.078  44.426  14.019
37755W        W10070  35.011  36.059   2.783
37756W        W10071  16.270  11.864   1.719
37757W        W10072  26.482  42.782   4.236
37758W        W10073  29.531  43.297  14.835
37759W        W10074  11.779  18.690   2.853
37760W        W10075  22.096  41.459   0.950
37761W        W10076  26.121  31.966   1.933
37762W        W10077  25.611   6.224  11.532
37763W        W10078  44.259  40.319  10.638
37764W        W10079   3.947  44.911  13.524
37765W        W10080  26.531  22.515   0.471
37766W        W10081  29.449   8.332  12.490
37767W        W10082  27.599  19.603  11.889
37768W        W10083   0.963   2.457   1.428
37769W        W10084  39.460   1.960  10.446
37770W        W10085   8.387   4.321   1.756
37771W        W10086  43.417  14.632  13.837
37772W        W10087  11.156   1.825   1.928
37773W        W10088  37.081  21.139   0.807
37774W        W10089   5.782   6.866   0.872
37775W        W10090  31.947  38.565  14.432
37776W        W10091  25.585  24.189  11.937
37777W        W10092   1.288  12.758   0.330
37778W        W10093  26.182   7.706  14.879
37779W        W10094  24.705  25.194   0.910
37780W        W10095   6.792  31.418  14.359
37781W        W10096  34.939   0.981  11.478
37782W        W10097  24.152   4.225  10.627
37783W        W10098  12.612   4.779   3.756
37784W        W10099  32.012  32.045   2.331
37785W        W10100  26.145  36.534  11.016
37786W        W10101  17.208  22.164   0.880
37787W        W10102   0.283  44.953   2.201
37788W        W10103  42.942  24.021  14.448
37789W        W10104  28.178  22.508  11.069
37790W        W10105  24.570  34.030  10.428
37791W        W10106  35.535  23.550   2.800
37792W        W10107  21.212  19.580  12.343
37793W        W10108  40.376  38.023  13.390
37794W        W10109  38.341   9.277   3.633
37795W        W10110  25.977  10.712   3.341
37796W        W10111   1.353  33.582  13.308
37797W        W10112   9.702  36.545  13.014
37798W        W10113  18.127  36.971  14.933
37799W        W10114  27.986   7.845  14.772
37800W        W10115  38.054  16.204   2.184
37801W        W10116   0.795  43.940  10.622
37802W        W10117  25.052  11.174  14.875
37803W        W10118  30.554  20.246   0.881
37804W        W10119   1.818   9.728  14.397
37805W        W10120  13.809   1.755  14.366
37806W        W10121  18.585  21.667  13.420
37807W        W10122  13.723  18.596   4.808
37808W        W10123  28.986  37.830   1.326
37809W        W10124   8.231   1.294   0.321
37810W        W10125  25.041  32.034  11.101
37811W        W10126  36.917  31.043  14.284
37812W        W10127  31.530  27.465   2.210
37813W        W10128  28.628  43.917  13.921
37814W        W10129  23.012  27.641  14.325
37815W        W10130   9.362  28.634   1.409
37816W        W10131   5.266  29.506  12.504
37817W        W10132  26.697  10.813  12.494
37818W        W10133  25.002  19.042   1.338
37819W        W10134  32.626   6.689  11.966
37820W        W10135   2.954  27.122   4.128
37821W        W10136  42.869   1.871   1.416
37822W        W10137   4.861  34.985  13.058
37823W        W10138  11.174  41.968  14.504
37824W        W10139  15.306  40.518  10.454
37825W        W10140  36.502  18.752   2.747
37826W        W10141  10.800  12.700   1.819
37827W        W10142  36.520  27.990   4.353
37828W        W10143  24.214  14.677  14.298
37829W        W10144  42.819  37.338  12.455
37830W        W10145  10.273  20.103  13.951
37831W        W10146  12.667  42.858  13.873
37832W        W10147  26.127  42.298   3.223
37833W        W10148  34.997  24.546   4.247
37834W        W10149   2.965  38.540  12.351
37835W        W10150  27.676  41.501   1.814
37836W        W10151  35.560  38.942   2.211
37837W        W10152  35.030  30.435  12.062
37838W        W10153  24.184  23.233  12.423
37839W        W10154  25.104  31.430  10.540
37840W        W10155  35.586  27.176  10.971
37841W        W10156  40.033  12.171  12.872
37842W        W10157  27.681  19.624   4.142
37843W        W10158  11.792  24.694  14.399
37844W        W10159  26.203  26.627   0.893
37845W        W10160  42.834  44.873  12.849
37846W        W10161   4.781  34.027  12.057
37847W        W10162  12.350  16.673  11.420
37848W        W10163  17.063   0.841   2.204
37849W        W10164  35.092  33.973  14.382
37850W        W10165  39.028  22.518   0.855
37851W        W10166  13.658   5.222  12.382
37852W        W10167  23.564   2.772   4.752
37853W        W10168  20.715   4.321  12.541
37854W        W10169  42.487  30.967  12.039
37855W        W10170  21.522  35.086   2.378
37856W        W10171   7.714  26.051   2.217
37857W        W10172  38.546  29.522  12.404
37858W        W10173  16.082   9.186   2.349
37859W        W10174  20.140  19.647   2.287
37860W        W10175  15.762  14.335   0.731
37861W        W10176  26.037  37.494   3.350
37862W        W10177  22.039  38.819   0.350
37863W        W10178  26.593   8.399   0.477
37864W        W10179  10.177  41.499  10.983
37865W        W10180  34.953  39.382   4.769
37866W        W10181  24.219   6.392  12.039
37867W        W10182   9.870   4.898  13.008
37868W        W10183   4.302  37.877  10.532
37869W        W10184  30.105   2.258  11.437
37870W        W10185  17.698   6.722   0.258
37871W        W10186  27.178  25.009   5.282
37872W        W10187  22.128   8.792  10.961
37873W        W10188  31.525  34.556   0.806
37874W        W10189   6.703  40.994  11.391
37875W        W10190  11.789  37.456   4.736
37876W        W10191  21.119  35.074   4.600
37877W        W10192  29.082  36.380   0.279
37878W        W10193  34.941  14.624   3.352
37879W        W10194  38.515  34.420  13.486
37880W        W10195  41.848  44.355  12.380
37881W        W10196  31.470  35.434   3.697
37882W        W10197  22.239  18.231  12.883
37883W        W10198  17.134  15.316  14.943
37884W        W10199  38.341  27.180   3.779
37885W        W10200  19.757   3.880   5.293
37886W        W10201  12.247  25.659  12.978
37887W        W10202  26.091  32.025  14.302
37888W        W10203  23.166   8.710  10.601
37889W        W10204  29.578  22.531   3.333
37890W        W10205   0.429  37.435   2.732
37891W        W10206   3.279   3.439   2.705
37892W        W10207  17.140  42.831   4.679
37893W        W10208  15.669  35.106   5.110
37894W        W10209  13.279  11.683  14.348
37895W        W10210   2.257   3.871  10.562
37896W        W10211   6.424  17.712  14.993
37897W        W10212  18.195  12.833   2.352
37898W        W10213  35.914   2.762   1.708
37899W        W10214  32.456  38.975  12.485
37900W        W10215  40.395  41.316   1.779
37901W        W10216  26.117  10.244   1.854
37902W        W10217  41.807   1.383  11.588
37903W        W10218   6.758  18.219   4.624
37904W        W10219  22.054  27.538   2.851
37905W        W10220  32.405   1.450  12.915
37906W        W10221  43.895  44.945   3.323
37907W        W10222  29.926  32.117  14.466
37908W        W10223  34.079  27.121   3.765
37909W        W10224  11.706  43.014   1.216
37910W        W10225  22.111  39.429   3.216
37911W        W10226  40.932  23.553  14.314
37912W        W10227  20.570  13.682   2.712
37913W        W10228  23.050  37.045  10.532
37914W        W10229   8.730  16.210  14.974
37915W        W10230  31.009  23.542  10.055
37916W        W10231  42.431  19.560  11.921
37917W        W10232  37.576  38.983   9.960
37918W        W10233   7.357  43.975  12.546
37919W        W10234  39.482  18.671  14.444
37920W        W10235  21.217  16.631  13.995
37921W        W10236  31.424  17.160  13.853
37922W        W10237  16.799  14.693  12.026
37923W        W10238  30.931  11.852  13.041
37924W        W10239  41.391  38.480  10.634
37925W        W10240  28.074   6.844   5.613
37926W        W10241  17.158  22.537   4.631
37927W        W10242  37.370  44.984   3.282
37928W        W10243  21.097  40.801  10.585
37929W        W10244  12.624  39.336   0.310
37930W        W10245  28.086  31.582  11.067
37931W        W10246   2.364   6.291  10.916
37932W        W10247  21.077  20.745   3.225
37933W        W10248   0.905  34.578  13.977
37934W        W10249  18.100  29.505   1.367
37935W        W10250   7.678   0.932   0.434
37936W        W10251  43.831  13.665   4.311
37937W        W10252   1.334  29.450  13.863
37938W        W10253  37.866   6.250   1.747
37939W        W10254  33.451  22.039   4.693
37940W        W10255  32.069  14.242   4.665
37941W        W10256  43.471  28.149   3.161
37942W        W10257  28.661  14.137   3.754
37943W        W10258   0.305  16.072   0.757
37944W        W10259  23.720  23.677  13.055
37945W        W10260   0.484  15.303   0.876
37946W        W10261  16.669   9.846   1.328
37947W        W10262  16.677  26.605  14.417
37948W        W10263  21.564  26.140  12.043
37949W        W10264  44.806  25.647   3.213
37950W        W10265  19.741  33.560  14.958
37951W        W10266  33.950   7.331  10.980
37952W        W10267  26.610  11.672   2.315
37953W        W10268  37.029  29.080  11.957
37954W        W10269  18.763  38.045   2.399
37955W        W10270  21.581  40.433  14.765
37956W        W10271  37.421  17.687   4.723
37957W        W10272   5.288  34.950   2.188
37958W        W10273  24.077   3.419  12.940
37959W        W10274  16.664  10.191  10.530
37960W        W10275  14.253  39.998   4.828
37961W        W10276  10.775  11.270  12.063
37962W        W10277  28.972  40.958  11.498
37963W        W10278  37.025   7.182  13.404
37964W        W10279  11.632   3.457  12.485
37965W        W10280   9.222   5.281   4.647
37966W        W10281  10.769  32.932  14.013
37967W        W10282  11.190  27.459  13.822
37968W        W10283  39.489  39.842  14.002
37969W        W10284  38.441   6.747  12.434
37970W        W10285  30.990  22.217  11.894
37971W        W10286  11.679  40.967   1.334
37972W        W10287  14.742  19.592   1.927
37973W        W10288   3.921  13.212   0.410
37974W        W10289  27.996  10.236   0.369
37975W        W10290  34.113  24.717   2.273
37976W        W10291  41.403  13.770   2.883
37977W        W10292  41.425  21.115   2.759
37978W        W10293  42.366  40.404  13.399
37979W        W10294  30.111  24.615   2.871
37980W        W10295  36.491  43.901   1.933
37981W        W10296  37.542  14.216  10.027
37982W        W10297   2.905   1.463   0.748
37983W        W10298  36.570   1.949   0.779
37984W        W10299  31.478   3.783  11.057
37985W        W10300  39.956  38.000  14.884
37986W        W10301   0.823   5.404  11.125
37987W        W10302  26.973   1.841  14.777
37988W        W10303  17.699   0.362  13.477
37989W        W10304  43.960   8.772   1.291
37990W        W10305  36.884  18.578  11.392
37991W        W10306   8.321   6.725   4.799
37992W        W10307  23.657  23.058  11.401
37993W        W10308  37.549  42.927   4.206
37994W        W10309  15.172  11.656   2.404
37995W        W10310  20.098  34.475   3.372
37996W        W10311  42.800  37.060   4.605
37997W        W10312   3.925  14.633  12.939
37998W        W10313   9.340  12.328   0.929
37999W        W10314  24.990  11.636  13.011
38000W        W10315  40.825  44.929   1.293
38001W        W10316  10.178  25.138  14.325
38002W        W10317   3.254  26.576   3.690
38003W        W10318  28.175  11.626   4.665
38004W        W10319  18.643   1.808  10.601
38005W        W10320  32.493  31.577   1.921
38006W        W10321   4.826  24.098   1.846
38007W        W10322  42.347  23.694  10.448
38008W        W10323  27.002  41.811  13.942
38009W        W10324  41.881  22.128   2.900
38010W        W10325  42.325  14.278   0.892
38011W        W10326  39.892   1.332  13.926
38012W        W10327  12.185   5.290   1.766
38013W        W10328  37.063   1.769   2.289
38014W        W10329   6.317  17.285   2.769
38015W        W10330   9.658  29.153  13.371
38016W        W10331  34.896  16.257   1.256
38017W        W10332  17.073  33.084  11.596
38018W        W10333  12.647   9.725  13.922
38019W        W10334  23.033  43.949   1.766
38020W        W10335  40.385  35.013  14.867
38021W        W10336  33.573  42.888  14.841
38022W        W10337  19.688  33.026   3.158
38023W        W10338  39.921  39.390  10.575
38024W        W10339  28.035   2.949   2.789
38025W        W10340  37.338  39.554   4.146
38026W        W10341  22.633  33.942  14.420
38027W        W10342   8.254  34.434   2.292
38028W        W10343  34.598  40.533  10.459
38029W        W10344   7.854  20.764  11.503
38030W        W10345  15.789  38.018   3.299
38031W        W10346  38.522  12.161  11.874
38032W        W10347  18.641  41.937   4.132
38033W        W10348  24.589  11.697  12.451
38034W        W10349   3.440  13.761  13.980
38035W        W10350  32.584  38.951   2.347
38036W        W10351  44.905  23.065   3.809
38037W        W10352  22.018  19.085   3.270
38038W        W10353  11.721  21.165   0.887
38039W        W10354   8.770  11.776   1.415
38040W        W10355  27.069  10.850  12.512
38041W        W10356  31.969  28.612   2.835
38042W        W10357  15.174  16.756  14.001
38043W        W10358   5.802   0.449  12.388
38044W        W10359   1.352  17.258   3.381
38045W        W10360  14.227  17.612  14.794
38046W        W10361  44.993  19.227  14.988
38047W        W10362  20.534  23.113   0.455
38048W        W10363  40.810  30.620   2.857
38049W        W10364   2.786  20.216  14.882
38050W        W10365  33.021  24.645  12.051
38051W        W10366   2.822  21.704   0.742
38052W        W10367  17.676  23.561  12.402
38053W        W10368  43.314  10.315   1.254
38054W        W10369  19.151  33.909  10.463
38055W        W10370  18.756  33.090  13.436
38056W        W10371  10.299   9.332  10.415
38057W        W10372  16.128  43.456  11.552
38058W        W10373  27.079  37.487   0.727
38059W        W10374  31.440  15.134   3.266
38060W        W10375  32.473  21.607   1.847
38061W        W10376   0.767  25.536  14.502
38062W        W10377  32.036  26.690   4.646
38063W        W10378  28.457   5.330  12.449
38064W        W10379   3.319   1.370  13.449
38065W        W10380  43.916  34.427   3.171
38066W        W10381  38.542  36.531  14.428
38067W        W10382   2.829  40.472   0.365
38068W        W10383  39.044   5.289   3.837
38069W        W10384   7.409  43.366  11.033
38070W        W10385  19.198  19.743   1.935
38071W        W10386  35.067  27.597  14.409
38072W        W10387  14.812  44.293  12.382
38073W        W10388  17.229  31.067  14.403
38074W        W10389  15.256  16.108   3.802
38075W        W10390  40.470  41.818   4.242
38076W        W10391   2.249  42.818   1.830
38077W        W10392   0.968  19.714   0.801
38078W        W10393  31.457  43.298   3.808
38079W        W10394  41.947  29.138  12.827
38080W        W10395  18.716  16.246   1.866
38081W        W10396  13.137  33.117  11.539
38082W        W10397   3.907   2.801   3.864
38083W        W10398   3.870  38.834  14.365
38084W        W10399  13.825   9.239   0.843
38085W        W10400  12.817   3.370  11.507
38086W        W10401  26.590  28.454  14.947
38087W        W10402  28.659  36.396   4.701
38088W        W10403  10.255  19.067   9.478
38089W        W10404  15.795  19.633   0.332
38090W        W10405  38.962  42.511  14.465
38091W        W10406   1.398  10.337  14.391
38092W        W10407  17.112  30.641   1.407
38093W        W10408  28.136   6.875  10.560
38094W        W10409  27.996  32.590  13.842
38095W        W10410  36.084  13.121   0.388
38096W        W10411  31.608  20.108   4.328
38097W        W10412  15.121  11.710  13.312
38098W        W10413  37.361  14.666   1.267
38099W        W10414  26.566   0.904  14.991
38100W        W10415  29.002  17.232   4.135
38101W        W10416  41.527  23.591  12.042
38102W        W10417  17.765  12.152   3.219
38103W        W10418  12.843   1.335  14.500
38104W        W10419  36.549  12.672   1.804
38105W        W10420  23.608  32.496  14.970
38106W        W10421   3.821  35.390   2.238
38107W        W10422   1.906  34.495   5.643
38108W        W10423  18.723   5.811   4.124
38109W        W10424  42.435  42.389  10.986
38110W        W10425  35.389  18.283   0.436
38111W        W10426  28.019   1.243   4.143
38112W        W10427  38.357  38.870  12.892
38113W        W10428   2.816  10.740   1.913
38114W        W10429   0.852  39.027   0.804
38115W        W10430  29.067  18.666  10.584
38116W        W10431  22.678  27.517   0.758
38117W        W10432  24.632  19.157   1.346
38118W        W10433   8.365   7.792  11.108
38119W        W10434  29.623  25.485   0.748
38120W        W10435  39.886  11.263  14.320
38121W        W10436  15.712  15.770   0.405
38122W        W10437  41.353  20.690   0.945
38123W        W10438   4.849   0.757  13.509
38124W        W10439  32.985  36.893   3.167
38125W        W10440  33.401  34.887   0.340
38126W        W10441  26.552   4.228  10.619
38127W        W10442   7.321  22.507   1.743
38128W        W10443  24.131  41.447  12.936
38129W        W10444  11.745  35.868  13.901
38130W        W10445  40.327  34.497  13.538
38131W        W10446  40.856  26.146  12.862
38132W        W10447  44.411  18.245   0.796
38133W        W10448  36.588   7.703   1.789
38134W        W10449  32.056   9.284   4.637
38135W        W10450  10.346  26.582   3.708
38136W        W10451  41.409  12.347   2.415
38137W        W10452  20.179  24.159   1.707
38138W        W10453  13.265  27.466   0.817
38139W        W10454  33.443  12.699  12.410
38140W        W10455  43.853  35.536   1.758
38141W        W10456  24.061  11.199   1.747
38142W        W10457  38.866   6.255   1.254
38143W        W10458  17.087  37.536  13.940
38144W        W10459  20.716  12.834   4.805
38145W        W10460  43.783  18.290   1.784
38146W        W10461  22.121  20.648  14.328
38147W        W10462  18.121  42.890  11.568
38148W        W10463  32.523  26.647   3.352
38149W        W10464  24.622  42.522   0.441
38150W        W10465  42.416  32.517   0.402
38151W        W10466  19.230  23.496  11.518
38152W        W10467  18.281  18.738   1.839
38153W        W10468  25.166  27.189   1.858
38154W        W10469  43.423  20.065  14.453
38155W        W10470  20.602  11.303   4.187
38156W        W10471  24.137  11.641  14.321
38157W        W10472  17.770  42.785  12.359
38158W        W10473  38.500   7.765  14.478
38159W        W10474  42.830  26.173   4.348
38160W        W10475  11.731  29.444   1.779
38161W        W10476  42.361  14.222  11.488
38162W        W10477  43.323  26.026  13.838
38163W        W10478  33.422  39.053   1.860
38164W        W10479  18.663  26.018  13.003
38165W        W10480   3.366   6.695   4.626
38166W        W10481  18.119  40.969  13.392
38167W        W10482  10.370   2.406   4.114
38168W        W10483  34.969  32.005   0.360
38169W        W10484  33.063  30.433  11.446
38170W        W10485  24.569  40.360  11.564
38171W        W10486  21.214  35.517  10.463
38172W        W10487  30.013   2.792  12.487
38173W        W10488  32.560  37.577  14.312
38174W        W10489  42.840   0.790   4.293
38175W        W10490  33.438  33.925   1.401
38176W        W10491  34.026   5.351   2.298
38177W        W10492  37.457  21.743   0.315
38178W        W10493  14.806   6.334  14.844
38179W        W10494  34.412   4.342   1.836
38180W        W10495  18.739  37.569  12.987
38181W        W10496  22.158  28.935  13.480
38182W        W10497  25.620  38.040   3.215
38183W        W10498  42.287  35.932  14.472
38184W        W10499   8.271  42.946  13.405
38185W        W10500  40.925  25.171  11.101
38186W        W10501  42.834  17.242  10.481
38187W        W10502  42.022   1.439  12.022
38188W        W10503  18.605  23.650   2.893
38189W        W10504  24.721   2.951   4.816
38190W        W10505  42.849  41.310  11.904
38191W        W10506  42.886  11.147  14.872
38192W        W10507  28.647  34.966  12.878
38193W        W10508   8.232  35.020   2.252
38194W        W10509  22.139  34.025   2.803
38195W        W10510  17.716  28.952   4.145
38196W        W10511  13.340  13.244   3.264
38197W        W10512  26.016   1.356  10.526
38198W        W10513   5.227  43.498   0.882
38199W        W10514  21.686   6.389   4.218
38200W        W10515  32.957  19.549  11.479
38201W        W10516  23.577   5.892   4.824
38202W        W10517  13.209  43.943   1.264
38203W        W10518  15.674  15.088  12.376
38204W        W10519  16.086   8.274  12.975
38205W        W10520  26.520  34.379   2.229
38206W        W10521  37.081  19.703  13.008
38207W        W10522  18.179  37.928  10.468
38208W        W10523   6.287  16.632   4.280
38209W        W10524  20.712  10.264  11.400
38210W        W10525  42.932   4.383  14.773
38211W        W10526  43.397  44.904   1.360
38212W        W10527  27.141  23.520   3.795
38213W        W10528  18.233  23.194  14.399
38214W        W10529  27.642  43.405  11.918
38215W        W10530  23.547  32.549   4.238
38216W        W10531  38.518  15.193  11.038
38217W        W10532  23.217   4.394   1.298
38218W        W10533  37.495  27.148   5.312
38219W        W10534  38.970  39.035  10.087
38220W        W10535  44.388  13.754  11.124
38221W        W10536  34.924  17.664  12.987
38222W        W10537  17.705  20.054  12.446
38223W        W10538  41.000  14.750  14.942
38224W        W10539  24.069  38.543   4.703
38225W        W10540  40.812  29.651   2.840
38226W        W10541  27.150  27.568  12.024
38227W        W10542   9.687   2.746   1.225
38228W        W10543  29.120  37.408   4.770
38229W        W10544   1.452  40.817   3.840
38230W        W10545  12.846  14.174   3.720
38231W        W10546  31.603  39.328   4.819
38232W        W10547  41.970   3.217   5.193
38233W        W10548  21.725   7.177   3.828
38234W        W10549  22.592  34.531   0.861
38235W        W10550  36.013  36.400  14.911
38236W        W10551  26.535  26.079  11.404
38237W        W10552   0.890   8.270  14.844
38238W        W10553  39.891  37.343  12.870
38239W        W10554  10.293  20.074   3.221
38240W        W10555   3.351  27.615  13.047
38241W        W10556   0.429  31.139   3.249
38242W        W10557  15.111  18.558   0.273
38243W        W10558  27.169  11.868  10.906
38244W        W10559  28.182  27.103  11.012
38245W        W10560   3.442  11.707  13.900
38246W        W10561  31.446  31.973  14.864
38247W        W10562  11.142  15.810   0.457
38248W        W10563  43.338  33.583  11.994
38249W        W10564  10.766  28.103   0.752
38250W        W10565  36.421  31.959  13.413
38251W        W10566  22.025  43.296  12.941
38252W        W10567  33.539  22.586   1.237
38253W        W10568  43.473  33.623  11.111
38254W        W10569  37.081  22.722  14.032
38255W        W10570  27.478   1.945   2.330
38256W        W10571  26.055  32.002   3.346
38257W        W10572  23.115  37.338  12.903
38258W        W10573  22.141   3.934   3.651
38259W        W10574  20.234   2.411   3.244
38260W        W10575  10.166   7.331   3.273
38261W        W10576  42.310  18.643  13.428
38262W        W10577   7.363  25.545   3.370
38263W        W10578   4.441   0.838   1.849
38264W        W10579  19.675  15.127  12.384
38265W        W10580  32.924  27.167  13.446
38266W        W10581  37.555  41.861   0.853
38267W        W10582  13.629  37.497  10.433
38268W        W10583  35.034   9.731   2.200
38269W        W10584   7.839  20.701   3.779
38270W        W10585  11.781  43.471  11.470
38271W        W10586   0.882  25.098  12.372
38272W        W10587  19.104  34.943  12.826
38273W        W10588  30.911  10.229   4.213
38274W        W10589  44.918   5.360  14.962
38275W        W10590  14.635  43.316  14.915
38276W        W10591  44.435  36.028  14.443
38277W        W10592  28.488  10.173  11.057
38278W        W10593  11.348  28.135   3.167
38279W        W10594  39.917  23.535   5.276
38280W        W10595  23.622  21.685  10.158
38281W        W10596  26.591  12.125   2.805
38282W        W10597  37.954  34.586   1.933
38283W        W10598  15.652   5.801   9.967
38284W        W10599  17.303  18.115  13.407
38285W        W10600  35.405  34.053  12.014
38286W        W10601  13.151  25.000   5.113
38287W        W10602  35.539  11.719  14.000
38288W        W10603  12.262  13.637   4.308
38289W        W10604  22.590   8.721   0.884
38290W        W10605   6.419  28.135  10.944
38291W        W10606  19.571  43.986   2.213
38292W        W10607  25.117  26.500  13.991
38293W        W10608   6.354   5.347   4.227
38294W        W10609   8.759  31.529  14.450
38295W        W10610  30.461   8.219  13.834
38296W        W10611  16.211  35.401  12.853
38297W        W10612  12.694   9.371  12.838
38298W        W10613  23.654  28.677   4.209
38299W        W10614  38.020  18.643   2.870
38300W        W10615  14.661   8.265  10.913
38301W        W10616  10.712  39.320   0.862
38302W        W10617   7.706  15.746   4.612
38303W        W10618   7.775  42.815   4.803
38304W        W10619  32.901   4.240  12.043
38305W        W10620  43.822  40.331  13.814
38306W        W10621   8.827  13.326   4.656
38307W        W10622  19.618  19.708  10.914
38308W        W10623   1.938  31.012  14.489
38309W        W10624  11.341   9.153  11.990
38310W        W10625  13.608  14.144  10.916
38311W        W10626   3.217  11.795  12.530
38312W        W10627  10.234  26.161  12.853
38313W        W10628   1.354   9.355  13.972
38314W        W10629  35.434  36.429   2.877
38315W        W10630  39.925  25.171   0.301
38316W        W10631  28.576  33.902  11.101
38317W        W10632  16.613  41.893   4.674
38318W        W10633  33.432  10.270  14.773
38319W        W10634  41.802  38.840   3.226
38320W        W10635  13.295   7.325   0.866
38321W        W10636  16.301  23.001   2.404
38322W        W10637  37.909  36.583  10.509
38323W        W10638  10.235  36.562  10.970
38324W        W10639  24.677   2.249  13.815
38325W        W10640  12.819  11.664  11.403
38326W        W10641  39.449  34.414  12.049
38327W        W10642   6.289  16.656   2.667
38328W        W10643   2.353  41.531   0.889
38329W        W10644   2.933   5.246  13.901
38330W        W10645  41.312  28.975  12.456
38331W        W10646  15.225  26.955   0.944
38332W        W10647  18.070  14.592  10.983
38333W        W10648  17.126  31.067   0.413
38334W        W10649  39.374  26.599   1.739
38335W        W10650  18.572  12.785  13.477
38336W        W10651   9.829  31.581  14.931
38337W        W10652  31.648  25.021  10.616
38338W        W10653  27.047  38.457  12.396
38339W        W10654  42.411  21.090  11.503
38340W        W10655  27.039  28.092  14.488
38341W        W10656  12.358   4.765  12.503
38342W        W10657  24.533  32.515  11.872
38343W        W10658  10.230  17.621   1.872
38344W        W10659  17.747  34.433  11.880
38345W        W10660  10.843  19.258  10.995
38346W        W10661   9.222   3.825   0.835
38347W        W10662  44.832  25.140   1.352
38348W        W10663  13.244   2.292  13.372
38349W        W10664   2.347   9.686  10.560
38350W        W10665  40.959  18.647   0.797
38351W        W10666   7.739  26.504  14.911
38352W        W10667  14.827  40.335  11.909
38353W        W10668  13.201  15.310   0.912
38354W        W10669  21.159  10.753   2.689
38355W        W10670  21.242  35.459   2.764
38356W        W10671   0.988  34.899   3.755
38357W        W10672  16.577   1.750   3.775
38358W        W10673   9.232   4.786  14.914
38359W        W10674  18.689   3.772   2.821
38360W        W10675  22.183  23.995   4.327
38361W        W10676  12.203  18.740   4.139
38362W        W10677  20.210   6.243  13.006
38363W        W10678  10.361  17.104   4.658
38364W        W10679  23.061  22.541   3.246
38365W        W10680  24.132  36.080   4.631
38366W        W10681   8.833  24.168   4.684
38367W        W10682   5.406   2.904  12.371
38368W        W10683  36.552  44.432   2.731
38369W        W10684  37.912  37.016  12.967
38370W        W10685   0.461  40.825  12.492
38371W        W10686  27.994  17.097  10.614
38372W        W10687  42.496  40.413  12.415
38373W        W10688   7.383   9.308   4.698
38374W        W10689  42.777  29.572  14.425
38375W        W10690   7.789   1.765   0.769
38376W        W10691   3.249  14.101  14.971
38377W        W10692  20.029   7.333   2.708
38378W        W10693  28.547  44.448  12.902
38379W        W10694  37.431  43.894  13.805
38380W        W10695  44.826   4.715   1.323
38381W        W10696  18.762  24.611  12.477
38382W        W10697   9.182  36.983  13.390
38383W        W10698  30.642  23.043  10.615
38384W        W10699   1.348  25.474  13.870
38385W        W10700  22.078   3.862  14.500
38386W        W10701  31.470  30.588   4.167
38387W        W10702  23.004   9.862  12.833
38388W        W10703  36.557  19.123   4.201
38389W        W10704  30.506  11.356  13.984
38390W        W10705   1.956  30.008   0.416
38391W        W10706   8.757   0.414  13.796
38392W        W10707  19.041  23.044  11.397
38393W        W10708  11.137   3.340  14.344
38394W        W10709  29.045   0.308  13.359
38395W        W10710  21.079  41.847  12.846
38396W        W10711  28.452  34.529   2.376
38397W        W10712  31.447  30.619   1.867
38398W        W10713  36.537   8.244  12.442
38399W        W10714   4.807   9.847  13.813
38400W        W10715  33.390   9.348  11.608
38401W        W10716  22.561  25.485   9.971
38402W        W10717  41.484  10.847   1.893
38403W        W10718  42.814  26.185   0.820
38404W        W10719  11.822  38.076   4.270
38405W        W10720   8.845  28.964   3.296
38406W        W10721  31.573  40.359  11.967
38407W        W10722  26.558  39.886  10.929
38408W        W10723  25.584  44.425   3.288
38409W        W10724   2.932  24.603   4.205
38410W        W10725  10.793  15.812   2.363
38411W        W10726   7.843  17.758   0.469
38412W        W10727   2.335  18.750  13.037
38413W        W10728   2.436  10.160   0.442
38414W        W10729  20.766  14.155   1.299
38415W        W10730   7.184   7.187   0.474
38416W        W10731  41.028  23.191  12.066
38417W        W10732  19.150  43.440   1.431
38418W        W10733  20.234   3.223   0.479
38419W        W10734  41.426  23.665   0.265
38420W        W10735  44.852  10.807  13.546
38421W        W10736  17.569  11.656   3.314
38422W        W10737  23.124   4.364  13.338
38423W        W10738  30.620   6.234   2.747
38424W        W10739  19.095  22.247   3.759
38425W        W10740  10.758  27.612   2.793
38426W        W10741  12.642  26.613  14.948
38427W        W10742  44.411  39.322  12.850
38428W        W10743  39.990  44.476  14.975
38429W        W10744   8.252   3.868   0.754
38430W        W10745   6.278  23.604   0.271
38431W        W10746   8.773  32.131   1.280
38432W        W10747  28.934  24.544  11.562
38433W        W10748   4.266  25.563   4.292
38434W        W10749  19.172  41.411   1.908
38435W        W10750  26.002  26.038   0.457
38436W        W10751   7.755  25.714   1.889
38437W        W10752  25.693  11.292   0.889
38438W        W10753   8.160  42.328  12.463
38439W        W10754  34.041  19.110  11.122
38440W        W10755   3.308  28.174   1.917
38441W        W10756  39.017  44.261  13.492
38442W        W10757  32.397  31.063  13.039
38443W        W10758  43.307   5.716   0.409
38444W        W10759   1.866  23.697  13.906
38445W        W10760  20.043   2.857  12.571
38446W        W10761  28.077  28.608   0.813
38447W        W10762   3.359  26.460  14.444
38448W        W10763   4.384  25.470   1.897
38449W        W10764  19.685  10.175  12.437
38450W        W10765  17.745  35.599   1.857
38451W        W10766   8.196  25.645  14.479
38452W        W10767  37.581  25.669  14.320
38453W        W10768  14.197  15.646  12.845
38454W        W10769   3.419   4.742  11.432
38455W        W10770  21.040  15.243   0.843
38456W        W10771  23.637   2.304   3.259
38457W        W10772  41.008  41.952   3.297
38458W        W10773  14.813   4.408  10.594
38459W        W10774  40.047  22.191   4.306
38460W        W10775  42.283   2.301   2.761
38461W        W10776  28.680  43.284  13.812
38462W        W10777  44.432  27.115  12.540
38463W        W10778  18.295  10.746   0.952
38464W        W10779  29.065  34.924   0.848
38465W        W10780  32.630  21.559   2.861
38466W        W10781  33.897  33.536   1.726
38467W        W10782  40.343   5.270  13.393
38468W        W10783  27.534  30.584   4.236
38469W        W10784  38.032  17.270   3.145
38470W        W10785   5.234  21.658  11.930
38471W        W10786  21.158  22.162   2.362
38472W        W10787   5.694  19.725  13.029
38473W        W10788  25.694  28.541   2.688
38474W        W10789  12.734  14.770   3.726
38475W        W10790  19.111  34.439   0.344
38476W        W10791   4.913  41.020  11.376
38477W        W10792  11.127   5.421  13.903
38478W        W10793  44.981  43.368   2.257
38479W        W10794   3.256  32.024   2.788
38480W        W10795  21.637   2.861   3.210
38481W        W10796   0.255  27.966   4.610
38482W        W10797  28.571  28.998  10.629
38483W        W10798  17.659  19.079  12.417
38484W        W10799  37.905   5.387  11.002
38485W        W10800   9.647  25.105  10.614
38486W        W10801  41.907   7.726   1.422
38487W        W10802   6.791  21.615   3.268
38488W        W10803  32.636  29.549   0.805
38489W        W10804  25.967  34.976   2.389
38490W        W10805  36.441   3.358   2.690
38491W        W10806   8.678  14.250  13.939
38492W        W10807  36.023   8.722  13.802
38493W        W10808   4.845  37.405  13.839
38494W        W10809  43.826  43.481  14.981
38495W        W10810  22.692  43.401   4.215
38496W        W10811   2.313  33.495   3.696
38497W        W10812  22.015  20.712   1.342
38498W        W10813  27.557   0.875  11.479
38499W        W10814  17.072  31.914   1.845
38500W        W10815  43.983  27.644   4.165
38501W        W10816  42.506  26.125  12.383
38502W        W10817  19.049  26.563  11.876
38503W        W10818   1.339  35.857   0.303
38504W        W10819  23.695  24.034  14.338
38505W        W10820  18.557  26.702  11.913
38506W        W10821  25.155  38.387  10.464
38507W        W10822  28.491  18.628  10.958
38508W        W10823  25.016  40.317  11.051
38509W        W10824  38.481  41.925  13.398
38510W        W10825  31.909  36.863  12.563
38511W        W10826  32.591   9.303  12.858
38512W        W10827  15.182  34.099  13.973
38513W        W10828  16.589  27.597  14.893
38514W        W10829  33.961  43.399   0.812
38515W        W10830  21.045  13.648  13.313
38516W        W10831  10.706   9.207  13.526
38517W        W10832  26.636   6.708   4.203
38518W        W10833   1.793  15.197   2.834
38519W        W10834   6.856  12.735  14.429
38520W        W10835  37.072  29.084  11.583
38521W        W10836   4.765  32.899   0.394
38522W        W10837  35.365  12.702   4.830
38523W        W10838   2.792  20.072   0.312
38524W        W10839  38.028  22.109   3.215
38525W        W10840  37.493  35.601   3.364
38526W        W10841  36.036  21.045   0.304
38527W        W10842  17.203   4.423   3.279
38528W        W10843  41.323  25.021   1.917
38529W        W10844  36.896  42.380   2.783
38530W        W10845  39.360  23.617   0.353
38531W        W10846   9.671  38.566   2.802
38532W        W10847   2.941  11.346   4.318
38533W        W10848  13.823   0.745   2.378
38534W        W10849   9.369  40.470  12.002
38535W        W10850  19.760  31.125  13.481
38536W        W10851  29.009  35.519   3.173
38537W        W10852  44.938  26.988  10.919
38538W        W10853  35.063   0.317   1.273
38539W        W10854  31.478  13.712   3.160
38540W        W10855  28.453   4.786  12.510
38541W        W10856  10.715  28.645   1.839
38542W        W10857  19.078   2.859   0.818
38543W        W10858   7.883  24.619   4.284
38544W        W10859  29.929  22.729   1.756
38545W        W10860  38.362  38.063   1.733
38546W        W10861  36.419  23.579  12.978
38547W        W10862  41.954  44.299   0.844
38548W        W10863  42.909  36.400   4.602
38549W        W10864  27.514  42.382  13.853
38550W        W10865  40.889  37.021  11.909
38551W        W10866  10.677  21.120   2.322
38552W        W10867  20.135  34.939   2.264
38553W        W10868   8.807  36.034  12.935
38554W        W10869  16.721  36.427  14.319
38555W        W10870  22.029  33.497   1.308
38556W        W10871   1.878  19.261  12.040
38557W        W10872  26.158  38.427   0.324
38558W        W10873  42.006  27.171  13.819
38559W        W10874   3.336  27.151   0.459
38560W        W10875  23.502   1.250  10.582
38561W        W10876  40.369  37.926   4.814
38562W        W10877   7.276  28.955   0.844
38563W        W10878   7.281  36.052   1.245
38564W        W10879   4.800  34.113  10.570
38565W        W10880  31.088  25.655   1.239
38566W        W10881  27.131   4.409   5.093
38567W        W10882   6.220  16.309  12.845
38568W        W10883  23.595   2.928   0.878
38569W        W10884  24.984  15.719  10.407
38570W        W10885   7.185  38.436   0.775
38571W        W10886  31.142  12.328  12.014
38572W        W10887  22.226  37.411   1.428
38573W        W10888  11.644  13.122   4.253
38574W        W10889  32.424  32.423   4.115
38575W        W10890  33.511   0.971   5.207
38576W        W10891   0.787  15.705   0.755
38577W        W10892   0.324  35.559  13.409
38578W        W10893  23.523   1.427  11.528
38579W        W10894   9.809  21.714   1.713
38580W        W10895  40.052   8.759   1.923
38581W        W10896  18.750  12.693   4.633
38582W        W10897   4.798  25.201   3.306
38583W        W10898  16.800  36.030  13.477
38584W        W10899  11.302  19.669   2.346
38585W        W10900  32.991  44.843  14.454
38586W        W10901  32.994  33.592  10.625
38587W        W10902  39.051  19.223  10.612
38588W        W10903  40.049  31.641   4.292
38589W        W10904  26.618  25.078  13.313
38590W        W10905   2.953   1.861   1.447
38591W        W10906  25.530  40.476  14.015
38592W        W10907   6.681  12.314  13.873
38593W        W10908  25.549  40.330   4.115
38594W        W10909  18.130  24.979   2.348
38595W        W10910  32.609  29.531   1.857
38596W        W10911  39.973  20.273  11.866
38597W        W10912  11.828  27.485   2.353
38598W        W10913  30.593  39.055  14.784
38599W        W10914  25.473  43.978   4.728
38600W        W10915  14.155  16.614  11.449
38601W        W10916   5.313   4.859   2.278
38602W        W10917  33.052  16.753   4.631
38603W        W10918  33.093  40.045  14.357
38604W        W10919  43.885  27.196   3.639
38605W        W10920  25.619  17.115   4.614
38606W        W10921   4.784  25.684   2.758
38607W        W10922  12.742  15.708   5.093
38608W        W10923  18.637  13.124  11.584
38609W        W10924  32.414   4.407   3.239
38610W        W10925  26.491   5.280   0.911
38611W        W10926  10.632  13.675   1.770
38612W        W10927   5.770  31.982  13.863
38613W        W10928  11.297  37.503  11.063
38614W        W10929   7.890  26.530  13.471
38615W        W10930  11.359  16.790   0.787
38616W        W10931  33.099  10.332  13.325
38617W        W10932  42.008  26.152  13.041
38618W        W10933  37.355   7.261  12.372
38619W        W10934  25.136  13.717   4.634
38620W        W10935  11.816  27.972   0.866
38621W        W10936   5.902  31.405   0.480
38622W        W10937  37.917  23.544   2.189
38623W        W10938   3.233  35.069   3.374
38624W        W10939   1.871  43.890  13.365
38625W        W10940  34.575  29.486   3.667
38626W        W10941   4.935  35.420   2.402
38627W        W10942  33.033  22.162   0.779
38628W        W10943  32.417   4.370   4.644
38629W        W10944  18.599  18.227   1.441
38630W        W10945  27.079   8.877   2.808
38631W        W10946  26.485  21.554  13.544
38632W        W10947  12.337  10.779   1.888
38633W        W10948  11.363  15.747   1.882
38634W        W10949   3.811  11.675  13.858
38635W        W10950  37.969   3.408  13.971
38636W        W10951  25.997  35.903  14.326
38637W        W10952  12.159  16.757   3.290
38638W        W10953  26.199  27.091  14.344
38639W        W10954  18.220  11.277   1.253
38640W        W10955  31.971  18.580  12.003
38641W        W10956   5.691  11.239   4.669
38642W        W10957   2.434  17.227  12.942
38643W        W10958   8.381  41.856   1.907
38644W        W10959  33.959  18.107   3.328
38645W        W10960  11.235  20.758   1.750
38646W        W10961  33.413  42.783  10.539
38647W        W10962  35.893  24.989  11.036
38648W        W10963  31.499  24.551   1.772
38649W        W10964  10.812  35.882   2.378
38650W        W10965  13.845  31.438  13.372
38651W        W10966  20.545  30.479  12.369
38652W        W10967  27.560  43.952   1.816
38653W        W10968   4.428  16.759  13.043
38654W        W10969  38.346  38.417  13.001
38655W        W10970  37.833  23.219  13.846
38656W        W10971  35.864  44.977  13.320
38657W        W10972  38.864   6.207  12.904
38658W        W10973  38.015  34.390  13.368
38659W        W10974  43.346   3.947   2.893
38660W        W10975  20.244   0.780  12.383
38661W        W10976  32.914  26.610  12.472
38662W        W10977  35.991   4.325  12.923
38663W        W10978  18.231  23.638  13.447
38664W        W10979  39.993   8.392   3.338
38665W        W10980  15.186   0.338  10.996
38666W        W10981  11.758  24.117  12.554
38667W        W10982  17.177  16.754  12.844
38668W        W10983  42.320  39.868  14.502
38669W        W10984  44.764  13.686  13.490
38670W        W10985   7.670  12.352   2.288
38671W        W10986   5.207  25.963  11.407
38672W        W10987   6.746  42.983   2.825
38673W        W10988  16.601  34.877   1.925
38674W        W10989  25.112  29.015   3.727
38675W        W10990  27.186  36.516  14.799
38676W        W10991  31.500  19.709  14.312
38677W        W10992  36.346  21.574   1.733
38678W        W10993  34.020  18.697  13.004
38679W        W10994  19.751  11.150   1.327
38680W        W10995   0.886  10.687   4.253
38681W        W10996  30.119  32.575  13.997
38682W        W10997   6.716  19.736   1.325
38683W        W10998  32.964   1.406  11.858
38684W        W10999   0.400  19.247   2.762
38685W        W11000  36.955  29.083   2.747
38686W        W11001  26.488   1.282  14.512
38687W        W11002  23.025  13.730  11.536
38688W        W11003  12.339  13.153   0.931
38689W        W11004  44.960  16.696   4.137
38690W        W11005   6.308  32.478   4.274
38691W        W11006  40.998  13.310  14.479
38692W        W11007  23.206  17.075   1.296
38693W        W11008  26.010  37.860   4.122
38694W        W11009  40.890  36.047   0.318
38695W        W11010  37.850  19.610   1.384
38696W        W11011  29.114  40.850   4.642
38697W        W11012  38.478  40.888  14.820
38698W        W11013   5.808  40.845   2.876
38699W        W11014  42.880  20.533  14.881
38700W        W11015  20.248  28.443   1.407
38701W        W11016  15.763  40.448  10.547
38702W        W11017   8.266  37.962  11.454
38703W        W11018  30.460   4.411  12.539
38704W        W11019  40.912  38.038  14.468
38705W        W11020  39.981  34.474   4.296
38706W        W11021  19.733  29.016  12.545
38707W        W11022  23.081  34.448   3.386
38708W        W11023  31.632  23.018  14.501
38709W        W11024  23.163  34.417  10.943
38710W        W11025  29.616   7.276   3.780
38711W        W11026  31.919  20.208  13.462
38712W        W11027  16.255  22.175   0.939
38713W        W11028  32.125  27.024   1.270
38714W        W11029  20.557  37.023   3.218
38715W        W11030   6.866   2.731   3.385
38716W        W11031  10.812  27.107   0.939
38717W        W11032  39.881  37.015   4.647
38718W        W11033  36.051  18.238  10.889
38719W        W11034  20.661  24.186  12.847
38720W        W11035  17.728  34.415   2.834
38721W        W11036  33.412  10.193   2.293
38722W        W11037  13.841  15.248  13.398
38723W        W11038  35.045  27.579  10.432
38724W        W11039  28.122  29.020  12.340
38725W        W11040  37.001  34.569  11.993
38726W        W11041  29.171  11.284   4.282
38727W        W11042  32.574  44.833   1.341
38728W        W11043  13.260  43.367  12.978
38729W        W11044  26.698  26.009   0.802
38730W        W11045  36.004  32.066  13.339
38731W        W11046   6.323  31.063   4.281
38732W        W11047  38.338   9.233   4.667
38733W        W11048   8.753   1.801  14.423
38734W        W11049  23.221  37.850   2.334
38735W        W11050  11.192  33.899  13.339
38736W        W11051  31.522  13.816  13.941
38737W        W11052  41.402  16.197  13.388
38738W        W11053  27.962  33.496  13.904
38739W        W11054  37.850  28.131  13.400
38740W        W11055  10.319  35.044  12.007
38741W        W11056   0.364  40.953  11.119
38742W        W11057  30.131  29.947  14.463
38743W        W11058  41.985   0.937   4.805
38744W        W11059  34.050  31.629  12.007
38745W        W11060  23.639  37.040  12.037
38746W        W11061   5.394  13.830  11.028
38747W        W11062  39.405  15.141   1.885
38748W        W11063  24.021  38.861   0.944
38749W        W11064  39.027   0.345   0.415
38750W        W11065   0.391  37.904   3.285
38751W        W11066  43.867  16.804  13.398
38752W        W11067  43.343  42.863  12.985
38753W        W11068  23.234  29.502   3.222
38754W        W11069   3.314  40.014  12.045
38755W        W11070  37.890  36.999  12.058
38756W        W11071   8.765  29.135  12.401
38757W        W11072   9.800  29.539   4.732
38758W        W11073  15.310  26.688  13.917
38759W        W11074  42.338  11.289  11.935
38760W        W11075  37.473  22.508  12.530
38761W        W11076  30.554  22.666  11.539
38762W        W11077  43.824  21.626   1.387
38763W        W11078  31.908  11.698   1.298
38764W        W11079  20.049  30.519   9.937
38765W        W11080  42.837  17.175  14.942
38766W        W11081  24.520   5.198   2.777
38767W        W11082  39.364  38.026   3.239
38768W        W11083  15.679  35.399   4.680
38769W        W11084  37.392  15.748   4.309
38770W        W11085  25.211   8.266   1.402
38771W        W11086  20.173   2.237   3.760
38772W        W11087   1.372  37.957   4.331
38773W        W11088   2.237  11.659   4.703
38774W        W11089   4.337  13.615  10.599
38775W        W11090  13.756  25.515  12.528
38776W        W11091  30.570  35.876   4.304
38777W        W11092  30.914  29.029  12.407
38778W        W11093  16.285  27.489   3.806
38779W        W11094  25.472  29.158   0.943
38780W        W11095  30.473  21.758   1.788
38781W        W11096  15.144  14.747  14.890
38782W        W11097   4.913  10.715  13.908
38783W        W11098  27.058  25.200  12.451
38784W        W11099  29.553  20.729  12.979
38785W        W11100  12.133  41.005   3.314
38786W        W11101  31.009  18.086   3.744
38787W        W11102   5.727  38.540   2.823
38788W        W11103  10.699  17.129   3.787
38789W        W11104  14.694  43.930   2.416
38790W        W11105   0.828  19.601   5.295
38791W        W11106  36.954  11.830  12.365
38792W        W11107  38.976  18.645  12.048
38793W        W11108  39.554  20.765   0.460
38794W        W11109  12.810  24.601   0.932
38795W        W11110   7.362  29.973   2.294
38796W        W11111   0.398  14.768  14.485
38797W        W11112  17.738  26.162   4.175
38798W        W11113  12.712  29.067   0.827
38799W        W11114  18.713   8.777   2.852
38800W        W11115   2.405  30.463  12.921
38801W        W11116  10.271  33.489   0.422
38802W        W11117  33.932  44.957   4.211
38803W        W11118  22.062   1.977  11.124
38804W        W11119  43.807  28.558  13.952
38805W        W11120  15.819  36.010   2.781
38806W        W11121   8.338  22.630   4.728
38807W        W11122  25.650  42.387  10.511
38808W        W11123  32.120  25.691   1.897
38809W        W11124  14.608   5.334  14.881
38810W        W11125  15.264  22.128   4.775
38811W        W11126  42.525  44.353  14.491
38812W        W11127  18.732  35.963  11.467
38813W        W11128  14.615   5.219  12.879
38814W        W11129  10.801   1.950   5.268
38815W        W11130  24.588  16.245   4.225
38816W        W11131  28.605  30.555  11.600
38817W        W11132  19.542  28.436  13.343
38818W        W11133   5.330  10.732  14.970
38819W        W11134  39.018  29.166  10.945
38820W        W11135   5.436  37.580   4.721
38821W        W11136  21.535  39.544   1.722
38822W        W11137  39.559   5.767  14.941
38823W        W11138  30.137  26.074   4.655
38824W        W11139  32.985  20.230   2.277
38825W        W11140  39.413  15.794   3.256
38826W        W11141  25.144  37.853   4.618
38827W        W11142  33.386  21.102  12.417
38828W        W11143   0.256  34.048   1.380
38829W        W11144  34.999   2.860  14.348
38830W        W11145  30.117  42.963  11.910
38831W        W11146  44.454  27.177  12.929
38832W        W11147  21.193  44.757   2.840
38833W        W11148  14.312  19.257  11.447
38834W        W11149  44.366  28.625   0.451
38835W        W11150  39.822  36.023  11.916
38836W        W11151  22.014  25.480   1.732
38837W        W11152  11.697  22.589  10.519
38838W        W11153   3.427  10.817  12.892
38839W        W11154  19.566  31.642   3.152
38840W        W11155  33.925  19.242  14.343
38841W        W11156  42.479  26.540  10.560
38842W        W11157  39.505  27.489   1.712
38843W        W11158  26.986  25.038   0.738
38844W        W11159  40.401  34.002  14.382
38845W        W11160  44.309  22.502  13.046
38846W        W11161   3.711  24.108   3.324
38847W        W11162  18.707  22.130   0.426
38848W        W11163  40.339  28.473   4.346
38849W        W11164   6.830  30.654  10.950
38850W        W11165  35.459  10.727   4.186
38851W        W11166  15.329  34.095   0.299
38852W        W11167  21.518   5.398   2.290
38853W        W11168  25.127  38.527  11.947
38854W        W11169   6.192  11.226  11.091
38855W        W11170  15.090   3.832   0.383
38856W        W11171   2.768   7.366   0.931
38857W        W11172  20.141  13.635   4.814
38858W        W11173  32.512  44.321  13.953
38859W        W11174   5.705   8.250   2.363
38860W        W11175  44.860  40.544   0.929
38861W        W11176  40.914  10.203   2.247
38862W        W11177  35.423  24.010   4.300
38863W        W11178  32.892  40.923   4.201
38864W        W11179   2.294  23.084  10.940
38865W        W11180  36.019  29.483   4.793
38866W        W11181  39.470  29.532   1.815
38867W        W11182   3.896  26.548  13.427
38868W        W11183  36.927  19.110  12.868
38869W        W11184  24.567  18.146  13.005
38870W        W11185   6.803   7.843  13.834
38871W        W11186  32.906   3.457   4.662
38872W        W11187  12.771  13.803  14.801
38873W        W11188   3.955  21.167  10.933
38874W        W11189  34.903  25.078  12.978
38875W        W11190  15.644  23.547  14.333
38876W        W11191  33.525  19.636  10.074
38877W        W11192  32.400  29.625   2.299
38878W        W11193  13.124  28.023   0.429
38879W        W11194  27.167  33.507  14.285
38880W        W11195  43.460  25.500  11.486
38881W        W11196  11.659  36.916  10.536
38882W        W11197  10.641  25.473   0.761
38883W        W11198  19.635  37.057  14.504
38884W        W11199  27.035  44.474  10.593
38885W        W11200  20.652  37.963  10.490
38886W        W11201  19.636  22.158   3.748
38887W        W11202   0.797  18.139   0.281
38888W        W11203   8.875  24.176  13.053
38889W        W11204  39.425   6.305   0.356
38890W        W11205  14.781  18.770  14.430
38891W        W11206  31.957  12.689   0.455
38892W        W11207  42.928   7.188  11.537
38893W        W11208  17.071   0.463  14.309
38894W        W11209  14.673  14.693  11.523
38895W        W11210  28.495  28.644   3.681
38896W        W11211  11.132  11.860  11.917
38897W        W11212  12.697  41.382  11.887
38898W        W11213  15.232  42.884   2.294
38899W        W11214  22.657  10.696   4.187
38900W        W11215   5.757   5.921   1.282
38901W        W11216   4.833  31.618  12.455
38902W        W11217  20.719  15.747   5.143
38903W        W11218  17.145  34.615   4.732
38904W        W11219  15.701  41.340  13.440
38905W        W11220  26.076  44.439   2.194
38906W        W11221   1.841  17.693  10.428
38907W        W11222   9.787  15.269  12.402
38908W        W11223  11.721  13.123  13.892
38909W        W11224   1.861   0.382  10.552
38910W        W11225  33.583  28.126  13.965
38911W        W11226  40.393  13.192   0.451
38912W        W11227   7.864  11.155   2.281
38913W        W11228  42.030  19.620   0.439
38914W        W11229  26.118  18.105  12.093
38915W        W11230  16.126  13.683   2.900
38916W        W11231  23.177  22.241   9.631
38917W        W11232   9.872  24.184  12.982
38918W        W11233  28.172  11.694   3.310
38919W        W11234  18.661   3.268   2.377
38920W        W11235  43.908  28.617   1.260
38921W        W11236  10.142  17.184  11.097
38922W        W11237  28.514  40.911  10.906
38923W        W11238   5.382  11.625  10.601
38924W        W11239  37.408  31.111   0.959
38925W        W11240  20.720  18.681   1.288
38926W        W11241  16.730  14.694  10.429
38927W        W11242  18.589   7.278   2.192
38928W        W11243  27.660  28.082  11.082
38929W        W11244  25.016  18.194   4.723
38930W        W11245  35.502  21.078   1.735
38931W        W11246  13.787  30.435   3.805
38932W        W11247  41.510  30.619  12.000
38933W        W11248  28.544   7.241  11.026
38934W        W11249  35.604  12.362   2.883
38935W        W11250  22.022  23.230   1.320
38936W        W11251  26.634  29.144  10.017
38937W        W11252  15.180   1.775   0.251
38938W        W11253  21.546  39.893  14.359
38939W        W11254  37.452  20.556  10.457
38940W        W11255  13.310  26.047  12.917
38941W        W11256  40.377  18.246   3.650
38942W        W11257  43.275   8.161   0.807
38943W        W11258   0.794  28.641   3.770
38944W        W11259  11.311  13.686  14.855
38945W        W11260  29.481  30.914   2.720
38946W        W11261  35.028  26.997  14.954
38947W        W11262  36.057  33.588  11.527
38948W        W11263  11.787   9.369  12.939
38949W        W11264  42.332  27.537   1.310
38950W        W11265   6.881   7.326  13.541
38951W        W11266   9.223  40.523  13.396
38952W        W11267  44.474  31.423  10.131
38953W        W11268  18.050   5.831   0.347
38954W        W11269   3.720   8.846   2.826
38955W        W11270  28.947  21.022  13.846
38956W        W11271  12.269  18.746   0.907
38957W        W11272  17.583  25.035  11.577
38958W        W11273  35.853   7.887   4.255
38959W        W11274  32.077  38.918   3.679
38960W        W11275   1.789   0.886   0.732
38961W        W11276  37.831  36.378   1.398
38962W        W11277  33.876   1.382   1.432
38963W        W11278  12.244  29.176  13.821
38964W        W11279  20.034  15.624  10.064
38965W        W11280  17.301  43.913  14.959
38966W        W11281  44.769  24.063  13.796
38967W        W11282   7.222  36.958  12.078
38968W        W11283  22.627   8.329   0.800
38969W        W11284   9.850  44.884  14.505
38970W        W11285   7.210  32.920  14.872
38971W        W11286  39.954   4.890   0.430
38972W        W11287  30.152  30.085   2.881
38973W        W11288  37.531  14.832   0.949
38974W        W11289  18.630   1.874  14.979
38975W        W11290   2.426   8.248   0.289
38976W        W11291  36.424  24.632   2.807
38977W        W11292  25.175  36.490   5.115
38978W        W11293  33.557   1.439  14.343
38979W        W11294  25.207  15.638   1.292
38980W        W11295  38.351   5.826   3.812
38981W        W11296   1.809  44.005   2.862
38982W        W11297  15.627   3.749   0.867
38983W        W11298   0.960  38.405  14.840
38984W        W11299  42.451  13.333  12.902
38985W        W11300  10.757  33.615  12.850
38986W        W11301  12.854  12.703  14.916
38987W        W11302  12.353  19.083  11.950
38988W        W11303  39.918  11.837   3.229
38989W        W11304  17.204  10.147   4.224
38990W        W11305   1.947  21.729   2.874
38991W        W11306  17.283  20.061  14.993
38992W        W11307  33.517  19.206   2.209
38993W        W11308  39.934  15.724   4.821
38994W        W11309  38.481  44.940  12.028
38995W        W11310  26.539  21.711  12.345
38996W        W11311  35.589  20.253   2.783
38997W        W11312  36.868  29.664  13.056
38998W        W11313   5.692   5.400   3.349
38999W        W11314  38.453  22.184  13.467
39000W        W11315  34.397   9.701  13.333
39001W        W11316  15.125  38.050   0.786
39002W        W11317  24.100  16.196  11.070
39003W        W11318  29.517  23.178   4.314
39004W        W11319  11.794  25.048   3.744
39005W        W11320  42.493   0.464  11.569
39006W        W11321  44.279  37.898   4.182
39007W        W11322  27.531  10.267   0.285
39008W        W11323  12.849  11.279  10.582
39009W        W11324  26.984  20.550   1.213
39010W        W11325   9.308  25.552   1.352
39011W        W11326  42.796  39.445  12.071
39012W        W11327  18.615  17.763   3.807
39013W        W11328  36.944  19.626  10.462
39014W        W11329  17.115  29.062   2.838
39015W        W11330   6.375  40.431   0.458
39016W        W11331  20.751  21.581  14.458
39017W        W11332  14.316   5.862   1.744
39018W        W11333  29.490  31.088  14.412
39019W        W11334  24.543  29.033   3.334
39020W        W11335  28.959  23.498  12.850
39021W        W11336  44.794   3.385   3.270
39022W        W11337  13.199  42.843   4.119
39023W        W11338  11.780  16.726   2.339
39024W        W11339  43.482  29.938  12.021
39025W        W11340  12.309  30.452  14.858
39026W        W11341   4.343  25.644  10.917
39027W        W11342   1.835  23.497   2.198
39028W        W11343  20.204  41.485  12.940
39029W        W11344  15.720   1.325   2.726
39030W        W11345  42.909  41.028  13.446
39031W        W11346   3.406  12.644   0.292
39032W        W11347  25.683  31.899  11.956
39033W        W11348  11.675  34.011   2.286
39034W        W11349   1.249   5.810   1.296
39035W        W11350  43.457  41.438   2.285
39036W        W11351   7.799  43.369   1.383
39037W        W11352  34.421  30.116  12.033
39038W        W11353   4.215   9.710  10.499
39039W        W11354  31.034  35.535  13.351
39040W        W11355  34.377  37.572  14.967
39041W        W11356   5.291  15.668  11.897
39042W        W11357   7.324  30.916  10.469
39043W        W11358  36.875  26.101   3.824
39044W        W11359  40.418  11.200  13.985
39045W        W11360  21.055  35.559  13.539
39046W        W11361  10.258  17.591  13.017
39047W        W11362  30.152  35.562  10.415
39048W        W11363  42.380   1.768   2.347
39049W        W11364  17.209  23.182   2.391
39050W        W11365  35.990   8.337  12.537
39051W        W11366  32.465   2.363  13.435
39052W        W11367  20.534   6.904  13.401
39053W        W11368  16.759  35.564   1.783
39054W        W11369   7.757  36.042  10.513
39055W        W11370  34.977   9.800   0.255
39056W        W11371   8.357  39.452  14.497
39057W        W11372  32.915  18.169  11.887
39058W        W11373  36.484  22.625  13.891
39059W        W11374   9.827   0.861   1.449
39060W        W11375  17.170  25.558   1.223
39061W        W11376   8.332  22.055   4.716
39062W        W11377  34.945  35.429  11.003
39063W        W11378  42.319  30.972   1.869
39064W        W11379  19.051   0.754   3.225
39065W        W11380  23.534   8.348   0.793
39066W        W11381   3.920   3.439  12.934
39067W        W11382  39.505  12.269  12.974
39068W        W11383   1.256  26.604   0.916
39069W        W11384  39.499  30.596  11.012
39070W        W11385  24.609   3.712   3.347
39071W        W11386   7.306   5.371  12.447
39072W        W11387   4.252  20.152   0.356
39073W        W11388   0.841   0.824   3.367
39074W        W11389  30.972  19.687  10.988
39075W        W11390   5.893  21.670  12.992
39076W        W11391  27.513  16.136   3.213
39077W        W11392  18.606  19.587   4.761
39078W        W11393  35.455  12.292   3.334
39079W        W11394  15.821  19.667   5.321
39080W        W11395  10.797  43.327   1.408
39081W        W11396  31.494  20.563  11.100
39082W        W11397  27.621  34.566   4.646
39083W        W11398  12.821  28.483   4.703
39084W        W11399  20.103  44.915  10.432
39085W        W11400  38.068  42.032  11.586
39086W        W11401  21.141  42.973   5.085
39087W        W11402   3.415  12.150   3.725
39088W        W11403  15.231   7.228  11.072
39089W        W11404  28.978  44.774   3.309
39090W        W11405   3.271  32.025   5.213
39091W        W11406  41.453  23.708   3.326
39092W        W11407  16.123  15.751  11.064
39093W        W11408  44.346  31.039  14.333
39094W        W11409  42.863   8.668  11.874
39095W        W11410  43.406   9.245   3.160
39096W        W11411   2.432  25.983   1.824
39097W        W11412  15.802  22.702  11.011
39098W        W11413  39.989  16.696  11.951
39099W        W11414  30.084  38.824  10.085
39100W        W11415  28.026  15.696  13.791
39101W        W11416  36.451  42.010  13.830
39102W        W11417  39.900  24.200   3.767
39103W        W11418  34.008  27.573  12.040
39104W        W11419  25.981  28.680  13.462
39105W        W11420  21.667  21.085  12.845
39106W        W11421  43.878   1.285  10.494
39107W        W11422   4.435  42.374  12.472
39108W        W11423  35.914  35.379  14.371
39109W        W11424  30.071  20.058  12.865
39110W        W11425  12.346  40.889   0.914
39111W        W11426   4.702  42.493   1.337
39112W        W11427  35.081  41.860  12.396
39113W        W11428  23.563  11.666   4.753
39114W        W11429  28.507  25.208  10.957
39115W        W11430   8.854  27.942  12.029
39116W        W11431  40.414   1.311  14.842
39117W        W11432   2.347  37.458  12.002
39118W        W11433  12.678  27.652   4.640
39119W        W11434   9.884   9.756   3.294
39120W        W11435  18.266  21.100  11.491
39121W        W11436  42.861  21.079   4.755
39122W        W11437   3.944  44.275  13.871
39123W        W11438  17.702  42.339  13.349
39124W        W11439   9.283  27.489   4.788
39125W        W11440  11.666  36.468  13.469
39126W        W11441  17.775  10.293   5.702
39127W        W11442  38.530  29.507   0.756
39128W        W11443   1.814  32.111  12.940
39129W        W11444  15.748  35.549  14.851
39130W        W11445   1.821  21.674   3.685
39131W        W11446  41.501  12.160  10.919
39132W        W11447  19.543  15.750  14.806
39133W        W11448  26.574  36.046   0.837
39134W        W11449  11.694  29.426  10.952
39135W        W11450  15.281  36.848  12.890
39136W        W11451  36.586   0.399  12.352
39137W        W11452  10.823  23.568   0.906
39138W        W11453   1.781  39.942  12.926
39139W        W11454  20.147  20.679  11.542
39140W        W11455  34.584   8.301  12.834
39141W        W11456   9.651   7.183   1.364
39142W        W11457  40.947  32.451  12.965
39143W        W11458   9.809  20.106  13.452
39144W        W11459  37.898  36.898  11.388
39145W        W11460  41.386  36.070  13.879
39146W        W11461  39.007  10.303  14.857
39147W        W11462  32.444  40.008   4.768
39148W        W11463  34.024  16.169  11.952
39149W        W11464  34.022  33.965   3.843
39150W        W11465   7.283  33.398  13.997
39151W        W11466  17.198  26.639  14.961
39152W        W11467  25.042  14.300   2.830
39153W        W11468  43.829  34.589  12.451
39154W        W11469  39.849  25.022  12.437
39155W        W11470   9.309   9.317  13.459
39156W        W11471  19.642  30.654   2.781
39157W        W11472  41.832  40.525  12.515
39158W        W11473  42.293  30.129   3.844
39159W        W11474  37.483  10.180   3.279
39160W        W11475  19.171  26.100  11.403
39161W        W11476  35.584  18.219  12.961
39162W        W11477  36.529  37.834  11.584
39163W        W11478  27.587  34.494   9.549
39164W        W11479  26.978  35.430   3.243
39165W        W11480  31.560  37.032   2.763
39166W        W11481  20.234  43.304   0.736
39167W        W11482  37.984  25.482   4.161
39168W        W11483  11.190  15.239  14.828
39169W        W11484  32.590  39.852  12.840
39170W        W11485  20.045  32.140  11.945
39171W        W11486  39.869  26.098  11.007
39172W        W11487  42.415  26.187   2.717
39173W        W11488  42.331   9.840  11.885
39174W        W11489  43.902   1.467   3.232
39175W        W11490  39.893  31.112  12.927
39176W        W11491  30.517  10.364  14.910
39177W        W11492  30.919  35.474  12.937
39178W        W11493  21.156  25.576  11.412
39179W        W11494  35.963   9.362  13.505
39180W        W11495   0.907   6.182  13.946
39181W        W11496  32.063  38.381  12.439
39182W        W11497  15.258  12.647  13.843
39183W        W11498  39.525  24.723   0.934
39184W        W11499  30.940   0.427   1.363
39185W        W11500   2.775  17.151   0.838
39186W        W11501  29.610  39.898   1.874
39187W        W11502   8.896  35.942   4.125
39188W        W11503  39.352  26.470   1.285
39189W        W11504  38.949  10.241  13.972
39190W        W11505  20.149  36.900   1.766
39191W        W11506  31.431  33.073  12.080
39192W        W11507  25.125   9.889  13.910
39193W        W11508  15.694  25.675  12.022
39194W        W11509  21.081  41.492  13.872
39195W        W11510  42.916  19.223  13.047
39196W        W11511  18.726  10.837   0.254
39197W        W11512   3.371  23.685   2.340
39198W        W11513   5.226  42.322  12.918
39199W        W11514   5.198  10.297  14.852
39200W        W11515   2.436  19.158   2.827
39201W        W11516  32.436  12.670  14.010
39202W        W11517  28.618  20.232   2.901
39203W        W11518   8.791   0.265  12.550
39204W        W11519  36.056  43.352  14.473
39205W        W11520  37.933  28.485   0.816
39206W        W11521  28.523   9.802   1.258
39207W        W11522  15.624   0.911  14.432
39208W        W11523   5.404  28.445  13.388
39209W        W11524  40.916  15.622  11.868
39210W        W11525   9.687  14.285  10.642
39211W        W11526  42.373   9.191   0.793
39212W        W11527  24.541  12.800  13.431
39213W        W11528  43.384   7.386  13.420
39214W        W11529  23.087   1.907  14.030
39215W        W11530  14.731  12.849   3.686
39216W        W11531  27.009  41.963   2.368
39217W        W11532  29.112  27.008  13.037
39218W        W11533   8.807  29.976   3.242
39219W        W11534  33.994  36.887  13.890
39220W        W11535  11.791  19.703  12.880
39221W        W11536   3.458  43.965   2.673
39222W        W11537  42.946  18.287  13.943
39223W        W11538  33.065  27.071   0.863
39224W        W11539   8.742   5.871  12.849
39225W        W11540  35.418  36.525   0.247
39226W        W11541  35.423  28.575  13.463
39227W        W11542  34.968  26.990   0.363
39228W        W11543   4.449   3.387  10.565
39229W        W11544  21.518   4.245   0.757
39230W        W11545   6.907  13.822  14.292
39231W        W11546  30.587   7.171   1.813
39232W        W11547  43.336  19.655  10.522
39233W        W11548   0.745   0.305   0.792
39234W        W11549  28.088  12.318  10.606
39235W        W11550  27.056  30.101   0.783
39236W        W11551   4.707  18.546   3.276
39237W        W11552   3.377  29.157   2.802
39238W        W11553   7.362  25.141   2.775
39239W        W11554  27.994  16.569   3.772
39240W        W11555   6.352  25.007  14.958
39241W        W11556  24.073  43.773   0.266
39242W        W11557  26.984  37.955  12.974
39243W        W11558  22.148  20.039  14.365
39244W        W11559  15.704  26.141   1.316
39245W        W11560  29.531  13.241   4.648
39246W        W11561  35.374   8.790  11.588
39247W        W11562  42.436   9.748  11.016
39248W        W11563  23.065  19.650   3.349
39249W        W11564  28.985   7.676  14.776
39250W        W11565  13.665   7.888  12.022
39251W        W11566  27.163  10.279   0.438
39252W        W11567  33.428  30.482   1.864
39253W        W11568  16.171   2.461  13.829
39254W        W11569  41.854  31.615  11.480
39255W        W11570   0.982  26.621   1.410
39256W        W11571   3.275  23.124  11.919
39257W        W11572  35.091  40.389   0.401
39258W        W11573  36.526   2.947   3.188
39259W        W11574  39.053  22.013   0.371
39260W        W11575  41.384  37.002  14.967
39261W        W11576   1.754  37.883  13.493
39262W        W11577  18.748  33.875  14.401
39263W        W11578   7.897  21.052  12.036
39264W        W11579  20.074   1.481   4.704
39265W        W11580  37.544  39.824   0.862
39266W        W11581   5.796  28.475  14.912
39267W        W11582  31.910  38.522   3.707
39268W        W11583  17.746  30.084  12.516
39269W        W11584  19.566  23.565   1.827
39270W        W11585  33.534  44.817   4.649
39271W        W11586  17.575  23.198  12.901
39272W        W11587  12.323  11.783  12.075
39273W        W11588  20.144  22.139  13.347
39274W        W11589   2.460  24.013   1.298
39275W        W11590  21.057  43.446   4.348
39276W        W11591   7.774  30.119  10.932
39277W        W11592  33.897  42.434  13.342
39278W        W11593  23.622  14.592  12.842
39279W        W11594  25.698  21.157   1.315
39280W        W11595  20.525  10.373   0.387
39281W        W11596  28.166   0.879  10.021
39282W        W11597   4.713  30.415  13.839
39283W        W11598  29.451  15.179  11.517
39284W        W11599  38.999   3.848  14.894
39285W        W11600   0.311  33.965  13.986
39286W        W11601  10.158  13.140   2.728
39287W        W11602  30.501  20.232   0.362
39288W        W11603   0.442   1.878   4.748
39289W        W11604  37.576  24.052   5.586
39290W        W11605  26.597  33.974  11.025
39291W        W11606  37.571   6.881   3.357
39292W        W11607  40.532   6.693   4.706
39293W        W11608  38.341   5.410   4.662
39294W        W11609   4.344   2.789   1.720
39295W        W11610   1.759  42.383   2.390
39296W        W11611  15.660   2.405   3.798
39297W        W11612  10.654  39.551  13.963
39298W        W11613  14.139  27.488  14.466
39299W        W11614  10.869  23.541  10.455
39300W        W11615  20.235   5.344  11.090
39301W        W11616  11.824  29.930   1.437
39302W        W11617   1.382   2.385   3.317
39303W        W11618  29.142  39.955   3.703
39304W        W11619   8.836   1.748  10.506
39305W        W11620  34.941  33.123   2.897
39306W        W11621  12.277  20.230   4.683
39307W        W11622  22.534  35.493   2.802
39308W        W11623  37.946  11.697  14.347
39309W        W11624  36.920   8.205  11.461
39310W        W11625   2.952   0.825   0.402
39311W        W11626  43.900  40.026   3.643
39312W        W11627  36.989   9.775   2.304
39313W        W11628  12.248   5.911  12.452
39314W        W11629   6.320  20.074  13.042
39315W        W11630  41.021  24.487   2.265
39316W        W11631  33.005  40.465   4.149
39317W        W11632   9.832   9.161   1.243
39318W        W11633  41.474  25.116  13.364
39319W        W11634  35.886  27.007  13.029
39320W        W11635  26.646  21.685   4.822
39321W        W11636  37.083  15.235  11.035
39322W        W11637  13.302  44.997  11.934
39323W        W11638  35.562  37.456   1.404
39324W        W11639  42.026  16.093   4.722
39325W        W11640   7.250   2.285  11.435
39326W        W11641  19.125  44.287   3.308
39327W        W11642   9.810  38.993   2.891
39328W        W11643  14.234  30.457   3.179
39329W        W11644  36.370  29.989   1.892
39330W        W11645   1.873   8.286   1.895
39331W        W11646  30.564   4.234   4.818
39332W        W11647   2.300   7.340  12.449
39333W        W11648  42.302  43.483  11.940
39334W        W11649   5.886   0.803  11.047
39335W        W11650  38.444   4.282   3.685
39336W        W11651  14.685  22.006   0.260
39337W        W11652  41.883  39.911  14.789
39338W        W11653  41.871  12.779  14.842
39339W        W11654  16.736  34.459   0.845
39340W        W11655  31.404   5.312  10.501
39341W        W11656   2.243  19.656   5.200
39342W        W11657  14.757   2.856  13.444
39343W        W11658  43.510   1.308   4.717
39344W        W11659   6.735  13.341  12.999
39345W        W11660  13.695   8.890  14.857
39346W        W11661   5.825  11.779   4.280
39347W        W11662  32.897  26.038   4.642
39348W        W11663  25.697   7.860  13.019
39349W        W11664  10.725  15.100  10.637
39350W        W11665  29.104  24.162   1.222
39351W        W11666   5.825  24.140  11.039
39352W        W11667  14.156  10.313   0.937
39353W        W11668  35.448   1.933  14.463
39354W        W11669  39.890  30.644   4.689
39355W        W11670  24.025  16.227   2.271
39356W        W11671  20.661  40.469   2.662
39357W        W11672  34.911  43.434   4.349
39358W        W11673  19.561  41.317  10.983
39359W        W11674  30.977   2.349   0.945
39360W        W11675  37.868  34.477  13.860
39361W        W11676   8.237  43.780  10.915
39362W        W11677  17.242  15.268   1.764
39363W        W11678  22.539  24.170  11.010
39364W        W11679  42.461  17.651   3.290
39365W        W11680  25.115  28.048  13.808
39366W        W11681  29.974   4.299   1.868
39367W        W11682  41.323  28.610  13.028
39368W        W11683  16.104  30.608   1.789
39369W        W11684  33.089  18.629   3.665
39370W        W11685  23.147  31.057   2.408
39371W        W11686  28.050  26.048  13.948
39372W        W11687  21.663  31.897   2.203
39373W        W11688  36.430   6.772   4.176
39374W        W11689   0.301  37.952   0.332
39375W        W11690   6.255  28.504   1.751
39376W        W11691  11.269  19.174  12.491
39377W        W11692  13.797  37.414  13.963
39378W        W11693   2.848   2.298   3.648
39379W        W11694  10.349  44.997  10.409
39380W        W11695  29.024  27.635  13.365
39381W        W11696  18.709  43.946   4.224
39382W        W11697  12.728  30.137   2.234
39383W        W11698  24.532   8.215   1.297
39384W        W11699   7.207   2.403  14.994
39385W        W11700  25.530  27.160  11.454
39386W        W11701  15.622   7.911  13.960
39387W        W11702  33.416  31.095   4.117
39388W        W11703  36.944   4.765   3.276
39389W        W11704  23.166  20.566   0.315
39390W        W11705   3.915  26.163  10.630
39391W        W11706  39.880  44.472  10.489
39392W        W11707   5.903   9.379  12.413
39393W        W11708  10.750   7.862  11.024
39394W        W11709  10.848  38.975   2.813
39395W        W11710   2.858   5.691   2.845
39396W        W11711  37.086  44.781  10.577
39397W        W11712   8.238  36.591  14.000
39398W        W11713  44.000  20.149  13.390
39399W        W11714  42.889  33.551  13.377
39400W        W11715   6.743  23.139   0.853
39401W        W11716  14.825  39.531   3.211
39402W        W11717  13.197  27.568   3.638
39403W        W11718  14.769  44.997   2.185
39404W        W11719  14.808  31.133  12.551
39405W        W11720  39.991  41.491  11.540
39406W        W11721   5.320   6.867  14.344
39407W        W11722   5.839   7.294   2.797
39408W        W11723  10.302  20.692   1.827
39409W        W11724  41.356  23.096  13.823
39410W        W11725  41.870  36.522   1.278
39411W        W11726  15.795  14.724  11.941
39412W        W11727  44.800   6.682  10.997
39413W        W11728  10.799   3.831  13.546
39414W        W11729  17.113  33.130   1.400
39415W        W11730   4.945  20.767   0.924
39416W        W11731  31.490  41.385  11.991
39417W        W11732  18.166   1.481   0.253
39418W        W11733  27.520  34.408   2.662
39419W        W11734  38.469  23.074   5.591
39420W        W11735   3.375   7.668   4.615
39421W        W11736  30.951   9.850  14.788
39422W        W11737  21.543   3.751   1.755
39423W        W11738  42.360   0.275   2.770
39424W        W11739   5.761  38.966  11.911
39425W        W11740  26.518   1.886   1.264
39426W        W11741   1.475  37.354  11.957
39427W        W11742   3.235  36.591  13.335
39428W        W11743  10.790  43.878  12.989
39429W        W11744  39.833  40.010   3.797
39430W        W11745  14.774  27.454   4.655
39431W        W11746  19.248  42.015   4.819
39432W        W11747  43.812  37.049  10.942
39433W        W11748   0.333  33.570  10.126
39434W        W11749  16.672  41.799  12.874
39435W        W11750  16.265  19.242   2.258
39436W        W11751  23.554   9.286  14.443
39437W        W11752  20.729  33.480   3.233
39438W        W11753  21.684   3.349   2.682
39439W        W11754  37.342  34.106  13.877
39440W        W11755  17.754  33.983   3.157
39441W        W11756   7.731   8.272  12.501
39442W        W11757  18.145  36.382  13.948
39443W        W11758  22.203  38.413  11.005
39444W        W11759   7.361   0.309  10.932
39445W        W11760  15.298  11.350  10.490
39446W        W11761  38.529  40.456   1.857
39447W        W11762  18.153  18.260   4.195
39448W        W11763   7.210  32.952   4.258
39449W        W11764  28.594  30.942   4.654
39450W        W11765  21.575  30.552   3.368
39451W        W11766  21.255  42.527   1.889
39452W        W11767  13.125  26.997  13.801
39453W        W11768  43.488  17.228  12.053
39454W        W11769  23.515   3.855  12.968
39455W        W11770  16.777  38.553   2.362
39456W        W11771  16.606  10.824  14.810
39457W        W11772  18.232  10.812  13.978
39458W        W11773   2.382  18.073  11.948
39459W        W11774  27.010  34.095   4.635
39460W        W11775  14.621   5.797   2.324
39461W        W11776  18.133  43.281   2.765
39462W        W11777   7.830  28.932   3.721
39463W        W11778   8.706  21.053   1.438
39464W        W11779   0.893  14.758  11.424
39465W        W11780  25.159  20.065   1.449
39466W        W11781   3.806  34.374  12.518
39467W        W11782  15.643  26.565  12.840
39468W        W11783  35.079  37.909  11.591
39469W        W11784   6.198  44.447  12.407
39470W        W11785   9.870   6.322   3.693
39471W        W11786  32.067  22.112  13.366
39472W        W11787  28.034   5.800  11.592
39473W        W11788  27.600  31.628   0.817
39474W        W11789  11.222  36.989  10.993
39475W        W11790  13.129  28.986   5.138
39476W        W11791   0.955  28.468  10.088
39477W        W11792  20.125  38.868   0.952
39478W        W11793   0.445  23.231  13.903
39479W        W11794  29.069  22.629   0.258
39480W        W11795  35.577  10.745   3.785
39481W        W11796   3.328   9.171  12.854
39482W        W11797  19.733  26.146   3.308
39483W        W11798   3.380  29.165   4.620
39484W        W11799  20.717  19.650  11.010
39485W        W11800  41.523   4.772   3.668
39486W        W11801  33.040  35.982  12.845
39487W        W11802  21.042   4.791   1.931
39488W        W11803  36.407  23.677  11.926
39489W        W11804   2.441  16.799  11.872
39490W        W11805  14.193   0.316  12.578
39491W        W11806  33.542  18.720   5.095
39492W        W11807  11.244  43.274  12.364
39493W        W11808  36.457  44.436  13.893
39494W        W11809  27.578  39.036  12.985
39495W        W11810  40.542  38.917   4.280
39496W        W11811  31.434  35.941   0.333
39497W        W11812   3.315  32.536   2.715
39498W        W11813  16.102   7.847  10.638
39499W        W11814  10.851  22.175   0.729
39500W        W11815  35.929  26.493  12.939
39501W        W11816  28.165   7.706  13.034
39502W        W11817   6.918   3.910   4.143
39503W        W11818  25.510   5.899   9.500
39504W        W11819   0.770  27.075  13.426
39505W        W11820  10.262   3.280   4.131
39506W        W11821  41.908  29.984   3.830
39507W        W11822  24.583  33.115  11.112
39508W        W11823  22.210   6.890   0.317
39509W        W11824   2.728  13.731  11.880
39510W        W11825  19.568  16.577  11.874
39511W        W11826  41.444   7.891  13.034
39512W        W11827   8.264  43.325   1.391
39513W        W11828  32.502   7.682   3.680
39514W        W11829  18.257  43.391  11.481
39515W        W11830   1.303   3.348  11.992
39516W        W11831  19.257   8.265  14.994
39517W        W11832  35.981  21.117  13.037
39518W        W11833  14.667   5.884  14.504
39519W        W11834  43.018  37.971  10.586
39520W        W11835  15.286  39.907   3.780
39521W        W11836   7.839  16.197   0.951
39522W        W11837  43.818  10.317   0.258
39523W        W11838   9.209   0.280  13.888
39524W        W11839   4.354  41.411   3.730
39525W        W11840  26.146   6.389   4.195
39526W        W11841  13.727  17.681   3.782
39527W        W11842  18.624   0.400  11.083
39528W        W11843  21.703  28.621   2.178
39529W        W11844  37.079  41.911   0.949
39530W        W11845  40.822  19.209   1.825
39531W        W11846   8.233   9.266  12.516
39532W        W11847  24.132  29.443  11.558
39533W        W11848  29.481  20.031   1.418
39534W        W11849   9.297  14.267  12.029
39535W        W11850  15.595   8.787  14.887
39536W        W11851  26.492  13.254  13.511
39537W        W11852  20.540  19.096  13.046
39538W        W11853  27.092  38.861  14.811
39539W        W11854  28.072  33.945  12.847
39540W        W11855   3.279  44.450   4.746
39541W        W11856  27.185  28.007  10.921
39542W        W11857  29.483  36.068   3.774
39543W        W11858  32.886  35.872  11.542
39544W        W11859   6.214  15.640  11.527
39545W        W11860  28.136  20.734   2.288
39546W        W11861  23.183  11.821  12.979
39547W        W11862   9.152   8.751   1.299
39548W        W11863   5.412  31.058   2.783
39549W        W11864  35.855  19.051  13.039
39550W        W11865  14.272  16.309  11.998
39551W        W11866  28.489  19.167   1.312
39552W        W11867   3.304   0.419   0.394
39553W        W11868   5.243  15.103   2.770
39554W        W11869   2.343   0.753  11.051
39555W        W11870   2.874   7.400  11.457
39556W        W11871  33.448  11.201   2.418
39557W        W11872  21.538   3.247   4.648
39558W        W11873   1.460   0.889  12.515
39559W        W11874   5.246  33.950  12.366
39560W        W11875  12.313  36.927   2.291
39561W        W11876  13.639  29.481  12.390
39562W        W11877  33.023   2.396   1.925
39563W        W11878  37.428  11.802  13.426
39564W        W11879   4.731  30.960   0.393
39565W        W11880  33.504  17.193  10.519
39566W        W11881  21.648  30.423  13.844
39567W        W11882  22.143  40.393   2.225
39568W        W11883  12.746  30.018  13.351
39569W        W11884  38.399  24.635   4.156
39570W        W11885   0.320  31.440  14.015
39571W        W11886   6.831  20.532  12.829
39572W        W11887  10.264  20.740   1.224
39573W        W11888  41.899  18.720   3.293
39574W        W11889  34.474  27.522  10.515
39575W        W11890  36.071   7.742  13.050
39576W        W11891  28.436  35.854  11.553
39577W        W11892  31.459  39.436   2.181
39578W        W11893  39.343  30.041   3.233
39579W        W11894   8.801   0.767   1.767
39580W        W11895  19.607  37.514  13.430
39581W        W11896   4.752  34.904  12.030
39582W        W11897  28.059  19.611   1.364
39583W        W11898   9.366  22.558  10.566
39584W        W11899  18.107  10.845  12.439
39585W        W11900   5.763  36.928  13.323
39586W        W11901  36.983  35.033  11.879
39587W        W11902  36.004  43.981   3.779
39588W        W11903  21.675  27.620  13.022
39589W        W11904  34.968  27.518  13.062
39590W        W11905   8.375  40.499  12.014
39591W        W11906  20.096  36.903  11.399
39592W        W11907  40.009  16.108   4.301
39593W        W11908  37.869  21.567  14.417
39594W        W11909  11.127   6.182   1.230
39595W        W11910  42.372   3.903   0.421
39596W        W11911  33.462  17.722   3.864
39597W        W11912   6.789  28.572   0.278
39598W        W11913  21.172  37.903   0.952
39599W        W11914  37.843  28.095  14.818
39600W        W11915  36.895  21.748  13.868
39601W        W11916  39.478  11.206  12.931
39602W        W11917  38.928  11.373   0.925
39603W        W11918  16.119   4.262   3.797
39604W        W11919  25.630  12.118   1.704
39605W        W11920  42.926  32.025  12.363
39606W        W11921  23.142  12.350  11.954
39607W        W11922  36.526  13.808  13.941
39608W        W11923  31.134  22.996  14.846
39609W        W11924   6.806  38.960   3.669
39610W        W11925  30.571   5.832   3.752
39611W        W11926   8.191   5.260   4.720
39612W        W11927  39.317  29.576  13.365
39613W        W11928  21.631  16.243   4.622
39614W        W11929  31.087   7.297   1.298
39615W        W11930  41.885  10.355  13.401
39616W        W11931   8.898   3.435   4.607
39617W        W11932   6.757  39.964  11.433
39618W        W11933  21.618  43.464  12.011
39619W        W11934  26.686  43.498  14.833
39620W        W11935  34.379  11.336  13.011
39621W        W11936   7.847  35.474  13.339
39622W        W11937  25.690  40.016  11.968
39623W        W11938  42.934  44.799   0.959
39624W        W11939  23.141  11.179   3.295
39625W        W11940   1.387  10.313   1.330
39626W        W11941   7.728  43.489  12.566
39627W        W11942  34.959  43.313  12.523
39628W        W11943   2.866  35.595   5.643
39629W        W11944  42.947  25.069   2.234
39630W        W11945  27.159   3.417   4.130
39631W        W11946  42.378  34.596   4.175
39632W        W11947  36.554  42.886   4.649
39633W        W11948  44.418  14.769   4.341
39634W        W11949  17.071  38.563  11.941
39635W        W11950  10.696  29.132  11.905
39636W        W11951  25.014  15.694   0.794
39637W        W11952  11.127  36.961   2.709
39638W        W11953  34.545  22.191  13.470
39639W        W11954   9.815  22.018   2.739
39640W        W11955  44.813  44.983   1.216
39641W        W11956  34.413  34.059  11.593
39642W        W11957   9.285  41.814   4.145
39643W        W11958  20.058  21.748   4.700
39644W        W11959  11.826  42.290  11.057
39645W        W11960  33.047  19.141  12.018
39646W        W11961  40.867   4.313   2.707
39647W        W11962   9.363   9.691  11.955
39648W        W11963  10.312  18.579  14.987
39649W        W11964  38.903  17.597  14.941
39650W        W11965  15.285  35.360  13.845
39651W        W11966  42.855  25.514   0.862
39652W        W11967  26.144   3.940   5.712
39653W        W11968  29.618   2.419   1.867
39654W        W11969  15.328  10.177  10.987
39655W        W11970  27.632  25.670  11.599
39656W        W11971  23.726  39.044  10.579
39657W        W11972   1.831  40.525  14.339
39658W        W11973  11.294  35.055  12.971
39659W        W11974  16.732   7.190   2.274
39660W        W11975  17.604  39.498   4.204
39661W        W11976   2.768  16.232  14.797
39662W        W11977  21.146  41.910  11.909
39663W        W11978  10.770  38.543  14.939
39664W        W11979  18.638   3.903   3.742
39665W        W11980  24.608   5.389   3.187
39666W        W11981   3.415   1.296   1.448
39667W        W11982  29.974  15.736  12.019
39668W        W11983  36.530  33.496   1.810
39669W        W11984  29.629   4.871  12.863
39670W        W11985  44.272  26.160  12.355
39671W        W11986  32.395  13.644  12.939
39672W        W11987  19.707  36.578   3.247
39673W        W11988  41.002  20.687   0.379
39674W        W11989  13.641  24.572  12.423
39675W        W11990  15.171  42.016   4.756
39676W        W11991   8.829  28.144   4.715
39677W        W11992  42.468  28.675  14.831
39678W        W11993  15.247  12.143  12.484
39679W        W11994  30.596  29.560  11.935
39680W        W11995  36.382   7.274  10.557
39681W        W11996  22.113   8.713   3.732
39682W        W11997  44.866  14.651   0.481
39683W        W11998  27.664  23.513  14.352
39684W        W11999  33.071   0.956  10.426
39685W        W12000  32.590  34.599   5.292
39686W        W12001  16.734  23.084  10.414
39687W        W12002  26.476   3.787  14.327
39688W        W12003  11.755  39.547  13.006
39689W        W12004  42.426  35.977   3.811
39690W        W12005  42.838  14.277   2.747
39691W        W12006  23.680   6.751   4.640
39692W        W12007  26.524  34.067   4.128
39693W        W12008  18.288   7.774  14.282
39694W        W12009  42.881   8.840   0.290
39695W        W12010  16.721  40.526  12.081
39696W        W12011  14.807  19.054  14.787
39697W        W12012  10.850  18.276  13.942
39698W        W12013  20.598  34.581   1.394
39699W        W12014  37.969   1.402   4.260
39700W        W12015  29.133  18.255   1.878
39701W        W12016  38.550  23.675  10.430
39702W        W12017  19.757  13.814   4.334
39703W        W12018  18.717  19.652  11.451
39704W        W12019  18.054  35.939  14.426
39705W        W12020  10.354   4.339   3.690
39706W        W12021  28.972   3.877   2.687
39707W        W12022   6.754  23.602   0.867
39708W        W12023  42.300  13.348   0.810
39709W        W12024  40.870   2.931   4.831
39710W        W12025  11.695   5.418  14.484
39711W        W12026  41.394   3.833   0.435
39712W        W12027  29.447   8.654  10.544
39713W        W12028  35.359  36.510  11.441
39714W        W12029  23.732   5.757   2.337
39715W        W12030   4.283  27.531   0.901
39716W        W12031  23.576  34.422  10.428
39717W        W12032   6.327   6.888  13.921
39718W        W12033   5.292  10.734   1.289
39719W        W12034  30.648  31.612  12.350
39720W        W12035  43.878   3.387  12.092
39721W        W12036   3.786  29.557   4.676
39722W        W12037  32.561  33.427  12.437
39723W        W12038  18.573   7.227  12.573
39724W        W12039  10.723  44.879   2.327
39725W        W12040  31.124   9.825   4.729
39726W        W12041   0.355  36.479   9.497
39727W        W12042  14.313   7.722  13.796
39728W        W12043  42.028  26.665  11.006
39729W        W12044  27.532   1.776  11.414
39730W        W12045   4.829   9.259  11.991
39731W        W12046  20.676  41.353   1.251
39732W        W12047  40.977   9.209  10.591
39733W        W12048   8.830  36.489   5.300
39734W        W12049   6.694   1.864   0.773
39735W        W12050  10.255  37.483  14.843
39736W        W12051   3.809  34.872   4.716
39737W        W12052   8.283  29.993  11.994
39738W        W12053  44.501  37.050  14.799
39739W        W12054  44.493  41.385   4.798
39740W        W12055   7.302  21.529   3.233
39741W        W12056  19.090  29.598  12.559
39742W        W12057  37.336  15.812   3.724
39743W        W12058  28.664   4.713  14.490
39744W        W12059  30.964  42.295   1.340
39745W        W12060  18.717  25.074   0.446
39746W        W12061  19.237  32.557   1.259
39747W        W12062  24.124  19.743   1.384
39748W        W12063  13.653  32.430  13.902
39749W        W12064  23.096  26.067   2.728
39750W        W12065  12.832  21.586  10.583
39751W        W12066   2.728  35.016   1.414
39752W        W12067  37.878  35.585  13.988
39753W        W12068   3.777  16.212   4.642
39754W        W12069  19.768  37.030   2.302
39755W        W12070  24.045  14.618   1.732
39756W        W12071  37.993  21.251  12.480
39757W        W12072  44.469   7.276   2.398
39758W        W12073  16.811  35.935  10.992
39759W        W12074   7.898   9.712  12.577
39760W        W12075   8.675  44.356  10.546
39761W        W12076  26.976   2.361   2.832
39762W        W12077  23.035  21.732   4.782
39763W        W12078  14.749  35.431  11.995
39764W        W12079   4.254  41.366  11.394
39765W        W12080  34.917  11.821   3.810
39766W        W12081   2.394  42.396   0.917
39767W        W12082   8.188  30.445  11.876
39768W        W12083  35.970  10.206  12.571
39769W        W12084  27.575  16.631   3.198
39770W        W12085   1.755  11.230   1.451
39771W        W12086  44.459  34.068  11.378
39772W        W12087  15.098  32.580   3.723
39773W        W12088  21.225   1.278   0.759
39774W        W12089  11.337   9.172   4.244
39775W        W12090   3.860   0.834   3.821
39776W        W12091   3.364  24.219  11.494
39777W        W12092  27.616  20.687  14.780
39778W        W12093  31.521   5.285  12.431
39779W        W12094  10.366   8.835   3.812
39780W        W12095   5.349   5.709  11.375
39781W        W12096  37.046   8.342  12.862
39782W        W12097  34.044  11.802  10.405
39783W        W12098  13.809  35.866   0.727
39784W        W12099  27.471  11.282  12.339
39785W        W12100  16.765  42.515  10.409
39786W        W12101  22.251  32.039   3.814
39787W        W12102  28.654  28.496  12.538
39788W        W12103  23.608   6.719   4.311
39789W        W12104  29.145  41.320   0.471
39790W        W12105  32.446  24.111  13.479
39791W        W12106  21.234  38.002  12.986
39792W        W12107  29.135   5.410   1.796
39793W        W12108  21.170  10.279   2.720
39794W        W12109  12.748  25.089   2.809
39795W        W12110   0.359   1.415  13.045
39796W        W12111  40.992  29.550  10.441
39797W        W12112  16.140   5.758  13.503
39798W        W12113  15.807  22.141   1.293
39799W        W12114  24.211  39.928   3.703
39800W        W12115  44.837   2.374   3.209
39801W        W12116  32.120  44.864  14.949
39802W        W12117  11.327  39.999  11.535
39803W        W12118   4.930  44.302  13.512
39804W        W12119   1.329  31.523  11.023
39805W        W12120  41.803  14.688   1.866
39806W        W12121  24.504  44.304  10.889
39807W        W12122  27.588   6.189  10.561
39808W        W12123  33.466  35.021   1.882
39809W        W12124  39.964   1.933   0.848
39810W        W12125   7.818  21.604   3.734
39811W        W12126  11.350  14.778  13.384
39812W        W12127  29.539  35.965   3.207
39813W        W12128  15.206   6.748   4.733
39814W        W12129  11.155  12.791  11.923
39815W        W12130  22.554   8.710   0.410
39816W        W12131  36.850   6.685   0.393
39817W        W12132   3.813  34.964  13.308
39818W        W12133  27.680   4.767   0.475
39819W        W12134  33.422   4.903  11.880
39820W        W12135  19.104  27.522   2.901
39821W        W12136  31.990  34.876  13.826
39822W        W12137   8.659  21.666  12.561
39823W        W12138  41.982   4.742   0.967
39824W        W12139   8.176  21.723  11.576
39825W        W12140  16.122  24.988   3.381
39826W        W12141  20.199   7.266  14.771
39827W        W12142  12.799  18.742   2.201
39828W        W12143  38.363  23.093   0.875
39829W        W12144   9.259  44.333  13.932
39830W        W12145   6.922  26.680   5.248
39831W        W12146  10.644  35.422  13.974
39832W        W12147  14.212   9.825  11.962
39833W        W12148  15.714  30.563  10.454
39834W        W12149  27.540  15.730  14.488
39835W        W12150  29.059  41.034  12.580
39836W        W12151  12.617  17.710  14.339
39837W        W12152   1.898  41.841  14.893
39838W        W12153  32.895  36.432  13.513
39839W        W12154   8.700   2.933   0.920
39840W        W12155  17.593  43.912   1.408
39841W        W12156  30.652  35.377   4.772
39842W        W12157  36.420   6.290  14.802
39843W        W12158  30.095  17.296   2.260
39844W        W12159  13.712  33.395  14.912
39845W        W12160  23.205  27.099  14.020
39846W        W12161  12.121  37.009  13.001
39847W        W12162  29.097   4.259   0.910
39848W        W12163  15.786  26.513   0.482
39849W        W12164  32.013  36.467   3.333
39850W        W12165  21.180  13.684   1.212
39851W        W12166  43.930  23.134  14.761
39852W        W12167  41.355   5.303  14.862
39853W        W12168  15.218  29.085   1.448
39854W        W12169  22.586   7.365   3.202
39855W        W12170   7.773  43.009   5.147
39856W        W12171   9.278   4.941  11.892
39857W        W12172  25.201   6.278   1.754
39858W        W12173   2.384  23.687   3.336
39859W        W12174  10.250  22.638  11.030
39860W        W12175  20.029   7.871   2.751
39861W        W12176   9.215  29.534  14.853
39862W        W12177   6.289  14.300   0.319
39863W        W12178  39.317  38.999  12.413
39864W        W12179   3.754  37.478   3.333
39865W        W12180  37.944  10.669   3.160
39866W        W12181  15.230  44.300   1.840
39867W        W12182  18.193  28.649  12.452
39868W        W12183  14.678  29.445   0.468
39869W        W12184  32.493  11.170   0.892
39870W        W12185   0.436  16.143   2.375
39871W        W12186  30.460  11.354   0.460
39872W        W12187  31.486  44.930   2.178
39873W        W12188  26.593  28.183   1.409
39874W        W12189  34.900  23.198  11.931
39875W        W12190  30.458   1.404  12.085
39876W        W12191   0.370  32.091   3.297
39877W        W12192  36.524   1.366   0.941
39878W        W12193  37.358  35.390  11.960
39879W        W12194  33.389  19.606   1.716
39880W        W12195   8.681  20.194  10.464
39881W        W12196  43.438  43.875  14.351
39882W        W12197   2.305  25.156   5.151
39883W        W12198  22.043  33.988  14.957
39884W        W12199  28.676  32.540  10.605
39885W        W12200  30.498   2.250  13.477
39886W        W12201  34.085  14.189   4.703
39887W        W12202  11.626  10.750   3.237
39888W        W12203  40.015  12.187   1.350
39889W        W12204  39.033  44.896  10.568
39890W        W12205  43.907  36.985  11.891
39891W        W12206  32.002  29.939   0.274
39892W        W12207  23.019  18.729   0.387
39893W        W12208  37.058  25.129  14.985
39894W        W12209  35.537  26.974  12.504
39895W        W12210   8.822  16.745   3.637
39896W        W12211  26.114  24.192   2.237
39897W        W12212  27.516  28.160  13.412
39898W        W12213  12.784  12.690  11.598
39899W        W12214  12.292  42.408  10.949
39900W        W12215   3.802  37.968  10.941
39901W        W12216  42.452  27.671   3.765
39902W        W12217   3.346  23.591  14.368
39903W        W12218  38.049  16.761  14.358
39904W        W12219  39.871   1.972   4.607
39905W        W12220  28.636   1.419  11.026
39906W        W12221  40.892  42.420  11.112
39907W        W12222  18.606  28.990  14.792
39908W        W12223  26.602  21.019   9.961
39909W        W12224  37.478  13.110   4.260
39910W        W12225  36.984   3.230   2.789
39911W        W12226  16.207  32.997   0.747
39912W        W12227   5.928  40.537   4.199
39913W        W12228  34.548  39.013   4.323
39914W        W12229   0.967   2.281  14.820
39915W        W12230  25.197  17.127  11.427
39916W        W12231  41.987  17.743  14.398
39917W        W12232  32.606  32.975   3.686
39918W        W12233  37.358  29.601  11.514
39919W        W12234  37.488  31.005  12.360
39920W        W12235  41.842  43.488  14.489
39921W        W12236  22.526  29.021   1.396
39922W        W12237  14.134  10.762  11.963
39923W        W12238  33.995  29.955  13.007
39924W        W12239  14.282  23.172   0.766
39925W        W12240  22.665  12.648  14.930
39926W        W12241  11.746   2.757   1.399
39927W        W12242  14.279  21.711   3.200
39928W        W12243  27.196   9.775  14.446
39929W        W12244   6.682  39.495   4.699
39930W        W12245  42.467  16.699  12.530
39931W        W12246  26.505  20.669   4.624
39932W        W12247  36.589  37.083  12.002
39933W        W12248  20.090  36.450   1.858
39934W        W12249   1.792  27.538  10.433
39935W        W12250  24.717  18.187  10.919
39936W        W12251  30.113  24.693  12.005
39937W        W12252  23.605   0.308   0.860
39938W        W12253  42.375  25.982  11.492
39939W        W12254  11.349  12.343  14.420
39940W        W12255   5.325  15.156   0.875
39941W        W12256   3.810  42.925   0.260
39942W        W12257  10.354  21.142  10.024
39943W        W12258  26.509  22.098  12.491
39944W        W12259   6.423  34.056   3.844
39945W        W12260   5.281  14.699   3.710
39946W        W12261  31.033  37.416   3.859
39947W        W12262   5.229  22.041  13.436
39948W        W12263  34.542  14.788  10.893
39949W        W12264  36.059  31.555   0.897
39950W        W12265  32.016   2.915  10.503
39951W        W12266   6.846  17.752  10.528
39952W        W12267   5.415  39.525  12.828
39953W        W12268  10.194  28.487   0.448
39954W        W12269  24.596  36.565  11.127
39955W        W12270  35.930  32.011   4.170
39956W        W12271  35.489  44.802  12.851
39957W        W12272  22.229  36.066  11.871
39958W        W12273  20.242  20.103  12.536
39959W        W12274  42.880  34.941  14.017
39960W        W12275  26.472  38.915  10.405
39961W        W12276  37.846  43.976   4.783
39962W        W12277  15.614  15.159  11.128
39963W        W12278   8.265  23.067   1.447
39964W        W12279  19.730  36.476   4.738
39965W        W12280  24.713   9.675  13.027
39966W        W12281   7.403  37.459  14.486
39967W        W12282   2.331   5.739  12.831
39968W        W12283  30.494  23.694  12.012
39969W        W12284  32.904  41.912   3.714
39970W        W12285  29.938  15.160  13.821
39971W        W12286   7.217  10.244   4.635
39972W        W12287  29.163  28.520  13.033
39973W        W12288  12.752  21.541   1.737
39974W        W12289  24.568  34.047  13.388
39975W        W12290  32.115  24.611   4.729
39976W        W12291  16.313   5.308  13.546
39977W        W12292   8.679   2.755  13.490
39978W        W12293  30.546   2.453   1.423
39979W        W12294  21.171  44.433   2.872
39980W        W12295   2.375   0.384   3.310
39981W        W12296  14.739  15.621  12.968
39982W        W12297   3.461   4.825   3.298
39983W        W12298  25.471   5.198   9.674
39984W        W12299   0.436  39.458  13.449
39985W        W12300  34.109  17.256   0.822
39986W        W12301  29.513   7.902   2.338
39987W        W12302  28.005  43.908   0.290
39988W        W12303  33.100  17.273   3.763
39989W        W12304  27.556  33.118   0.782
39990W        W12305  32.483  20.656   0.886
39991W        W12306  24.651  39.524  12.466
39992W        W12307  10.168  26.044  11.100
39993W        W12308   2.311  24.042   1.774
39994W        W12309  43.325  27.466  12.467
39995W        W12310   4.366  10.349   0.465
39996W        W12311  28.528  16.315  11.503
39997W        W12312  27.125  28.947   0.933
39998W        W12313  20.124  26.460   5.291
39999W        W12314  22.144  13.750   3.799
40000W        W12315  30.053  43.003  10.487
40001W        W12316  43.483  14.304  11.954
40002W        W12317  18.263  30.032   0.286
40003W        W12318   5.888  12.262  12.471
40004W        W12319  21.568  29.953  10.512
40005W        W12320  44.468  33.441  13.889
40006W        W12321  19.231  44.376  14.405
40007W        W12322  35.102  14.799  13.900
40008W        W12323  31.993  22.051  11.990
40009W        W12324   1.440  25.566   1.339
40010W        W12325   7.907  39.340   3.294
40011W        W12326   2.386   1.429   0.258
40012W        W12327   7.303  33.079  12.390
40013W        W12328   8.675  44.435  13.061
40014W        W12329  24.083  14.263  10.156
40015W        W12330  34.544  30.625   2.335
40016W        W12331  29.542   3.830   3.813
40017W        W12332  39.481   8.704  14.454
40018W        W12333  41.877  44.950   4.180
40019W        W12334   7.250  34.470   4.624
40020W        W12335   0.328  15.713   3.359
40021W        W12336  37.337  24.631  14.008
40022W        W12337  18.287  41.310   1.828
40023W        W12338  40.362  24.996   3.324
40024W        W12339  29.933  29.606   2.216
40025W        W12340   7.687  26.035  14.007
40026W        W12341  43.464   0.382   0.749
40027W        W12342   2.809  16.627   0.271
40028W        W12343   1.952   4.922   1.780
40029W        W12344  33.457   4.722   0.967
40030W        W12345  13.661  33.091  10.558
40031W        W12346  38.003  21.597   0.913
40032W        W12347  19.239   1.249   1.889
40033W        W12348  25.093  22.661   4.755
40034W        W12349  17.678   5.397   2.323
40035W        W12350   2.825  26.496   1.349
40036W        W12351  12.646  33.446   1.255
40037W        W12352   7.719  25.102  11.039
40038W        W12353  35.857  28.943  11.058
40039W        W12354  21.257  44.302  11.525
40040W        W12355  37.367  39.945   1.336
40041W        W12356   4.364  20.255   1.713
40042W        W12357  10.814  11.659  11.082
40043W        W12358  31.915  14.807   3.268
40044W        W12359  15.651  16.113  13.367
40045W        W12360   8.705  25.621  14.812
40046W        W12361   5.377  24.060   4.334
40047W        W12362  43.999  29.623  10.472
40048W        W12363   8.830  27.137  13.029
40049W        W12364  31.452  29.125  14.825
40050W        W12365  37.441   6.732   2.318
40051W        W12366  44.375   5.907  12.057
40052W        W12367   7.702  41.303   0.448
40053W        W12368  22.681   8.268   3.723
40054W        W12369   1.245   2.385   2.752
40055W        W12370   0.751  43.446  13.443
40056W        W12371  36.882  14.703   1.806
40057W        W12372   4.439  34.960   3.671
40058W        W12373  42.006  13.825   4.119
40059W        W12374   4.406  38.926  11.428
40060W        W12375  34.891  31.017  13.472
40061W        W12376  38.539  27.616   4.758
40062W        W12377  27.582  37.490   2.387
40063W        W12378  44.872  20.544   0.376
40064W        W12379  29.155  40.011   4.667
40065W        W12380   3.903  36.487  12.035
40066W        W12381   1.440  20.054   2.814
40067W        W12382  31.122  40.519  14.339
40068W        W12383   2.790  39.851   4.219
40069W        W12384  16.099  16.669   0.744
40070W        W12385  29.499   8.403   4.342
40071W        W12386  25.088  14.127   2.315
40072W        W12387  41.463  24.538  10.414
40073W        W12388   7.826  34.559   2.777
40074W        W12389  38.409  34.609  10.553
40075W        W12390  24.164  35.923   2.218
40076W        W12391  19.139  26.172   2.290
40077W        W12392  32.391  37.336  15.000
40078W        W12393   6.340  44.286  11.600
40079W        W12394  24.978  42.371   2.179
40080W        W12395  26.631   2.325  14.376
40081W        W12396  10.381   7.212  12.395
40082W        W12397   7.745  10.323  13.983
40083W        W12398  43.953   6.393   0.891
40084W        W12399  37.562  16.264   1.219
40085W        W12400  21.562  10.226  12.854
40086W        W12401  16.586   3.949  13.831
40087W        W12402  11.187  15.108   2.814
40088W        W12403  26.144   5.735   3.633
40089W        W12404  40.410  35.088   3.246
40090W        W12405  29.152  24.506   2.897
40091W        W12406   6.844  41.955  11.569
40092W        W12407  31.915  37.841   2.372
40093W        W12408  40.054   7.234   0.388
40094W        W12409   0.961  15.642  11.108
40095W        W12410  25.014   9.700  11.936
40096W        W12411   1.829  32.460  14.446
40097W        W12412   2.720  38.547  14.798
40098W        W12413  18.739  10.326   5.190
40099W        W12414  35.450  28.096  10.517
40100W        W12415   9.288   0.271   4.670
40101W        W12416  28.009  22.226  11.039
40102W        W12417   1.426  21.090   3.768
40103W        W12418   9.199  27.060   1.438
40104W        W12419  23.144  44.952  14.295
40105W        W12420  14.120  12.248   3.374
40106W        W12421  21.746   4.762   0.438
40107W        W12422  19.192  22.581   3.215
40108W        W12423   9.820   9.217  14.931
40109W        W12424  27.529  41.845  14.784
40110W        W12425  23.123  15.750   2.222
40111W        W12426  43.475  26.588   3.280
40112W        W12427  32.576  25.634   0.358
40113W        W12428   5.275  35.493  14.495
40114W        W12429  38.460   4.264   0.951
40115W        W12430  13.336  12.273  14.930
40116W        W12431  24.705  19.150   0.903
40117W        W12432  33.887  26.012  12.521
40118W        W12433  25.705  22.210   9.921
40119W        W12434  12.150  19.280   3.191
40120W        W12435  37.067  23.018  12.921
40121W        W12436  30.590   0.437   3.276
40122W        W12437  21.532  19.703   2.776
40123W        W12438   4.270  16.156   1.328
40124W        W12439  13.146  31.412   2.401
40125W        W12440  19.150   4.715   4.700
40126W        W12441  22.555  22.742  11.514
40127W        W12442  29.451  32.542  11.405
40128W        W12443  23.234  32.950  10.588
40129W        W12444  24.644   4.391  14.509
40130W        W12445   4.820  29.651  11.123
40131W        W12446   7.683  24.978  12.018
40132W        W12447  40.818  14.277  11.033
40133W        W12448  31.089   5.905  12.886
40134W        W12449  28.160  28.595  10.990
40135W        W12450   4.447  17.790  10.500
40136W        W12451  14.679  34.906  14.796
40137W        W12452  23.091   7.849   0.350
40138W        W12453  17.249  23.990  13.003
40139W        W12454  24.150   0.494   1.260
40140W        W12455   7.389   4.265  11.884
40141W        W12456   4.943  18.574   2.711
40142W        W12457   3.262  32.414  10.929
40143W        W12458  11.170  29.544  12.086
40144W        W12459   0.326  44.284  12.501
40145W        W12460  43.444  31.639   3.306
40146W        W12461   7.880  29.478  14.788
40147W        W12462  30.601  18.721   0.796
40148W        W12463  43.789   2.806   3.671
40149W        W12464  11.303  33.077   4.230
40150W        W12465  37.915  38.552  10.641
40151W        W12466  38.379  26.036  10.518
40152W        W12467   7.854  34.989   1.763
40153W        W12468   5.316   6.736   3.329
40154W        W12469  20.218  11.841  11.421
40155W        W12470  33.972  26.525  11.087
40156W        W12471  37.530  44.975  10.916
40157W        W12472   9.818   6.362   4.666
40158W        W12473  27.497  25.152  10.612
40159W        W12474  13.126  34.528  10.624
40160W        W12475  18.670  18.130   3.170
40161W        W12476  25.112  14.130  10.522
40162W        W12477  17.132  11.230  11.571
40163W        W12478  36.588  41.331  13.865
40164W        W12479  27.082   6.418   1.380
40165W        W12480  41.390  20.035  12.524
40166W        W12481   0.892  18.187   2.267
40167W        W12482  19.172  43.510   2.819
40168W        W12483  27.956  39.026   0.727
40169W        W12484  24.065  17.099   3.828
40170W        W12485  22.674  14.096   2.270
40171W        W12486   1.262  37.391  10.978
40172W        W12487  14.306  10.737   4.235
40173W        W12488  13.222  37.520   2.296
40174W        W12489  20.606  22.523  12.563
40175W        W12490   4.400   9.865  11.424
40176W        W12491   8.742  31.999  10.627
40177W        W12492  12.244   0.756   1.852
40178W        W12493  40.041   0.301  11.409
40179W        W12494  13.200  32.093   1.900
40180W        W12495  39.054  19.779   0.914
40181W        W12496   8.183  31.489   1.242
40182W        W12497  37.842  38.494   3.151
40183W        W12498   1.271  22.596  13.874
40184W        W12499  23.097  17.102   4.831
40185W        W12500  31.902  27.976   1.400
40186W        W12501   7.766  35.413   0.403
40187W        W12502  28.162   9.851   4.827
40188W        W12503  20.731  16.732   3.820
40189W        W12504   0.762  16.285  11.400
40190W        W12505  31.070  15.137  11.947
40191W        W12506  26.649   3.857  11.414
40192W        W12507  31.477  33.461  11.877
40193W        W12508  32.945  15.621  13.856
40194W        W12509   9.338  11.233   1.822
40195W        W12510   9.263  18.620   0.387
40196W        W12511  32.537  24.186  13.836
40197W        W12512   3.727  40.869   2.841
40198W        W12513  24.187  43.884   2.260
40199W        W12514  34.064  33.891   0.301
40200W        W12515  21.741  14.717   0.808
40201W        W12516   8.685  22.043  13.433
40202W        W12517  37.997  35.453   0.879
40203W        W12518   8.682  27.045   4.240
40204W        W12519  31.555   6.869   0.451
40205W        W12520  32.606   8.252  11.451
40206W        W12521  40.330  25.138  12.087
40207W        W12522   9.392  42.499   2.796
40208W        W12523  33.059   1.285   4.669
40209W        W12524  32.948   5.370  14.816
40210W        W12525   8.294   2.859  11.486
40211W        W12526  18.687  38.959   1.800
40212W        W12527  32.504  21.134  12.458
40213W        W12528  41.464  24.639  13.004
40214W        W12529  39.815   8.215   2.815
40215W        W12530  24.083  13.218  13.901
40216W        W12531  10.755  21.528  12.364
40217W        W12532   4.787  22.135   2.727
40218W        W12533   4.206  24.532   0.274
40219W        W12534  21.526  31.476  14.971
40220W        W12535  26.020  23.120   4.235
40221W        W12536  25.160  20.723  12.056
40222W        W12537  35.417  22.219   0.886
40223W        W12538  34.543  43.887   0.406
40224W        W12539  32.597  34.394   3.310
40225W        W12540  36.593  44.338  14.869
40226W        W12541   4.414  28.470   2.783
40227W        W12542  18.565  41.827  14.401
40228W        W12543  28.043  23.180   4.317
40229W        W12544  20.553  29.531   0.270
40230W        W12545  36.502  26.637  12.544
40231W        W12546  31.044  32.510   1.225
40232W        W12547  38.858  22.596   0.255
40233W        W12548  16.807  19.586  11.518
40234W        W12549   4.812  44.286   9.986
40235W        W12550  37.996  23.574  14.302
40236W        W12551   5.868  11.711  12.003
40237W        W12552  16.617  25.150  13.994
40238W        W12553  25.531   1.394  13.341
40239W        W12554  31.052  40.885  12.576
40240W        W12555  35.555  41.327  10.610
40241W        W12556  38.504  28.571  11.563
40242W        W12557  41.940  16.186   1.366
40243W        W12558  36.408  25.703  13.009
40244W        W12559  41.980   1.318   4.776
40245W        W12560  14.800  11.288  13.931
40246W        W12561  27.003   6.910  12.836
40247W        W12562  37.569  24.054  13.438
40248W        W12563  15.241   9.695   0.366
40249W        W12564  29.114  33.580  10.532
40250W        W12565   6.730  32.103   2.808
40251W        W12566   2.960  32.120   3.749
40252W        W12567  29.960  31.141  10.556
40253W        W12568  37.400  35.370   0.243
40254W        W12569   1.306  30.586  11.960
40255W        W12570  30.579  32.045   1.251
40256W        W12571  37.361   1.875  12.521
40257W        W12572  14.232  30.597   1.716
40258W        W12573  38.518  23.068   1.248
40259W        W12574  38.427  32.492   1.934
40260W        W12575  23.645  42.031  11.924
40261W        W12576  10.702  28.562   3.237
40262W        W12577   5.337  23.504   3.261
40263W        W12578  40.051  21.192  11.528
40264W        W12579  17.557  28.447  11.404
40265W        W12580   5.433  16.811   0.275
40266W        W12581   5.817   1.944   1.239
40267W        W12582  17.702  11.365   4.216
40268W        W12583  21.545  20.226  12.911
40269W        W12584  28.639  39.422   0.419
40270W        W12585  30.530  33.935  12.580
40271W        W12586  10.240  27.070   2.270
40272W        W12587  37.884  10.745   0.942
40273W        W12588  32.584  40.347   1.850
40274W        W12589   6.678  32.062  13.797
40275W        W12590   2.456  43.467  14.853
40276W        W12591   4.369  12.181  12.913
40277W        W12592  36.473   3.844   2.367
40278W        W12593   1.273  13.770  10.464
40279W        W12594  33.057  21.604   1.267
40280W        W12595   3.854  27.628   4.273
40281W        W12596  42.898  12.333   4.628
40282W        W12597   8.840   2.324   3.279
40283W        W12598  41.830  36.972  14.290
40284W        W12599  18.602  15.153  11.065
40285W        W12600  25.623  43.921  14.027
40286W        W12601  39.418   8.160   4.767
40287W        W12602  34.449  33.132   2.752
40288W        W12603  36.996  20.186  11.911
40289W        W12604  38.909  11.830   1.298
40290W        W12605  34.070  21.236  10.044
40291W        W12606  23.178  11.637  11.470
40292W        W12607   3.821  12.173   0.482
40293W        W12608  40.868  27.990   3.215
40294W        W12609  44.472   6.311  10.896
40295W        W12610   3.258  11.689  11.908
40296W        W12611  34.885  16.584   0.355
40297W        W12612  14.813  34.580  12.909
40298W        W12613   7.313  42.380   3.367
40299W        W12614  33.116  43.942   4.192
40300W        W12615  15.156  40.528   3.317
40301W        W12616   5.814  36.063   0.384
40302W        W12617  33.905   3.322  12.889
40303W        W12618  35.087  14.808  12.014
40304W        W12619  14.820  22.132  13.334
40305W        W12620  16.704  32.143  11.005
40306W        W12621  37.062  21.700  13.352
40307W        W12622  23.100  38.555   2.900
40308W        W12623  40.549  44.889   3.675
40309W        W12624  12.797  22.213  13.418
40310W        W12625   0.845   5.798   4.751
40311W        W12626   0.441   8.187   4.224
40312W        W12627   6.261  20.669   1.436
40313W        W12628  37.962  20.181  11.088
40314W        W12629  35.987  31.509  10.620
40315W        W12630  17.286   8.324   2.270
40316W        W12631   0.785  28.643   3.165
40317W        W12632  19.739  37.514   1.433
40318W        W12633  14.662  31.475   0.735
40319W        W12634  28.438  21.666  13.036
40320W        W12635  22.662   1.898   1.894
40321W        W12636   1.858   4.438   4.612
40322W        W12637  16.689  27.692  14.324
40323W        W12638  32.397  29.596  12.517
40324W        W12639  29.436   7.414  12.864
40325W        W12640  25.494  44.439  11.891
40326W        W12641   0.770  32.411  13.359
40327W        W12642   7.679  44.919   3.386
40328W        W12643  33.981  10.674  11.525
40329W        W12644  33.435  34.907   4.648
40330W        W12645  39.039   3.230  14.830
40331W        W12646  16.631  28.966   3.242
40332W        W12647  41.948  24.684   3.161
40333W        W12648  26.008   1.472   3.647
40334W        W12649  37.558  40.960   2.783
40335W        W12650  10.784  17.738   4.753
40336W        W12651  20.150  29.164   0.318
40337W        W12652  38.040  37.018  14.821
40338W        W12653  33.058  36.044   2.228
40339W        W12654  25.561  43.015   2.181
40340W        W12655  42.021  31.104  13.981
40341W        W12656  31.525  10.242   2.314
40342W        W12657   8.680  34.066   0.780
40343W        W12658   4.328  36.907   3.657
40344W        W12659   6.774  11.841   1.706
40345W        W12660  27.683  27.135   4.787
40346W        W12661  18.086  23.089   0.910
40347W        W12662  43.302  27.488   1.710
40348W        W12663  29.662  44.500  12.494
40349W        W12664  43.826  17.273   4.137
40350W        W12665  21.194  44.295  13.961
40351W        W12666  32.964  34.018  13.793
40352W        W12667  20.059   6.264   5.182
40353W        W12668  25.547  33.443   1.834
40354W        W12669  31.118  43.516  12.429
40355W        W12670  23.612  19.045  13.377
40356W        W12671  23.559  35.455  10.645
40357W        W12672  25.633   5.693  10.614
40358W        W12673  19.191   9.204  13.417
40359W        W12674   8.286  28.625  11.456
40360W        W12675  24.570   4.210   0.962
40361W        W12676  33.518  25.153   2.262
40362W        W12677  26.611  30.517   5.226
40363W        W12678  23.549  17.164   0.823
40364W        W12679  25.985   8.681  11.447
40365W        W12680   2.770  20.205  12.867
40366W        W12681  32.901  16.084   4.250
40367W        W12682  44.416  34.967  12.393
40368W        W12683  40.989  28.069   2.841
40369W        W12684  24.010  42.900   2.406
40370W        W12685  17.591  10.160  12.560
40371W        W12686  21.065  19.724   3.661
40372W        W12687  14.107   3.879   1.433
40373W        W12688  29.473  10.362   4.638
40374W        W12689   2.231  18.290   0.831
40375W        W12690   2.231   8.167  13.929
40376W        W12691  25.147  11.345  13.843
40377W        W12692  39.876  26.151   2.722
40378W        W12693  22.251  21.174  12.387
40379W        W12694  34.451  38.481  10.474
40380W        W12695  41.028  10.806  12.863
40381W        W12696  19.268   8.230  14.333
40382W        W12697  42.932  42.311  14.791
40383W        W12698  25.665   2.722   0.925
40384W        W12699  14.824  23.117  10.981
40385W        W12700  14.305  36.976  12.985
40386W        W12701  15.300  21.620   2.214
40387W        W12702  42.805  24.526  11.969
40388W        W12703   2.353  38.492  13.905
40389W        W12704  16.632  34.957   2.340
40390W        W12705  16.696  11.319   3.822
40391W        W12706  12.276  34.568  12.951
40392W        W12707  21.602  17.113   2.774
40393W        W12708  10.138  14.743  12.896
40394W        W12709  37.884  16.588  14.963
40395W        W12710  24.620  29.461  13.420
40396W        W12711   7.173  29.008   2.278
40397W        W12712  11.363  25.142  12.077
40398W        W12713  35.867  31.469   1.402
40399W        W12714  42.999  39.882   2.856
40400W        W12715  31.093  14.661   0.298
40401W        W12716  15.288  44.431   2.814
40402W        W12717  15.121  27.503  11.898
40403W        W12718  40.453  13.695  11.578
40404W        W12719  33.914   5.780   2.848
40405W        W12720  21.084  17.277  11.424
40406W        W12721  35.477  21.553  12.568
40407W        W12722  29.536  37.040  14.894
40408W        W12723   7.196   9.373  11.067
40409W        W12724  39.928   2.752  14.008
40410W        W12725  25.009  22.090  14.365
40411W        W12726  40.322  36.523  12.998
40412W        W12727  34.078  34.592   2.698
40413W        W12728  33.028  32.530  12.070
40414W        W12729  14.790   2.781   0.335
40415W        W12730  28.642   4.778  13.517
40416W        W12731  18.731   8.190   2.284
40417W        W12732  22.245  18.614   3.840
40418W        W12733  26.177  30.644   2.704
40419W        W12734  29.056   2.322  14.884
40420W        W12735   5.279  13.213  10.991
40421W        W12736  25.097  11.320  11.858
40422W        W12737  10.352  21.618   1.815
40423W        W12738  44.817  17.582  12.530
40424W        W12739   3.433  13.317   0.918
40425W        W12740  34.433  39.898  12.438
40426W        W12741   5.712  38.548   3.240
40427W        W12742   6.771  31.406   0.810
40428W        W12743  42.884   3.779   2.178
40429W        W12744  18.211  38.835  13.422
40430W        W12745  25.517  37.028  13.543
40431W        W12746  16.174  40.949   1.920
40432W        W12747  44.984  35.026  13.359
40433W        W12748  11.697  20.107  10.512
40434W        W12749   3.886  20.578   4.799
40435W        W12750  27.042  34.933   2.883
40436W        W12751   2.778  36.018  14.804
40437W        W12752   0.310  14.626   2.737
40438W        W12753  33.519  10.723  13.368
40439W        W12754  14.734   2.887   1.276
40440W        W12755   6.357  24.199   0.318
40441W        W12756  34.565  12.659  10.531
40442W        W12757  35.379   1.372   1.363
40443W        W12758  25.156  41.345   2.401
40444W        W12759  24.093  24.077  13.923
40445W        W12760  13.334  12.343   2.243
40446W        W12761  15.261  18.620   2.283
40447W        W12762  17.090  11.814   5.293
40448W        W12763   0.765  37.036   0.809
40449W        W12764  25.028  11.216  13.501
40450W        W12765  37.033  43.938   0.306
40451W        W12766  12.783  10.639  11.072
40452W        W12767  11.652  21.527   3.246
40453W        W12768  33.019   2.347   2.228
40454W        W12769  13.661   4.306   1.409
40455W        W12770   9.745  40.893   3.740
40456W        W12771   6.303  13.681   0.366
40457W        W12772  17.201  12.183  12.868
40458W        W12773  44.790  35.478  12.853
40459W        W12774  38.032  24.207  10.898
40460W        W12775  19.756  40.426   5.228
40461W        W12776  24.122  10.862   3.661
40462W        W12777  30.005  31.426   1.800
40463W        W12778  37.876  30.070  12.373
40464W        W12779  32.476  44.818  10.502
40465W        W12780  15.256  22.170   0.257
40466W        W12781  29.561   7.760  12.394
40467W        W12782  20.147  24.072  13.396
40468W        W12783  25.997  41.937   2.712
40469W        W12784  20.544   2.865   2.843
40470W        W12785  21.239  41.815  13.400
40471W        W12786   6.244  38.479  11.440
40472W        W12787  22.527   0.368   2.314
40473W        W12788  28.020  34.929   0.346
40474W        W12789  32.046  22.528  13.520
40475W        W12790  37.494  23.668  14.354
40476W        W12791  19.084  33.904   4.772
40477W        W12792  36.575  25.982   3.334
40478W        W12793  19.210   7.698  11.996
40479W        W12794  23.060  41.488   0.853
40480W        W12795  27.600  25.136   4.167
40481W        W12796  10.816  29.653  11.964
40482W        W12797  43.274  23.040   2.720
40483W        W12798   7.226  17.601  12.041
40484W        W12799  10.356   5.746   2.871
40485W        W12800   0.903  18.774  11.496
40486W        W12801   0.323  17.635   0.779
40487W        W12802  20.694   1.917   1.333
40488W        W12803  10.202  44.418  12.031
40489W        W12804  33.042  22.090   0.387
40490W        W12805  15.823  10.664   3.224
40491W        W12806  10.353  41.010  13.361
40492W        W12807  21.192  12.352  10.430
40493W        W12808  31.503  41.954   4.320
40494W        W12809   0.849  26.608  10.912
40495W        W12810  15.259   0.870  11.064
40496W        W12811  22.657  14.193   0.830
40497W        W12812  22.664  19.657  11.384
40498W        W12813  20.589  34.031  10.951
40499W        W12814  16.307  12.306   4.724
40500W        W12815  18.269   1.383  10.496
40501W        W12816  26.184   5.900  14.508
40502W        W12817  19.707  34.933  11.888
40503W        W12818   6.246  41.383   1.404
40504W        W12819   7.862  21.144   4.600
40505W        W12820  11.724  32.124   0.763
40506W        W12821   1.298  22.238   3.234
40507W        W12822  36.866  18.280   0.366
40508W        W12823  38.566   8.237  14.320
40509W        W12824   3.717   3.911   1.759
40510W        W12825  30.138   8.396   3.846
40511W        W12826  23.512  13.695  10.437
40512W        W12827   9.798  13.127   3.347
40513W        W12828   2.770  34.503   4.195
40514W        W12829  11.769   8.882   3.214
40515W        W12830   9.887  33.053  13.946
40516W        W12831  36.848  22.614   3.661
40517W        W12832  31.463  14.151  13.354
40518W        W12833  16.233  13.659  10.945
40519W        W12834  24.198  39.460  11.018
40520W        W12835  19.065   8.182   1.288
40521W        W12836   1.905  43.292  11.866
40522W        W12837  32.505   8.395   0.386
40523W        W12838   4.260  32.528   2.876
40524W        W12839  19.692  17.566   1.355
40525W        W12840  31.643   1.467  11.423
40526W        W12841  15.591  38.468  13.314
40527W        W12842   1.836  18.607   1.787
40528W        W12843   0.354  41.431   1.735
40529W        W12844  33.397  12.814   0.401
40530W        W12845  24.568  19.584   9.921
40531W        W12846   3.753  20.029   0.871
40532W        W12847  28.640   9.161  14.984
40533W        W12848  28.513   3.825  11.486
40534W        W12849  13.334  40.511   0.764
40535W        W12850  40.922   5.357   0.925
40536W        W12851  36.391  21.647  11.384
40537W        W12852  28.033  34.904   2.783
40538W        W12853  41.008   1.347  14.506
40539W        W12854  10.325   2.736   0.328
40540W        W12855  24.706   5.250  14.877
40541W        W12856   2.371  22.014  13.824
40542W        W12857  44.946   6.213  12.395
40543W        W12858   7.283  21.017   0.792
40544W        W12859  35.534  39.937  10.451
40545W        W12860  20.182  20.652  14.853
40546W        W12861  25.007  38.363  12.940
40547W        W12862  34.377  19.659   1.390
40548W        W12863   8.188  11.739   2.751
40549W        W12864  39.910  42.823  12.963
40550W        W12865   8.897  20.731   2.197
40551W        W12866  35.971   4.234  13.519
40552W        W12867  28.550   4.738  14.767
40553W        W12868   9.885  43.777   0.749
40554W        W12869  13.686  25.572  14.466
40555W        W12870  29.432  30.480   0.761
40556W        W12871  17.106  22.031  14.946
40557W        W12872   5.698   4.294   0.902
40558W        W12873   7.304  18.562   1.272
40559W        W12874  30.574   0.968   2.730
40560W        W12875  20.547   4.938   1.264
40561W        W12876   0.294  18.051  11.124
40562W        W12877  16.602  37.357   1.873
40563W        W12878  40.844  40.850  12.454
40564W        W12879  39.545  28.064   1.898
40565W        W12880  33.028  33.463   1.229
40566W        W12881  26.545  34.120   2.691
40567W        W12882   4.277  39.874  14.302
40568W        W12883   4.810  30.577  11.408
40569W        W12884  24.993  39.852  13.919
40570W        W12885  34.956  38.844   2.326
40571W        W12886  20.530  27.606  11.930
40572W        W12887   7.860  37.444  14.872
40573W        W12888  26.059  38.829  11.070
40574W        W12889  11.709   9.849   1.820
40575W        W12890  40.932  10.642   4.126
40576W        W12891  34.508  43.339   3.382
40577W        W12892   9.360  26.986   1.739
40578W        W12893  31.568  35.394   2.796
40579W        W12894  20.741  43.353   0.861
40580W        W12895  19.237  36.485   4.258
40581W        W12896  34.564  18.115  10.542
40582W        W12897  41.814  38.994   0.392
40583W        W12898  41.858  33.907   3.153
40584W        W12899  15.765  10.342   5.208
40585W        W12900  28.510  14.734   4.750
40586W        W12901  44.487  12.699   4.243
40587W        W12902   6.231  37.457   0.418
40588W        W12903   2.398  21.736   4.648
40589W        W12904   3.458   9.888   1.339
40590W        W12905  21.593   2.426  13.401
40591W        W12906  30.472  42.315   4.165
40592W        W12907   1.745   5.917  14.287
40593W        W12908  30.477  41.801  13.441
40594W        W12909  33.543  27.185   3.818
40595W        W12910  15.803  26.080   1.800
40596W        W12911  31.902   7.713  11.494
40597W        W12912  35.445   4.888   0.308
40598W        W12913  24.214  14.779   0.939
40599W        W12914   5.233  38.906   1.916
40600W        W12915  27.472   0.279   2.708
40601W        W12916  24.186   1.333   0.322
40602W        W12917   9.365  40.995   3.695
40603W        W12918  41.956  38.968   2.229
40604W        W12919  13.797   2.352  11.478
40605W        W12920  23.034  34.463   2.322
40606W        W12921   6.725  24.185   4.816
40607W        W12922  13.195   6.784   0.291
40608W        W12923  42.916  34.004   4.799
40609W        W12924  19.579  40.530  10.526
40610W        W12925   9.772  31.543  12.470
40611W        W12926  32.126   5.906   2.205
40612W        W12927  33.402  35.381   4.621
40613W        W12928  34.953  38.916   4.231
40614W        W12929  32.559  14.828   3.359
40615W        W12930  37.070  39.961   2.294
40616W        W12931   6.194  38.931  11.049
40617W        W12932   3.916  34.509  10.942
40618W        W12933   6.267  44.422  13.987
40619W        W12934  25.080  34.429  12.997
40620W        W12935  10.292   7.364   0.439
40621W        W12936  21.259  43.837   1.774
40622W        W12937  42.287  27.486  13.440
40623W        W12938  18.662  42.314  14.834
40624W        W12939  30.568  42.807   2.771
40625W        W12940  24.654  42.425   4.260
40626W        W12941  38.533   9.237   2.798
40627W        W12942  20.032  27.166   0.244
40628W        W12943  21.241  33.051  11.379
40629W        W12944  20.213   6.272   3.150
40630W        W12945   1.258   4.439  12.019
40631W        W12946  40.048  12.809   3.778
40632W        W12947  24.659   6.767   2.311
40633W        W12948  40.047  24.573  12.567
40634W        W12949  39.817  17.241   3.165
40635W        W12950  26.094  27.078   1.864
40636W        W12951  15.599  30.005  11.952
40637W        W12952  10.691  31.948  11.086
40638W        W12953  38.841  17.212   5.275
40639W        W12954  43.422  10.774   4.280
40640W        W12955  34.421   6.892  11.035
40641W        W12956  15.764  36.045  14.977
40642W        W12957   6.865  18.623  14.019
40643W        W12958  39.321  11.832  12.042
40644W        W12959  43.289  19.146   0.437
40645W        W12960  38.923   5.724  14.393
40646W        W12961  21.124  30.543   2.325
40647W        W12962  27.049  11.298  10.631
40648W        W12963  42.002  32.466  11.519
40649W        W12964  12.151  34.563   2.705
40650W        W12965   8.695  22.620   0.922
40651W        W12966  25.697   8.743   0.846
40652W        W12967  31.446   8.289   2.181
40653W        W12968   8.323  30.074   3.790
40654W        W12969  30.032  37.449   2.752
40655W        W12970  42.032  14.284   5.283
40656W        W12971  20.095  32.468  14.998
40657W        W12972  19.708  32.058  11.067
40658W        W12973  43.326  33.419  13.421
40659W        W12974  17.780  14.299   3.718
40660W        W12975  10.209  23.490  13.815
40661W        W12976  18.760  28.605   3.812
40662W        W12977   8.778   9.334   2.796
40663W        W12978   0.487  41.452  12.523
40664W        W12979  40.302   1.838   2.328
40665W        W12980  15.218  25.048   1.787
40666W        W12981   4.233  13.663   4.175
40667W        W12982  21.173  43.848   0.925
40668W        W12983   1.239  22.110  12.834
40669W        W12984  23.490  15.260   2.254
40670W        W12985  35.509   0.295  13.320
40671W        W12986  31.598   4.844   4.613
40672W        W12987  12.239  12.329   0.901
40673W        W12988  43.885  28.175  13.308
40674W        W12989   1.447  17.290  14.976
40675W        W12990  22.010  20.172   1.856
40676W        W12991  43.374  32.089  11.449
40677W        W12992  32.026  19.566   2.330
40678W        W12993  20.749  22.502   4.749
40679W        W12994  37.867  23.204  14.441
40680W        W12995  15.131   6.391   1.871
40681W        W12996   2.235  15.751  12.445
40682W        W12997  39.417   2.361  12.411
40683W        W12998   1.825  35.105  13.380
40684W        W12999  24.134  38.900   2.748
40685W        W13000  25.028  28.964   4.799
40686W        W13001  31.896  38.342  14.889
40687W        W13002  34.001   1.946   2.199
40688W        W13003  12.779  22.131  11.003
40689W        W13004  40.957  25.666   1.297
40690W        W13005  40.344  16.145   2.275
40691W        W13006   6.692  20.243   2.367
40692W        W13007   4.343  24.613  10.572
40693W        W13008  34.468  20.560  11.966
40694W        W13009  26.038  35.001   2.708
40695W        W13010  28.661  42.490  11.486
40696W        W13011   3.843   2.950   1.423
40697W        W13012  20.158  13.722   2.818
40698W        W13013   5.688  44.379   2.737
40699W        W13014  29.529  21.261   4.619
40700W        W13015  14.717  41.444  12.340
40701W        W13016   7.408  14.174  13.948
40702W        W13017  17.692  11.271  12.087
40703W        W13018  15.144  29.509  10.570
40704W        W13019  26.995   7.687   2.756
40705W        W13020  31.415  42.301   4.823
40706W        W13021  16.707  12.729   1.359
40707W        W13022  44.003   1.368   3.844
40708W        W13023  11.288  31.487  13.941
40709W        W13024  22.221  19.608  10.045
40710W        W13025   7.237  33.944  13.386
40711W        W13026  18.738  39.427  12.926
40712W        W13027  40.877   1.459   1.295
40713W        W13028   7.683  27.955  11.559
40714W        W13029   1.360  12.296   3.311
40715W        W13030  39.906   2.925   1.827
40716W        W13031   3.256  12.276  12.908
40717W        W13032  13.694  25.985   1.279
40718W        W13033  26.470  27.519   2.694
40719W        W13034  41.376  28.169   3.735
40720W        W13035  44.328  42.784  13.874
40721W        W13036  14.166  36.952   1.708
40722W        W13037  15.217  37.429   4.150
40723W        W13038  10.345  24.629  11.071
40724W        W13039  38.524   8.343   4.156
40725W        W13040  21.750  20.564   5.618
40726W        W13041  30.160  37.088   0.954
40727W        W13042  14.096  23.590  10.890
40728W        W13043  27.126  27.632  13.409
40729W        W13044  39.859  15.316   3.697
40730W        W13045  28.565   4.254  14.806
40731W        W13046  31.010  37.860   4.183
40732W        W13047  35.578  33.394   3.211
40733W        W13048   1.735  14.120   3.737
40734W        W13049  22.584  23.141  13.874
40735W        W13050  35.993   2.943   1.217
40736W        W13051   0.914  22.191  12.532
40737W        W13052  15.793   6.340   4.808
40738W        W13053  25.090  39.001   4.648
40739W        W13054  11.797  35.471  13.795
40740W        W13055  29.162   4.876   4.607
40741W        W13056  33.487  17.594   3.244
40742W        W13057   7.401  36.465   3.184
40743W        W13058  34.080  16.793   1.293
40744W        W13059  14.268  10.357   2.408
40745W        W13060   0.978  28.479   1.447
40746W        W13061  14.291  26.037  11.552
40747W        W13062  19.747   4.815   4.147
40748W        W13063  32.579  14.656  10.491
40749W        W13064  38.997   1.845   4.836
40750W        W13065  35.404  23.542  14.996
40751W        W13066   1.755   7.879   2.271
40752W        W13067  11.697  27.455   3.728
40753W        W13068  25.474  40.307   1.770
40754W        W13069  38.065  39.521   0.454
40755W        W13070  38.327  13.629   1.247
40756W        W13071  42.379  25.614  11.878
40757W        W13072   6.731   0.908   1.906
40758W        W13073   0.439   3.858  12.930
40759W        W13074  40.436  41.320   1.297
40760W        W13075  32.111  28.011   0.890
40761W        W13076  16.638  21.637   4.228
40762W        W13077   6.781  14.655   2.393
40763W        W13078  27.049   6.234   5.216
40764W        W13079  37.890   4.801  10.905
40765W        W13080  30.051  28.591  14.016
40766W        W13081  11.303  37.406   1.447
40767W        W13082  36.075  23.577  12.474
40768W        W13083  12.787  36.071  14.800
40769W        W13084   5.727  11.711   1.394
40770W        W13085  24.684  26.969  12.029
40771W        W13086  25.164  42.374  12.027
40772W        W13087   9.343  35.983   0.778
40773W        W13088  37.977  44.885  14.333
40774W        W13089  17.608  44.348   3.662
40775W        W13090  40.364   8.685  10.609
40776W        W13091  40.930  34.941  10.485
40777W        W13092   5.346   7.905   3.667
40778W        W13093   9.305  30.473   0.738
40779W        W13094   6.697  43.850  13.940
40780W        W13095  29.042  24.068  11.573
40781W        W13096  41.814  22.649  14.342
40782W        W13097  33.095  36.454  13.936
40783W        W13098  10.836  21.666   3.868
40784W        W13099  38.950  43.911  11.974
40785W        W13100  24.993  28.642  10.483
40786W        W13101  38.415  14.278   3.652
40787W        W13102  10.175  23.240   1.256
40788W        W13103   1.388  44.328   3.303
40789W        W13104   9.276  13.786   3.346
40790W        W13105  31.925  18.758  14.007
40791W        W13106   5.415  23.716  11.959
40792W        W13107  22.620  34.885   0.905
40793W        W13108  21.655  35.881   1.820
40794W        W13109  12.223  40.374   4.654
40795W        W13110   1.854   3.717  14.971
40796W        W13111  42.292   8.739  14.764
40797W        W13112   2.401  21.682   1.305
40798W        W13113  13.313   4.442  11.552
40799W        W13114  44.260  23.998   3.304
40800W        W13115  35.892   6.407   0.839
40801W        W13116  29.495  18.660  12.917
40802W        W13117   6.391  21.558   3.263
40803W        W13118  26.682  26.119   4.243
40804W        W13119   7.773  12.717  10.979
40805W        W13120  39.882  42.482   0.284
40806W        W13121   8.759  44.808  10.927
40807W        W13122  23.048   0.392  13.341
40808W        W13123  20.141  37.018   2.756
40809W        W13124  29.516  30.020  14.978
40810W        W13125  19.206  39.465   0.392
40811W        W13126  13.734  29.933  12.895
40812W        W13127  16.095   2.437  11.538
40813W        W13128  13.716  19.136   3.784
40814W        W13129  19.555  10.250   3.689
40815W        W13130  12.267   1.870  11.052
40816W        W13131  25.141  42.325  11.539
40817W        W13132  43.413  41.385   4.125
40818W        W13133  42.397   3.357   0.962
40819W        W13134  13.191  30.599  13.841
40820W        W13135  10.179   0.328   2.245
40821W        W13136  16.783  27.116  13.317
40822W        W13137  18.654   0.436   0.362
40823W        W13138  21.054  17.177   2.344
40824W        W13139  33.427   9.391  14.282
40825W        W13140  28.509  32.984   4.759
40826W        W13141  38.042   1.826  12.408
40827W        W13142  28.676  43.419   3.631
40828W        W13143  35.852  42.931  11.908
40829W        W13144   7.899  20.713  12.888
40830W        W13145   1.458  15.319  10.540
40831W        W13146  31.972   1.262  11.914
40832W        W13147  20.547  37.844   0.927
40833W        W13148  17.781   2.229   3.683
40834W        W13149  23.057   5.927   4.615
40835W        W13150  19.238   0.283  11.857
40836W        W13151  43.302  32.934   3.385
40837W        W13152   4.785  38.012   3.166
40838W        W13153  40.873  36.989   3.150
40839W        W13154  37.402  18.655   2.394
40840W        W13155  12.628  39.495   3.270
40841W        W13156  15.764  22.168   5.259
40842W        W13157   6.415  39.816  14.311
40843W        W13158   1.803  27.649  13.444
40844W        W13159  19.615   7.845   4.250
40845W        W13160  16.178   5.261   1.841
40846W        W13161   8.294   7.858   0.344
40847W        W13162  32.502  17.624   1.696
40848W        W13163  28.568   1.760  13.813
40849W        W13164  14.123   3.829  14.774
40850W        W13165  12.780  36.973   3.286
40851W        W13166  42.925  19.739   0.351
40852W        W13167   0.758  44.759  13.474
40853W        W13168  10.351  20.672  10.635
40854W        W13169  28.010  30.147  11.963
40855W        W13170   1.800  12.781  13.479
40856W        W13171  35.075  34.952  11.572
40857W        W13172  19.160  14.340   3.848
40858W        W13173  19.642   0.408  13.373
40859W        W13174  35.471   4.302  13.391
40860W        W13175  32.522  23.684  13.993
40861W        W13176  44.817  28.186   0.933
40862W        W13177  12.223  34.975  13.010
40863W        W13178  29.504   7.796  13.823
40864W        W13179  29.951   9.220   0.333
40865W        W13180  11.133  12.840  13.498
40866W        W13181  28.647   9.845   3.692
40867W        W13182  17.111  43.998  11.557
40868W        W13183  35.072  21.263   4.732
40869W        W13184  12.805  41.449   0.384
40870W        W13185  41.387  26.672   4.312
40871W        W13186  44.811  31.559   4.167
40872W        W13187   4.731  32.108  13.927
40873W        W13188  35.460  14.299  10.564
40874W        W13189  10.635  33.058   2.873
40875W        W13190   0.349  40.843  10.492
40876W        W13191   6.817   3.768   3.643
40877W        W13192  26.987  13.670  10.431
40878W        W13193  43.421   6.893   0.306
40879W        W13194  15.144  30.450  11.538
40880W        W13195  26.965  25.631  13.326
40881W        W13196  20.274  35.978   0.941
40882W        W13197  34.071   0.769   3.290
40883W        W13198  41.844  19.085  11.545
40884W        W13199  22.105  12.696  10.580
40885W        W13200  38.436  32.414  12.992
40886W        W13201   7.191  30.010  12.400
40887W        W13202  22.525  37.505  13.486
40888W        W13203  11.321  19.202  11.476
40889W        W13204  26.691  32.542   4.771
40890W        W13205  26.642  10.679   1.763
40891W        W13206   6.409  42.319  14.933
40892W        W13207  23.214  28.136  11.093
40893W        W13208  43.804  22.098  10.477
40894W        W13209  16.197  35.866  11.441
40895W        W13210  27.449  39.864  11.481
40896W        W13211  13.221  31.574   0.959
40897W        W13212   4.435  16.256   2.203
40898W        W13213  15.157  40.912   0.867
40899W        W13214  41.335   9.178   4.823
40900W        W13215   1.833  25.113   2.894
40901W        W13216  10.336  26.539   4.198
40902W        W13217  43.273  18.691  11.557
40903W        W13218  13.814  36.519   4.717
40904W        W13219  28.122   8.670   2.685
40905W        W13220  25.198  15.604  14.392
40906W        W13221  19.752  25.066  14.919
40907W        W13222  12.784  27.946  14.015
40908W        W13223  16.163  18.171   2.807
40909W        W13224  38.530  33.012  11.068
40910W        W13225  27.043  10.764   2.750
40911W        W13226   5.213  33.392   2.406
40912W        W13227  13.317  25.652  11.467
40913W        W13228  14.753  41.381  13.876
40914W        W13229   0.937  24.155  14.422
40915W        W13230   6.790  40.417   2.682
40916W        W13231  34.379  12.339   3.658
40917W        W13232  18.293  28.121   2.319
40918W        W13233  21.718  37.044   2.396
40919W        W13234  18.247  44.293   2.877
40920W        W13235  30.973   0.882  14.467
40921W        W13236  24.677  44.455  10.565
40922W        W13237  34.985  44.263  13.467
40923W        W13238  23.138  10.138   2.755
40924W        W13239  11.826  39.511  10.930
40925W        W13240  14.269   4.250  13.438
40926W        W13241  25.545   6.803   4.656
40927W        W13242  14.151  31.138  14.879
40928W        W13243  22.576   8.832  14.382
40929W        W13244  19.661   2.778  10.999
40930W        W13245  16.623  36.502  12.387
40931W        W13246  39.422  25.549   4.211
40932W        W13247  15.693  33.612  11.926
40933W        W13248  43.867   0.783  13.876
40934W        W13249  24.080  35.039   1.344
40935W        W13250  26.074  25.165   0.351
40936W        W13251  39.047  29.974  14.984
40937W        W13252  26.659   7.691  14.484
40938W        W13253   3.449  41.362   3.671
40939W        W13254  25.183   9.232   0.457
40940W        W13255   8.293  18.549   4.700
40941W        W13256  15.178   7.261   2.765
40942W        W13257  19.711  25.473   2.253
40943W        W13258  12.167   8.200  11.401
40944W        W13259  15.237  23.617  12.567
40945W        W13260  40.050   2.445  13.831
40946W        W13261   8.725  31.076  13.362
40947W        W13262  27.140   3.308  12.006
40948W        W13263  13.815  25.664   1.715
40949W        W13264  40.358   7.261   3.689
40950W        W13265   0.288  32.583   3.321
40951W        W13266   7.862   2.428  13.900
40952W        W13267   7.877  26.146  12.916
40953W        W13268   0.938  30.139   2.410
40954W        W13269  11.686  41.316  14.830
40955W        W13270  31.594   1.777   3.339
40956W        W13271  36.490  26.002   0.824
40957W        W13272  41.403  10.314  10.966
40958W        W13273  42.382   0.883   3.705
40959W        W13274  35.409  29.512  10.498
40960W        W13275   3.422  41.912   5.318
40961W        W13276  44.262  10.644  12.344
40962W        W13277   7.806  39.964   3.652
40963W        W13278  21.133  31.981   4.681
40964W        W13279  17.695  35.375  13.487
40965W        W13280  11.687  43.358  14.410
40966W        W13281  24.620  39.515  11.877
40967W        W13282  27.033  16.659   2.684
40968W        W13283  17.756   5.269  12.052
40969W        W13284  32.979   8.819   3.808
40970W        W13285   3.715   8.325   4.132
40971W        W13286   7.703  32.918   4.608
40972W        W13287   3.923   5.850  14.315
40973W        W13288  35.396  33.404  11.946
40974W        W13289  17.086  24.100   5.311
40975W        W13290  18.236  42.840   0.877
40976W        W13291  35.917  12.200  10.436
40977W        W13292  43.930  15.677   1.796
40978W        W13293  22.009   2.729   4.221
40979W        W13294   8.275  17.569  10.534
40980W        W13295  34.380  38.563   2.895
40981W        W13296  34.609  13.737   3.320
40982W        W13297  40.539   9.204  13.548
40983W        W13298  36.408  30.059   0.479
40984W        W13299  41.978  26.509   3.767
40985W        W13300  43.300  35.492   3.699
40986W        W13301   1.758  38.827  13.333
40987W        W13302  38.933   0.942   1.880
40988W        W13303  30.509  28.046   2.262
40989W        W13304  44.908   6.845   3.171
40990W        W13305  18.092  18.565  11.393
40991W        W13306   0.888   1.305   3.241
40992W        W13307  17.063  24.711   1.736
40993W        W13308  34.034  12.659   0.899
40994W        W13309  33.026  12.831   2.194
40995W        W13310  30.949  28.515   2.893
40996W        W13311  20.199  29.565  13.451
40997W        W13312  39.451  44.461   4.759
40998W        W13313   2.748  17.645  11.390
40999W        W13314   6.879   0.934  14.964
41000W        W13315  42.971  13.315  13.873
41001W        W13316  43.308   5.830   0.821
41002W        W13317   7.877  40.932   3.323
41003W        W13318  23.106  28.599  10.519
41004W        W13319  11.737   6.367   2.732
41005W        W13320   5.352   7.902   4.631
41006W        W13321  37.350   3.903  10.896
41007W        W13322   9.795   9.777   1.367
41008W        W13323  24.147  17.659   0.813
41009W        W13324   1.252  31.961  12.088
41010W        W13325  15.756   2.467  13.890
41011W        W13326  30.021  15.192  14.791
41012W        W13327  14.141  20.245   2.345
41013W        W13328   1.759  36.887  12.044
41014W        W13329   2.302   2.756   1.909
41015W        W13330  29.128  11.792  12.356
41016W        W13331  17.781  16.198   2.700
41017W        W13332  18.093  17.618  14.020
41018W        W13333  40.367  35.063   5.317
41019W        W13334  17.627  23.111  11.487
41020W        W13335  30.580  16.685  13.947
41021W        W13336  40.325  42.850   2.699
41022W        W13337  19.071  25.995   0.838
41023W        W13338  39.490  27.137   0.813
41024W        W13339  39.451   7.260   3.714
41025W        W13340  37.934  41.453  10.492
41026W        W13341  19.565  17.718   0.860
41027W        W13342  36.379  36.990   0.285
41028W        W13343  35.514  11.673   1.249
41029W        W13344  13.694  32.046   3.790
41030W        W13345  41.406  37.359   0.481
41031W        W13346  13.301  38.530   0.963
41032W        W13347  11.855  15.694  12.551
41033W        W13348  24.673  37.388  14.381
41034W        W13349  21.256  28.475  14.029
41035W        W13350  43.372  24.064   1.405
41036W        W13351  25.011   5.313   0.343
41037W        W13352  23.539  40.507   1.236
41038W        W13353  36.348  11.781   4.180
41039W        W13354   9.250   7.345   0.736
41040W        W13355   6.711   1.848  11.395
41041W        W13356  33.550   1.736   3.312
41042W        W13357  10.826  17.648   4.164
41043W        W13358  33.069  11.660  10.609
41044W        W13359  23.515  17.778  11.966
41045W        W13360  40.452   5.875  10.553
41046W        W13361  16.302  37.569   3.243
41047W        W13362  27.467  15.088  14.936
41048W        W13363  28.050  30.641  13.059
41049W        W13364  38.518  15.151  12.558
41050W        W13365  29.648  30.108   4.763
41051W        W13366  13.277  22.234  13.396
41052W        W13367   2.252  22.631  13.818
41053W        W13368   7.366  14.681   1.695
41054W        W13369  31.411  29.558   4.813
41055W        W13370  15.205   2.253   4.774
41056W        W13371  38.398  15.776   9.958
41057W        W13372  25.707  37.878  11.014
41058W        W13373  36.046  25.022  12.933
41059W        W13374  31.948  11.712   3.790
41060W        W13375  42.466   1.926  11.892
41061W        W13376  23.648   1.266  11.938
41062W        W13377   3.456  12.766  12.971
41063W        W13378  44.842  29.941  12.530
41064W        W13379  12.202  38.375   4.188
41065W        W13380  20.551  39.340  12.443
41066W        W13381  16.116  14.829   4.161
41067W        W13382  34.595  30.460   3.660
41068W        W13383  26.959   6.421   0.253
41069W        W13384  41.794  13.282   1.404
41070W        W13385  43.765  23.561  10.966
41071W        W13386  43.370  18.713   3.361
41072W        W13387  29.493  43.784  14.839
41073W        W13388   1.957  39.506  13.523
41074W        W13389  42.341  35.369   2.271
41075W        W13390  31.025  24.069   0.374
41076W        W13391  32.138  43.305   2.745
41077W        W13392  36.869  10.219  13.008
41078W        W13393   5.775  28.536  11.920
41079W        W13394  39.493  24.592   1.261
41080W        W13395  34.437  28.499   3.331
41081W        W13396  24.187  32.094   2.368
41082W        W13397   0.873   2.732  12.495
41083W        W13398  11.796  35.061   0.319
41084W        W13399  35.456  17.715  11.872
41085W        W13400   2.732  24.654  14.434
41086W        W13401  42.975  23.608   1.351
41087W        W13402  43.337  24.225   4.711
41088W        W13403  39.001  16.310   2.213
41089W        W13404  35.869  41.913   1.230
41090W        W13405  39.873  30.950   4.797
41091W        W13406  10.251  35.536  11.424
41092W        W13407   4.769   0.482   9.940
41093W        W13408  40.420  44.913  13.018
41094W        W13409   7.352  18.199  14.774
41095W        W13410  34.445  15.292  10.600
41096W        W13411  12.848  27.988   4.741
41097W        W13412  23.138  44.789  13.856
41098W        W13413   5.311  13.616   2.382
41099W        W13414  24.212   6.755  13.007
41100W        W13415   6.827  35.425   3.699
41101W        W13416  20.121  17.102  12.446
41102W        W13417  25.578  38.336   1.219
41103W        W13418   1.396  38.822  14.473
41104W        W13419  20.548  10.716   4.254
41105W        W13420   2.855  23.647  13.310
41106W        W13421  28.468  41.997  10.992
41107W        W13422  27.652  38.355   2.763
41108W        W13423   8.710   2.324  13.500
41109W        W13424  38.489  14.655   2.749
41110W        W13425   0.445  39.838  13.061
41111W        W13426  21.110   8.883  10.935
41112W        W13427   5.745  29.992  10.939
41113W        W13428  42.467  18.611   0.910
41114W        W13429   6.396  30.423  12.058
41115W        W13430  26.596  32.076   2.687
41116W        W13431  28.625  41.319  13.964
41117W        W13432  44.470   8.383   4.757
41118W        W13433  31.497  32.418  13.870
41119W        W13434  19.208  13.114   1.741
41120W        W13435  20.174   0.382  14.820
41121W        W13436  10.242  42.476   0.326
41122W        W13437   3.856  36.382  12.450
41123W        W13438  23.699  17.627   1.697
41124W        W13439  44.811   3.920  14.901
41125W        W13440  42.346  19.203  11.977
41126W        W13441  24.617  35.538  11.097
41127W        W13442   0.482  39.932   2.846
41128W        W13443  20.063  10.296   2.284
41129W        W13444  24.599  43.346  11.878
41130W        W13445   9.177  39.372   0.385
41131W        W13446  23.207  38.031  13.913
41132W        W13447   2.938  26.469   3.788
41133W        W13448   6.242  26.625  12.565
41134W        W13449  21.661  32.935  10.431
41135W        W13450  42.413  25.504  13.939
41136W        W13451  22.704   9.835   2.796
41137W        W13452   8.279  11.281  12.084
41138W        W13453  38.550  31.026   1.718
41139W        W13454   2.373  20.073  14.320
41140W        W13455   1.471   8.824  13.002
41141W        W13456  35.088  16.265   3.269
41142W        W13457  13.351  36.938   4.335
41143W        W13458  31.469  19.539   3.242
41144W        W13459   4.320  38.461   3.770
41145W        W13460  40.510  38.552   4.146
41146W        W13461  16.313   8.225  13.492
41147W        W13462  15.187  31.571  12.033
41148W        W13463   6.359  19.681  13.356
41149W        W13464  33.075   2.246  14.890
41150W        W13465  44.472  29.091  12.880
41151W        W13466  11.838   2.919   2.288
41152W        W13467  28.972  14.317  10.951
41153W        W13468  35.020  37.413  10.427
41154W        W13469  24.140   8.225  10.633
41155W        W13470   7.178  22.100  12.035
41156W        W13471  10.302   0.329  10.917
41157W        W13472  22.191   0.815   0.448
41158W        W13473  16.220  33.876  13.816
41159W        W13474  43.366   1.760  14.804
41160W        W13475  28.965  31.929   1.911
41161W        W13476  22.190  39.474  13.979
41162W        W13477  41.377   0.378   2.402
41163W        W13478   7.694   9.159  11.890
41164W        W13479  43.469   0.948   2.756
41165W        W13480   2.926  12.681  12.464
41166W        W13481   4.448   2.280  14.483
41167W        W13482  30.422   7.336  11.987
41168W        W13483   8.210  33.914  12.085
41169W        W13484  43.789  24.079  14.031
41170W        W13485   6.396  34.053  12.080
41171W        W13486   7.336  32.456  11.604
41172W        W13487  11.225  41.368   1.213
41173W        W13488  44.918  38.325  11.032
41174W        W13489  29.582   8.853  10.078
41175W        W13490  25.038  41.003   4.203
41176W        W13491  31.470  38.955   3.809
41177W        W13492  16.092   6.225  11.931
41178W        W13493   7.906  19.622  11.867
41179W        W13494   1.801  31.958   3.825
41180W        W13495  32.514  42.387  13.396
41181W        W13496  14.721   4.269  10.993
41182W        W13497  24.123   0.756   2.720
41183W        W13498   6.826   4.856  12.916
41184W        W13499  42.987  44.302  11.544
41185W        W13500   3.906   4.757  12.059
41186W        W13501  27.446  41.391  13.321
41187W        W13502   9.666   1.779   0.364
41188W        W13503   6.228  36.538  12.016
41189W        W13504  28.601  24.080  14.508
41190W        W13505  42.866  23.081   4.272
41191W        W13506  34.477  38.903   1.910
41192W        W13507  31.042  22.079   0.845
41193W        W13508  22.074   6.740   2.400
41194W        W13509   4.412  21.724  10.973
41195W        W13510  19.609   3.251   2.353
41196W        W13511  10.787   9.243   4.735
41197W        W13512   9.289  13.770  13.516
41198W        W13513  18.058   1.397   1.741
41199W        W13514   0.867  37.531  11.586
41200W        W13515   2.792  42.307  10.489
41201W        W13516  25.529  42.318   2.696
41202W        W13517  44.326  41.433   5.183
41203W        W13518   7.788  40.544  10.126
41204W        W13519  26.091  27.993  13.048
41205W        W13520  39.027  33.019  14.342
41206W        W13521  44.948  16.605  14.318
41207W        W13522  38.068  28.534   2.732
41208W        W13523  26.050  19.217   2.324
41209W        W13524  11.248  25.614  12.462
41210W        W13525  41.368  28.996   0.882
41211W        W13526   6.784   3.923   4.612
41212W        W13527  16.760  31.915  12.417
41213W        W13528  26.114  20.534   3.302
41214W        W13529  26.040  20.227   2.305
41215W        W13530   0.789  17.094   2.239
41216W        W13531  32.077  13.772  12.499
41217W        W13532  26.650   4.783  13.007
41218W        W13533  18.586  43.802   1.868
41219W        W13534  34.528  16.748  12.459
41220W        W13535  12.194  33.589  12.496
41221W        W13536  20.578   5.284   0.953
41222W        W13537  16.650   6.776   3.695
41223W        W13538  29.014  44.964  10.608
41224W        W13539  13.105  44.926   3.273
41225W        W13540  25.092  24.563  13.938
41226W        W13541  10.270  43.820   2.318
41227W        W13542  44.358  38.381  13.987
41228W        W13543   6.215  23.506   1.382
41229W        W13544   3.840  37.385   2.242
41230W        W13545  24.022   4.216  11.524
41231W        W13546  12.829  26.086   1.244
41232W        W13547  22.055   4.223   0.479
41233W        W13548  18.117  44.879   2.694
41234W        W13549  42.478  21.553  12.913
41235W        W13550  12.178  41.340   1.272
41236W        W13551  33.025  40.942   0.746
41237W        W13552  40.441   4.405   2.728
41238W        W13553  36.410  34.434   0.334
41239W        W13554  31.516  13.666  13.319
41240W        W13555  12.660  40.317  12.090
41241W        W13556  10.679  37.458  12.009
41242W        W13557  33.389  16.238   2.393
41243W        W13558  17.068  18.088  12.342
41244W        W13559  23.695  21.090   2.870
41245W        W13560  25.550   1.906   3.218
41246W        W13561  34.959  22.223  14.773
41247W        W13562  36.509  15.744   0.823
41248W        W13563  11.135  22.723   1.810
41249W        W13564  22.038  34.047  14.432
41250W        W13565  37.074  27.663  12.426
41251W        W13566  36.926  40.817   1.872
41252W        W13567  37.528  27.136  10.890
41253W        W13568  12.788  33.987  10.499
41254W        W13569  13.270  38.453   3.690
41255W        W13570  18.645  21.215   0.797
41256W        W13571  20.082  21.712   3.783
41257W        W13572  14.225  44.898   2.390
41258W        W13573  33.123   2.342  12.530
41259W        W13574   6.422   3.290  12.899
41260W        W13575  41.370  27.467   3.177
41261W        W13576  26.172  22.240   3.666
41262W        W13577   1.891   2.750   3.789
41263W        W13578  32.142  33.509  14.909
41264W        W13579  28.138  34.988   0.741
41265W        W13580  27.680   0.459   0.751
41266W        W13581  11.662  31.486   4.804
41267W        W13582  32.495  17.136  12.518
41268W        W13583  36.410  11.312   3.641
41269W        W13584  13.241  13.206   0.376
41270W        W13585  37.542  38.825  11.516
41271W        W13586   4.885   4.448  12.530
41272W        W13587  34.545  27.189   0.279
41273W        W13588  42.000  43.472   0.893
41274W        W13589  32.946  27.666  13.894
41275W        W13590  35.960  37.968  12.408
41276W        W13591  12.321   4.301   4.133
41277W        W13592   1.943  39.029   1.369
41278W        W13593   9.693  10.855  14.502
41279W        W13594  20.066   5.829   1.747
41280W        W13595  19.723  22.649  13.837
41281W        W13596  19.221  35.898   2.325
41282W        W13597  30.007  28.525   3.782
41283W        W13598  44.922  18.567  10.099
41284W        W13599  19.245  32.943   3.787
41285W        W13600   9.311  37.358   2.843
41286W        W13601  15.173   7.192   2.225
41287W        W13602  39.317   7.230  13.999
41288W        W13603  19.276  24.131   1.391
41289W        W13604   3.415  21.261   0.836
41290W        W13605  10.822  10.738  13.448
41291W        W13606   0.429  42.322   1.846
41292W        W13607  14.280  24.560  14.023
41293W        W13608  21.196  19.278   0.856
41294W        W13609  16.611  43.802   3.332
41295W        W13610   5.825  38.038   3.270
41296W        W13611   2.750  31.530  13.466
41297W        W13612   9.168  33.069   3.738
41298W        W13613  43.309  20.155   3.182
41299W        W13614  29.144   5.728   9.499
41300W        W13615  13.732  17.161   0.299
41301W        W13616  13.772  21.233  13.470
41302W        W13617   5.858   0.802  13.382
41303W        W13618  13.599   2.261   3.718
41304W        W13619  43.986  13.694   3.674
41305W        W13620   9.241  21.540  12.472
41306W        W13621  23.135  43.807  11.585
41307W        W13622  43.442  14.829  13.548
41308W        W13623   3.352  15.641  12.076
41309W        W13624  26.552   7.298  11.502
41310W        W13625  37.964  29.532   4.340
41311W        W13626  18.614  36.948   4.149
41312W        W13627   3.217  38.399   2.869
41313W        W13628  41.953  42.298   2.877
41314W        W13629   1.861  13.781   3.286
41315W        W13630   9.707   6.301  11.558
41316W        W13631  33.471  44.382  12.342
41317W        W13632  14.668  10.663  12.092
41318W        W13633  22.619   3.319   4.287
41319W        W13634   0.368  13.162   4.334
41320W        W13635  12.763  14.273   2.757
41321W        W13636  13.627  21.088   0.814
41322W        W13637  34.932  40.022  13.877
41323W        W13638  33.888  23.710  13.818
41324W        W13639  37.039  16.302  10.998
41325W        W13640   9.288   5.776  14.485
41326W        W13641  30.072  39.422  11.897
41327W        W13642   4.760  22.738  14.817
41328W        W13643  44.326  36.507  13.859
41329W        W13644  13.223  24.668  12.529
41330W        W13645  17.120  40.498   5.280
41331W        W13646  36.020  42.422  12.066
41332W        W13647  39.349  37.924   0.271
41333W        W13648  10.249  40.943   0.301
41334W        W13649  43.281   3.307  10.437
41335W        W13650  10.878  26.552  12.570
41336W        W13651   6.321   7.902  11.444
41337W        W13652   0.269  21.182  12.079
41338W        W13653  33.122  19.263  13.868
41339W        W13654  36.006   4.429   4.299
41340W        W13655  30.566  27.174  13.464
41341W        W13656  26.681  22.653   3.263
41342W        W13657  40.850  13.131  11.605
41343W        W13658  24.051  37.957  11.535
41344W        W13659  43.788  28.494   3.839
41345W        W13660  31.606  39.437   3.358
41346W        W13661   6.394  12.768   3.794
41347W        W13662   9.242  35.881  14.953
41348W        W13663  32.986  12.771   4.138
41349W        W13664  22.250  33.117   4.718
41350W        W13665  35.412  27.532   0.409
41351W        W13666  12.768  32.526  13.338
41352W        W13667   0.751  12.179   4.644
41353W        W13668  15.715  44.813  14.779
41354W        W13669  22.188  10.636   1.225
41355W        W13670   8.726  19.083  12.426
41356W        W13671  12.678   2.754   3.179
41357W        W13672  25.486  34.546   1.447
41358W        W13673  19.056  27.967   0.761
41359W        W13674  28.476   7.345   4.658
41360W        W13675  32.399  24.218  10.607
41361W        W13676  22.248   3.333   0.370
41362W        W13677   3.742  39.872  10.999
41363W        W13678  13.708  28.980   0.754
41364W        W13679  15.814  16.619   1.725
41365W        W13680  22.090  35.948   2.767
41366W        W13681   4.306  26.070  10.536
41367W        W13682  14.648  32.083   2.706
41368W        W13683  23.591  38.422   1.935
41369W        W13684  20.028   2.393   0.329
41370W        W13685   2.417  24.660   0.831
41371W        W13686  18.114  26.569  11.917
41372W        W13687  19.625  41.324   0.245
41373W        W13688   1.972   7.190   2.257
41374W        W13689  33.022  12.292  10.505
41375W        W13690  24.009  44.401   0.738
41376W        W13691  30.509  22.056  10.627
41377W        W13692  38.508  16.282  12.018
41378W        W13693  26.697   7.262   1.366
41379W        W13694  13.750   9.743   0.807
41380W        W13695   4.222  33.985   2.376
41381W        W13696  25.105  12.279  12.022
41382W        W13697   0.299  42.366  14.306
41383W        W13698  44.814  38.994   2.878
41384W        W13699  31.605  15.280   1.736
41385W        W13700  36.034  44.387   0.850
41386W        W13701  32.954   3.737  14.769
41387W        W13702  10.244  26.497  12.057
41388W        W13703  17.275  30.649  11.398
41389W        W13704  32.107   6.215  11.439
41390W        W13705  19.576   6.884   4.322
41391W        W13706  33.500   0.795  12.863
41392W        W13707  44.994  39.366   1.321
41393W        W13708  19.685   8.684  13.403
41394W        W13709  30.511  16.601  12.988
41395W        W13710   9.711  44.868   1.396
41396W        W13711  17.606  26.174  14.464
41397W        W13712  41.925  40.835   1.757
41398W        W13713  34.110  21.210   1.262
41399W        W13714  43.010  12.637   0.732
41400W        W13715  43.993  14.795  12.996
41401W        W13716  20.591  37.570  13.310
41402W        W13717  18.250  15.778   3.813
41403W        W13718  41.960  25.173   0.728
41404W        W13719   8.814  35.907   4.695
41405W        W13720  12.659  38.825  10.643
41406W        W13721  28.039  15.731   1.363
41407W        W13722  42.858  22.082   2.831
41408W        W13723  17.138  39.038  13.998
41409W        W13724  39.500  36.922   0.781
41410W        W13725  33.066  44.316  13.857
41411W        W13726  30.135   5.358   1.320
41412W        W13727  30.952  20.639   1.356
41413W        W13728   8.762   0.493   2.813
41414W        W13729   0.287  33.415   1.294
41415W        W13730  29.630   0.848  11.015
41416W        W13731  12.317  38.556  12.580
41417W        W13732  15.811  24.139  11.462
41418W        W13733   3.311  12.716   0.876
41419W        W13734   0.786  34.114  12.528
41420W        W13735  41.420  38.414  13.025
41421W        W13736  44.432  29.580  11.913
41422W        W13737  37.059  38.363  12.036
41423W        W13738  35.056  10.290  12.008
41424W        W13739  12.794  32.047   2.830
41425W        W13740   2.267  13.286  12.020
41426W        W13741   1.389  27.547  14.463
41427W        W13742  27.455  23.043  14.477
41428W        W13743  12.654  27.143  11.880
41429W        W13744  28.459  22.735   4.680
41430W        W13745  36.451  25.495  13.482
41431W        W13746  34.487  33.517  11.064
41432W        W13747  26.489  11.184   1.232
41433W        W13748   0.973  14.689   2.681
41434W        W13749  14.257  36.581   4.212
41435W        W13750  17.295  43.505  12.910
41436W        W13751  10.318  20.041   2.185
41437W        W13752  40.476   7.688   4.660
41438W        W13753  12.151  30.077   1.416
41439W        W13754  27.663  32.394  14.348
41440W        W13755  21.685  20.545   9.557
41441W        W13756  11.316   8.351  11.411
41442W        W13757  15.165  39.487   3.705
41443W        W13758  15.227  14.174  12.945
41444W        W13759  12.846  40.903  14.856
41445W        W13760   4.864  44.966   4.189
41446W        W13761  40.514  39.893  12.986
41447W        W13762   5.705   6.795  14.795
41448W        W13763  44.802  22.656   3.311
41449W        W13764  27.123  27.677   4.165
41450W        W13765  39.974  14.673  13.455
41451W        W13766  44.874   9.728   1.284
41452W        W13767   4.940   1.903  13.471
41453W        W13768  13.283  34.413  14.777
41454W        W13769  17.795   0.266   1.697
41455W        W13770  31.920  13.330  11.548
41456W        W13771  36.060  27.049  12.499
41457W        W13772  13.606  11.686   2.714
41458W        W13773  30.017  34.904  14.455
41459W        W13774  10.328  32.069   0.354
41460W        W13775  32.513   5.828  11.021
41461W        W13776  10.756  19.648   1.724
41462W        W13777  13.238  32.547   2.669
41463W        W13778  15.162  21.057  13.058
41464W        W13779  30.119  16.299  11.476
41465W        W13780  11.202  23.138  10.538
41466W        W13781  36.880  19.115   2.396
41467W        W13782  40.443  43.005  11.000
41468W        W13783  16.672   5.407  13.436
41469W        W13784  16.626   3.369   4.288
41470W        W13785  11.844   4.270  11.387
41471W        W13786   2.915  30.932  14.828
41472W        W13787  43.475  25.516  11.057
41473W        W13788  24.218  34.960  12.019
41474W        W13789  26.992  27.012  12.013
41475W        W13790   9.776  39.926   1.750
41476W        W13791  42.003   1.922  13.333
41477W        W13792   3.925   9.694  12.493
41478W        W13793  23.017  21.756   4.196
41479W        W13794  33.131   8.251   3.793
41480W        W13795  31.641  35.553  11.944
41481W        W13796  23.139  16.251  12.901
41482W        W13797  30.537  41.449   3.212
41483W        W13798   3.922  10.310  10.427
41484W        W13799  24.717  19.254   9.610
41485W        W13800  42.970   6.890   2.894
41486W        W13801  26.972  39.324  14.414
41487W        W13802   1.459  13.269   1.428
41488W        W13803  44.455  34.415  12.000
41489W        W13804  18.770  31.929  12.444
41490W        W13805  38.393  43.868  13.999
41491W        W13806  35.402   1.838   3.232
41492W        W13807  11.189   4.306   2.861
41493W        W13808   0.778  36.348   1.339
41494W        W13809  43.860  40.030   4.195
41495W        W13810  35.482  43.421  14.458
41496W        W13811  27.575  36.466   1.440
41497W        W13812  30.449  25.965   2.404
41498W        W13813  40.905  35.389   3.825
41499W        W13814  14.244  27.492   1.816
41500W        W13815   2.295  18.746   3.720
41501W        W13816  41.880  32.576   4.340
41502W        W13817   1.860   9.375  11.505
41503W        W13818  28.506  31.988   4.232
41504W        W13819  14.740   4.230   1.810
41505W        W13820  17.070  12.851  11.941
41506W        W13821  41.378  35.582   0.253
41507W        W13822  27.189  26.968   2.813
41508W        W13823  12.794  31.078  14.942
41509W        W13824  28.941  19.618   1.719
41510W        W13825  17.586  23.720   0.280
41511W        W13826  35.872   3.755  13.312
41512W        W13827   5.750  13.696   4.183
41513W        W13828  40.438   6.402   0.316
41514W        W13829  10.293  18.618  12.501
41515W        W13830   1.926  24.545   0.944
41516W        W13831  33.535   5.785   4.650
41517W        W13832  21.529   0.785  14.495
41518W        W13833  11.129  32.891  10.923
41519W        W13834   6.854   0.918  11.078
41520W        W13835   9.383  29.964  11.026
41521W        W13836  31.047  44.320  12.462
41522W        W13837  43.789   3.217  13.063
41523W        W13838  32.508  14.699  14.948
41524W        W13839  40.008  15.314   2.865
41525W        W13840  29.937  33.095  11.433
41526W        W13841   4.447   5.873  10.911
41527W        W13842  11.128  34.420  13.852
41528W        W13843   7.212  18.067   0.760
41529W        W13844  32.594   9.221   2.756
41530W        W13845  29.157   5.757  10.152
41531W        W13846  10.228   8.850  13.380
41532W        W13847  34.510   1.863  10.496
41533W        W13848   4.706  27.173  14.425
41534W        W13849  19.268  35.477  14.811
41535W        W13850  15.251  42.314  14.785
41536W        W13851   3.421  26.038  12.355
41537W        W13852  43.832  34.395  11.571
41538W        W13853  42.953  21.200   2.785
41539W        W13854  12.281  17.216   2.746
41540W        W13855  16.760  22.059   1.323
41541W        W13856  40.900  43.963   1.867
41542W        W13857  11.701  39.443  12.094
41543W        W13858   1.299  14.309   2.419
41544W        W13859  12.783  10.704  13.361
41545W        W13860   1.331  18.132   3.693
41546W        W13861  14.785  36.518  12.514
41547W        W13862   0.325  10.853   0.780
41548W        W13863  43.935  42.483   4.274
41549W        W13864  16.797   0.865   1.850
41550W        W13865  36.554  18.194   0.772
41551W        W13866  33.472  11.738   9.980
41552W        W13867   6.745  20.225   0.343
41553W        W13868  38.857  33.380  10.442
41554W        W13869  44.467   4.914  10.936
41555W        W13870  11.685  29.440  14.454
41556W        W13871  43.963  21.177   1.738
41557W        W13872  41.338   1.869  14.768
41558W        W13873  21.732  29.080  13.406
41559W        W13874  34.493  36.974   4.149
41560W        W13875  32.119  40.526  14.946
41561W        W13876   2.372  14.707   3.226
41562W        W13877  35.424  44.342  14.952
41563W        W13878  19.268  39.916  13.309
41564W        W13879  44.441   0.386  12.351
41565W        W13880  26.998  40.912  13.310
41566W        W13881  18.706   9.852  13.307
41567W        W13882  32.057  12.305  11.924
41568W        W13883  15.808   2.803   3.825
41569W        W13884  42.506   8.252  14.369
41570W        W13885   8.300   4.817  14.872
41571W        W13886   0.951  13.681   2.207
41572W        W13887  14.784  35.496   1.238
41573W        W13888  35.394  38.373   1.920
41574W        W13889   3.402  20.217  13.919
41575W        W13890  24.178  40.978  12.420
41576W        W13891  37.484   8.784  13.829
41577W        W13892  31.054  28.505   0.892
41578W        W13893  12.734  19.194  12.568
41579W        W13894   3.899   2.405  10.922
41580W        W13895  24.017   7.358   4.261
41581W        W13896  26.534  35.941  10.903
41582W        W13897  29.506   9.253  10.958
41583W        W13898  36.593  41.041  10.892
41584W        W13899  30.915  14.658   4.151
41585W        W13900  12.660  43.498  12.916
41586W        W13901   1.963  33.553  11.877
41587W        W13902  15.663  30.140   4.300
41588W        W13903  35.928  24.068   2.783
41589W        W13904  25.687  19.725   2.209
41590W        W13905   7.681  38.007   3.857
41591W        W13906  38.480  25.139  12.444
41592W        W13907  11.651  17.798   3.253
41593W        W13908   7.179  26.025   1.743
41594W        W13909  25.524  28.655   1.703
41595W        W13910  17.191  23.155  12.866
41596W        W13911   4.433  35.369   1.291
41597W        W13912  18.160  39.027  12.932
41598W        W13913  23.611  32.471  13.864
41599W        W13914   6.408   4.805   1.423
41600W        W13915  10.140  37.951  14.391
41601W        W13916  33.942  40.530  14.941
41602W        W13917   6.323  14.618   0.448
41603W        W13918  38.068   0.781   4.692
41604W        W13919  19.650  35.095  13.849
41605W        W13920  38.477  30.149  13.894
41606W        W13921   3.829  33.586   0.756
41607W        W13922   2.416  21.684  13.346
41608W        W13923  41.877  23.129  13.481
41609W        W13924  38.381  14.794   4.140
41610W        W13925   3.285  22.567   1.834
41611W        W13926  37.514  12.717  10.920
41612W        W13927  39.948  35.993   3.841
41613W        W13928   3.846  32.596   0.942
41614W        W13929  37.008   3.948  11.072
41615W        W13930   5.396  24.717   4.678
41616W        W13931  41.929  37.855  14.832
41617W        W13932   9.267   1.906  13.853
41618W        W13933  19.587  14.733  10.527
41619W        W13934  40.891  24.216   3.640
41620W        W13935  39.862   6.923   1.448
41621W        W13936  37.911  17.760  10.525
41622W        W13937  39.046  23.196  14.797
41623W        W13938  31.132  23.234   0.914
41624W        W13939  18.129  42.829   2.293
41625W        W13940  29.148  33.948   1.732
41626W        W13941  38.075  27.966  11.881
41627W        W13942   1.877  22.616   2.416
41628W        W13943  13.818   3.266  10.948
41629W        W13944  28.580  31.101   4.169
41630W        W13945  23.656  16.124  14.347
41631W        W13946   1.367  10.139  13.515
41632W        W13947  15.310  43.359  11.910
41633W        W13948  20.599  21.615  12.472
41634W        W13949  25.542  39.362  10.969
41635W        W13950  41.335   0.259  12.906
41636W        W13951  25.009   4.734   4.160
41637W        W13952  18.065  33.590  11.908
41638W        W13953  15.778  24.051  10.441
41639W        W13954  26.043  28.630   3.371
41640W        W13955  34.418  22.685  10.980
41641W        W13956  37.574  29.465   0.298
41642W        W13957  34.056  22.691  11.005
41643W        W13958  30.435   8.720  13.859
41644W        W13959  17.675  26.457  11.389
41645W        W13960   1.809   8.764   2.782
41646W        W13961   4.706  41.993   0.293
41647W        W13962  39.454  12.230   2.386
41648W        W13963  26.460  33.563  10.913
41649W        W13964  22.705  36.974   2.715
41650W        W13965  24.595  15.619  11.564
41651W        W13966  24.192  34.098   2.809
41652W        W13967  39.326   6.921   3.696
41653W        W13968  27.665  23.607   0.887
41654W        W13969  26.627  13.309  13.058
41655W        W13970   7.865  31.031  13.956
41656W        W13971  23.984  13.168  14.793
41657W        W13972  18.689   8.882   4.696
41658W        W13973  30.045  25.127  11.538
41659W        W13974   1.357  24.189   1.315
41660W        W13975  15.085  36.002  13.803
41661W        W13976  40.818   8.888   2.729
41662W        W13977  28.186  33.581  13.061
41663W        W13978  41.824  43.888  13.034
41664W        W13979   5.231  24.604  13.905
41665W        W13980  33.037   9.370  12.010
41666W        W13981   9.215  36.470  14.472
41667W        W13982   6.737  17.755  14.301
41668W        W13983  37.518  21.683   2.898
41669W        W13984  15.275  19.711  13.470
41670W        W13985  42.349  23.505  11.858
41671W        W13986  18.231  22.161  13.521
41672W        W13987  23.150  37.052  12.826
41673W        W13988   0.432   3.840  14.835
41674W        W13989  36.999  44.401   2.243
41675W        W13990  36.388  21.039   9.944
41676W        W13991   5.340   0.374   4.193
41677W        W13992  33.923  35.598   2.765
41678W        W13993  37.552  39.423   0.757
41679W        W13994  42.988   0.856   1.735
41680W        W13995  21.639  11.731  13.925
41681W        W13996   4.422  42.821   0.891
41682W        W13997  23.191  28.609  11.410
41683W        W13998  25.481  44.840  11.009
41684W        W13999  18.550  13.155   3.178
41685W        W14000  38.900  35.905  11.874
41686W        W14001   3.374  26.546  10.452
41687W        W14002  25.143   5.817   3.258
41688W        W14003  13.265  27.161   3.185
41689W        W14004  33.459  33.915  14.353
41690W        W14005  41.876   8.249   4.651
41691W        W14006  29.447   1.376  11.940
41692W        W14007   9.280   0.387   3.798
41693W        W14008  28.985  24.636  10.420
41694W        W14009  34.039  19.073   4.703
41695W        W14010  30.620  20.732   3.845
41696W        W14011  42.488  44.400   0.418
41697W        W14012  34.571  27.974   0.436
41698W        W14013  15.151  17.611  13.473
41699W        W14014  39.327  42.842   1.759
41700W        W14015  27.543  34.532  12.037
41701W        W14016  41.354  38.940  11.487
41702W        W14017  14.692  42.392   4.798
41703W        W14018   3.332  24.498  10.438
41704W        W14019  10.758   7.699   0.739
41705W        W14020   8.832  27.028   4.835
41706W        W14021  44.320  41.458  11.982
41707W        W14022  38.880  40.955  14.805
41708W        W14023  37.872  39.950  12.579
41709W        W14024  34.434  24.113   2.834
41710W        W14025  30.964   0.389   1.755
41711W        W14026  41.990   8.359  13.483
41712W        W14027  27.101  30.589  11.106
41713W        W14028   2.257   2.329   2.297
41714W        W14029   0.260  13.636  13.435
41715W        W14030   2.263  43.857  12.093
41716W        W14031  22.142  28.085   0.892
41717W        W14032  12.318  31.926   0.797
41718W        W14033   6.792  44.496   2.312
41719W        W14034  34.543  44.498   0.463
41720W        W14035  37.487  32.488  11.416
41721W        W14036  30.914  41.464  10.103
41722W        W14037   3.233   8.855  13.847
41723W        W14038  26.118  32.906   2.861
41724W        W14039  43.296   5.843  13.511
41725W        W14040  11.313   8.810  11.899
41726W        W14041   2.228  34.114  13.497
41727W        W14042  34.451  33.556   4.354
41728W        W14043  38.470  24.712   0.874
41729W        W14044  21.061  11.250   3.274
41730W        W14045  27.949  11.341  11.883
41731W        W14046   0.969  35.358  12.501
41732W        W14047  10.277   6.252   3.171
41733W        W14048  42.836  35.595   0.301
41734W        W14049   5.412  21.562  11.550
41735W        W14050   4.309  32.525   4.745
41736W        W14051   1.827  10.351  13.489
41737W        W14052  19.208  30.654  14.379
41738W        W14053  41.907  33.955  14.378
41739W        W14054  12.751  26.506   4.235
41740W        W14055  24.511  36.915   0.444
41741W        W14056  16.108  30.958  14.893
41742W        W14057  27.653  33.384   0.284
41743W        W14058  28.592  22.645  14.974
41744W        W14059   4.428  19.557   4.330
41745W        W14060   7.885  18.691   4.798
41746W        W14061  38.842  20.262   2.415
41747W        W14062   4.312   0.793   0.375
41748W        W14063  13.699  16.124   4.146
41749W        W14064  33.460   8.276   3.214
41750W        W14065  41.403  35.417  10.895
41751W        W14066  43.811   8.350   2.839
41752W        W14067   9.269  29.011   4.807
41753W        W14068  19.772  10.657  11.905
41754W        W14069   1.921  33.949  12.079
41755W        W14070  10.839  35.546   4.235
41756W        W14071  24.631  24.099   2.348
41757W        W14072   4.329  39.833   4.652
41758W        W14073   3.840  23.604   3.306
41759W        W14074  27.478  39.366   2.411
41760W        W14075  44.928  10.206  13.487
41761W        W14076   1.837  36.542   5.317
41762W        W14077  20.535  40.524  14.413
41763W        W14078  41.968  19.108   4.332
41764W        W14079  29.175  11.767   2.785
41765W        W14080  43.893  30.140   1.859
41766W        W14081  22.745  42.027   2.369
41767W        W14082  44.426   9.857  11.610
41768W        W14083  28.030   7.749  11.459
41769W        W14084  14.773  25.612  10.463
41770W        W14085  31.594  31.027  11.005
41771W        W14086  10.265  42.962   3.748
41772W        W14087  44.451   9.329   3.307
41773W        W14088  19.655   6.756   2.796
41774W        W14089  41.789  24.639  13.430
41775W        W14090  12.727   0.819  11.033
41776W        W14091   7.330  26.194   3.296
41777W        W14092  23.734  21.194  10.100
41778W        W14093  18.635   0.402  12.924
41779W        W14094  13.790  10.339  11.511
41780W        W14095  33.426  20.054   1.279
41781W        W14096  11.686  32.584  13.455
41782W        W14097  36.479   8.298   1.745
41783W        W14098  33.083   9.688  12.851
41784W        W14099   9.786  21.515  10.926
41785W        W14100  39.871   8.388  14.834
41786W        W14101  17.667  30.991   1.889
41787W        W14102   6.228   8.673  12.580
41788W        W14103   5.314  28.057  14.879
41789W        W14104  13.334  35.983   0.329
41790W        W14105  35.977   4.923   9.972
41791W        W14106  37.553   1.282  13.945
41792W        W14107   7.412   9.261  11.588
41793W        W14108   1.772   2.826  10.972
41794W        W14109  10.731  32.067   4.283
41795W        W14110  21.535  44.008  13.871
41796W        W14111  25.028  19.114   4.212
41797W        W14112  39.973   0.915   0.461
41798W        W14113  34.948  34.902   0.775
41799W        W14114  36.891  27.495  12.006
41800W        W14115  26.582  25.093  13.962
41801W        W14116  13.109  30.132   2.244
41802W        W14117  17.128   3.441   3.819
41803W        W14118  24.669   0.359   0.743
41804W        W14119  21.577  27.978   2.318
41805W        W14120  29.940  41.884   2.843
41806W        W14121  36.569  42.397  11.435
41807W        W14122  23.136  41.966  13.845
41808W        W14123  37.003  36.414   1.372
41809W        W14124  14.207   1.880  10.501
41810W        W14125  27.946  34.411  10.933
41811W        W14126  38.475  24.661  12.094
41812W        W14127  28.955   5.207   0.465
41813W        W14128  43.468   6.866   1.330
41814W        W14129  18.163  39.021   0.459
41815W        W14130  16.666  29.075  12.914
41816W        W14131   3.835  44.389   1.905
41817W        W14132  24.046  12.733   0.900
41818W        W14133  27.087   1.835   5.114
41819W        W14134   8.200  41.452  10.564
41820W        W14135  10.714  42.026   4.613
41821W        W14136   8.264   2.409   2.391
41822W        W14137  11.256  22.593   4.267
41823W        W14138   2.420   3.799   1.833
41824W        W14139  37.007   0.334   3.746
41825W        W14140   4.386  41.841   2.899
41826W        W14141  28.183  34.060   2.285
41827W        W14142  44.390   2.338   4.218
41828W        W14143  32.498  37.559  11.100
41829W        W14144  37.532  12.244   2.841
41830W        W14145  22.693  25.193   2.756
41831W        W14146  41.838  42.353  11.508
41832W        W14147   3.226   1.432   2.377
41833W        W14148  15.770  12.260   2.374
41834W        W14149  33.486  14.217   1.755
41835W        W14150   5.896   5.719   0.425
41836W        W14151  16.710  19.602   1.889
41837W        W14152  14.228  41.919  14.810
41838W        W14153  29.557   8.858  13.867
41839W        W14154   4.867  27.002   1.705
41840W        W14155  24.625  43.448  14.364
41841W        W14156  11.774  16.795   3.179
41842W        W14157  43.469   1.772  13.497
41843W        W14158  43.507   7.232   1.887
41844W        W14159  27.506  12.129   3.270
41845W        W14160   8.716  38.869   1.343
41846W        W14161   3.368  18.553  10.555
41847W        W14162   5.856  18.546   4.601
41848W        W14163   1.736  18.548  11.037
41849W        W14164  42.873  35.028  14.769
41850W        W14165  16.140   9.650  14.986
41851W        W14166  30.141   8.683  12.478
41852W        W14167  15.295   3.314  12.919
41853W        W14168  41.937   0.248  14.763
41854W        W14169  20.686  14.136  13.371
41855W        W14170  13.821  39.491  13.038
41856W        W14171  28.939  14.753  10.629
41857W        W14172  44.495  30.576  10.449
41858W        W14173  17.165   8.677  12.823
41859W        W14174  36.383  44.801   4.184
41860W        W14175  11.770  19.040  11.412
41861W        W14176  43.828  37.436  10.990
41862W        W14177  36.959  12.269  13.926
41863W        W14178  38.446  10.219   3.856
41864W        W14179   9.714  10.245  10.546
41865W        W14180  32.539  33.427   4.171
41866W        W14181   2.360  23.531  14.469
41867W        W14182   1.851  41.014  13.414
41868W        W14183  32.934  29.616   2.841
41869W        W14184  33.422  19.075   1.751
41870W        W14185  38.534   9.683   0.401
41871W        W14186  22.998   7.269  10.934
41872W        W14187  39.037  32.098  10.982
41873W        W14188  40.024  16.758   1.310
41874W        W14189  11.852  30.551  12.477
41875W        W14190  44.344  31.056   4.120
41876W        W14191  32.419  41.791   3.231
41877W        W14192  38.533  36.977   3.818
41878W        W14193  26.181   0.410   3.225
41879W        W14194  16.094  17.763   1.313
41880W        W14195  38.900  33.935  13.061
41881W        W14196  22.208  16.770  13.043
41882W        W14197  21.184   9.393  12.447
41883W        W14198  20.634  34.990  10.614
41884W        W14199  40.403  29.480  12.898
41885W        W14200  44.804  26.464  13.383
41886W        W14201  19.171  35.902  11.593
41887W        W14202  41.372  36.545  10.405
41888W        W14203   3.919  12.302   2.288
41889W        W14204  34.877  23.192   4.612
41890W        W14205  13.790   6.186   0.406
41891W        W14206  42.026  12.837   4.696
41892W        W14207  16.076  15.793  11.920
41893W        W14208   7.670   4.367  13.966
41894W        W14209  37.428  33.079   3.203
41895W        W14210  17.107   2.299   4.210
41896W        W14211  24.609  15.223   4.805
41897W        W14212  43.491  39.547  10.960
41898W        W14213   4.774  25.630   1.826
41899W        W14214  29.550  36.375   2.683
41900W        W14215  35.502  41.406   0.729
41901W        W14216  31.051   8.715   3.630
41902W        W14217  40.034  16.736   3.637
41903W        W14218  20.129  40.318   4.240
41904W        W14219  18.761  17.076  13.474
41905W        W14220  23.025  32.045  11.933
41906W        W14221  12.272   3.941   2.223
41907W        W14222  39.993  36.868   1.258
41908W        W14223  27.455  29.009  12.412
41909W        W14224   8.352  40.019  12.025
41910W        W14225   6.885  12.759  11.542
41911W        W14226  28.185  37.917   3.158
41912W        W14227  41.327  14.340  10.558
41913W        W14228  19.713  13.294   2.704
41914W        W14229  13.602   4.304  12.929
41915W        W14230  23.131   9.249   2.193
41916W        W14231  11.180  44.457  12.040
41917W        W14232  17.742  27.963   4.308
41918W        W14233   1.782   7.860   1.405
41919W        W14234  44.473  25.490  14.016
41920W        W14235  38.562  42.291   0.925
41921W        W14236   2.329   8.661   5.236
41922W        W14237  41.292  43.913  13.548
41923W        W14238  13.249   6.237   5.276
41924W        W14239  29.957  41.465   0.904
41925W        W14240   5.743   3.215   4.211
41926W        W14241  30.996  35.564  14.317
41927W        W14242  13.177  30.640   0.365
41928W        W14243  27.195  21.260   3.216
41929W        W14244  38.998   6.728   1.226
41930W        W14245  26.201  17.780  12.922
41931W        W14246  36.925  17.284  12.957
41932W        W14247  30.980   0.762   4.737
41933W        W14248  17.659  35.591  14.944
41934W        W14249  21.758  16.654   2.398
41935W        W14250  33.976  22.076   1.316
41936W        W14251  29.056  11.209   0.864
41937W        W14252  29.089   6.779   0.372
41938W        W14253  38.335   3.452   0.293
41939W        W14254  11.686  35.914   4.268
41940W        W14255  44.914  20.225   2.380
41941W        W14256  16.168   3.245   1.852
41942W        W14257   6.318  19.541   2.414
41943W        W14258  38.446  26.475  14.307
41944W        W14259  34.368  23.559   3.643
41945W        W14260  36.943   6.226   3.811
41946W        W14261  44.408  35.552   2.309
41947W        W14262  40.322  41.524  13.998
41948W        W14263  25.142  35.865   2.406
41949W        W14264  40.930  21.547  10.540
41950W        W14265  16.272  37.408  13.984
41951W        W14266  43.282  21.600   2.791
41952W        W14267   5.889   5.884   0.729
41953W        W14268  36.940  24.612  10.912
41954W        W14269  24.105  15.733  13.444
41955W        W14270   3.389  31.923  12.432
41956W        W14271   6.182  29.454   4.768
41957W        W14272  27.174  44.954  10.915
41958W        W14273  11.816  29.139   2.222
41959W        W14274  17.777  27.562   5.197
41960W        W14275  42.984  32.572   1.848
41961W        W14276  18.697  26.642   4.675
41962W        W14277   8.333  44.960   3.770
41963W        W14278  41.534   0.403  13.795
41964W        W14279   4.939  35.962   0.927
41965W        W14280   1.391  24.583   2.392
41966W        W14281  43.396  30.535   1.310
41967W        W14282  23.216  17.720  11.559
41968W        W14283  19.225   3.411  13.427
41969W        W14284  22.599  30.520  11.022
41970W        W14285  41.472  33.054  10.454
41971W        W14286  24.182   2.458   3.692
41972W        W14287  43.775  27.147  11.378
41973W        W14288  37.849  36.377   2.726
41974W        W14289  17.143   9.232   3.744
41975W        W14290  40.856   4.444   0.333
41976W        W14291  31.043  36.411   2.404
41977W        W14292  23.142  10.351  11.871
41978W        W14293  26.134  22.612  13.492
41979W        W14294  32.633  34.025  13.433
41980W        W14295  10.647  16.228  10.907
41981W        W14296   6.686   2.772   0.900
41982W        W14297   6.328   1.760   3.309
41983W        W14298  25.121  13.169   1.751
41984W        W14299  17.246  30.035   1.377
41985W        W14300  15.148  20.206  13.029
41986W        W14301  14.690  39.440   1.364
41987W        W14302  17.755  17.167  13.338
41988W        W14303  39.336  23.188  12.956
41989W        W14304  18.206  22.544  12.451
41990W        W14305   3.784  24.535  10.476
41991W        W14306  21.080  36.445   1.754
41992W        W14307  40.923  25.507   9.480
41993W        W14308  42.932  43.866   3.181
41994W        W14309  22.501  27.985   1.932
41995W        W14310  27.606   4.298  12.569
41996W        W14311  13.199  38.956   4.162
41997W        W14312  17.610  37.960   0.249
41998W        W14313  20.161  34.505   2.757
41999W        W14314  25.587  43.438  14.389
42000W        W14315  21.215  28.947   2.882
42001W        W14316  42.815  16.124   2.836
42002W        W14317  29.123  36.523   1.727
42003W        W14318  24.087  18.736   1.930
42004W        W14319   6.815   4.374   4.738
42005W        W14320   2.818  27.627   4.776
42006W        W14321   9.294  39.995   2.264
42007W        W14322  24.115  30.537   2.855
42008W        W14323  30.959  28.559  14.872
42009W        W14324  25.104  25.622  10.509
42010W        W14325  27.990  29.989  12.443
42011W        W14326   2.326  33.081   1.789
42012W        W14327  21.682  28.168   0.243
42013W        W14328  14.700  37.907   2.211
42014W        W14329  14.144  28.148  12.987
42015W        W14330   8.228  13.195   3.180
42016W        W14331   8.352  22.203   3.822
42017W        W14332  34.983  10.294   5.200
42018W        W14333  23.011  27.543   4.746
42019W        W14334  32.131  23.110  13.970
42020W        W14335  34.877   2.321   2.213
42021W        W14336  10.245  16.699   5.608
42022W        W14337  44.791  31.520  10.496
42023W        W14338  26.002  12.187  10.959
42024W        W14339  28.988  29.650  14.003
42025W        W14340  27.992  34.059   1.784
42026W        W14341  21.734  11.349  12.579
42027W        W14342  37.412  23.573   0.794
42028W        W14343   2.821  22.653   0.757
42029W        W14344  13.352  39.871   2.240
42030W        W14345  19.770  19.535  14.372
42031W        W14346  38.919  26.952   4.186
42032W        W14347  28.622  44.317  10.917
42033W        W14348  29.064   2.433  12.079
42034W        W14349  21.664  30.593  12.422
42035W        W14350  32.947   8.797   2.730
42036W        W14351   7.332  29.426   4.690
42037W        W14352  32.043  42.289  11.550
42038W        W14353  31.080  20.235   0.924
42039W        W14354   1.321   3.392  14.849
42040W        W14355  27.082  29.650   2.199
42041W        W14356   5.376   1.952  11.595
42042W        W14357  38.827  38.986  13.923
42043W        W14358  41.877   5.395   1.893
42044W        W14359   7.805  41.024   4.138
42045W        W14360  32.919   4.875  13.857
42046W        W14361  10.830  42.291  14.456
42047W        W14362   2.799  38.381   2.331
42048W        W14363   8.322  14.638  13.929
42049W        W14364  38.535  28.585   0.803
42050W        W14365  33.430   0.397  10.511
42051W        W14366  44.767  24.009   2.295
42052W        W14367  13.189  12.636  11.039
42053W        W14368  35.567  36.361   4.830
42054W        W14369  35.090  22.595  10.430
42055W        W14370  12.283  32.510   4.211
42056W        W14371  39.357  18.162   3.331
42057W        W14372  26.173  14.668  13.535
42058W        W14373  26.051  23.527  13.418
42059W        W14374   2.953   2.853  11.075
42060W        W14375  22.130  27.578  14.405
42061W        W14376  41.854   5.790   0.763
42062W        W14377  34.374  38.005  14.958
42063W        W14378  43.440   6.312   2.325
42064W        W14379   3.883  39.341  11.391
42065W        W14380  22.535  39.544  14.407
42066W        W14381   4.339  35.043  13.059
42067W        W14382  41.491   2.330  10.965
42068W        W14383  11.295  27.533   0.393
42069W        W14384  40.986  22.573  10.457
42070W        W14385  10.166  31.458   2.324
42071W        W14386  10.193  11.843   3.192
42072W        W14387  34.889   9.229  14.804
42073W        W14388   7.219  36.025   4.312
42074W        W14389  44.490  15.749  12.546
42075W        W14390  12.620  31.061  14.447
42076W        W14391  35.454  32.084   3.367
42077W        W14392  29.441  43.941  14.418
42078W        W14393  35.971  28.071   2.204
42079W        W14394  33.037  25.171  12.491
42080W        W14395  28.063   0.436   0.268
42081W        W14396   8.794  15.747  13.484
42082W        W14397  22.010  22.106  11.956
42083W        W14398  32.436  17.174  13.025
42084W        W14399  24.168  13.694  11.532
42085W        W14400  40.518  32.460   0.405
42086W        W14401  12.827  35.978   1.373
42087W        W14402  44.337  22.652  12.459
42088W        W14403  28.080   0.396  14.904
42089W        W14404  24.980   4.831   2.229
42090W        W14405  37.966  32.600  10.486
42091W        W14406  20.754   0.348  12.957
42092W        W14407  26.025  10.260   9.943
42093W        W14408   5.375   9.279  11.864
42094W        W14409  39.815  10.199  12.502
42095W        W14410  26.107  12.717  11.613
42096W        W14411  26.597  27.556  10.121
42097W        W14412   3.765  27.630   2.399
42098W        W14413  24.187   6.714   4.333
42099W        W14414  13.300   6.808  13.977
42100W        W14415  34.466   2.785  10.492
42101W        W14416  31.588  10.704  13.547
42102W        W14417  30.444  31.408   3.635
42103W        W14418  36.404   7.687  13.484
42104W        W14419  39.448   2.377   3.676
42105W        W14420  35.105   1.786  12.070
42106W        W14421  35.994  12.153  14.941
42107W        W14422  22.513  32.542   2.898
42108W        W14423  17.728  34.116  13.471
42109W        W14424  39.821   9.800   2.787
42110W        W14425  39.507  27.969  14.449
42111W        W14426  10.691  19.243  11.902
42112W        W14427  33.982  17.704   2.242
42113W        W14428  40.900  17.713  14.022
42114W        W14429  31.927  26.190  13.886
42115W        W14430  43.446  21.584   3.314
42116W        W14431  32.432  25.113   1.707
42117W        W14432   3.756   8.656   1.782
42118W        W14433  19.768  29.957  11.488
42119W        W14434   0.454  12.747   5.253
42120W        W14435  12.691  42.006  10.571
42121W        W14436   8.878  27.559   2.901
42122W        W14437   4.449  27.966  12.493
42123W        W14438  11.839  37.501  12.540
42124W        W14439  44.841  34.082  11.526
42125W        W14440  28.022  36.992   4.611
42126W        W14441  42.873  31.422   0.768
42127W        W14442  26.959  23.662   0.812
42128W        W14443   7.255  36.563   3.666
42129W        W14444  19.697  37.047  13.953
42130W        W14445  28.182   5.361   4.639
42131W        W14446   4.830  37.982   4.135
42132W        W14447   8.212  38.420   4.299
42133W        W14448  25.122  11.325  12.558
42134W        W14449  38.522  31.442   4.788
42135W        W14450  18.683  39.942  12.096
42136W        W14451  36.505   4.291  11.547
42137W        W14452  21.025  18.271   2.323
42138W        W14453  25.599  25.145   1.778
42139W        W14454  43.877  38.433  10.996
42140W        W14455  13.802  19.619  10.408
42141W        W14456  16.081  33.914  12.001
42142W        W14457  19.690   9.836   0.355
42143W        W14458   1.282  39.046  10.948
42144W        W14459  44.770  14.820  14.987
42145W        W14460  39.331  26.659   4.810
42146W        W14461  13.181  28.530   3.335
42147W        W14462   0.917  18.158  10.580
42148W        W14463  22.724  24.219  13.462
42149W        W14464  24.581  19.056  14.331
42150W        W14465  33.977  34.930  11.606
42151W        W14466  40.942  11.702   2.724
42152W        W14467  26.968  19.164  12.546
42153W        W14468  13.217  35.891  12.979
42154W        W14469  31.063  18.608  11.970
42155W        W14470  28.454   2.965  12.039
42156W        W14471  15.689  11.355  12.889
42157W        W14472   8.344  33.035   3.224
42158W        W14473  41.820  27.624  10.975
42159W        W14474  38.047   7.352   0.818
42160W        W14475  17.168  29.041   3.290
42161W        W14476  32.412  40.453  13.397
42162W        W14477  17.738  12.682  12.023
42163W        W14478   3.306  42.460  11.050
42164W        W14479  18.111  34.962   0.351
42165W        W14480  27.665  29.506  12.922
42166W        W14481  35.984  42.953   5.164
42167W        W14482   0.826  10.185   3.696
42168W        W14483  33.093  34.435   4.311
42169W        W14484  43.443   0.473   3.226
42170W        W14485  24.637  21.190   5.219
42171W        W14486   4.793  10.671   0.475
42172W        W14487   8.792  32.047   2.184
42173W        W14488  35.511  29.101   1.238
42174W        W14489   4.283  40.424  12.077
42175W        W14490  13.130  21.263   3.370
42176W        W14491  36.428  28.519  13.421
42177W        W14492  17.737  35.360  10.494
42178W        W14493  24.696  24.173  11.371
42179W        W14494   6.797   6.846  12.859
42180W        W14495  29.497   3.713   0.736
42181W        W14496  28.606   0.377   3.863
42182W        W14497  21.753  37.442   0.953
42183W        W14498  26.070  10.765  14.371
42184W        W14499  25.016  37.434  12.934
42185W        W14500  19.642  41.003   3.681
42186W        W14501   3.268   1.307   3.259
42187W        W14502  40.369  31.896   2.735
42188W        W14503  41.525  15.320  11.373
42189W        W14504   3.266  42.952   3.818
42190W        W14505   9.264  35.562  11.540
42191W        W14506  12.767  38.382  13.479
42192W        W14507   7.799  44.875   1.743
42193W        W14508  18.637  36.946   3.785
42194W        W14509  19.268  10.790  13.019
42195W        W14510  31.604  14.800  10.618
42196W        W14511   6.243  37.059   4.216
42197W        W14512  11.777   5.893   3.381
42198W        W14513   4.775  27.984   1.224
42199W        W14514  35.862   2.319   3.166
42200W        W14515   9.855  36.035  13.318
42201W        W14516   1.351   4.447   3.382
42202W        W14517  28.585   4.213   4.311
42203W        W14518   0.313  42.854   0.431
42204W        W14519  22.683   3.761   1.833
42205W        W14520  18.660  29.601  11.983
42206W        W14521  40.515   4.380  13.897
42207W        W14522  24.192  37.452  13.487
42208W        W14523  14.110  16.739   3.867
42209W        W14524  15.128   9.872  14.862
42210W        W14525   4.437  21.551  14.800
42211W        W14526  39.394  29.104   3.272
42212W        W14527   3.846  39.850  14.455
42213W        W14528  37.407   5.327  11.507
42214W        W14529  27.526  34.023  11.982
42215W        W14530  32.073  35.875   3.833
42216W        W14531  42.450  28.677  13.916
42217W        W14532   2.416   2.903  10.966
42218W        W14533  32.110  20.757  12.022
42219W        W14534   5.747   8.255   4.131
42220W        W14535  15.730   5.746   0.434
42221W        W14536  29.629  21.521   0.367
42222W        W14537  30.526  40.966  10.607
42223W        W14538  15.147  17.237  11.055
42224W        W14539   1.359  19.650  14.008
42225W        W14540   1.947  40.408   0.399
42226W        W14541  41.477   1.237   0.966
42227W        W14542  14.752   7.829  11.587
42228W        W14543  37.055  23.589  13.524
42229W        W14544   3.419   5.439  14.933
42230W        W14545  36.044   8.215  14.376
42231W        W14546   9.775  28.513  11.493
42232W        W14547  16.082   8.249   0.397
42233W        W14548   6.389  33.441  10.059
42234W        W14549  16.099  19.052  13.997
42235W        W14550  40.396   8.774  14.423
42236W        W14551   8.835  21.037   4.805
42237W        W14552  25.634  10.645  12.353
42238W        W14553  42.999  30.971   5.174
42239W        W14554  34.462  10.636   3.232
42240W        W14555  26.581  35.441  10.560
42241W        W14556  15.756  35.477   1.266
42242W        W14557  20.631   4.790   0.379
42243W        W14558  12.699  44.871   1.748
42244W        W14559  30.597  39.314  13.979
42245W        W14560  27.073  18.748  13.408
42246W        W14561   7.214   4.740   0.474
42247W        W14562  10.166  13.735  12.353
42248W        W14563  35.450   0.871   0.451
42249W        W14564  37.356  28.063   1.890
42250W        W14565  27.183  19.152   2.860
42251W        W14566  39.394  17.172  10.984
42252W        W14567  23.022  20.073  14.493
42253W        W14568  22.572  10.365   4.633
42254W        W14569  19.644  30.573   3.790
42255W        W14570  38.452  15.766  12.537
42256W        W14571  16.124  17.159  11.429
42257W        W14572  22.020  31.980   2.230
42258W        W14573   7.230  15.084  11.022
42259W        W14574  25.618   4.375   0.885
42260W        W14575   9.229  19.698  12.916
42261W        W14576  22.735  25.174  12.010
42262W        W14577  12.788  18.732  12.397
42263W        W14578  30.605  26.057  12.473
42264W        W14579  44.843  38.010  14.908
42265W        W14580  32.078  35.590  12.967
42266W        W14581   8.287  11.206   2.409
42267W        W14582  21.079  31.076   4.294
42268W        W14583  25.485  10.341  14.300
42269W        W14584   9.883  19.697   1.925
42270W        W14585   8.887  41.438   1.823
42271W        W14586  34.435  30.552   2.774
42272W        W14587  17.169   7.841   1.295
42273W        W14588  34.375  15.686  14.368
42274W        W14589  28.671  26.482   0.965
42275W        W14590  14.641  30.915   4.142
42276W        W14591  27.506  29.044  10.619
42277W        W14592  27.168  24.601  14.422
42278W        W14593  26.551  21.541  10.477
42279W        W14594  17.802  32.992  11.125
42280W        W14595  12.776  33.560  11.423
42281W        W14596  27.658  32.584   1.891
42282W        W14597  16.667  34.038  11.125
42283W        W14598   1.293  44.805   2.882
42284W        W14599   3.394  36.930   0.864
42285W        W14600  19.087  14.148  12.539
42286W        W14601  44.859  40.992  12.424
42287W        W14602  42.812  34.110   1.326
42288W        W14603  17.267  18.741   3.858
42289W        W14604  33.079  11.666  13.877
42290W        W14605  43.417  19.736  10.913
42291W        W14606  32.038  38.350  10.988
42292W        W14607  34.590   2.453  14.966
42293W        W14608  21.033  12.727  14.804
42294W        W14609  41.987  41.820  13.861
42295W        W14610  20.597   8.373   3.283
42296W        W14611  31.019  27.019  13.312
42297W        W14612  40.311  11.666   1.318
42298W        W14613  17.077  10.151   4.643
42299W        W14614  15.292  40.966   2.226
42300W        W14615   5.265  21.605   4.635
42301W        W14616   1.796   8.849  11.476
42302W        W14617  44.456   5.226   3.855
42303W        W14618  23.184  17.235  13.840
42304W        W14619  13.212  29.928   1.310
42305W        W14620   4.933  11.765   1.288
42306W        W14621  10.654  34.939  14.317
42307W        W14622  42.423  42.413  13.933
42308W        W14623  33.043  27.940   3.297
42309W        W14624  21.061  19.097  11.536
42310W        W14625  33.593  44.978  13.854
42311W        W14626  17.192   8.172   2.863
42312W        W14627  37.572   3.841  11.973
42313W        W14628   0.468   5.374   4.666
42314W        W14629  16.692  22.018  12.834
42315W        W14630  15.210  12.127   1.784
42316W        W14631  13.268  29.455  10.976
42317W        W14632  31.144  18.141  12.533
42318W        W14633  22.050  38.974  10.994
42319W        W14634  36.880  22.541   0.864
42320W        W14635  40.304  39.545   1.861
42321W        W14636  13.826   6.765  13.453
42322W        W14637   9.826   1.930  12.988
42323W        W14638  11.732   7.279   5.266
42324W        W14639  26.125  29.653   2.370
42325W        W14640   5.831  36.992   2.248
42326W        W14641  41.870  13.630  13.885
42327W        W14642  38.990  17.651   5.219
42328W        W14643   7.268  24.510   3.716
42329W        W14644  40.890  36.964   3.754
42330W        W14645  12.266  34.604   3.172
42331W        W14646  11.209  35.424   4.768
42332W        W14647   0.478   2.447   0.763
42333W        W14648  13.234  25.608   1.854
42334W        W14649  13.668   8.780   3.714
42335W        W14650  30.062  38.061  13.366
42336W        W14651  16.807  28.601  10.904
42337W        W14652  24.680   3.400   0.828
42338W        W14653  19.055  23.598   3.718
42339W        W14654  27.170  35.968   4.696
42340W        W14655  26.551  11.684  12.037
42341W        W14656  30.960  36.524   4.280
42342W        W14657  20.188   3.335   4.354
42343W        W14658  37.474  21.713  14.019
42344W        W14659  34.020  42.994  11.855
42345W        W14660   7.177   6.355  13.929
42346W        W14661  10.711  44.426  14.991
42347W        W14662  42.282  28.586   0.467
42348W        W14663   1.378  27.504   1.817
42349W        W14664   4.823  32.077   1.841
42350W        W14665  10.805  27.065  12.556
42351W        W14666  14.147  44.357   3.249
42352W        W14667  14.289  17.089  13.846
42353W        W14668   8.676  16.608  12.930
42354W        W14669   7.264  27.990   0.850
42355W        W14670   4.866  38.860  12.457
42356W        W14671   5.405  32.442  11.510
42357W        W14672  29.929  17.613   3.303
42358W        W14673  23.072  10.266   3.817
42359W        W14674  38.872  40.943   3.176
42360W        W14675  28.653   7.899  13.893
42361W        W14676   8.666  12.295  10.985
42362W        W14677  41.988   6.893  11.576
42363W        W14678  16.104  11.168   3.640
42364W        W14679  28.004  41.335  14.023
42365W        W14680  31.586  11.740   2.897
42366W        W14681  38.864  13.837  13.530
42367W        W14682  44.802  40.533  13.918
42368W        W14683  30.413  26.498   3.250
42369W        W14684   0.764  42.468  11.433
42370W        W14685  40.928  44.854  11.008
42371W        W14686  21.115   8.881   2.701
42372W        W14687  33.386   7.832  12.828
42373W        W14688  19.613  27.018   3.730
42374W        W14689  39.993  17.096  14.018
42375W        W14690  30.027  12.332  14.876
42376W        W14691  43.986  28.992  13.061
42377W        W14692  32.988  33.550   2.818
42378W        W14693  12.821  13.190   1.804
42379W        W14694   9.391  37.460  14.898
42380W        W14695  29.987  38.969   2.294
42381W        W14696  32.594  27.446  11.081
42382W        W14697  26.035   3.857   1.805
42383W        W14698   0.799  42.783  11.503
42384W        W14699  33.099   1.955  13.044
42385W        W14700  26.574   9.855   0.387
42386W        W14701  27.680  23.591   1.842
42387W        W14702   3.450  27.661  11.099
42388W        W14703  38.919  20.223  12.396
42389W        W14704  25.032  34.077   3.189
42390W        W14705  21.620   2.752   0.428
42391W        W14706   1.779  23.646   4.319
42392W        W14707   8.186  28.630   1.340
42393W        W14708  12.680  11.833  10.431
42394W        W14709  13.139  16.661  11.412
42395W        W14710  22.159  21.108   3.158
42396W        W14711  30.449  25.557  14.442
42397W        W14712  37.943  40.826  11.384
42398W        W14713  44.456  24.169  14.984
42399W        W14714  42.003  24.714   0.884
42400W        W14715  31.108   6.897   2.766
42401W        W14716  43.294  44.316  10.451
42402W        W14717  39.043  41.396  10.563
42403W        W14718  15.120  24.616   2.806
42404W        W14719  21.737  42.450   0.390
42405W        W14720  41.444  20.039  11.855
42406W        W14721  34.418  41.392   3.709
42407W        W14722  14.150   5.419   0.262
42408W        W14723  39.392  24.482   4.705
42409W        W14724  30.153  11.161   1.242
42410W        W14725  36.043  42.384  12.941
42411W        W14726  29.542  36.359   0.871
42412W        W14727  28.559  24.672   3.215
42413W        W14728  26.529  24.536   3.688
42414W        W14729  29.444   7.327  10.154
42415W        W14730  42.437  18.617  11.474
42416W        W14731  13.749  30.507   0.928
42417W        W14732  20.167  23.551   0.401
42418W        W14733  39.396  32.623   4.674
42419W        W14734  18.608  37.002   1.891
42420W        W14735  18.627  32.565  10.471
42421W        W14736  17.148  31.145  10.463
42422W        W14737  35.017   2.811  11.500
42423W        W14738  15.298  29.648   1.331
42424W        W14739  23.702  10.741  13.869
42425W        W14740  31.473  27.193   3.381
42426W        W14741  40.523   9.226   1.279
42427W        W14742  26.124  38.373  12.346
42428W        W14743  15.252  19.143  14.395
42429W        W14744  31.022  22.073   4.183
42430W        W14745   8.261  35.036   2.895
42431W        W14746  28.596  14.718   3.869
42432W        W14747  37.358  15.723  11.941
42433W        W14748  39.496  18.270   4.149
42434W        W14749  21.718  39.337  10.888
42435W        W14750  29.459  11.209   1.394
42436W        W14751  15.687  23.576  14.947
42437W        W14752  12.238   1.789  10.467
42438W        W14753   8.839   9.150  13.000
42439W        W14754   1.732  41.844   1.418
42440W        W14755   3.782  15.259  10.899
42441W        W14756  33.055   3.279   0.796
42442W        W14757   0.769  36.037  14.326
42443W        W14758  29.001   3.339   3.152
42444W        W14759  37.006  25.202   1.880
42445W        W14760  27.560   6.333   0.249
42446W        W14761  29.125  26.021  11.116
42447W        W14762  25.638  40.415   3.191
42448W        W14763  24.592  21.226   3.806
42449W        W14764  11.135  32.915  10.621
42450W        W14765  37.963  32.464   2.295
42451W        W14766  26.018  38.397  11.906
42452W        W14767  38.402   0.935  12.514
42453W        W14768  35.025   4.288  13.946
42454W        W14769  36.004   9.647   3.184
42455W        W14770  30.486  31.905   4.828
42456W        W14771  42.413  25.558  11.415
42457W        W14772  39.956  26.663   4.803
42458W        W14773   4.447  42.918   1.815
42459W        W14774  16.570  41.315   0.780
42460W        W14775  22.189  11.217  13.377
42461W        W14776   9.645  43.398  11.879
42462W        W14777  27.545  41.925   3.307
42463W        W14778  15.264   5.889   1.868
42464W        W14779   8.894  14.240   2.739
42465W        W14780  41.358  21.686  12.021
42466W        W14781  11.202  21.260   2.366
42467W        W14782  29.516  21.554  14.859
42468W        W14783  36.435  40.033  12.395
42469W        W14784   5.343  31.068   0.259
42470W        W14785   4.239   8.881  10.605
42471W        W14786  29.622  40.528  11.535
42472W        W14787  33.496   8.405  12.576
42473W        W14788  13.703   7.785   2.279
42474W        W14789   7.311  44.370  11.117
42475W        W14790  42.335  35.468   1.833
42476W        W14791  38.489   5.782   0.351
42477W        W14792   1.476   9.197   0.917
42478W        W14793  17.122  17.244   3.189
42479W        W14794   1.362  29.966   2.735
42480W        W14795  34.586  38.945   3.841
42481W        W14796   8.766  44.295  11.374
42482W        W14797  40.920  23.081  14.383
42483W        W14798  32.992  27.132  14.857
42484W        W14799  21.724  44.477  13.001
42485W        W14800  30.952  19.666  10.613
42486W        W14801  39.407   9.328  12.562
42487W        W14802  24.718  22.622   3.267
42488W        W14803  43.502  10.322   3.307
42489W        W14804  11.253  14.328  14.370
42490W        W14805   2.392   2.464  12.404
42491W        W14806  30.139  17.266  10.635
42492W        W14807  44.793  10.730  10.488
42493W        W14808  41.935  35.096  11.902
42494W        W14809  16.277   7.244   0.424
42495W        W14810  23.112  29.440  12.993
42496W        W14811  44.279  19.238  14.415
42497W        W14812  31.953   2.926   3.337
42498W        W14813  12.616  16.646   3.763
42499W        W14814  12.315  16.275  12.868
42500W        W14815  31.553  42.341   1.783
42501W        W14816  17.134  21.050   0.359
42502W        W14817  32.564  42.983  12.857
42503W        W14818  30.109   8.284  11.526
42504W        W14819  36.517  25.659   3.164
42505W        W14820  38.351  43.858  14.423
42506W        W14821  31.044  10.260  13.372
42507W        W14822  30.593   4.920   1.727
42508W        W14823  41.943   2.289  13.828
42509W        W14824  29.085  31.994  14.464
42510W        W14825   4.801   6.731  13.914
42511W        W14826  15.743  12.246   0.868
42512W        W14827  23.589  40.515  12.045
42513W        W14828  29.144  14.230  13.464
42514W        W14829  23.707  10.286   1.406
42515W        W14830  16.206   8.244   4.695
42516W        W14831  36.861   9.779   4.796
42517W        W14832  41.793   8.256  10.564
42518W        W14833   6.232  44.299   3.193
42519W        W14834  37.919  16.137  13.039
42520W        W14835   8.675  28.979  13.060
42521W        W14836  24.658  33.529  10.462
42522W        W14837   4.353  16.302  12.022
42523W        W14838   5.923  29.122   2.405
42524W        W14839  38.848  25.146  10.960
42525W        W14840   2.235   0.791   9.922
42526W        W14841  40.347  12.313   4.290
42527W        W14842  14.659  18.674  12.463
42528W        W14843  20.593  44.972   0.782
42529W        W14844   8.326  13.109  11.105
42530W        W14845  11.645   7.893  13.539
42531W        W14846  22.546  38.010  13.908
42532W        W14847  29.118  17.077   2.816
42533W        W14848  26.698   7.863   4.302
42534W        W14849  16.245  44.842   1.765
42535W        W14850  16.141  36.886   0.482
42536W        W14851  18.578   5.688  13.331
42537W        W14852  11.730  17.705  11.972
42538W        W14853   4.832  35.871   3.694
42539W        W14854  36.434  34.562  12.029
42540W        W14855  27.064  16.103  11.092
42541W        W14856   9.703   3.906  10.927
42542W        W14857  38.487  43.400   1.230
42543W        W14858  37.996  23.560   1.820
42544W        W14859   7.671   4.936  13.434
42545W        W14860  36.858  33.890   0.960
42546W        W14861  42.978  44.006   4.746
42547W        W14862   4.406  44.466  10.626
42548W        W14863   4.253  15.639   3.160
42549W        W14864  28.440  30.469   3.323
42550W        W14865  14.814  17.215  11.863
42551W        W14866   9.677  11.160  11.463
42552W        W14867  37.852  43.512  11.896
42553W        W14868  17.715   3.819   0.783
42554W        W14869   9.885  42.438   3.678
42555W        W14870  20.686   8.898   5.287
42556W        W14871  17.584  34.540  11.404
42557W        W14872   7.745  14.814  10.491
42558W        W14873   6.747  30.077  10.555
42559W        W14874  26.492  14.226   2.879
42560W        W14875  40.996  28.660  13.512
42561W        W14876  16.288  41.818   1.753
42562W        W14877  24.166  17.616   1.443
42563W        W14878   1.871  26.505  10.079
42564W        W14879  14.620  38.525   1.892
42565W        W14880   9.728  37.342   0.322
42566W        W14881  21.187   0.811  14.516
42567W        W14882  42.383  36.045  10.901
42568W        W14883   2.245  41.325  14.774
42569W        W14884   0.311  29.110   3.806
42570W        W14885  13.178  39.543  11.906
42571W        W14886  37.366  25.660  12.903
42572W        W14887  19.196  26.574   0.869
42573W        W14888  30.088  34.944   3.153
42574W        W14889  26.627   3.858  12.895
42575W        W14890  15.097   6.782   4.114
42576W        W14891   7.876  37.988  12.862
42577W        W14892  14.260  18.087  14.868
42578W        W14893  33.430  34.427  10.564
42579W        W14894  39.855   1.803  14.008
42580W        W14895  39.464  19.164   0.259
42581W        W14896  28.593  31.441   4.175
42582W        W14897  35.397   6.700   0.758
42583W        W14898  24.151  29.520  14.286
42584W        W14899  40.361  13.247   2.804
42585W        W14900   3.301  34.561  11.589
42586W        W14901  36.949  35.494   4.351
42587W        W14902  10.330  32.034  12.909
42588W        W14903  17.240  15.762  11.932
42589W        W14904   1.341   7.698  12.515
42590W        W14905  10.668  35.062  11.518
42591W        W14906  38.542   2.387  14.874
42592W        W14907   4.735   9.763   2.708
42593W        W14908  26.125  24.175  14.759
42594W        W14909  37.409  22.047   3.691
42595W        W14910  27.165  37.562   2.680
42596W        W14911   1.926   7.260   2.766
42597W        W14912  28.952  29.956   1.835
42598W        W14913   7.314   0.435   1.878
42599W        W14914   5.879  16.680  14.421
42600W        W14915  17.719  11.751   4.164
42601W        W14916  43.861   0.453  14.358
42602W        W14917  43.293   3.404   0.370
42603W        W14918  37.831   6.414   3.340
42604W        W14919  28.093   4.938  14.761
42605W        W14920  31.973   5.202  12.853
42606W        W14921   3.257   4.798   0.469
42607W        W14922  44.417  43.944   2.685
42608W        W14923  37.079  38.046   4.707
42609W        W14924  26.196  32.425  13.313
42610W        W14925  37.985   2.265   4.636
42611W        W14926  31.129  19.047  11.415
42612W        W14927  37.871  22.094   4.272
42613W        W14928  18.763   1.323  13.053
42614W        W14929  32.979  16.717  10.971
42615W        W14930  43.876  12.815  12.541
42616W        W14931  20.167  16.270  11.382
42617W        W14932  44.921  41.312  12.374
42618W        W14933  15.103  41.403   4.329
42619W        W14934  31.937  23.612   0.923
42620W        W14935  35.895  35.999   0.458
42621W        W14936   7.286   6.759   2.268
42622W        W14937  36.424  29.089  13.520
42623W        W14938  17.113  23.703  14.801
42624W        W14939  31.437  40.040  14.970
42625W        W14940  19.091   6.778   0.944
42626W        W14941  28.530  29.953   1.829
42627W        W14942  37.408   7.780   0.412
42628W        W14943   2.433   1.450  14.304
42629W        W14944   1.297  27.167  11.569
42630W        W14945   8.365   6.886  13.845
42631W        W14946  35.882  21.045   3.677
42632W        W14947   8.828  12.134   4.136
42633W        W14948   4.315  33.535  11.372
42634W        W14949  32.550  30.031   3.163
42635W        W14950  10.818   4.895   4.801
42636W        W14951  18.215  34.371   0.771
42637W        W14952  32.038  34.903  11.115
42638W        W14953   3.267   9.280   4.213
42639W        W14954  35.099  14.602  10.974
42640W        W14955   9.825   3.942  11.493
42641W        W14956   3.801   8.196   1.921
42642W        W14957  37.338  21.671   1.230
42643W        W14958  23.160  14.737   1.337
42644W        W14959  12.698  23.201   3.226
42645W        W14960  30.545  25.469  11.090
42646W        W14961  25.609  37.500  13.852
42647W        W14962  19.109  20.529  13.953
42648W        W14963  42.411  37.457  13.539
42649W        W14964   9.344  12.630   2.406
42650W        W14965  42.331  16.578   1.865
42651W        W14966   4.769   3.401  10.078
42652W        W14967   2.871  31.033  14.325
42653W        W14968  30.651   4.438   3.686
42654W        W14969  28.951  29.059  14.493
42655W        W14970  15.659  37.546   0.414
42656W        W14971  26.526   9.833   3.146
42657W        W14972   7.284   9.258  13.993
42658W        W14973  13.132  31.604  12.488
42659W        W14974  41.434  22.175  12.887
42660W        W14975  14.747  21.175   4.662
42661W        W14976  37.427  27.169   2.396
42662W        W14977  44.965   9.804  14.826
42663W        W14978  25.560  26.082   0.321
42664W        W14979  40.024  40.962   1.836
42665W        W14980  29.567  41.938   0.430
42666W        W14981  31.067  44.362  11.372
42667W        W14982  15.145  19.750   3.258
42668W        W14983  43.280  38.943   3.266
42669W        W14984   7.199  40.453  12.429
42670W        W14985  40.357   8.755   2.752
42671W        W14986  41.296  19.746   2.895
42672W        W14987  34.471  24.532   4.286
42673W        W14988  21.665   7.407  14.866
42674W        W14989   9.723  23.646   3.771
42675W        W14990  13.311  24.177   0.301
42676W        W14991   9.700  30.981  10.453
42677W        W14992  20.557  41.823   3.381
42678W        W14993  23.064  41.350   1.425
42679W        W14994  34.592   8.665  11.391
42680W        W14995  26.102  31.551  11.429
42681W        W14996  37.019   3.955  14.822
42682W        W14997  36.473  20.604   0.778
42683W        W14998   3.780  25.621  12.543
42684W        W14999  11.798  40.328  13.951
42685W        W15000  20.538  38.901   4.819
42686W        W15001   0.931  37.865   4.677
42687W        W15002  21.053  29.509   2.874
42688W        W15003  39.462  35.434  13.337
42689W        W15004   9.722  44.291  12.960
42690W        W15005  23.494  16.259  12.875
42691W        W15006  23.078  27.643   2.242
42692W        W15007  31.094   3.930   0.739
42693W        W15008  24.593  20.683   3.321
42694W        W15009  36.516  42.810   2.251
42695W        W15010   0.332   0.842   1.234
42696W        W15011   4.795   4.829  10.982
42697W        W15012  21.022  30.513  14.424
42698W        W15013   9.727  22.610  14.410
42699W        W15014  28.541  24.134   2.788
42700W        W15015  27.580  42.416  13.436
42701W        W15016  28.135  19.619  14.870
42702W        W15017  12.612  22.037  12.352
42703W        W15018  28.028  17.151   1.377
42704W        W15019  13.656  39.825  12.890
42705W        W15020  25.028  30.129  11.567
42706W        W15021   7.802  26.640   2.847
42707W        W15022  37.350  25.115  12.441
42708W        W15023   7.379  22.576   4.790
42709W        W15024  33.485  15.296  12.939
42710W        W15025  16.232  21.678   1.747
42711W        W15026   2.423   0.486  11.956
42712W        W15027  38.067  25.541   4.642
42713W        W15028  30.037  33.901  14.776
42714W        W15029  19.119   4.335   0.738
42715W        W15030  10.237   6.288   1.425
42716W        W15031  29.940  22.128  12.031
42717W        W15032  37.457   0.281  14.936
42718W        W15033  11.301  35.473   0.764
42719W        W15034  28.590  31.618   2.349
42720W        W15035  15.683  22.117  12.339
42721W        W15036   7.251  20.574   2.818
42722W        W15037  26.003  36.569   3.268
42723W        W15038  19.707  38.506  12.350
42724W        W15039   7.790  15.194  12.083
42725W        W15040  10.679  23.196   0.814
42726W        W15041  36.039  30.011  14.513
42727W        W15042  31.911  43.285  13.860
42728W        W15043  15.088  33.888   1.353
42729W        W15044  44.792  11.194  13.523
42730W        W15045  18.189  29.635  11.898
42731W        W15046   6.769  14.244   2.884
42732W        W15047  30.979  29.123  13.464
42733W        W15048  25.554  35.035   0.784
42734W        W15049  29.539  39.363  14.403
42735W        W15050  16.663   8.673   1.415
42736W        W15051  29.475  36.987  10.474
42737W        W15052  44.321   3.892   0.748
42738W        W15053   9.706   1.259  11.410
42739W        W15054  10.321  12.833  10.452
42740W        W15055  36.456  24.094  11.513
42741W        W15056  13.680   9.243   3.750
42742W        W15057  29.454  15.709  10.643
42743W        W15058  44.896  26.983  12.376
42744W        W15059  23.604  39.370  11.888
42745W        W15060  36.021  36.017   3.254
42746W        W15061  22.717   9.796   2.246
42747W        W15062   9.797  28.159  11.518
42748W        W15063   4.434  28.652   2.317
42749W        W15064  14.787  41.915   4.155
42750W        W15065  31.617  40.499   1.697
42751W        W15066  14.717  36.072   0.278
42752W        W15067  20.145  18.613   4.267
42753W        W15068  10.795  13.653  12.874
42754W        W15069  26.616  29.495  14.867
42755W        W15070   6.387  36.383   4.348
42756W        W15071  12.165   4.753   0.880
42757W        W15072  20.232  28.470  13.856
42758W        W15073  11.174  20.687   0.385
42759W        W15074  39.922  44.325   4.693
42760W        W15075  31.598  25.039   0.482
42761W        W15076  36.543  11.282  14.901
42762W        W15077  26.469  16.295  10.495
42763W        W15078  33.488  43.936   2.778
42764W        W15079  18.663  42.494   3.738
42765W        W15080  15.609  17.261   2.742
42766W        W15081  36.904   6.353   2.293
42767W        W15082  40.408  10.664   4.685
42768W        W15083   5.811   2.274  13.339
42769W        W15084   0.911  11.216   3.341
42770W        W15085  16.213  11.678   0.824
42771W        W15086  19.074  29.663   1.795
42772W        W15087  36.973  18.082   1.837
42773W        W15088  23.675  35.368  14.388
42774W        W15089  39.987  29.625  10.924
42775W        W15090  17.590   2.231   0.868
42776W        W15091   3.300   8.339   1.440
42777W        W15092  12.765  26.537   0.911
42778W        W15093  29.940  35.074  13.893
42779W        W15094  29.047  19.714  11.905
42780W        W15095  35.004  14.101  12.071
42781W        W15096  17.080  14.332  14.847
42782W        W15097  14.264  11.207  12.014
42783W        W15098  28.934  37.357   2.862
42784W        W15099  34.373  25.485  12.073
42785W        W15100  39.387   7.262  13.327
42786W        W15101   3.952   1.844   1.364
42787W        W15102  33.412  25.062   2.869
42788W        W15103  34.449  18.610  14.845
42789W        W15104  40.498  31.951   0.321
42790W        W15105   1.846  28.932  10.441
42791W        W15106   0.337  36.375   2.848
42792W        W15107  34.949   3.453   0.739
42793W        W15108  22.093  17.235  12.387
42794W        W15109   8.354  38.926  11.997
42795W        W15110  38.461   4.836  13.519
42796W        W15111   0.987   4.860  10.643
42797W        W15112   7.824  31.999  13.892
42798W        W15113  18.723  31.429   2.818
42799W        W15114  34.925  35.926  10.584
42800W        W15115  28.090  14.831  13.051
42801W        W15116   3.781   6.258   3.697
42802W        W15117  38.041  35.887   1.302
42803W        W15118  35.933  32.527   3.641
42804W        W15119   4.207   7.395   0.953
42805W        W15120   6.346  39.934  10.422
42806W        W15121  42.946   1.795  11.594
42807W        W15122   1.337   5.734   0.315
42808W        W15123  40.993  16.747   2.350
42809W        W15124  18.704  24.982   5.178
42810W        W15125  13.744  27.617   3.200
42811W        W15126  36.937  12.194  10.492
42812W        W15127   3.283  27.530  14.866
42813W        W15128  28.482   1.962  14.294
42814W        W15129  29.959  17.776  13.517
42815W        W15130  31.468  37.074   0.871
42816W        W15131  37.853  41.447  12.946
42817W        W15132  36.962  18.721  13.917
42818W        W15133  13.166   8.808   1.415
42819W        W15134  12.846   4.446   3.671
42820W        W15135   4.828   9.199   2.866
42821W        W15136  39.542  14.589  14.780
42822W        W15137  12.747  15.680   2.350
42823W        W15138  28.006  30.109  11.468
42824W        W15139  15.123  17.596   1.231
42825W        W15140  28.948  38.331  11.405
42826W        W15141  12.742  27.538  14.788
42827W        W15142  36.499  37.445   5.174
42828W        W15143  22.252  28.041  13.805
42829W        W15144  41.398  33.106  12.868
42830W        W15145   2.851  30.137   3.204
42831W        W15146  35.949  35.054   4.308
42832W        W15147   9.300   8.398  11.127
42833W        W15148  15.297  12.668   0.464
42834W        W15149  10.144  14.747   2.192
42835W        W15150  38.420  29.539  13.311
42836W        W15151  34.888  35.420   1.894
42837W        W15152  33.413  30.048  12.946
42838W        W15153  35.539  22.042  12.926
42839W        W15154  38.452  12.241   4.233
42840W        W15155  11.184   1.771   0.304
42841W        W15156  40.809  13.203   3.386
42842W        W15157  37.047  10.270  13.992
42843W        W15158  25.617  20.716   3.675
42844W        W15159  37.497  18.582  11.005
42845W        W15160  10.790  25.209   2.194
42846W        W15161   1.467  42.868  10.584
42847W        W15162  15.728  41.980  13.883
42848W        W15163  29.135  21.613  12.377
42849W        W15164  36.012  17.645  14.803
42850W        W15165   5.282  35.096   0.365
42851W        W15166  16.075  43.013   5.106
42852W        W15167  44.461  33.973  12.829
42853W        W15168  21.567  28.464   0.884
42854W        W15169   4.870  15.202  14.854
42855W        W15170  27.599  36.086  14.325
42856W        W15171  25.468  16.173  14.007
42857W        W15172  12.744  44.481  13.004
42858W        W15173   0.905  30.916  10.937
42859W        W15174  37.011   6.264   0.424
42860W        W15175  18.545  28.633   9.935
42861W        W15176  39.444  19.557   4.725
42862W        W15177  10.717  25.120  12.393
42863W        W15178   5.383  12.337  13.948
42864W        W15179  38.556  11.187   2.901
42865W        W15180  26.128  35.567   1.427
42866W        W15181  13.699  18.569  11.477
42867W        W15182  43.823   9.660   0.266
42868W        W15183  28.991   0.292  11.478
42869W        W15184  22.522  14.794   1.766
42870W        W15185  17.195  24.687   2.416
42871W        W15186  25.536   4.805  14.995
42872W        W15187   8.345  37.993  12.042
42873W        W15188  31.497  22.679  14.433
42874W        W15189  27.105  44.349  14.452
42875W        W15190  21.087  35.037  14.838
42876W        W15191  33.394   3.719  13.386
42877W        W15192   0.978  19.683  10.564
42878W        W15193  39.373  38.414   1.323
42879W        W15194  35.097  44.979   1.339
42880W        W15195  39.023   0.832   2.681
42881W        W15196  13.282  10.746   1.807
42882W        W15197  20.697  40.336  10.619
42883W        W15198  37.072  14.254   1.259
42884W        W15199  21.160  23.093  12.025
42885W        W15200  22.604  19.274  11.452
42886W        W15201  32.084  19.172  11.098
42887W        W15202  37.416  19.743   2.838
42888W        W15203  33.385  15.618   3.762
42889W        W15204  28.661  37.055   2.344
42890W        W15205  15.231  20.712   0.743
42891W        W15206   7.208  25.030  12.921
42892W        W15207  42.510   5.711  12.541
42893W        W15208   0.487  38.334   4.641
42894W        W15209  44.856   7.812   3.809
42895W        W15210  29.541   2.230  13.055
42896W        W15211   9.337  11.236   4.275
42897W        W15212  21.657  18.560   2.288
42898W        W15213   4.839  37.560  11.568
42899W        W15214  40.813  43.826  13.944
42900W        W15215  28.636  19.172   0.316
42901W        W15216  14.161   4.924   3.857
42902W        W15217  30.466   2.256  14.011
42903W        W15218  26.149  43.468   3.377
42904W        W15219  25.544  14.180   3.184
42905W        W15220  35.982  14.120  11.936
42906W        W15221  16.196  21.563  10.515
42907W        W15222  34.041  44.797   1.910
42908W        W15223  18.121  41.514  14.380
42909W        W15224   4.234  27.131  14.362
42910W        W15225   2.317  16.733   1.814
42911W        W15226  28.045  15.193  13.944
42912W        W15227  25.477  19.267   4.702
42913W        W15228  30.065  20.086  10.917
42914W        W15229  37.899  18.124  14.770
42915W        W15230  41.463   5.253   1.770
42916W        W15231  15.607   3.439  13.877
42917W        W15232  35.385  31.921   1.304
42918W        W15233  20.657  15.735   0.910
42919W        W15234  36.968  44.319  11.389
42920W        W15235  13.263   0.941   1.710
42921W        W15236  31.569  15.810  14.473
42922W        W15237  26.627  25.655  13.810
42923W        W15238  15.690  16.801   2.202
42924W        W15239  18.602  22.675  12.531
42925W        W15240   2.834  36.845   1.799
42926W        W15241   5.429  11.822  11.372
42927W        W15242  18.778   8.170   3.354
42928W        W15243  32.596  22.240  12.420
42929W        W15244  34.384   7.246  14.832
42930W        W15245  30.150  16.217  12.083
42931W        W15246  11.668   9.370  10.932
42932W        W15247  30.123  12.814   2.773
42933W        W15248  22.108  21.650   3.675
42934W        W15249  12.742   4.735   2.862
42935W        W15250   8.860  32.419  12.458
42936W        W15251  10.771  33.002  11.442
42937W        W15252  31.646   4.849   4.215
42938W        W15253  36.893   6.351   1.368
42939W        W15254   4.320  22.522   3.240
42940W        W15255  21.154  30.948  10.619
42941W        W15256  36.036   2.327   1.384
42942W        W15257  16.112  42.436   3.715
42943W        W15258  15.699  37.948   1.436
42944W        W15259   6.361  26.522   1.414
42945W        W15260  40.924   0.345  13.005
42946W        W15261   3.917  18.099  10.461
42947W        W15262  37.462   8.740   1.433
42948W        W15263  31.027  44.841   1.235
42949W        W15264  44.435  36.518   0.801
42950W        W15265  16.167   4.327   0.420
42951W        W15266   1.330   3.799   3.675
42952W        W15267  10.673   8.752  14.876
42953W        W15268  12.699  33.476   0.275
42954W        W15269   7.899  41.849  10.545
42955W        W15270  42.867  30.425   0.470
42956W        W15271  34.433  24.707   3.748
42957W        W15272  42.300  44.485  13.343
42958W        W15273   3.384   2.722   2.181
42959W        W15274  27.646  23.105   2.765
42960W        W15275  40.395  43.891  13.886
42961W        W15276  34.574   0.843   3.175
42962W        W15277  20.220  24.144  10.488
42963W        W15278  18.706  13.165  12.346
42964W        W15279   3.367  27.055  12.501
42965W        W15280  19.159   9.772   3.700
42966W        W15281  13.817  31.906   1.744
42967W        W15282  42.298  23.228   0.370
42968W        W15283  25.705   3.766  11.564
42969W        W15284  34.418  11.689  13.458
42970W        W15285  37.867  30.562   3.208
42971W        W15286  26.631  33.580  10.049
42972W        W15287  44.787   2.896   1.443
42973W        W15288  27.094  30.931  13.008
42974W        W15289  18.146  33.046   4.183
42975W        W15290  27.124  29.541   3.306
42976W        W15291   1.822  38.914   2.877
42977W        W15292   2.390  34.529   3.163
42978W        W15293  10.711  14.339   4.603
42979W        W15294   9.809  19.634   4.346
42980W        W15295  35.478  25.978  14.777
42981W        W15296  16.317   5.762   0.305
42982W        W15297   2.259  31.528   1.291
42983W        W15298  38.509  37.907  12.447
42984W        W15299  32.013  30.997   0.744
42985W        W15300  32.557   6.823  10.590
42986W        W15301  28.466  32.002  10.599
42987W        W15302  21.188  23.138  11.400
42988W        W15303  36.455   7.321   3.244
42989W        W15304  25.530  17.585  14.888
42990W        W15305   6.853  10.251   3.713
42991W        W15306  13.233  43.404   1.368
42992W        W15307  33.507  40.934   3.311
42993W        W15308  24.218  12.653   1.213
42994W        W15309  13.726  21.599  14.498
42995W        W15310  21.096  11.171   9.949
42996W        W15311   1.782  28.616   4.238
42997W        W15312   3.909  11.233   0.266
42998W        W15313   2.450  24.673   2.309
42999W        W15314  40.393  25.013  10.474
43000W        W15315  18.729  35.592  13.052
43001W        W15316   7.257  42.514  12.944
43002W        W15317  18.131   4.211   2.196
43003W        W15318  37.436  38.422   1.844
43004W        W15319  34.925  22.699   3.303
43005W        W15320  36.042  41.531  11.591
43006W        W15321  20.540  18.189   1.874
43007W        W15322  31.489  37.387  13.316
43008W        W15323  38.938   4.848  14.981
43009W        W15324  27.537  42.420   1.750
43010W        W15325  42.513  36.060   2.663
43011W        W15326  13.781  31.120  12.957
43012W        W15327   9.261  17.783   3.735
43013W        W15328  38.956  35.536  12.888
43014W        W15329  23.655   7.268   2.707
43015W        W15330  16.620  11.223  12.549
43016W        W15331   9.813  14.118  13.445
43017W        W15332  44.836   9.326   1.447
43018W        W15333  12.158  25.503   0.772
43019W        W15334   5.720  42.833  13.824
43020W        W15335  39.464  32.582  12.912
43021W        W15336  44.943  38.903   4.788
43022W        W15337  12.736   9.785   1.445
43023W        W15338  31.559   4.913   0.778
43024W        W15339  33.035   5.390   0.903
43025W        W15340  35.959  35.547  13.480
43026W        W15341  25.555  22.213   0.877
43027W        W15342  14.677  19.669  14.356
43028W        W15343  39.421  34.392  14.484
43029W        W15344  43.371  26.525  13.926
43030W        W15345  17.093   1.807   2.327
43031W        W15346  14.831  32.893  13.884
43032W        W15347  11.230  16.639  14.855
43033W        W15348  18.061  43.854   0.926
43034W        W15349  17.717   1.313  11.880
43035W        W15350   6.324  27.692   1.695
43036W        W15351  38.828  27.685  11.551
43037W        W15352  30.628  16.693  13.482
43038W        W15353   4.908  40.339   2.693
43039W        W15354  31.545  35.041  14.407
43040W        W15355  33.937  43.326  12.543
43041W        W15356  44.342  17.258  10.620
43042W        W15357  38.420  37.477  14.981
43043W        W15358  44.286   7.328   3.818
43044W        W15359  17.263  33.426   4.804
43045W        W15360  30.438  35.444   2.304
43046W        W15361  39.055  39.348  13.964
43047W        W15362  23.540  10.226  10.461
43048W        W15363   8.339  12.624   2.258
43049W        W15364   5.266   4.925   1.451
43050W        W15365  20.058  41.304   4.330
43051W        W15366  19.662  41.475  11.465
43052W        W15367  19.622  21.654  10.986
43053W        W15368  28.636  16.667   3.639
43054W        W15369  18.672  43.389  11.877
43055W        W15370  26.049  27.108  14.016
43056W        W15371  42.317  30.463   3.652
43057W        W15372  42.484  20.254   3.150
43058W        W15373  33.552  31.019  13.396
43059W        W15374  39.507  23.195  13.506
43060W        W15375  44.386  22.168   1.910
43061W        W15376   5.734   5.266   1.721
43062W        W15377  35.085  25.680   1.294
43063W        W15378  39.384  15.316   3.778
43064W        W15379  11.335  31.102  13.855
43065W        W15380  34.612   4.293   4.646
43066W        W15381   9.732  29.631  13.917
43067W        W15382  22.136   0.484   2.681
43068W        W15383  28.112  34.469  10.535
43069W        W15384  40.938   9.176  14.776
43070W        W15385  35.431  16.728  12.829
43071W        W15386   2.850  11.302  11.866
43072W        W15387   1.365  34.106   0.370
43073W        W15388  21.609  26.624  13.926
43074W        W15389  43.272  26.637  13.039
43075W        W15390  12.830   2.787  12.562
43076W        W15391  22.242  44.270   1.773
43077W        W15392  33.440  38.339   4.811
43078W        W15393  44.497   2.760  14.880
43079W        W15394  16.186  23.646   4.161
43080W        W15395  16.809  17.667   1.908
43081W        W15396  18.188  10.229  13.856
43082W        W15397  42.511  23.608   4.291
43083W        W15398   3.726  26.130   1.230
43084W        W15399  20.051  27.179   3.160
43085W        W15400  30.912   7.889  14.798
43086W        W15401  40.540  40.525   0.247
43087W        W15402  44.778   1.933   1.901
43088W        W15403  28.660  13.337  11.991
43089W        W15404   9.839  16.230  11.054
43090W        W15405   8.285  32.590  11.038
43091W        W15406  38.936  12.794   2.191
43092W        W15407   1.439  41.491  14.818
43093W        W15408  30.098  39.907   2.830
43094W        W15409  35.567  34.979   4.728
43095W        W15410  30.030   4.426  12.823
43096W        W15411  23.621  36.459  14.826
43097W        W15412  41.415  19.688   3.647
43098W        W15413  11.314   6.716   0.751
43099W        W15414  22.104  19.273   4.654
43100W        W15415  40.331   9.802  14.837
43101W        W15416  38.945  18.203   3.701
43102W        W15417  41.437  16.158  12.037
43103W        W15418  15.165  10.368  14.355
43104W        W15419  19.194  19.693   2.893
43105W        W15420   6.748  43.802  11.415
43106W        W15421  11.813  30.482   0.258
43107W        W15422  21.081  31.416  14.438
43108W        W15423  43.781   9.227  11.996
43109W        W15424  40.503   8.267  14.020
43110W        W15425  39.323  12.677   1.433
43111W        W15426   4.782  27.085   4.645
43112W        W15427   9.805   3.396   1.816
43113W        W15428  32.588  30.107   3.731
43114W        W15429  19.093  28.108  14.923
43115W        W15430   5.356  11.147   3.181
43116W        W15431   4.366  36.440   4.350
43117W        W15432  33.621  12.641   0.875
43118W        W15433  34.115  41.414  13.050
43119W        W15434  42.331  39.375  13.308
43120W        W15435  39.511  35.937   2.857
43121W        W15436  17.089  12.660  11.574
43122W        W15437  20.165  12.796   2.273
43123W        W15438   0.249   4.883  11.026
43124W        W15439  41.956  43.913  10.483
43125W        W15440  22.042  25.998  14.890
43126W        W15441   0.327  41.332   0.967
43127W        W15442  42.024  21.245   5.289
43128W        W15443  13.115  23.135   4.311
43129W        W15444  23.091  39.963   4.691
43130W        W15445  32.427  41.995   2.796
43131W        W15446  19.746   5.270   3.648
43132W        W15447  43.442  12.238   2.808
43133W        W15448   4.788  35.922  12.017
43134W        W15449  13.700  29.144   1.897
43135W        W15450  29.954   9.685   1.298
43136W        W15451  11.149  29.528   1.699
43137W        W15452  33.104   7.899  10.971
43138W        W15453  40.304  19.548   0.474
43139W        W15454   4.870  26.130   0.387
43140W        W15455  29.164   8.851   1.439
43141W        W15456  40.042  31.146  14.021
43142W        W15457  27.068   5.705   9.567
43143W        W15458  39.970  43.384   3.297
43144W        W15459  23.214  31.964   3.153
43145W        W15460   7.183   2.465  11.088
43146W        W15461  33.122  18.130   4.779
43147W        W15462  10.176  19.165  10.056
43148W        W15463  30.517  18.120   1.401
43149W        W15464  28.143  41.039  11.522
43150W        W15465  29.084  26.176   3.327
43151W        W15466  10.814  32.937  13.366
43152W        W15467  10.153  39.912   9.976
43153W        W15468  39.352  21.054   1.846
43154W        W15469  12.776  17.103  14.487
43155W        W15470  30.537  37.424   2.305
43156W        W15471  10.161  17.202  13.960
43157W        W15472  41.466  22.159  11.402
43158W        W15473  24.634  16.256  11.452
43159W        W15474  15.647   5.751  14.416
43160W        W15475  28.167  23.049  14.329
43161W        W15476   2.295  11.778   2.271
43162W        W15477   9.307  41.412  11.121
43163W        W15478  37.072   2.455  14.462
43164W        W15479  44.499   4.752   4.743
43165W        W15480  38.383  32.922   1.253
43166W        W15481  32.066  28.065  12.452
43167W        W15482  34.895  14.697  14.362
43168W        W15483  38.901  14.736  14.407
43169W        W15484   5.703  43.422   0.419
43170W        W15485  33.606   1.762   2.712
43171W        W15486  44.860  27.688  12.976
43172W        W15487  33.590  37.065  12.422
43173W        W15488  21.544   4.239  11.587
43174W        W15489   2.761  23.183   1.395
43175W        W15490   0.764  28.079   4.251
43176W        W15491   3.739  23.604   1.744
43177W        W15492   0.365   1.777  14.443
43178W        W15493  21.718   1.791   4.719
43179W        W15494  41.418   6.754   1.274
43180W        W15495  15.800  21.173  12.977
43181W        W15496  23.667  44.395   2.843
43182W        W15497  10.284   0.812   1.912
43183W        W15498  31.607  40.904   4.750
43184W        W15499  24.036  30.441  14.836
43185W        W15500  44.328  23.582  14.341
43186W        W15501  15.698  25.161   3.291
43187W        W15502  36.411  11.739  11.582
43188W        W15503  14.291  25.640  13.525
43189W        W15504   4.219  18.568  12.912
43190W        W15505  35.866  39.942  14.835
43191W        W15506  22.019  14.615   3.287
43192W        W15507  29.629   2.436  12.082
43193W        W15508  33.397  29.055   2.417
43194W        W15509  38.874   3.809   1.815
43195W        W15510  43.826   0.391  14.959
43196W        W15511   3.907  14.132   3.810
43197W        W15512  20.590  24.549   1.895
43198W        W15513  26.981  19.612  13.314
43199W        W15514  24.634  37.521  11.553
43200W        W15515  26.201  29.574  12.363
43201W        W15516  26.985   8.836  13.402
43202W        W15517  19.699   4.226   3.737
43203W        W15518  22.746  19.584  10.519
43204W        W15519   7.844  33.455  12.974
43205W        W15520  18.247   8.169  12.481
43206W        W15521  23.089  34.056   2.874
43207W        W15522   8.831  31.059  14.510
43208W        W15523  28.477  34.410  13.948
43209W        W15524  38.058   1.244  11.479
43210W        W15525  36.380  43.780  14.302
43211W        W15526  36.098  44.755  12.052
43212W        W15527   8.898  13.283  12.976
43213W        W15528  23.580  11.844   0.884
43214W        W15529  16.097  39.376   4.138
43215W        W15530  29.591  21.026   3.757
43216W        W15531  30.024  39.831  12.879
43217W        W15532  38.924  27.082   9.492
43218W        W15533  20.036  24.098   2.823
43219W        W15534  33.951  41.470   0.289
43220W        W15535  39.413  31.104   2.731
43221W        W15536  42.858  30.571   1.935
43222W        W15537  26.979   9.836  10.916
43223W        W15538  20.581   8.683  11.098
43224W        W15539  38.361   3.238  13.003
43225W        W15540  38.966  14.273  10.565
43226W        W15541  27.584   2.926   4.645
43227W        W15542  26.132   1.737  12.941
43228W        W15543  39.423  37.486   4.152
43229W        W15544  20.655  21.758  10.993
43230W        W15545  17.192  21.028  12.090
43231W        W15546   9.356  16.219  11.119
43232W        W15547  38.510  40.445   2.344
43233W        W15548  16.197  30.490   3.346
43234W        W15549  11.770  38.984   1.868
43235W        W15550  24.996  18.779  11.487
43236W        W15551  34.528  35.883  14.903
43237W        W15552  14.755  20.145  13.408
43238W        W15553  21.537  23.155   3.864
43239W        W15554  19.125  41.911  14.438
43240W        W15555  19.728   1.305   2.854
43241W        W15556  21.545   0.880  13.051
43242W        W15557  10.780  20.679   0.412
43243W        W15558   0.464   6.861  11.420
43244W        W15559  40.450   9.729   0.839
43245W        W15560  23.155  24.502  14.410
43246W        W15561  41.986  20.105   1.210
43247W        W15562  38.563  25.500   0.268
43248W        W15563  37.407   9.373  12.518
43249W        W15564  42.875  10.772  10.124
43250W        W15565  29.577  23.682   4.783
43251W        W15566  35.541   1.360   3.647
43252W        W15567  31.941  39.971  12.567
43253W        W15568   9.363  28.659  11.603
43254W        W15569  33.108  12.668  14.786
43255W        W15570   6.220  33.926   4.242
43256W        W15571  18.100  26.207   3.820
43257W        W15572  38.401  35.930   4.793
43258W        W15573  24.720  18.076   2.748
43259W        W15574  36.558  15.739   3.304
43260W        W15575  15.137  31.099   4.256
43261W        W15576  28.979   2.368   3.238
43262W        W15577  30.565  25.135   1.892
43263W        W15578  16.656  17.588   4.709
43264W        W15579  10.787  21.189   3.766
43265W        W15580  10.285   4.940   4.255
43266W        W15581   0.810  27.478  10.990
43267W        W15582   3.288  38.353  12.842
43268W        W15583   2.915  38.409  11.410
43269W        W15584  14.104   3.440   2.677
43270W        W15585  15.792  32.462  14.758
43271W        W15586  37.987  12.754   4.792
43272W        W15587   5.890   9.867  11.506
43273W        W15588  37.580  24.707  10.482
43274W        W15589   7.301  44.798  11.859
43275W        W15590  14.806  19.160  12.940
43276W        W15591  23.109  25.153  13.793
43277W        W15592   2.239   7.885   0.839
43278W        W15593  21.152  10.814  14.855
43279W        W15594  24.015   4.708  13.910
43280W        W15595  37.976   4.408   2.221
43281W        W15596  41.448  10.385   3.222
43282W        W15597  42.378  14.177   1.257
43283W        W15598   8.865   8.680   0.961
43284W        W15599  22.134  25.516  12.503
43285W        W15600  25.641  11.129  11.995
43286W        W15601  37.983  21.191   0.313
43287W        W15602   6.292  18.131   0.410
43288W        W15603   1.827  21.606  11.906
43289W        W15604  28.662  37.957  11.913
43290W        W15605  32.563   7.239   4.155
43291W        W15606  33.012  28.672   3.745
43292W        W15607  40.975  15.753   2.298
43293W        W15608  13.143  21.570   2.374
43294W        W15609  36.020  28.442   4.236
43295W        W15610  40.507  42.307  11.609
43296W        W15611  13.213  27.461   4.645
43297W        W15612  30.043  12.158  10.494
43298W        W15613   7.827  15.759   0.773
43299W        W15614  25.140  16.799  10.943
43300W        W15615  40.406  30.964  12.517
43301W        W15616  22.027  20.680   2.696
43302W        W15617  34.885  20.031  11.529
43303W        W15618  27.681   1.865   1.851
43304W        W15619   1.418  42.312   4.236
43305W        W15620  12.652  13.178   3.387
43306W        W15621  21.624  15.629   5.186
43307W        W15622  14.215  23.108   4.208
43308W        W15623   9.822   4.363   1.210
43309W        W15624  44.391  30.162  10.476
43310W        W15625  43.353   4.283  13.450
43311W        W15626  14.699  18.138   4.741
43312W        W15627  29.595   1.270   2.272
43313W        W15628   1.835  39.478  12.883
43314W        W15629  21.078  12.789  11.442
43315W        W15630   6.787  14.321   0.289
43316W        W15631  26.560  29.104   3.308
43317W        W15632  16.201  40.959  12.509
43318W        W15633  38.473  10.347   0.843
43319W        W15634  13.196  43.483   0.811
43320W        W15635   6.802  12.730   0.881
43321W        W15636  27.152  41.464   3.378
43322W        W15637  37.013  33.082   1.340
43323W        W15638  38.370  15.624  11.568
43324W        W15639  19.150   0.250  13.038
43325W        W15640  32.971  28.108  10.499
43326W        W15641  35.430  24.082  13.807
43327W        W15642   4.752  16.594  10.578
43328W        W15643  23.068   4.745  10.419
43329W        W15644  24.063   8.897  11.091
43330W        W15645  22.557  44.467  13.023
43331W        W15646  28.680  14.704   3.372
43332W        W15647  28.087   9.204   0.957
43333W        W15648   3.784   6.207  14.846
43334W        W15649  33.035  44.315  13.526
43335W        W15650  13.607  30.552   2.312
43336W        W15651  42.503  36.880   4.735
43337W        W15652  32.991   4.865  12.989
43338W        W15653  35.036  30.516   9.940
43339W        W15654  13.258  16.272  12.908
43340W        W15655   0.393  42.005   2.308
43341W        W15656  20.609  28.451  13.029
43342W        W15657  15.096  16.074  14.394
43343W        W15658   1.324   9.171  14.856
43344W        W15659  41.796  44.984  14.434
43345W        W15660  10.256  37.025   3.261
43346W        W15661  33.492  21.512   0.428
43347W        W15662   7.810   4.817  14.771
43348W        W15663  30.090  42.364  10.949
43349W        W15664  11.678  16.631   5.265
43350W        W15665  13.699  33.062   0.432
43351W        W15666  33.456   7.347  14.381
43352W        W15667   7.666  41.453   5.175
43353W        W15668   9.660  35.005  13.825
43354W        W15669   4.282  37.847   4.758
43355W        W15670  17.074   0.817   4.759
43356W        W15671  40.513  32.944   3.365
43357W        W15672  13.723  42.861  14.344
43358W        W15673  23.036  31.424  12.023
43359W        W15674  33.081   0.808  10.999
43360W        W15675  42.286  14.337  13.403
43361W        W15676  24.706  43.006  14.807
43362W        W15677   1.813  41.297  12.887
43363W        W15678  43.511  21.714  10.520
43364W        W15679  44.804   8.810   0.917
43365W        W15680  27.187  25.211  11.474
43366W        W15681  39.389  36.073  13.932
43367W        W15682   5.239  35.995  11.057
43368W        W15683   6.732   2.774   4.221
43369W        W15684  19.634  41.345  13.510
43370W        W15685  16.773   3.388   2.791
43371W        W15686  20.526  12.685   3.306
43372W        W15687  44.980   7.729   1.774
43373W        W15688  42.975  37.561  10.958
43374W        W15689  39.064  19.202   0.863
43375W        W15690  30.139  34.488  11.047
43376W        W15691  31.037   3.273   5.204
43377W        W15692  35.519   2.824  10.568
43378W        W15693  27.976   7.808   2.408
43379W        W15694  44.943   9.219   4.276
43380W        W15695  27.059  33.874   9.553
43381W        W15696  39.515  25.197  10.031
43382W        W15697  28.957  29.965   3.820
43383W        W15698  15.679  43.909  12.441
43384W        W15699   3.399  25.678   0.483
43385W        W15700  21.252   9.886  13.408
43386W        W15701  17.690  20.072  11.533
43387W        W15702  29.466  34.109   4.599
43388W        W15703  40.933  14.139   2.703
43389W        W15704   3.456  36.466   4.146
43390W        W15705  39.409  21.630   3.631
43391W        W15706  24.519   0.329  12.930
43392W        W15707   5.326   0.764  14.830
43393W        W15708  44.302  29.579  12.344
43394W        W15709  34.430  23.575   4.217
43395W        W15710  31.096   8.391   3.743
43396W        W15711  20.147  12.628  11.490
43397W        W15712  19.225  32.435  14.805
43398W        W15713   9.342   9.233   1.433
43399W        W15714  23.562  41.843  11.546
43400W        W15715   3.948  39.016  13.421
43401W        W15716  21.638  16.164   1.229
43402W        W15717   4.934  35.361  11.581
43403W        W15718  32.531   6.721   3.839
43404W        W15719  44.932  15.238   0.890
43405W        W15720   1.965   4.758   3.344
43406W        W15721  30.612  40.425  12.488
43407W        W15722  24.090  41.827   3.731
43408W        W15723   3.740  39.368  10.564
43409W        W15724  39.850  44.893  13.421
43410W        W15725  33.528   3.413  14.797
43411W        W15726  31.460  30.434   3.386
43412W        W15727  30.003  25.489   4.175
43413W        W15728  37.885   5.797   0.311
43414W        W15729  29.649   1.261  13.385
43415W        W15730  26.556  20.142  11.541
43416W        W15731  24.610  26.095  13.802
43417W        W15732   9.271  27.064   4.747
43418W        W15733  42.443  33.052  12.419
43419W        W15734  36.579  38.344   3.653
43420W        W15735  22.586  24.532  13.870
43421W        W15736   2.351  33.437  12.000
43422W        W15737  32.952  38.530  12.370
43423W        W15738   1.843  34.491   3.196
43424W        W15739  26.612  13.158  14.287
43425W        W15740   5.722  21.140  11.481
43426W        W15741  40.892  40.318   1.304
43427W        W15742  30.456  39.816   3.725
43428W        W15743  41.966  17.225   0.954
43429W        W15744   8.789  32.097  13.431
43430W        W15745  20.105   8.324   0.478
43431W        W15746  23.996  24.626   1.248
43432W        W15747  41.016  30.451  10.632
43433W        W15748  38.413   2.765  14.402
43434W        W15749   5.790  22.162  14.888
43435W        W15750  12.286  26.142  14.949
43436W        W15751  11.168  17.631  14.297
43437W        W15752  14.183  32.891  14.299
43438W        W15753  29.502  12.187   0.852
43439W        W15754  43.333  36.564   1.351
43440W        W15755  35.477  26.481   2.403
43441W        W15756  27.603  14.197  12.088
43442W        W15757  13.846  39.513  11.388
43443W        W15758  20.532   7.885   1.740
43444W        W15759  25.707  34.983  11.533
43445W        W15760   2.355   0.834  14.486
43446W        W15761  16.603   8.795  10.537
43447W        W15762  17.614  25.174  10.513
43448W        W15763  13.835  13.678  10.987
43449W        W15764  24.571  27.169   3.757
43450W        W15765  43.902  21.652   2.808
43451W        W15766   5.248   9.859  14.859
43452W        W15767   8.799  25.150   3.386
43453W        W15768  36.015  15.814  10.961
43454W        W15769  28.449  40.872   1.901
43455W        W15770  15.608  24.172  12.044
43456W        W15771   1.796   9.726  12.982
43457W        W15772  40.408  22.081  10.957
43458W        W15773   3.445  33.068   4.190
43459W        W15774  12.709  11.859  14.026
43460W        W15775  35.960  43.780   1.284
43461W        W15776  10.849  44.996  13.977
43462W        W15777  42.479  12.797  11.585
43463W        W15778  34.469  30.518   0.249
43464W        W15779  38.368   4.229  11.580
43465W        W15780  34.383  10.738   0.857
43466W        W15781   9.217   8.876  13.922
43467W        W15782  26.611  39.517  13.810
43468W        W15783   7.798  34.537  12.529
43469W        W15784  20.182   3.860  12.422
43470W        W15785   1.263   7.759  11.385
43471W        W15786   0.299  41.832   3.337
43472W        W15787  30.445   3.874  12.563
43473W        W15788   4.707  29.945  11.570
43474W        W15789  39.386  40.379  14.813
43475W        W15790  25.084  42.790   1.921
43476W        W15791  41.484   8.865  10.637
43477W        W15792  19.230  17.231   2.757
43478W        W15793  12.628  35.470   4.150
43479W        W15794   8.680  32.466   1.387
43480W        W15795  35.918  25.994  10.419
43481W        W15796  24.627  38.444   4.741
43482W        W15797  17.619   4.844  13.832
43483W        W15798  14.614  12.708   2.839
43484W        W15799   5.870  21.173  10.890
43485W        W15800  35.378  17.277   4.232
43486W        W15801   9.854   6.359  12.981
43487W        W15802  36.892   5.818   0.889
43488W        W15803  43.980  40.438   0.436
43489W        W15804  40.443  21.627   3.272
43490W        W15805  43.931   2.448  11.455
43491W        W15806  30.994  30.429  12.468
43492W        W15807  37.422  32.576   4.236
43493W        W15808   0.928  33.396   4.346
43494W        W15809  14.706  19.233  13.874
43495W        W15810  23.626  19.540   3.241
43496W        W15811   7.694   9.314   4.610
43497W        W15812  11.136  33.474  14.964
43498W        W15813  39.992  23.076  11.905
43499W        W15814   3.748  23.579  13.487
43500W        W15815  40.539  40.933   1.820
43501W        W15816  12.253   5.907   4.710
43502W        W15817  35.443   8.357  10.539
43503W        W15818  13.834  18.166   4.770
43504W        W15819   7.680  31.935   0.814
43505W        W15820  41.864   6.750   1.343
43506W        W15821  29.143  26.021   2.860
43507W        W15822   7.229   9.795  10.958
43508W        W15823  23.694  38.544   2.895
43509W        W15824  27.136   6.822  14.821
43510W        W15825   1.255  24.605  14.278
43511W        W15826  28.949  39.452  10.892
43512W        W15827  12.275  33.935  11.874
43513W        W15828  21.520  32.932   1.717
43514W        W15829   9.829  25.711  10.500
43515W        W15830  44.797   9.730   1.867
43516W        W15831  43.368  15.709  12.007
43517W        W15832  41.530   7.335   3.270
43518W        W15833  16.635  35.947  10.417
43519W        W15834   6.766  17.297   0.299
43520W        W15835  19.127   2.949   1.820
43521W        W15836  25.576  39.490   0.326
43522W        W15837  34.969  11.691   5.085
43523W        W15838   3.790  39.853  12.911
43524W        W15839  36.465  30.957  11.546
43525W        W15840  33.000  34.392   0.829
43526W        W15841  13.789  35.454  14.871
43527W        W15842  10.314   9.180   4.261
43528W        W15843  23.496   5.429  12.920
43529W        W15844   9.671  10.340   2.673
43530W        W15845  35.372  39.059   1.824
43531W        W15846  43.827  16.604  11.566
43532W        W15847  26.568  33.382  11.610
43533W        W15848  15.316   2.728  13.954
43534W        W15849  23.729  32.043   0.260
43535W        W15850   8.229  14.780  13.476
43536W        W15851  29.620   7.188   2.846
43537W        W15852  44.469  36.386  13.360
43538W        W15853  19.750   3.319  14.319
43539W        W15854  21.057   0.819   0.278
43540W        W15855  23.699  14.315   4.325
43541W        W15856  21.129   4.226   5.091
43542W        W15857  12.298   0.278  10.505
43543W        W15858  11.158  11.787   2.718
43544W        W15859  10.260  36.494   4.189
43545W        W15860  22.686  24.222   4.656
43546W        W15861  15.186  33.582  13.448
43547W        W15862  11.792  10.637   4.221
43548W        W15863   9.312  15.227  12.830
43549W        W15864   6.792  19.244  10.423
43550W        W15865  26.519  27.164   0.317
43551W        W15866  24.124  11.341  13.893
43552W        W15867  31.474  21.666   4.724
43553W        W15868   0.426  20.105   0.813
43554W        W15869  30.158   3.830   3.722
43555W        W15870  13.116  12.216   0.902
43556W        W15871  44.294  26.047   1.934
43557W        W15872  19.765   3.940   3.766
43558W        W15873   8.739   3.395  13.977
43559W        W15874  23.600  33.468   1.805
43560W        W15875  32.954   5.720   2.212
43561W        W15876  30.571  25.501   2.326
43562W        W15877  30.639  11.254  12.873
43563W        W15878  25.647   5.766  11.003
43564W        W15879  18.121   9.238  13.413
43565W        W15880  34.573  15.097   2.189
43566W        W15881   0.305  33.054   9.575
43567W        W15882  23.051  13.605  13.792
43568W        W15883   5.317  41.339  14.354
43569W        W15884  27.090   0.414   4.676
43570W        W15885  26.163  37.359   5.172
43571W        W15886   2.365  44.984  12.882
43572W        W15887   4.786  39.832   4.121
43573W        W15888  33.043  43.854  13.858
43574W        W15889   6.917   7.213  14.808
43575W        W15890  10.228  18.123  11.053
43576W        W15891   8.725   7.228   4.653
43577W        W15892  23.620  34.973  14.970
43578W        W15893  44.419   0.936  12.859
43579W        W15894  14.708  33.898   4.633
43580W        W15895  35.933   8.385   2.853
43581W        W15896  16.157  15.725  12.577
43582W        W15897  36.085  38.492   0.801
43583W        W15898  30.958  44.754   0.451
43584W        W15899  20.570   2.399   4.160
43585W        W15900  22.158   3.396  12.050
43586W        W15901  33.610  41.994  12.406
43587W        W15902  27.187  34.895  11.566
43588W        W15903  21.133  37.893   3.722
43589W        W15904   2.262  38.562  14.421
43590W        W15905  15.720  37.911  10.579
43591W        W15906  10.738  28.454  13.527
43592W        W15907  25.060  13.341  13.930
43593W        W15908  37.559  33.121   3.633
43594W        W15909  10.690  22.641  10.472
43595W        W15910  35.504  15.719   4.144
43596W        W15911  32.103  30.473  11.064
43597W        W15912  10.329  43.352   3.290
43598W        W15913  27.170   8.654   2.349
43599W        W15914   5.807  39.858   0.764
43600W        W15915  32.445  20.171   3.304
43601W        W15916  10.339  31.563   1.695
43602W        W15917  40.502  40.440   3.784
43603W        W15918  17.135  25.064   1.319
43604W        W15919  10.347  20.190  11.569
43605W        W15920  26.023  22.110  11.558
43606W        W15921  12.829  26.635  13.454
43607W        W15922  12.620  10.638   4.182
43608W        W15923  33.026  14.636  11.404
43609W        W15924  12.709  10.807   1.733
43610W        W15925  19.679  32.017  12.974
43611W        W15926  40.005  13.659  10.503
43612W        W15927  31.020  28.088  11.994
43613W        W15928   2.270   2.932   2.858
43614W        W15929  31.424  11.208  11.034
43615W        W15930   4.843   0.364  11.453
43616W        W15931  42.349  19.195  10.606
43617W        W15932  32.434  15.274  12.410
43618W        W15933  40.380  24.993   2.665
43619W        W15934  19.643  37.357   4.129
43620W        W15935  37.470  38.502   4.622
43621W        W15936   3.943  29.003   1.740
43622W        W15937  39.890   9.684   4.309
43623W        W15938  33.622  38.850  13.327
43624W        W15939  33.946  30.946  12.054
43625W        W15940   3.885  42.998   1.325
43626W        W15941  41.015  17.083  12.478
43627W        W15942   9.871  39.524  12.492
43628W        W15943  43.897  41.957  13.936
43629W        W15944   8.766   4.794  13.451
43630W        W15945  16.194  12.711  14.428
43631W        W15946  28.000  17.116  11.495
43632W        W15947   8.792  37.512  10.447
43633W        W15948   4.751   0.299   4.262
43634W        W15949   8.391  22.073  12.972
43635W        W15950  31.619   8.678   0.957
43636W        W15951  37.349  25.188  12.068
43637W        W15952  17.770  32.126  10.107
43638W        W15953  20.568   1.941   4.604
43639W        W15954  13.794  14.337   0.798
43640W        W15955   0.934  23.619  13.386
43641W        W15956  43.968  12.819  10.895
43642W        W15957  12.213  15.669   1.804
43643W        W15958  26.171   3.801  10.578
43644W        W15959   8.383   4.777   3.360
43645W        W15960   4.782   6.310  12.500
43646W        W15961  27.681  42.846   3.806
43647W        W15962  32.465  12.190  11.468
43648W        W15963   2.355  34.916   4.681
43649W        W15964  22.229  15.635  14.858
43650W        W15965  28.542  28.074  13.518
43651W        W15966   1.899  31.087  14.956
43652W        W15967   1.461  43.298   0.775
43653W        W15968  10.175  24.032  10.460
43654W        W15969  12.856  16.141   3.262
43655W        W15970  42.343  24.171  12.855
43656W        W15971  10.833  30.132   3.809
43657W        W15972  18.769  22.743   2.352
43658W        W15973  23.074   3.774  14.331
43659W        W15974  17.125  41.967   1.755
43660W        W15975   6.785   9.342  12.535
43661W        W15976  40.541   1.255   3.325
43662W        W15977   3.768  25.505  11.374
43663W        W15978  21.219   0.987  10.482
43664W        W15979  27.614  28.168  14.817
43665W        W15980   1.357   6.200   0.815
43666W        W15981   5.224  36.010   3.387
43667W        W15982  37.396  27.161   0.836
43668W        W15983  22.714  28.555  10.903
43669W        W15984  29.507  37.568   4.160
43670W        W15985  19.728  39.984  13.382
43671W        W15986  20.179  44.910  14.342
43672W        W15987  28.608  41.516   3.199
43673W        W15988  21.128  44.832  13.447
43674W        W15989  10.297  34.052   3.695
43675W        W15990  25.185   3.786  14.788
43676W        W15991  22.637  11.628  13.348
43677W        W15992  32.420  32.480  10.988
43678W        W15993  38.928  43.454   1.906
43679W        W15994  11.701  36.017  10.482
43680W        W15995  18.075  42.388   3.241
43681W        W15996  40.405   6.308  14.423
43682W        W15997  42.318  16.649   0.914
43683W        W15998  31.027  38.502  11.874
43684W        W15999   3.316   1.369  12.031
43685W        W16000  44.893  40.467   1.413
43686W        W16001  43.967  11.179   3.821
43687W        W16002  19.184  37.414   3.336
43688W        W16003  14.307  11.626  13.314
43689W        W16004  38.000   9.680   1.312
43690W        W16005  28.064  10.878   4.675
43691W        W16006  44.887  20.543  14.342
43692W        W16007  19.749  38.862   3.708
43693W        W16008  18.645   7.172   1.214
43694W        W16009  10.827  25.614   2.730
43695W        W16010  36.072  35.558  13.942
43696W        W16011  19.619  29.964  10.448
43697W        W16012   5.719  27.550   3.780
43698W        W16013  25.997  40.440  14.389
43699W        W16014   1.866   4.850  11.976
43700W        W16015   5.396   0.902   1.924
43701W        W16016  35.515   2.406  12.894
43702W        W16017  12.731  13.722   0.914
43703W        W16018  43.944   5.251  13.977
43704W        W16019   7.176  40.344  13.417
43705W        W16020  19.083  26.958  12.391
43706W        W16021  31.633  22.545   1.234
43707W        W16022  42.007  30.487  10.607
43708W        W16023   8.268   4.728  14.009
43709W        W16024   6.327  41.310   4.162
43710W        W16025  24.006  36.086   9.970
43711W        W16026  36.577  10.682   1.790
43712W        W16027  30.159  25.970   4.170
43713W        W16028  12.700  13.104   0.878
43714W        W16029  17.236  29.167   0.935
43715W        W16030  20.637   6.752   4.307
43716W        W16031  31.415  44.500   1.882
43717W        W16032  37.948  41.971   0.877
43718W        W16033   1.813  19.140   0.729
43719W        W16034  14.330   9.389  12.491
43720W        W16035  26.068  19.758   1.855
43721W        W16036   1.908  15.805  11.534
43722W        W16037  26.524  26.145   3.345
43723W        W16038  21.247  32.455   3.251
43724W        W16039  38.012  34.597   4.205
43725W        W16040   4.410  28.444   1.370
43726W        W16041   3.878  20.192  14.913
43727W        W16042  20.759  43.298   3.738
43728W        W16043  15.132  23.637   1.799
43729W        W16044  13.112  21.681   4.263
43730W        W16045  42.282  36.446   3.276
43731W        W16046  42.478  23.014  11.420
43732W        W16047  19.142  39.832  11.061
43733W        W16048  22.711  20.137   2.341
43734W        W16049  11.857  12.662   4.117
43735W        W16050  16.277  38.049   3.809
43736W        W16051   2.468   4.743  14.940
43737W        W16052  24.199  38.059  14.900
43738W        W16053  10.311  11.320   4.341
43739W        W16054   8.162  44.958  13.312
43740W        W16055  43.352  25.532  12.995
43741W        W16056  41.875  11.741  14.295
43742W        W16057  18.685  27.567   1.801
43743W        W16058  14.835   6.382  12.482
43744W        W16059  21.512  42.289  12.377
43745W        W16060  29.644  42.821   3.777
43746W        W16061  26.630  40.969  10.489
43747W        W16062  38.025  16.773  11.479
43748W        W16063  15.802  31.066  12.972
43749W        W16064   9.871  14.144   4.221
43750W        W16065  32.109  36.468  13.531
43751W        W16066  32.022   7.813   1.829
43752W        W16067  22.629  30.028  13.539
43753W        W16068  30.097  15.243  13.020
43754W        W16069  40.515  37.543   4.134
43755W        W16070  17.638  14.338  12.855
43756W        W16071  25.697  21.219  11.381
43757W        W16072  20.596  31.976  11.878
43758W        W16073   6.855  35.938   2.890
43759W        W16074  39.881   0.312  10.963
43760W        W16075  16.733  20.169   4.315
43761W        W16076  10.650   2.468  10.435
43762W        W16077  23.542   4.237  12.378
43763W        W16078  11.370  41.983  11.418
43764W        W16079  25.024  25.066   3.175
43765W        W16080  37.955   3.244   1.414
43766W        W16081  24.598  19.214   2.228
43767W        W16082  24.067  33.020   4.126
43768W        W16083  15.674  33.926   3.770
43769W        W16084  36.479   9.375   4.239
43770W        W16085  37.406  16.243   3.216
43771W        W16086  39.408  30.975  13.886
43772W        W16087   0.754  11.622  13.872
43773W        W16088  26.192   8.742  11.065
43774W        W16089  18.613   9.853  13.823
43775W        W16090  32.109   3.804  14.824
43776W        W16091  11.267   1.880   2.404
43777W        W16092  26.998  18.753   3.644
43778W        W16093  33.419   3.808  11.539
43779W        W16094   5.293  42.389  13.826
43780W        W16095  19.640  12.142   1.305
43781W        W16096  12.619  34.936   2.761
43782W        W16097  43.423  26.484   0.958
43783W        W16098  41.956  38.533  14.779
43784W        W16099   9.682  21.029   0.281
43785W        W16100  19.650  41.866  12.840
43786W        W16101   2.307   1.751   0.411
43787W        W16102  13.754   5.904   3.867
43788W        W16103  21.744  27.954  11.437
43789W        W16104  43.390  10.328   3.798
43790W        W16105   2.277  10.350  11.953
43791W        W16106  33.517   2.801   3.843
43792W        W16107  18.756  14.615   2.301
43793W        W16108  44.996  39.819  10.598
43794W        W16109  36.851   0.850  13.813
43795W        W16110   5.878  24.988   2.772
43796W        W16111  34.871  14.114   0.380
43797W        W16112   9.320   9.377   4.764
43798W        W16113  32.013  41.942   4.159
43799W        W16114  16.787   8.700  13.900
43800W        W16115  32.459   2.763   0.304
43801W        W16116  39.472  15.164   3.295
43802W        W16117   2.464  44.833  11.923
43803W        W16118  16.164  14.325   3.729
43804W        W16119  19.557  15.287  11.548
43805W        W16120   1.438  44.900  14.281
43806W        W16121  14.709   4.354   2.888
43807W        W16122  23.068   0.762   0.920
43808W        W16123  31.480  10.680  14.857
43809W        W16124  34.496  18.569  12.432
43810W        W16125   8.691  40.368   0.244
43811W        W16126   9.747  42.365  14.408
43812W        W16127  13.114   7.696  11.502
43813W        W16128  10.160  19.278   5.247
43814W        W16129  22.624  40.375  13.343
43815W        W16130  24.545  13.671  14.932
43816W        W16131  15.813  20.643  14.308
43817W        W16132  26.677  19.730   4.125
43818W        W16133  28.641  40.509   2.384
43819W        W16134  28.440  40.444  14.367
43820W        W16135  29.015  13.198   1.815
43821W        W16136  37.506  33.884   3.277
43822W        W16137  22.128  41.820  12.418
43823W        W16138  29.431   8.163  11.422
43824W        W16139  16.117   2.351  14.274
43825W        W16140  13.713   3.396  11.460
43826W        W16141  26.460  24.606   0.374
43827W        W16142  32.458   7.737  10.993
43828W        W16143  42.364   7.380   4.645
43829W        W16144  27.123  32.054   9.566
43830W        W16145  33.506  21.537   2.358
43831W        W16146  36.585  24.683  10.430
43832W        W16147  16.616  18.270  10.443
43833W        W16148   3.867  18.749  14.377
43834W        W16149   7.713  41.395   2.726
43835W        W16150  32.596  34.481  14.032
43836W        W16151  44.316   8.739  14.415
43837W        W16152  37.017  42.454  14.893
43838W        W16153  28.554  42.929   1.716
43839W        W16154  27.181  39.527  13.454
43840W        W16155  22.667   4.440  12.354
43841W        W16156   0.868   8.715   4.345
43842W        W16157  33.891  20.653  12.571
43843W        W16158   9.819  32.633  12.857
43844W        W16159  35.369  43.365   1.315
43845W        W16160  39.923  12.345   3.648
43846W        W16161   5.387  29.517  14.998
43847W        W16162  42.836   7.369   4.778
43848W        W16163  27.472  15.325  13.896
43849W        W16164  29.052  15.329  10.548
43850W        W16165  33.052  10.853  10.448
43851W        W16166  15.712  39.515  10.407
43852W        W16167  44.772  41.344   2.714
43853W        W16168  38.447  29.088  13.314
43854W        W16169  32.472  13.704  11.595
43855W        W16170  36.365  39.062  13.439
43856W        W16171  26.630   3.297  12.964
43857W        W16172  42.456  37.351  13.876
43858W        W16173  22.056  43.771   0.402
43859W        W16174  37.417  43.412  11.856
43860W        W16175  10.689   5.730  14.459
43861W        W16176  28.030   5.903  10.945
43862W        W16177  30.644  28.011  11.613
43863W        W16178  27.522  12.625   3.707
43864W        W16179  16.665  17.300   0.387
43865W        W16180  13.193  22.067  14.339
43866W        W16181  44.258  17.570   1.908
43867W        W16182   6.336  36.960   2.210
43868W        W16183  20.089  42.008  11.064
43869W        W16184  12.166  37.930  12.032
43870W        W16185  26.596   7.709  12.552
43871W        W16186  41.830  36.576   1.749
43872W        W16187  21.086  44.485   4.140
43873W        W16188  32.472  20.068   2.882
43874W        W16189  29.637  37.565  12.497
43875W        W16190  30.639   2.964   2.873
43876W        W16191  37.565   5.347  12.491
43877W        W16192   9.673  40.372  11.396
43878W        W16193  13.311  14.136  11.574
43879W        W16194   4.834   3.245  11.898
43880W        W16195  31.617  38.421   1.806
43881W        W16196   2.848  26.506  13.947
43882W        W16197  16.115  11.734   2.283
43883W        W16198  20.230  21.093  12.034
43884W        W16199  34.980   5.840  13.543
43885W        W16200  41.313   9.781  10.922
43886W        W16201  11.622   7.897  12.953
43887W        W16202   2.263   0.793   4.763
43888W        W16203   3.755  11.331  12.384
43889W        W16204  38.945  23.221   4.231
43890W        W16205  40.472  15.714  14.996
43891W        W16206  32.982   0.249   4.297
43892W        W16207  29.478  17.207   9.974
43893W        W16208   3.372  20.673   3.857
43894W        W16209  29.061  42.799   1.240
43895W        W16210  33.465  20.622  11.039
43896W        W16211  32.459  27.138  12.536
43897W        W16212  27.089  31.909   0.340
43898W        W16213  43.950  33.534  11.023
43899W        W16214  19.652   2.349  14.774
43900W        W16215  10.856  18.147   0.852
43901W        W16216   5.839  42.818  10.438
43902W        W16217  13.799   2.853  14.972
43903W        W16218   8.220  20.554  14.761
43904W        W16219  34.995  23.140   0.426
43905W        W16220  26.000  43.425  13.908
43906W        W16221   1.932  15.634  12.992
43907W        W16222  14.756  18.717  10.441
43908W        W16223  13.188  34.959   4.221
43909W        W16224  34.564  17.104  11.592
43910W        W16225  28.106   6.740  11.993
43911W        W16226  18.671   1.266  13.989
43912W        W16227  40.835  24.591   0.273
43913W        W16228  12.711  30.997   2.402
43914W        W16229  14.225  20.698  13.990
43915W        W16230  36.897  39.316   3.361
43916W        W16231  42.970  17.725   3.186
43917W        W16232  14.746  19.099   3.783
43918W        W16233  36.906  11.345  14.839
43919W        W16234  18.179  34.450  14.325
43920W        W16235  27.568   7.361  13.892
43921W        W16236  17.132  35.868  10.517
43922W        W16237  39.950  26.972  11.891
43923W        W16238  34.043  25.212   2.364
43924W        W16239   1.764  37.513   2.254
43925W        W16240  40.461  41.481   2.704
43926W        W16241  24.551  17.063   4.314
43927W        W16242   1.809  15.640   3.150
43928W        W16243  30.445  15.653  10.423
43929W        W16244  19.201  31.129  13.511
43930W        W16245  40.374  37.383   0.748
43931W        W16246  33.424  40.813   0.788
43932W        W16247  17.135   2.757  11.607
43933W        W16248   6.426  38.974  10.561
43934W        W16249  21.584  42.940   1.802
43935W        W16250   5.396  28.046   0.862
43936W        W16251  21.634   9.747   0.757
43937W        W16252  38.407  43.009  14.878
43938W        W16253  25.014  24.027   1.762
43939W        W16254  32.460  30.130   4.317
43940W        W16255   0.264  40.474   1.714
43941W        W16256  43.330   8.810  12.399
43942W        W16257  32.594   2.911  11.958
43943W        W16258  19.252  36.043  10.621
43944W        W16259   1.741  25.658  13.883
43945W        W16260   3.360  21.537  14.354
43946W        W16261  35.027   5.930  12.441
43947W        W16262   5.301  44.777  14.508
43948W        W16263   9.352  10.248   4.167
43949W        W16264   5.316   7.831   2.743
43950W        W16265  30.017  44.794  11.413
43951W        W16266   1.422  10.660   0.375
43952W        W16267  30.578  24.173   5.274
43953W        W16268  31.018  19.271   2.402
43954W        W16269   0.482  13.316   1.731
43955W        W16270   4.264  22.193  10.411
43956W        W16271  22.554  29.959  11.943
43957W        W16272  39.912  30.025  13.916
43958W        W16273  32.903  31.452  10.633
43959W        W16274   3.816  33.028  11.998
43960W        W16275  31.509  15.194   0.754
43961W        W16276  19.598  39.397  10.447
43962W        W16277  21.217  15.654   4.683
43963W        W16278   1.362   0.441  13.416
43964W        W16279   8.233  41.887   2.881
43965W        W16280   7.219  13.719  13.507
43966W        W16281  32.565  16.680   0.364
43967W        W16282   7.263  20.184   2.841
43968W        W16283  11.631   7.382  11.392
43969W        W16284  36.015  30.588   4.599
43970W        W16285  30.013  35.575   3.795
43971W        W16286  24.090   8.822  11.419
43972W        W16287   2.933   9.795   0.310
43973W        W16288  16.703  39.036  14.362
43974W        W16289  29.599  29.061   2.828
43975W        W16290  26.572  33.535   3.194
43976W        W16291   1.824  22.572  13.393
43977W        W16292   4.903  28.487  13.403
43978W        W16293  15.123  34.929   3.854
43979W        W16294  25.999   6.903   9.476
43980W        W16295   2.306  26.976   2.752
43981W        W16296  44.461  16.149  14.847
43982W        W16297  11.191  11.775  14.372
43983W        W16298   3.330  23.171   0.799
43984W        W16299  44.763  17.297   1.737
43985W        W16300  24.005  29.953  13.513
43986W        W16301  29.022  36.912  12.085
43987W        W16302  10.373  40.384   1.849
43988W        W16303  16.089  37.360   4.814
43989W        W16304   1.414  18.760  13.405
43990W        W16305  18.245  11.654   5.140
43991W        W16306  14.101   4.363  11.997
43992W        W16307  31.148  34.942   4.665
43993W        W16308  10.868   4.262  11.535
43994W        W16309  26.129  34.602  14.862
43995W        W16310  15.799  42.506  10.579
43996W        W16311   2.941   4.937   1.221
43997W        W16312  25.145  35.362   4.235
43998W        W16313   1.462  23.664  10.489
43999W        W16314  30.439  16.777  12.073
44000W        W16315  26.172  41.404   0.771
44001W        W16316   0.858  20.651  13.816
44002W        W16317  40.447  14.291  10.414
44003W        W16318  23.985  20.267   1.792
44004W        W16319  16.751  19.235  14.328
44005W        W16320  16.657  11.131   0.304
44006W        W16321  33.544  11.152  14.480
44007W        W16322   7.267  11.200  13.527
44008W        W16323   8.878  30.449  14.314
44009W        W16324  42.997  17.198  14.434
44010W        W16325  28.125   3.417  12.868
44011W        W16326   2.329  16.623   4.232
44012W        W16327   2.960   6.749   2.717
44013W        W16328  32.570  42.996   2.888
44014W        W16329  31.916   9.233  10.977
44015W        W16330   7.672  15.723  11.497
44016W        W16331  29.042  33.489   4.263
44017W        W16332  30.552  20.155   1.256
44018W        W16333   4.723  33.537   5.150
44019W        W16334  44.330  37.360   3.862
44020W        W16335  20.187  30.980   0.779
44021W        W16336   7.832  27.669  13.424
44022W        W16337   7.895  42.375  13.449
44023W        W16338   3.804  17.768  13.376
44024W        W16339  31.932  41.380   4.730
44025W        W16340   4.209   2.465  10.472
44026W        W16341  15.809  43.500   5.164
44027W        W16342  41.299  23.139  12.453
44028W        W16343  21.260   3.220   5.135
44029W        W16344  32.425  12.738   2.783
44030W        W16345  22.108  28.959  12.016
44031W        W16346   4.267  36.514   2.888
44032W        W16347  14.676  39.473   4.732
44033W        W16348  29.011  41.331  13.328
44034W        W16349   9.340  17.614  11.877
44035W        W16350  38.502   0.457   0.282
44036W        W16351  37.983  19.721  12.420
44037W        W16352   0.365   5.314  14.411
44038W        W16353   7.812  12.716   2.332
44039W        W16354  37.001  43.476   4.211
44040W        W16355  39.002  30.063  11.983
44041W        W16356  28.597   3.345   2.845
44042W        W16357  10.217  22.116  13.530
44043W        W16358  40.878  13.214   2.778
44044W        W16359  33.618  36.875   1.244
44045W        W16360   1.375   6.264   0.243
44046W        W16361  20.609  24.506   3.654
44047W        W16362  20.556  21.171  13.029
44048W        W16363  43.442  32.045   0.470
44049W        W16364  14.717  39.885  13.944
44050W        W16365  11.739  23.151   4.831
44051W        W16366  21.241   0.316   4.279
44052W        W16367  23.553  29.468  12.344
44053W        W16368   5.767  30.085   1.726
44054W        W16369  16.231   9.321  10.437
44055W        W16370  22.242  32.080   0.262
44056W        W16371  11.736   4.869  13.847
44057W        W16372  23.676   2.749  13.913
44058W        W16373   9.207  39.360   1.834
44059W        W16374  42.805  40.922  11.487
44060W        W16375  20.741  35.386   3.346
44061W        W16376  24.090  16.253   4.145
44062W        W16377   8.335  19.267  11.993
44063W        W16378  31.963  12.218  13.923
44064W        W16379  11.765  37.036  14.988
44065W        W16380   6.207   5.924   2.829
44066W        W16381  19.245   7.751  14.311
44067W        W16382   3.913   8.176  12.549
44068W        W16383  12.338  39.377   1.286
44069W        W16384  39.432   3.929  10.948
44070W        W16385  14.814  13.662  14.794
44071W        W16386   2.374  12.649  13.960
44072W        W16387  41.450  10.160   2.365
44073W        W16388  17.228  26.051  13.882
44074W        W16389  14.207   5.733  10.563
44075W        W16390   0.756  10.790   1.830
44076W        W16391  19.734  37.573   3.256
44077W        W16392  37.882  16.699   4.251
44078W        W16393  24.603  35.018  14.472
44079W        W16394   3.436  22.166   1.854
44080W        W16395  27.963  11.789   1.902
44081W        W16396  15.598   0.308   3.828
44082W        W16397  41.292   0.262  10.594
44083W        W16398  28.446  26.473   3.761
44084W        W16399  43.863   4.336   0.885
44085W        W16400  30.928  33.572   4.255
44086W        W16401  12.244  43.427   0.327
44087W        W16402  43.819  30.925  14.333
44088W        W16403  30.913  31.568   1.876
44089W        W16404   2.947  19.199   2.879
44090W        W16405  26.111   1.917   1.216
44091W        W16406   3.293   8.391  14.382
44092W        W16407  24.606  15.127  14.944
44093W        W16408  21.666  14.684  12.438
44094W        W16409  11.825  32.980  14.375
44095W        W16410   2.342  33.483  10.025
44096W        W16411  36.430  20.088   3.647
44097W        W16412  22.067  24.691   2.688
44098W        W16413  15.613  24.562   3.649
44099W        W16414  27.587  35.514  12.042
44100W        W16415  22.240   3.775  12.545
44101W        W16416   3.318  22.504  10.523
44102W        W16417   3.850  12.613   3.667
44103W        W16418  19.679  34.112  11.472
44104W        W16419  35.380  23.576   2.235
44105W        W16420  24.022  23.675   0.268
44106W        W16421  38.848  23.071   2.378
44107W        W16422   4.219   2.856  13.942
44108W        W16423  34.964  16.605  12.950
44109W        W16424  22.695   4.319  11.455
44110W        W16425  10.767  23.662   3.715
44111W        W16426  15.809  17.771   2.342
44112W        W16427   2.285  28.636  14.869
44113W        W16428  28.051  13.326  13.375
44114W        W16429   4.844  41.488  13.956
44115W        W16430  24.221  22.167   2.748
44116W        W16431  19.102  33.009   4.221
44117W        W16432  43.888   2.330   4.164
44118W        W16433   3.250  42.883  13.933
44119W        W16434  33.539  24.112   1.440
44120W        W16435  44.379  35.383   3.795
44121W        W16436  23.222  12.808  13.021
44122W        W16437  36.384  36.429   0.848
44123W        W16438  40.903  43.791   1.423
44124W        W16439  39.555   5.896  13.360
44125W        W16440  29.631  17.689   0.957
44126W        W16441  20.543  30.524   1.285
44127W        W16442  39.007  43.385  13.834
44128W        W16443   6.705  40.458   4.179
44129W        W16444   9.242  37.948  14.413
44130W        W16445  12.710  20.137  12.876
44131W        W16446  21.019   3.240   1.409
44132W        W16447  23.612  16.250  10.592
44133W        W16448  23.499  38.532  10.902
44134W        W16449   4.253  40.514   4.789
44135W        W16450  11.253  25.476   0.895
44136W        W16451   1.856   6.221  14.793
44137W        W16452  24.636   0.291   1.801
44138W        W16453  27.662  24.031  12.414
44139W        W16454   0.291   3.330  14.024
44140W        W16455   6.259  14.177  14.506
44141W        W16456  27.993   1.390  12.993
44142W        W16457   7.742  33.079  10.942
44143W        W16458  12.813  20.137   2.271
44144W        W16459  19.186  28.509   9.530
44145W        W16460   1.877  24.693   3.630
44146W        W16461  30.468  43.996  12.884
44147W        W16462   0.329   2.758  12.899
44148W        W16463   4.724   6.757   2.197
44149W        W16464  29.020  36.523  13.907
44150W        W16465  16.769  43.388   4.337
44151W        W16466  41.308   9.853  10.469
44152W        W16467  43.882  43.890  14.334
44153W        W16468  30.952   9.662  14.028
44154W        W16469  30.072  44.464  13.477
44155W        W16470  11.815  30.517   2.770
44156W        W16471   3.383  17.279   1.854
44157W        W16472  29.084  20.259  12.908
44158W        W16473  41.454  25.121  14.976
44159W        W16474  33.380  33.937  13.345
44160W        W16475  36.454  25.617   4.614
44161W        W16476  20.185   2.761  10.599
44162W        W16477  43.907   0.473   0.754
44163W        W16478  24.557  20.546   3.756
44164W        W16479  17.786  25.217   4.200
44165W        W16480   4.258   5.339  14.310
44166W        W16481  42.838  21.733   0.478
44167W        W16482  24.643   2.346   0.328
44168W        W16483   3.859  17.700  12.004
44169W        W16484  25.617  16.294  13.513
44170W        W16485  44.367  10.360   4.285
44171W        W16486   6.906  17.655   1.812
44172W        W16487  26.519  33.482  14.003
44173W        W16488  41.019  15.610   3.809
44174W        W16489   4.296  17.785  14.332
44175W        W16490  42.014  16.097  12.461
44176W        W16491  35.912  16.801   2.722
44177W        W16492  43.408  39.536  14.424
44178W        W16493  37.580   5.741  11.942
44179W        W16494  19.716  44.887   2.263
44180W        W16495  11.791   3.746  13.428
44181W        W16496  39.935  19.765  10.602
44182W        W16497  19.660  12.810   3.331
44183W        W16498  32.563   1.293  10.961
44184W        W16499   1.794   1.936  13.840
44185W        W16500  15.308  34.900  10.502
44186W        W16501  30.013  37.881   1.851
44187W        W16502  25.574  39.007  12.926
44188W        W16503  10.328   1.353  14.953
44189W        W16504   9.310   3.831   3.693
44190W        W16505  27.649   8.162   2.188
44191W        W16506  39.529  19.168  14.026
44192W        W16507  36.073  13.840   2.273
44193W        W16508   9.272  40.902  14.950
44194W        W16509  35.973   8.269   3.750
44195W        W16510  15.207  42.417   0.873
44196W        W16511  39.430  17.224   1.746
44197W        W16512  35.432  18.245  13.813
44198W        W16513  21.142  23.101  10.479
44199W        W16514  30.431   9.766   3.725
44200W        W16515  12.121  21.158  11.861
44201W        W16516  15.730  31.976  10.954
44202W        W16517  25.643  28.173  12.505
44203W        W16518  17.245  14.213  13.338
44204W        W16519  10.318   4.913   0.356
44205W        W16520  16.645  16.799   2.310
44206W        W16521  34.599  28.957  10.980
44207W        W16522  41.878  17.568  11.425
44208W        W16523  27.050  16.667  10.933
44209W        W16524  14.307  31.073  12.028
44210W        W16525   0.422  29.518   3.779
44211W        W16526  15.659   3.772  10.618
44212W        W16527  17.304  28.476  13.989
44213W        W16528  34.543  19.040  12.997
44214W        W16529   1.882  30.933  12.366
44215W        W16530  10.677   0.874   0.354
44216W        W16531  24.691   4.286   3.765
44217W        W16532  34.898  33.415   4.122
44218W        W16533   5.827  31.983  11.403
44219W        W16534  40.394  10.327   1.440
44220W        W16535  31.481  22.228   2.736
44221W        W16536  40.467   3.346   1.876
44222W        W16537  14.781  33.598   0.342
44223W        W16538  16.747  39.339   0.847
44224W        W16539   0.328  34.923  13.923
44225W        W16540   8.865  31.917  14.384
44226W        W16541  17.611  26.981  12.450
44227W        W16542   6.814  22.206  12.094
44228W        W16543  17.113  28.619  10.898
44229W        W16544  28.039  29.636  12.366
44230W        W16545  33.977  29.927  14.336
44231W        W16546  35.427   9.843  14.479
44232W        W16547   8.800  39.032   1.822
44233W        W16548  23.221  21.662  13.869
44234W        W16549  41.300   2.890   1.786
44235W        W16550  30.970  25.689  14.015
44236W        W16551  29.429   9.201   1.867
44237W        W16552  30.612  43.812   3.667
44238W        W16553   5.239   4.349  10.519
44239W        W16554  35.031  35.026   3.206
44240W        W16555   3.350   6.219  14.395
44241W        W16556   6.246  16.236  10.563
44242W        W16557  29.554   7.816  10.605
44243W        W16558   8.680  18.186  14.870
44244W        W16559  12.817   4.879  11.427
44245W        W16560  39.861  29.944   1.880
44246W        W16561  29.512   3.814  13.521
44247W        W16562  33.397   8.329  10.980
44248W        W16563  37.361   4.779   1.311
44249W        W16564  33.482  42.445   0.389
44250W        W16565  11.153  21.587  14.876
44251W        W16566  29.109  13.224   3.717
44252W        W16567  37.948  44.323   1.267
44253W        W16568   1.373  22.151   1.726
44254W        W16569  40.467  44.424   1.372
44255W        W16570   2.278   0.469  13.478
44256W        W16571  32.007  39.393  14.334
44257W        W16572  43.485  15.605   2.772
44258W        W16573  19.172   4.218   0.396
44259W        W16574  37.433  34.104   1.789
44260W        W16575  24.717  13.658  12.526
44261W        W16576  29.925  20.218   1.426
44262W        W16577  28.016  28.671   1.695
44263W        W16578  10.701   4.841   3.752
44264W        W16579  14.147  24.982   0.445
44265W        W16580  37.542  32.967  14.824
44266W        W16581  44.463   0.398   1.275
44267W        W16582  34.949  37.470  10.150
44268W        W16583  17.185  17.195  12.379
44269W        W16584  17.266   4.878   0.902
44270W        W16585   8.678  14.222   2.226
44271W        W16586  19.090  19.072  12.401
44272W        W16587  10.743  19.728   0.393
44273W        W16588  22.011  32.074   3.350
44274W        W16589  35.990  37.526  13.348
44275W        W16590  17.218   3.906   3.200
44276W        W16591   8.327  23.650   1.711
44277W        W16592  35.517  29.938   0.861
44278W        W16593  40.339   7.382   1.427
44279W        W16594  23.682  25.107   0.896
44280W        W16595  32.140   7.273  12.840
44281W        W16596  38.516  33.502   3.258
44282W        W16597  16.789  24.124  12.474
44283W        W16598  35.416  15.193  11.908
44284W        W16599  44.455  24.490  14.783
44285W        W16600   9.669  33.586   1.766
44286W        W16601   0.380  28.951   4.258
44287W        W16602   6.332  21.076   1.743
44288W        W16603   9.790   1.444  10.487
44289W        W16604  38.026  37.387   3.224
44290W        W16605  36.978  31.493  11.983
44291W        W16606  16.259  20.590  13.976
44292W        W16607  36.062   4.266  14.798
44293W        W16608   2.458   4.811  13.030
44294W        W16609  41.805  37.494   3.643
44295W        W16610  11.356   8.877  11.553
44296W        W16611   4.362  35.884   1.437
44297W        W16612   7.764  18.564   3.758
44298W        W16613  22.090  43.389   4.786
44299W        W16614  36.406  44.347  11.106
44300W        W16615  30.491  18.573   2.701
44301W        W16616   5.882  32.042  12.967
44302W        W16617  43.815  37.522   1.861
44303W        W16618   4.425  22.179   4.602
44304W        W16619  42.961  31.404  12.415
44305W        W16620  28.547  16.773  11.454
44306W        W16621  22.026  30.980  12.560
44307W        W16622  24.115  32.899  12.505
44308W        W16623  12.640  20.699  14.511
44309W        W16624  14.100  44.964  12.958
44310W        W16625  38.966  21.554   3.681
44311W        W16626  39.491   5.360   3.303
44312W        W16627  29.094  33.957   0.454
44313W        W16628   7.351   4.719  12.005
44314W        W16629  43.512   4.827   4.325
44315W        W16630  16.725  35.048  11.975
44316W        W16631  31.936  10.815  12.374
44317W        W16632  42.465  28.171   1.851
44318W        W16633   7.396  18.098  12.855
44319W        W16634  38.504  32.444  13.965
44320W        W16635  10.280  25.692   4.262
44321W        W16636   5.270  37.832   1.225
44322W        W16637   5.367  23.718   1.395
44323W        W16638   8.848  41.944  11.508
44324W        W16639  42.028  36.426   0.336
44325W        W16640   8.387   5.695   4.182
44326W        W16641  43.368   2.362  12.940
44327W        W16642  32.612  28.633   0.481
44328W        W16643  42.995  43.765  12.346
44329W        W16644  41.416  30.621  13.892
44330W        W16645  34.917  42.886  10.133
44331W        W16646   2.239  42.916   4.258
44332W        W16647  35.879  13.780  11.492
44333W        W16648  21.625  24.530   4.806
44334W        W16649  32.112   2.338  13.404
44335W        W16650  27.660  37.396  10.919
44336W        W16651  25.535  38.569   0.337
44337W        W16652   8.796  21.522   0.279
44338W        W16653  39.463  24.047  13.545
44339W        W16654  40.458  25.153  12.452
44340W        W16655  41.449   6.354  13.019
44341W        W16656  14.748  27.001   0.265
44342W        W16657  36.057  32.089  10.410
44343W        W16658  36.846  11.362   1.861
44344W        W16659   6.691   6.329   3.316
44345W        W16660   9.204  13.695  12.362
44346W        W16661   4.855  12.253  13.314
44347W        W16662  31.599  20.100   3.228
44348W        W16663   2.766  28.678   2.773
44349W        W16664  36.480  15.287   4.309
44350W        W16665   2.271  31.899  11.935
44351W        W16666  32.980  20.652  10.950
44352W        W16667  43.419  23.092   4.799
44353W        W16668   9.663   4.330   2.809
44354W        W16669  15.110  40.857  12.343
44355W        W16670  40.935  29.440  13.894
44356W        W16671  27.052  40.321   0.354
44357W        W16672  35.988  21.162   4.778
44358W        W16673  33.120  15.701   3.347
44359W        W16674  27.512  39.526   3.740
44360W        W16675  31.625  43.476   0.931
44361W        W16676  13.231   8.163  11.523
44362W        W16677  25.058  10.279  14.442
44363W        W16678   7.764  19.733   2.328
44364W        W16679  10.192  23.115   0.305
44365W        W16680  21.562  18.782  14.341
44366W        W16681   8.349  44.429   4.702
44367W        W16682  10.796  31.934   2.341
44368W        W16683  32.050  17.589   2.666
44369W        W16684  12.680   8.744  14.969
44370W        W16685   7.678  30.521   4.812
44371W        W16686  44.306   4.710   0.483
44372W        W16687   1.352  16.595  12.064
44373W        W16688   0.918  16.715   1.817
44374W        W16689  22.146  32.456  11.422
44375W        W16690  41.426  43.321  12.384
44376W        W16691  39.036  25.183  11.391
44377W        W16692   7.403  19.777  11.117
44378W        W16693  27.535  23.004   3.243
44379W        W16694  29.041  25.551  12.548
44380W        W16695  14.310  37.894   0.762
44381W        W16696   6.206  44.972  11.954
44382W        W16697  24.115  26.527   2.298
44383W        W16698  31.452   5.362   0.803
44384W        W16699   6.921   0.859  14.350
44385W        W16700  38.338   7.742  10.543
44386W        W16701  23.097  38.471  10.428
44387W        W16702  16.658  38.926   0.822
44388W        W16703  12.655  11.254  10.975
44389W        W16704  31.033   4.725  12.385
44390W        W16705  20.600  23.190  11.583
44391W        W16706  25.684  10.256   1.722
44392W        W16707  41.494  13.690  11.883
44393W        W16708  17.225  41.899   1.357
44394W        W16709  38.489  10.703  11.053
44395W        W16710   1.748  20.660   1.896
44396W        W16711  21.608  26.525  11.895
44397W        W16712  14.251  14.258   2.345
44398W        W16713  16.700  11.674   2.394
44399W        W16714  15.147   1.413   1.387
44400W        W16715  34.119  25.493  12.028
44401W        W16716  32.050  29.651  12.533
44402W        W16717  10.660  17.658   1.904
44403W        W16718   9.258  32.125   0.737
44404W        W16719   2.266  38.459  14.803
44405W        W16720  26.663  25.993  10.019
44406W        W16721   0.857  24.497   2.754
44407W        W16722  41.478  17.151   3.736
44408W        W16723  23.162  15.107  14.498
44409W        W16724  21.719  29.020   1.911
44410W        W16725  15.781  29.952   9.648
44411W        W16726  30.610  31.003  11.117
44412W        W16727   4.890  14.319  11.923
44413W        W16728  30.635   0.826  13.462
44414W        W16729  19.259   3.244  14.276
44415W        W16730   3.714   6.215   3.177
44416W        W16731  14.245  14.684   4.131
44417W        W16732  15.125  39.015   3.730
44418W        W16733  26.625  20.245  13.354
44419W        W16734  20.164  17.563   2.838
44420W        W16735  23.175  28.960   0.798
44421W        W16736  11.251   7.282  12.895
44422W        W16737  35.018  15.788  14.460
44423W        W16738   3.734   7.773   2.712
44424W        W16739  10.196  16.185  12.906
44425W        W16740  41.328  38.533   4.806
44426W        W16741  29.549   1.859  12.983
44427W        W16742  29.593   6.813  12.864
44428W        W16743  20.589  19.085  10.544
44429W        W16744  13.834  16.793  11.884
44430W        W16745  26.139  44.272  13.425
44431W        W16746  37.457   8.691  12.868
44432W        W16747   1.881   2.353   5.091
44433W        W16748  11.140  31.072   4.138
44434W        W16749  22.019   3.908  14.768
44435W        W16750  37.042  32.462   3.183
44436W        W16751   1.364  32.549   4.346
44437W        W16752  27.070   2.322  11.128
44438W        W16753  41.352  38.892  13.368
44439W        W16754  36.907  36.902   0.405
44440W        W16755   6.736  15.294  12.837
44441W        W16756  16.289   5.386  12.011
44442W        W16757  15.272  30.413   0.734
44443W        W16758   8.297  28.665  12.380
44444W        W16759   1.383  28.946   4.781
44445W        W16760  30.148   4.345   0.966
44446W        W16761  43.894  30.437  14.346
44447W        W16762  11.723   0.300   2.711
44448W        W16763   2.741  20.176   4.313
44449W        W16764  26.674  24.671   1.446
44450W        W16765  33.540  12.239  10.935
44451W        W16766  14.694  39.976   2.878
44452W        W16767   7.323  16.584   1.727
44453W        W16768   1.424  28.149   1.774
44454W        W16769   8.268  25.132   3.870
44455W        W16770  16.711  42.992  10.548
44456W        W16771   3.300  31.466  10.582
44457W        W16772  19.050  25.986   0.411
44458W        W16773  37.081  19.581  10.998
44459W        W16774   8.309  32.618  11.945
44460W        W16775  33.424  28.025  12.073
44461W        W16776  30.054  37.581   0.396
44462W        W16777  10.241   6.828  11.083
44463W        W16778  23.656  27.537  14.907
44464W        W16779  38.956  29.054   0.899
44465W        W16780  42.023  33.889   1.427
44466W        W16781  32.552  19.546   3.863
44467W        W16782  42.383  41.431  11.888
44468W        W16783  41.391   2.469  11.538
44469W        W16784  34.908  19.099   2.296
44470W        W16785   9.360  42.515  13.931
44471W        W16786   0.986   8.841   2.823
44472W        W16787  24.102  12.746   3.741
44473W        W16788  25.580  18.554   0.958
44474W        W16789   6.878  44.999  12.564
44475W        W16790  10.193  31.049   5.133
44476W        W16791  17.246   8.248   3.803
44477W        W16792   7.364   0.867  10.631
44478W        W16793  24.194  20.190   2.723
44479W        W16794  25.209  44.469   1.869
44480W        W16795  11.179   2.254  11.454
44481W        W16796  36.047  25.998  11.119
44482W        W16797  20.203  36.546  11.968
44483W        W16798  21.720  27.975  13.394
44484W        W16799   4.296  12.857   0.272
44485W        W16800   9.316  10.837   0.937
44486W        W16801  40.424  34.881   2.849
44487W        W16802  30.555  13.681   0.247
44488W        W16803   1.777  28.543   3.694
44489W        W16804  28.511  25.468   0.735
44490W        W16805  40.527  42.330   0.273
44491W        W16806  26.194  22.559  10.914
44492W        W16807   5.795   4.412   4.210
44493W        W16808   1.420  16.142   1.906
44494W        W16809  25.701  12.181   3.677
44495W        W16810   0.743   1.848  10.108
44496W        W16811  41.925   3.422  14.016
44497W        W16812  11.819  36.905   3.630
44498W        W16813  34.095   7.214   1.845
44499W        W16814   1.875  16.580  10.527
44500W        W16815   4.858   5.843  11.103
44501W        W16816  15.143  34.966   2.294
44502W        W16817   6.780  13.261   0.408
44503W        W16818  10.175  31.021  13.342
44504W        W16819  31.614   5.209   1.803
44505W        W16820  17.618  22.248   1.350
44506W        W16821  42.976  30.637   4.803
44507W        W16822   7.390  27.021  12.989
44508W        W16823  28.521  14.637  11.115
44509W        W16824   6.843  20.572   3.302
44510W        W16825  28.470  34.873   2.772
44511W        W16826   7.826  17.183  10.530
44512W        W16827   4.256  10.370   4.817
44513W        W16828  10.676  11.791  12.851
44514W        W16829  24.566  20.576  11.422
44515W        W16830  40.939   6.773  11.928
44516W        W16831  42.921   1.826  12.871
44517W        W16832  21.534  14.799   0.318
44518W        W16833  19.644   9.304  10.930
44519W        W16834  19.653   2.827   4.341
44520W        W16835  21.683   6.891   1.734
44521W        W16836  35.990  23.077  14.927
44522W        W16837  11.857  11.826   1.277
44523W        W16838  26.547  31.939   4.713
44524W        W16839  43.970   8.241   1.314
44525W        W16840   6.801  19.140  12.004
44526W        W16841  34.536  36.988   3.322
44527W        W16842  16.169  11.201  11.983
44528W        W16843  34.609  41.440  13.823
44529W        W16844  10.238  19.733  13.352
44530W        W16845  29.667  25.557  11.063
44531W        W16846  22.586  29.156  10.126
44532W        W16847   5.225   1.407  12.381
44533W        W16848  28.515  41.926   0.831
44534W        W16849  24.658  27.647   0.951
44535W        W16850   9.246  21.733   0.476
44536W        W16851  10.634  18.240   1.333
44537W        W16852  38.821  23.688   4.347
44538W        W16853  42.986  16.631   2.699
44539W        W16854  36.876  42.951   4.838
44540W        W16855   2.297  34.043  11.043
44541W        W16856  25.525  10.798  12.996
44542W        W16857  17.238  12.703   1.736
44543W        W16858  12.198  33.014  11.399
44544W        W16859  40.339   5.388   2.900
44545W        W16860  44.006  40.500  12.962
44546W        W16861  10.767  21.055   0.277
44547W        W16862  16.790   6.418   3.239
44548W        W16863  31.979  33.974  10.484
44549W        W16864   3.443  18.591   4.758
44550W        W16865  13.274  31.963   3.149
44551W        W16866  24.577  28.551  12.041
44552W        W16867  30.452  42.475  11.494
44553W        W16868  37.837  35.048  12.349
44554W        W16869  12.283  15.087   0.308
44555W        W16870   8.168  35.903   1.332
44556W        W16871  11.262  40.986  10.538
44557W        W16872  26.569   3.877   5.120
44558W        W16873  35.493  31.091   3.245
44559W        W16874  25.123  42.301  14.767
44560W        W16875   6.899  10.638   1.727
44561W        W16876  43.972  28.989   3.796
44562W        W16877  18.213  40.543  14.924
44563W        W16878  25.641  37.939   2.763
44564W        W16879  24.019  30.601  10.451
44565W        W16880  17.153  34.414   0.920
44566W        W16881  29.541  29.469   2.768
44567W        W16882  28.015  40.802   1.864
44568W        W16883  22.187  12.758  14.920
44569W        W16884  32.073   6.794   4.661
44570W        W16885  28.011  32.971   4.203
44571W        W16886  40.338  38.325   2.846
44572W        W16887   3.420   9.762   3.374
44573W        W16888  25.211  38.961   4.266
44574W        W16889   8.875  30.918   0.878
44575W        W16890  31.021  11.665   2.721
44576W        W16891  36.051  29.585  12.993
44577W        W16892  23.126   0.381  11.451
44578W        W16893  15.760  19.200   4.179
44579W        W16894  19.636  28.971  12.953
44580W        W16895  34.890  33.067  10.916
44581W        W16896  32.047  42.329   3.148
44582W        W16897  14.722  29.151   0.912
44583W        W16898   5.716  37.559   2.225
44584W        W16899  39.931   3.887   4.315
44585W        W16900   1.387   8.898   2.891
44586W        W16901  35.879   1.452   4.170
44587W        W16902  24.997   4.710   3.710
44588W        W16903   8.175   4.722  13.328
44589W        W16904  30.155  28.632   4.239
44590W        W16905  38.044  38.994  11.505
44591W        W16906   1.897  44.463  11.609
44592W        W16907  26.564   6.919  11.605
44593W        W16908  35.966  30.462  12.561
44594W        W16909   9.228   7.712  11.468
44595W        W16910  28.610   4.431  12.939
44596W        W16911  33.388  16.685  12.970
44597W        W16912  39.859  40.533  14.982
44598W        W16913  42.810  23.071  10.597
44599W        W16914  13.639   9.863  13.038
44600W        W16915  26.524  17.688   4.715
44601W        W16916   2.402  12.736  10.916
44602W        W16917  14.682  28.033  12.506
44603W        W16918   2.407  42.979  11.540
44604W        W16919  22.127  26.557   3.724
44605W        W16920  36.375   7.243  12.088
44606W        W16921   8.655   9.844   4.817
44607W        W16922  33.120   1.295  12.367
44608W        W16923  37.383  26.041  14.276
44609W        W16924  13.833   6.394  12.531
44610W        W16925  11.812  12.203   0.301
44611W        W16926  20.604  13.125  14.291
44612W        W16927  15.690  15.782   1.724
44613W        W16928  18.059  37.427  10.411
44614W        W16929  26.684  32.497   0.739
44615W        W16930  20.740   7.330  11.520
44616W        W16931  18.175  18.621   2.247
44617W        W16932   8.674   9.655   0.398
44618W        W16933  22.019  33.509  12.957
44619W        W16934  37.478  31.979  14.010
44620W        W16935  28.445  13.331   1.218
44621W        W16936  40.325   5.344  12.387
44622W        W16937   6.703  16.584  12.926
44623W        W16938  26.537  40.547   0.297
44624W        W16939  12.121  12.122  13.392
44625W        W16940  32.521  28.534   4.347
44626W        W16941  37.579  25.529   0.287
44627W        W16942  31.646  41.370   4.130
44628W        W16943  18.163   7.874  10.627
44629W        W16944  18.102  36.428   0.467
44630W        W16945  39.514  20.647   3.686
44631W        W16946  32.566   8.893  11.968
44632W        W16947   9.329   7.766  12.970
44633W        W16948  34.947  40.480  10.623
44634W        W16949  25.963  31.449   1.765
44635W        W16950  17.114  34.610  13.974
44636W        W16951  28.544  34.034  14.380
44637W        W16952  32.114  12.668  12.563
44638W        W16953  36.539   2.741   0.300
44639W        W16954  13.705  18.096   2.681
44640W        W16955  16.808  40.501   9.667
44641W        W16956  37.840  43.516   1.258
44642W        W16957  23.547  28.680  13.061
44643W        W16958  25.053   4.251  10.953
44644W        W16959  37.999   9.286  12.944
44645W        W16960   5.320  19.630   4.718
44646W        W16961  31.562  33.518   2.869
44647W        W16962  43.366  28.481   2.228
44648W        W16963   1.344   5.743   1.806
44649W        W16964  36.980   4.263  11.088
44650W        W16965  19.208  37.949   3.276
44651W        W16966  21.224  21.573  10.526
44652W        W16967  10.150  20.049  10.571
44653W        W16968  26.685  29.565   4.692
44654W        W16969   0.932  21.635  12.533
44655W        W16970  38.981  37.467  12.011
44656W        W16971  14.095  21.575  12.521
44657W        W16972  13.174  19.159   2.748
44658W        W16973   3.239  28.587  11.010
44659W        W16974  41.414  21.191   2.348
44660W        W16975  30.959  37.891   2.789
44661W        W16976   3.857  39.485  12.486
44662W        W16977  14.593  19.711  12.996
44663W        W16978   3.354  14.127   1.723
44664W        W16979  21.517  12.299   4.813
44665W        W16980  24.584   6.812   4.722
44666W        W16981  20.103  11.644   1.733
44667W        W16982  33.623  43.892  14.796
44668W        W16983  33.084  28.072  12.395
44669W        W16984  41.498  14.121   0.882
44670W        W16985  25.987  33.989   0.869
44671W        W16986   7.202  14.122   2.339
44672W        W16987  43.324  26.162  13.372
44673W        W16988  14.701  40.920  12.572
44674W        W16989  31.644   9.824  14.788
44675W        W16990  24.680   0.747  14.437
44676W        W16991  23.138  40.931   0.834
44677W        W16992  12.204  22.647   0.245
44678W        W16993  36.883   8.221   3.370
44679W        W16994  32.445  36.447   3.666
44680W        W16995  22.525  36.479  10.616
44681W        W16996  41.507  17.601   3.865
44682W        W16997  11.661  25.060  11.035
44683W        W16998   3.326  43.818  11.429
44684W        W16999  25.682  18.162   5.141
44685W        W17000   5.923  39.841  14.916
44686W        W17001  37.831  32.608  13.497
44687W        W17002  31.439  32.074   2.824
44688W        W17003  21.048  22.546   2.882
44689W        W17004   6.920   3.734  14.008
44690W        W17005  22.233  28.636   1.886
44691W        W17006   5.236  13.809   0.802
44692W        W17007  25.623   1.315   3.331
44693W        W17008   7.194  10.835   0.768
44694W        W17009   8.397  18.092   2.716
44695W        W17010  26.519   0.395   2.687
44696W        W17011   7.912  15.172   2.277
44697W        W17012   1.428  38.002  12.340
44698W        W17013   7.412  24.144   0.901
44699W        W17014  13.837  13.239   1.241
44700W        W17015  17.582  35.099  13.499
44701W        W17016  16.777  21.116  12.351
44702W        W17017  10.162  31.039  14.357
44703W        W17018  42.789  43.786  11.037
44704W        W17019   1.929  41.482  11.012
44705W        W17020   2.270  32.922  11.374
44706W        W17021  44.893  12.673   9.952
44707W        W17022   5.914  36.532  12.962
44708W        W17023  41.889  31.488  10.485
44709W        W17024  23.624  39.002  11.601
44710W        W17025  28.475  35.899  13.976
44711W        W17026   0.273  22.226   4.186
44712W        W17027  16.250   8.282  12.381
44713W        W17028  45.000  37.427  13.047
44714W        W17029  35.085  41.399  12.355
44715W        W17030  30.585  27.087  14.342
44716W        W17031  28.627  40.479  11.530
44717W        W17032  14.631   7.726   4.235
44718W        W17033  32.602   5.707  12.884
44719W        W17034  38.932   5.288   0.869
44720W        W17035  17.192   8.316  10.566
44721W        W17036  20.210  12.335  14.884
44722W        W17037   1.877  27.489   3.339
44723W        W17038  41.492  35.909  11.501
44724W        W17039  43.942  30.624   0.737
44725W        W17040  35.384  35.865   1.409
44726W        W17041   0.467  31.548   1.343
44727W        W17042  39.512  26.643  12.545
44728W        W17043  29.074  20.657   2.820
44729W        W17044  30.045  19.276   3.360
44730W        W17045  43.345  44.823  11.426
44731W        W17046  35.945  36.886  11.075
44732W        W17047  18.695  25.016   2.306
44733W        W17048   4.771  37.375   3.742
44734W        W17049   7.369  11.255   3.843
44735W        W17050   0.339   0.964  13.853
44736W        W17051  42.854   2.340   5.148
44737W        W17052  17.776  39.394  11.107
44738W        W17053   9.735  10.164   3.840
44739W        W17054  19.618   5.807  11.111
44740W        W17055  16.608  10.830   3.820
44741W        W17056  27.981  15.088   4.231
44742W        W17057   1.245  20.208   0.278
44743W        W17058  16.691  19.603  12.914
44744W        W17059  42.352  16.657   2.708
44745W        W17060  23.118  40.922   4.764
44746W        W17061  14.771  10.651   4.663
44747W        W17062  13.225  19.094  11.059
44748W        W17063  18.160  24.210   1.868
44749W        W17064  40.521   3.459  14.436
44750W        W17065  14.332  42.993  11.963
44751W        W17066  11.659  21.055   2.785
44752W        W17067  42.863  34.555  12.515
44753W        W17068   7.804  23.543   4.806
44754W        W17069   1.935  20.156   3.350
44755W        W17070  36.455  18.133   9.942
44756W        W17071  16.673  21.606  10.961
44757W        W17072  32.442  32.134   1.266
44758W        W17073  43.982  12.339  12.465
44759W        W17074  30.536  24.013   4.750
44760W        W17075   1.411   4.901  11.520
44761W        W17076  25.647  15.310  13.991
44762W        W17077  16.100  30.547   9.538
44763W        W17078   3.907  38.375   3.169
44764W        W17079  43.017   1.839  11.085
44765W        W17080  18.224  36.382   2.409
44766W        W17081  14.256  40.978   1.791
44767W        W17082  28.477  25.632   1.421
44768W        W17083  36.551  34.400   4.651
44769W        W17084   4.220  25.699  12.846
44770W        W17085  29.949  26.599  13.024
44771W        W17086  23.225  19.778  13.406
44772W        W17087   9.655  19.280   4.275
44773W        W17088  35.469  37.547   2.823
44774W        W17089  30.425   6.406   2.331
44775W        W17090  26.101   6.785   4.183
44776W        W17091  33.562  21.022   2.244
44777W        W17092  33.477   0.424   2.716
44778W        W17093  33.416  18.612   1.709
44779W        W17094   9.385   5.738  12.842
44780W        W17095  33.005  14.108  11.566
44781W        W17096  17.696  38.451  14.977
44782W        W17097  43.986  10.308   0.925
44783W        W17098   7.678   7.406   3.842
44784W        W17099   9.186   6.254   3.655
44785W        W17100  44.442  24.176   0.355
44786W        W17101   6.250  11.835   5.306
44787W        W17102  16.194  12.281   2.817
44788W        W17103  39.948  26.512   2.790
44789W        W17104  21.528   9.759   2.863
44790W        W17105  31.021   9.791   4.265
44791W        W17106  28.506  32.003  12.094
44792W        W17107   3.374  30.027   3.776
44793W        W17108  37.440  24.088  10.588
44794W        W17109  34.073  30.553   3.789
44795W        W17110  20.036  25.053   3.276
44796W        W17111  42.786   5.225   4.336
44797W        W17112  20.096  17.234  14.849
44798W        W17113  10.764  22.725   9.930
44799W        W17114  10.373  41.914  11.914
44800W        W17115  31.528  24.216   2.884
44801W        W17116  44.958  19.688   3.324
44802W        W17117  24.222  39.525   3.250
44803W        W17118  42.827  36.425  12.939
44804W        W17119  44.421   0.456   2.249
44805W        W17120  41.516  13.612  10.620
44806W        W17121  25.174  29.668   0.847
44807W        W17122  13.197  33.018   3.191
44808W        W17123  16.162  25.976   4.800
44809W        W17124  21.142  16.651   1.706
44810W        W17125  43.329  19.246  14.346
44811W        W17126  43.911  10.310   5.189
44812W        W17127  21.698   0.367  11.399
44813W        W17128  35.002  38.927  13.019
44814W        W17129  32.593  13.655   0.314
44815W        W17130   7.226  11.703   0.447
44816W        W17131  12.203  36.917  14.823
44817W        W17132   8.667  38.542  13.005
44818W        W17133  26.128  42.456  13.861
44819W        W17134  43.993  24.203  13.494
44820W        W17135  37.567   5.767  12.534
44821W        W17136   9.225  18.131  11.506
44822W        W17137   6.370  44.902   3.781
44823W        W17138  25.211  27.177  12.934
44824W        W17139  21.713  25.200  11.524
44825W        W17140  41.940  42.522  13.461
44826W        W17141  17.069  39.886   1.366
44827W        W17142  15.659  34.529  10.056
44828W        W17143  18.692   2.914  12.073
44829W        W17144  16.121  29.574   3.256
44830W        W17145  26.083  12.751  14.783
44831W        W17146  25.522  18.182  10.110
44832W        W17147  27.123  23.071  10.556
44833W        W17148  29.553  12.814   0.275
44834W        W17149  23.050  36.905   1.367
44835W        W17150  31.612   5.696  13.990
44836W        W17151   4.818   2.754  12.871
44837W        W17152  32.549  29.932  14.989
44838W        W17153   1.753  34.867   2.769
44839W        W17154  19.611  36.011  11.388
44840W        W17155   6.722  35.887   0.909
44841W        W17156  23.006  23.100  10.919
44842W        W17157  18.147   6.243   3.730
44843W        W17158  13.278  14.727   0.732
44844W        W17159  32.523  22.555   4.247
44845W        W17160  42.312  29.987   0.437
44846W        W17161  17.250  23.523   4.784
44847W        W17162  13.257   3.762  14.294
44848W        W17163  15.748  19.595  12.086
44849W        W17164  37.582  15.090  14.504
44850W        W17165  14.287   8.711  14.803
44851W        W17166  31.035   6.223   3.814
44852W        W17167   0.846   7.687   3.859
44853W        W17168  30.013  32.451  12.083
44854W        W17169   8.194  35.456  12.834
44855W        W17170  30.957  13.220  11.944
44856W        W17171   5.748   0.898   0.431
44857W        W17172  25.060  19.258  13.995
44858W        W17173  15.757  14.796  12.991
44859W        W17174  18.241  29.056  14.311
44860W        W17175  12.175  20.062   3.310
44861W        W17176   5.207  25.103   1.435
44862W        W17177   2.291  14.824   2.733
44863W        W17178  44.445  16.147   2.900
44864W        W17179   3.423  24.985   1.862
44865W        W17180  34.065  37.434   4.611
44866W        W17181  38.547  33.578   4.811
44867W        W17182  20.657   4.265  11.447
44868W        W17183  13.160   7.404  12.087
44869W        W17184  42.399  43.358  12.407
44870W        W17185   5.233  42.473  10.535
44871W        W17186   1.885  33.390  13.062
44872W        W17187  33.099  39.007   0.405
44873W        W17188   0.428  30.039  12.414
44874W        W17189  28.640   2.430   2.815
44875W        W17190  30.524  39.867  10.452
44876W        W17191  14.220  21.175   4.758
44877W        W17192  44.259   4.905   1.234
44878W        W17193  30.500  41.471  14.427
44879W        W17194   7.865  11.266   1.220
44880W        W17195  32.904  40.004   1.716
44881W        W17196  36.860   4.330  14.464
44882W        W17197  14.643  34.910  14.401
44883W        W17198   4.901   4.262   3.725
44884W        W17199  32.499  19.535   2.274
44885W        W17200  40.000   8.242   0.416
44886W        W17201  33.937  12.776  14.493
44887W        W17202  36.526  38.411  11.496
44888W        W17203  37.491  19.663  13.946
44889W        W17204  19.631  16.725   3.158
44890W        W17205  33.601  43.011   4.137
44891W        W17206  16.190  15.148   0.802
44892W        W17207   1.293   9.645   1.775
44893W        W17208   2.905  38.067   2.841
44894W        W17209   7.302   8.805  12.395
44895W        W17210  44.382  30.546   0.268
44896W        W17211  14.175  15.670  11.420
44897W        W17212  30.518  30.940   1.397
44898W        W17213  14.264  33.081   3.348
44899W        W17214  13.747  42.016  12.356
44900W        W17215   0.344  20.043  14.374
44901W        W17216  33.107  42.295  12.471
44902W        W17217  17.186  21.117   1.881
44903W        W17218  25.132  15.273  10.941
44904W        W17219  31.118  40.544  10.989
44905W        W17220  24.603  13.202   3.305
44906W        W17221  33.885  17.665  14.294
44907W        W17222  17.072  34.866  10.595
44908W        W17223  41.904  15.156   0.841
44909W        W17224  43.387  23.645   3.178
44910W        W17225   2.803  22.530  14.349
44911W        W17226  29.175   0.845   1.697
44912W        W17227  27.597  35.012  11.386
44913W        W17228  38.391  25.022   4.734
44914W        W17229  28.081  23.018   3.178
44915W        W17230   1.267  38.367  13.847
44916W        W17231   7.198  39.964  14.020
44917W        W17232  25.504   2.738   3.635
44918W        W17233   6.698  36.952   3.701
44919W        W17234  44.003  26.954   2.325
44920W        W17235   1.426   9.224  12.517
44921W        W17236  19.713  13.165   0.376
44922W        W17237  21.060  35.401   1.783
44923W        W17238  34.955  24.195   4.610
44924W        W17239  37.479   6.259   0.323
44925W        W17240  21.098  38.422  10.520
44926W        W17241  30.565  23.522  10.604
44927W        W17242  35.024  34.373   1.732
44928W        W17243  34.519  43.394  13.463
44929W        W17244  33.582  11.204   3.811
44930W        W17245   7.868  20.686   0.369
44931W        W17246  22.124  23.033   3.304
44932W        W17247  27.646  10.692   2.208
44933W        W17248  19.581   9.685   0.893
44934W        W17249  29.950   5.882  10.479
44935W        W17250  33.956  35.988   4.126
44936W        W17251  15.194  18.635   0.808
44937W        W17252  23.021   7.710   0.924
44938W        W17253  33.451  33.991  14.986
44939W        W17254  30.937   3.940  13.913
44940W        W17255  29.429  37.387   3.753
44941W        W17256  36.935   1.348   4.282
44942W        W17257  31.978   7.277  10.121
44943W        W17258  42.994  39.956  12.954
44944W        W17259   7.688  34.971  10.466
44945W        W17260  44.330  42.349  13.906
44946W        W17261  44.356  19.564   0.941
44947W        W17262  34.592  13.211  13.497
44948W        W17263   2.447   9.174   4.231
44949W        W17264   6.718  19.058  14.892
44950W        W17265   6.267   8.245  13.468
44951W        W17266   4.288  14.693  12.041
44952W        W17267  11.684  16.636  12.465
44953W        W17268  26.532  31.574   4.119
44954W        W17269  40.510  16.193   1.427
44955W        W17270  44.861  32.035   2.215
44956W        W17271  37.531  43.818  11.890
44957W        W17272  22.716  39.961  12.375
44958W        W17273  32.535  37.037   2.415
44959W        W17274  38.405  29.432   1.774
44960W        W17275  39.535   3.855  14.808
44961W        W17276  25.013  29.058  13.323
44962W        W17277  37.341  42.506  13.054
44963W        W17278  12.239   2.450  11.523
44964W        W17279  21.514  23.713  11.954
44965W        W17280  26.091  19.282   4.317
44966W        W17281   5.199  10.715  12.388
44967W        W17282  17.721  42.005  11.087
44968W        W17283  24.129   7.233  11.539
44969W        W17284   7.675   1.412  13.805
44970W        W17285   6.695  31.941  13.522
44971W        W17286  31.631  40.000   2.708
44972W        W17287  40.529   7.765  12.923
44973W        W17288  39.431  33.930   0.357
44974W        W17289   8.662  13.754  12.530
44975W        W17290   7.181  23.540  13.359
44976W        W17291  16.688  10.835   0.324
44977W        W17292  25.508  44.318   0.784
44978W        W17293  33.016  32.056  12.537
44979W        W17294   6.288   7.853   1.861
44980W        W17295  29.629  31.447  13.933
44981W        W17296  36.536  38.499  14.295
44982W        W17297  19.100  38.049   4.173
44983W        W17298  24.190  29.660  12.461
44984W        W17299   2.789  40.372  11.583
44985W        W17300   1.285  20.049   1.433
44986W        W17301  25.189  16.114  11.123
44987W        W17302  32.559   8.341  12.513
44988W        W17303  22.108  25.487  10.581
44989W        W17304  41.504   6.380   2.718
44990W        W17305   1.731   6.882   3.200
44991W        W17306  26.684  10.218  13.978
44992W        W17307  21.256  32.071  12.970
44993W        W17308  37.483  39.927  10.077
44994W        W17309   4.749  41.015   2.254
44995W        W17310  39.503  14.283  10.527
44996W        W17311  12.247   5.782   1.450
44997W        W17312  16.308  31.100   3.835
44998W        W17313  17.226   1.396  11.907
44999W        W17314  19.763   1.859   1.933
45000W        W17315  21.020  29.550  12.543
45001W        W17316  36.968  37.949   1.414
45002W        W17317  18.092  23.732   3.230
45003W        W17318  25.127  26.993  11.099
45004W        W17319   9.693  14.613   1.872
45005W        W17320  43.509  33.052   3.811
45006W        W17321  42.878  29.541   4.180
45007W        W17322  40.434  22.502  13.798
45008W        W17323  13.624  37.501  12.432
45009W        W17324  35.427  40.007   2.802
45010W        W17325  10.711  25.629  13.547
45011W        W17326  18.214  34.461  12.457
45012W        W17327  40.549  22.519  10.998
45013W        W17328  31.995  24.074   3.829
45014W        W17329   9.815  26.578   2.894
45015W        W17330  30.613  25.670  11.517
45016W        W17331  35.957  28.992  13.792
45017W        W17332  40.943  40.904   1.809
45018W        W17333  19.183  15.680   0.261
45019W        W17334  34.455  23.197  13.438
45020W        W17335  19.112   8.655   2.742
45021W        W17336  29.117  44.932  13.794
45022W        W17337  31.968  17.151  12.969
45023W        W17338   1.808  24.700   1.735
45024W        W17339   0.898  11.781   4.735
45025W        W17340  14.255   2.959   2.767
45026W        W17341  33.010  20.693  11.453
45027W        W17342  10.853   2.230   4.134
45028W        W17343   1.249   6.202   3.727
45029W        W17344  23.706  38.031  11.462
45030W        W17345  17.693   3.761  10.548
45031W        W17346  33.982  22.187  13.804
45032W        W17347  31.499  29.093   0.391
45033W        W17348  41.368  44.304  10.421
45034W        W17349  32.929  43.392   1.832
45035W        W17350   5.401  24.498   4.115
45036W        W17351  18.285  36.943  14.281
45037W        W17352  38.854  31.525  11.945
45038W        W17353  25.652   6.242  12.857
45039W        W17354  39.833   1.977  13.062
45040W        W17355  32.072   5.334   0.959
45041W        W17356   2.905  14.101  11.444
45042W        W17357   6.893  33.504   3.236
45043W        W17358   1.245  23.614   0.765
45044W        W17359  43.330  36.569  14.023
45045W        W17360   6.863  18.668   4.349
45046W        W17361  31.017  21.137   2.361
45047W        W17362  43.432  36.524  14.866
45048W        W17363  30.148  33.980   2.833
45049W        W17364  42.400   2.388  14.380
45050W        W17365   4.294  19.243  12.394
45051W        W17366  43.459  11.306   0.381
45052W        W17367   7.904  33.598   2.697
45053W        W17368  44.282   3.403  10.477
45054W        W17369  17.801   3.922   4.685
45055W        W17370   1.793  34.385   1.901
45056W        W17371  15.753  31.572  13.864
45057W        W17372   6.911  27.145  12.342
45058W        W17373  20.127   5.419   3.685
45059W        W17374  40.502   1.436   2.253
45060W        W17375  20.585  26.068   4.744
45061W        W17376  15.806  12.796   0.327
45062W        W17377  14.220  33.109   2.855
45063W        W17378  41.999  25.150  10.896
45064W        W17379  24.109   4.836   5.234
45065W        W17380  29.581   1.877   1.248
45066W        W17381  23.626   2.344   0.747
45067W        W17382  19.713  22.142   2.734
45068W        W17383  39.911  28.598  12.565
45069W        W17384  43.766  43.492   2.711
45070W        W17385  31.545  23.015   3.358
45071W        W17386  35.453  43.932  13.364
45072W        W17387  42.900  25.030  14.000
45073W        W17388  34.509  30.954  13.478
45074W        W17389  35.533  21.629   3.711
45075W        W17390   1.294  14.798  10.587
45076W        W17391  21.222  19.090  14.426
45077W        W17392  34.932  26.112  12.443
45078W        W17393   3.362  13.135   1.376
45079W        W17394   9.383  18.785   5.082
45080W        W17395   4.415  35.458  12.852
45081W        W17396   9.748  26.967   4.617
45082W        W17397  22.654   2.290  12.570
45083W        W17398  22.078  41.338   0.323
45084W        W17399  34.399  11.841   4.328
45085W        W17400  18.095  21.091   2.742
45086W        W17401   6.264  27.681   3.212
45087W        W17402  40.838  34.403   0.421
45088W        W17403  29.083  41.849   4.289
45089W        W17404  27.517  32.046  11.530
45090W        W17405   3.252  43.358   4.693
45091W        W17406  35.897   2.872  14.368
45092W        W17407  13.760  27.656   0.331
45093W        W17408  24.007  34.607   3.702
45094W        W17409  40.996  25.641   2.296
45095W        W17410  18.595  18.778   2.417
45096W        W17411  18.558  14.119  12.094
45097W        W17412  37.972  15.148  10.525
45098W        W17413  27.009  19.766   4.813
45099W        W17414  12.794   1.249  11.062
45100W        W17415  32.578  34.432   4.312
45101W        W17416  39.944   0.827   4.631
45102W        W17417  30.641  30.462  10.436
45103W        W17418  31.564  39.422  13.797
45104W        W17419  40.901  13.602   3.810
45105W        W17420  16.645  27.116   4.787
45106W        W17421  15.326  30.034   4.211
45107W        W17422  28.437  31.108   1.813
45108W        W17423  28.559  31.441  14.479
45109W        W17424   3.800  20.665  11.429
45110W        W17425  25.085  34.020  11.513
45111W        W17426   0.387  26.481   0.391
45112W        W17427  29.649  31.153  11.919
45113W        W17428  44.910  17.628   4.185
45114W        W17429  42.383  22.051   2.379
45115W        W17430   3.371  32.973   9.955
45116W        W17431  40.828   4.856  13.012
45117W        W17432  33.580  35.929  11.383
45118W        W17433  40.337  36.997  12.429
45119W        W17434   8.730  12.667   4.198
45120W        W17435  38.043   2.966   1.418
45121W        W17436  11.741  43.853   0.768
45122W        W17437  30.087  11.836  13.885
45123W        W17438  24.531   1.800  13.841
45124W        W17439  36.987   4.309  11.906
45125W        W17440  36.091  13.766  13.979
45126W        W17441  18.757   8.260   0.275
45127W        W17442  18.728   9.707   1.833
45128W        W17443  31.442  27.162  11.971
45129W        W17444  22.535   8.172  10.462
45130W        W17445  24.982  31.071   0.287
45131W        W17446  11.840  43.489  13.465
45132W        W17447  37.854  11.654  12.471
45133W        W17448  29.510   9.333  14.285
45134W        W17449  18.688  21.718  10.520
45135W        W17450  21.620  29.516   3.243
45136W        W17451  33.130  15.207   2.818
45137W        W17452   1.480  34.099   1.727
45138W        W17453  22.532  14.682   2.369
45139W        W17454  44.470   8.223   3.850
45140W        W17455  23.124  37.880  10.919
45141W        W17456  25.096  28.947  14.327
45142W        W17457  17.582  16.602  13.547
45143W        W17458   0.388  29.466   2.404
45144W        W17459  44.489  13.832  14.335
45145W        W17460  31.026   6.393   4.819
45146W        W17461  22.609   7.733  10.463
45147W        W17462  15.104  43.401  13.872
45148W        W17463  41.331  27.467   4.232
45149W        W17464  36.973  15.736   2.419
45150W        W17465  13.745  11.327   4.167
45151W        W17466  27.984  23.083  12.905
45152W        W17467  10.302  28.465  13.916
45153W        W17468  39.453  40.534  10.060
45154W        W17469  10.682  36.392  12.458
45155W        W17470   6.273  25.054   5.208
45156W        W17471  21.658  37.869   1.790
45157W        W17472  25.557  15.685   2.695
45158W        W17473   5.419  21.197   4.726
45159W        W17474  33.927  38.349   1.891
45160W        W17475  21.190  21.208  11.527
45161W        W17476  26.153  35.415   3.836
45162W        W17477  19.611  34.955   4.292
45163W        W17478  40.337  32.483   1.908
45164W        W17479  44.304  28.986   0.858
45165W        W17480   3.747  27.057  13.508
45166W        W17481  21.259  10.869   4.299
45167W        W17482  44.949   7.171  14.765
45168W        W17483  43.338  16.762   3.715
45169W        W17484   7.871  33.038   0.844
45170W        W17485  13.692  44.768   2.230
45171W        W17486  35.579   6.782  11.449
45172W        W17487  38.533  23.624  10.939
45173W        W17488   4.735   9.328   0.800
45174W        W17489  41.514  19.695  12.896
45175W        W17490  43.406  16.283  12.967
45176W        W17491   9.295  34.520   4.740
45177W        W17492  27.047  37.853   0.784
45178W        W17493  13.612  21.081  13.047
45179W        W17494  11.311  40.439   2.750
45180W        W17495  32.143  13.296   0.883
45181W        W17496  33.521  32.418   4.711
45182W        W17497  14.175  10.193  10.943
45183W        W17498  25.084  21.627   4.199
45184W        W17499  11.300  16.631  10.023
45185W        W17500  12.612  11.762  14.815
45186W        W17501  41.872  10.663   2.666
45187W        W17502   5.740  34.615  12.476
45188W        W17503   5.779  19.196   0.417
45189W        W17504   2.816  37.003   4.705
45190W        W17505  12.752  35.487  10.924
45191W        W17506  24.180  34.396  13.426
45192W        W17507  29.926  26.462  12.501
45193W        W17508  26.612  37.351   2.189
45194W        W17509  22.744   0.950   3.281
45195W        W17510   1.926  39.931  14.843
45196W        W17511  21.214  26.563  10.151
45197W        W17512  39.002  20.576   4.342
45198W        W17513  32.980  44.265  11.891
45199W        W17514  20.564  37.882   1.355
45200W        W17515  35.065  10.689   4.652
45201W        W17516  16.151  44.315  11.856
45202W        W17517   9.369  32.564   4.665
45203W        W17518   2.319   6.210  14.968
45204W        W17519  14.106  13.746  12.412
45205W        W17520  40.983  28.583  10.943
45206W        W17521  14.236  29.550   2.345
45207W        W17522  35.024  15.092  13.438
45208W        W17523  20.546  24.629  14.377
45209W        W17524   9.659   9.335  13.919
45210W        W17525  29.067  32.562  11.544
45211W        W17526  18.575  16.230   2.711
45212W        W17527  37.516  24.713   1.438
45213W        W17528   3.388  13.625  10.553
45214W        W17529  18.617  31.072   3.343
45215W        W17530   9.254   2.841  11.983
45216W        W17531  20.643  17.582  14.836
45217W        W17532  11.716   1.789   3.232
45218W        W17533  28.103   3.820   4.121
45219W        W17534  22.182   4.801  11.074
45220W        W17535   3.875  18.624  12.897
45221W        W17536  27.042  17.768  12.932
45222W        W17537  29.984  18.219   0.356
45223W        W17538  36.848  28.106  12.347
45224W        W17539  32.451  18.287   4.139
45225W        W17540  41.484   8.712   3.333
45226W        W17541  22.016  16.608   3.726
45227W        W17542  26.013  31.433   4.247
45228W        W17543   9.280  44.946   1.704
45229W        W17544  36.569  12.356   2.742
45230W        W17545  41.971  11.328   2.180
45231W        W17546  42.511  33.613  11.906
45232W        W17547  16.643  33.398  13.373
45233W        W17548  40.980   9.364  12.423
45234W        W17549   9.283  41.386   0.330
45235W        W17550   3.407  17.186  14.900
45236W        W17551  37.052  21.147   0.442
45237W        W17552  23.572  10.843  14.382
45238W        W17553  29.472   0.955   0.940
45239W        W17554  38.877  36.021  11.469
45240W        W17555  34.890  30.011   3.717
45241W        W17556   2.820  43.837   2.246
45242W        W17557  29.944  11.209   0.386
45243W        W17558  27.044   7.236  12.384
45244W        W17559   1.822  10.144  12.915
45245W        W17560   6.866  21.556  12.988
45246W        W17561  28.970  19.212  12.887
45247W        W17562   9.819  15.678  11.383
45248W        W17563   2.414  12.252  12.041
45249W        W17564   4.942  21.256  13.898
45250W        W17565  36.542  20.727  14.420
45251W        W17566  25.205   1.735  10.552
45252W        W17567   3.892  28.487  14.368
45253W        W17568  15.223  14.823   0.942
45254W        W17569  24.584  11.841  14.806
45255W        W17570  10.232  28.530  12.438
45256W        W17571  42.453   3.907   4.663
45257W        W17572  25.058  32.506   2.865
45258W        W17573   2.929  14.188  12.375
45259W        W17574  29.952  34.504   0.848
45260W        W17575  38.858   1.337  13.924
45261W        W17576  20.169   7.266   4.754
45262W        W17577   6.305  20.660   1.877
45263W        W17578  35.601   3.774  13.449
45264W        W17579   8.382   6.230  12.358
45265W        W17580  22.208  27.682  11.125
45266W        W17581  40.956  31.609  10.994
45267W        W17582  37.485  14.130  10.608
45268W        W17583  22.653  40.434  14.495
45269W        W17584  39.898  29.081  13.872
45270W        W17585   4.223   4.708   0.945
45271W        W17586   5.382  21.699   3.313
45272W        W17587   0.447  38.513  11.989
45273W        W17588  21.191  13.279  14.395
45274W        W17589  31.012  21.224  12.411
45275W        W17590  28.981  30.602  14.787
45276W        W17591  15.222  36.889   2.680
45277W        W17592  12.159  22.551   4.819
45278W        W17593   4.740  43.428   4.326
45279W        W17594   2.929  37.545   2.723
45280W        W17595   9.189  13.168  11.971
45281W        W17596  31.542  44.909  14.027
45282W        W17597  28.080   5.424  12.015
45283W        W17598  21.641   7.197   2.824
45284W        W17599  19.606  21.640   4.656
45285W        W17600  19.731  20.170  14.826
45286W        W17601   9.889  17.711  12.562
45287W        W17602  19.042  27.997  12.427
45288W        W17603  27.979  41.495   3.270
45289W        W17604  44.356  18.652  10.955
45290W        W17605   0.269  34.381  14.802
45291W        W17606  36.554  40.515   0.862
45292W        W17607   0.964  14.215  10.034
45293W        W17608  39.944  29.023  10.911
45294W        W17609  12.661  17.665   0.782
45295W        W17610   3.305  11.201  10.121
45296W        W17611  14.182  33.490  13.321
45297W        W17612   7.780  21.234   3.210
45298W        W17613  40.519  15.737  13.924
45299W        W17614  31.967  44.263  13.396
45300W        W17615  20.587  15.675   4.718
45301W        W17616  30.562   8.675   0.730
45302W        W17617   9.343  19.133  12.486
45303W        W17618  10.145  24.990  12.092
45304W        W17619  35.912   6.867  14.280
45305W        W17620  23.213  42.333   4.778
45306W        W17621   7.732  36.961   2.285
45307W        W17622  16.080  32.434  14.324
45308W        W17623  13.206  40.358   1.272
45309W        W17624  35.457  19.708  13.418
45310W        W17625   9.266  18.551  12.982
45311W        W17626  23.219  17.306  11.447
45312W        W17627  29.666   7.291  11.923
45313W        W17628   9.316  19.588  12.548
45314W        W17629   1.788  23.194   2.350
45315W        W17630  13.728  10.283   1.326
45316W        W17631  11.827  29.580  14.833
45317W        W17632  18.755  40.455   5.682
45318W        W17633  18.555  10.646   2.339
45319W        W17634  12.654  20.734  11.522
45320W        W17635  26.578  19.597   2.418
45321W        W17636  38.840   5.905  10.978
45322W        W17637  13.352   6.417  10.538
45323W        W17638  20.625  19.656   0.767
45324W        W17639  11.234  15.149   1.917
45325W        W17640  36.882  33.567   1.934
45326W        W17641  12.820  23.627  13.938
45327W        W17642  37.961  38.397  13.448
45328W        W17643  41.524   4.435   4.237
45329W        W17644  32.042   4.817   1.907
45330W        W17645  44.862  28.641   4.114
45331W        W17646  13.270  34.544   5.191
45332W        W17647  28.588   2.255  12.853
45333W        W17648  16.167  40.031   4.248
45334W        W17649  26.117  42.323   0.244
45335W        W17650   1.450  24.058   4.635
45336W        W17651   9.298  17.093  13.031
45337W        W17652  38.048  11.746   3.171
45338W        W17653  35.397  16.101  12.384
45339W        W17654  26.670  12.248  11.429
45340W        W17655  29.939  22.530   0.804
45341W        W17656   2.919   6.742   0.856
45342W        W17657  20.128   2.747  13.380
45343W        W17658   6.195  30.070   2.831
45344W        W17659  17.222  41.298   0.453
45345W        W17660  43.854   8.345  13.828
45346W        W17661   8.719   7.258  11.456
45347W        W17662  22.661  29.660   4.640
45348W        W17663  30.120   8.392  10.998
45349W        W17664  33.097  16.139  12.085
45350W        W17665   0.351  22.524  13.500
45351W        W17666  38.364   8.814  14.464
45352W        W17667  12.167  31.028   3.167
45353W        W17668  39.323  25.132   4.693
45354W        W17669  37.024  11.274   4.191
45355W        W17670  19.185  18.738  11.875
45356W        W17671  19.164  25.703   3.287
45357W        W17672  33.416   2.890   2.200
45358W        W17673  32.403  13.680  11.905
45359W        W17674  15.299  17.786   3.292
45360W        W17675  22.531  28.674   0.897
45361W        W17676  41.940  24.106   2.283
45362W        W17677   4.779  10.879  13.379
45363W        W17678  40.362  40.810  11.411
45364W        W17679  28.096  34.571   2.197
45365W        W17680  41.908  29.553  10.999
45366W        W17681  24.083  18.559  11.933
45367W        W17682  28.014   4.280  12.074
45368W        W17683  37.480   2.292   1.277
45369W        W17684   0.297  27.097  14.886
45370W        W17685  21.233  13.736  12.857
45371W        W17686   9.265  20.527  13.043
45372W        W17687  38.554  35.041  12.978
45373W        W17688  33.992  44.814  14.911
45374W        W17689  37.371  27.622  13.319
45375W        W17690  44.992  30.029  13.982
45376W        W17691  22.141   7.377   0.856
45377W        W17692  23.207  27.568  14.867
45378W        W17693   8.667   5.379  12.403
45379W        W17694  32.107  12.814  12.978
45380W        W17695  28.107  25.683  12.871
45381W        W17696  21.609  29.156  12.995
45382W        W17697  28.157  40.533  14.381
45383W        W17698  31.518   7.297  11.527
45384W        W17699  39.412   1.302   2.788
45385W        W17700  13.254  31.034  12.571
45386W        W17701  29.051  24.230  14.919
45387W        W17702  22.607  19.612  12.385
45388W        W17703  33.886  26.006  14.286
45389W        W17704   3.326  25.639  12.957
45390W        W17705  20.762  15.707   3.310
45391W        W17706  19.602  38.992  13.537
45392W        W17707  14.775   2.437   2.674
45393W        W17708  20.085   4.835  13.519
45394W        W17709  11.713   0.759   4.691
45395W        W17710  31.560  41.314   3.685
45396W        W17711  13.660  23.632   2.375
45397W        W17712  17.688  32.596   1.315
45398W        W17713  12.662  31.549   1.409
45399W        W17714  13.749  26.471  11.904
45400W        W17715  18.768  16.111   2.369
45401W        W17716   3.265  43.515   1.312
45402W        W17717  17.796  11.154   0.901
45403W        W17718   6.877   1.435  11.029
45404W        W17719  26.161   3.224   1.450
45405W        W17720  40.845  19.570   1.375
45406W        W17721  12.219  33.406  12.880
45407W        W17722  27.126  20.735  12.561
45408W        W17723  44.370  22.249   3.246
45409W        W17724  35.042  28.557  10.577
45410W        W17725   2.815  21.124  11.936
45411W        W17726  20.175  37.981  11.575
45412W        W17727  42.784   0.843   2.271
45413W        W17728  20.268  38.009   2.768
45414W        W17729  24.657  38.970  11.612
45415W        W17730  41.469  22.703   4.243
45416W        W17731  36.949  36.983   4.212
45417W        W17732   0.265  28.447   1.885
45418W        W17733  20.106  26.012  12.881
45419W        W17734  21.017  23.109  14.834
45420W        W17735  10.747  31.404   4.164
45421W        W17736   3.439  20.712  14.016
45422W        W17737   5.231  34.563  11.516
45423W        W17738  37.926  29.942   2.205
45424W        W17739  32.035   5.320   2.746
45425W        W17740  21.668  38.956  11.477
45426W        W17741   4.309   0.448   2.847
45427W        W17742   4.831  31.000  12.091
45428W        W17743  35.970  36.592  12.851
45429W        W17744  35.055  41.303   3.155
45430W        W17745  23.702  15.701  12.879
45431W        W17746   0.440   4.775   4.722
45432W        W17747  26.459  38.974   3.829
45433W        W17748  41.797  25.498  10.603
45434W        W17749  32.631   7.240  14.893
45435W        W17750  40.028   8.366  12.880
45436W        W17751  29.024   7.712  14.376
45437W        W17752  19.267  23.547   4.352
45438W        W17753  16.240  33.915   4.147
45439W        W17754   7.832  24.027   2.284
45440W        W17755  28.619  24.192  12.353
45441W        W17756  29.168  44.284   4.311
45442W        W17757  22.612  41.951   3.238
45443W        W17758  41.443  38.992  14.352
45444W        W17759  35.102  30.142  14.833
45445W        W17760  15.752   6.700  14.859
45446W        W17761   3.741  17.213   4.685
45447W        W17762  42.946  42.956  12.954
45448W        W17763  19.148   3.797   4.147
45449W        W17764  41.791  42.024   2.377
45450W        W17765  23.706   7.231  12.381
45451W        W17766   8.899  19.720   1.927
45452W        W17767  14.805  30.457  14.846
45453W        W17768  19.632   3.771  11.474
45454W        W17769  17.194  29.641   3.681
45455W        W17770  38.509  19.593   3.763
45456W        W17771  40.987  37.582   3.186
45457W        W17772  31.035   7.316  11.469
45458W        W17773  19.226  21.574   1.402
45459W        W17774   9.813   7.180   2.736
45460W        W17775   4.421  23.641  11.488
45461W        W17776  36.515  28.436  12.553
45462W        W17777  21.670  27.496   1.697
45463W        W17778  40.383  42.361   0.727
45464W        W17779  38.884  22.738  14.836
45465W        W17780  42.808  15.776   3.703
45466W        W17781  40.417  37.416  14.816
45467W        W17782  14.299   1.483   4.691
45468W        W17783  25.623  29.496  10.985
45469W        W17784   9.272  23.554   2.370
45470W        W17785  24.025  13.333  11.061
45471W        W17786  19.110  20.136  11.000
45472W        W17787  35.590  23.581  12.457
45473W        W17788  38.022   1.469  12.387
45474W        W17789  38.379   0.401  12.372
45475W        W17790  18.546  12.677   9.953
45476W        W17791  42.369   1.429   4.213
45477W        W17792  25.107   8.808   0.358
45478W        W17793  11.210  33.382   2.339
45479W        W17794  27.127  10.223  11.480
45480W        W17795  20.534  37.423  12.421
45481W        W17796  26.126   0.924   2.662
45482W        W17797  30.927  38.501   4.778
45483W        W17798  31.436   6.297   3.729
45484W        W17799  37.042  35.467   2.413
45485W        W17800  37.849  29.046   0.294
45486W        W17801  32.596   3.777   4.149
45487W        W17802  10.335  32.441   3.383
45488W        W17803   1.384  11.226  11.123
45489W        W17804  41.925   8.198  11.100
45490W        W17805  20.238  29.427  11.583
45491W        W17806  42.478  43.341  10.417
45492W        W17807  14.721   9.767  12.055
45493W        W17808  41.393  42.325   1.724
45494W        W17809  23.039  16.596  12.988
45495W        W17810  24.973  22.180   2.714
45496W        W17811   7.721  12.726  12.434
45497W        W17812  40.473   4.704   2.735
45498W        W17813  23.184  13.132   2.722
45499W        W17814  19.124  37.873  14.840
45500W        W17815   3.310   4.787   4.777
45501W        W17816  33.018   4.866   0.908
45502W        W17817  41.363   2.457  12.499
45503W        W17818  16.082  40.308   5.314
45504W        W17819   3.281  11.296   2.677
45505W        W17820   0.363  27.544  11.943
45506W        W17821  35.991  21.096  10.903
45507W        W17822   9.191  15.821   2.743
45508W        W17823  43.932  18.238   0.794
45509W        W17824  29.553  34.049   0.471
45510W        W17825  18.663  32.061  14.847
45511W        W17826  42.029  19.659  12.364
45512W        W17827  19.535  15.146   4.237
45513W        W17828  25.089  24.698  13.060
45514W        W17829  27.071  25.660  12.404
45515W        W17830   4.705   0.894  11.492
45516W        W17831  44.823  44.966  11.441
45517W        W17832  23.690  21.140  12.825
45518W        W17833   8.312  18.202   0.844
45519W        W17834   3.949  34.532  14.283
45520W        W17835  19.134  32.119  13.514
45521W        W17836  33.496  40.333   0.251
45522W        W17837  41.515  44.886  11.121
45523W        W17838  34.011   2.883  11.941
45524W        W17839   1.435   3.303  13.978
45525W        W17840  41.927  31.071   3.797
45526W        W17841  32.112  17.718  10.932
45527W        W17842  15.182  24.710  12.404
45528W        W17843  26.548  35.887   2.705
45529W        W17844  11.353  12.805  13.905
45530W        W17845  31.607   2.430   3.361
45531W        W17846   5.868  22.646   3.231
45532W        W17847  32.037  30.152   1.934
45533W        W17848  20.273  19.697  14.904
45534W        W17849   9.751  28.631   4.283
45535W        W17850   9.722  40.999  12.900
45536W        W17851   5.427  27.943  14.373
45537W        W17852  14.275   4.739   2.700
45538W        W17853  44.462  16.114   0.812
45539W        W17854  26.652  26.584   0.941
45540W        W17855  10.859  14.112   2.690
45541W        W17856  37.978  37.356  14.354
45542W        W17857  16.607   9.293  12.947
45543W        W17858  34.568  27.601   3.653
45544W        W17859  31.101  20.226  14.466
45545W        W17860   2.280  30.549   5.231
45546W        W17861  16.175  25.686   3.286
45547W        W17862  20.764  27.558  12.495
45548W        W17863  41.811  12.116   3.777
45549W        W17864   5.236   2.406  11.554
45550W        W17865  17.728  33.587  12.917
45551W        W17866  11.751  27.044   3.667
45552W        W17867   1.304  32.009  14.799
45553W        W17868  20.530  20.715   4.789
45554W        W17869  25.123  26.104  14.919
45555W        W17870  33.113  42.444  14.860
45556W        W17871  31.933  27.504   3.244
45557W        W17872  28.007  27.111  13.831
45558W        W17873  40.808  17.717  12.864
45559W        W17874  24.189  28.014  12.996
45560W        W17875  19.553  20.630   3.371
45561W        W17876   4.800  11.189   4.325
45562W        W17877  35.055   7.188  13.514
45563W        W17878  14.137  38.917  10.951
45564W        W17879  19.555  10.665  10.106
45565W        W17880   7.231  21.703  13.493
45566W        W17881  28.594  38.520   1.221
45567W        W17882  21.072   2.728  13.372
45568W        W17883  43.794   0.354   4.253
45569W        W17884  41.357  15.709   2.871
45570W        W17885  18.113  26.081  10.522
45571W        W17886  43.949  25.711   4.819
45572W        W17887   0.979   7.405   0.469
45573W        W17888   0.375  25.629   3.804
45574W        W17889  23.689  38.046  14.912
45575W        W17890  20.741  18.171   4.235
45576W        W17891  13.131  33.130  14.896
45577W        W17892  18.566  29.129  13.851
45578W        W17893   6.777  34.884   0.882
45579W        W17894  33.575  38.386  11.118
45580W        W17895  17.790  24.549   0.778
45581W        W17896  19.257  31.955   0.288
45582W        W17897  32.604   1.851  14.012
45583W        W17898  28.171  43.901   2.258
45584W        W17899  37.513  13.628  14.011
45585W        W17900  26.184  32.417   0.460
45586W        W17901  39.979   2.340   0.426
45587W        W17902  24.580   3.435   3.295
45588W        W17903  42.960  36.849   1.704
45589W        W17904  15.757  19.624   3.275
45590W        W17905  22.702  31.974   2.253
45591W        W17906   0.858  32.901  13.984
45592W        W17907   2.430  31.427  10.420
45593W        W17908  42.348  33.033   0.372
45594W        W17909  15.622  16.583  14.278
45595W        W17910  11.704  35.910   5.246
45596W        W17911  39.476  26.199   4.697
45597W        W17912  20.766  27.562  14.494
45598W        W17913  15.206   5.274  12.354
45599W        W17914  36.428  41.363  11.580
45600W        W17915  14.749  29.572  12.010
45601W        W17916   1.265   5.219   2.895
45602W        W17917   5.344  27.178   4.273
45603W        W17918  41.492  39.460  10.441
45604W        W17919  20.562   9.734   1.909
45605W        W17920  22.170  40.331  11.000
45606W        W17921  18.627  40.945  10.412
45607W        W17922  10.384  19.283   3.168
45608W        W17923   5.368  16.131  10.555
45609W        W17924   3.742   9.676  11.923
45610W        W17925   9.259  38.033   4.284
45611W        W17926  16.301  30.980  10.629
45612W        W17927  35.108  21.565   3.384
45613W        W17928  19.041  43.488   3.817
45614W        W17929  10.383  22.124  11.003
45615W        W17930  38.956  11.800   5.304
45616W        W17931  26.006  30.923  11.922
45617W        W17932  11.300  16.238   3.254
45618W        W17933   1.876  35.014   1.255
45619W        W17934  25.679  14.192  12.013
45620W        W17935   7.411   9.690   2.335
45621W        W17936   1.941  28.094   0.384
45622W        W17937  20.564   1.824  10.441
45623W        W17938  30.591  14.135  14.786
45624W        W17939  44.959  16.662   3.286
45625W        W17940   7.749   5.734  14.375
45626W        W17941  12.223  11.815   4.304
45627W        W17942  11.683  15.243  14.929
45628W        W17943  38.517  37.451  14.024
45629W        W17944  35.474  29.998   3.635
45630W        W17945  16.187  22.095  13.829
45631W        W17946  38.835   1.892  13.905
45632W        W17947  12.677  15.112  14.931
45633W        W17948   3.820   8.747  10.456
45634W        W17949  30.094  43.282   0.866
45635W        W17950  20.078  29.478   2.665
45636W        W17951  32.065  17.100   4.290
45637W        W17952  39.022   9.387  14.439
45638W        W17953  34.484  37.960  12.857
45639W        W17954   5.851  15.658   0.916
45640W        W17955   1.956   5.206   0.952
45641W        W17956  13.818  38.894   1.370
45642W        W17957  44.873  24.132   4.683
45643W        W17958   4.814  15.780  13.046
45644W        W17959   1.963  33.608  14.940
45645W        W17960  35.530  32.527  13.338
45646W        W17961  34.571  43.448   2.263
45647W        W17962  44.415   3.333  14.852
45648W        W17963  29.549  20.224  13.868
45649W        W17964  23.241   8.365  14.972
45650W        W17965   2.874   9.302  14.941
45651W        W17966  44.913  36.507   4.750
45652W        W17967   8.882  32.927  14.030
45653W        W17968  36.907   1.445   2.381
45654W        W17969  22.088  10.138  11.932
45655W        W17970  34.057  15.697  11.962
45656W        W17971  39.017  18.788  14.286
45657W        W17972   2.789   0.974   1.833
45658W        W17973   2.402  29.115   1.696
45659W        W17974  30.640  13.129   1.242
45660W        W17975   4.843  29.652  12.001
45661W        W17976  39.357  28.974   1.771
45662W        W17977  15.176  31.463  13.335
45663W        W17978  31.624  40.441   2.418
45664W        W17979  10.221   1.748   4.817
45665W        W17980  44.311  32.451  14.425
45666W        W17981  33.986  26.057  13.503
45667W        W17982  43.418  12.829   2.387
45668W        W17983  25.505   7.910   4.758
45669W        W17984   1.769  25.567  12.876
45670W        W17985  30.533   1.789  12.039
45671W        W17986  11.793   7.312  10.033
45672W        W17987  12.298  41.349  12.555
45673W        W17988  23.551  38.974   0.286
45674W        W17989  44.995  11.262   1.239
45675W        W17990  36.977  19.186  11.458
45676W        W17991  10.636  43.982  11.034
45677W        W17992  35.915  44.308  13.841
45678W        W17993  37.956  16.745   1.377
45679W        W17994  26.579  35.979  14.931
45680W        W17995  13.812   1.277   4.168
45681W        W17996  41.996  42.306  11.885
45682W        W17997   4.277  11.770  10.908
45683W        W17998  15.728  26.612  10.014
45684W        W17999  34.988  28.038   5.178
45685W        W18000   2.724  11.292  13.460
45686W        W18001   0.257  14.289  14.341
45687W        W18002  34.564  42.448  14.923
45688W        W18003  37.985   5.780  12.851
45689W        W18004  38.835  29.631   3.839
45690W        W18005  42.974  29.533   0.251
45691W        W18006  21.204  42.498   0.934
45692W        W18007   7.700  33.033  12.893
45693W        W18008   6.844  16.760   2.876
45694W        W18009  34.390  29.925  10.613
45695W        W18010   6.220  21.123  13.416
45696W        W18011  17.154  36.850   4.834
45697W        W18012  10.796  24.025  11.505
45698W        W18013  36.428  20.745  13.047
45699W        W18014  23.576  44.792  12.027
45700W        W18015  21.044   6.302   1.371
45701W        W18016  34.398  16.125  13.374
45702W        W18017   7.256  12.702   3.801
45703W        W18018  19.668  17.091  12.377
45704W        W18019  44.786  23.108  14.414
45705W        W18020  26.660  21.017  14.283
45706W        W18021  27.100  12.347  11.498
45707W        W18022  23.148  17.736   2.840
45708W        W18023   1.788   8.690   0.396
45709W        W18024   4.793   5.345   2.297
45710W        W18025  43.443  40.904  11.492
45711W        W18026  20.065   1.825  13.870
45712W        W18027  35.514  23.120  14.876
45713W        W18028   1.905  42.895   2.338
45714W        W18029  42.791  22.211   0.911
45715W        W18030  23.643  44.998  12.965
45716W        W18031  37.084  11.724   3.283
45717W        W18032  38.003   8.774   1.218
45718W        W18033   9.156  18.113   5.281
45719W        W18034  32.969  31.093  12.964
45720W        W18035   2.834  36.401  12.362
45721W        W18036   8.232  17.255  11.398
45722W        W18037  22.607  42.455   2.744
45723W        W18038  40.976  27.574  13.845
45724W        W18039  13.328  25.561   3.722
45725W        W18040  37.442   1.885  13.061
45726W        W18041  17.299  12.319  10.984
45727W        W18042  39.525  26.170   0.762
45728W        W18043  37.987  33.076   2.898
45729W        W18044  35.057  41.459   4.143
45730W        W18045   2.342  20.633  12.415
45731W        W18046   4.755  36.373   2.783
45732W        W18047  27.480  35.585   2.189
45733W        W18048  29.617  41.830   4.342
45734W        W18049  27.026   7.702   2.399
45735W        W18050  27.499   9.375  14.028
45736W        W18051  18.178  14.811   2.689
45737W        W18052  20.686  27.664   4.790
45738W        W18053  33.389  10.375   1.223
45739W        W18054  23.121  11.278   4.225
45740W        W18055   5.361   2.457   2.838
45741W        W18056   6.333  37.518   3.159
45742W        W18057  25.518  15.212  10.529
45743W        W18058   4.781   3.867   4.310
45744W        W18059  40.466  17.294  13.446
45745W        W18060  32.024   2.933  12.450
45746W        W18061  25.017  24.582   3.377
45747W        W18062  40.361  13.272  14.289
45748W        W18063  19.143  42.800  14.378
45749W        W18064  32.139  24.703   3.218
45750W        W18065   5.195  31.924  14.776
45751W        W18066   8.397  16.081   2.816
45752W        W18067  35.976  42.319  10.905
45753W        W18068  27.015  38.923   3.201
45754W        W18069  27.063  30.026   0.425
45755W        W18070  35.597   0.409  13.795
45756W        W18071  32.051  14.665   4.805
45757W        W18072  17.225  40.920  10.458
45758W        W18073  24.120  26.632   0.891
45759W        W18074  28.166   9.225  12.478
45760W        W18075  24.630   5.769   4.643
45761W        W18076  39.849  42.864   1.397
45762W        W18077   3.813  19.569  11.865
45763W        W18078   3.903  39.364   0.863
45764W        W18079   1.850  24.589  11.444
45765W        W18080   0.419   8.285   2.280
45766W        W18081   8.874   7.191   2.767
45767W        W18082   2.737  24.493  12.840
45768W        W18083  31.535   5.788  12.511
45769W        W18084  16.299  11.350   0.801
45770W        W18085  31.500   3.712   2.290
45771W        W18086  23.685  15.165  12.991
45772W        W18087  44.447  40.925  14.304
45773W        W18088   1.416  15.195   4.818
45774W        W18089   5.269  12.346  10.580
45775W        W18090  13.833  12.149   2.870
45776W        W18091  13.156  43.881  14.941
45777W        W18092  33.006  42.417  11.568
45778W        W18093  19.093  17.173   3.810
45779W        W18094  36.462   1.844  13.816
45780W        W18095   5.338  14.656   4.792
45781W        W18096  43.018  14.621  11.602
45782W        W18097  22.045  10.679   4.348
45783W        W18098  33.995  16.111   2.239
45784W        W18099  43.819  41.898   2.304
45785W        W18100  15.798  24.694   0.938
45786W        W18101  38.828  22.506  11.923
45787W        W18102  16.810  18.633  11.959
45788W        W18103  37.971  12.782  12.024
45789W        W18104  36.458   2.445   2.743
45790W        W18105  17.631   1.475   0.287
45791W        W18106  22.618  40.947  11.079
45792W        W18107  26.100   0.756   0.477
45793W        W18108  37.427  16.594   2.726
45794W        W18109  14.115   5.293  14.382
45795W        W18110  39.897   7.246   0.836
45796W        W18111   0.876  18.167  14.901
45797W        W18112  17.576  24.704   1.931
45798W        W18113   9.311  18.064  13.937
45799W        W18114   6.364   4.739   9.995
45800W        W18115  15.814  12.675   4.309
45801W        W18116  40.914  43.930   4.132
45802W        W18117   1.274  19.742  12.090
45803W        W18118  10.247  31.050   4.285
45804W        W18119  23.666  24.196   4.181
45805W        W18120   0.772  23.509   3.812
45806W        W18121  32.483  28.978  11.092
45807W        W18122  21.262  26.083   3.177
45808W        W18123  30.477  34.033  10.490
45809W        W18124  36.903  33.918  12.014
45810W        W18125  12.755  35.908   0.249
45811W        W18126  38.825  10.642  11.483
45812W        W18127  19.555   5.764   0.379
45813W        W18128  12.238  39.874   0.864
45814W        W18129  32.619   7.754   2.725
45815W        W18130  16.611  43.898  10.544
45816W        W18131  31.964  10.323  13.025
45817W        W18132  30.451  34.895  12.498
45818W        W18133   5.902  41.533  12.377
45819W        W18134  19.158  38.332   0.341
45820W        W18135   3.338  29.067   1.699
45821W        W18136  20.718   0.756  12.473
45822W        W18137   3.809  12.273   4.669
45823W        W18138  23.993  41.803   4.792
45824W        W18139  44.754  21.632  10.522
45825W        W18140  14.326  43.944   4.346
45826W        W18141  42.788  29.592   5.232
45827W        W18142  39.539  32.594   4.145
45828W        W18143  15.790   4.929  12.430
45829W        W18144  33.616  41.518   1.717
45830W        W18145   4.310   2.455   0.450
45831W        W18146  28.930  28.565  14.473
45832W        W18147  14.255  37.416   1.874
45833W        W18148   9.692  38.957   1.286
45834W        W18149  20.224   8.239   3.209
45835W        W18150  34.953  33.584  11.876
45836W        W18151  22.690   8.686  10.634
45837W        W18152  12.620  25.977  13.458
45838W        W18153  23.651   8.874  12.948
45839W        W18154  39.440  32.985   0.909
45840W        W18155   1.731  31.136   2.276
45841W        W18156   0.264  14.296   0.793
45842W        W18157  38.922   6.354   2.689
45843W        W18158  30.486  15.789  11.985
45844W        W18159   0.304  26.033   3.706
45845W        W18160  13.287  40.507   2.316
45846W        W18161  42.914  29.959   4.692
45847W        W18162  29.963   4.729   2.194
45848W        W18163  29.455  32.004  12.081
45849W        W18164   6.874  20.259  12.484
45850W        W18165  28.483  10.292   4.744
45851W        W18166  36.413  11.700  11.871
45852W        W18167  17.610   3.904  11.896
45853W        W18168  41.520  19.740  14.299
45854W        W18169  29.597  40.838   1.785
45855W        W18170  22.521   3.883   3.147
45856W        W18171  17.214  39.471  11.052
45857W        W18172  11.199  38.417  14.481
45858W        W18173   3.240  22.118  12.997
45859W        W18174   2.289  42.956   2.293
45860W        W18175  12.680  35.430  12.345
45861W        W18176  36.379  26.548   5.108
45862W        W18177  25.708  38.072  13.369
45863W        W18178  28.590  36.968   4.758
45864W        W18179  25.086   0.357   3.766
45865W        W18180  32.920  41.929  14.449
45866W        W18181  23.197  15.663  13.482
45867W        W18182   9.246  23.628   0.884
45868W        W18183  14.165  44.757   0.886
45869W        W18184  14.207  19.666   1.436
45870W        W18185  29.437  23.028  14.847
45871W        W18186  27.966  16.196  10.894
45872W        W18187  23.660  25.509  13.029
45873W        W18188   0.250   4.720   2.671
45874W        W18189  14.792  23.197  13.393
45875W        W18190  22.575  40.422   1.749
45876W        W18191  13.342  43.884  14.382
45877W        W18192   2.244   4.886   0.728
45878W        W18193   0.408   8.893  13.373
45879W        W18194  35.519  20.084   4.783
45880W        W18195  10.249  20.746   2.758
45881W        W18196  34.484   9.215   0.959
45882W        W18197  29.449  38.029   1.253
45883W        W18198  14.321  44.436   0.949
45884W        W18199  27.539  33.029  12.465
45885W        W18200   7.698  35.950   1.921
45886W        W18201  12.817  24.986   3.841
45887W        W18202  36.459   9.317   2.385
45888W        W18203  32.093  43.443  13.345
45889W        W18204  39.033  15.722  10.925
45890W        W18205  32.943  35.449  11.090
45891W        W18206   2.836  23.614   2.762
45892W        W18207  16.793  34.899   0.859
45893W        W18208   2.875  32.634  14.451
45894W        W18209   8.893  18.773  13.519
45895W        W18210  31.996  24.121  13.377
45896W        W18211  16.153  39.421   3.631
45897W        W18212  18.157  13.639   2.404
45898W        W18213  14.602  34.463  10.471
45899W        W18214  35.871  20.701  12.826
45900W        W18215  44.874  12.854   2.669
45901W        W18216  27.509  38.952   0.256
45902W        W18217  15.730  23.547  10.444
45903W        W18218  34.928   6.757   3.346
45904W        W18219  34.380  44.932   1.246
45905W        W18220  40.474  25.609   4.268
45906W        W18221   6.678  26.967   1.882
45907W        W18222   0.277  15.789   4.284
45908W        W18223   0.906  15.820  10.501
45909W        W18224  24.097  40.876  11.924
45910W        W18225  30.035  27.638  14.021
45911W        W18226  26.201  18.675  11.372
45912W        W18227   5.373  17.741   3.321
45913W        W18228  27.129  23.056  13.462
45914W        W18229  14.094   6.332   1.872
45915W        W18230  23.638  22.160  11.967
45916W        W18231  28.551  11.827  11.972
45917W        W18232  17.120   8.239  13.397
45918W        W18233  24.114   5.700  14.506
45919W        W18234  37.861   1.270   4.836
45920W        W18235  17.195   1.256  13.980
45921W        W18236  33.592  27.641   0.757
45922W        W18237  35.071  11.808  10.546
45923W        W18238  23.491  10.762  10.939
45924W        W18239  32.993  13.746  10.945
45925W        W18240   9.789  18.757  12.839
45926W        W18241  30.138   5.868   4.717
45927W        W18242  29.566  33.077   3.738
45928W        W18243  44.839   1.792  11.549
45929W        W18244   3.284  37.050   3.160
45930W        W18245  38.389  17.090  13.803
45931W        W18246  38.451  11.863  12.483
45932W        W18247  28.676   2.457   0.920
45933W        W18248  34.427  33.010  14.774
45934W        W18249  11.211  26.582  11.378
45935W        W18250  41.305  10.328   0.862
45936W        W18251  27.083   3.280   0.889
45937W        W18252  19.773  29.543   5.115
45938W        W18253   6.328   8.794  11.387
45939W        W18254   3.729  10.177  10.996
45940W        W18255   2.921  44.374   4.114
45941W        W18256   5.717  34.486  11.490
45942W        W18257  39.881  20.106  12.892
45943W        W18258  26.532  22.507  12.957
45944W        W18259  39.518  26.486  10.078
45945W        W18260  19.558  41.895  14.460
45946W        W18261  33.914  12.319   2.862
45947W        W18262   0.762  31.521  11.385
45948W        W18263   3.391  30.124   2.198
45949W        W18264  23.058   5.215   3.824
45950W        W18265  21.107   6.706   1.803
45951W        W18266  27.675  43.504   1.234
45952W        W18267  44.850   5.890  11.087
45953W        W18268  15.148  22.160  10.476
45954W        W18269  41.934   6.360   3.206
45955W        W18270  28.992  40.381   0.272
45956W        W18271  14.666  44.289   0.363
45957W        W18272  34.946  39.351   0.760
45958W        W18273   9.725  37.940   0.286
45959W        W18274  43.946  25.112  12.930
45960W        W18275   6.353  10.285  12.029
45961W        W18276  14.675  19.545   3.265
45962W        W18277  30.461  34.899   0.878
45963W        W18278  33.528   4.940   4.807
45964W        W18279  44.959  36.054  11.934
45965W        W18280  43.839  20.662   3.174
45966W        W18281  39.814  28.679   3.250
45967W        W18282   0.771   4.751  12.550
45968W        W18283  17.220  21.736  13.529
45969W        W18284  11.826   2.447   4.304
45970W        W18285  21.674  32.064  13.968
45971W        W18286  43.965  14.787   3.331
45972W        W18287  11.811  41.923  12.950
45973W        W18288  37.889   1.836  13.959
45974W        W18289   9.382   4.326   1.377
45975W        W18290  29.142   4.355   2.899
45976W        W18291   1.854   7.231   0.477
45977W        W18292  22.232  22.123   5.621
45978W        W18293  43.464   0.816  14.494
45979W        W18294  31.094  29.079   1.845
45980W        W18295  44.853  41.325  13.926
45981W        W18296  21.034  34.391  13.350
45982W        W18297  28.041  14.720   0.828
45983W        W18298  41.845  17.639  13.441
45984W        W18299   5.353  27.647  11.601
45985W        W18300  22.642   3.833  11.116
45986W        W18301  21.688  30.468  12.884
45987W        W18302  43.985  26.643   4.681
45988W        W18303  34.945  34.914   2.386
45989W        W18304   9.755  34.536  14.839
45990W        W18305   0.817  36.398  13.422
45991W        W18306  37.390  11.127  12.517
45992W        W18307   9.322  16.604  11.962
45993W        W18308  17.694   8.345  10.542
45994W        W18309  13.702  24.988   3.298
45995W        W18310  42.483  40.983  11.382
45996W        W18311  44.474  38.869   3.768
45997W        W18312  34.600  26.188   4.147
45998W        W18313  15.262  26.197   1.378
45999W        W18314   4.377  28.522  14.923
46000W        W18315   8.805  18.132  10.931
46001W        W18316  20.649  22.115   0.893
46002W        W18317  41.418  28.163   4.282
46003W        W18318   0.768  35.917   5.205
46004W        W18319   8.756  11.290   4.230
46005W        W18320   2.408  13.218   2.208
46006W        W18321   6.374  15.131   1.370
46007W        W18322   5.296   2.818  10.544
46008W        W18323   5.877   0.785   2.740
46009W        W18324  20.616   1.266   3.277
46010W        W18325  23.679  15.224   4.230
46011W        W18326  33.046  15.159  11.576
46012W        W18327  37.394  18.056  13.391
46013W        W18328  22.585  20.088   4.327
46014W        W18329  17.137  34.522   3.209
46015W        W18330  31.039  15.232  12.447
46016W        W18331  30.033   2.269  11.963
46017W        W18332  31.430  13.153  14.908
46018W        W18333  10.246   6.192   0.801
46019W        W18334  30.968   4.894  11.928
46020W        W18335  35.908   4.845  12.900
46021W        W18336  33.597  22.733  13.357
46022W        W18337  24.520  31.484   4.239
46023W        W18338  22.054  31.473   2.757
46024W        W18339  31.126  44.996  10.896
46025W        W18340  11.713  40.977  12.092
46026W        W18341  43.491  13.331   4.809
46027W        W18342  21.253  19.767  11.035
46028W        W18343   6.427  22.129  10.962
46029W        W18344  24.679  31.505  14.889
46030W        W18345   2.330  12.162  10.611
46031W        W18346  23.242  26.628  13.929
46032W        W18347   2.924  32.137  12.553
46033W        W18348  22.156  37.354   0.726
46034W        W18349  39.460  22.536  13.054
46035W        W18350   8.278  36.418  14.893
46036W        W18351  44.451   4.824  10.570
46037W        W18352  12.159  27.138   2.901
46038W        W18353  11.777  42.286  12.891
46039W        W18354   0.821   4.756   1.315
46040W        W18355  40.011   9.373  11.450
46041W        W18356   7.270  38.044  14.812
46042W        W18357  29.034  15.632   3.696
46043W        W18358  29.661  21.679  14.281
46044W        W18359   4.229  38.871  13.339
46045W        W18360  42.999  13.220  12.886
46046W        W18361  22.089   9.690   1.825
46047W        W18362  10.163   8.812   1.773
46048W        W18363  26.104   5.828   5.107
46049W        W18364  15.587  21.707   3.635
46050W        W18365  13.273   8.835  13.982
46051W        W18366   5.749  17.654  13.487
46052W        W18367  22.155   9.226  11.991
46053W        W18368  26.518  28.083   3.862
46054W        W18369  24.083  43.512  10.425
46055W        W18370  43.845   2.356  11.094
46056W        W18371   2.329   3.369   5.289
46057W        W18372  26.038  18.712   3.762
46058W        W18373  19.279  41.524  11.610
46059W        W18374  18.582  13.842   0.271
46060W        W18375  15.758   3.216  14.449
46061W        W18376  38.415  28.125  14.360
46062W        W18377  23.034  28.609   4.655
46063W        W18378  43.010  37.000   0.381
46064W        W18379  16.081  36.038   2.839
46065W        W18380  25.479  32.473   2.348
46066W        W18381  19.043  14.828  11.016
46067W        W18382   1.340  44.810   4.835
46068W        W18383   2.381  37.407  14.312
46069W        W18384  23.143  44.913  10.624
46070W        W18385  23.590  13.647   0.281
46071W        W18386  19.539  33.439  11.428
46072W        W18387  17.220  42.992   0.738
46073W        W18388  16.306  20.178   0.444
46074W        W18389  39.998  15.279  11.058
46075W        W18390  25.142  25.039   4.798
46076W        W18391  25.503  12.726  10.907
46077W        W18392  38.893   6.236  13.355
46078W        W18393   8.795   4.945  12.998
46079W        W18394  33.997  12.243   4.295
46080W        W18395  19.709  30.468   3.222
46081W        W18396   1.302  17.673   4.316
46082W        W18397  18.737  37.925  13.836
46083W        W18398  32.988  31.470   1.706
46084W        W18399  43.020  26.623  14.787
46085W        W18400  38.908  15.675  12.560
46086W        W18401  24.602  16.722   2.702
46087W        W18402  31.127   9.707  14.279
46088W        W18403   9.228  40.032  13.846
46089W        W18404  29.595   7.281  14.797
46090W        W18405  39.414  24.198  12.966
46091W        W18406   3.223  20.572   0.259
46092W        W18407  42.996   6.303   1.806
46093W        W18408  27.039   7.672  10.134
46094W        W18409  41.311  33.587   2.809
46095W        W18410  27.597  10.790  12.913
46096W        W18411  39.811  32.131  14.836
46097W        W18412  38.437   4.234   0.243
46098W        W18413  10.150  14.122  14.952
46099W        W18414   8.732  44.811  10.560
46100W        W18415  31.437  10.283  14.778
46101W        W18416  28.479  19.756  11.379
46102W        W18417   3.790  23.612   2.778
46103W        W18418   0.836  10.711   3.632
46104W        W18419  42.973  34.579  10.909
46105W        W18420  43.406  36.844  10.599
46106W        W18421   1.806  11.722   1.266
46107W        W18422  14.809  38.964   0.963
46108W        W18423  24.618  11.674   2.888
46109W        W18424  14.246  31.462  12.894
46110W        W18425  36.483   9.733   1.848
46111W        W18426  28.159  28.104  13.365
46112W        W18427  30.907  15.684  10.081
46113W        W18428  15.184  25.529   3.712
46114W        W18429  18.061  12.330   4.681
46115W        W18430  17.134  44.370   1.857
46116W        W18431   1.853  26.081  13.498
46117W        W18432   4.799  22.702   4.749
46118W        W18433  32.589  14.720  14.312
46119W        W18434  32.905  26.592  13.859
46120W        W18435  27.983  16.799  13.324
46121W        W18436   7.321  30.419   3.275
46122W        W18437   8.343  40.829  14.390
46123W        W18438  35.900  16.760  10.607
46124W        W18439   6.236  17.189  12.988
46125W        W18440  43.463  23.069  11.047
46126W        W18441   2.915   3.735   4.266
46127W        W18442  29.458  18.093   0.797
46128W        W18443  31.981  21.555  14.849
46129W        W18444  19.123  41.814  13.951
46130W        W18445  27.555  29.095  11.970
46131W        W18446  28.457  25.042  12.543
46132W        W18447   3.386  13.231   1.849
46133W        W18448  24.999   3.235  13.445
46134W        W18449  15.159  40.409  12.026
46135W        W18450  33.436  30.095   2.699
46136W        W18451  22.660   0.819   3.816
46137W        W18452  28.543  14.258  11.986
46138W        W18453   3.845   7.909  13.026
46139W        W18454   3.793   7.776  10.575
46140W        W18455  16.232  10.735   4.774
46141W        W18456  16.210  27.182   0.386
46142W        W18457   8.766  33.518   3.797
46143W        W18458  20.704   8.767   9.521
46144W        W18459   3.936  14.223  12.829
46145W        W18460  27.173  32.080  14.421
46146W        W18461  22.115  16.143   4.294
46147W        W18462  29.470  14.779   3.656
46148W        W18463  19.185   7.191   1.851
46149W        W18464  24.018  29.166  11.417
46150W        W18465   8.667   6.362  11.080
46151W        W18466  38.889  44.774   3.212
46152W        W18467   0.315   9.786  13.836
46153W        W18468  37.462   0.882   4.795
46154W        W18469  16.785   5.362  11.429
46155W        W18470  12.150  18.551   1.890
46156W        W18471  24.669  10.840  10.417
46157W        W18472   8.828   4.857  11.000
46158W        W18473  23.127  30.484   3.843
46159W        W18474   9.250   1.899   5.167
46160W        W18475  15.688   7.230   4.782
46161W        W18476  16.607  24.091   1.319
46162W        W18477  40.372  40.313   0.854
46163W        W18478  27.655   2.282   3.175
46164W        W18479  23.990   4.861  10.958
46165W        W18480  26.085  40.961  14.007
46166W        W18481   0.882  28.590  10.924
46167W        W18482  39.982  23.072  10.906
46168W        W18483  17.664   6.229  14.988
46169W        W18484  23.585   4.310   3.236
46170W        W18485  24.652  14.287  11.872
46171W        W18486  31.540  20.555  12.038
46172W        W18487  38.494  13.688   4.808
46173W        W18488  44.769  37.522  11.567
46174W        W18489  22.706  39.401   4.251
46175W        W18490  14.146  23.665  10.552
46176W        W18491   3.313  31.441   1.241
46177W        W18492  17.778  35.406   4.201
46178W        W18493  31.486   1.866  11.887
46179W        W18494  39.938  10.318   4.142
46180W        W18495  44.838  34.430  10.896
46181W        W18496  31.551  11.133  10.458
46182W        W18497  28.053  10.192  13.492
46183W        W18498  17.774  37.961   5.678
46184W        W18499  44.800  35.877   2.689
46185W        W18500  10.877  12.139   2.182
46186W        W18501  26.981  17.240   2.875
46187W        W18502  36.925  33.560  13.992
46188W        W18503  21.114   7.900  14.318
46189W        W18504  20.209  18.609   0.433
46190W        W18505   9.730  19.732   1.321
46191W        W18506  41.418  18.638   0.404
46192W        W18507  11.253  36.867  10.541
46193W        W18508   7.697   9.256  14.778
46194W        W18509  13.138  16.318  13.533
46195W        W18510   4.755  11.133  14.799
46196W        W18511  19.155  25.606  13.383
46197W        W18512   2.388   2.878   4.646
46198W        W18513   2.837   0.400   4.198
46199W        W18514  21.181  19.725  13.919
46200W        W18515  24.093  21.639  10.618
46201W        W18516  39.061   1.424   0.310
46202W        W18517   6.702  26.126  13.391
46203W        W18518  13.668  16.290   4.766
46204W        W18519  39.848  12.840   0.744
46205W        W18520  24.684  12.239  11.462
46206W        W18521  13.176  12.310  11.897
46207W        W18522  19.633  27.520  13.416
46208W        W18523  19.554  22.641   0.823
46209W        W18524  22.672  12.796   3.297
46210W        W18525  32.011  26.002   2.671
46211W        W18526  24.091  14.310   1.788
46212W        W18527  30.076  16.080  13.517
46213W        W18528   8.227  44.979  13.005
46214W        W18529  13.623  22.563   0.921
46215W        W18530   2.894  37.837  14.285
46216W        W18531   9.193  26.608   4.347
46217W        W18532   5.355  15.664  10.453
46218W        W18533  16.631  35.553  12.542
46219W        W18534  40.940  26.101   0.416
46220W        W18535   6.917  29.646   3.252
46221W        W18536  12.156  24.113  14.504
46222W        W18537  24.019  35.393   1.379
46223W        W18538  40.831   4.371  10.501
46224W        W18539  12.787  34.568   1.229
46225W        W18540  43.421  39.924  11.928
46226W        W18541  41.867  23.715   2.711
46227W        W18542  39.496  14.321  14.879
46228W        W18543  34.969  39.820  14.332
46229W        W18544  12.302  28.112  10.903
46230W        W18545  41.501   2.420   0.942
46231W        W18546  24.092   7.307   4.750
46232W        W18547   0.960  38.447   1.770
46233W        W18548  27.591   4.900  13.394
46234W        W18549   8.709   2.795   1.428
46235W        W18550  11.641  25.528   1.222
46236W        W18551   1.337  38.009   2.901
46237W        W18552  41.524  26.668   4.802
46238W        W18553  21.253  33.072  13.546
46239W        W18554  33.125  34.003   2.300
46240W        W18555  23.089   1.898  13.358
46241W        W18556  22.513  17.734  14.427
46242W        W18557  44.425  13.337   5.182
46243W        W18558  40.011  10.846   2.406
46244W        W18559  12.808  33.424  10.996
46245W        W18560  22.512  44.423   3.271
46246W        W18561  39.520  20.199   4.244
46247W        W18562  19.060   5.790   0.320
46248W        W18563  27.961  15.677   2.859
46249W        W18564   6.792   8.823  12.063
46250W        W18565   1.906  41.017   4.601
46251W        W18566  34.049  39.917  11.380
46252W        W18567  30.614  28.071   0.305
46253W        W18568   1.387  44.295  13.459
46254W        W18569  41.326  33.479  13.424
46255W        W18570  15.305  33.119   4.137
46256W        W18571   4.764   0.934   1.821
46257W        W18572  13.130   6.901   4.227
46258W        W18573  29.663   5.320  10.486
46259W        W18574   4.366   6.217   2.802
46260W        W18575  19.768   4.888  13.538
46261W        W18576  32.583   8.749  10.487
46262W        W18577  28.183  36.580  14.002
46263W        W18578  30.070  22.036  14.926
46264W        W18579  20.731   7.178  10.426
46265W        W18580  10.700  14.261  11.562
46266W        W18581  43.484  34.934  13.817
46267W        W18582  30.589   3.292  13.338
46268W        W18583  40.868  11.340   4.723
46269W        W18584  13.696  30.926   4.682
46270W        W18585  26.668  27.605   0.392
46271W        W18586  18.065  22.509  12.917
46272W        W18587   5.263   3.842  13.802
46273W        W18588  31.490   3.910   0.784
46274W        W18589  41.410   4.268   3.296
46275W        W18590  31.527   5.253  14.827
46276W        W18591   5.801   5.351  13.382
46277W        W18592   1.779  39.855   4.209
46278W        W18593  10.681  26.628  10.096
46279W        W18594  42.002  18.138   0.898
46280W        W18595  23.227   4.889   0.372
46281W        W18596  21.025  42.923  10.454
46282W        W18597  20.242  24.480  14.452
46283W        W18598  32.142  44.948  13.350
46284W        W18599  17.178   7.360   0.309
46285W        W18600  41.484  11.177  11.593
46286W        W18601   2.404  32.070   1.356
46287W        W18602  13.617  12.825   3.240
46288W        W18603  11.232  38.449   2.302
46289W        W18604  23.046  24.633   0.367
46290W        W18605  27.020  33.129  11.022
46291W        W18606  41.029  26.489  11.061
46292W        W18607   9.215   8.833   2.901
46293W        W18608  38.998  44.919  14.406
46294W        W18609   6.274  25.966   2.245
46295W        W18610   3.290  38.917   4.185
46296W        W18611  23.723  26.003  14.852
46297W        W18612   9.844  18.744   3.778
46298W        W18613  43.867   1.429  14.349
46299W        W18614  23.558  25.187  12.440
46300W        W18615  25.692  30.967   2.320
46301W        W18616  20.058  25.052  13.514
46302W        W18617  16.609  30.656   3.221
46303W        W18618  21.526   9.356  10.517
46304W        W18619  42.840  26.971  13.434
46305W        W18620  32.434  32.596   0.330
46306W        W18621  26.113  26.175  11.574
46307W        W18622  12.331  23.095   4.837
46308W        W18623  35.896  26.963  14.944
46309W        W18624  16.292  39.408  13.058
46310W        W18625  13.786  28.169   2.811
46311W        W18626   9.746  22.019   2.241
46312W        W18627  31.490  44.388   0.477
46313W        W18628   4.841  29.661  10.488
46314W        W18629  23.058  36.990  14.499
46315W        W18630  31.412  31.522  10.445
46316W        W18631  44.490  11.753  14.828
46317W        W18632   3.809  20.647  14.464
46318W        W18633  29.605   8.250   1.232
46319W        W18634   1.959   9.224   2.300
46320W        W18635   0.919  21.607  14.473
46321W        W18636   6.418  31.003  11.419
46322W        W18637  40.360  38.911  13.964
46323W        W18638  19.555   5.243  10.634
46324W        W18639  14.808  13.171   2.841
46325W        W18640  14.329  36.471  11.003
46326W        W18641  30.499  36.867   3.672
46327W        W18642  31.543  30.968   2.397
46328W        W18643  16.699   7.817  11.017
46329W        W18644   0.336  28.679  11.967
46330W        W18645  16.083  19.639   0.274
46331W        W18646   6.309  44.454   4.152
46332W        W18647   2.935   7.231   1.379
46333W        W18648   9.167  21.184  10.071
46334W        W18649  36.870  37.531  11.051
46335W        W18650   1.333  27.193  14.967
46336W        W18651  44.967  42.504   0.870
46337W        W18652   0.924  29.040  12.909
46338W        W18653  38.561  11.865   2.888
46339W        W18654  41.405   7.760  10.572
46340W        W18655  10.821  27.178   4.187
46341W        W18656  10.653  23.663   1.763
46342W        W18657  25.067  10.143   3.783
46343W        W18658  21.517  38.013   2.351
46344W        W18659  34.423  25.524  10.496
46345W        W18660   4.886  29.111  14.795
46346W        W18661  18.650   4.236   2.761
46347W        W18662  38.985  13.146  13.368
46348W        W18663  14.199  28.079  14.944
46349W        W18664   5.282  19.728   1.804
46350W        W18665  30.544  32.022  11.429
46351W        W18666  28.938  12.648   3.729
46352W        W18667  27.652  40.422  10.896
46353W        W18668   1.264  26.459  10.957
46354W        W18669  13.253  41.357   2.695
46355W        W18670  30.656  22.037   3.766
46356W        W18671  16.577   1.894   1.443
46357W        W18672  19.649   5.315   0.741
46358W        W18673   5.740   0.888  14.846
46359W        W18674  37.060  31.113   4.825
46360W        W18675  37.918  14.815  12.350
46361W        W18676  43.953  23.154  13.866
46362W        W18677  26.147   6.403   1.269
46363W        W18678  15.115  31.129   2.227
46364W        W18679  20.564  14.778   0.832
46365W        W18680  31.013  36.422   0.799
46366W        W18681  44.879   8.205   4.222
46367W        W18682  40.316  16.095   2.868
46368W        W18683   3.268  38.464   9.957
46369W        W18684  26.581  41.897   3.250
46370W        W18685  31.566  20.253  14.896
46371W        W18686   0.971  29.544   4.163
46372W        W18687  44.756  34.865   0.870
46373W        W18688  41.821  10.705  10.574
46374W        W18689  32.125  37.895   4.321
46375W        W18690   8.684   1.319  10.961
46376W        W18691  29.021  38.999  13.544
46377W        W18692  12.172   4.254  10.496
46378W        W18693  44.325   7.264  14.902
46379W        W18694   8.377  41.934   4.126
46380W        W18695  28.639  32.441  11.859
46381W        W18696  44.761  24.575   4.333
46382W        W18697   0.965   8.791   1.796
46383W        W18698   7.360  36.475  14.287
46384W        W18699  15.729  14.721   2.891
46385W        W18700  34.903  37.992   4.130
46386W        W18701   6.312  32.600   1.811
46387W        W18702  17.637  28.672  14.813
46388W        W18703  35.016   7.415   0.791
46389W        W18704   5.799   5.255   4.780
46390W        W18705  15.673  24.978  12.031
46391W        W18706  43.504  19.271  14.908
46392W        W18707  16.301  15.239   2.890
46393W        W18708  19.149  16.128   3.865
46394W        W18709  30.954   8.383  11.548
46395W        W18710  30.450   3.456  10.977
46396W        W18711  44.755  17.118  14.960
46397W        W18712   8.333  22.250   1.281
46398W        W18713  10.833   1.952   4.607
46399W        W18714  28.159  13.677  13.933
46400W        W18715  16.087  41.510   1.769
46401W        W18716  40.418  30.467  11.100
46402W        W18717  39.024  23.572   0.479
46403W        W18718  39.980  24.984  11.118
46404W        W18719  27.572  42.884  11.012
46405W        W18720  33.029  18.693  12.394
46406W        W18721  31.017  27.964  14.396
46407W        W18722   2.303  10.787  14.374
46408W        W18723   9.741  41.317   3.863
46409W        W18724  23.095  34.921   2.195
46410W        W18725  44.402  17.225   0.411
46411W        W18726  23.226  13.771   0.343
46412W        W18727  42.424  24.718   3.693
46413W        W18728  35.443  38.921   4.120
46414W        W18729  11.274  23.090   1.901
46415W        W18730  18.287  29.044  11.450
46416W        W18731  15.713  29.433   2.406
46417W        W18732  18.740  22.627   1.844
46418W        W18733  41.037   2.924  12.356
46419W        W18734  25.696  18.189  11.411
46420W        W18735  11.728  14.290  11.420
46421W        W18736   4.381  34.404   2.344
46422W        W18737  26.112  33.620   0.748
46423W        W18738   0.353  24.714  13.061
46424W        W18739  27.166   3.768   3.782
46425W        W18740   7.679   0.248   2.684
46426W        W18741  10.782   5.288   2.797
46427W        W18742  41.330   6.281   2.190
46428W        W18743   3.285  20.646  13.508
46429W        W18744   9.330  42.420   2.291
46430W        W18745  12.759   9.847  14.877
46431W        W18746  43.402  22.128   2.268
46432W        W18747  23.203   2.398  11.498
46433W        W18748  32.624   0.769   0.345
46434W        W18749  33.492   6.376  13.445
46435W        W18750   8.671  25.192   0.839
46436W        W18751  39.841  11.134  11.456
46437W        W18752  12.120  22.558  11.040
46438W        W18753  44.289   4.413  12.030
46439W        W18754   0.388  15.307   2.304
46440W        W18755  14.647  19.053   1.224
46441W        W18756  15.765  24.013   2.859
46442W        W18757   6.212   6.201   1.275
46443W        W18758  18.178  38.488  12.831
46444W        W18759   3.842  34.935   2.879
46445W        W18760  40.956  11.700  10.413
46446W        W18761  19.065  13.198   2.185
46447W        W18762   9.798  24.612   0.775
46448W        W18763  18.282  36.896   4.175
46449W        W18764  43.882  39.996  13.824
46450W        W18765   0.428  16.312  12.395
46451W        W18766  31.581  21.660  13.316
46452W        W18767   5.348  30.974  10.475
46453W        W18768  39.546  29.953   0.288
46454W        W18769  26.577   3.279  11.586
46455W        W18770  21.662  42.004  10.572
46456W        W18771  27.447  42.940   3.365
46457W        W18772  16.655  26.076  14.430
46458W        W18773  13.338  26.993   4.644
46459W        W18774  29.492  32.569  10.002
46460W        W18775  41.967  17.182   3.713
46461W        W18776  39.983  39.349  10.960
46462W        W18777  15.257  41.879  10.993
46463W        W18778   1.947  41.323   0.888
46464W        W18779  31.050  15.653  10.954
46465W        W18780  42.008  20.645  12.912
46466W        W18781  26.563  24.100   2.313
46467W        W18782  17.643  29.552   4.603
46468W        W18783  43.816   9.821  11.419
46469W        W18784  10.379  41.422  11.560
46470W        W18785  40.442  39.335   0.432
46471W        W18786  15.084   3.355   1.725
46472W        W18787   9.245  24.050   2.336
46473W        W18788  25.689   0.967   0.784
46474W        W18789  43.973  38.068   4.685
46475W        W18790  18.207  39.033  11.550
46476W        W18791   8.840  11.749  13.801
46477W        W18792  39.559  15.740   4.270
46478W        W18793  27.456  14.182  12.883
46479W        W18794   7.274   1.306  14.283
46480W        W18795  18.778  39.456   5.170
46481W        W18796  35.405  16.670  12.519
46482W        W18797  34.590   8.238  10.463
46483W        W18798  25.473  25.708  11.535
46484W        W18799  31.433  15.241  11.464
46485W        W18800  10.371  14.796   4.175
46486W        W18801  38.433  24.996  14.763
46487W        W18802   4.915  12.656   1.753
46488W        W18803  27.093   1.810   2.847
46489W        W18804   7.762  44.474   2.733
46490W        W18805   2.444  30.939  14.915
46491W        W18806  16.163   1.750   4.835
46492W        W18807  27.588  20.029  13.832
46493W        W18808  37.907  24.214  12.541
46494W        W18809  27.666  26.164  10.623
46495W        W18810  16.300  30.654   5.087
46496W        W18811  42.521  30.614  14.305
46497W        W18812  20.243  11.136  13.799
46498W        W18813   8.312  31.977   0.393
46499W        W18814  30.074  26.655   1.901
46500W        W18815   0.824  24.146  11.419
46501W        W18816   8.213   4.355   4.204
46502W        W18817  21.119  27.478   4.209
46503W        W18818  30.147   1.785  14.907
46504W        W18819  25.042  14.264  11.469
46505W        W18820   1.408  19.535  13.397
46506W        W18821  32.023  43.012   3.697
46507W        W18822  24.081  21.107  13.430
46508W        W18823  11.168  11.185  13.393
46509W        W18824   2.431  14.205   5.220
46510W        W18825  24.052   6.910  14.472
46511W        W18826   6.684  12.232   4.277
46512W        W18827   4.889  20.633   4.169
46513W        W18828  17.108  31.000  14.872
46514W        W18829  10.879  15.297  13.043
46515W        W18830  12.157   9.676   3.675
46516W        W18831  34.441  17.134   4.807
46517W        W18832  34.883  19.191   0.794
46518W        W18833  32.969  18.773  14.001
46519W        W18834  27.072   5.210  10.947
46520W        W18835  42.491  11.261   4.307
46521W        W18836  40.003  43.366   1.814
46522W        W18837  14.610   4.432   3.667
46523W        W18838  18.738  42.880  13.879
46524W        W18839  13.608  18.184  12.922
46525W        W18840   3.416  33.997  11.987
46526W        W18841   3.894  41.977  12.397
46527W        W18842  33.131  12.713  14.473
46528W        W18843  10.207  22.538   0.806
46529W        W18844  16.611  21.678   2.293
46530W        W18845   2.883  16.194   1.407
46531W        W18846  37.532  13.772  11.590
46532W        W18847  28.486  36.056   0.458
46533W        W18848  41.354  11.764   1.810
46534W        W18849  10.318   7.243   1.408
46535W        W18850  15.582  25.058  13.959
46536W        W18851  30.031   3.837  11.439
46537W        W18852  35.547  12.710   1.365
46538W        W18853  10.381  27.517  13.869
46539W        W18854  31.632  22.690   1.790
46540W        W18855  40.422  23.012   4.650
46541W        W18856  37.501  28.665   4.272
46542W        W18857  13.652   9.753   2.814
46543W        W18858  30.431  13.151   3.834
46544W        W18859  31.912  41.928   2.400
46545W        W18860  35.448  28.496  13.897
46546W        W18861  23.716   4.362  10.482
46547W        W18862  16.268   9.382   3.198
46548W        W18863  22.170  11.304   4.600
46549W        W18864  10.659   2.936   0.733
46550W        W18865  40.521  17.207   2.827
46551W        W18866  28.988  32.036  13.059
46552W        W18867   0.915  23.529  11.384
46553W        W18868  15.327  33.386  13.804
46554W        W18869  41.460  11.796  12.847
46555W        W18870  11.328  43.355  11.082
46556W        W18871  22.636   6.375  10.542
46557W        W18872  24.653  38.943   2.318
46558W        W18873  15.124  25.662  14.483
46559W        W18874  34.517  23.174  10.625
46560W        W18875  12.198  13.113   3.761
46561W        W18876  10.315  35.559   0.264
46562W        W18877  31.007   4.778  10.011
46563W        W18878  20.048   7.671  14.029
46564W        W18879  35.105  15.193  14.495
46565W        W18880  38.354  35.940  11.038
46566W        W18881  44.486  35.375  11.511
46567W        W18882  31.648  10.159   5.269
46568W        W18883  22.653  25.156  14.976
46569W        W18884  18.705  30.611   4.699
46570W        W18885   6.261  16.747  11.377
46571W        W18886  18.766   3.917  13.484
46572W        W18887   7.363   6.703  14.314
46573W        W18888  18.072  22.222   4.288
46574W        W18889  23.503  44.974  11.480
46575W        W18890  23.127  27.147  12.458
46576W        W18891  22.125   9.666   1.304
46577W        W18892  10.773  23.111   2.301
46578W        W18893  28.181  39.934   0.260
46579W        W18894  34.900  11.687  14.862
46580W        W18895  24.677  16.317  14.836
46581W        W18896  29.984   7.809   1.784
46582W        W18897   9.201  16.783   2.328
46583W        W18898  12.788  37.898  12.842
46584W        W18899  15.610  23.568  10.942
46585W        W18900   2.912  30.128   1.375
46586W        W18901  16.123  20.216  10.582
46587W        W18902   8.715   0.491  10.036
46588W        W18903  16.633   0.365  13.506
46589W        W18904  44.845  33.882   9.582
46590W        W18905   8.179  15.152  14.993
46591W        W18906  36.899  14.653   0.832
46592W        W18907  32.002  10.825  10.482
46593W        W18908  17.192  31.463   5.123
46594W        W18909  36.943  10.653   2.342
46595W        W18910  33.045   0.825  14.476
46596W        W18911   8.194  30.041  13.510
46597W        W18912  33.486  24.047  14.390
46598W        W18913  10.639   9.737   3.176
46599W        W18914   0.845  19.775   9.985
46600W        W18915  21.254  28.183   0.853
46601W        W18916  26.637  41.419   2.195
46602W        W18917  38.384   8.790  10.581
46603W        W18918  44.921  16.096   3.800
46604W        W18919  43.950  36.348  11.455
46605W        W18920  42.413  17.617   0.945
46606W        W18921   6.689  16.122  13.061
46607W        W18922  26.980   2.829  12.476
46608W        W18923   7.348  19.687  13.400
46609W        W18924  23.012  33.388  11.591
46610W        W18925   7.817  23.093   3.290
46611W        W18926  20.258  42.315   3.754
46612W        W18927  36.377  14.286   0.330
46613W        W18928  41.029  31.518   1.371
46614W        W18929  38.529  33.884  11.909
46615W        W18930  39.028  29.643  14.334
46616W        W18931  21.621  13.639  11.375
46617W        W18932   1.794  17.061  11.889
46618W        W18933  37.571  33.507   0.390
46619W        W18934  32.493  15.763   2.398
46620W        W18935  16.725  16.671   3.676
46621W        W18936  35.102  33.425  14.828
46622W        W18937  17.090  13.252   1.822
46623W        W18938  34.374  44.822   1.873
46624W        W18939  28.575  44.422  14.502
46625W        W18940  23.184  12.652  10.431
46626W        W18941  39.440  39.816  10.412
46627W        W18942  15.204   5.244   3.745
46628W        W18943  34.413   4.391   0.814
46629W        W18944   9.269   8.236  13.381
46630W        W18945  44.337  40.395  14.996
46631W        W18946  35.871  35.439   3.805
46632W        W18947   2.260  11.781  12.962
46633W        W18948  14.827  36.092  10.020
46634W        W18949  39.523  26.656  10.523
46635W        W18950   9.852  25.524   2.388
46636W        W18951   6.915  43.765  12.881
46637W        W18952   1.267  41.007  12.503
46638W        W18953  13.114   6.770  14.368
46639W        W18954  30.104  25.069  12.539
46640W        W18955   1.851  11.807   0.385
46641W        W18956  38.903  23.518   2.397
46642W        W18957  43.402   6.773   4.267
46643W        W18958   0.428  42.481  14.760
46644W        W18959  17.741  37.427  10.033
46645W        W18960  17.640   3.943   0.357
46646W        W18961  11.146   0.442   0.329
46647W        W18962  18.704   4.865  10.640
46648W        W18963  22.608  11.151   0.790
46649W        W18964  34.056  24.036   3.157
46650W        W18965  17.563  31.050   2.196
46651W        W18966  42.811  43.848   4.214
46652W        W18967   8.309  21.121   2.382
46653W        W18968  10.267  41.466   9.986
46654W        W18969  10.255  22.533  13.003
46655W        W18970  40.811   7.261  11.863
46656W        W18971   7.735  33.003  14.352
46657W        W18972  36.054   8.330   0.381
46658W        W18973  36.961  24.601  11.521
46659W        W18974  37.083  35.976   4.209
46660W        W18975  44.871   5.777  12.383
46661W        W18976  36.501  10.317  14.930
46662W        W18977  43.293  39.043  12.508
46663W        W18978  24.638   5.698   0.920
46664W        W18979  13.630  24.104  10.569
46665W        W18980  30.005  36.849   1.731
46666W        W18981  27.136  33.941   1.883
46667W        W18982  24.479   6.289   0.938
46668W        W18983  20.542  35.999   2.206
46669W        W18984  18.244  27.009   3.641
46670W        W18985  10.165  27.072  10.506
46671W        W18986  27.122  41.412   1.697
46672W        W18987  36.548  27.665   4.800
46673W        W18988  24.679  31.543  14.370
46674W        W18989  10.663  37.999  10.521
46675W        W18990  41.966  33.060  13.537
46676W        W18991   5.733  24.213  12.985
46677W        W18992  28.440  11.708  10.965
46678W        W18993   8.699  40.490   2.268
46679W        W18994  38.492  30.428   2.769
46680W        W18995   7.715  20.624   2.815
46681W        W18996  11.664  44.769  11.387
46682W        W18997  22.170   9.861   4.337
46683W        W18998  37.450  12.124   4.608
46684W        W18999  16.627  19.242  10.550
46685W        W19000  38.970  27.681  10.888
46686W        W19001  24.688  19.147  11.516
46687W        W19002  44.002  28.491  14.480
46688W        W19003  13.327  10.742  11.068
46689W        W19004  28.049  12.726   3.248
46690W        W19005  24.161   1.268  11.500
46691W        W19006  19.570  27.453   1.733
46692W        W19007  15.221  21.145   1.892
46693W        W19008  43.937  24.573   1.715
46694W        W19009  42.369  30.653  13.995
46695W        W19010   4.751   6.705   4.323
46696W        W19011   2.921   2.436   2.718
46697W        W19012  41.448  16.718  13.407
46698W        W19013  33.581  10.693   3.637
46699W        W19014  15.801   9.348  11.491
46700W        W19015  43.399   0.775   1.432
46701W        W19016  18.144   3.725   3.367
46702W        W19017   9.185  31.927  14.366
46703W        W19018  29.932  16.290  10.528
46704W        W19019  32.606  23.665  10.516
46705W        W19020  39.476   6.743   0.262
46706W        W19021  38.864  17.660  13.455
46707W        W19022  30.635   1.375  11.594
46708W        W19023  27.127  40.811   4.177
46709W        W19024  28.564  15.150  11.523
46710W        W19025  24.524  28.543  13.447
46711W        W19026  11.791   1.779  12.478
46712W        W19027  39.935  34.092   0.296
46713W        W19028  25.217  43.791   2.743
46714W        W19029  34.039  42.359  14.510
46715W        W19030  30.501  23.628  13.474
46716W        W19031  10.716  12.811   2.339
46717W        W19032  42.302   7.319  10.450
46718W        W19033   3.375   4.430  13.021
46719W        W19034  26.978   4.221   9.994
46720W        W19035  35.904   2.773   4.686
46721W        W19036  31.504  23.612   4.131
46722W        W19037   5.754  37.455  12.983
46723W        W19038  41.320  19.671   0.335
46724W        W19039  36.971  41.331  13.367
46725W        W19040  43.002  25.150  12.339
46726W        W19041  37.925  25.195  12.462
46727W        W19042  12.232  23.568  14.444
46728W        W19043  28.064   9.386  14.300
46729W        W19044  27.168  13.708   3.221
46730W        W19045  23.224  10.688  11.585
46731W        W19046   3.419  39.919   0.953
46732W        W19047  25.121  31.006   2.301
46733W        W19048  20.627  26.077   0.887
46734W        W19049  35.022  13.132  10.605
46735W        W19050   6.203  34.910   2.778
46736W        W19051   1.732  23.558  13.481
46737W        W19052  38.541  19.256  11.532
46738W        W19053  32.013  43.424  12.013
46739W        W19054   1.901  42.513   1.284
46740W        W19055  14.117  13.750  11.023
46741W        W19056   8.258   9.794   1.932
46742W        W19057  32.492   7.284   1.929
46743W        W19058   2.747  16.094  14.347
46744W        W19059  39.051   9.274   2.402
46745W        W19060  30.124  11.147  11.429
46746W        W19061  31.574  31.930   1.214
46747W        W19062  17.663  41.930  13.374
46748W        W19063  36.009  26.171   0.464
46749W        W19064  16.722   1.905   0.893
46750W        W19065   8.714  14.336   0.455
46751W        W19066   1.923   2.266  14.008
46752W        W19067   8.773   2.916   4.820
46753W        W19068  15.276  15.109   4.217
46754W        W19069  42.468  23.692  13.504
46755W        W19070  37.524  43.003   1.260
46756W        W19071  10.659  35.546   4.652
46757W        W19072  12.647  39.944   2.409
46758W        W19073   9.149  21.681  11.981
46759W        W19074  13.121  40.514   2.776
46760W        W19075  11.252  38.444   1.858
46761W        W19076  10.649   7.737  13.986
46762W        W19077  31.408  30.478   2.750
46763W        W19078   1.835  12.854   1.430
46764W        W19079  29.082  23.597   0.244
46765W        W19080  23.137   2.243  11.011
46766W        W19081  12.798   7.669   2.884
46767W        W19082  32.396  13.705  14.460
46768W        W19083   0.912  25.126  14.795
46769W        W19084  34.530  11.372   0.307
46770W        W19085   2.300  44.336  12.383
46771W        W19086  18.189  23.096   0.471
46772W        W19087  21.045  30.424   1.248
46773W        W19088  26.079  38.906   4.150
46774W        W19089  15.636  28.982   2.353
46775W        W19090   8.264  33.533   1.923
46776W        W19091   2.882  13.624   4.345
46777W        W19092   9.774  35.911   1.890
46778W        W19093  37.953   5.763   4.237
46779W        W19094  14.304   1.972  11.567
46780W        W19095   4.278  35.981  14.368
46781W        W19096  18.674  16.077  14.463
46782W        W19097   9.736  14.617  11.550
46783W        W19098  27.449   5.413   1.451
46784W        W19099  42.899   6.923  10.511
46785W        W19100  25.978  24.498   3.346
46786W        W19101  43.393   2.824  10.993
46787W        W19102   2.313   0.292  11.556
46788W        W19103  37.490  18.073  12.884
46789W        W19104  36.073  39.542  14.466
46790W        W19105  12.719  20.083  11.512
46791W        W19106   9.243  28.065   0.925
46792W        W19107  16.145   1.952   2.306
46793W        W19108  32.892  29.049   2.866
46794W        W19109  30.415  18.286  11.940
46795W        W19110  11.825  43.967   2.208
46796W        W19111  34.925  19.758  14.971
46797W        W19112  18.224  33.511   1.923
46798W        W19113  41.899   2.306  14.443
46799W        W19114  40.442  33.582   4.790
46800W        W19115   2.255  16.747  11.120
46801W        W19116  38.007   6.387  10.976
46802W        W19117   2.965  30.996   2.830
46803W        W19118  15.790  30.030   2.252
46804W        W19119   2.811   3.740  13.061
46805W        W19120  23.018   0.432   2.265
46806W        W19121  22.143  32.509  14.416
46807W        W19122  31.079  21.210  12.993
46808W        W19123  31.072   1.867   2.213
46809W        W19124  24.153   4.800  13.470
46810W        W19125   1.810  38.418  10.586
46811W        W19126   6.808  10.789  12.076
46812W        W19127  23.535  43.326   0.889
46813W        W19128  12.750  40.826   2.390
46814W        W19129  39.429  44.431   1.932
46815W        W19130  18.203  23.492  14.464
46816W        W19131  14.243  10.663   3.270
46817W        W19132  44.468  31.938  13.884
46818W        W19133  18.241  28.009  10.926
46819W        W19134  35.560  15.655  11.493
46820W        W19135  30.615  41.343   3.788
46821W        W19136   0.864   0.311  12.472
46822W        W19137  44.911  30.154   4.327
46823W        W19138  11.271  41.323   3.758
46824W        W19139  19.097  15.281  11.540
46825W        W19140   4.445  24.009   1.840
46826W        W19141  34.953  40.461   1.863
46827W        W19142  26.997   2.423  14.803
46828W        W19143  31.944  44.294  14.990
46829W        W19144  43.016  34.444  11.871
46830W        W19145  32.590  17.674   0.830
46831W        W19146  24.985  23.536  12.887
46832W        W19147  10.860  24.139  14.848
46833W        W19148  20.237  44.764   0.247
46834W        W19149   6.804  13.269  14.293
46835W        W19150  23.213  16.151   4.622
46836W        W19151   6.701  11.770  12.077
46837W        W19152   7.743  22.586  12.854
46838W        W19153  36.094  21.697  14.758
46839W        W19154  21.245   1.827   2.882
46840W        W19155  42.911  30.628  10.535
46841W        W19156  17.785  19.246  12.869
46842W        W19157  23.561  40.399   0.835
46843W        W19158  20.145  15.315  10.607
46844W        W19159   9.152   4.880  13.991
46845W        W19160  42.457  13.682  13.991
46846W        W19161  17.158   1.456   2.675
46847W        W19162  33.947  27.111  14.914
46848W        W19163  22.089  26.953   3.228
46849W        W19164  42.472  36.027   0.247
46850W        W19165  29.942   2.412   3.794
46851W        W19166  16.662   5.871  12.407
46852W        W19167   9.278  30.041  10.484
46853W        W19168  22.159  35.520  12.411
46854W        W19169   7.213  43.458  13.320
46855W        W19170   5.837  32.508  14.293
46856W        W19171  40.996  14.806  10.933
46857W        W19172  31.434  35.573   3.332
46858W        W19173  25.093  28.004   1.441
46859W        W19174  32.535  26.684  10.629
46860W        W19175  14.821  24.607   3.741
46861W        W19176  18.294  22.689   2.820
46862W        W19177   3.944  21.689  12.581
46863W        W19178   1.806  36.438   9.657
46864W        W19179  10.679  16.614  14.778
46865W        W19180  42.819   3.927   4.227
46866W        W19181  31.012  30.962   3.808
46867W        W19182  23.588   7.727  12.404
46868W        W19183  39.985   7.733   1.300
46869W        W19184  21.585   0.458  14.806
46870W        W19185  42.974   9.860   3.279
46871W        W19186  16.292  35.047  14.298
46872W        W19187   3.849  37.553  13.041
46873W        W19188  29.554  32.975  10.114
46874W        W19189  17.739  15.246  11.605
46875W        W19190  16.278   9.766  11.610
46876W        W19191  13.352   5.321   0.743
46877W        W19192  37.006  22.701   2.893
46878W        W19193  42.415  25.025   4.307
46879W        W19194  26.651  11.200   3.379
46880W        W19195  28.137  10.782  12.480
46881W        W19196  35.418   9.158   1.869
46882W        W19197  13.754   1.289  12.571
46883W        W19198  13.647   6.407   2.712
46884W        W19199  17.148   5.247  10.132
46885W        W19200  15.658  27.067  12.566
46886W        W19201  27.487   2.783   9.652
46887W        W19202  30.978  19.621   3.164
46888W        W19203  40.932  20.128  13.380
46889W        W19204  25.107   7.904  13.930
46890W        W19205  11.822  24.525   4.615
46891W        W19206  37.404  41.927  12.482
46892W        W19207  37.565  34.396   9.978
46893W        W19208  11.201   3.916  12.388
46894W        W19209  22.568   2.837  13.850
46895W        W19210  17.165  26.685  11.434
46896W        W19211   7.353   5.916   2.359
46897W        W19212  33.941  36.466  12.043
46898W        W19213  16.671  38.559  11.515
46899W        W19214  13.149   0.488  12.473
46900W        W19215  26.628  33.434  12.037
46901W        W19216  14.744  17.582   2.894
46902W        W19217  22.576  34.465  11.532
46903W        W19218  42.932  33.886   3.733
46904W        W19219  31.902  11.298   4.647
46905W        W19220  24.229   3.218   0.880
46906W        W19221  29.443   6.184  11.499
46907W        W19222  20.528  15.223  10.608
46908W        W19223  21.058  23.053  12.528
46909W        W19224  33.052  41.517   4.158
46910W        W19225  11.716  27.172  13.814
46911W        W19226   1.344  35.411   0.478
46912W        W19227  17.283  40.897   5.567
46913W        W19228  42.911  40.509  13.807
46914W        W19229   8.226  16.285   2.268
46915W        W19230  28.599  26.145   3.165
46916W        W19231  14.291  30.914  14.303
46917W        W19232  41.341  43.934   0.342
46918W        W19233  15.712  15.175   2.848
46919W        W19234   3.843  21.591  14.434
46920W        W19235  39.065  26.025  11.053
46921W        W19236  17.109   3.354   2.267
46922W        W19237   9.231  30.136  13.796
46923W        W19238  27.038   5.902  10.891
46924W        W19239  24.716  15.198   4.334
46925W        W19240  41.297  15.738   1.908
46926W        W19241  28.592   9.233   3.770
46927W        W19242  21.571  43.270   1.213
46928W        W19243  15.637  26.165  10.990
46929W        W19244  38.339   1.253   1.254
46930W        W19245  31.566  10.859  12.068
46931W        W19246  25.567  10.635  14.469
46932W        W19247  10.173  26.565  13.854
46933W        W19248  38.020  32.550   3.861
46934W        W19249  22.578  31.535  10.539
46935W        W19250  36.967  39.926   4.179
46936W        W19251   0.473  35.389  10.049
46937W        W19252  17.708   3.789   3.847
46938W        W19253  13.350  19.692  12.453
46939W        W19254  11.169  37.335   4.211
46940W        W19255  34.514  23.035  11.474
46941W        W19256  39.945  24.605  10.113
46942W        W19257  33.964  29.643   0.252
46943W        W19258  15.805  19.545  13.524
46944W        W19259   2.371  36.471   5.588
46945W        W19260   1.362   9.674  11.528
46946W        W19261  16.629   2.873   3.779
46947W        W19262  44.474   2.420  14.851
46948W        W19263  42.850  18.177   4.662
46949W        W19264  18.169  24.076  10.539
46950W        W19265  29.921  44.291   4.756
46951W        W19266  23.713   2.406   4.807
46952W        W19267  18.217   4.880  13.935
46953W        W19268  30.546  38.567  12.444
46954W        W19269  12.235  17.788  12.857
46955W        W19270  20.061   2.894  12.024
46956W        W19271  13.841  15.805  14.017
46957W        W19272  30.563  23.550  13.944
46958W        W19273   7.705  10.854   2.898
46959W        W19274  42.504  30.467   4.264
46960W        W19275  11.330  10.223   2.193
46961W        W19276  28.058  16.097  14.367
46962W        W19277  35.558   7.824   2.890
46963W        W19278  39.814   9.311  12.043
46964W        W19279  30.162  33.417  14.400
46965W        W19280   0.369   7.278   1.857
46966W        W19281   4.760  11.236   3.804
46967W        W19282  39.314   4.801   1.700
46968W        W19283  22.103  28.515   4.693
46969W        W19284  21.102  39.526  11.554
46970W        W19285  21.660  10.320  14.903
46971W        W19286  34.470  29.096  13.408
46972W        W19287  41.936   7.670   1.765
46973W        W19288  14.312  17.184  12.496
46974W        W19289  40.042   0.847  13.514
46975W        W19290  34.096  37.467  11.117
46976W        W19291  27.516  23.723   4.135
46977W        W19292  37.543  17.124  10.573
46978W        W19293  44.353   2.790  14.430
46979W        W19294  10.735  19.068  12.995
46980W        W19295  32.531   5.739   1.301
46981W        W19296  10.749  36.432  12.039
46982W        W19297   7.179  15.747   4.675
46983W        W19298   2.847  42.462   2.354
46984W        W19299  43.416  31.447   2.677
46985W        W19300  26.101  37.961  13.924
46986W        W19301  43.422  35.082   3.823
46987W        W19302  40.878  23.684   4.305
46988W        W19303  27.673  32.478   2.314
46989W        W19304  24.532  10.863  14.889
46990W        W19305   3.936   6.388  11.907
46991W        W19306  12.313  38.918   0.900
46992W        W19307  26.024   5.265   4.278
46993W        W19308  15.132  37.430   4.725
46994W        W19309  15.640   4.834   2.791
46995W        W19310  38.325  18.266  12.892
46996W        W19311  36.505   9.351  14.990
46997W        W19312  26.122  10.866  10.619
46998W        W19313  33.958   8.778  13.438
46999W        W19314  36.440  10.793   0.332
47000W        W19315  28.451   2.855   0.393
47001W        W19316  40.959  13.122   3.735
47002W        W19317  22.588  41.441   1.377
47003W        W19318  14.146  36.450   0.740
47004W        W19319  22.057   9.855  11.084
47005W        W19320  37.461  36.074   2.722
47006W        W19321  18.270  34.604   1.738
47007W        W19322  33.564  16.788  13.879
47008W        W19323  25.160  23.628  11.930
47009W        W19324  43.310  31.628  10.583
47010W        W19325  28.138  37.574  10.892
47011W        W19326   1.732  29.056  13.839
47012W        W19327  32.038  35.504   2.897
47013W        W19328   8.357  13.126  14.887
47014W        W19329  36.097   0.901   3.266
47015W        W19330  17.279  31.423  13.886
47016W        W19331  27.995  18.567   4.194
47017W        W19332  41.342  32.548  12.440
47018W        W19333  15.721  19.680  11.486
47019W        W19334   4.751   1.361  11.036
47020W        W19335  43.929  14.215  13.949
47021W        W19336  30.062  19.132   1.896
47022W        W19337  34.607   2.757   4.222
47023W        W19338  34.030   0.402   2.862
47024W        W19339  36.434   0.755   0.784
47025W        W19340  20.550   9.761   9.926
47026W        W19341  27.664   4.941   9.952
47027W        W19342  44.785  11.134  13.798
47028W        W19343  19.057  35.362   4.178
47029W        W19344  41.510  23.144  12.841
47030W        W19345  17.729  41.992  14.937
47031W        W19346  44.291  41.017   3.790
47032W        W19347  13.285  35.524  13.506
47033W        W19348  25.581  41.427   0.369
47034W        W19349   9.241  41.892   4.651
47035W        W19350  33.624  34.489   3.672
47036W        W19351  14.176  13.603   2.287
47037W        W19352  30.132  42.414   4.615
47038W        W19353  35.531  44.464  11.496
47039W        W19354  15.097  14.624  12.521
47040W        W19355  37.369  39.358  10.405
47041W        W19356  27.122  12.697  12.044
47042W        W19357   9.340  15.697  12.381
47043W        W19358  19.061  39.033  13.796
47044W        W19359   1.864  44.470   1.383
47045W        W19360  20.711   1.241  10.408
47046W        W19361   9.304  12.349  14.906
47047W        W19362  11.361  29.498  13.392
47048W        W19363  11.193  44.496  10.949
47049W        W19364  42.819  32.634  12.357
47050W        W19365   1.957  16.572  13.460
47051W        W19366  12.745  39.842   3.818
47052W        W19367  37.830  13.174   0.873
47053W        W19368  40.388   9.855   2.355
47054W        W19369  25.658   9.259   3.254
47055W        W19370  30.566  44.472   4.332
47056W        W19371  10.361  16.605  10.472
47057W        W19372  16.254  22.623   0.260
47058W        W19373  21.734  43.271   4.838
47059W        W19374  41.298  26.176   4.148
47060W        W19375  35.081   3.772   1.708
47061W        W19376  20.613   9.749  14.984
47062W        W19377  13.756  18.069  14.302
47063W        W19378   4.302  39.977   3.658
47064W        W19379  30.584  26.993  10.942
47065W        W19380  38.929  10.230   1.279
47066W        W19381   2.882  30.971   2.271
47067W        W19382  11.688  41.829   1.436
47068W        W19383  23.223  42.519   1.793
47069W        W19384  33.493  44.987  13.496
47070W        W19385  24.573   7.255   2.748
47071W        W19386   4.903  26.499  14.509
47072W        W19387  34.047  25.684  13.910
47073W        W19388  34.535  35.401  11.450
47074W        W19389  24.150  23.563  10.028
47075W        W19390  42.996  42.794  10.996
47076W        W19391  12.829  30.538   4.153
47077W        W19392  41.931   5.743  12.578
47078W        W19393  38.545   6.184  12.885
47079W        W19394   4.853   1.863  14.356
47080W        W19395  25.469  33.886  10.567
47081W        W19396  24.047  19.707   1.926
47082W        W19397  21.178  29.484  13.994
47083W        W19398  22.185   5.292  10.485
47084W        W19399  15.667  22.747  13.812
47085W        W19400  14.712  33.914   2.736
47086W        W19401  17.590  14.828  13.034
47087W        W19402  13.299  42.822  12.422
47088W        W19403   4.241  18.244  10.576
47089W        W19404  15.687   2.730   2.710
47090W        W19405  37.851  24.044   3.833
47091W        W19406  36.452   8.822   2.871
47092W        W19407  14.250  24.204   5.180
47093W        W19408   4.358   0.359  12.386
47094W        W19409  30.143  43.465  12.438
47095W        W19410  43.976  20.671   4.601
47096W        W19411  42.494  31.098  10.467
47097W        W19412  15.625  17.132  14.821
47098W        W19413  28.051  19.643  10.415
47099W        W19414  32.549  41.892   3.743
47100W        W19415  30.477   8.887   1.834
47101W        W19416  21.096  25.562   4.817
47102W        W19417  15.638  28.642   3.699
47103W        W19418  14.774  23.661   2.311
47104W        W19419  11.720  22.617   2.345
47105W        W19420  20.039  34.499   4.671
47106W        W19421   1.841   3.802  11.480
47107W        W19422  25.082  23.237  12.031
47108W        W19423  12.777  15.697   3.343
47109W        W19424  26.702  16.098  13.799
47110W        W19425   7.257   2.806   0.879
47111W        W19426  12.708   3.452   3.698
47112W        W19427  34.383  38.887   2.810
47113W        W19428  27.052  37.006  13.905
47114W        W19429   9.190  39.528  12.828
47115W        W19430  31.545  11.298  13.872
47116W        W19431  16.306   5.271   1.238
47117W        W19432  13.751  23.184  11.477
47118W        W19433  32.481   7.217   0.909
47119W        W19434  21.515  41.923  12.400
47120W        W19435  32.987  36.906  11.127
47121W        W19436   0.440  15.134  13.879
47122W        W19437  44.957  34.960   2.296
47123W        W19438   2.844  12.831   0.384
47124W        W19439  34.091  22.704  10.597
47125W        W19440  39.506   3.806  12.013
47126W        W19441   8.859  24.583   1.423
47127W        W19442  35.405  27.038   2.675
47128W        W19443  19.572   9.821   4.161
47129W        W19444  10.798  18.694   5.572
47130W        W19445  17.603  13.650  11.401
47131W        W19446  16.756  24.490   2.193
47132W        W19447   6.301   5.877   0.367
47133W        W19448  23.145  18.163  10.460
47134W        W19449  14.134  21.741   1.891
47135W        W19450  11.805  37.565  11.007
47136W        W19451  33.102  15.666   3.785
47137W        W19452   8.792  11.779  12.393
47138W        W19453  25.515  25.066  10.614
47139W        W19454  13.602  30.611  12.523
47140W        W19455  36.379  14.766   4.689
47141W        W19456  12.263  30.463   3.635
47142W        W19457   3.813  16.128  13.824
47143W        W19458   7.221  16.581  10.641
47144W        W19459  30.524   1.351  13.497
47145W        W19460   9.217  25.600   2.843
47146W        W19461  32.441  25.060   0.445
47147W        W19462  40.396  12.816   3.326
47148W        W19463  21.522  11.830   0.769
47149W        W19464  33.574  25.605   0.287
47150W        W19465  17.690  26.138  11.985
47151W        W19466  22.693  10.183  14.868
47152W        W19467  41.983   6.700  14.839
47153W        W19468  37.347   8.883   4.120
47154W        W19469  40.818  17.172   1.365
47155W        W19470   0.410  19.251   1.401
47156W        W19471  44.479  25.077   3.785
47157W        W19472   9.347  35.949   3.773
47158W        W19473  31.496  10.805  13.872
47159W        W19474  22.016  42.456  12.406
47160W        W19475  32.530   5.848  13.964
47161W        W19476   7.180  25.480  14.426
47162W        W19477  32.945  22.602   4.149
47163W        W19478   2.902   5.874  12.917
47164W        W19479  14.739  12.157  11.030
47165W        W19480  23.003  37.371  13.812
47166W        W19481  18.063  16.682   0.904
47167W        W19482   8.897  21.630  10.551
47168W        W19483  25.685  38.952  13.522
47169W        W19484  36.576   2.760   0.883
47170W        W19485  28.934   1.388  11.899
47171W        W19486  11.371  11.261   2.842
47172W        W19487  28.041  10.164  12.412
47173W        W19488  43.917  44.788  14.474
47174W        W19489  43.308  34.033   2.310
47175W        W19490  27.968  13.827   1.310
47176W        W19491  34.864  24.705   0.899
47177W        W19492  23.234  44.284  12.054
47178W        W19493  40.403   1.460   0.412
47179W        W19494  24.672  10.162  14.299
47180W        W19495   7.312   8.796   4.249
47181W        W19496  29.656   6.366  13.400
47182W        W19497  24.619  44.345   0.304
47183W        W19498  44.449  27.475  13.316
47184W        W19499  38.873   1.466  12.531
47185W        W19500  26.506  30.099  13.843
47186W        W19501  38.329  22.538  12.825
47187W        W19502  43.330   6.201   4.270
47188W        W19503  27.030   2.404  10.461
47189W        W19504  24.052   1.944  14.945
47190W        W19505  36.079   5.418   4.705
47191W        W19506  19.747  22.543   2.892
47192W        W19507  10.817  13.299   3.836
47193W        W19508  28.125  18.179   9.954
47194W        W19509  23.618  36.348   2.881
47195W        W19510   9.363   1.783  12.848
47196W        W19511   6.214  21.018  14.998
47197W        W19512  22.080   8.220  10.626
47198W        W19513  30.039  28.603   1.699
47199W        W19514  13.282  18.664   3.192
47200W        W19515   1.458  25.217  12.435
47201W        W19516  15.579  44.388   4.281
47202W        W19517  36.063  41.894  11.001
47203W        W19518  38.385  40.938   1.448
47204W        W19519   0.824  41.946  11.913
47205W        W19520  24.170  39.979   3.366
47206W        W19521  14.098   5.192  12.959
47207W        W19522  37.851  28.436  11.471
47208W        W19523  41.982  15.181  11.856
47209W        W19524  23.597  22.662   2.863
47210W        W19525  36.564  16.796   1.742
47211W        W19526   4.272   0.407  10.956
47212W        W19527  31.077  21.260  14.454
47213W        W19528  43.343  31.085   2.228
47214W        W19529   2.310  17.187  13.385
47215W        W19530  30.109  39.486   1.916
47216W        W19531  43.921   9.312   3.229
47217W        W19532  35.382   1.299   3.295
47218W        W19533  18.548  43.896  13.378
47219W        W19534  42.347  29.608  14.401
47220W        W19535  22.204  33.932   0.450
47221W        W19536  15.638  38.840  11.577
47222W        W19537  12.128  25.476   3.179
47223W        W19538  30.925  37.378   3.323
47224W        W19539   1.237  42.984   1.413
47225W        W19540   5.221   3.296   2.876
47226W        W19541  38.371  34.430  12.497
47227W        W19542  31.499   5.754   1.239
47228W        W19543  34.471   5.332   2.809
47229W        W19544  27.978  15.192   3.664
47230W        W19545  10.343   9.857  10.921
47231W        W19546  34.903  21.638   1.374
47232W        W19547  12.638  25.495   1.384
47233W        W19548  19.715   1.365   0.925
47234W        W19549   2.279  33.901  12.002
47235W        W19550  10.174  27.984  12.376
47236W        W19551  21.745  24.546   1.905
47237W        W19552   2.227   5.263   4.156
47238W        W19553  33.574   7.810  13.975
47239W        W19554  10.731  41.324  12.532
47240W        W19555  26.140  18.171  12.362
47241W        W19556  40.009  40.989   3.706
47242W        W19557  43.340  34.052   1.318
47243W        W19558   0.446  37.083   4.634
47244W        W19559  18.202   0.424   2.692
47245W        W19560  19.251  40.909  12.835
47246W        W19561   8.876  29.043   1.370
47247W        W19562  34.098  29.647   2.356
47248W        W19563   1.333   8.266  12.039
47249W        W19564  25.512   5.931  14.487
47250W        W19565  37.480   6.877  14.864
47251W        W19566  14.761  42.364  13.814
47252W        W19567  30.097  34.902   4.743
47253W        W19568   5.282  41.875   4.254
47254W        W19569  28.487   9.356   0.776
47255W        W19570  21.736  41.895   0.320
47256W        W19571   5.774  30.480  12.957
47257W        W19572  40.901  25.027  13.966
47258W        W19573   2.761  17.159  11.020
47259W        W19574  29.662  29.641  14.338
47260W        W19575  38.984  34.030   2.239
47261W        W19576   7.256  21.536  14.783
47262W        W19577  12.794  27.547   3.351
47263W        W19578  26.596  34.553   4.670
47264W        W19579  20.094  17.254  13.025
47265W        W19580  37.362   9.325  11.047
47266W        W19581   4.260  37.519   2.306
47267W        W19582  35.937  40.980   2.757
47268W        W19583  13.282  20.584  13.008
47269W        W19584   4.239  25.541   2.681
47270W        W19585  26.538  39.553   0.242
47271W        W19586  40.435  43.399  12.029
47272W        W19587   7.199   8.213   2.364
47273W        W19588  34.407  23.062   3.385
47274W        W19589   6.884  40.032   4.661
47275W        W19590   2.358  15.732   0.300
47276W        W19591   9.663  26.476  13.872
47277W        W19592  14.589  31.940  10.487
47278W        W19593  44.334  41.859   2.367
47279W        W19594  25.521  14.250   1.298
47280W        W19595   3.412  31.933  12.982
47281W        W19596  39.548  17.653   1.708
47282W        W19597  20.118   6.253   2.681
47283W        W19598  34.945   3.774   2.742
47284W        W19599   2.938  28.512   4.206
47285W        W19600  42.316  19.218  13.824
47286W        W19601  16.233  21.624  12.384
47287W        W19602   7.204  28.559   2.839
47288W        W19603  23.165  41.291  12.942
47289W        W19604  21.539  20.666   2.692
47290W        W19605  35.962  41.820   1.722
47291W        W19606  38.350  34.580  13.872
47292W        W19607   8.311  23.622   0.253
47293W        W19608  25.589   4.745   1.337
47294W        W19609  22.236  33.564   2.875
47295W        W19610  25.174  21.134  13.053
47296W        W19611   6.376  10.796  10.572
47297W        W19612  35.033  13.690  13.816
47298W        W19613  28.166  22.512   2.254
47299W        W19614  32.090  26.652  14.791
47300W        W19615   8.743  16.167  12.512
47301W        W19616  44.753  30.062  14.510
47302W        W19617   0.351  10.831  11.550
47303W        W19618  28.680  33.037   4.308
47304W        W19619  28.474  23.659   2.680
47305W        W19620   8.328  33.997   3.816
47306W        W19621  21.658  17.741  13.835
47307W        W19622  22.033  11.709  13.901
47308W        W19623  32.071  10.196  14.373
47309W        W19624  12.787  10.322   3.677
47310W        W19625   0.891  32.955   4.348
47311W        W19626   6.746  17.556   0.298
47312W        W19627  17.193  38.498   5.570
47313W        W19628  11.751   3.897   3.225
47314W        W19629  13.735   7.820  14.312
47315W        W19630  19.126  13.342  12.014
47316W        W19631   7.795  14.744  13.899
47317W        W19632  21.557   8.881   3.353
47318W        W19633  34.541  32.595   3.654
47319W        W19634  35.572  14.818  12.023
47320W        W19635  14.102   0.848   1.723
47321W        W19636  35.358  19.152  13.434
47322W        W19637  30.593  17.653  11.966
47323W        W19638  17.275  39.532   4.650
47324W        W19639  33.474   9.255   3.868
47325W        W19640   2.940  19.076  11.611
47326W        W19641   5.802  18.245  11.887
47327W        W19642  20.053  36.064   0.418
47328W        W19643   3.898   9.160   3.835
47329W        W19644  40.880  34.492   0.961
47330W        W19645  26.036  26.611  14.960
47331W        W19646  44.854   0.385  10.927
47332W        W19647  30.474  10.255  11.457
47333W        W19648  34.933  11.783   4.641
47334W        W19649  35.101  32.431   0.765
47335W        W19650   7.410  22.248   1.930
47336W        W19651  27.112  16.586  11.496
47337W        W19652  10.762  16.674  14.007
47338W        W19653  37.494  27.449   2.397
47339W        W19654  28.586  33.531   5.739
47340W        W19655  13.273  28.435   1.409
47341W        W19656  18.151  14.816  13.470
47342W        W19657  39.842   3.397   3.244
47343W        W19658   4.753  21.544   3.149
47344W        W19659  10.224  11.280  14.835
47345W        W19660  35.594  16.737   3.732
47346W        W19661   2.815  11.235  10.606
47347W        W19662  42.291  38.565   3.791
47348W        W19663  31.988  25.070  12.446
47349W        W19664   9.889   9.231   4.314
47350W        W19665  33.005  25.649   1.884
47351W        W19666   6.185  18.197  13.446
47352W        W19667  37.439   2.781   4.661
47353W        W19668  14.146  22.205  12.579
47354W        W19669   3.436  31.929  10.582
47355W        W19670  11.237  15.084  14.503
47356W        W19671  19.198  39.849  12.978
47357W        W19672  13.279   7.203   9.926
47358W        W19673  10.847   2.249   2.868
47359W        W19674  28.624  32.400   0.948
47360W        W19675  12.289  18.134   2.735
47361W        W19676  25.656  20.562  14.768
47362W        W19677  20.237  25.153  10.941
47363W        W19678  38.942  19.230  12.920
47364W        W19679  24.110  43.951  13.371
47365W        W19680  35.475  33.405  14.026
47366W        W19681  10.275  37.353  11.590
47367W        W19682  44.937  41.941  11.048
47368W        W19683  21.653   1.314   4.228
47369W        W19684   1.473  25.679  12.861
47370W        W19685  29.940  34.007   1.831
47371W        W19686  26.596  32.071   2.258
47372W        W19687  17.182  13.202  11.097
47373W        W19688   8.835  20.641   1.340
47374W        W19689  37.989  21.655  11.988
47375W        W19690  40.937  32.078   2.802
47376W        W19691   6.251   2.893   1.726
47377W        W19692   2.730  18.114  13.064
47378W        W19693   2.853  36.864  13.909
47379W        W19694  17.197   5.713   4.231
47380W        W19695  17.301  44.787   2.788
47381W        W19696  20.237  40.029   1.353
47382W        W19697  28.581  17.244  14.998
47383W        W19698   3.816  41.387  14.804
47384W        W19699  24.595   4.218   2.731
47385W        W19700  13.634  20.168  10.404
47386W        W19701   2.883  14.135  12.962
47387W        W19702  42.380  29.568   0.831
47388W        W19703  32.432   5.744   4.274
47389W        W19704  24.624  44.765  14.904
47390W        W19705  34.877  19.250  11.860
47391W        W19706  19.764  21.190   0.258
47392W        W19707  38.416  27.986  11.917
47393W        W19708  23.562  16.199   1.903
47394W        W19709  23.534   6.846  14.985
47395W        W19710  14.206  11.344   1.268
47396W        W19711   0.960  37.064   3.235
47397W        W19712   8.365  24.500  10.975
47398W        W19713   3.433  17.166   1.426
47399W        W19714  24.214  28.492   2.727
47400W        W19715  17.693  35.988   4.782
47401W        W19716  44.941  24.513  11.900
47402W        W19717  13.821  26.985  12.428
47403W        W19718  35.043   9.281  13.324
47404W        W19719  31.041   2.449   3.383
47405W        W19720  15.768  43.436   3.339
47406W        W19721  22.093  27.141   3.851
47407W        W19722  14.701  43.326  14.368
47408W        W19723  11.702  18.704   2.244
47409W        W19724   8.397  14.264  11.451
47410W        W19725  36.024  22.212  11.418
47411W        W19726  31.932  40.464   0.354
47412W        W19727  13.219  31.427  12.901
47413W        W19728  34.524  27.994   2.836
47414W        W19729  28.447  15.294  14.422
47415W        W19730  11.285  20.112   0.482
47416W        W19731  27.634  33.923   0.287
47417W        W19732   1.963  41.822  12.088
47418W        W19733   3.247   1.907   0.323
47419W        W19734   7.316  42.854   0.434
47420W        W19735  41.359  23.102  10.980
47421W        W19736  26.954  43.906   2.756
47422W        W19737  43.959  19.247   1.364
47423W        W19738   5.382  28.680  10.572
47424W        W19739  15.172  22.178   3.635
47425W        W19740  44.792  16.755   1.887
47426W        W19741  39.524  44.937   4.329
47427W        W19742  10.296  33.607  11.599
47428W        W19743  14.643  36.843   2.274
47429W        W19744   1.908  20.177   0.420
47430W        W19745  33.103  44.946   1.846
47431W        W19746  32.440  22.067   0.943
47432W        W19747  42.995  31.094  13.840
47433W        W19748   8.233  22.245  13.343
47434W        W19749  12.849  18.709   1.775
47435W        W19750  40.472  41.371  12.832
47436W        W19751  18.234  21.188  13.418
47437W        W19752  31.624  11.677   0.921
47438W        W19753  16.664  37.930   0.482
47439W        W19754  35.002  23.513   2.182
47440W        W19755  33.058  43.372  11.534
47441W        W19756  39.474  36.861  10.949
47442W        W19757   1.380  38.345   4.129
47443W        W19758  39.553  14.339  11.906
47444W        W19759  24.711  37.392   0.470
47445W        W19760  15.817  31.452  11.514
47446W        W19761  18.279  37.075   1.781
47447W        W19762   2.472  37.886   1.435
47448W        W19763   3.953  32.984  13.934
47449W        W19764  29.520  37.578  14.469
47450W        W19765   6.329  30.617  11.104
47451W        W19766  14.637  21.640   4.677
47452W        W19767  31.128   1.393   4.742
47453W        W19768  41.477  35.054   2.864
47454W        W19769  42.310  34.066   0.299
47455W        W19770  35.427  14.687  10.977
47456W        W19771  33.990   3.832  14.911
47457W        W19772  43.272  33.884  14.867
47458W        W19773   6.244  20.733  14.925
47459W        W19774  28.177  27.536   4.189
47460W        W19775   5.253  18.677  12.849
47461W        W19776  21.036  42.362   3.361
47462W        W19777  44.914  20.178   2.836
47463W        W19778  20.702  38.399  14.497
47464W        W19779   3.404   6.715   1.282
47465W        W19780  39.820  36.085   0.265
47466W        W19781  24.659  39.458  13.402
47467W        W19782  38.524   2.267  10.467
47468W        W19783  15.599  22.567   5.095
47469W        W19784  35.437  41.513  14.315
47470W        W19785  39.446  40.543   4.159
47471W        W19786   4.855  25.520   0.423
47472W        W19787  18.612   8.320   9.936
47473W        W19788   4.326  29.135   4.301
47474W        W19789  35.098  30.936   3.307
47475W        W19790  23.579  13.640  12.871
47476W        W19791  31.938  35.928  10.094
47477W        W19792  18.084   9.155   0.419
47478W        W19793  11.283  18.742   2.675
47479W        W19794   8.702  23.160  13.391
47480W        W19795  42.410  31.401   1.382
47481W        W19796  44.341   1.289  11.592
47482W        W19797  32.627  25.018  13.425
47483W        W19798   7.792  35.099  11.392
47484W        W19799   2.334   5.811   3.775
47485W        W19800  40.517  13.764  13.371
47486W        W19801  16.776  43.925   4.749
47487W        W19802  36.460  21.630   3.749
47488W        W19803   0.884  18.255   0.827
47489W        W19804  20.254   2.340   2.293
47490W        W19805  22.172   0.863   2.852
47491W        W19806  12.342  13.615  12.508
47492W        W19807  35.397  22.646  11.099
47493W        W19808  15.791   8.357  12.894
47494W        W19809  35.975  31.463  14.832
47495W        W19810  16.264   1.475   2.257
47496W        W19811   2.244  34.956  12.986
47497W        W19812   1.244  15.599  13.470
47498W        W19813  35.580  39.324  11.121
47499W        W19814  11.626   6.373  13.025
47500W        W19815  44.964  21.156   3.333
47501W        W19816  36.928  32.036  13.448
47502W        W19817  44.913  13.286   2.235
47503W        W19818  23.560  30.919   3.735
47504W        W19819  42.878  19.233  13.803
47505W        W19820  34.879  11.847  13.491
47506W        W19821  10.707  26.675  14.428
47507W        W19822   4.917  43.511   2.693
47508W        W19823   6.278  24.668  10.996
47509W        W19824  22.203  38.459  13.991
47510W        W19825  10.742  30.963   4.349
47511W        W19826   9.853  30.993   3.695
47512W        W19827  32.427  11.827   1.235
47513W        W19828  27.962  12.656  11.864
47514W        W19829   6.728  13.194   3.663
47515W        W19830  22.706  17.617  12.855
47516W        W19831  14.334  12.679  10.626
47517W        W19832  13.731  26.636  14.006
47518W        W19833   5.709   2.912  13.498
47519W        W19834  44.772  24.666  13.855
47520W        W19835   7.200  25.997  13.992
47521W        W19836  27.687   9.245   2.236
47522W        W19837  26.548  37.461  13.854
47523W        W19838   8.279  12.727  11.957
47524W        W19839   6.306  35.032   2.188
47525W        W19840  10.364  10.670  11.605
47526W        W19841  26.022  13.637   1.774
47527W        W19842  22.044  28.168  12.074
47528W        W19843  23.110  40.352  12.399
47529W        W19844  32.082  38.422   0.448
47530W        W19845  31.908   8.679   1.890
47531W        W19846   1.766  12.217   1.849
47532W        W19847  15.800  22.029  14.328
47533W        W19848  29.534  14.613  12.383
47534W        W19849   7.871   9.705   3.821
47535W        W19850  12.767  41.041  11.916
47536W        W19851  42.960   8.331   0.841
47537W        W19852  20.534  33.616  14.486
47538W        W19853   2.763   2.846  12.851
47539W        W19854   5.740  29.021  10.457
47540W        W19855  20.065   9.804   5.227
47541W        W19856  26.956  24.230  14.856
47542W        W19857  20.738  16.211  12.930
47543W        W19858   9.733   9.874   0.453
47544W        W19859   5.358  11.827   4.784
47545W        W19860   7.828  15.231   3.808
47546W        W19861  10.291   7.790  11.975
47547W        W19862  29.999   8.361   3.215
47548W        W19863  38.061  43.792  14.442
47549W        W19864   6.384  26.614   4.737
47550W        W19865  27.574  32.082   4.304
47551W        W19866  11.814  37.570   1.851
47552W        W19867   2.799  15.709   0.251
47553W        W19868  16.587  24.221  13.869
47554W        W19869  30.111  34.600   1.265
47555W        W19870  35.913  37.437   3.871
47556W        W19871  35.863   9.676  12.895
47557W        W19872  27.989   2.401  10.436
47558W        W19873  12.217  27.072  11.985
47559W        W19874  42.878  34.942   1.235
47560W        W19875  31.628  27.480  11.128
47561W        W19876   3.815   5.368  13.857
47562W        W19877  38.532   6.300  11.514
47563W        W19878  29.491  37.913   0.760
47564W        W19879  34.528  44.361   0.848
47565W        W19880  40.466   2.359   2.733
47566W        W19881  14.618   1.844  13.980
47567W        W19882  31.898  36.382  10.539
47568W        W19883  35.490  18.743  14.404
47569W        W19884  20.170  21.244  12.831
47570W        W19885  38.939  25.030   3.368
47571W        W19886  33.547  36.076   3.759
47572W        W19887  43.405   0.297  11.403
47573W        W19888  22.018  21.090   9.527
47574W        W19889  41.470  10.296  11.383
47575W        W19890   0.333  27.960   4.279
47576W        W19891  14.160  12.706  13.850
47577W        W19892  16.081  10.802  14.892
47578W        W19893  10.841  28.465  10.525
47579W        W19894  37.571  34.094  14.495
47580W        W19895  13.621  44.340   3.309
47581W        W19896  15.716   6.850  10.471
47582W        W19897  29.549  22.708  12.067
47583W        W19898   2.445  36.356  13.011
47584W        W19899  27.163  35.557  11.856
47585W        W19900  30.613   7.813   3.320
47586W        W19901  17.592  25.707   2.878
47587W        W19902  13.612   1.369   1.857
47588W        W19903  28.516   1.947  12.508
47589W        W19904  31.544  42.852  14.961
47590W        W19905  10.855  14.743  14.940
47591W        W19906   1.878  27.113   2.882
47592W        W19907  28.094   0.913   1.779
47593W        W19908  43.376  15.730   1.269
47594W        W19909  18.263  37.485   4.237
47595W        W19910  32.584   4.383   3.855
47596W        W19911  22.527  17.711   0.321
47597W        W19912  12.636  37.477   4.822
47598W        W19913  13.806  34.118  14.334
47599W        W19914   8.230   6.904  13.526
47600W        W19915  18.244  22.194  12.853
47601W        W19916  25.182  31.136   4.763
47602W        W19917  29.108  32.503   2.748
47603W        W19918  33.031  21.060   1.219
47604W        W19919  32.067  38.383   3.210
47605W        W19920  12.829  44.283   3.743
47606W        W19921  34.415  32.596   2.248
47607W        W19922  32.029  14.671   1.908
47608W        W19923  40.016  26.081  12.070
47609W        W19924  37.039  15.311   3.657
47610W        W19925   0.812   5.256   2.185
47611W        W19926  29.969  26.961  10.523
47612W        W19927   2.255   5.206   0.269
47613W        W19928   0.974  44.002   0.925
47614W        W19929  43.367  25.077   2.814
47615W        W19930  22.201  18.609   2.318
47616W        W19931  39.548  42.395  13.034
47617W        W19932  25.627  12.295  13.972
47618W        W19933  31.416  27.631   3.205
47619W        W19934  35.590  42.328  14.895
47620W        W19935  30.601  17.304   2.354
47621W        W19936  17.156  22.186   4.256
47622W        W19937  40.407   4.715   3.190
47623W        W19938   5.309  33.597  14.990
47624W        W19939  13.208  35.974  11.567
47625W        W19940   7.885  28.465   1.783
47626W        W19941  28.035  44.788  10.957
47627W        W19942  11.784  21.168  13.974
47628W        W19943  14.177  33.489   2.394
47629W        W19944  19.073  11.273   2.271
47630W        W19945  43.501   0.847   2.294
47631W        W19946  23.203  42.017   3.730
47632W        W19947  24.200  30.955   1.345
47633W        W19948   0.966   5.723   0.838
47634W        W19949  28.088  11.181  14.912
47635W        W19950  13.279  29.566  13.364
47636W        W19951  38.012  39.869  13.829
47637W        W19952  13.301  23.505  11.382
47638W        W19953  12.622   0.934  12.042
47639W        W19954   1.846  44.762   4.201
47640W        W19955  14.167  13.114  14.791
47641W        W19956   2.386   5.925  10.454
47642W        W19957  19.607  43.963  11.416
47643W        W19958   0.383  28.586  11.454
47644W        W19959   5.759   5.303  14.868
47645W        W19960  19.049  42.423  11.914
47646W        W19961  32.999  32.140   1.811
47647W        W19962  28.015   3.360  13.869
47648W        W19963  40.314  18.649   2.903
47649W        W19964  33.945  10.354  11.039
47650W        W19965  28.498   6.343   4.755
47651W        W19966  35.447  13.152   2.376
47652W        W19967  13.623  13.739  14.916
47653W        W19968  36.386  34.553   2.411
47654W        W19969  43.923  39.451   0.326
47655W        W19970  15.594  13.196   3.318
47656W        W19971  12.724  12.325   2.785
47657W        W19972  12.751  37.405   1.308
47658W        W19973  13.259  10.654   2.401
47659W        W19974  20.616   6.883   1.816
47660W        W19975  26.668  12.267   3.286
47661W        W19976   4.319  36.038  11.425
47662W        W19977  35.938  43.342   1.731
47663W        W19978   6.688  15.730  13.899
47664W        W19979  34.992  38.963  14.998
47665W        W19980  43.869  31.896   2.673
47666W        W19981  35.452  13.661  11.449
47667W        W19982  22.224  25.662   4.186
47668W        W19983  28.960   0.331  14.317
47669W        W19984  43.351  44.480  12.888
47670W        W19985  27.571  41.419   2.796
47671W        W19986  19.709   9.721  14.362
47672W        W19987  10.806   3.874  12.067
47673W        W19988  23.106  11.715   0.895
47674W        W19989  41.936  12.808  11.104
47675W        W19990   1.265   8.244  14.379
47676W        W19991  20.046   1.900   1.213
47677W        W19992  24.087  36.842  13.001
47678W        W19993   0.258  21.732  12.364
47679W        W19994   7.183   6.252   0.362
47680W        W19995  14.141  41.020  11.517
47681W        W19996  27.522   3.918   2.890
47682W        W19997   3.889  19.196   0.310
47683W        W19998  30.076  18.250   2.732
47684W        W19999  27.655  31.546  13.339
47685W        W20000  31.552  11.272   0.881
47686W        W20001  22.154   0.862  10.458
47687W        W20002  39.393   1.959  13.940
47688W        W20003  14.177  13.141  11.499
47689W        W20004  23.110  27.670   3.214
47690W        W20005  42.950  34.556  14.286
47691W        W20006  18.116  41.996  10.429
47692W        W20007  26.646   1.970  14.286
47693W        W20008   5.374   9.171   4.261
47694W        W20009   3.273  31.977  11.891
47695W        W20010  38.424  43.402  14.399
47696W        W20011  13.701  21.092   3.306
47697W        W20012   1.301  19.617  14.795
47698W        W20013   9.357   9.316   3.180
47699W        W20014  14.238  10.305   2.856
47700W        W20015  19.710   0.827  12.903
47701W        W20016  31.514   6.877  12.404
47702W        W20017  30.640  14.764  13.473
47703W        W20018  14.273  29.134   0.322
47704W        W20019  12.291   6.252  10.515
47705W        W20020  13.664  44.916   0.413
47706W        W20021  27.102  15.736   9.980
47707W        W20022   1.458  40.466  13.930
47708W        W20023  10.257  39.890  13.436
47709W        W20024  12.761  31.988  11.981
47710W        W20025  15.699  38.944  14.018
47711W        W20026  20.181  25.100  11.563
47712W        W20027  18.278  33.035  14.337
47713W        W20028   3.292  19.210  14.815
47714W        W20029   3.234  13.770  14.347
47715W        W20030  39.843  39.473   0.480
47716W        W20031  36.989   7.285   4.630
47717W        W20032  10.816  30.992  13.927
47718W        W20033   8.263  29.549  12.937
47719W        W20034  39.996   9.261   2.674
47720W        W20035   1.883   9.661   3.351
47721W        W20036  14.222   9.340  13.799
47722W        W20037   3.904  33.129  13.333
47723W        W20038  36.089  38.366   3.651
47724W        W20039   5.343   9.832  13.367
47725W        W20040  13.622  23.688  13.518
47726W        W20041   0.494   8.352   1.264
47727W        W20042  24.172  23.068  12.931
47728W        W20043  31.640  16.606   0.864
47729W        W20044  37.925  15.287  14.788
47730W        W20045  25.498  38.939  10.976
47731W        W20046  33.524  22.038   4.130
47732W        W20047   9.277  11.244  10.912
47733W        W20048  15.274  34.073  12.006
47734W        W20049  37.476  10.712  11.553
47735W        W20050  14.281  18.756   4.270
47736W        W20051   4.818  16.797   2.329
47737W        W20052  13.749  26.107  12.403
47738W        W20053  15.711  40.386  10.091
47739W        W20054  34.896  25.205  12.411
47740W        W20055  32.013   7.360  11.464
47741W        W20056  23.100  30.975   4.795
47742W        W20057  38.886   2.810   0.322
47743W        W20058  41.896  29.658  13.806
47744W        W20059  40.978  21.149  10.433
47745W        W20060  16.313  23.100   3.735
47746W        W20061  39.472  38.353  14.809
47747W        W20062   5.731  10.716  11.893
47748W        W20063  18.580   6.783   3.301
47749W        W20064   1.771  21.688  11.043
47750W        W20065   0.906  21.017   9.992
47751W        W20066  41.040  22.251  13.398
47752W        W20067  14.137  20.602   2.195
47753W        W20068   1.252  33.524   1.395
47754W        W20069   7.304   8.218  11.020
47755W        W20070   1.323  33.101  12.559
47756W        W20071   9.223   2.878  13.403
47757W        W20072   0.877  36.508   3.801
47758W        W20073  11.670  42.514   2.870
47759W        W20074  40.945  33.594   2.263
47760W        W20075  19.777   3.226  11.535
47761W        W20076  21.665  17.576   1.264
47762W        W20077  34.931  22.659  11.062
47763W        W20078  23.581  21.556   0.927
47764W        W20079   1.261  13.341   3.359
47765W        W20080  40.383  12.796   4.837
47766W        W20081  28.548  27.158  10.966
47767W        W20082   9.885  44.777  12.858
47768W        W20083  17.693  21.733  10.890
47769W        W20084  21.135  29.125   4.223
47770W        W20085  34.533  36.380  11.435
47771W        W20086  41.457  37.473  11.598
47772W        W20087  39.394  14.111   1.928
47773W        W20088   7.205  28.496  10.908
47774W        W20089   6.895  38.037  11.519
47775W        W20090   2.792  33.087   4.759
47776W        W20091  33.116  19.578   4.308
47777W        W20092  33.590  12.291  10.465
47778W        W20093  29.591  38.829   3.169
47779W        W20094   2.763  24.228  14.294
47780W        W20095  41.928  28.662  13.001
47781W        W20096  14.227  30.525   3.632
47782W        W20097  26.479  26.525  13.861
47783W        W20098  29.630  22.033  14.461
47784W        W20099  38.361  44.369  12.982
47785W        W20100  44.985  14.330   3.356
47786W        W20101  40.514  12.119  10.429
47787W        W20102  39.875  14.641   3.231
47788W        W20103  44.803  25.652   3.718
47789W        W20104  39.868  16.181  11.436
47790W        W20105  20.690  16.720   1.899
47791W        W20106  12.213  16.293  10.480
47792W        W20107  35.866  10.376   3.325
47793W        W20108  14.724   8.832  14.383
47794W        W20109  42.809  20.564  11.873
47795W        W20110   1.930  22.161  13.524
47796W        W20111   6.748  35.482  14.319
47797W        W20112  43.964   6.791   0.807
47798W        W20113  41.905   6.802   0.913
47799W        W20114  37.349  42.471  14.388
47800W        W20115  40.049  13.688   4.349
47801W        W20116  36.509  10.371   0.271
47802W        W20117   1.949  38.979   1.839
47803W        W20118   5.406  38.868   1.211
47804W        W20119  12.171  15.788   3.809
47805W        W20120   9.677  36.362   2.709
47806W        W20121  26.961  28.440   0.818
47807W        W20122  27.170   8.373   1.837
47808W        W20123  38.337   6.194   2.867
47809W        W20124  28.987  24.633  13.036
47810W        W20125  19.684  17.255   3.161
47811W        W20126   6.694  41.434  14.355
47812W        W20127  39.499  41.373   1.932
47813W        W20128  23.131  29.112  14.404
47814W        W20129  35.010   9.811  11.995
47815W        W20130  38.339  20.553  12.867
47816W        W20131  26.524  12.847  14.379
47817W        W20132  44.300  38.926   3.283
47818W        W20133  15.714  11.775  13.514
47819W        W20134  18.068  25.554  12.895
47820W        W20135  26.189  11.161  11.067
47821W        W20136  26.459  14.213   5.281
47822W        W20137  18.286  30.064   0.855
47823W        W20138  26.981  20.717  13.857
47824W        W20139   0.397   0.274  12.866
47825W        W20140  28.170   3.933   9.480
47826W        W20141  13.793   5.309   3.294
47827W        W20142   3.864  38.390   0.347
47828W        W20143  15.181  42.430   1.406
47829W        W20144  18.123   6.845   1.216
47830W        W20145  28.967   6.686   3.302
47831W        W20146   6.734  20.708   3.750
47832W        W20147  25.973  28.439  11.394
47833W        W20148   4.448  21.232   1.721
47834W        W20149  35.079  39.891   4.344
47835W        W20150  21.259  10.182   4.230
47836W        W20151  31.933  29.019  13.465
47837W        W20152  14.298  32.445  14.426
47838W        W20153  41.503  37.537   2.269
47839W        W20154  26.119   3.847   1.384
47840W        W20155  44.779   5.784  13.404
47841W        W20156  16.726   3.431  12.878
47842W        W20157  34.492  24.081   3.351
47843W        W20158  16.227  23.208  14.865
47844W        W20159  27.043   5.298  13.884
47845W        W20160  20.165   0.335  12.998
47846W        W20161  36.441  41.303  14.773
47847W        W20162   5.699  10.186   2.812
47848W        W20163  19.072   7.390  10.524
47849W        W20164   7.227   6.771   3.835
47850W        W20165  17.109  21.728   3.154
47851W        W20166  16.722  35.392   3.307
47852W        W20167  13.729  12.623  14.948
47853W        W20168  25.060   7.874  13.487
47854W        W20169  24.173  19.207   4.327
47855W        W20170  33.392   9.856   0.880
47856W        W20171   7.748  32.391  11.490
47857W        W20172  23.615  32.017  11.894
47858W        W20173  33.422  22.099   1.449
47859W        W20174  16.122  14.188   4.692
47860W        W20175  15.113  29.956   4.810
47861W        W20176  30.042  15.751   3.870
47862W        W20177  41.869   9.691  10.571
47863W        W20178  44.927   0.383   2.238
47864W        W20179  13.349  13.197   1.784
47865W        W20180   9.796   9.682   3.694
47866W        W20181  36.870  24.711  13.522
47867W        W20182  18.194  38.457   2.273
47868W        W20183  35.968   9.703   4.178
47869W        W20184   9.887  27.185  10.982
47870W        W20185  34.886  20.642  11.446
47871W        W20186   6.817  21.182   4.225
47872W        W20187  29.547  43.776   0.912
47873W        W20188  29.017  19.700   2.677
47874W        W20189  21.219  39.389  14.928
47875W        W20190  36.533  42.423  11.060
47876W        W20191   4.302  32.050   2.708
47877W        W20192   4.776  27.173   5.239
47878W        W20193  34.897   7.665  13.815
47879W        W20194  30.428  11.622   3.726
47880W        W20195   6.393  24.716  13.797
47881W        W20196  33.107  10.212  11.574
47882W        W20197  38.068   9.249   2.869
47883W        W20198  18.291   5.265   0.464
47884W        W20199  36.927   8.838  13.345
47885W        W20200   8.868  34.925  13.957
47886W        W20201   4.708  12.246   4.208
47887W        W20202  10.371  30.560  11.887
47888W        W20203  42.340  34.010  14.883
47889W        W20204  31.563  21.618  13.007
47890W        W20205  25.480  36.918  11.575
47891W        W20206  10.283  10.809  14.274
47892W        W20207   8.377  38.559  10.409
47893W        W20208  29.978  43.807   2.278
47894W        W20209  16.787  37.567  14.464
47895W        W20210  37.003  11.625  10.453
47896W        W20211  18.675  21.228  13.830
47897W        W20212  17.731   6.794  13.393
47898W        W20213  17.252  11.357   4.235
47899W        W20214   2.840  15.703   0.881
47900W        W20215  17.151  42.946   2.260
47901W        W20216  18.088  10.706   4.209
47902W        W20217  43.972  22.644  10.890
47903W        W20218  17.676  43.001   1.362
47904W        W20219  20.264  30.505  14.362
47905W        W20220  17.222  28.975   3.810
47906W        W20221  21.072  30.132  11.961
47907W        W20222   5.276  11.824   2.289
47908W        W20223   9.273  21.682   3.191
47909W        W20224   8.379  29.009  11.931
47910W        W20225   0.247  34.112  10.488
47911W        W20226  41.998  24.048  10.912
47912W        W20227  19.731   2.950   1.350
47913W        W20228   0.869   6.896  13.337
47914W        W20229  34.432  34.004   3.229
47915W        W20230  27.449  39.853   2.214
47916W        W20231  31.444   8.321   0.244
47917W        W20232  44.439  35.081  13.843
47918W        W20233  32.892  29.105  11.871
47919W        W20234  30.582  24.170   1.863
47920W        W20235  19.623  29.108  14.502
47921W        W20236  38.426  21.228  13.354
47922W        W20237  28.959  26.489  13.929
47923W        W20238  21.257  17.291   0.945
47924W        W20239   6.273  18.234   4.638
47925W        W20240  33.516  22.018  13.953
47926W        W20241  31.549  40.940  13.343
47927W        W20242  30.424  23.675   2.802
47928W        W20243   0.332  21.736   4.610
47929W        W20244  21.248  12.174   4.161
47930W        W20245  23.641  22.617  11.436
47931W        W20246  17.696  37.511   4.716
47932W        W20247   5.337  41.498   0.943
47933W        W20248  39.510   1.763   1.822
47934W        W20249  36.869  26.084   0.346
47935W        W20250  43.831  35.523  11.531
47936W        W20251  21.542  11.283  14.348
47937W        W20252  28.158   9.169  11.073
47938W        W20253  15.161   6.395  13.311
47939W        W20254  43.432  30.549   5.098
47940W        W20255  33.419  15.699   2.695
47941W        W20256  35.445  15.822  14.511
47942W        W20257  43.511   5.410   3.359
47943W        W20258  43.766  37.063   0.895
47944W        W20259  14.631  12.675  14.370
47945W        W20260  35.906  20.248  12.457
47946W        W20261   8.296  44.817  10.486
47947W        W20262  35.443  39.539   2.215
47948W        W20263  28.060  23.208   2.243
47949W        W20264  28.943  31.133  13.942
47950W        W20265  37.987   3.452   0.781
47951W        W20266  36.518  32.077   0.314
47952W        W20267   0.987  34.428   0.325
47953W        W20268   9.200  18.714   3.758
47954W        W20269   1.978   3.352  14.283
47955W        W20270  19.242  42.388  12.520
47956W        W20271  20.648   5.410  11.053
47957W        W20272  36.918  42.506   3.229
47958W        W20273  12.792  28.966  13.392
47959W        W20274  32.126   1.955  13.527
47960W        W20275  42.920  16.602  14.432
47961W        W20276   6.209  40.844  11.482
47962W        W20277   7.862  31.592   1.912
47963W        W20278  41.395  31.073   1.719
47964W        W20279   6.912   4.833  11.863
47965W        W20280  41.039  22.724   4.322
47966W        W20281   1.420  30.461   4.767
47967W        W20282  33.621  22.079   0.830
47968W        W20283  24.535   1.740   4.777
47969W        W20284  29.666  22.601  11.401
47970W        W20285  38.442  18.567   1.403
47971W        W20286  18.723   6.857  10.553
47972W        W20287  30.482   3.793   3.789
47973W        W20288  18.564  15.122  14.370
47974W        W20289  23.991   2.233   3.222
47975W        W20290  29.624  35.885   9.921
47976W        W20291  43.943  27.544   3.260
47977W        W20292  44.410   9.278  14.878
47978W        W20293  38.849   7.391  11.121
47979W        W20294  21.063   3.254   2.302
47980W        W20295  44.378  39.557  11.385
47981W        W20296  17.566  16.592  14.848
47982W        W20297  30.997   5.224   2.710
47983W        W20298  26.100  25.519   3.387
47984W        W20299  22.142  36.437  10.476
47985W        W20300  25.962  11.859  14.328
47986W        W20301   3.778  39.397   0.246
47987W        W20302  37.338  29.126  14.865
47988W        W20303   4.402   2.883  10.629
47989W        W20304   0.454  15.638   1.373
47990W        W20305  36.460  32.635   0.385
47991W        W20306  27.954  27.037   3.324
47992W        W20307  41.503  24.640   2.309
47993W        W20308  35.556  22.160  11.549
47994W        W20309  31.056  44.769  11.380
47995W        W20310   3.770  18.116   3.731
47996W        W20311  30.997  22.151  12.431
47997W        W20312  13.796  19.647   2.363
47998W        W20313   9.297   2.777  12.920
47999W        W20314  40.798  24.094   2.866
48000W        W20315  41.003  33.937   4.607
48001W        W20316  23.607  10.873   2.750
48002W        W20317  31.927  24.134  12.385
48003W        W20318  14.668  22.740   0.248
48004W        W20319  19.274  13.166   4.688
48005W        W20320   1.415   4.381  12.866
48006W        W20321  19.697  44.799  14.925
48007W        W20322  34.474  43.965   3.333
48008W        W20323   8.354  32.041  14.449
48009W        W20324  26.557  36.974   0.250
48010W        W20325  40.387   2.846  13.853
48011W        W20326  37.011   9.179   3.715
48012W        W20327  39.996  29.109  13.051
48013W        W20328  39.426  10.811   4.264
48014W        W20329  11.160   4.407  14.276
48015W        W20330   9.752  28.054   1.360
48016W        W20331  38.559   8.273  12.474
48017W        W20332  33.582  43.901  14.444
48018W        W20333  26.988  17.793   2.745
48019W        W20334  33.434   5.814   0.463
48020W        W20335   2.769  25.659  14.970
48021W        W20336   0.395  13.166  10.557
48022W        W20337  15.272  13.733   2.845
48023W        W20338  11.695   1.801   9.964
48024W        W20339  10.218  17.301   1.744
48025W        W20340   5.260  22.669  14.385
48026W        W20341   6.281  13.688  12.849
48027W        W20342  38.557  13.205   3.817
48028W        W20343  35.492  22.220  12.494
48029W        W20344  10.171  16.641   0.778
48030W        W20345  24.149  22.143  11.063
48031W        W20346  37.983  34.918   0.758
48032W        W20347  39.418   2.270  14.310
48033W        W20348  37.973  35.950  12.436
48034W        W20349   6.187  40.512   1.779
48035W        W20350  42.795   5.897  13.470
48036W        W20351   3.226  40.848   2.751
48037W        W20352  23.188   9.761  11.033
48038W        W20353  39.880  29.531   1.403
48039W        W20354  13.171  26.567  13.328
48040W        W20355  21.033  24.048   3.220
48041W        W20356  26.067  32.892   5.178
48042W        W20357  23.157   0.953   4.661
48043W        W20358  18.258   6.688  10.498
48044W        W20359  12.262   1.364   2.804
48045W        W20360   9.175  17.618  12.494
48046W        W20361   5.872  43.889  12.484
48047W        W20362  35.942  32.960   0.248
48048W        W20363  10.382  43.280  11.554
48049W        W20364  24.627  24.052  10.433
48050W        W20365  11.626  37.957   4.723
48051W        W20366  24.594  25.488  11.059
48052W        W20367  42.983  14.623   5.302
48053W        W20368   4.846  29.471   3.656
48054W        W20369  25.200   4.369   2.299
48055W        W20370  40.937  11.158   0.242
48056W        W20371  42.347  12.767  12.367
48057W        W20372  41.486  17.791  14.390
48058W        W20373  33.110  12.775   0.773
48059W        W20374  31.448   5.879   2.319
48060W        W20375  23.496   5.751  14.435
48061W        W20376  25.039  17.187  10.560
48062W        W20377  44.463  30.018   0.781
48063W        W20378  25.972  35.556   4.209
48064W        W20379  21.527   1.769  14.930
48065W        W20380  11.135   0.922   1.694
48066W        W20381  23.037  41.818   2.759
48067W        W20382  16.634  16.319  10.891
48068W        W20383   8.705  34.066   1.408
48069W        W20384   6.723   8.801   1.786
48070W        W20385  39.354   8.202   1.216
48071W        W20386  18.704  36.943   4.682
48072W        W20387  28.594  28.004  14.475
48073W        W20388   0.849  28.929  12.003
48074W        W20389  29.536   4.344  14.365
48075W        W20390  23.119   4.760  13.006
48076W        W20391  38.865   1.426  14.988
48077W        W20392   7.378  42.400  13.462
48078W        W20393   0.861  15.680  14.911
48079W        W20394  26.036   8.731   2.670
48080W        W20395  39.854   5.384  10.635
48081W        W20396   0.446   4.233   1.254
48082W        W20397   2.466  11.339   3.713
48083W        W20398   7.734  28.178   2.200
48084W        W20399   9.686  28.112  14.395
48085W        W20400  38.519  30.084  14.944
48086W        W20401  23.584  34.605  13.444
48087W        W20402   9.772   2.963   0.283
48088W        W20403  37.833  21.093   4.271
48089W        W20404  44.890   6.186   4.282
48090W        W20405  35.002   4.238   1.875
48091W        W20406  41.012  27.645   2.210
48092W        W20407  23.188  25.205  11.041
48093W        W20408  30.950   4.309   3.160
48094W        W20409  25.681  29.475  13.427
48095W        W20410  32.585   1.768  11.856
48096W        W20411  15.108  19.049  11.395
48097W        W20412   0.963  43.358  14.341
48098W        W20413  34.015  13.205  13.423
48099W        W20414  35.977  36.424   3.369
48100W        W20415  39.875   8.337  10.446
48101W        W20416  22.045  20.625   0.848
48102W        W20417  18.088  29.622   2.852
48103W        W20418  33.501   7.367   5.149
48104W        W20419   3.874  17.273  13.316
48105W        W20420  19.098   7.837   1.717
48106W        W20421  39.409  26.959  13.964
48107W        W20422   6.321  26.479   3.332
48108W        W20423  26.985  39.877  14.938
48109W        W20424  16.584  31.506   0.794
48110W        W20425  20.052  38.446   9.447
48111W        W20426  24.096   7.719   0.909
48112W        W20427  31.611  32.026   1.783
48113W        W20428  13.126   9.825   3.701
48114W        W20429  12.735   4.887  11.890
48115W        W20430  29.546   2.955  11.400
48116W        W20431   2.329  12.126   4.662
48117W        W20432  25.172   0.470   2.681
48118W        W20433  42.011  32.542  11.118
48119W        W20434  22.531  28.110   0.750
48120W        W20435   3.914   6.786  12.069
48121W        W20436   6.376  10.369   2.885
48122W        W20437  37.510  10.781  14.793
48123W        W20438  36.958   0.469  11.564
48124W        W20439  35.555  35.531  14.362
48125W        W20440   8.174  10.241  13.855
48126W        W20441   4.856  42.977  10.003
48127W        W20442  21.212  36.353   1.273
48128W        W20443   8.168   6.677   2.672
48129W        W20444  34.967  26.557  10.442
48130W        W20445  43.775  24.997   0.942
48131W        W20446   9.174  29.615  10.404
48132W        W20447  11.361  34.421   0.929
48133W        W20448   0.810  10.645   3.318
48134W        W20449  36.437   2.794  12.394
48135W        W20450  18.588  11.215  14.494
48136W        W20451  19.559  33.560   1.911
48137W        W20452  16.172  33.456  13.898
48138W        W20453   4.711  30.921  10.479
48139W        W20454  18.579  17.209  12.413
48140W        W20455   3.301   8.838  11.855
48141W        W20456  44.891  30.926   4.311
48142W        W20457   8.197  35.398   3.183
48143W        W20458  38.010  24.576   1.333
48144W        W20459   0.961   7.886  12.386
48145W        W20460  20.165  32.029   2.226
48146W        W20461  26.164   4.866   3.746
48147W        W20462  23.005  21.150   1.323
48148W        W20463  14.227  43.477   2.367
48149W        W20464  16.624  12.286   1.891
48150W        W20465   1.282  27.627  12.018
48151W        W20466   0.903   1.307  12.012
48152W        W20467  28.439   8.818   0.443
48153W        W20468  23.678  27.970  10.419
48154W        W20469  39.050  12.715  11.015
48155W        W20470  15.321   9.352   4.162
48156W        W20471  28.102  30.521  10.481
48157W        W20472  27.498  43.995   0.905
48158W        W20473  37.877  22.678   2.254
48159W        W20474  24.710  22.007   4.686
48160W        W20475  20.648  11.656  13.832
48161W        W20476   2.961   6.407  13.499
48162W        W20477  38.455  31.638  10.408
48163W        W20478  31.090  31.462  13.530
48164W        W20479  32.906  30.921  10.466
48165W        W20480  31.978  26.988  14.004
48166W        W20481  11.676  14.236   5.290
48167W        W20482  24.524  31.067   3.786
48168W        W20483  17.097  30.034   0.750
48169W        W20484  17.698  23.080   2.878
48170W        W20485   7.856  39.430  14.991
48171W        W20486  37.413   0.840   3.315
48172W        W20487  24.016   2.399   1.795
48173W        W20488  37.087  13.326   0.361
48174W        W20489   5.782   4.784   2.689
48175W        W20490  36.083  14.783   3.224
48176W        W20491  16.674  20.200  12.055
48177W        W20492  11.357  27.133  13.936
48178W        W20493   5.759  31.013  11.056
48179W        W20494   8.301   7.699  13.411
48180W        W20495  25.522  41.423  14.903
48181W        W20496  30.117  19.616  14.366
48182W        W20497  44.270  23.661  12.498
48183W        W20498  12.233  13.141  13.911
48184W        W20499   1.248  35.913  12.953
48185W        W20500   8.792   4.294   0.962
48186W        W20501  10.182  35.436   2.324
48187W        W20502  12.267  38.006  14.858
48188W        W20503  26.657  40.429  14.339
48189W        W20504  43.489  20.193   1.776
48190W        W20505  36.435  31.532   0.444
48191W        W20506  44.874  30.122   0.245
48192W        W20507  30.430  10.684   0.845
48193W        W20508  26.519   0.983   2.271
48194W        W20509  33.381  43.827  13.832
48195W        W20510  40.935   1.481  12.040
48196W        W20511   5.232  31.918  10.980
48197W        W20512  21.559   1.915   2.759
48198W        W20513  10.325  26.625   1.449
48199W        W20514  13.634   9.249  10.431
48200W        W20515   0.888  35.947  10.620
48201W        W20516  27.521  35.549  14.408
48202W        W20517  19.606   5.751  14.023
48203W        W20518  17.081  21.158  12.840
48204W        W20519  13.736  17.641   0.952
48205W        W20520  26.555  16.602   3.198
48206W        W20521   4.252  39.473   0.431
48207W        W20522  36.549  33.952   4.685
48208W        W20523  40.881  14.173   1.398
48209W        W20524  19.195  40.890   1.768
48210W        W20525  13.130  36.586  12.958
48211W        W20526  13.644  42.943  14.806
48212W        W20527  31.120  19.772  11.421
48213W        W20528  39.879  28.997   4.256
48214W        W20529  14.822  28.066  11.564
48215W        W20530  23.155   7.687  14.921
48216W        W20531  34.455  34.878  11.592
48217W        W20532  23.687  15.264   1.280
48218W        W20533  35.497  35.043  13.883
48219W        W20534  33.536  13.745  13.813
48220W        W20535  38.997   7.670   1.739
48221W        W20536  11.189  29.013   2.403
48222W        W20537  39.921  28.678  12.069
48223W        W20538  18.125   0.446  10.481
48224W        W20539  31.449  34.082   4.613
48225W        W20540  41.512  30.424   4.124
48226W        W20541  10.325  36.924  14.832
48227W        W20542   2.427  18.623  10.452
48228W        W20543  33.944  19.777  14.388
48229W        W20544  22.106  41.044  14.967
48230W        W20545  35.913  14.180   0.269
48231W        W20546   9.289  33.577   1.323
48232W        W20547  20.683   2.316  12.433
48233W        W20548  38.417  33.953   2.725
48234W        W20549  40.920  37.021  10.556
48235W        W20550  15.824  26.021  12.853
48236W        W20551   0.855  36.911  12.076
48237W        W20552  23.643  20.718  10.533
48238W        W20553  29.580   4.225   4.352
48239W        W20554  39.895  29.463  14.018
48240W        W20555  42.891   0.264   3.828
48241W        W20556   1.773  39.450   3.820
48242W        W20557   1.365  11.239   2.766
48243W        W20558  37.937  26.701  13.986
48244W        W20559  19.161  43.824   1.310
48245W        W20560  17.732  22.689  13.410
48246W        W20561  29.527  36.398   4.668
48247W        W20562  44.461   7.340  10.140
48248W        W20563  10.360  15.266  10.549
48249W        W20564  33.059   5.885  12.998
48250W        W20565  18.122  41.310   0.852
48251W        W20566  19.536  11.235   5.271
48252W        W20567   3.283  37.053  13.422
48253W        W20568   5.247  26.203   1.312
48254W        W20569  27.102  43.774  12.370
48255W        W20570  42.413  31.569   1.852
48256W        W20571  12.326  41.305   0.845
48257W        W20572  36.393  30.585   0.948
48258W        W20573  23.102  18.148  11.437
48259W        W20574  32.006  27.466   0.426
48260W        W20575  22.025   4.402   4.320
48261W        W20576  13.275  15.243  11.999
48262W        W20577  15.090  42.960  12.037
48263W        W20578  38.056  23.600  12.903
48264W        W20579  22.679  16.230  12.522
48265W        W20580  18.559  37.966   3.833
48266W        W20581  40.805  18.663   4.307
48267W        W20582  14.748  22.506  12.495
48268W        W20583  43.348  19.197   4.607
48269W        W20584  10.875  40.324   0.388
48270W        W20585  26.475  16.303   3.146
48271W        W20586  25.119  38.528  11.051
48272W        W20587  23.986  42.523   0.424
48273W        W20588  21.742  22.557   4.146
48274W        W20589  25.549  20.260   0.330
48275W        W20590  43.815  33.955  12.060
48276W        W20591  36.898  26.079   4.794
48277W        W20592  34.088  40.892   0.280
48278W        W20593  43.922  11.245  10.894
48279W        W20594  39.898  15.202   0.393
48280W        W20595  42.452  30.626   1.838
48281W        W20596  14.801  14.310   4.116
48282W        W20597  10.836  40.366  11.036
48283W        W20598  18.763  31.115  10.989
48284W        W20599  39.932  27.057   0.906
48285W        W20600  30.633   0.761  13.883
48286W        W20601  30.066  10.315  13.359
48287W        W20602  19.097  42.361   1.289
48288W        W20603   1.397  10.182  12.040
48289W        W20604  36.521  24.572   4.711
48290W        W20605  28.632  34.009   5.228
48291W        W20606  43.426   9.734   4.299
48292W        W20607  21.633  11.256   1.241
48293W        W20608   9.686  43.840   4.216
48294W        W20609  43.013  28.036  11.043
48295W        W20610  44.957  15.298  13.330
48296W        W20611   2.239  11.804  10.980
48297W        W20612  31.128   4.323  13.841
48298W        W20613  25.475  32.020  10.616
48299W        W20614  13.185  14.827   3.162
48300W        W20615  26.473  34.864  11.396
48301W        W20616  44.393  22.047  13.955
48302W        W20617  44.885   2.961   2.300
48303W        W20618  35.376   3.734   0.771
48304W        W20619  24.019   8.205   1.883
48305W        W20620  11.288  12.118   2.339
48306W        W20621  37.542  25.966  12.418
48307W        W20622  43.767  16.200   4.663
48308W        W20623  28.010  13.138   0.894
48309W        W20624  12.837  12.658   1.220
48310W        W20625  14.774  20.273   0.798
48311W        W20626  17.708  32.934  13.870
48312W        W20627  39.010  10.830   4.146
48313W        W20628  22.035  12.707   0.851
48314W        W20629  37.442   1.341   2.776
48315W        W20630  30.922  16.277  14.983
48316W        W20631  22.189  39.367   4.334
48317W        W20632  21.048   6.895   0.307
48318W        W20633  38.567  25.971  12.887
48319W        W20634  16.073  20.630   1.378
48320W        W20635  22.037  28.959  10.522
48321W        W20636  27.514   0.912  10.536
48322W        W20637  22.701  36.897  12.342
48323W        W20638   5.712  42.859   0.816
48324W        W20639  39.432  35.094  14.343
48325W        W20640  20.698  17.175  11.032
48326W        W20641   9.834   8.405  13.453
48327W        W20642  28.115  24.607  11.473
48328W        W20643  41.516   7.670   4.790
48329W        W20644   4.943  18.631   1.362
48330W        W20645  38.045  31.958   0.839
48331W        W20646  34.593  18.754  13.370
48332W        W20647  44.979  11.242   1.798
48333W        W20648  42.793  34.384  13.909
48334W        W20649  20.753  21.047  11.987
48335W        W20650  15.137   1.358  14.868
48336W        W20651   0.807  13.152   3.187
48337W        W20652   7.248  12.312  13.984
48338W        W20653  15.724  11.707   1.314
48339W        W20654  16.110   2.909   3.336
48340W        W20655  40.489  17.775   1.236
48341W        W20656   5.385  28.672   4.674
48342W        W20657  34.064  28.063   3.193
48343W        W20658  13.195   0.850  13.419
48344W        W20659  26.658  17.637   3.752
48345W        W20660  14.280  18.654   0.340
48346W        W20661   7.253  30.129   4.695
48347W        W20662  12.617  31.489   2.397
48348W        W20663   9.176  11.645   4.326
48349W        W20664  12.242   0.429   3.686
48350W        W20665  14.169  31.057  10.522
48351W        W20666  43.476   8.330  11.496
48352W        W20667  26.558  34.374   2.790
48353W        W20668  18.155  39.458   3.215
48354W        W20669  13.633  27.517  10.606
48355W        W20670   5.747  19.780  11.480
48356W        W20671  43.949  39.947  13.322
48357W        W20672  17.629   4.238   1.932
48358W        W20673   4.863  42.327  12.422
48359W        W20674  20.755  43.400   4.156
48360W        W20675  26.606  30.583  13.919
48361W        W20676  36.015  30.094   3.376
48362W        W20677   3.821  25.676   3.720
48363W        W20678  30.959  38.987   4.210
48364W        W20679  15.111  28.036   3.686
48365W        W20680  36.505  25.194   2.226
48366W        W20681   5.733  10.310   2.281
48367W        W20682  15.709  12.126  11.485
48368W        W20683   4.448  30.516   1.384
48369W        W20684  28.952   4.391   9.934
48370W        W20685  31.076  31.934   2.293
48371W        W20686   8.721  13.795   3.361
48372W        W20687  42.840  35.914  12.355
48373W        W20688   6.346  13.238   1.349
48374W        W20689  13.174  15.171  10.900
48375W        W20690  10.838  35.386  10.512
48376W        W20691   4.222   8.321  14.403
48377W        W20692  12.215  44.780  11.901
48378W        W20693  18.118   4.324  10.439
48379W        W20694  37.527  38.344   0.335
48380W        W20695  26.480  18.097  10.935
48381W        W20696  30.560   5.402  11.579
48382W        W20697   0.757  11.163  10.157
48383W        W20698  17.726  43.000  14.418
48384W        W20699  16.232   0.930   3.670
48385W        W20700   0.294  35.522  11.105
48386W        W20701  20.265   9.812   1.237
48387W        W20702  20.535   3.422   5.131
48388W        W20703  34.952  28.435   3.237
48389W        W20704  16.205  21.517   1.245
48390W        W20705  16.584  31.575  12.895
48391W        W20706  36.064  40.506  12.880
48392W        W20707  36.884   9.848  10.531
48393W        W20708  44.890  36.543   0.843
48394W        W20709  43.455  28.176  11.954
48395W        W20710   8.703  21.188  11.466
48396W        W20711  17.739  40.931   3.869
48397W        W20712  30.950  38.505   3.259
48398W        W20713  30.995  16.198  12.930
48399W        W20714  15.141  22.996   1.831
48400W        W20715  37.851  43.386  10.545
48401W        W20716   1.936  28.533  10.554
48402W        W20717  41.525  29.936   4.664
48403W        W20718  30.533  21.238   4.354
48404W        W20719  12.231  36.003   4.295
48405W        W20720  24.551   3.882   1.788
48406W        W20721  32.017  42.840  12.848
48407W        W20722  11.193  30.506   4.284
48408W        W20723  18.265  25.973   0.787
48409W        W20724  10.697  27.007  10.930
48410W        W20725  37.440  28.968  11.594
48411W        W20726  26.490  43.894  10.553
48412W        W20727  30.502  22.679  12.948
48413W        W20728   8.172  27.156   3.353
48414W        W20729  16.612  36.944   0.850
48415W        W20730  14.266  35.081   3.319
48416W        W20731  17.256  29.159  14.420
48417W        W20732  33.395  37.474   2.804
48418W        W20733  37.844  17.250  10.075
48419W        W20734  31.934  28.064   5.306
48420W        W20735  36.376  22.153  14.278
48421W        W20736  23.126  36.058  11.974
48422W        W20737  43.448  10.667   9.550
48423W        W20738  35.590  12.734  14.977
48424W        W20739   7.338  20.105  11.537
48425W        W20740   9.782   6.389   1.361
48426W        W20741  13.279  34.902  13.061
48427W        W20742   1.262  27.680  10.914
48428W        W20743  11.766  14.137  11.881
48429W        W20744  18.602  15.319  10.636
48430W        W20745  42.428  29.131  14.358
48431W        W20746  22.160  35.506  10.947
48432W        W20747   6.905  38.416   1.266
48433W        W20748  12.638  42.491   4.807
48434W        W20749  11.144  15.199   1.380
48435W        W20750  29.991  44.333   4.203
48436W        W20751  24.217  29.023  11.067
48437W        W20752  16.091  27.558   9.450
48438W        W20753  14.690   0.343   2.411
48439W        W20754  22.665  34.104   3.860
48440W        W20755  23.192   8.202  10.544
48441W        W20756  16.227  24.709   4.741
48442W        W20757  19.268  13.237   3.269
48443W        W20758  30.983  35.076  12.974
48444W        W20759  31.941  27.158   2.248
48445W        W20760  29.138  39.888   4.218
48446W        W20761   9.275  16.199   2.278
48447W        W20762  43.004  16.257   3.211
48448W        W20763  35.924  23.569   2.843
48449W        W20764  25.585  33.125   3.749
48450W        W20765  32.633  30.459  14.485
48451W        W20766  44.282  13.756   4.236
48452W        W20767  11.714  23.649   1.271
48453W        W20768  40.518   7.899   1.803
48454W        W20769  36.947  42.482  13.534
48455W        W20770   7.236   2.820  12.962
48456W        W20771  19.092  17.621  10.896
48457W        W20772  26.534  12.808  12.423
48458W        W20773  44.394  43.941   3.630
48459W        W20774   0.392   7.342   4.155
48460W        W20775   4.236  21.512   4.190
48461W        W20776  16.120  16.620  14.439
48462W        W20777  27.648  17.092  12.416
48463W        W20778  33.453   9.720  12.955
48464W        W20779  36.357  31.903  11.592
48465W        W20780  13.275  28.062   1.732
48466W        W20781   7.293   3.332   1.349
48467W        W20782   7.823  13.751  14.925
48468W        W20783   1.905   1.431  13.064
48469W        W20784  26.959   5.255  11.480
48470W        W20785  44.787  24.603  10.437
48471W        W20786  41.447   7.237  12.343
48472W        W20787  42.005  37.982   4.242
48473W        W20788   7.266  44.349   3.336
48474W        W20789  39.553  35.877   0.480
48475W        W20790  19.707  40.943   4.746
48476W        W20791  10.815  23.080  14.480
48477W        W20792  10.263   7.820   3.786
48478W        W20793   2.398  22.729  12.089
48479W        W20794  40.982  31.130   1.905
48480W        W20795  22.232   5.909   0.466
48481W        W20796  43.910  26.156   1.429
48482W        W20797  26.629   4.436  11.430
48483W        W20798  24.725  40.981  10.634
48484W        W20799  23.521   2.275   3.750
48485W        W20800  12.795  26.123  12.863
48486W        W20801  12.149  22.557   3.246
48487W        W20802   5.343  18.191   1.710
48488W        W20803  42.399  19.167   3.767
48489W        W20804  23.694  18.720  14.355
48490W        W20805  24.724  14.327   3.352
48491W        W20806  21.638  30.075  14.444
48492W        W20807   4.889  25.036   2.261
48493W        W20808  10.632  43.894  14.436
48494W        W20809  14.758  39.355  12.473
48495W        W20810  26.503  29.174  10.408
48496W        W20811  42.949  29.458  13.007
48497W        W20812  40.855   0.784   3.190
48498W        W20813  19.131  30.989   1.395
48499W        W20814  43.843  40.502   3.231
48500W        W20815  18.097  13.339   4.295
48501W        W20816  41.311  10.798  11.117
48502W        W20817   4.775  13.622   2.382
48503W        W20818  32.612  10.700  12.917
48504W        W20819  34.538  20.595  12.379
48505W        W20820   9.217   8.741   5.112
48506W        W20821  26.507  24.616  14.817
48507W        W20822  34.439   1.856   2.321
48508W        W20823  28.574  12.127   3.659
48509W        W20824  38.854  21.031   3.854
48510W        W20825  16.119  39.909  11.077
48511W        W20826  19.172  39.873  14.028
48512W        W20827  36.489  31.054   4.233
48513W        W20828   6.851  18.769  12.919
48514W        W20829  21.206   7.198  10.053
48515W        W20830   9.853  27.027  12.573
48516W        W20831  18.062  38.848  10.461
48517W        W20832  25.182  44.872   4.611
48518W        W20833  11.697  16.284  13.540
48519W        W20834  25.145   0.772   3.341
48520W        W20835   8.202   6.352  11.609
48521W        W20836  26.609  31.902   0.417
48522W        W20837   4.737   5.772  14.032
48523W        W20838  29.926  44.497  10.638
48524W        W20839  29.590  42.953  10.930
48525W        W20840  24.007  14.727   4.812
48526W        W20841  32.142   8.698  14.811
48527W        W20842  36.073  29.434  14.947
48528W        W20843  18.101  12.355   2.208
48529W        W20844  24.090  29.020  14.763
48530W        W20845  15.267  30.576  13.391
48531W        W20846   6.203  29.431   3.315
48532W        W20847  25.090  24.097   2.685
48533W        W20848  15.748  20.052   3.197
48534W        W20849  33.018  44.998  12.908
48535W        W20850  30.080  17.747   0.794
48536W        W20851   3.764  27.982   3.333
48537W        W20852  21.605  42.325   4.807
48538W        W20853  22.076  13.154   3.756
48539W        W20854  19.208  29.153  14.930
48540W        W20855  15.744  12.296  10.499
48541W        W20856  37.987   3.857  11.894
48542W        W20857  18.725   8.327  14.420
48543W        W20858  11.164   0.984   4.294
48544W        W20859   4.716  20.692  12.983
48545W        W20860  40.522  18.560   3.345
48546W        W20861  40.837  39.052  14.478
48547W        W20862   4.813  17.130   5.107
48548W        W20863  31.446   7.362   1.334
48549W        W20864  34.955  31.899  10.152
48550W        W20865  10.653  34.050  11.123
48551W        W20866  14.099   3.878  14.481
48552W        W20867  43.282  28.933   3.325
48553W        W20868  44.383  13.609  13.052
48554W        W20869  26.636  20.248   3.797
48555W        W20870  17.772  14.201   3.321
48556W        W20871  22.199  37.534  14.394
48557W        W20872  42.520  39.836  14.862
48558W        W20873  38.829  11.774  10.469
48559W        W20874  36.054  27.479   3.715
48560W        W20875   6.182   6.195   1.792
48561W        W20876  33.467  13.229  13.538
48562W        W20877  18.762   6.771  11.392
48563W        W20878  28.122   6.352   4.198
48564W        W20879  25.518  42.002  14.333
48565W        W20880   5.335  28.503   3.258
48566W        W20881  28.950   7.878   1.310
48567W        W20882   0.284  12.333  10.560
48568W        W20883   5.741  41.423   0.320
48569W        W20884  33.936  20.645   3.221
48570W        W20885  13.795   3.753   1.307
48571W        W20886  36.844  26.131  12.836
48572W        W20887  33.028  41.020   4.635
48573W        W20888  16.131  17.756   4.263
48574W        W20889  30.574   3.874  12.970
48575W        W20890  18.288  15.195  11.102
48576W        W20891  25.184  12.277  13.461
48577W        W20892  20.152  26.661   0.432
48578W        W20893  32.545  24.695   0.418
48579W        W20894  14.127  22.108   1.832
48580W        W20895  10.830  41.001  14.352
48581W        W20896   4.704   5.407  10.569
48582W        W20897  37.932  40.359   1.814
48583W        W20898  40.493   5.737  13.354
48584W        W20899  11.149   7.237   0.390
48585W        W20900  26.625  41.924  12.037
48586W        W20901   2.941   7.683  11.978
48587W        W20902  37.412  25.091  14.999
48588W        W20903  29.996  23.512   3.650
48589W        W20904   0.328  44.362   2.245
48590W        W20905  19.729  42.871   0.462
48591W        W20906  37.956  33.999  11.090
48592W        W20907  40.460  42.978   4.784
48593W        W20908  29.992   6.285   3.387
48594W        W20909  11.721  41.448  12.067
48595W        W20910  21.588  12.149   2.807
48596W        W20911  25.147   8.779  12.948
48597W        W20912  40.812  11.824   1.233
48598W        W20913  13.273  13.131  12.967
48599W        W20914  37.874  30.916  12.025
48600W        W20915  24.109  30.108   1.346
48601W        W20916   6.193  36.477  11.506
48602W        W20917  36.466  42.838   1.257
48603W        W20918  22.688   6.809  13.515
48604W        W20919  43.339  16.225  10.569
48605W        W20920  35.003  19.582  12.926
48606W        W20921  15.697   5.904  11.530
48607W        W20922  42.326  23.601  13.818
48608W        W20923  41.980  35.019   1.872
48609W        W20924  40.828   4.809   2.280
48610W        W20925  36.463  37.980  14.900
48611W        W20926  15.605  41.892  12.369
48612W        W20927  39.025  42.324  10.523
48613W        W20928  18.767   0.465  14.815
48614W        W20929  14.156  25.470  11.439
48615W        W20930  40.960  32.914  13.999
48616W        W20931  44.787  17.104  13.853
48617W        W20932  38.347  26.100   3.856
48618W        W20933  38.562  31.115  12.833
48619W        W20934  38.848  18.750  12.826
48620W        W20935   3.882  32.885   1.826
48621W        W20936  37.970  29.141   1.414
48622W        W20937  22.171  30.952   4.749
48623W        W20938   5.755  11.748   2.769
48624W        W20939   6.758  44.385   0.260
48625W        W20940  37.454  15.790  13.000
48626W        W20941  42.021  23.570  12.422
48627W        W20942  16.302   1.451  13.043
48628W        W20943  41.817  13.233   2.859
48629W        W20944  13.124   7.285  14.974
48630W        W20945   3.813  11.707   4.345
48631W        W20946  16.084  20.589  14.467
48632W        W20947  29.928  29.493  11.392
48633W        W20948   7.263   7.746   1.359
48634W        W20949  24.646  31.119   1.715
48635W        W20950  44.308   1.877  13.449
48636W        W20951   9.250  42.499  11.431
48637W        W20952   0.944   6.835   4.746
48638W        W20953   5.326  24.033  13.502
48639W        W20954  11.213   7.285  10.640
48640W        W20955  12.632  13.732  10.527
48641W        W20956  13.726  34.568  11.438
48642W        W20957  10.725   9.734   1.356
48643W        W20958  10.304  37.342   2.757
48644W        W20959  31.555  18.195  11.112
48645W        W20960  42.957  35.871  12.895
48646W        W20961  18.083   0.360   4.720
48647W        W20962   2.328   6.688   4.209
48648W        W20963  20.663  20.718   2.356
48649W        W20964  27.454  22.032  10.896
48650W        W20965   0.272   3.914  12.529
48651W        W20966  29.089  17.105   1.360
48652W        W20967  29.988  35.087   0.448
48653W        W20968  28.135   9.369  10.159
48654W        W20969  11.195  22.702   3.187
48655W        W20970   3.436   3.346   0.410
48656W        W20971  35.521   0.858   2.812
48657W        W20972   5.359  11.762  11.080
48658W        W20973  13.802   8.227  13.941
48659W        W20974  31.027  32.094  12.499
48660W        W20975  30.413  41.450   1.856
48661W        W20976  18.091  37.576  12.532
48662W        W20977  24.685  41.000   1.908
48663W        W20978  20.229   8.776   1.784
48664W        W20979  41.800  34.986  14.815
48665W        W20980  22.744  39.958   3.795
48666W        W20981   8.275   8.365   0.951
48667W        W20982  17.077  34.105  11.508
48668W        W20983  27.631   2.836   0.827
48669W        W20984  12.852  26.134  11.461
48670W        W20985  32.621  40.530   3.664
48671W        W20986  41.473   9.266  10.468
48672W        W20987  40.832  30.607   4.288
48673W        W20988   5.712  40.847   0.267
48674W        W20989  33.456  41.945  12.834
48675W        W20990  33.512   7.235   0.959
48676W        W20991  26.197  39.814  11.101
48677W        W20992  15.773  10.272   3.352
48678W        W20993  33.885  37.937  11.549
48679W        W20994  39.885  39.936  12.569
48680W        W20995  35.861  25.057   2.340
48681W        W20996   3.771   7.278  14.762
48682W        W20997  30.611   9.822  13.039
48683W        W20998  41.994  38.041   3.148
48684W        W20999  27.982  24.159   3.853
48685W        W21000  11.175  17.656  12.406
48686W        W21001  40.828  27.447  12.451
48687W        W21002  17.174  27.634  11.938
48688W        W21003   1.408  42.828  13.031
48689W        W21004  26.479  30.627   2.762
48690W        W21005  39.856  17.079   1.427
48691W        W21006   6.333  11.264   1.854
48692W        W21007   9.314   9.734  11.567
48693W        W21008  26.504  19.609  11.085
48694W        W21009  32.439  14.702  11.605
48695W        W21010  31.950  34.466  11.085
48696W        W21011  25.067   2.913   4.635
48697W        W21012  11.690  20.670   3.756
48698W        W21013  19.679   4.221   1.331
48699W        W21014  34.446  31.637   2.322
48700W        W21015   5.246  22.035  11.445
48701W        W21016  44.831  21.120   0.798
48702W        W21017  36.990  12.753  10.903
48703W        W21018   8.171   7.372   1.784
48704W        W21019  28.942  13.326  14.980
48705W        W21020   1.455  44.460   4.721
48706W        W21021  37.455  16.653  13.397
48707W        W21022  33.462   5.255   1.262
48708W        W21023   2.950   9.389  12.546
48709W        W21024   0.259   2.323   4.808
48710W        W21025  12.753  34.452  13.889
48711W        W21026  20.739  43.841   1.783
48712W        W21027  27.131  35.853  13.975
48713W        W21028   1.976   0.381  14.868
48714W        W21029  42.439  24.174   0.318
48715W        W21030  37.577   0.911  13.871
48716W        W21031  28.638  18.250  11.896
48717W        W21032  13.788   0.461   2.396
48718W        W21033  17.605  41.878   3.369
48719W        W21034  35.973   5.792  12.842
48720W        W21035  20.139   5.749   0.411
48721W        W21036   3.306   3.780   2.249
48722W        W21037   3.235  39.976   3.252
48723W        W21038  27.181  12.796  12.576
48724W        W21039  16.273  10.634  11.474
48725W        W21040  32.034  23.619  12.000
48726W        W21041  21.179  23.678  14.826
48727W        W21042   2.878   7.224   4.292
48728W        W21043  41.345  21.634  12.910
48729W        W21044   0.933  39.341  10.589
48730W        W21045  44.385  43.773   0.369
48731W        W21046  31.979  24.514  13.815
48732W        W21047  25.062  31.011   2.747
48733W        W21048  38.332  42.996  10.427
48734W        W21049   7.899   4.253  11.118
48735W        W21050   5.291  37.551   0.745
48736W        W21051  33.507   2.377  10.487
48737W        W21052   3.862  35.076   3.790
48738W        W21053  37.967  30.494  14.834
48739W        W21054  12.361  26.029   2.406
48740W        W21055  11.831  17.737  12.546
48741W        W21056  22.747  20.701  13.370
48742W        W21057  28.973  39.374  14.871
48743W        W21058   1.931  27.513  14.393
48744W        W21059  24.031  20.524  12.470
48745W        W21060  25.564  35.585   1.309
48746W        W21061  28.063  18.252  14.298
48747W        W21062  29.006  35.891   1.256
48748W        W21063  32.563  11.258   2.838
48749W        W21064  11.772  23.193  13.044
48750W        W21065  18.714   8.321   0.919
48751W        W21066  23.021  40.889   2.389
48752W        W21067  40.501  36.389   0.300
48753W        W21068   2.888  33.384   2.196
48754W        W21069   5.244  12.723  13.961
48755W        W21070  21.167  40.497   1.382
48756W        W21071  17.614  19.726   4.717
48757W        W21072   9.263  28.985   0.301
48758W        W21073  19.591  21.105  12.560
48759W        W21074  36.504  33.889  11.391
48760W        W21075   9.351  37.866  11.510
48761W        W21076  40.530  31.085  11.940
48762W        W21077  17.757  38.558   0.855
48763W        W21078  17.237   7.788   0.264
48764W        W21079  22.008  14.608   2.873
48765W        W21080   7.304  34.040   3.188
48766W        W21081   5.329  44.434  14.433
48767W        W21082  16.667  20.694   0.840
48768W        W21083  18.265  44.456  13.984
48769W        W21084  21.740  23.574   4.648
48770W        W21085  31.618  38.887   4.750
48771W        W21086   4.856  43.937  10.517
48772W        W21087  33.537  19.545  11.978
48773W        W21088  28.091   0.442  12.484
48774W        W21089  29.928  18.101  10.506
48775W        W21090  44.305   6.808   3.249
48776W        W21091  17.097  20.560   4.764
48777W        W21092  23.519  34.908   4.121
48778W        W21093  27.505   1.860  13.832
48779W        W21094   0.392   4.745  11.393
48780W        W21095  23.526  26.624  12.351
48781W        W21096  14.764  17.119   4.346
48782W        W21097  39.512   6.922  11.079
48783W        W21098  36.458  41.890   4.646
48784W        W21099   8.698  34.557   3.649
48785W        W21100   3.841  39.345   2.338
48786W        W21101  43.284   4.883   3.373
48787W        W21102  38.028  22.694  10.549
48788W        W21103  28.059  37.031  10.410
48789W        W21104   3.746  27.159  11.608
48790W        W21105  12.347   1.471  10.635
48791W        W21106  29.947  16.637   1.707
48792W        W21107  21.173  35.956   3.813
48793W        W21108  21.218   5.215   2.373
48794W        W21109  20.601  36.997  12.485
48795W        W21110  27.488  25.065   1.359
48796W        W21111  16.277  37.992  10.514
48797W        W21112  36.424   9.784   4.624
48798W        W21113  12.282  18.707   9.664
48799W        W21114  38.007  29.502   3.713
48800W        W21115  20.757  12.332  10.946
48801W        W21116   4.317  42.369  14.354
48802W        W21117  11.657   2.962  12.558
48803W        W21118  24.151   6.919   2.849
48804W        W21119  39.903  31.412   0.432
48805W        W21120   0.970  31.100  13.333
48806W        W21121  25.202  14.687   1.704
48807W        W21122  15.789  31.583   2.867
48808W        W21123  13.792   2.351  13.449
48809W        W21124  29.597  38.542   3.735
48810W        W21125   9.366  29.529  13.459
48811W        W21126   4.771   2.321  14.488
48812W        W21127  35.891  32.107  14.452
48813W        W21128  35.544  29.667   1.905
48814W        W21129  37.949  34.110   1.762
48815W        W21130  11.346  21.583  13.472
48816W        W21131  39.045  40.384   2.689
48817W        W21132  42.881  34.865  12.579
48818W        W21133  37.383  33.444   5.216
48819W        W21134   2.785  39.401   0.858
48820W        W21135  26.628   1.440  11.871
48821W        W21136  19.605  37.862  13.320
48822W        W21137  35.093  40.046  11.062
48823W        W21138  11.867   1.284   1.310
48824W        W21139   1.244   8.900   4.770
48825W        W21140  32.030  43.378   0.771
48826W        W21141   6.841   1.903  10.554
48827W        W21142   4.887  12.823  10.032
48828W        W21143  38.427  32.092   1.895
48829W        W21144  37.906   3.331  10.637
48830W        W21145  23.034  13.186  12.531
48831W        W21146  43.493   0.963  11.874
48832W        W21147  23.587  32.939  13.441
48833W        W21148  26.033   9.779  10.547
48834W        W21149   3.298  10.322   2.839
48835W        W21150  39.461   4.821   2.283
48836W        W21151  37.429  12.787   0.915
48837W        W21152  32.597  14.711  11.096
48838W        W21153  34.495  21.027  11.995
48839W        W21154  23.659   1.751   0.877
48840W        W21155  35.596  33.510  13.050
48841W        W21156  43.513  17.131   4.346
48842W        W21157  38.823  26.593  11.406
48843W        W21158  41.351  35.931   3.191
48844W        W21159   1.775  33.901  11.529
48845W        W21160  25.163  17.109   3.631
48846W        W21161  22.027  13.788   2.725
48847W        W21162   3.764   5.807  13.983
48848W        W21163  29.019  42.448  10.435
48849W        W21164  11.798  33.613   4.765
48850W        W21165  36.368   8.706   0.358
48851W        W21166  40.449   6.296   3.759
48852W        W21167  16.572  21.085  10.506
48853W        W21168  28.146  10.821  14.382
48854W        W21169  27.095  18.758   0.736
48855W        W21170  21.213  13.285   4.301
48856W        W21171  43.870   2.847   4.703
48857W        W21172  21.065  44.853  10.433
48858W        W21173  32.402  24.565   3.227
48859W        W21174  10.772   5.835   2.263
48860W        W21175  20.621  29.603   4.287
48861W        W21176  18.250   2.943  10.501
48862W        W21177  32.083   9.761  12.420
48863W        W21178  16.599  10.794  13.441
48864W        W21179  26.028  40.847  11.424
48865W        W21180  35.482  25.480   3.824
48866W        W21181  23.125  20.601   3.347
48867W        W21182  26.625  32.091  12.053
48868W        W21183  36.409  20.066  10.895
48869W        W21184  22.655  29.552   3.379
48870W        W21185  33.013  31.500  12.022
48871W        W21186  24.678   3.229  12.882
48872W        W21187  11.638  26.143  10.962
48873W        W21188  41.840  41.857  14.869
48874W        W21189  23.149   3.215   4.659
48875W        W21190  30.139  36.423  13.874
48876W        W21191  17.197  35.063   1.387
48877W        W21192  17.293  34.404   1.731
48878W        W21193  36.078  44.761   2.198
48879W        W21194  21.225   1.310  12.897
48880W        W21195  26.118  19.276  11.905
48881W        W21196  38.522  27.077   2.361
48882W        W21197  15.610  22.506   4.309
48883W        W21198  19.242  32.470  11.398
48884W        W21199   3.420  19.132   0.802
48885W        W21200  27.111  23.143  14.877
48886W        W21201  30.584   2.868  10.583
48887W        W21202  15.157   0.838   1.730
48888W        W21203  38.870  24.681  14.004
48889W        W21204  41.976  28.580   2.268
48890W        W21205  26.011  20.187  10.589
48891W        W21206   9.806  32.137  11.609
48892W        W21207  34.474  44.452  11.425
48893W        W21208  12.621  23.236   3.847
48894W        W21209  31.605  37.037  14.442
48895W        W21210  24.677   3.280   3.705
48896W        W21211   2.913  43.781  13.311
48897W        W21212  39.852  16.617   4.773
48898W        W21213  36.581   1.832   0.322
48899W        W21214   1.395  44.289  13.005
48900W        W21215  23.516  18.063   3.159
48901W        W21216   6.918  18.096  13.915
48902W        W21217  35.471  28.434  12.948
48903W        W21218  25.079   7.197  13.054
48904W        W21219  18.624  19.252   0.872
48905W        W21220  27.059  15.151  13.438
48906W        W21221  24.621  32.020   1.302
48907W        W21222   4.910  43.384  12.039
48908W        W21223  13.699  38.011   1.400
48909W        W21224  27.158  35.029   4.138
48910W        W21225  18.683  32.021   3.383
48911W        W21226   8.849  25.517   3.658
48912W        W21227  41.427   9.726   3.324
48913W        W21228  22.691  31.001  11.916
48914W        W21229  31.935  44.291   1.382
48915W        W21230  38.510   6.316  14.930
48916W        W21231  26.635  15.272   1.249
48917W        W21232  14.594  34.574  14.030
48918W        W21233  23.560  18.146  14.906
48919W        W21234   5.788   6.259  12.071
48920W        W21235   8.361  42.461  14.761
48921W        W21236  10.242  10.200   2.405
48922W        W21237  35.075  39.327   1.395
48923W        W21238   0.882  14.129  11.980
48924W        W21239  35.093  21.681  14.465
48925W        W21240  17.661  18.557   3.207
48926W        W21241  44.462  39.400   1.868
48927W        W21242  26.173  41.421  14.765
48928W        W21243   3.376  12.306  12.372
48929W        W21244  15.297  35.990   3.351
48930W        W21245  29.945   1.273  11.977
48931W        W21246   8.782  19.124  14.872
48932W        W21247  15.593  43.950  13.380
48933W        W21248  36.562   7.837   2.283
48934W        W21249  19.127   7.692  11.469
48935W        W21250  39.808  26.505   1.920
48936W        W21251  40.003   5.810  14.819
48937W        W21252  17.094  10.282   5.747
48938W        W21253  23.632   2.858   3.660
48939W        W21254   2.289  21.737  12.004
48940W        W21255  27.671  28.999  11.479
48941W        W21256   0.787  28.027  11.940
48942W        W21257  16.770  25.046  10.561
48943W        W21258  36.915   3.294  14.831
48944W        W21259  44.939   2.737  11.444
48945W        W21260   3.786  23.119   0.842
48946W        W21261  20.655  11.141  13.469
48947W        W21262  15.754  40.027   4.230
48948W        W21263  20.119  34.089   3.289
48949W        W21264  18.645  17.273   9.950
48950W        W21265  17.678   9.788   4.292
48951W        W21266  11.351   4.228  13.903
48952W        W21267  23.095  18.779  14.327
48953W        W21268   2.296  33.953  10.150
48954W        W21269  11.168   2.464  14.005
48955W        W21270  35.377  10.200  11.449
48956W        W21271  13.814  27.047  11.998
48957W        W21272   2.793  15.578   1.796
48958W        W21273  15.150  12.712  11.543
48959W        W21274  13.188  30.005  13.325
48960W        W21275  16.603  38.463  14.303
48961W        W21276  26.985  12.827   3.255
48962W        W21277  28.673  19.175   3.270
48963W        W21278  25.626   0.942  13.993
48964W        W21279  34.499   5.782   2.254
48965W        W21280   3.231   2.742   4.665
48966W        W21281  36.031  44.339  12.889
48967W        W21282  33.017  19.608  12.986
48968W        W21283  22.680   9.346   1.383
48969W        W21284  12.228  18.178  11.603
48970W        W21285  10.721  27.567   4.686
48971W        W21286   5.745   8.237   0.925
48972W        W21287  30.571   3.836  14.947
48973W        W21288  11.251  18.262   1.402
48974W        W21289  32.141  11.669  13.335
48975W        W21290  34.950   6.903   1.776
48976W        W21291   8.307  10.827   3.163
48977W        W21292  27.644   5.311  13.815
48978W        W21293  28.955  10.862   0.943
48979W        W21294  18.112  29.622  13.506
48980W        W21295  24.560  16.268  10.533
48981W        W21296  39.369  10.823   2.374
48982W        W21297  18.249   7.376   4.210
48983W        W21298  11.652  20.626  12.342
48984W        W21299  18.647  29.491   3.696
48985W        W21300  19.701  15.628   0.335
48986W        W21301  26.094  29.600   2.772
48987W        W21302   2.368  22.537   0.430
48988W        W21303  30.459  36.967  10.538
48989W        W21304   1.450  14.730   3.840
48990W        W21305  31.488  36.028   2.204
48991W        W21306  44.297  43.492  13.792
48992W        W21307   9.380  13.624  14.484
48993W        W21308  12.640   7.672  11.111
48994W        W21309  22.203   7.855  12.472
48995W        W21310  21.573  11.666  12.394
48996W        W21311   8.709  27.514  12.030
48997W        W21312  32.492  39.839  11.495
48998W        W21313  24.003  25.696   2.228
48999W        W21314   2.458   4.420  14.326
49000W        W21315  12.656   5.865   1.933
49001W        W21316  35.982   1.786   0.836
49002W        W21317  10.166  36.362  12.400
49003W        W21318  28.563  10.183  14.293
49004W        W21319  36.525  23.083   0.310
49005W        W21320  36.421   7.703  12.015
49006W        W21321  29.986  41.948   0.833
49007W        W21322  31.147  18.080   1.444
49008W        W21323  43.326  17.794  13.881
49009W        W21324   2.460   1.360  12.489
49010W        W21325  37.351   5.916  13.887
49011W        W21326   2.267   0.806  13.369
49012W        W21327  41.992  10.189  11.002
49013W        W21328  13.629  35.099   0.440
49014W        W21329  12.753  16.792   1.762
49015W        W21330  13.276  19.146   3.197
49016W        W21331  43.287  37.948   0.319
49017W        W21332  44.956  13.236   1.886
49018W        W21333  43.969   0.339  13.823
49019W        W21334  24.163  16.083   3.200
49020W        W21335   2.324  44.807  13.337
49021W        W21336   9.687  31.476  13.971
49022W        W21337  23.013  40.319   2.214
49023W        W21338   0.459  28.019   0.808
49024W        W21339  11.863  42.308   0.370
49025W        W21340  38.071  11.314  14.880
49026W        W21341   1.239  13.185   3.720
49027W        W21342   0.264  25.018  11.465
49028W        W21343  26.528  22.199   3.372
49029W        W21344  44.831   1.889  14.420
49030W        W21345   0.988  29.975   4.191
49031W        W21346   2.958  30.625  14.412
49032W        W21347  40.354   0.788   3.147
49033W        W21348   3.739  20.121  11.002
49034W        W21349   1.319  25.018  10.428
49035W        W21350  43.487  22.506   4.313
49036W        W21351  25.514   8.813   2.836
49037W        W21352  14.172  21.715  13.481
49038W        W21353  14.114  12.762  14.964
49039W        W21354   8.762  43.860  10.640
49040W        W21355   8.397  35.497  13.399
49041W        W21356  12.171  28.096   1.279
49042W        W21357  37.005   4.267   3.151
49043W        W21358  40.049  30.043   0.748
49044W        W21359  28.484   5.732  10.044
49045W        W21360  29.480  19.622  10.945
49046W        W21361  23.714   1.441  10.911
49047W        W21362  12.225  38.040   1.245
49048W        W21363   2.234  13.332   1.367
49049W        W21364  41.426  42.482  12.467
49050W        W21365  42.386  12.672   1.376
49051W        W21366  28.159  37.850  12.863
49052W        W21367  13.307  33.548   4.778
49053W        W21368   0.819  14.336  11.447
49054W        W21369  41.366  44.343   2.287
49055W        W21370  20.684  10.697  11.397
49056W        W21371  36.362  44.894   3.284
49057W        W21372  24.513   3.222  11.438
49058W        W21373  26.527   4.700   4.734
49059W        W21374   6.898  19.208   2.386
49060W        W21375   5.414  34.422  14.799
49061W        W21376  32.971  15.615  14.309
49062W        W21377  25.596  39.884  12.395
49063W        W21378  38.853  28.042  11.594
49064W        W21379  10.811  23.123  11.892
49065W        W21380  35.975  43.420   0.328
49066W        W21381  29.045  13.793   2.684
49067W        W21382   8.782  42.880   3.719
49068W        W21383  25.644  20.240   0.859
49069W        W21384  32.941  25.490  11.482
49070W        W21385  30.008  12.784  11.474
49071W        W21386  28.515  43.827   4.834
49072W        W21387   8.293  24.648  12.451
49073W        W21388  32.041  16.242   1.812
49074W        W21389  22.547  44.927  10.100
49075W        W21390  35.468  26.590  12.385
49076W        W21391  10.321   9.155   2.266
49077W        W21392  21.216   4.749   4.296
49078W        W21393   0.972  21.578  12.026
49079W        W21394   6.683  35.427   0.818
49080W        W21395  17.299   1.306  14.952
49081W        W21396  16.263  25.970  10.488
49082W        W21397  15.718  37.401  14.474
49083W        W21398  34.070   0.359   2.327
49084W        W21399   5.896   0.446   0.437
49085W        W21400  21.670  10.301   4.777
49086W        W21401  17.787  44.409  10.520
49087W        W21402  23.987  35.503  10.995
49088W        W21403  13.309   7.295  13.390
49089W        W21404   3.728  25.589   1.378
49090W        W21405  10.352  19.600   4.305
49091W        W21406   0.409  17.660   3.747
49092W        W21407  37.864  24.603  14.285
49093W        W21408  44.008  35.399   0.934
49094W        W21409  30.998  13.247  12.412
49095W        W21410  20.588  15.316   1.291
49096W        W21411  28.027  37.046  14.332
49097W        W21412  16.775  15.586   1.295
49098W        W21413  35.548  16.741  13.455
49099W        W21414   6.194  38.371   4.658
49100W        W21415  16.304  43.831   2.193
49101W        W21416  15.203  15.823   3.700
49102W        W21417  22.717  15.263  13.403
49103W        W21418  11.300  15.730   2.195
49104W        W21419  22.619  27.061  12.569
49105W        W21420  32.955   5.875  13.489
49106W        W21421   5.919   0.835   3.689
49107W        W21422   7.179  44.765  13.406
49108W        W21423  29.514   9.185  13.346
49109W        W21424  30.986   0.958  12.976
49110W        W21425  35.524   5.785   2.754
49111W        W21426   6.371  19.206   3.815
49112W        W21427  43.361  42.405   2.859
49113W        W21428  37.901  27.608   0.729
49114W        W21429   4.853  36.479   4.674
49115W        W21430  42.913   1.446   4.616
49116W        W21431  14.651  31.006  10.900
49117W        W21432  13.786   2.839   2.864
49118W        W21433   9.197  14.666  10.539
49119W        W21434   8.323  36.097  10.483
49120W        W21435  34.417   5.784  13.483
49121W        W21436  22.642  31.953  12.926
49122W        W21437  15.133  23.676  14.433
49123W        W21438  19.746   7.237  12.453
49124W        W21439  19.600  17.233  10.527
49125W        W21440  39.478   3.725  10.514
49126W        W21441  28.474  40.468  11.964
49127W        W21442  10.197  13.696   2.769
49128W        W21443   1.245   5.347  13.328
49129W        W21444  26.503  12.760  10.027
49130W        W21445   5.217  33.562  11.871
49131W        W21446  14.269  39.895   2.386
49132W        W21447  30.038  38.494  12.831
49133W        W21448  11.806  19.219   9.658
49134W        W21449   5.887   4.311   2.246
49135W        W21450  13.817  17.163  10.975
49136W        W21451  21.159   9.281   0.799
49137W        W21452  27.017  38.055  11.982
49138W        W21453  33.413  20.648  13.534
49139W        W21454  12.251  29.935   0.734
49140W        W21455  17.640  15.116  12.518
49141W        W21456   8.830   0.938  14.767
49142W        W21457  38.865  26.205   9.528
49143W        W21458   9.362  15.649  12.973
49144W        W21459  38.900  17.236  11.463
49145W        W21460  13.759  14.758  12.357
49146W        W21461  44.976  36.907   0.944
49147W        W21462  15.688  30.964  14.836
49148W        W21463  44.347  22.094  14.887
49149W        W21464  36.891  35.399  14.352
49150W        W21465  36.549  11.159  12.832
49151W        W21466  32.409  33.924   2.883
49152W        W21467  15.199  26.147   3.343
49153W        W21468   5.427  40.365  13.896
49154W        W21469   1.339   5.778  10.947
49155W        W21470  39.404  35.594  14.418
49156W        W21471  23.192   8.669  13.484
49157W        W21472   3.888  10.267   4.255
49158W        W21473  40.968  38.448  12.491
49159W        W21474  20.129  10.277  12.077
49160W        W21475  25.017   3.244   0.831
49161W        W21476  19.566  16.584  11.058
49162W        W21477   2.428  35.066   1.451
49163W        W21478  10.850  21.604  13.977
49164W        W21479  26.608   2.356  13.848
49165W        W21480  25.963  18.089   0.803
49166W        W21481   4.442  20.678  13.052
49167W        W21482  31.030  18.781  11.402
49168W        W21483  42.383  29.946   4.245
49169W        W21484  39.013  41.800  14.920
49170W        W21485  40.359  25.132   3.821
49171W        W21486  28.600  43.416  11.074
49172W        W21487  33.586  14.625   5.184
49173W        W21488  34.921  31.039   0.853
49174W        W21489  34.911  28.990   2.302
49175W        W21490   3.904  29.520   1.388
49176W        W21491  34.594   3.784  10.542
49177W        W21492  15.196  34.576  10.498
49178W        W21493   9.272  14.789  13.970
49179W        W21494   6.814  21.647   3.718
49180W        W21495   9.648  26.202  14.359
49181W        W21496   2.912  28.979  11.477
49182W        W21497  37.520  30.518   1.815
49183W        W21498  35.387  36.491  14.512
49184W        W21499  23.651  33.946  13.498
49185W        W21500   4.313   5.698   4.721
49186W        W21501  35.894   3.440   2.211
49187W        W21502  19.111   5.416   0.380
49188W        W21503  15.137  20.750  14.447
49189W        W21504  40.903  24.555   9.945
49190W        W21505  36.381  42.990  12.958
49191W        W21506  23.091  23.186   9.478
49192W        W21507   9.838   6.193   4.301
49193W        W21508   8.820   0.409   2.281
49194W        W21509  36.055  31.093   3.843
49195W        W21510  11.837  40.489   3.345
49196W        W21511  12.610  38.981   3.813
49197W        W21512  15.643  37.475   1.918
49198W        W21513  17.784  20.660   4.237
49199W        W21514  30.533  30.012   2.330
49200W        W21515   5.196  38.975  11.913
49201W        W21516  15.585  15.161   2.252
49202W        W21517  42.460  39.042  12.074
49203W        W21518  23.590  18.608   2.768
49204W        W21519   5.827  10.268   4.677
49205W        W21520   6.261   8.167  12.504
49206W        W21521  37.915   8.294  14.321
49207W        W21522  16.288  44.827   4.267
49208W        W21523  16.085  33.615   2.851
49209W        W21524  37.533   2.815   1.329
49210W        W21525   5.426  28.047  11.089
49211W        W21526  25.121  37.900   1.718
49212W        W21527  40.516   6.912   4.174
49213W        W21528  34.877  19.752   0.374
49214W        W21529  43.304  18.557   0.290
49215W        W21530  37.036  15.698  10.515
49216W        W21531  24.992   8.819   0.816
49217W        W21532  11.648  44.331   0.463
49218W        W21533  31.514  38.866   1.223
49219W        W21534  27.195  41.493  11.958
49220W        W21535  19.248  11.647  12.988
49221W        W21536   9.165  10.682   1.211
49222W        W21537  22.016  31.421  13.331
49223W        W21538  20.097  18.198  14.826
49224W        W21539   9.670  38.482   0.943
49225W        W21540  34.114   6.249   1.264
49226W        W21541  22.515  21.694  13.808
49227W        W21542   8.795  15.715   3.630
49228W        W21543   1.409  40.950   1.436
49229W        W21544  39.854  39.908   1.927
49230W        W21545   4.227   9.683   1.411
49231W        W21546  15.616  36.934  13.400
49232W        W21547  11.238  29.641  14.908
49233W        W21548  11.369   6.251  13.411
49234W        W21549  25.151  25.060  12.046
49235W        W21550  19.758  41.981   1.391
49236W        W21551  30.161   6.810  11.114
49237W        W21552   6.311  30.931   1.328
49238W        W21553  33.495  11.794  10.449
49239W        W21554  11.851  42.405   1.745
49240W        W21555  33.547  17.592   4.710
49241W        W21556  18.192  38.491   3.857
49242W        W21557  28.088  16.192  13.381
49243W        W21558   8.804  27.091  10.454
49244W        W21559  33.992   2.747  12.953
49245W        W21560   6.419  25.019   4.277
49246W        W21561  30.929  33.498  13.958
49247W        W21562  27.057  10.656   4.613
49248W        W21563   8.405  13.655   3.792
49249W        W21564  30.025  24.595   1.897
49250W        W21565   1.862  30.447  10.413
49251W        W21566  12.659  30.927  13.545
49252W        W21567  31.954   1.378   3.636
49253W        W21568  15.659  11.325  11.536
49254W        W21569   8.347  23.997   1.790
49255W        W21570  31.420  39.868   1.399
49256W        W21571   8.852  20.641   1.764
49257W        W21572  41.844  32.446  14.464
49258W        W21573   2.352   2.785  11.982
49259W        W21574  39.919   0.438   3.249
49260W        W21575  36.444  15.622  11.104
49261W        W21576  43.999  39.015   3.701
49262W        W21577  42.478  24.192   3.195
49263W        W21578  17.631  12.823  13.471
49264W        W21579   8.230  40.525   0.946
49265W        W21580  16.292  44.873   0.788
49266W        W21581  40.311   1.306  11.914
49267W        W21582   2.821   8.845   4.270
49268W        W21583   3.364  41.454  14.515
49269W        W21584  13.260  34.410  13.004
49270W        W21585   6.301  15.739  14.379
49271W        W21586  20.609  39.527  12.095
49272W        W21587  30.066  28.182   2.348
49273W        W21588  27.627  31.985  12.927
49274W        W21589  41.489  36.350   4.786
49275W        W21590  31.899  11.316   1.904
49276W        W21591  11.340   0.819   3.198
49277W        W21592   2.796  16.771   4.228
49278W        W21593  24.216  39.968  11.548
49279W        W21594  25.647  25.631  12.352
49280W        W21595  43.854  25.158   4.725
49281W        W21596  38.460   4.763  12.024
49282W        W21597  43.325   8.341   3.755
49283W        W21598  20.627  39.472  10.963
49284W        W21599  16.252   3.939  12.403
49285W        W21600  18.580  25.180  10.560
49286W        W21601  35.096  13.802   2.705
49287W        W21602   6.251  35.067  14.297
49288W        W21603  36.543  30.964  13.865
49289W        W21604  23.047  16.581   1.246
49290W        W21605   1.836  29.574   2.681
49291W        W21606   4.342  12.311   0.400
49292W        W21607  20.565  12.290  11.928
49293W        W21608  32.096  29.476  14.902
49294W        W21609  36.416  34.963   1.825
49295W        W21610   2.744  17.575   0.474
49296W        W21611  39.410  30.473  14.772
49297W        W21612  25.034  16.784   4.189
49298W        W21613  43.782  29.529   3.198
49299W        W21614  44.418  15.168   3.698
49300W        W21615  36.872  27.104  11.409
49301W        W21616  30.608  36.991   2.285
49302W        W21617   2.325  38.899   4.341
49303W        W21618  20.150  10.822   0.804
49304W        W21619  19.256   8.844   0.267
49305W        W21620   8.670  21.105   4.201
49306W        W21621  27.099  10.861   1.860
49307W        W21622  22.714  43.857  13.021
49308W        W21623  10.717   2.912   4.725
49309W        W21624   1.828  24.585   3.165
49310W        W21625  35.597  13.337  10.629
49311W        W21626  35.073  36.466  10.904
49312W        W21627  40.439  36.974   4.278
49313W        W21628  16.164  30.016   0.253
49314W        W21629   2.466  22.011  13.469
49315W        W21630   8.768  20.574  14.883
49316W        W21631  19.771  18.612   0.338
49317W        W21632  16.211   2.391   2.748
49318W        W21633  24.996  29.670   3.275
49319W        W21634  10.377   9.264  12.512
49320W        W21635  10.765  20.723  10.488
49321W        W21636  14.749   1.843   4.718
49322W        W21637  12.154  18.263   1.921
49323W        W21638  27.583  10.283  13.417
49324W        W21639  38.921  13.703   2.366
49325W        W21640  17.568  23.613   2.794
49326W        W21641  39.992  37.059  13.798
49327W        W21642  10.333  28.506   4.267
49328W        W21643  33.028  30.101  13.314
49329W        W21644  31.559   1.261   1.440
49330W        W21645   8.656   9.261   0.738
49331W        W21646  24.130   2.905  12.536
49332W        W21647  34.938  17.743   3.334
49333W        W21648  18.172  39.027  14.403
49334W        W21649  44.363  34.432   9.964
49335W        W21650   5.851  16.678  12.025
49336W        W21651  34.592   3.870  14.478
49337W        W21652  15.262  29.949  14.791
49338W        W21653  28.981  19.115  11.916
49339W        W21654  26.065   5.334  13.373
49340W        W21655  34.510  13.804  12.864
49341W        W21656  31.070  26.131   4.752
49342W        W21657  17.579  44.879  11.058
49343W        W21658  28.017  30.057  13.486
49344W        W21659  32.460   8.752  13.905
49345W        W21660  15.600  17.215   4.741
49346W        W21661  39.985  27.610  12.076
49347W        W21662   8.260  17.076  13.369
49348W        W21663   4.282   3.746   4.194
49349W        W21664  22.159  11.307   0.849
49350W        W21665   5.409  42.874   2.800
49351W        W21666   7.672  27.581  14.005
49352W        W21667  22.541  30.911   0.916
49353W        W21668   7.390  13.250  13.020
49354W        W21669   0.757   6.882  11.123
49355W        W21670  16.095   0.428  10.623
49356W        W21671  42.910   0.918  12.977
49357W        W21672  44.331  30.555   3.782
49358W        W21673  22.148  22.557   3.221
49359W        W21674   8.392  22.033   0.395
49360W        W21675  26.187  30.152   1.756
49361W        W21676   4.432  38.060   0.893
49362W        W21677  37.432   4.335  13.998
49363W        W21678  29.605  22.172  10.581
49364W        W21679  26.156  44.926   0.367
49365W        W21680  25.598  23.511  10.939
49366W        W21681  36.857  38.458  11.431
49367W        W21682  36.956  34.442  14.410
49368W        W21683  31.032  14.240   1.903
49369W        W21684   5.744  44.892  13.941
49370W        W21685   2.817  18.211   3.739
49371W        W21686  32.461  18.053  14.869
49372W        W21687  38.325   7.315  10.536
49373W        W21688   6.810  12.838   1.757
49374W        W21689  21.520   6.913   4.667
49375W        W21690  43.923   8.800  12.019
49376W        W21691  20.220  21.683   1.900
49377W        W21692   3.374  11.186   0.788
49378W        W21693   2.766  13.165  10.934
49379W        W21694  12.353  41.354  14.983
49380W        W21695  30.093   9.681   4.756
49381W        W21696  29.571  43.997  10.457
49382W        W21697  43.338  25.509  10.638
49383W        W21698  13.256  19.643  13.946
49384W        W21699  39.517  39.509  13.897
49385W        W21700  24.708  40.488  10.509
49386W        W21701  15.143  30.561  12.357
49387W        W21702  40.927  18.626  13.491
49388W        W21703  15.126  28.001  11.609
49389W        W21704  13.124  22.736  12.949
49390W        W21705  22.245  30.443  13.820
49391W        W21706  29.056  14.250   2.414
49392W        W21707  29.074   9.311   4.156
49393W        W21708  19.268  43.963  14.927
49394W        W21709  21.584  41.335  13.436
49395W        W21710  28.950   4.715   0.818
49396W        W21711  38.853   2.279   4.649
49397W        W21712  19.619  20.260   0.384
49398W        W21713   6.878  14.271   3.721
49399W        W21714  21.723   2.758   1.299
49400W        W21715   5.907  25.712  12.496
49401W        W21716   6.276  44.388   2.267
49402W        W21717  42.003  28.058   0.278
49403W        W21718  29.171  26.111   2.308
49404W        W21719  18.564   5.275  11.526
49405W        W21720  15.122  18.069  12.967
49406W        W21721  23.225  38.820  13.933
49407W        W21722   1.978   5.838   1.922
49408W        W21723  41.867  38.863  13.016
49409W        W21724   2.236   5.798  13.876
49410W        W21725  26.607  40.862   4.317
49411W        W21726  14.118   2.289   4.206
49412W        W21727  23.547  36.539  14.276
49413W        W21728   2.457   2.913   4.347
49414W        W21729  20.714  20.587   3.219
49415W        W21730  15.292  29.605   0.428
49416W        W21731  33.001  21.215  11.975
49417W        W21732  25.171   8.321   4.173
49418W        W21733  27.111  30.155   3.677
49419W        W21734  25.653  11.272  10.643
49420W        W21735  27.073  36.531  12.495
49421W        W21736   2.430  30.433  14.505
49422W        W21737  22.148  13.292   4.260
49423W        W21738  29.145  27.603  10.443
49424W        W21739  39.556  22.238  12.955
49425W        W21740  13.317  38.941   3.817
49426W        W21741  33.506  36.848   0.381
49427W        W21742  37.848   8.321   2.853
49428W        W21743  31.145  24.129  11.072
49429W        W21744   4.283  17.094  14.854
49430W        W21745  17.159  25.528   4.701
49431W        W21746  14.778  25.067  10.574
49432W        W21747  32.109  38.334   2.739
49433W        W21748  20.544   9.821  13.418
49434W        W21749  34.059  21.750  14.022
49435W        W21750  19.147   1.308   0.243
49436W        W21751   5.711  23.633   3.778
49437W        W21752   1.876  39.048  12.413
49438W        W21753  25.712  27.976  14.763
49439W        W21754   0.900  25.082  12.965
49440W        W21755  28.599  24.011   4.186
49441W        W21756  43.384  10.257   4.339
49442W        W21757   8.262   0.353   1.228
49443W        W21758  36.999  31.588   2.707
49444W        W21759   8.899  12.333  14.952
49445W        W21760  33.093  36.942   0.412
49446W        W21761  17.671  33.057   3.843
49447W        W21762  26.683  39.533  13.493
49448W        W21763   1.386  25.524   3.648
49449W        W21764  39.933  37.378   4.839
49450W        W21765  37.087  43.934  12.979
49451W        W21766  43.308  16.725   1.243
49452W        W21767   7.695  13.337   2.296
49453W        W21768  10.337   1.431  14.511
49454W        W21769   4.333  11.698   0.430
49455W        W21770  11.172  19.170   0.835
49456W        W21771  39.909  23.521  13.458
49457W        W21772  10.686   9.300   1.810
49458W        W21773  18.147  37.380  14.404
49459W        W21774   3.863  15.739   0.250
49460W        W21775  19.102  11.150   4.708
49461W        W21776  17.129  30.112   5.181
49462W        W21777  25.611   6.405  14.874
49463W        W21778  32.416   0.843   2.239
49464W        W21779  38.495  22.734   3.838
49465W        W21780  22.684  17.241  12.520
49466W        W21781   0.396   0.955  12.555
49467W        W21782  27.659  12.349  11.978
49468W        W21783  15.271   6.184   1.434
49469W        W21784  11.151  17.685   0.887
49470W        W21785  21.707  17.188   3.762
49471W        W21786   8.269   0.338   4.264
49472W        W21787  37.882  19.261   3.209
49473W        W21788   1.954  14.236   3.206
49474W        W21789   9.708   3.846   3.676
49475W        W21790  17.594  32.562   3.657
49476W        W21791  16.580  41.924   2.203
49477W        W21792  31.453  22.180  13.807
49478W        W21793  26.580  21.118  14.763
49479W        W21794   7.674  35.982  13.419
49480W        W21795  14.749   2.931   3.670
49481W        W21796  35.368  36.923   1.344
49482W        W21797  12.616   2.239   2.319
49483W        W21798  41.903  21.153   0.340
49484W        W21799   0.443  12.709  11.959
49485W        W21800  31.555  16.588  11.957
49486W        W21801  31.079  32.543  13.483
49487W        W21802  32.964  14.150   1.861
49488W        W21803  19.171   1.899   2.841
49489W        W21804  30.925   3.318  10.404
49490W        W21805  25.989   2.880   2.213
49491W        W21806  10.781  16.605  10.515
49492W        W21807   0.266  44.842   4.832
49493W        W21808  12.742  32.392   0.409
49494W        W21809  43.385  14.210   0.854
49495W        W21810  26.699  38.374  14.979
49496W        W21811  11.219  38.892  12.400
49497W        W21812  43.483   7.709   1.393
49498W        W21813   0.392  19.125  11.898
49499W        W21814  44.417  37.998   4.689
49500W        W21815   0.831  14.148   2.712
49501W        W21816  24.075  43.470  11.879
49502W        W21817   1.789  29.967  11.034
49503W        W21818   2.724   6.851  11.949
49504W        W21819   3.892  12.152  13.927
49505W        W21820  33.035  13.142  10.999
49506W        W21821   7.875  36.057  12.897
49507W        W21822  19.582  41.893  10.962
49508W        W21823  41.445  23.036   0.938
49509W        W21824  29.437  18.616   5.114
49510W        W21825   6.321  37.059   3.799
49511W        W21826  17.163  18.558  14.433
49512W        W21827  34.955  38.071  14.808
49513W        W21828  20.138   6.330  13.470
49514W        W21829  22.112  26.530  10.590
49515W        W21830  42.972  30.084  14.890
49516W        W21831  31.626   7.174   2.836
49517W        W21832   1.287  31.949   4.249
49518W        W21833  31.590   2.930  14.284
49519W        W21834   8.350  10.348   4.285
49520W        W21835   8.731  11.682   1.889
49521W        W21836  11.809  30.589  10.898
49522W        W21837  23.020  26.558   2.277
49523W        W21838   2.960   7.266  12.029
49524W        W21839  14.145  21.514   4.320
49525W        W21840  35.100   2.937  13.327
49526W        W21841  10.259  11.371   0.304
49527W        W21842  40.806  15.797  12.504
49528W        W21843  19.710  37.057   0.805
49529W        W21844  16.728  24.601   3.784
49530W        W21845  11.863  19.675  14.323
49531W        W21846   2.850  13.289  11.503
49532W        W21847  29.435  31.638   2.841
49533W        W21848  26.068  37.075   0.282
49534W        W21849  17.634  34.044  13.977
49535W        W21850  30.141   4.844   0.382
49536W        W21851  25.679  15.109   3.265
49537W        W21852   0.324  38.976  13.878
49538W        W21853  31.921   6.773   0.864
49539W        W21854   7.333  18.265   4.619
49540W        W21855   2.806  29.467  12.559
49541W        W21856  12.805  31.523   2.772
49542W        W21857  16.194  31.439  12.555
49543W        W21858  41.984  29.124  11.483
49544W        W21859  36.586   5.897  14.432
49545W        W21860  20.272   9.753   3.686
49546W        W21861   7.247  38.854   0.352
49547W        W21862   8.679  13.187   2.787
49548W        W21863  40.391  28.118  10.015
49549W        W21864  15.648   6.739   3.335
49550W        W21865  11.699  23.543   0.764
49551W        W21866  13.287  36.898   3.777
49552W        W21867  16.619   1.880  11.080
49553W        W21868  11.717  33.491   1.748
49554W        W21869  14.174  22.740   0.938
49555W        W21870  44.806   4.913  12.934
49556W        W21871  41.971  35.959   1.788
49557W        W21872  12.248  41.362  11.462
49558W        W21873  40.928  44.281   4.135
49559W        W21874  37.970  20.541  11.375
49560W        W21875  36.891   5.729  13.004
49561W        W21876  14.113  40.919  10.499
49562W        W21877  13.202  25.483   4.220
49563W        W21878  39.386   6.751   2.307
49564W        W21879  28.585  25.703  12.425
49565W        W21880  18.683  38.852  13.529
49566W        W21881  38.351  36.936  12.835
49567W        W21882   1.733  20.107  11.023
49568W        W21883   8.329  13.620   4.295
49569W        W21884  32.990  22.561  11.520
49570W        W21885  20.203  36.943   3.329
49571W        W21886   0.376   9.233   4.810
49572W        W21887   6.254  41.324  10.629
49573W        W21888   6.329   0.459   4.789
49574W        W21889  44.926  36.041   4.289
49575W        W21890  42.880  35.861   2.726
49576W        W21891   8.365  23.722   0.935
49577W        W21892  40.505  43.393  14.278
49578W        W21893   1.923  29.952   1.336
49579W        W21894  42.913   8.717  13.912
49580W        W21895  32.463  27.485   1.834
49581W        W21896  15.651  29.502  11.074
49582W        W21897  24.072  36.504  14.304
49583W        W21898  40.459  28.152  12.493
49584W        W21899  11.193  30.634  13.905
49585W        W21900  30.601   7.822   1.930
49586W        W21901  13.672  30.988  11.880
49587W        W21902  29.526  32.093   4.305
49588W        W21903   8.745  25.473  11.013
49589W        W21904  28.582  43.345   4.330
49590W        W21905  12.658   5.919   0.789
49591W        W21906   5.835   5.431  11.541
49592W        W21907  16.161   6.831  13.414
49593W        W21908  27.965   7.757  10.903
49594W        W21909   1.395  21.130   3.262
49595W        W21910  26.621  23.509  11.562
49596W        W21911  38.373  21.551  11.073
49597W        W21912   2.277  12.291  13.874
49598W        W21913  31.507  33.048  13.895
49599W        W21914   0.357  14.194  12.065
49600W        W21915  19.176  22.545  14.952
49601W        W21916  24.118  42.002   2.402
49602W        W21917  42.932  27.976   1.273
49603W        W21918   5.197  41.420   2.883
49604W        W21919  31.968  42.867   1.225
49605W        W21920  30.997  39.416  13.885
49606W        W21921   8.675   1.428  13.793
49607W        W21922  13.324  39.837   3.774
49608W        W21923   5.346  44.923  14.765
49609W        W21924  19.754  11.298  11.943
49610W        W21925  27.602   6.917   3.770
49611W        W21926  36.426  24.024   5.182
49612W        W21927  25.487  43.346   4.168
49613W        W21928  42.334  15.154   4.176
49614W        W21929  11.727  26.140   0.285
49615W        W21930  33.116   4.943  14.817
49616W        W21931  44.447  15.245   1.712
49617W        W21932   1.884   5.790   0.862
49618W        W21933  29.432   0.316   1.699
49619W        W21934  20.721   4.351   4.322
49620W        W21935  11.281  17.302  14.496
49621W        W21936  24.186  32.537  11.515
49622W        W21937   0.951  30.145   0.243
49623W        W21938   9.175   6.257   3.252
49624W        W21939  13.643  43.463   1.343
49625W        W21940   1.357  41.017   2.892
49626W        W21941   4.343  32.025  13.462
49627W        W21942  34.981   4.906   2.712
49628W        W21943   0.761  34.049   9.544
49629W        W21944  23.088  19.764   3.868
49630W        W21945  40.801  19.562  14.350
49631W        W21946  21.711  16.262  13.957
49632W        W21947  17.230   5.344   1.912
49633W        W21948  37.853  12.219  14.463
49634W        W21949   5.766  26.566  14.513
49635W        W21950  14.288  41.968   3.174
49636W        W21951  37.019  25.697   1.879
49637W        W21952  23.675   4.407   1.328
49638W        W21953   2.966  21.161  13.903
49639W        W21954  38.416  40.443  14.899
49640W        W21955  25.533   5.307  14.935
49641W        W21956  10.382   8.374  13.376
49642W        W21957  38.846   9.732  11.600
49643W        W21958  16.670  40.351   0.415
49644W        W21959  19.671  44.392  13.886
49645W        W21960  24.680  37.380   5.182
49646W        W21961  40.325   1.281  10.623
49647W        W21962  22.559  16.585  11.465
49648W        W21963  38.852   6.871  12.916
49649W        W21964  43.827  28.487   4.213
49650W        W21965   7.187  30.553  13.989
49651W        W21966  22.708  12.632  13.479
49652W        W21967  38.434   5.738  13.011
49653W        W21968  25.985  11.231  14.002
49654W        W21969   1.358  19.059  14.443
49655W        W21970  11.292  31.980  11.528
49656W        W21971  27.038  18.656  13.915
49657W        W21972  40.433  40.394  11.856
49658W        W21973  13.150   4.257  14.332
49659W        W21974  22.731  21.177  13.017
49660W        W21975   4.842   5.892   9.971
49661W        W21976   1.901   2.363   0.369
49662W        W21977  43.503   7.199   3.800
49663W        W21978  11.627  10.370  12.895
49664W        W21979  15.290  23.719  13.512
49665W        W21980  35.897  19.558   0.400
49666W        W21981  35.920  16.229  11.121
49667W        W21982   1.876  20.708   2.854
49668W        W21983  37.003  15.318  12.975
49669W        W21984  28.612  34.475   4.241
49670W        W21985  14.111  20.522   4.339
49671W        W21986  36.097  13.291  11.451
49672W        W21987  35.499   4.434  14.500
49673W        W21988  35.029  33.433   1.809
49674W        W21989   3.371  33.974  12.960
49675W        W21990  18.080  35.425   0.899
49676W        W21991  36.486  44.327  12.348
49677W        W21992   9.695  33.399  13.396
49678W        W21993  28.454  44.333  13.528
49679W        W21994  26.528  21.638   3.180
49680W        W21995  27.689  17.648  14.825
49681W        W21996   4.938  14.678   4.834
49682W        W21997  39.430   5.903  12.921
49683W        W21998  18.603  31.407   3.750
49684W        W21999   6.251   0.444   4.158
49685W        W22000  18.574  22.140   3.713
49686W        W22001  36.516  37.006   3.161
49687W        W22002  29.615   1.378   0.419
49688W        W22003   6.748  38.527  12.510
49689W        W22004   9.304  16.599   9.489
49690W        W22005  37.498  26.649  13.836
49691W        W22006  38.529  28.522  10.475
49692W        W22007  37.563  13.687   3.688
49693W        W22008  12.199  26.175  14.410
49694W        W22009  14.785  41.826   3.834
49695W        W22010  18.609  12.197   0.814
49696W        W22011   9.338   2.916   4.691
49697W        W22012  21.524  12.764  10.406
49698W        W22013  17.220  22.589  11.110
49699W        W22014  36.435  18.109  11.466
49700W        W22015   3.304  17.213  12.837
49701W        W22016  26.681  44.776  12.390
49702W        W22017   4.242  44.329   4.114
49703W        W22018  18.785   7.203  13.813
49704W        W22019  44.864  36.017   5.144
49705W        W22020  16.709  17.288  13.047
49706W        W22021   1.406   5.906  12.094
49707W        W22022  16.680  26.130  13.986
49708W        W22023  10.307  11.318   4.799
49709W        W22024  20.662  14.331  10.468
49710W        W22025  14.109  18.162   3.151
49711W        W22026  17.718   5.365   1.263
49712W        W22027  39.857  37.903   1.291
49713W        W22028  20.542  35.485   3.812
49714W        W22029  16.813  30.016   0.932
49715W        W22030  19.136  28.136  14.343
49716W        W22031  21.114  18.612  13.864
49717W        W22032  11.228  34.054  14.360
49718W        W22033  34.575   0.334   1.821
49719W        W22034   1.976  43.001  11.473
49720W        W22035   7.790   6.395   4.193
49721W        W22036  44.792   6.364  12.044
49722W        W22037  38.014  31.614  14.944
49723W        W22038  19.134  40.990  12.063
49724W        W22039  33.128   1.446   3.248
49725W        W22040  20.148  44.405  13.894
49726W        W22041  10.639  37.547   0.815
49727W        W22042  28.046   1.368   5.097
49728W        W22043  24.062  42.946   2.663
49729W        W22044   1.430   1.294  13.497
49730W        W22045  23.163   1.480  10.527
49731W        W22046  24.220  27.612  13.389
49732W        W22047  43.814  34.455   9.981
49733W        W22048   4.269  32.014   4.314
49734W        W22049  41.793  24.642   0.274
49735W        W22050  29.174   2.958   1.779
49736W        W22051  38.998  12.711   4.768
49737W        W22052  17.267   8.209   4.288
49738W        W22053  32.018  29.545   2.225
49739W        W22054  13.688  32.096   4.801
49740W        W22055   1.905  10.875   2.664
49741W        W22056  31.070  33.419  11.046
49742W        W22057  21.064   5.197   0.446
49743W        W22058  26.579  24.666   4.697
49744W        W22059  31.941  39.993  11.054
49745W        W22060  29.124   2.850  12.362
49746W        W22061  36.930  13.671   1.935
49747W        W22062   7.403  34.984  13.484
49748W        W22063   4.355  42.317   2.894
49749W        W22064  34.466   1.397  11.527
49750W        W22065  44.925  20.206   4.809
49751W        W22066  36.075  13.751  12.478
49752W        W22067  44.279  11.307  12.031
49753W        W22068  20.584  32.411   4.675
49754W        W22069  10.824  19.744   3.806
49755W        W22070  28.122  30.488   2.746
49756W        W22071   1.325  35.379   1.391
49757W        W22072   1.240  43.898  11.910
49758W        W22073  17.723  10.228  13.461
49759W        W22074  42.898  21.538  13.886
49760W        W22075  40.838  27.468   3.667
49761W        W22076  24.069  37.436  14.828
49762W        W22077  13.615  25.653  13.982
49763W        W22078  19.196  10.662  11.031
49764W        W22079   9.225  17.208   5.744
49765W        W22080  25.693  11.757   1.931
49766W        W22081   0.457   5.715   3.746
49767W        W22082   3.445  17.782   3.246
49768W        W22083   9.736  33.060   2.837
49769W        W22084   8.695   8.209   4.246
49770W        W22085  33.026  31.532  13.419
49771W        W22086  43.995  39.050  14.939
49772W        W22087  11.154   1.834  12.447
49773W        W22088  14.700  13.304  14.981
49774W        W22089   4.232  17.578  11.070
49775W        W22090   6.369   9.680   3.173
49776W        W22091  18.262  40.448   0.300
49777W        W22092  21.262  35.504  11.085
49778W        W22093  16.216   0.771   9.942
49779W        W22094  19.653  32.472  14.411
49780W        W22095  16.610  19.569   3.715
49781W        W22096  32.051  34.472   0.448
49782W        W22097  32.974  39.465  14.871
49783W        W22098   9.215   3.773   3.198
49784W        W22099  13.228  17.216  14.431
49785W        W22100   2.724  10.212   3.158
49786W        W22101  20.257  17.714   1.320
49787W        W22102  39.912  20.051  14.487
49788W        W22103  41.329  21.513   0.879
49789W        W22104  35.874  23.161  12.844
49790W        W22105   8.783  37.449  12.384
49791W        W22106  42.010   6.801   1.856
49792W        W22107  34.999   3.952  10.593
49793W        W22108   7.385   7.738  10.465
49794W        W22109  18.771  23.226  14.030
49795W        W22110  34.450  15.247  13.016
49796W        W22111   4.729  16.094   4.162
49797W        W22112  35.075   1.966   3.275
49798W        W22113  13.291  31.054   1.220
49799W        W22114  29.048   3.790   4.704
49800W        W22115  20.598  23.645   1.430
49801W        W22116  34.884  11.320  13.325
49802W        W22117  19.748   1.959  13.893
49803W        W22118   1.894  13.345  11.958
49804W        W22119  22.155  44.422   3.166
49805W        W22120   4.329  31.116  12.439
49806W        W22121  20.123  30.157   4.694
49807W        W22122   7.673   4.326  14.476
49808W        W22123   6.709  27.602   0.458
49809W        W22124  22.054  37.558  10.541
49810W        W22125  19.731   5.705   3.762
49811W        W22126  18.142  22.078   1.334
49812W        W22127  26.051   7.193  14.972
49813W        W22128  12.228   3.379   2.679
49814W        W22129  30.510  31.529  14.412
49815W        W22130  18.096  14.725   2.309
49816W        W22131   6.889  40.947  14.299
49817W        W22132  37.411   7.835   1.276
49818W        W22133  31.474  24.217  13.846
49819W        W22134  20.246  15.215  11.396
49820W        W22135  20.194  33.413  14.000
49821W        W22136   7.373  16.139   2.190
49822W        W22137   6.720  25.065  14.969
49823W        W22138  15.736  19.209  10.444
49824W        W22139  24.161  26.557  12.459
49825W        W22140  24.203   8.801   1.441
49826W        W22141   2.292  18.080   3.753
49827W        W22142   5.763  23.533  11.385
49828W        W22143  27.501  25.641   3.160
49829W        W22144   2.350  30.541   3.365
49830W        W22145  39.983  39.023  11.993
49831W        W22146  31.553  32.520   0.258
49832W        W22147  20.636  11.191   1.825
49833W        W22148  37.927  17.701  11.976
49834W        W22149   5.421  44.899   3.190
49835W        W22150  14.143  44.864   2.707
49836W        W22151  29.932   8.253   1.332
49837W        W22152  23.681   8.326  12.920
49838W        W22153   3.426  39.946  11.077
49839W        W22154  11.621   3.251  12.020
49840W        W22155   6.693   6.366  13.441
49841W        W22156  34.999  18.708   0.271
49842W        W22157  15.216  13.307   4.755
49843W        W22158  10.144   4.912  10.496
49844W        W22159   0.352  37.382   3.380
49845W        W22160  35.064  34.376   1.350
49846W        W22161   3.728  21.714  11.995
49847W        W22162   8.332   7.309   0.922
49848W        W22163   9.254   2.352  13.376
49849W        W22164  16.621  30.130  13.425
49850W        W22165  43.341  10.805  12.071
49851W        W22166  19.169  16.671  12.070
49852W        W22167  23.241  38.489  11.975
49853W        W22168  32.478  21.202   2.208
49854W        W22169  26.608  36.390   5.128
49855W        W22170  43.324  11.793  12.552
49856W        W22171  36.593   6.907  13.466
49857W        W22172  26.508  43.016   1.819
49858W        W22173  44.973  38.028   1.350
49859W        W22174  40.358  42.875  10.427
49860W        W22175  37.489   8.687   3.291
49861W        W22176   9.384  13.134  13.367
49862W        W22177  34.425   1.366   2.225
49863W        W22178  14.730  35.106  12.546
49864W        W22179  40.314  34.032  10.516
49865W        W22180   8.750  24.101  14.962
49866W        W22181  17.200  10.158  10.461
49867W        W22182  44.368  42.023   3.643
49868W        W22183  10.782  36.867   1.811
49869W        W22184   9.260  23.675  14.992
49870W        W22185  25.484  14.824  14.807
49871W        W22186  22.608  44.975  13.343
49872W        W22187   4.743  12.312   0.377
49873W        W22188  10.686  22.718   1.417
49874W        W22189   9.796  44.820  13.378
49875W        W22190  42.327  26.625   0.773
49876W        W22191  39.535  33.435  13.940
49877W        W22192  17.188  18.557  13.395
49878W        W22193   8.381  29.053   2.826
49879W        W22194  21.542  43.788  11.442
49880W        W22195  19.585  13.181   3.667
49881W        W22196  26.491  43.283   3.731
49882W        W22197  34.899   8.248  14.026
49883W        W22198  15.595  40.040  10.540
49884W        W22199  33.014  32.028  10.946
49885W        W22200  21.713  26.192  11.486
49886W        W22201  16.089  26.543  10.631
49887W        W22202   0.823   6.339   2.883
49888W        W22203  11.850  37.880  12.017
49889W        W22204  20.264  12.261   4.116
49890W        W22205  43.918  30.540   2.830
49891W        W22206  16.226  20.099   1.288
49892W        W22207  28.651   0.840  10.537
49893W        W22208  36.892  19.122   4.699
49894W        W22209  16.678  17.741   2.294
49895W        W22210   6.836  37.038   3.178
49896W        W22211  26.103  25.549  14.476
49897W        W22212  13.223  37.039   1.853
49898W        W22213  20.060  11.223  13.483
49899W        W22214  42.943  30.526  13.390
49900W        W22215  28.542  28.117   3.189
49901W        W22216  16.809  18.275   2.730
49902W        W22217  14.736  42.437   1.864
49903W        W22218   2.401  29.618  14.887
49904W        W22219  43.891   4.378  13.837
49905W        W22220   4.233  21.643  10.577
49906W        W22221  33.019  41.894   4.671
49907W        W22222  18.156  21.567  14.312
49908W        W22223   0.483  14.290  14.836
49909W        W22224   9.669   3.326   2.225
49910W        W22225  39.064  21.608  14.936
49911W        W22226  41.836  14.173   3.683
49912W        W22227  19.738   0.854   2.187
49913W        W22228  29.620  41.922  11.526
49914W        W22229   1.731  25.559  13.356
49915W        W22230  14.782  17.159  10.891
49916W        W22231   4.332   4.429  14.982
49917W        W22232  15.672  33.120  10.434
49918W        W22233  21.219  38.851  10.477
49919W        W22234   1.788   2.321   2.416
49920W        W22235  18.758  11.637  11.035
49921W        W22236   3.360  17.576   0.943
49922W        W22237   8.295  40.836  13.827
49923W        W22238  22.197  34.886  11.497
49924W        W22239  23.521   9.726   1.756
49925W        W22240   4.353   6.789   4.170
49926W        W22241  13.243  14.805   1.293
49927W        W22242  19.690  29.596   3.328
49928W        W22243  32.010  28.655   3.651
49929W        W22244   5.888   4.757   4.790
49930W        W22245  25.627   3.357   1.350
49931W        W22246  20.589  41.532   3.207
49932W        W22247  12.650   3.244  14.792
49933W        W22248  27.018  35.105   4.619
49934W        W22249  26.580  36.018   9.990
49935W        W22250   9.197  21.758   4.126
49936W        W22251  31.972  17.067  14.443
49937W        W22252  43.805   7.389  10.493
49938W        W22253  12.794  23.619   0.823
49939W        W22254  13.253  26.205   4.764
49940W        W22255  40.404  12.278   0.818
49941W        W22256   6.710  29.091   0.279
49942W        W22257   2.444  25.003   1.887
49943W        W22258  16.314  41.827  11.887
49944W        W22259  16.302  11.304   2.316
49945W        W22260  40.978  13.311   1.406
49946W        W22261   9.328  38.411   1.289
49947W        W22262  31.945  28.629   3.344
49948W        W22263  32.527  12.132   0.854
49949W        W22264   8.884  24.149  13.969
49950W        W22265  13.808  12.284   4.345
49951W        W22266   8.679  30.999   2.746
49952W        W22267  19.222  37.003   1.214
49953W        W22268  37.555  39.927  11.427
49954W        W22269  27.565  23.150   0.395
49955W        W22270  35.488  12.166   0.458
49956W        W22271  38.872  27.116  13.006
49957W        W22272  11.155  41.874  11.032
49958W        W22273  28.523  14.788   2.375
49959W        W22274  42.874  25.679   2.809
49960W        W22275   6.808   0.867   2.393
49961W        W22276  43.832  20.101   4.735
49962W        W22277  34.473  15.249  13.402
49963W        W22278  14.680  19.117   2.810
49964W        W22279  32.536  31.123  11.934
49965W        W22280  27.552   2.748   1.758
49966W        W22281  14.190   3.850  11.410
49967W        W22282  32.041  19.098  12.501
49968W        W22283  26.994  44.295   3.317
49969W        W22284  15.168  32.407   3.194
49970W        W22285  11.367  28.472  13.849
49971W        W22286  19.671   5.298  11.080
49972W        W22287   8.666  38.370  14.507
49973W        W22288  12.834  28.502  13.878
49974W        W22289   9.651  44.452   2.245
49975W        W22290  30.961   8.191  14.994
49976W        W22291  43.981  31.896  10.494
49977W        W22292  16.242  36.484  12.397
49978W        W22293  41.907  44.993  12.040
49979W        W22294   0.944  37.515  11.099
49980W        W22295   8.403   4.877   1.883
49981W        W22296  23.645  34.062   3.832
49982W        W22297   7.722  11.685  14.759
49983W        W22298   1.239  25.524  12.459
49984W        W22299  27.490  11.724  10.432
49985W        W22300  30.530  37.032  12.465
49986W        W22301   6.812  44.842   3.163
49987W        W22302   6.417  17.588  13.970
49988W        W22303  35.892  43.468   2.197
49989W        W22304  44.868  16.710  12.894
49990W        W22305  32.043  19.582   1.356
49991W        W22306  41.871  39.902   1.703
49992W        W22307  27.099  13.182  12.074
49993W        W22308  35.853  24.546   0.276
49994W        W22309  17.723  20.167   1.797
49995W        W22310  14.183  32.411  12.537
49996W        W22311  27.074  25.167   1.360
49997W        W22312  16.595  20.189  13.440
49998W        W22313   0.326   6.395   1.444
49999W        W22314  25.521   7.336   1.885
50000W        W22315  17.779  38.010   0.836
50001W        W22316  28.456  41.325   0.891
50002W        W22317  14.197  43.834  14.906
50003W        W22318  16.205  39.430  12.377
50004W        W22319  12.245  19.769  13.935
50005W        W22320  39.453  15.767   4.682
50006W        W22321  22.235   6.298  14.915
50007W        W22322  36.974  29.991   3.648
50008W        W22323  44.479  27.165  11.525
50009W        W22324   7.770  11.659  13.422
50010W        W22325  30.023   1.288  14.437
50011W        W22326   2.420  29.546   4.140
50012W        W22327  11.701  32.885   2.335
50013W        W22328  37.054  12.718  14.031
50014W        W22329  44.441   3.873  10.891
50015W        W22330   7.351  44.799   1.263
50016W        W22331   3.299  42.901  13.389
50017W        W22332  22.655  11.754  10.613
50018W        W22333   5.877   7.858   0.928
50019W        W22334  17.616  42.817   4.148
50020W        W22335  26.627   3.814   0.256
50021W        W22336  17.685  18.180   4.196
50022W        W22337  26.173   5.819   5.631
50023W        W22338  35.488  31.528  11.593
50024W        W22339  25.572  33.395  14.795
50025W        W22340  43.403  18.165   9.995
50026W        W22341   0.403  40.812   1.268
50027W        W22342  19.777  32.984  10.943
50028W        W22343  29.994  21.734  11.975
50029W        W22344  21.624  38.040  10.903
50030W        W22345   3.291   6.225   3.677
50031W        W22346  29.472   0.901  13.462
50032W        W22347  44.274  16.751  13.506
50033W        W22348   7.370  12.351  12.379
50034W        W22349  20.657  24.080  13.845
50035W        W22350  31.523  18.246   3.384
50036W        W22351  22.213  10.692   4.653
50037W        W22352   5.774  20.266  14.999
50038W        W22353   0.468   9.763  11.985
50039W        W22354  39.858  40.366   0.763
50040W        W22355   1.464  41.002  14.913
50041W        W22356  38.877  42.881  11.867
50042W        W22357  30.463  19.599  14.843
50043W        W22358  15.713   7.174  13.358
50044W        W22359  35.482  14.660  14.965
50045W        W22360  19.176  14.789   3.187
50046W        W22361  16.224  27.613  11.589
50047W        W22362  25.618  28.965  13.047
50048W        W22363   0.410   9.182  10.468
50049W        W22364   4.246  29.605  13.349
50050W        W22365  28.583   4.926  11.572
50051W        W22366  29.657  18.236  14.496
50052W        W22367  36.557  24.487   4.304
50053W        W22368  20.731   4.325  14.857
50054W        W22369  26.188  38.549   3.770
50055W        W22370  34.538  11.205  14.984
50056W        W22371  15.250  24.005  13.519
50057W        W22372  44.505  20.080   1.247
50058W        W22373  37.859   8.890   2.220
50059W        W22374  34.960   9.714  11.385
50060W        W22375  39.324   8.668  11.942
50061W        W22376  22.220  15.709  12.904
50062W        W22377  25.140  22.034  14.898
50063W        W22378  41.417  38.879   3.301
50064W        W22379  36.472  13.158  14.907
50065W        W22380  34.486  18.240   0.739
50066W        W22381  16.109  27.964   0.477
50067W        W22382  37.899  11.174  11.029
50068W        W22383  28.509  29.649  13.481
50069W        W22384  33.420  17.262   0.832
50070W        W22385  22.245  19.084  12.951
50071W        W22386  22.012  17.260   0.866
50072W        W22387  38.501   8.226   2.834
50073W        W22388  36.464  15.625   1.833
50074W        W22389  15.306  18.735  13.956
50075W        W22390  20.567  34.598   0.776
50076W        W22391  29.432  21.044  11.439
50077W        W22392  28.037  27.075   4.169
50078W        W22393  29.978  26.681   3.810
50079W        W22394   3.796  16.736   4.346
50080W        W22395   7.760   7.889   2.857
50081W        W22396  33.047  26.124   4.300
50082W        W22397  10.649  25.679  10.967
50083W        W22398  21.020  30.416   0.442
50084W        W22399  38.373   5.908  11.947
50085W        W22400  20.192  40.378   2.228
50086W        W22401  29.465  37.015   3.871
50087W        W22402  36.880   6.330  13.896
50088W        W22403  29.437  15.711  12.953
50089W        W22404  28.593  26.524   2.327
50090W        W22405   4.774  15.728   2.259
50091W        W22406  19.272  27.594  12.355
50092W        W22407  26.023  38.988  13.547
50093W        W22408  40.521  37.939  11.051
50094W        W22409  31.101  31.114  11.932
50095W        W22410  14.108  42.860   3.331
50096W        W22411   9.291  30.912   1.250
50097W        W22412   6.767  20.589   0.818
50098W        W22413   3.783   7.234   2.242
50099W        W22414  28.599  37.951   1.903
50100W        W22415  17.589  23.082   0.831
50101W        W22416  31.527  25.008   0.765
50102W        W22417  37.956   2.961  10.599
50103W        W22418   0.979  13.217   2.795
50104W        W22419  34.532  31.632  13.812
50105W        W22420  29.100  11.156  11.034
50106W        W22421  25.013  28.040  11.421
50107W        W22422  22.552  23.065   1.271
50108W        W22423  26.069  19.683   2.298
50109W        W22424  18.726  13.711   1.849
50110W        W22425  22.236  34.913  14.366
50111W        W22426  10.770  16.720   2.791
50112W        W22427  18.137  11.185  12.857
50113W        W22428  30.500  35.056  13.971
50114W        W22429  40.821   9.182   0.774
50115W        W22430  26.066  33.056   1.908
50116W        W22431  10.834  14.229   3.373
50117W        W22432   8.736  34.490  14.367
50118W        W22433  23.676  38.411  10.534
50119W        W22434  14.220  39.002   1.845
50120W        W22435  15.616   3.889   1.364
50121W        W22436  44.375  40.907  14.915
50122W        W22437  42.962  34.486   1.747
50123W        W22438  12.347  39.936  13.353
50124W        W22439  18.715  37.505   3.640
50125W        W22440  22.057  30.516   3.666
50126W        W22441  17.679  29.170  11.541
50127W        W22442  30.129  10.216  13.028
50128W        W22443  38.482  23.072  10.125
50129W        W22444   4.444  40.450  13.450
50130W        W22445  24.707  16.262   1.811
50131W        W22446  23.043  10.246  12.839
50132W        W22447  36.515  23.185  14.376
50133W        W22448   7.410  27.553   2.732
50134W        W22449   1.888  19.179  13.373
50135W        W22450  19.285   4.761   2.180
50136W        W22451  30.936   6.803   4.257
50137W        W22452  44.800  17.291   4.252
50138W        W22453  28.026   9.347   1.226
50139W        W22454  13.195   7.779   4.258
50140W        W22455  20.223  15.191  11.055
50141W        W22456  39.836   1.481  11.876
50142W        W22457  37.542  20.657  12.882
50143W        W22458  29.066   5.858   0.395
50144W        W22459   8.761   0.828  13.985
50145W        W22460  35.494  35.479  11.899
50146W        W22461  13.840   5.803  13.354
50147W        W22462  10.649  20.258  14.874
50148W        W22463  43.391  32.015  12.961
50149W        W22464  38.842  25.971   0.914
50150W        W22465  26.032   3.296   2.281
50151W        W22466  11.709  40.462   3.744
50152W        W22467  38.338  10.171   1.219
50153W        W22468  16.196  41.316  11.481
50154W        W22469  16.762  38.013  11.600
50155W        W22470  39.005   7.747   1.419
50156W        W22471  11.683  34.930  11.519
50157W        W22472  11.684   2.910   3.179
50158W        W22473   1.416  34.066   2.358
50159W        W22474  22.045  35.490   2.391
50160W        W22475  41.491  20.663  11.010
50161W        W22476   2.351  31.969   4.781
50162W        W22477  28.468  19.585   2.376
50163W        W22478  15.182  42.828  13.519
50164W        W22479  33.951   2.963   0.370
50165W        W22480   1.929  11.171  10.615
50166W        W22481   8.837  42.474  13.414
50167W        W22482  25.676  17.633   2.680
50168W        W22483   3.943  37.466  10.119
50169W        W22484  30.961   8.239  13.416
50170W        W22485  17.230  13.194   2.240
50171W        W22486  21.107  25.134   3.665
50172W        W22487  16.587  18.096   0.435
50173W        W22488  26.651  19.621   0.250
50174W        W22489  43.450   3.394   2.762
50175W        W22490   7.781  36.967  13.499
50176W        W22491  39.841  30.987  12.004
50177W        W22492  12.272  30.618  13.866
50178W        W22493  26.189  29.555   0.777
50179W        W22494  40.902  12.688   4.759
50180W        W22495  38.332  21.112  13.054
50181W        W22496  27.109  20.656  14.310
50182W        W22497  17.072  12.309  14.412
50183W        W22498  16.722  27.455  11.384
50184W        W22499  31.605  15.207   4.137
50185W        W22500  38.958  33.056  10.143
50186W        W22501  35.499  44.943  12.063
50187W        W22502  26.663  34.974  14.030
50188W        W22503  23.725  23.203   2.185
50189W        W22504  24.011  34.970   2.877
50190W        W22505  28.464  20.102   2.261
50191W        W22506  23.667   7.291  13.856
50192W        W22507   3.749  10.698   0.942
50193W        W22508  42.907   0.934   2.844
50194W        W22509   9.339   4.250   3.170
50195W        W22510  11.839  32.111  13.466
50196W        W22511  24.013  11.346  13.524
50197W        W22512   3.800   3.739  12.579
50198W        W22513  40.878  37.030  12.567
50199W        W22514  44.280  43.974   0.762
50200W        W22515  18.083  31.119  13.832
50201W        W22516  42.478   2.768   1.426
50202W        W22517  36.022  10.792   2.872
50203W        W22518  29.507   1.800   1.784
50204W        W22519  32.076   1.916   3.764
50205W        W22520   8.819  13.820  10.575
50206W        W22521   9.248  27.486   3.779
50207W        W22522  25.652  17.581  14.419
50208W        W22523  36.468  38.389  12.430
50209W        W22524  44.326  26.697  14.938
50210W        W22525  30.440   6.337  13.938
50211W        W22526  31.921  12.788   2.805
50212W        W22527  13.119  26.658  10.542
50213W        W22528  15.618  34.473  14.764
50214W        W22529  31.641  14.623   4.233
50215W        W22530  10.659  17.282   4.152
50216W        W22531  36.587  15.818  14.997
50217W        W22532  35.560   5.220  14.815
50218W        W22533  25.511  38.443   2.359
50219W        W22534  18.756   2.330  13.314
50220W        W22535  44.483  19.657  12.478
50221W        W22536  18.607  13.718  12.549
50222W        W22537  42.019  36.082   3.149
50223W        W22538  38.845   8.337  10.447
50224W        W22539  34.377  39.363   1.917
50225W        W22540  30.507  25.657   4.607
50226W        W22541  20.074  31.521   4.739
50227W        W22542  42.461  38.430   0.741
50228W        W22543  21.702  13.645  14.419
50229W        W22544  10.191  38.042  13.436
50230W        W22545  26.146  15.131  13.852
50231W        W22546  17.187  37.944  14.433
50232W        W22547  16.730   9.727  11.582
50233W        W22548  29.610  31.111   3.633
50234W        W22549  22.162  41.827   0.309
50235W        W22550   1.237  27.133  13.394
50236W        W22551  44.344  29.095  13.350
50237W        W22552  34.449  25.681  14.793
50238W        W22553  19.706  36.070   4.269
50239W        W22554  13.164  23.059  12.559
50240W        W22555  18.627  44.420   1.855
50241W        W22556  10.772   6.182  14.481
50242W        W22557  33.906  17.218  14.382
50243W        W22558  27.683  24.025   0.421
50244W        W22559  44.773  16.193   2.869
50245W        W22560  23.717   3.232   0.309
50246W        W22561  24.484   4.778   2.786
50247W        W22562   4.307  39.848   1.734
50248W        W22563  16.126  37.348  10.625
50249W        W22564   4.716   2.945   3.160
50250W        W22565  19.778  31.521   0.948
50251W        W22566  14.188  32.931   4.802
50252W        W22567  41.426   3.884  14.795
50253W        W22568  12.245  19.182   1.772
50254W        W22569  13.179  19.174  14.354
50255W        W22570  12.676  40.532   0.797
50256W        W22571  13.179  29.451  13.004
50257W        W22572  36.456   4.382  12.505
50258W        W22573  43.875  43.935   2.790
50259W        W22574  29.951   1.483   4.710
50260W        W22575  24.507   5.709   3.856
50261W        W22576   8.734  44.297  13.886
50262W        W22577   8.222  18.708  14.848
50263W        W22578  44.760  26.590  14.019
50264W        W22579   0.280  16.165  13.791
50265W        W22580  39.438  12.738   5.237
50266W        W22581  15.222  34.043   3.256
50267W        W22582  40.467  20.627  11.577
50268W        W22583   9.277   5.780  11.933
50269W        W22584  37.483  23.557   0.482
50270W        W22585  15.161   3.914  12.829
50271W        W22586  38.398  31.478  13.343
50272W        W22587  24.069   1.800  12.448
50273W        W22588  42.360  40.528  10.540
50274W        W22589  10.873  10.774   1.803
50275W        W22590  15.676  39.869   0.760
50276W        W22591  10.849   6.264   0.421
50277W        W22592   6.680  44.809  11.091
50278W        W22593  44.498  39.062   4.784
50279W        W22594  30.133  24.206   2.677
50280W        W22595  37.462  18.727   4.709
50281W        W22596  37.444  31.461  10.469
50282W        W22597  36.391  24.646  13.971
50283W        W22598  33.584  28.073  13.030
50284W        W22599  41.529   4.938   1.436
50285W        W22600   0.469  10.805  10.522
50286W        W22601  41.968  30.152  14.966
50287W        W22602   7.303  16.102  13.486
50288W        W22603  39.409  43.452  10.932
50289W        W22604   9.677  43.805   1.410
50290W        W22605  17.693   2.433  13.323
50291W        W22606  16.318  37.351   2.395
50292W        W22607  44.884   0.856   0.966
50293W        W22608  28.985  28.501   4.232
50294W        W22609  28.507  24.061   1.317
50295W        W22610  16.646  11.785  10.632
50296W        W22611  23.529  42.333  12.050
50297W        W22612  22.537  44.387  11.892
50298W        W22613  28.561  40.323  13.832
50299W        W22614  27.036  17.706   2.215
50300W        W22615   5.709  41.935   0.301
50301W        W22616   9.751  29.955   4.171
50302W        W22617  26.133   2.770  12.365
50303W        W22618  12.262  38.026   2.770
50304W        W22619  40.863  37.888   4.773
50305W        W22620  11.746  42.866   0.872
50306W        W22621   1.907  24.995   2.367
50307W        W22622  24.084  29.468  11.881
50308W        W22623   9.654  32.029  13.325
50309W        W22624  14.256   7.808   4.123
50310W        W22625  36.409   4.767   0.259
50311W        W22626   7.882  13.281   3.255
50312W        W22627  29.119   2.827   4.818
50313W        W22628  34.949   0.760  10.107
50314W        W22629  34.606  18.177  13.862
50315W        W22630  37.069  20.265   1.441
50316W        W22631   7.742  33.510   5.235
50317W        W22632  24.601  34.898   3.230
50318W        W22633  11.801  40.497   0.817
50319W        W22634  22.205  42.466  13.871
50320W        W22635  27.565  27.082  10.437
50321W        W22636   2.313   0.450  12.553
50322W        W22637  43.824  21.096  11.438
50323W        W22638  34.884  16.652  13.829
50324W        W22639  10.234   0.867  10.532
50325W        W22640   4.893   0.425  13.370
50326W        W22641  40.339  18.075  12.533
50327W        W22642   7.784  26.065  10.984
50328W        W22643   4.736  34.100   3.767
50329W        W22644  28.040   5.228   0.811
50330W        W22645  19.055   9.735  10.644
50331W        W22646  39.894  39.984   3.372
50332W        W22647  37.511  31.484   4.760
50333W        W22648   3.757  24.988  14.439
50334W        W22649   3.733   4.393   0.438
50335W        W22650   4.810  15.328  13.975
50336W        W22651  11.158  24.646   0.843
50337W        W22652  38.022  18.237   2.703
50338W        W22653  36.510  36.551  12.042
50339W        W22654  34.596  30.425  13.454
50340W        W22655  31.405  30.120  11.475
50341W        W22656  40.937  21.035   3.192
50342W        W22657  11.273  19.670   3.631
50343W        W22658  17.588  13.273   3.157
50344W        W22659  22.108  32.937  11.118
50345W        W22660   4.275  34.903  14.972
50346W        W22661   2.922  27.658   1.254
50347W        W22662  10.815  19.237   9.470
50348W        W22663  12.846  14.148   0.827
50349W        W22664  12.289  28.505   0.458
50350W        W22665   4.224  20.084   3.376
50351W        W22666  20.534  13.656   1.732
50352W        W22667  30.907   5.818   0.815
50353W        W22668  20.633  27.152  10.632
50354W        W22669  38.928  15.089   4.337
50355W        W22670  10.671  20.678  11.032
50356W        W22671  19.609  43.947  13.999
50357W        W22672  16.200  31.936   4.281
50358W        W22673  25.576  36.484  14.879
50359W        W22674  25.133  25.647   0.371
50360W        W22675   7.366  27.004  10.983
50361W        W22676   5.354  38.935   2.350
50362W        W22677  35.468  21.073  12.938
50363W        W22678  13.600  31.643   3.693
50364W        W22679   6.189  10.329  14.828
50365W        W22680  18.239  44.999  14.820
50366W        W22681  38.908  28.046  13.836
50367W        W22682  19.542  41.002  14.929
50368W        W22683  11.832  34.960  14.334
50369W        W22684  15.149  19.100   4.331
50370W        W22685  17.754  30.517   4.667
50371W        W22686  43.877  32.959   0.434
50372W        W22687  18.711   5.358  12.465
50373W        W22688  23.992  42.422  10.626
50374W        W22689  39.009  19.239   3.234
50375W        W22690   3.349   8.259   1.730
50376W        W22691  32.613  29.471   3.336
50377W        W22692   2.810  12.853   2.387
50378W        W22693   8.812  33.618  13.864
50379W        W22694  36.448  34.576  12.433
50380W        W22695  43.472  36.956  13.516
50381W        W22696  17.594  36.890  14.401
50382W        W22697  14.157   6.919   3.814
50383W        W22698  21.577   1.456   2.366
50384W        W22699  26.605  17.774   3.157
50385W        W22700  27.482   1.322   2.867
50386W        W22701  20.728  43.334  14.914
50387W        W22702  32.578  13.307  14.968
50388W        W22703  18.689  34.108   1.367
50389W        W22704  44.758   3.222  12.523
50390W        W22705  32.976   6.717  13.421
50391W        W22706  41.816  36.435  11.477
50392W        W22707  42.909   7.733  10.925
50393W        W22708  27.570  22.057   4.264
50394W        W22709   4.868  38.909   4.736
50395W        W22710  15.137  29.064   1.759
50396W        W22711  13.646  14.835   3.359
50397W        W22712   5.363  26.038  12.856
50398W        W22713  11.207  33.052   3.266
50399W        W22714  25.558  41.445   5.291
50400W        W22715  33.991   8.686   4.663
50401W        W22716  41.940   4.817   5.129
50402W        W22717  22.721  34.041  11.469
50403W        W22718  26.602  21.210   4.608
50404W        W22719  12.769   2.431  12.883
50405W        W22720  35.583  37.830  10.949
50406W        W22721  23.735   0.381  10.509
50407W        W22722  17.584  19.280   4.745
50408W        W22723  32.947   5.827   3.775
50409W        W22724  11.709  22.506  13.975
50410W        W22725  14.815   4.878   0.326
50411W        W22726  17.240  39.387   3.324
50412W        W22727   2.426  27.498   2.796
50413W        W22728  38.884  23.198  14.433
50414W        W22729  24.687  12.725   1.284
50415W        W22730  11.704   0.400  11.971
50416W        W22731  24.569  21.624   3.703
50417W        W22732   1.732  21.669  12.472
50418W        W22733  44.285   5.368  11.972
50419W        W22734  13.165  26.166  14.852
50420W        W22735  24.977   8.296   0.867
50421W        W22736  44.767  33.577  10.097
50422W        W22737   8.735  26.684   0.883
50423W        W22738   9.349   4.286   4.161
50424W        W22739  18.256  29.446   3.709
50425W        W22740   6.836   4.334   1.275
50426W        W22741  21.512  20.159   3.674
50427W        W22742  43.512   3.256   5.089
50428W        W22743  30.029   7.339  13.473
50429W        W22744  41.864   8.890   9.934
50430W        W22745  13.821  25.172  10.636
50431W        W22746   1.881  11.204   3.317
50432W        W22747  14.741  19.161   4.232
50433W        W22748  23.573  28.473  10.536
50434W        W22749  28.547  28.960   3.677
50435W        W22750  19.199  13.797  10.643
50436W        W22751  33.441  14.290  11.447
50437W        W22752  37.930  19.619  11.968
50438W        W22753  28.044  28.953  12.922
50439W        W22754  17.572   9.772  14.820
50440W        W22755  19.591  26.161  13.012
50441W        W22756  43.432  24.541  13.919
50442W        W22757  18.699  15.296   0.868
50443W        W22758  35.541   0.289   2.236
50444W        W22759  38.349  37.836  11.116
50445W        W22760  21.034  15.144  12.482
50446W        W22761   8.766   0.364   1.914
50447W        W22762   7.288  33.085   0.796
50448W        W22763  42.776   1.309  11.428
50449W        W22764   1.776  26.685  13.027
50450W        W22765  40.374   8.780   4.277
50451W        W22766  30.487  29.538   0.338
50452W        W22767  25.709   0.445   0.891
50453W        W22768  11.272  42.459   2.862
50454W        W22769   7.231  33.894  11.120
50455W        W22770  33.945  13.227   0.310
50456W        W22771   5.209  36.989   3.830
50457W        W22772  42.020  44.849  11.590
50458W        W22773   2.909  43.345  12.835
50459W        W22774  30.044   6.729  14.780
50460W        W22775  39.897  27.480  12.515
50461W        W22776  25.488  31.952   2.754
50462W        W22777  28.136  28.632  11.490
50463W        W22778  23.685   1.808   3.835
50464W        W22779   5.800   0.868   4.131
50465W        W22780  25.565  25.090   5.191
50466W        W22781  20.121  14.652  13.005
50467W        W22782   0.851  10.156  12.019
50468W        W22783  28.533   4.294  11.555
50469W        W22784  43.804  36.041   3.702
50470W        W22785  19.561   0.402  12.060
50471W        W22786   3.232   5.805   2.809
50472W        W22787  21.066  25.554   1.746
50473W        W22788   2.389  25.508  11.054
50474W        W22789   3.451  30.416   0.346
50475W        W22790  43.375  21.261   3.725
50476W        W22791  29.052   0.846  13.466
50477W        W22792  27.465  35.914  11.386
50478W        W22793  29.550  30.609  13.448
50479W        W22794  28.100  34.612  10.125
50480W        W22795  12.350  43.932  11.566
50481W        W22796  40.459  36.964   2.237
50482W        W22797  13.297  30.627  11.996
50483W        W22798   8.817  31.576   0.747
50484W        W22799   3.422  26.535   4.167
50485W        W22800  21.217  30.525   4.625
50486W        W22801   2.264  26.556  11.992
50487W        W22802  39.960  13.752   4.795
50488W        W22803  11.253  44.325   4.818
50489W        W22804  20.058   2.387  14.895
50490W        W22805  36.442  17.799   4.321
50491W        W22806  10.181  20.688  12.374
50492W        W22807  40.011  41.974  12.408
50493W        W22808  15.246   2.366  10.977
50494W        W22809  23.685  11.373  12.394
50495W        W22810  30.041  32.476   3.778
50496W        W22811  15.622  27.483  14.453
50497W        W22812   3.238  43.990  14.792
50498W        W22813  31.426  43.276  12.417
50499W        W22814   4.833  27.629   1.873
50500W        W22815  41.370  28.998  14.941
50501W        W22816   7.261  11.715  12.341
50502W        W22817  27.668   4.751   3.273
50503W        W22818   4.792   5.421   0.775
50504W        W22819   9.660  43.012   1.358
50505W        W22820   2.287  11.649   1.819
50506W        W22821  39.888   1.353   0.359
50507W        W22822   8.293  31.093  13.039
50508W        W22823  17.647   9.352   2.214
50509W        W22824  21.669  44.840  11.573
50510W        W22825  15.210   9.346   3.822
50511W        W22826  22.563   1.257  12.351
50512W        W22827   8.226  28.644  14.375
50513W        W22828  14.244  37.952  14.488
50514W        W22829  40.900  39.948  12.461
50515W        W22830  37.987  15.643  12.924
50516W        W22831  25.050   4.428  12.573
50517W        W22832  34.574  28.553   0.363
50518W        W22833  41.514   5.771  13.845
50519W        W22834  22.654  35.517   0.473
50520W        W22835  10.341  42.904  13.400
50521W        W22836  39.003  37.015   0.845
50522W        W22837  18.743  12.189   2.745
50523W        W22838  36.085  26.959   2.294
50524W        W22839  22.512   7.883  12.882
50525W        W22840  12.309  35.001   9.960
50526W        W22841  32.449  32.890  14.374
50527W        W22842  43.400   4.939  11.513
50528W        W22843  38.905  10.171  12.005
50529W        W22844  10.866  26.142   1.296
50530W        W22845  21.116  22.234  10.981
50531W        W22846   2.455  25.085   0.849
50532W        W22847   5.366   6.381   2.696
50533W        W22848  25.064   9.292  12.574
50534W        W22849   2.321  13.839  12.062
50535W        W22850  17.197  14.192   4.747
50536W        W22851   4.714   5.705   1.249
50537W        W22852   1.848  20.116  10.433
50538W        W22853  25.997  31.479  13.861
50539W        W22854  33.117  34.584  14.303
50540W        W22855  30.129   0.404   3.362
50541W        W22856   2.287   6.219  13.454
50542W        W22857   9.300  35.381   3.793
50543W        W22858  44.277  34.591   1.271
50544W        W22859  35.943   5.378   2.406
50545W        W22860  23.024  26.003   0.801
50546W        W22861  21.082   1.824  10.923
50547W        W22862  13.686  17.115   3.344
50548W        W22863  22.242   2.741  13.862
50549W        W22864  40.005  40.828  11.053
50550W        W22865   9.311   1.944   1.261
50551W        W22866  23.564  38.570   2.361
50552W        W22867  43.512  42.826  11.582
50553W        W22868  14.282  25.654   0.327
50554W        W22869   1.742  16.111  11.085
50555W        W22870  33.103  29.584  12.340
50556W        W22871   7.365   9.871  14.331
50557W        W22872   0.980  25.200   1.327
50558W        W22873  43.420   8.659  10.887
50559W        W22874   2.787  14.164  11.070
50560W        W22875  18.617   8.881   9.462
50561W        W22876  44.912  36.862  12.938
50562W        W22877  43.495  40.973  13.011
50563W        W22878  37.019  44.317  11.915
50564W        W22879  11.261  40.030   4.622
50565W        W22880  26.191  37.385  12.874
50566W        W22881  14.234  35.056   0.877
50567W        W22882   0.856  22.072   3.214
50568W        W22883   0.365   5.355   2.415
50569W        W22884  17.744  13.207   4.634
50570W        W22885  32.933  43.767  12.399
50571W        W22886  18.283  31.120  11.562
50572W        W22887  20.690  24.225   2.767
50573W        W22888  26.196   7.856  14.356
50574W        W22889   7.182  40.484  12.078
50575W        W22890  27.979  13.720   4.223
50576W        W22891  29.468   3.946  14.929
50577W        W22892  36.853  21.725   2.710
50578W        W22893  31.450  20.134   0.459
50579W        W22894  21.060  32.029  11.065
50580W        W22895  44.769  13.171   0.902
50581W        W22896  13.136  42.412   3.659
50582W        W22897   0.834  17.709  11.605
50583W        W22898  35.071  31.602  10.644
50584W        W22899  10.294   1.333  12.837
50585W        W22900  30.081  35.406  12.346
50586W        W22901   1.756  28.648   1.429
50587W        W22902  10.754  41.036   1.761
50588W        W22903  40.939   1.392   2.350
50589W        W22904  10.294  30.500  12.529
50590W        W22905  11.325  42.803   4.786
50591W        W22906   6.698   2.926   0.306
50592W        W22907  27.666  37.506  14.002
50593W        W22908  12.350  24.118  11.561
50594W        W22909   6.320  41.897  13.029
50595W        W22910  24.097  13.290  10.500
50596W        W22911  22.024  19.175   4.311
50597W        W22912  35.874  30.962   4.686
50598W        W22913  33.514  30.486   0.847
50599W        W22914   7.671  44.774   3.728
50600W        W22915  28.135   8.785  11.083
50601W        W22916  25.980  36.004   1.425
50602W        W22917   0.316  19.654  12.085
50603W        W22918   3.411  25.164  10.410
50604W        W22919  12.344  29.474  14.816
50605W        W22920  18.624   7.282   4.264
50606W        W22921  34.071  10.171  13.513
50607W        W22922  16.746  22.159   0.324
50608W        W22923  21.667   5.421  13.952
50609W        W22924   0.984  38.957  12.498
50610W        W22925  20.041  20.667   3.294
50611W        W22926  17.171  27.002   1.698
50612W        W22927  12.317   0.907   1.270
50613W        W22928  18.571   9.872  11.386
50614W        W22929  14.601   3.858  14.816
50615W        W22930  18.624  32.994  11.085
50616W        W22931  19.539  33.611  10.062
50617W        W22932   5.211  23.605  11.558
50618W        W22933  44.938   6.301   1.344
50619W        W22934  27.156  12.825   0.795
50620W        W22935   8.857  14.624  14.360
50621W        W22936  38.389  31.008   2.868
50622W        W22937  25.473  36.390  10.522
50623W        W22938   2.756  20.528  11.014
50624W        W22939   7.703  25.135   1.303
50625W        W22940  35.549  40.841  13.873
50626W        W22941   2.819   8.232   2.818
50627W        W22942  43.964  20.714  12.066
50628W        W22943  16.614  10.780  10.918
50629W        W22944  23.646   3.772  11.924
50630W        W22945  17.617  37.061  11.899
50631W        W22946  20.569  38.441   3.741
50632W        W22947  12.738   6.297  13.054
50633W        W22948  44.425  36.477   4.813
50634W        W22949  27.495  25.002   5.083
50635W        W22950  40.888  36.929   0.361
50636W        W22951  26.483  14.130   3.840
50637W        W22952   3.264   1.953  10.444
50638W        W22953  13.675  12.269  13.485
50639W        W22954  38.534  10.658   1.731
50640W        W22955  35.391  37.422  11.551
50641W        W22956  28.599  43.785   0.400
50642W        W22957  42.998  44.934   4.272
50643W        W22958  19.061  31.537  11.960
50644W        W22959  34.568  20.046  10.461
50645W        W22960  28.022  21.523   0.962
50646W        W22961  35.057  31.998  13.434
50647W        W22962  36.860  28.069  11.118
50648W        W22963  17.680   7.904   3.179
50649W        W22964  39.906   2.308   2.249
50650W        W22965  31.631  42.970   3.642
50651W        W22966  31.560   0.790  12.480
50652W        W22967   4.307  15.823   0.944
50653W        W22968   7.811   0.966   2.742
50654W        W22969  28.609  34.986   2.357
50655W        W22970  15.193   1.799   2.761
50656W        W22971   0.855  33.608   0.928
50657W        W22972  10.807  30.138  13.058
50658W        W22973  39.436  22.666   1.904
50659W        W22974  14.783   5.319  13.937
50660W        W22975  31.604  21.618  14.796
50661W        W22976  29.525  14.263   2.348
50662W        W22977   9.868  34.966   4.727
50663W        W22978  15.162  43.005  13.820
50664W        W22979  23.049   4.254  14.475
50665W        W22980   1.264  14.814  14.906
50666W        W22981  33.991   8.312   3.773
50667W        W22982  15.103  10.298   2.788
50668W        W22983  17.609  39.861  10.986
50669W        W22984  11.278  26.060  11.456
50670W        W22985  13.114  11.792   2.345
50671W        W22986   6.768   4.211  11.981
50672W        W22987  20.578  43.773  13.961
50673W        W22988  38.856  25.040   4.688
50674W        W22989  12.225  23.694   3.179
50675W        W22990  17.666  44.794  13.853
50676W        W22991  30.002   5.835   2.195
50677W        W22992  24.497   8.302   1.902
50678W        W22993  41.380  43.803  11.910
50679W        W22994  43.796  17.103   4.770
50680W        W22995  18.224  16.715   2.764
50681W        W22996   8.289  36.094   0.457
50682W        W22997   2.720  19.251   4.797
50683W        W22998  22.546  14.242  14.440
50684W        W22999  20.176  22.187  12.010
50685W        W23000  33.497  31.905  10.941
50686W        W23001  30.607  41.002  12.439
50687W        W23002  18.150  28.507   9.628
50688W        W23003  22.638  37.860  14.477
50689W        W23004  23.213  34.009  14.010
50690W        W23005  39.871  44.963  11.377
50691W        W23006  19.612  14.115   1.308
50692W        W23007  36.439   3.260   3.659
50693W        W23008   4.875   4.279   3.199
50694W        W23009  39.475  39.447  13.473
50695W        W23010  13.322  14.687  13.373
50696W        W23011   3.783   3.832  11.894
50697W        W23012   9.279  40.470  12.418
50698W        W23013   4.234   5.209   3.687
50699W        W23014   2.885   1.238   3.193
50700W        W23015  31.985  20.666  10.497
50701W        W23016  24.598   2.837   4.190
50702W        W23017   6.761  35.059  12.966
50703W        W23018  35.941  30.073   4.205
50704W        W23019  22.555   6.289  11.917
50705W        W23020  39.323  32.391  14.336
50706W        W23021  13.215  37.845   4.271
50707W        W23022  11.207  29.474   0.781
50708W        W23023  44.341   8.876  13.325
50709W        W23024  23.105  18.547  12.836
50710W        W23025   6.835  11.650   3.377
50711W        W23026  44.291  41.533  10.887
50712W        W23027  11.836  21.158  10.410
50713W        W23028  40.917  18.706   3.309
50714W        W23029  22.162   4.309   0.754
50715W        W23030  14.182  38.475  13.365
50716W        W23031   9.796  29.639  11.522
50717W        W23032  26.158   7.840  13.436
50718W        W23033  33.077   9.366   1.266
50719W        W23034  31.079  30.582   1.905
50720W        W23035   0.880  30.501  12.993
50721W        W23036  42.997  21.709  10.410
50722W        W23037  42.522  25.686  10.403
50723W        W23038   4.293   5.277   4.670
50724W        W23039   4.219  12.638   0.808
50725W        W23040   9.702  36.042  11.949
50726W        W23041  15.234  39.950  13.030
50727W        W23042  31.130  16.659   0.270
50728W        W23043  11.684   4.217  10.941
50729W        W23044  18.171  30.114  13.792
50730W        W23045  30.419  11.153  12.376
50731W        W23046  29.027   7.279  14.866
50732W        W23047   6.903  23.164  14.509
50733W        W23048  27.001   0.939  13.833
50734W        W23049   9.373  34.004   2.294
50735W        W23050  23.665  42.839   4.251
50736W        W23051  33.477   5.806  10.545
50737W        W23052  40.478   2.889   1.262
50738W        W23053  40.530  20.032   0.814
50739W        W23054  39.492  40.490  11.003
50740W        W23055  18.644  39.830   1.220
50741W        W23056  33.579  39.349  10.483
50742W        W23057  31.442  36.463  11.443
50743W        W23058  34.442   1.249  11.099
50744W        W23059  27.157  31.999   9.958
50745W        W23060  19.243  42.327   1.934
50746W        W23061  13.261  22.526  10.560
50747W        W23062   4.256  10.375  12.932
50748W        W23063  40.358  33.390   5.243
50749W        W23064  29.152  18.549  12.470
50750W        W23065  40.474   9.234   0.316
50751W        W23066  34.905  20.036  13.985
50752W        W23067  16.188  41.008  10.481
50753W        W23068  20.141  44.783   3.683
50754W        W23069  14.141   4.254  13.007
50755W        W23070   6.687  16.600  12.537
50756W        W23071   7.771  36.356  14.441
50757W        W23072  29.529  15.702   3.321
50758W        W23073  44.378   7.687  14.848
50759W        W23074  34.440   5.260  12.049
50760W        W23075  20.733  18.774  10.551
50761W        W23076  12.813  33.013  13.393
50762W        W23077  41.879   7.897   4.730
50763W        W23078  17.719  11.285   5.308
50764W        W23079  23.612  30.959   0.337
50765W        W23080  22.529   6.702  11.414
50766W        W23081  26.544  41.823  12.982
50767W        W23082   9.670  21.735   2.756
50768W        W23083   4.838  13.327   4.713
50769W        W23084  33.127   1.977  12.079
50770W        W23085  33.000  12.285   1.767
50771W        W23086  38.896  44.441   1.811
50772W        W23087   1.872  35.365   4.670
50773W        W23088  38.945  23.627   3.245
50774W        W23089  36.076   2.846   2.220
50775W        W23090   4.905  24.555  12.885
50776W        W23091   3.347   3.224  14.364
50777W        W23092  22.098  44.783   2.351
50778W        W23093   7.292  44.778  10.458
50779W        W23094  27.626   6.894  11.526
50780W        W23095  26.090   0.268  12.861
50781W        W23096   1.418   1.936   4.352
50782W        W23097   5.768  43.302   3.765
50783W        W23098  33.077  40.970   0.262
50784W        W23099  41.844  13.149   0.429
50785W        W23100  27.185  19.096   1.777
50786W        W23101  39.388  14.118   0.856
50787W        W23102   9.286   7.416   1.434
50788W        W23103  23.597  30.454   3.785
50789W        W23104   0.883   3.864   1.259
50790W        W23105   0.869  18.052  12.961
50791W        W23106  29.176   3.802  11.483
50792W        W23107   0.821  40.394  10.113
50793W        W23108  24.051   2.451   4.141
50794W        W23109   1.924   0.331  10.961
50795W        W23110  11.223  23.703   0.900
50796W        W23111  10.645  14.621  12.984
50797W        W23112  27.521  10.873  14.449
50798W        W23113  18.637  44.379   0.305
50799W        W23114  15.797  30.632  12.083
50800W        W23115  26.066  26.209  14.032
50801W        W23116   9.739  17.141   3.257
50802W        W23117  31.574   3.224   3.385
50803W        W23118  12.706  33.948  12.449
50804W        W23119  19.241  39.333  11.483
50805W        W23120   7.292  41.301  13.988
50806W        W23121  32.565  21.053   3.866
50807W        W23122  26.633  34.479   1.708
50808W        W23123  26.487   8.829  13.994
50809W        W23124  27.677  21.517   3.777
50810W        W23125  15.173  38.478  10.572
50811W        W23126  33.045   1.356  13.972
50812W        W23127  11.291  39.533  12.860
50813W        W23128   7.679  14.724  12.971
50814W        W23129   9.767   9.256  14.360
50815W        W23130  35.917  31.987   1.299
50816W        W23131  10.365  33.103  11.002
50817W        W23132  27.657  34.566   2.409
50818W        W23133  12.696   7.193   3.266
50819W        W23134  37.915  17.593  13.408
50820W        W23135  10.291  18.707  11.601
50821W        W23136  21.043  33.570   3.304
50822W        W23137   1.761   6.280   2.286
50823W        W23138  43.878  19.157  13.984
50824W        W23139   1.339  35.460   3.757
50825W        W23140  15.584  29.490   4.652
50826W        W23141  32.413  13.162   0.298
50827W        W23142  24.154  18.132  12.993
50828W        W23143  27.192  41.963  13.500
50829W        W23144   5.766  18.570  14.000
50830W        W23145  19.577  38.961   4.125
50831W        W23146  33.560   7.818  10.140
50832W        W23147  18.168   8.719   2.293
50833W        W23148   6.208   0.814   1.267
50834W        W23149  18.715  28.932  11.544
50835W        W23150   6.350  43.448   3.663
50836W        W23151  40.860  37.400  11.127
50837W        W23152  44.306   1.864   1.287
50838W        W23153  25.130   6.695  13.313
50839W        W23154  31.035  27.642  13.310
50840W        W23155  24.523  21.153  12.479
50841W        W23156  39.541  34.094  14.951
50842W        W23157   8.333   5.290  12.363
50843W        W23158   3.353  44.929  13.986
50844W        W23159  42.969  20.148   2.223
50845W        W23160  42.392  35.394   4.774
50846W        W23161  19.104   7.775   2.184
50847W        W23162  29.141  33.090  12.082
50848W        W23163  25.500  18.687   2.183
50849W        W23164  30.129  19.722   2.348
50850W        W23165   1.929  11.209   3.836
50851W        W23166   5.912  23.692  11.104
50852W        W23167  26.174  32.630   9.976
50853W        W23168  41.944  33.490   2.306
50854W        W23169  36.956  42.857  10.989
50855W        W23170  30.656  18.219   0.868
50856W        W23171  23.519  22.619  13.834
50857W        W23172  17.275   8.307  14.013
50858W        W23173  34.905  12.318  12.474
50859W        W23174  22.698  34.920  11.032
50860W        W23175  10.372  25.506  13.418
50861W        W23176  42.834   0.262  14.833
50862W        W23177  35.928   3.335  12.466
50863W        W23178  13.217  38.874  13.546
50864W        W23179   4.340  13.339   3.707
50865W        W23180  36.474   7.349   3.798
50866W        W23181  33.976  12.851   4.172
50867W        W23182  13.740  40.465   0.936
50868W        W23183  37.474  29.554  10.928
50869W        W23184  38.938  22.598   5.081
50870W        W23185  21.518   8.331   3.781
50871W        W23186  21.532  19.119  13.064
50872W        W23187  44.453   9.881   1.886
50873W        W23188  17.652  32.621  11.032
50874W        W23189  11.243  32.587   4.281
50875W        W23190   6.758  36.389  12.039
50876W        W23191  39.842  43.948   3.145
50877W        W23192  17.062  33.083  13.342
50878W        W23193   6.391  26.145   3.287
50879W        W23194  29.494  24.078   3.669
50880W        W23195  41.321  24.120   1.391
50881W        W23196  22.192  29.575   4.125
50882W        W23197  44.960  27.570  10.980
50883W        W23198  29.981  36.930  10.919
50884W        W23199  36.358  41.021  13.509
50885W        W23200  12.748  30.041  13.835
50886W        W23201   3.328   3.756  12.896
50887W        W23202  25.471  37.468  13.340
50888W        W23203  13.680  34.012   3.379
50889W        W23204  43.347   4.907   2.890
50890W        W23205  40.969   3.379   2.745
50891W        W23206  28.634  35.048   4.701
50892W        W23207  35.979  31.062   1.800
50893W        W23208  16.773  40.323   3.221
50894W        W23209  42.911  40.831  11.902
50895W        W23210  16.581  31.423  12.347
50896W        W23211  35.373  11.161   0.427
50897W        W23212   2.931  24.504  11.058
50898W        W23213  16.179  38.528   1.893
50899W        W23214  32.119   2.444  11.395
50900W        W23215  25.684  29.479  10.445
50901W        W23216   2.417  15.666  10.611
50902W        W23217  23.536   9.654  10.489
50903W        W23218  35.962  14.124  12.436
50904W        W23219  15.237  25.083  13.834
50905W        W23220   5.343  17.682  13.840
50906W        W23221   7.280  26.590   0.451
50907W        W23222  44.341   3.429  11.069
50908W        W23223  30.986   7.730  10.897
50909W        W23224   6.418  43.274  13.478
50910W        W23225  38.512  22.657   4.790
50911W        W23226  17.194  42.032  14.010
50912W        W23227  12.132  29.153  12.553
50913W        W23228   6.342  11.237  12.935
50914W        W23229  40.520  12.710  12.457
50915W        W23230  13.784  22.630  12.904
50916W        W23231   6.910  29.983  14.291
50917W        W23232  11.304  28.954   2.882
50918W        W23233  28.964   1.278   3.148
50919W        W23234  24.159  44.827   1.315
50920W        W23235  32.964  40.489   2.885
50921W        W23236  11.769  30.141  12.471
50922W        W23237  11.352   3.937   1.893
50923W        W23238  39.483  33.007   1.816
50924W        W23239  30.979  10.148   1.812
50925W        W23240  44.365   1.808   4.130
50926W        W23241   4.699  29.541  13.407
50927W        W23242  36.858   7.404   4.228
50928W        W23243  17.206  20.042   2.299
50929W        W23244   5.432  24.995  12.394
50930W        W23245  38.422  20.135  14.444
50931W        W23246  23.554  31.949   5.224
50932W        W23247  21.117  27.574   5.147
50933W        W23248  30.955  35.038   3.255
50934W        W23249  38.893  29.082   3.313
50935W        W23250  25.984  19.653   0.772
50936W        W23251  30.517  42.360  14.971
50937W        W23252  37.869  36.050  10.510
50938W        W23253  33.918   0.883  14.903
50939W        W23254  28.570  19.122   4.797
50940W        W23255  41.975   6.240  10.040
50941W        W23256  37.837  30.005   0.866
50942W        W23257   9.805   8.346  10.937
50943W        W23258   0.904   2.742  13.886
50944W        W23259   2.448  27.101  12.400
50945W        W23260   5.217  34.988  13.803
50946W        W23261  15.119  41.858   2.667
50947W        W23262  11.238  26.675  10.458
50948W        W23263   2.855   8.683  14.407
50949W        W23264  28.588   6.676  14.815
50950W        W23265   1.238  35.509  10.014
50951W        W23266  21.548  22.037  11.420
50952W        W23267  44.343   8.166  13.025
50953W        W23268   4.792  42.898   3.760
50954W        W23269  21.655  13.258  12.352
50955W        W23270  38.002  20.051   1.836
50956W        W23271  10.701   9.293   1.422
50957W        W23272   7.782  15.600   1.370
50958W        W23273   6.908  10.241   4.258
50959W        W23274  20.577  21.258   2.304
50960W        W23275   1.252  34.096  12.425
50961W        W23276  36.024  26.167   1.212
50962W        W23277   6.298  14.100   0.867
50963W        W23278  28.552  12.842   4.726
50964W        W23279   0.846  44.791  14.291
50965W        W23280  36.885  11.655   4.729
50966W        W23281  30.507  27.021   2.828
50967W        W23282  20.175  41.366  10.980
50968W        W23283  29.527  42.781   5.165
50969W        W23284  28.943  33.453   2.762
50970W        W23285  11.854  26.481  12.562
50971W        W23286  10.658  18.717   3.365
50972W        W23287   7.793  27.557   2.207
50973W        W23288  26.555  35.468   3.796
50974W        W23289  25.551  44.001   1.409
50975W        W23290  39.341  12.281  11.422
50976W        W23291   1.340  12.834   1.247
50977W        W23292   5.368  39.354   0.878
50978W        W23293  23.006  43.785  13.863
50979W        W23294  43.898  14.832  10.576
50980W        W23295  26.125  32.451   1.358
50981W        W23296  22.670  43.800  14.829
50982W        W23297  43.455  21.217  14.943
50983W        W23298   2.734  41.034   0.290
50984W        W23299  24.714  38.506   1.765
50985W        W23300  34.871  33.524   0.793
50986W        W23301  13.722   4.731   2.764
50987W        W23302  19.195  17.081  13.349
50988W        W23303  23.230   1.817  12.904
50989W        W23304  16.289   9.886  14.430
50990W        W23305   8.163  26.168   0.337
50991W        W23306   9.754  12.326  11.483
50992W        W23307   2.733   6.256   0.320
50993W        W23308  16.251  12.355  14.938
50994W        W23309  11.683  11.203   1.450
50995W        W23310  33.021  14.322   3.319
50996W        W23311  10.853  32.605  13.038
50997W        W23312   7.812  33.516   3.251
50998W        W23313  44.376  11.226   2.217
50999W        W23314  13.276  43.355  11.878
51000W        W23315   2.806  31.984  10.439
51001W        W23316  26.701  30.987  13.063
51002W        W23317  27.997   1.450   3.764
51003W        W23318  41.037   5.233  12.011
51004W        W23319  21.060  43.384   3.696
51005W        W23320  17.579  40.901  13.442
51006W        W23321   1.461  33.528  12.489
51007W        W23322  15.224  16.081   4.189
51008W        W23323  33.434   5.313   3.654
51009W        W23324  13.806  21.526   2.280
51010W        W23325  16.580   6.348  13.058
51011W        W23326  22.232  39.822  12.349
51012W        W23327   6.726  27.678   3.686
51013W        W23328   6.880  40.897  13.488
51014W        W23329  18.251  13.673   0.262
51015W        W23330  19.066  40.827  10.555
51016W        W23331  10.244  17.214   0.852
51017W        W23332   9.657  12.255   2.193
51018W        W23333   5.760  32.523   0.749
51019W        W23334  11.626   2.442  14.975
51020W        W23335  21.081  16.277  11.029
51021W        W23336  35.055  37.549   3.278
51022W        W23337  41.317  40.053   4.619
51023W        W23338  26.141  37.946   1.896
51024W        W23339  42.989  20.543   0.893
51025W        W23340  20.106  27.070   3.683
51026W        W23341  40.916  21.741  10.996
51027W        W23342   0.842  32.989   9.931
51028W        W23343  24.570   1.293  13.868
51029W        W23344  29.149   5.372  14.398
51030W        W23345  22.019   0.295   3.708
51031W        W23346   9.840  12.348   0.740
51032W        W23347  24.635   7.699  11.994
51033W        W23348  11.340  32.950   2.286
51034W        W23349  16.804  43.515   2.274
51035W        W23350  41.000   6.905   4.660
51036W        W23351  43.848  17.159   3.299
51037W        W23352   7.729   4.720  13.017
51038W        W23353   9.658   3.893  14.866
51039W        W23354  24.504  36.490  11.556
51040W        W23355   9.361  41.914   2.255
51041W        W23356  16.664  37.053  11.544
51042W        W23357   5.817  39.831  14.306
51043W        W23358  42.934  29.920  11.512
51044W        W23359  34.379  12.265   4.692
51045W        W23360   4.308  43.427  12.500
51046W        W23361  33.382  32.127  13.031
51047W        W23362  17.561  31.069   3.367
51048W        W23363  25.153   9.257   2.354
51049W        W23364   4.319  28.559  14.280
51050W        W23365  39.359  25.160   1.248
51051W        W23366  40.517  42.406   2.235
51052W        W23367  28.106  39.480   3.721
51053W        W23368   5.815  19.758   3.641
51054W        W23369  35.365  20.063  13.548
51055W        W23370   4.369  23.711   3.158
51056W        W23371  34.410  35.964  11.855
51057W        W23372  44.267  11.629  11.882
51058W        W23373   0.878  28.958  10.109
51059W        W23374  22.504  40.529   4.625
51060W        W23375  38.881  32.500  10.569
51061W        W23376  29.487  40.412  11.986
51062W        W23377   8.705   8.358  11.587
51063W        W23378  30.472  16.214   0.953
51064W        W23379  21.024  16.286  14.285
51065W        W23380  25.057  14.631   4.748
51066W        W23381  17.706  42.997  10.591
51067W        W23382  12.764  41.825  13.345
51068W        W23383   7.787  32.510  12.992
51069W        W23384  39.319  32.471   1.847
51070W        W23385  10.225  16.202   0.850
51071W        W23386  20.605  33.050  12.502
51072W        W23387  18.554  41.314   3.768
51073W        W23388  13.194  41.505   4.344
51074W        W23389  37.832   8.839   4.686
51075W        W23390   9.790  11.742  12.997
51076W        W23391   4.380   0.461   4.687
51077W        W23392  14.801  26.678   3.827
51078W        W23393  22.739   6.205  13.518
51079W        W23394  34.870   8.238   0.966
51080W        W23395  21.137  17.675  13.832
51081W        W23396  37.454  10.811   4.772
51082W        W23397  33.016  22.062   2.784
51083W        W23398  24.513  35.535   2.708
51084W        W23399  44.005  27.970  11.445
51085W        W23400  29.521  30.009  13.918
51086W        W23401  18.127  20.634   4.343
51087W        W23402  28.539   8.759  11.525
51088W        W23403   1.741  36.074   4.195
51089W        W23404  20.170  12.254   3.730
51090W        W23405   7.907  16.312   2.386
51091W        W23406  15.175   0.955   2.729
51092W        W23407   4.271  22.584  13.997
51093W        W23408  40.346   0.307  13.850
51094W        W23409  17.185  37.422  11.501
51095W        W23410  24.496   6.301   2.406
51096W        W23411  20.093  19.043  12.949
51097W        W23412  34.475   7.377   1.704
51098W        W23413  42.991  28.113   2.180
51099W        W23414  21.179  25.199  12.546
51100W        W23415  13.747  19.748   2.787
51101W        W23416  32.636  24.538   4.767
51102W        W23417   6.406  10.314   2.405
51103W        W23418  20.115  39.865   5.269
51104W        W23419  41.452  40.326  12.553
51105W        W23420  35.434  24.072  14.803
51106W        W23421   2.260   1.787   4.318
51107W        W23422  21.048   8.857  10.622
51108W        W23423  21.087   2.953   3.852
51109W        W23424  20.723  37.410   4.747
51110W        W23425  41.515  23.040   3.228
51111W        W23426  18.114   4.428  11.588
51112W        W23427   6.839  31.510  10.418
51113W        W23428  41.316   4.940   1.698
51114W        W23429  24.542  20.683   2.360
51115W        W23430  20.692  34.407  14.898
51116W        W23431   6.875  31.111  14.960
51117W        W23432  20.193   1.461  12.000
51118W        W23433  37.524   6.831  10.607
51119W        W23434   8.757  21.256   1.915
51120W        W23435  19.750  42.460  10.406
51121W        W23436  36.903  32.968  10.555
51122W        W23437  12.641  24.582   3.858
51123W        W23438  27.151  12.188   3.726
51124W        W23439  18.561  21.167  11.126
51125W        W23440   1.406  11.200   5.200
51126W        W23441  39.315  10.711   1.894
51127W        W23442  41.343  39.529   0.744
51128W        W23443   6.875   6.798   1.327
51129W        W23444  33.529   6.350  10.131
51130W        W23445  31.520  29.101   1.910
51131W        W23446   2.800  24.176  10.948
51132W        W23447  10.376  32.635  12.434
51133W        W23448   5.433  32.932  13.966
51134W        W23449  41.493  42.968   1.297
51135W        W23450  24.521   1.371   3.777
51136W        W23451   8.883  35.419   1.706
51137W        W23452  21.135  21.635   4.651
51138W        W23453  29.636  25.124   3.853
51139W        W23454  22.689   4.906   0.464
51140W        W23455  41.835  40.481  12.092
51141W        W23456  13.319  31.072   0.471
51142W        W23457  11.654  40.987   3.191
51143W        W23458  13.135   0.855  14.938
51144W        W23459   5.214  18.699   1.739
51145W        W23460  32.056  15.766  11.458
51146W        W23461  24.078   1.912   0.854
51147W        W23462   4.768   6.225   5.140
51148W        W23463  34.436  35.902  13.506
51149W        W23464  35.499  33.885  14.401
51150W        W23465  19.635  17.259   4.832
51151W        W23466  18.657  21.578   0.386
51152W        W23467  34.924  29.589  10.149
51153W        W23468  26.484   8.287  12.407
51154W        W23469  44.765  11.760  13.355
51155W        W23470  13.186  17.789   0.473
51156W        W23471  27.453  16.570  13.973
51157W        W23472  42.347   5.771  12.917
51158W        W23473  32.049   5.223   3.834
51159W        W23474  29.066  32.521  10.047
51160W        W23475  36.389  32.611   4.332
51161W        W23476  22.184  26.490  13.919
51162W        W23477  16.748   4.827   4.786
51163W        W23478  17.583  31.595  10.912
51164W        W23479  17.084  31.608  11.096
51165W        W23480  18.578  38.359  12.825
51166W        W23481  32.933  26.991   0.355
51167W        W23482  32.967  15.239  14.313
51168W        W23483  41.407   6.797   3.839
51169W        W23484  24.521  19.077   0.320
51170W        W23485  34.880  24.572  14.800
51171W        W23486  22.211  26.109   3.321
51172W        W23487  10.788   9.730  11.390
51173W        W23488  13.615   0.411   1.724
51174W        W23489  19.583  43.403  11.407
51175W        W23490  27.091   8.245  12.518
51176W        W23491   3.917  28.941   1.383
51177W        W23492  17.562  18.657   1.323
51178W        W23493  18.210  24.575  11.599
51179W        W23494  23.607  38.355  13.337
51180W        W23495   0.908  21.017   3.708
51181W        W23496  40.800   0.445   1.287
51182W        W23497  34.070  21.626  10.430
51183W        W23498  27.966  44.325   2.221
51184W        W23499  44.322   0.914   4.756
51185W        W23500  34.503   2.319  13.447
51186W        W23501   7.320  28.679  10.602
51187W        W23502  20.242  26.564   2.850
51188W        W23503  17.222  23.730   0.372
51189W        W23504  21.627  15.226  10.642
51190W        W23505  14.134  27.453   4.294
51191W        W23506  39.538   1.732  14.851
51192W        W23507  40.544   7.269   5.292
51193W        W23508  32.051  25.668   5.241
51194W        W23509  10.824   0.485  12.448
51195W        W23510  41.888  31.953  13.495
51196W        W23511  24.614  33.017   2.317
51197W        W23512   7.733  30.593   0.451
51198W        W23513  28.029  29.489   4.350
51199W        W23514   4.426  32.909  12.405
51200W        W23515  33.555  39.540   4.297
51201W        W23516  24.539  37.908   2.821
51202W        W23517  16.746  32.896  11.609
51203W        W23518  28.509  33.448   0.454
51204W        W23519   8.731  28.601  10.528
51205W        W23520   8.685  43.839  10.913
51206W        W23521   0.856  26.968   1.744
51207W        W23522  25.597   3.740   3.837
51208W        W23523  10.206  37.503   3.777
51209W        W23524   8.889  30.607   3.367
51210W        W23525  36.370  12.793  12.958
51211W        W23526  33.033   5.301  13.460
51212W        W23527  22.732  27.497   4.738
51213W        W23528  17.270  37.985   4.729
51214W        W23529   3.914  16.103   3.696
51215W        W23530   3.721   3.939  11.396
51216W        W23531  38.554  39.510   4.619
51217W        W23532   0.977  30.613   1.886
51218W        W23533  25.072  12.303   1.834
51219W        W23534  41.444   3.333  10.946
51220W        W23535  20.126   7.830   0.299
51221W        W23536  37.982  17.599  12.515
51222W        W23537  24.139  22.229   2.288
51223W        W23538  39.533   8.321   0.353
51224W        W23539   5.761  34.554   4.696
51225W        W23540  14.716  24.505   1.384
51226W        W23541  21.709  35.559  10.957
51227W        W23542  11.658  11.288  10.555
51228W        W23543   1.853   9.861   2.733
51229W        W23544   7.838   3.241  12.532
51230W        W23545   3.412  15.146  14.020
51231W        W23546  44.500  25.507   3.830
51232W        W23547  38.493  43.317  14.968
51233W        W23548  29.632  34.000  14.888
51234W        W23549  41.461  38.059  14.919
51235W        W23550  26.551  36.425   0.306
51236W        W23551   9.327  17.259  14.317
51237W        W23552  23.175  20.097  12.402
51238W        W23553   2.364  12.256   0.805
51239W        W23554  43.304  18.063  10.478
51240W        W23555  12.774  19.141   4.308
51241W        W23556  42.365  33.088   2.402
51242W        W23557  14.104  14.311  13.903
51243W        W23558  34.996  13.616   1.776
51244W        W23559  12.135  27.983   3.765
51245W        W23560  14.139  10.260  14.332
51246W        W23561   0.332  13.105   5.146
51247W        W23562  42.965  13.693   1.366
51248W        W23563  15.115   1.912   0.821
51249W        W23564   6.923  34.098   2.284
51250W        W23565   5.915  29.036   4.641
51251W        W23566  22.712  43.830   1.266
51252W        W23567  10.258  29.514  11.893
51253W        W23568  34.402   0.382   1.333
51254W        W23569  31.615  15.287  10.542
51255W        W23570  19.615   8.748   3.359
51256W        W23571  30.538  40.870  11.528
51257W        W23572  42.981  22.129   1.715
51258W        W23573  23.616  29.980   3.334
51259W        W23574  20.230  31.474   1.360
51260W        W23575   3.377  32.074   3.686
51261W        W23576   7.236  32.547   2.256
51262W        W23577  31.638  39.366  13.046
51263W        W23578  41.013   6.791   2.310
51264W        W23579  43.815  42.405  12.479
51265W        W23580   8.711  36.848  13.979
51266W        W23581  26.029  15.747  13.827
51267W        W23582  36.390   0.795  13.951
51268W        W23583  39.923  16.192  10.634
51269W        W23584  32.551  16.111   0.293
51270W        W23585  35.603  16.174   4.791
51271W        W23586  33.080  33.989   3.284
51272W        W23587   2.450  33.624   4.145
51273W        W23588  34.393   3.372   3.663
51274W        W23589  12.681  19.169  13.934
51275W        W23590  12.230   1.923  11.888
51276W        W23591  18.745  15.588   2.800
51277W        W23592  27.504  41.844  14.294
51278W        W23593  42.284  41.994  12.088
51279W        W23594   8.817  21.081  14.995
51280W        W23595   3.276   4.848  12.070
51281W        W23596  19.082  44.322  12.467
51282W        W23597  28.960  14.744   1.379
51283W        W23598  41.860   2.244  11.984
51284W        W23599  16.223  39.451  10.472
51285W        W23600   2.269  30.144  12.545
51286W        W23601  15.672  32.585   4.263
51287W        W23602  24.019  28.008   0.473
51288W        W23603  42.906  19.614  14.029
51289W        W23604  30.935   2.449  11.949
51290W        W23605  19.242  32.625  14.303
51291W        W23606  18.618  27.149   2.257
51292W        W23607  44.979  16.778  12.061
51293W        W23608  27.526  18.650  14.761
51294W        W23609  15.702  26.521  14.000
51295W        W23610   6.334  18.713   1.894
51296W        W23611   9.170   9.153   1.737
51297W        W23612  13.271   5.790   2.668
51298W        W23613  25.056  20.655  12.553
51299W        W23614   2.754  28.647  13.812
51300W        W23615  40.456  22.737   2.717
51301W        W23616  31.994   9.242   1.355
51302W        W23617  27.507  38.025   0.422
51303W        W23618   6.918  27.992   4.829
51304W        W23619   7.197  25.490   1.387
51305W        W23620  34.594  15.651  13.962
51306W        W23621  28.169  40.453   1.864
51307W        W23622  17.592   7.414   2.756
51308W        W23623   5.238  19.744   3.239
51309W        W23624  39.522  25.021  11.499
51310W        W23625  21.168   7.245   4.623
51311W        W23626  28.965  13.155  14.003
51312W        W23627   0.872   3.312   3.857
51313W        W23628  18.138   3.412  14.831
51314W        W23629  40.420   3.439  11.056
51315W        W23630  33.515  21.032  14.796
51316W        W23631   8.308   3.419  13.954
51317W        W23632  18.293  39.996  14.023
51318W        W23633  24.133  12.786   3.177
51319W        W23634  12.360  14.292  12.569
51320W        W23635  16.594   1.815   4.348
51321W        W23636   8.835  40.890   4.211
51322W        W23637  29.630  19.084  10.632
51323W        W23638  20.146  26.618   0.813
51324W        W23639  31.454  35.474   4.124
51325W        W23640  28.486  16.275   0.301
51326W        W23641   9.854   8.232  14.829
51327W        W23642  40.830  39.448   4.325
51328W        W23643  20.149   8.827  14.419
51329W        W23644  20.522  24.203  14.418
51330W        W23645   5.293   7.759   3.358
51331W        W23646   2.946  33.505  11.610
51332W        W23647  14.606   8.322   4.348
51333W        W23648  30.594   5.256   4.135
51334W        W23649  26.570   2.233  11.994
51335W        W23650  15.168  19.745   2.227
51336W        W23651   0.925  23.030  11.919
51337W        W23652  24.132   5.313   2.235
51338W        W23653   7.380   7.900   0.409
51339W        W23654  37.925  25.112  11.125
51340W        W23655  41.865  12.248  10.495
51341W        W23656   5.840   0.744  13.802
51342W        W23657   8.195  29.564  13.815
51343W        W23658  31.478   5.892  13.044
51344W        W23659  15.309   8.796   0.755
51345W        W23660  15.206  19.716  12.551
51346W        W23661   0.796  37.420   3.651
51347W        W23662  33.586  30.458  10.148
51348W        W23663  17.088  41.510   1.840
51349W        W23664  33.090  42.863   4.695
51350W        W23665  41.528  20.109   3.365
51351W        W23666  37.413  12.693   4.130
51352W        W23667  20.215  42.924  12.955
51353W        W23668  22.745  10.868   2.255
51354W        W23669   5.360  39.052   4.144
51355W        W23670  17.078  24.028   4.276
51356W        W23671   9.878  35.593   1.280
51357W        W23672   9.666  14.180  11.402
51358W        W23673  12.856  31.956  14.893
51359W        W23674  17.087  37.879  11.424
51360W        W23675  14.280   9.743  11.070
51361W        W23676  32.964  17.196  10.404
51362W        W23677  31.500  14.792   2.857
51363W        W23678  23.205  23.628  10.611
51364W        W23679  20.765  10.193   1.310
51365W        W23680   1.433  34.560   4.664
51366W        W23681  39.495  31.487  12.415
51367W        W23682  25.991  27.518   4.657
51368W        W23683  19.269  41.531   3.868
51369W        W23684  10.248  41.859   2.207
51370W        W23685  20.181  36.409   1.280
51371W        W23686   3.346   6.317   1.846
51372W        W23687  19.053  15.656  12.546
51373W        W23688  16.088  28.047   1.788
51374W        W23689  18.079  40.513  11.003
51375W        W23690  38.883  28.150   0.329
51376W        W23691  37.490  36.909   0.282
51377W        W23692  42.819  30.481   2.686
51378W        W23693  24.527   0.953  10.498
51379W        W23694  27.591  10.302  12.470
51380W        W23695  36.400  16.291  11.864
51381W        W23696   8.370  12.710   1.855
51382W        W23697   5.289  37.393  14.761
51383W        W23698  17.104  43.488   0.428
51384W        W23699  21.673  34.974   0.857
51385W        W23700  20.194  41.001   4.226
51386W        W23701   7.355  30.648   2.859
51387W        W23702  31.451  44.329   2.398
51388W        W23703  25.108  31.404   2.864
51389W        W23704   5.279   4.921  11.014
51390W        W23705  42.878   2.391   1.401
51391W        W23706  27.607  16.140   1.433
51392W        W23707   4.408  13.127   2.391
51393W        W23708  24.521   7.894   0.952
51394W        W23709  19.571   2.886   0.727
51395W        W23710  12.830  16.318  10.602
51396W        W23711  34.915  20.683  12.368
51397W        W23712  22.523   1.773   4.736
51398W        W23713  35.060  42.520   3.213
51399W        W23714  35.502  36.925   0.883
51400W        W23715   5.732  38.966  14.401
51401W        W23716   7.296  20.117  12.969
51402W        W23717  39.927  17.277  14.438
51403W        W23718  17.687  40.328  13.902
51404W        W23719  24.513  37.478   1.226
51405W        W23720  42.787  33.017  12.402
51406W        W23721  16.741  27.563   3.775
51407W        W23722  42.013   8.739   0.737
51408W        W23723  20.030  42.862  14.862
51409W        W23724   2.743  12.229   3.356
51410W        W23725  27.584  40.807  14.897
51411W        W23726  42.003  40.406   4.230
51412W        W23727   6.411  15.640   2.186
51413W        W23728  25.974  26.983  13.512
51414W        W23729  15.759  36.091  14.373
51415W        W23730  16.722  30.635  12.384
51416W        W23731  42.401  36.496   2.235
51417W        W23732  14.818   6.853  13.815
51418W        W23733  43.779  16.245  14.030
51419W        W23734  16.600   8.718  10.086
51420W        W23735  34.049  42.973   1.896
51421W        W23736  28.437   6.780   3.340
51422W        W23737   7.243   6.397  14.304
51423W        W23738  17.672  41.500  14.952
51424W        W23739   4.788  44.760  12.982
51425W        W23740  32.133  27.048   4.295
51426W        W23741  32.003  25.978  14.842
51427W        W23742  39.860   0.323   4.319
51428W        W23743   3.870  27.992  12.020
51429W        W23744  23.545  40.419  14.980
51430W        W23745   9.776   5.428   0.759
51431W        W23746   9.856   2.948  12.066
51432W        W23747  16.791  17.243  11.052
51433W        W23748  13.148  27.947  12.543
51434W        W23749  12.819  36.072   4.742
51435W        W23750  40.402   1.754  14.421
51436W        W23751   0.772   3.399   4.755
51437W        W23752  15.614   3.746  14.312
51438W        W23753  36.385   2.453  13.016
51439W        W23754  44.944  39.345   3.375
51440W        W23755   0.774  22.251  14.830
51441W        W23756  28.083  14.807  10.917
51442W        W23757   7.688  24.644  13.429
51443W        W23758   5.438  25.696  10.503
51444W        W23759  30.942  12.671   1.261
51445W        W23760  30.927  37.942  13.808
51446W        W23761  33.950  42.361   2.845
51447W        W23762  40.384  17.260  10.891
51448W        W23763  38.994  23.732   0.916
51449W        W23764  43.805  15.127  14.816
51450W        W23765  24.977  36.391  12.834
51451W        W23766   3.430  18.657  13.956
51452W        W23767  28.022  41.969   4.336
51453W        W23768  42.908  29.559  13.312
51454W        W23769  19.210  28.617  10.962
51455W        W23770  13.106  43.820  13.959
51456W        W23771  31.599  30.970  13.441
51457W        W23772  38.517  22.029  12.949
51458W        W23773  18.185  21.748   3.787
51459W        W23774  33.617  35.920   2.784
51460W        W23775  44.837  36.449   5.187
51461W        W23776  26.050  12.210  12.444
51462W        W23777  20.224  25.594   0.875
51463W        W23778  10.642  38.564   4.137
51464W        W23779  13.660  23.511   4.286
51465W        W23780  11.361  37.966  12.052
51466W        W23781  11.747  32.038   3.832
51467W        W23782  41.519   5.761  12.916
51468W        W23783  13.257   4.262  11.913
51469W        W23784  36.955   6.237  14.864
51470W        W23785  28.483  16.652  12.938
51471W        W23786   7.246  43.965   3.347
51472W        W23787  25.027  23.053  12.374
51473W        W23788   6.749  41.937  10.949
51474W        W23789  18.732   1.957  10.897
51475W        W23790  40.506  40.880   3.271
51476W        W23791  30.429  23.124  12.500
51477W        W23792  24.530   4.351  12.026
51478W        W23793   4.769  30.092   0.364
51479W        W23794  42.842  38.529  11.985
51480W        W23795  29.101  27.179   2.675
51481W        W23796  16.629   2.752  14.824
51482W        W23797  15.197  36.381  11.074
51483W        W23798  27.677  25.523   4.139
51484W        W23799  37.913   5.804   1.275
51485W        W23800  37.488   6.861  12.505
51486W        W23801  23.572  22.677   9.947
51487W        W23802   9.648   5.320   3.750
51488W        W23803  17.131  35.924   3.348
51489W        W23804  15.135   2.296  10.572
51490W        W23805  34.002  42.292   0.384
51491W        W23806  22.541  41.307  10.097
51492W        W23807  12.678  32.429   1.871
51493W        W23808  12.636   6.207  13.934
51494W        W23809  38.512   4.289  12.535
51495W        W23810  13.331   4.930  13.401
51496W        W23811  39.434  41.392  10.582
51497W        W23812   8.788  22.717  11.027
51498W        W23813  17.295  15.820  12.548
51499W        W23814  36.098  44.498   1.275
51500W        W23815  34.097  23.005  13.517
51501W        W23816  14.694  27.017  12.395
51502W        W23817  35.062  44.436   0.859
51503W        W23818   0.876  40.920   2.285
51504W        W23819  41.967  27.023  12.526
51505W        W23820  39.868  39.504  13.464
51506W        W23821  15.764  30.149  13.497
51507W        W23822  12.239  24.225   2.214
51508W        W23823   0.353   8.226   0.952
51509W        W23824  21.657  19.172  12.086
51510W        W23825  34.416  43.496   0.735
51511W        W23826  43.433  44.987  13.796
51512W        W23827  41.982  13.289  14.032
51513W        W23828  24.168  21.581  11.030
51514W        W23829   4.790  36.991   2.414
51515W        W23830   2.289  33.051  11.104
51516W        W23831  13.650  43.890  14.878
51517W        W23832   9.282  29.133  10.938
51518W        W23833  13.724  17.598  10.440
51519W        W23834  39.493  15.134   4.146
51520W        W23835  35.870  12.629  10.515
51521W        W23836   5.377  15.767  11.086
51522W        W23837  44.453  19.274   1.363
51523W        W23838  28.111  33.961   0.874
51524W        W23839  36.389  32.042  12.849
51525W        W23840  37.512  30.522  14.450
51526W        W23841  20.590  18.703   2.892
51527W        W23842  11.675  29.460   1.347
51528W        W23843  18.587   7.266   2.683
51529W        W23844   8.784  17.072   2.195
51530W        W23845  38.053  32.922  12.942
51531W        W23846  26.084   1.817  11.480
51532W        W23847  12.128   8.206  14.800
51533W        W23848  22.006  38.408  10.466
51534W        W23849  14.216  20.633   0.736
51535W        W23850  35.455  13.220  13.503
51536W        W23851  30.910  43.283   4.817
51537W        W23852  31.546  23.611  11.007
51538W        W23853  22.534  30.459   1.727
51539W        W23854  28.574  39.837   1.701
51540W        W23855   0.780  34.493   0.923
51541W        W23856   2.784  27.589   0.342
51542W        W23857  29.019  28.064   1.906
51543W        W23858  43.421  33.418   0.451
51544W        W23859   6.740   6.306   2.817
51545W        W23860  40.835  40.480   3.806
51546W        W23861   7.799  39.472  13.882
51547W        W23862  39.483   0.968   4.225
51548W        W23863  43.288   4.821  14.442
51549W        W23864   7.208   2.909   3.795
51550W        W23865  26.585  14.280   1.824
51551W        W23866  36.971  11.373   2.213
51552W        W23867  44.385  20.038  14.419
51553W        W23868   6.411  42.340  13.939
51554W        W23869  30.654   6.797   4.131
51555W        W23870  15.289   8.227  12.365
51556W        W23871   8.182  27.662  14.396
51557W        W23872  31.996  20.041   4.696
51558W        W23873  40.459  14.773   0.812
51559W        W23874  34.540  11.788  14.767
51560W        W23875   3.217   4.394  13.527
51561W        W23876  21.585  37.538  14.340
51562W        W23877   7.345  23.206  14.779
51563W        W23878  20.702  33.424   2.287
51564W        W23879  32.964  24.993   2.280
51565W        W23880  15.806  28.121   4.206
51566W        W23881  13.707   3.824  11.548
51567W        W23882  39.036  10.762  14.389
51568W        W23883   0.308  30.031   4.604
51569W        W23884  25.554  32.511  13.946
51570W        W23885  18.697  11.361  10.035
51571W        W23886  39.460   7.368  12.500
51572W        W23887  29.013  34.530  13.031
51573W        W23888  18.612  38.430   2.725
51574W        W23889  41.305  34.894   1.297
51575W        W23890  38.015  39.942   0.751
51576W        W23891  30.593  35.446   1.381
51577W        W23892  37.445  14.204  14.336
51578W        W23893   0.454  18.612   0.423
51579W        W23894  44.765  23.198  10.908
51580W        W23895  33.106  27.975  12.973
51581W        W23896   6.810  27.561  10.578
51582W        W23897  29.432   9.865  10.611
51583W        W23898  10.814   3.714  10.995
51584W        W23899  40.948  17.606  11.068
51585W        W23900   2.233  22.118  11.911
51586W        W23901  14.241   0.765   4.252
51587W        W23902  36.891  39.939  13.421
51588W        W23903   1.274  19.589  10.404
51589W        W23904  37.891   3.404  14.822
51590W        W23905  33.432  26.523   9.995
51591W        W23906   6.915   8.275   2.702
51592W        W23907  20.680  32.562   1.723
51593W        W23908  28.539   3.756   1.712
51594W        W23909  34.473  43.779   3.796
51595W        W23910  11.219  35.031  14.909
51596W        W23911   5.931  22.666  12.965
51597W        W23912   0.401  27.485  12.849
51598W        W23913  21.743   3.873   3.178
51599W        W23914   9.727   9.266  10.971
51600W        W23915  24.203  33.884  14.985
51601W        W23916  13.683  36.024   2.276
51602W        W23917  39.322  30.553   2.683
51603W        W23918  11.151  22.196  12.386
51604W        W23919  44.805  37.559  12.380
51605W        W23920  15.178  22.597  12.349
51606W        W23921  10.813   7.283  14.852
51607W        W23922  42.515  26.962  10.991
51608W        W23923  26.119   6.214  13.359
51609W        W23924  24.222  41.329   2.704
51610W        W23925  11.199  16.771   1.403
51611W        W23926  33.019  33.421   3.857
51612W        W23927  36.590  43.781  13.349
51613W        W23928  18.772  19.703   0.785
51614W        W23929   1.748   7.374  14.439
51615W        W23930   4.752  38.425  13.867
51616W        W23931  38.959  34.865  12.940
51617W        W23932  36.893   1.960   4.206
51618W        W23933  43.915  41.391  14.337
51619W        W23934  13.740  23.209   0.395
51620W        W23935  16.731  30.418   1.358
51621W        W23936  17.217  17.112   1.732
51622W        W23937   0.274   4.773  13.381
51623W        W23938   4.214   8.656  14.013
51624W        W23939   2.391  31.100  10.629
51625W        W23940  18.210  25.613   4.734
51626W        W23941  42.379  30.459  12.421
51627W        W23942   5.368   5.282   0.844
51628W        W23943   1.787  43.863  13.893
51629W        W23944   0.842  27.631   1.757
51630W        W23945   0.787  36.413  10.490
51631W        W23946  17.081  22.583  10.112
51632W        W23947   2.885   6.191   4.173
51633W        W23948  16.188   9.665  13.326
51634W        W23949   9.869  20.749  11.391
51635W        W23950  32.969  15.319   3.291
51636W        W23951   9.382   4.805   0.811
51637W        W23952  11.164  25.577   3.774
51638W        W23953  40.471  33.906   3.836
51639W        W23954  34.535   7.756   2.346
51640W        W23955  26.684  18.116   1.328
51641W        W23956   0.266   9.814  13.416
51642W        W23957  32.568  22.161   1.772
51643W        W23958  12.217  11.250  11.421
51644W        W23959  36.420  33.962   2.341
51645W        W23960  22.995   2.407  11.862
51646W        W23961  38.009   1.929   4.308
51647W        W23962   9.368  30.516  10.588
51648W        W23963  30.103  30.926  14.898
51649W        W23964  36.999  29.978  10.544
51650W        W23965  16.675  40.524   3.849
51651W        W23966  34.554   0.914   4.621
51652W        W23967  13.600  38.418   3.739
51653W        W23968   1.814  10.834  14.869
51654W        W23969  13.781   2.406   2.832
51655W        W23970  18.138  24.117   2.183
51656W        W23971  29.926   3.449  13.528
51657W        W23972   8.236  13.771  11.416
51658W        W23973  14.681  21.199  11.889
51659W        W23974  11.232  36.437   1.281
51660W        W23975  39.966   2.412   1.870
51661W        W23976  15.215  25.976  13.356
51662W        W23977  11.192   1.305   4.660
51663W        W23978  11.720   3.416   5.322
51664W        W23979  23.648  27.690  10.611
51665W        W23980   6.885   8.858   4.244
51666W        W23981  33.616   7.744   5.193
51667W        W23982  15.315  31.402  13.814
51668W        W23983   1.800  19.216   4.145
51669W        W23984  34.099  12.354  10.450
51670W        W23985  21.619  28.991  12.087
51671W        W23986   9.887  33.522   4.670
51672W        W23987  26.487  15.630   3.791
51673W        W23988  15.145  10.169   3.825
51674W        W23989  12.720   9.815  12.480
51675W        W23990  30.477  17.090   3.786
51676W        W23991   0.318  14.680  11.539
51677W        W23992  30.918  35.489   4.650
51678W        W23993  31.531  23.674   1.709
51679W        W23994  17.626  30.518  14.431
51680W        W23995   4.806  37.426   0.306
51681W        W23996  40.899  26.470   0.784
51682W        W23997  35.465  27.522  12.361
51683W        W23998  28.615  42.780  13.062
51684W        W23999  16.202  42.882   2.193
51685W        W24000   7.801  31.434  10.410
51686W        W24001   6.695  25.998   4.203
51687W        W24002  37.394  18.652   4.249
51688W        W24003  29.559  36.401  10.474
51689W        W24004  35.041   7.824   0.789
51690W        W24005  11.166  10.799   4.640
51691W        W24006  24.013  29.039   1.813
51692W        W24007  10.264  40.861  11.015
51693W        W24008  43.970   9.707  12.578
51694W        W24009   4.355  16.198   3.668
51695W        W24010  28.472  13.611   1.718
51696W        W24011  12.341   7.861   3.650
51697W        W24012  28.643  28.015   4.205
51698W        W24013   7.834  15.799  13.894
51699W        W24014  18.214  39.420   2.737
51700W        W24015  16.089  32.407  13.824
51701W        W24016  24.072  10.265   1.281
51702W        W24017  15.163  33.610   3.651
51703W        W24018   1.924   5.816   0.442
51704W        W24019  33.070  39.558   0.445
51705W        W24020  23.038  14.287   4.614
51706W        W24021  34.949  44.006  12.565
51707W        W24022   7.705  35.495   3.261
51708W        W24023  28.672   2.330   4.226
51709W        W24024  32.621   4.297  12.509
51710W        W24025  38.965  25.640   4.312
51711W        W24026  32.437  24.517   0.759
51712W        W24027  10.750  36.018   0.451
51713W        W24028  26.070  43.363  11.059
51714W        W24029   8.406   6.205  13.921
51715W        W24030  27.056   6.797  11.479
51716W        W24031  38.875  11.779   3.183
51717W        W24032  16.650  16.809  14.414
51718W        W24033  24.702  19.551   3.286
51719W        W24034   7.817  41.399  12.977
51720W        W24035  11.357   0.481  14.920
51721W        W24036  39.353  36.359  14.302
51722W        W24037   8.405  28.156   3.255
51723W        W24038  27.683  26.036  12.090
51724W        W24039  37.453  37.019  11.862
51725W        W24040  20.189  15.179   3.302
51726W        W24041  27.010   5.399   3.292
51727W        W24042  32.960   3.848  10.909
51728W        W24043  28.656  27.949   2.856
51729W        W24044  41.433  17.164   3.299
51730W        W24045   9.390  19.129   4.206
51731W        W24046  11.241  13.760   2.879
51732W        W24047  22.102  18.181   1.881
51733W        W24048  20.634   9.149   9.968
51734W        W24049  17.083  16.159  11.454
51735W        W24050  11.636  22.157  11.902
51736W        W24051  14.184  44.352  11.523
51737W        W24052  23.732  30.552   1.274
51738W        W24053  43.282  40.899   1.427
51739W        W24054  38.831  27.031   3.643
51740W        W24055  21.173  38.371  14.832
51741W        W24056   9.380  26.538  12.084
51742W        W24057  15.258  17.676   3.671
51743W        W24058  17.777  18.694   4.820
51744W        W24059  15.165  41.450  14.494
51745W        W24060  14.288  40.357   5.180
51746W        W24061   4.376  23.186   2.809
51747W        W24062  26.010  21.193  12.920
51748W        W24063   7.236   4.433  10.912
51749W        W24064  19.198  20.651  11.005
51750W        W24065   2.434  14.182  10.902
51751W        W24066  28.982  13.618  14.984
51752W        W24067  22.115  38.539   1.837
51753W        W24068  34.615  19.161   1.823
51754W        W24069  14.216   9.259  12.892
51755W        W24070  25.695  16.614  13.055
51756W        W24071  31.641   5.705   4.705
51757W        W24072  21.558  31.418   4.300
51758W        W24073  41.295  32.104   2.820
51759W        W24074  19.705  24.639   3.723
51760W        W24075  43.344  13.221  12.571
51761W        W24076  21.753   7.366  10.435
51762W        W24077  10.274  12.300  12.922
51763W        W24078  18.101   5.768   2.204
51764W        W24079  40.443  17.100  11.513
51765W        W24080  40.407   2.825  10.998
51766W        W24081   3.819  43.882  10.490
51767W        W24082  20.645  29.548  13.962
51768W        W24083   8.246  40.446   1.247
51769W        W24084  28.623  16.226  13.451
51770W        W24085  17.556  29.086   2.341
51771W        W24086   6.425   0.816  11.083
51772W        W24087  21.221   2.843   0.738
51773W        W24088  43.333  19.719   3.734
51774W        W24089  12.122  37.017  13.923
51775W        W24090  24.590  28.133  10.952
51776W        W24091  18.705  11.730  13.479
51777W        W24092   6.313  44.362   0.958
51778W        W24093   6.831  22.122  11.026
51779W        W24094   9.804  11.640  11.916
51780W        W24095  28.974  26.469  11.453
51781W        W24096  39.932   1.889  14.885
51782W        W24097   3.271  17.620  10.933
51783W        W24098   2.898  41.806   0.296
51784W        W24099  13.789  36.883  14.421
51785W        W24100  38.883  33.512  14.981
51786W        W24101  22.584   6.725   4.789
51787W        W24102  39.824   5.237   0.389
51788W        W24103  24.052  22.086   9.440
51789W        W24104  20.270  39.923  14.760
51790W        W24105  11.819   6.387   1.735
51791W        W24106  24.658  25.162  12.854
51792W        W24107  26.120  42.516  14.460
51793W        W24108  26.575  31.950  14.831
51794W        W24109  37.013  19.184   0.923
51795W        W24110  41.973  42.881  11.589
51796W        W24111   8.239  39.328   1.285
51797W        W24112   2.831  21.113   4.148
51798W        W24113  25.030   3.354   2.361
51799W        W24114  17.252  30.086   4.333
51800W        W24115  20.123  14.323   1.780
51801W        W24116  35.913  12.637  12.390
51802W        W24117   5.438   8.720  10.477
51803W        W24118  43.427   7.691  10.425
51804W        W24119  30.465  16.640  12.469
51805W        W24120  34.473   3.235  14.823
51806W        W24121  14.159  19.556   3.687
51807W        W24122  34.070  28.624  12.512
51808W        W24123  14.272  33.878  11.019
51809W        W24124  33.061  28.506   4.683
51810W        W24125  27.194  34.581  11.577
51811W        W24126  10.242  20.589   3.700
51812W        W24127  18.239   8.722  11.052
51813W        W24128  26.640   4.392   1.363
51814W        W24129  39.987   8.282  13.439
51815W        W24130  38.429  43.382   2.292
51816W        W24131  12.232  30.592   2.815
51817W        W24132  11.179  10.243   3.828
51818W        W24133  10.290  24.678  12.397
51819W        W24134  25.000  28.668  10.930
51820W        W24135  20.158  15.725  11.890
51821W        W24136  25.559  29.050   1.397
51822W        W24137  34.977  17.660  12.066
51823W        W24138  42.869  16.812   4.115
51824W        W24139   0.316  23.559  11.969
51825W        W24140   3.751  20.559   0.924
51826W        W24141  36.085  23.137   4.281
51827W        W24142  24.528  23.088  14.870
51828W        W24143  26.599  18.138  11.432
51829W        W24144  44.479  23.622  11.998
51830W        W24145  22.714  16.772  12.349
51831W        W24146  16.647   5.904  11.955
51832W        W24147  24.551  17.682   2.344
51833W        W24148  37.397  38.459  11.945
51834W        W24149  36.993   8.741  10.505
51835W        W24150  42.490  18.105  13.326
51836W        W24151  13.327  43.514   4.740
51837W        W24152  33.907   5.250  13.383
51838W        W24153   8.403  27.531   1.889
51839W        W24154  43.351  16.250   3.812
51840W        W24155  36.368  33.889   3.152
51841W        W24156  31.991   7.315   1.313
51842W        W24157   7.834  17.184   5.148
51843W        W24158  15.794  43.011   3.756
51844W        W24159   6.730  14.162  12.068
51845W        W24160   8.216   1.465   0.961
51846W        W24161  21.722  35.508  12.527
51847W        W24162  40.309   0.436   2.218
51848W        W24163  36.084  40.433  11.926
51849W        W24164   2.959   1.863   4.737
51850W        W24165  11.835   9.889   3.285
51851W        W24166  23.735   7.260  12.882
51852W        W24167  29.550   4.316  12.388
51853W        W24168  22.650   5.305   4.768
51854W        W24169  17.122   6.211   4.198
51855W        W24170  21.599  34.034   2.418
51856W        W24171  23.126  10.164   3.341
51857W        W24172  24.554   1.868   1.724
51858W        W24173   8.337  40.024  10.632
51859W        W24174   1.476  28.539   4.216
51860W        W24175  22.043  14.615   2.406
51861W        W24176  16.316  16.648  12.350
51862W        W24177  28.634  18.756   3.326
51863W        W24178  21.119  12.679  13.459
51864W        W24179  11.840  24.012   0.475
51865W        W24180  38.494  19.151   3.638
51866W        W24181  28.148  32.948  13.314
51867W        W24182  13.729  40.428   2.281
51868W        W24183   1.334  37.873  11.378
51869W        W24184  14.191  25.652   0.873
51870W        W24185  27.975   5.876  13.932
51871W        W24186  27.452  24.627  10.587
51872W        W24187  42.939  31.100  14.419
51873W        W24188   7.194  30.156  14.341
51874W        W24189  10.169  18.550  13.030
51875W        W24190  25.477  31.567  14.003
51876W        W24191  18.769  23.191  10.894
51877W        W24192  38.390   9.386   3.319
51878W        W24193  10.876  15.089  14.972
51879W        W24194   7.171   1.956   4.613
51880W        W24195  42.866  44.810   1.763
51881W        W24196  11.756  41.949   4.816
51882W        W24197  10.720  38.037   0.953
51883W        W24198  14.740  39.354  13.464
51884W        W24199   3.244  12.722   1.908
51885W        W24200  33.942   5.217   4.796
51886W        W24201  37.029  24.227  13.895
51887W        W24202  40.549   1.826  13.517
51888W        W24203  29.439  18.247   1.432
51889W        W24204  18.708  12.697  11.897
51890W        W24205  33.522  31.578  13.853
51891W        W24206  31.533  40.853   0.475
51892W        W24207  42.874  34.446  11.528
51893W        W24208   3.864  34.430   3.299
51894W        W24209   8.751  18.185   2.830
51895W        W24210  17.799  24.161   3.350
51896W        W24211  10.736  31.089   0.377
51897W        W24212  38.042  25.033   4.772
51898W        W24213  18.718  22.648   4.325
51899W        W24214  16.650  35.911  11.488
51900W        W24215   1.781  38.004  14.905
51901W        W24216  12.808   0.916   0.799
51902W        W24217  33.050  31.599   4.126
51903W        W24218  36.060  25.137  12.351
51904W        W24219   7.327  39.954   1.355
51905W        W24220  13.134   8.838  11.509
51906W        W24221  28.984  32.131  10.988
51907W        W24222  23.658  34.009  11.939
51908W        W24223   2.432  32.426  13.529
51909W        W24224  37.088   8.662   0.480
51910W        W24225  20.107  24.567  13.050
51911W        W24226  37.389   0.896  12.039
51912W        W24227  18.659  25.063   1.773
51913W        W24228  17.308   8.826   3.705
51914W        W24229  37.902  25.475  12.539
51915W        W24230  44.362  15.808  14.287
51916W        W24231  23.184   8.883  14.771
51917W        W24232  32.083   4.751   1.443
51918W        W24233  17.752   6.727   2.775
51919W        W24234  23.721   7.308  14.787
51920W        W24235   4.831  18.686   4.300
51921W        W24236  13.798  24.582   3.201
51922W        W24237  28.999  24.048   3.379
51923W        W24238   3.227   0.804  14.378
51924W        W24239   7.210  39.333  10.533
51925W        W24240  14.765  31.091  14.302
51926W        W24241   9.266  24.659  10.910
51927W        W24242   8.400  14.139  13.996
51928W        W24243   2.923  40.956   2.880
51929W        W24244  18.118  13.204   3.170
51930W        W24245  43.906  39.513  11.409
51931W        W24246  32.889  13.843  12.088
51932W        W24247  41.882  14.679   2.387
51933W        W24248   7.744  14.254   4.155
51934W        W24249  24.692  12.118   2.745
51935W        W24250  33.384  41.469  13.929
51936W        W24251  22.222   8.176   0.748
51937W        W24252  12.710  14.730  10.598
51938W        W24253   2.276   4.374  14.916
51939W        W24254  16.660  21.714  12.414
51940W        W24255  23.635  38.044  13.463
51941W        W24256   5.700  14.779   3.379
51942W        W24257  42.899  25.126  10.092
51943W        W24258   5.192  35.927  12.932
51944W        W24259   8.696  14.167  10.899
51945W        W24260  16.619  43.355  11.895
51946W        W24261  12.823   7.353   1.402
51947W        W24262  29.664  37.851  12.994
51948W        W24263  43.881  40.944   0.777
51949W        W24264   1.247  14.198  12.880
51950W        W24265  40.911  31.979   0.355
51951W        W24266  11.277   8.210  14.834
51952W        W24267  27.997   5.864  12.514
51953W        W24268   7.293  12.660  14.896
51954W        W24269  34.543   3.834   2.841
51955W        W24270  28.122  15.673  10.642
51956W        W24271  35.445  31.061  11.983
51957W        W24272  12.238  31.144  12.483
51958W        W24273  43.943  38.038  11.971
51959W        W24274  35.926  25.642  10.980
51960W        W24275  20.608  18.791   3.778
51961W        W24276  32.936  36.853   4.290
51962W        W24277  17.200  12.683  11.110
51963W        W24278   5.693  38.900  11.502
51964W        W24279  11.826   3.790  11.380
51965W        W24280  16.245  28.607   5.299
51966W        W24281  37.887  18.614  10.889
51967W        W24282  24.509  21.651  11.058
51968W        W24283  42.446  12.234   4.303
51969W        W24284  34.561   5.899  11.000
51970W        W24285  19.198   2.415  11.409
51971W        W24286  17.672  28.063   5.575
51972W        W24287  12.698   1.849  13.805
51973W        W24288  34.574  36.500   0.808
51974W        W24289  35.883  42.948   1.228
51975W        W24290  35.899  24.195  11.018
51976W        W24291  11.765  25.603   4.682
51977W        W24292  41.426  14.248  12.065
51978W        W24293  31.935  25.165   0.246
51979W        W24294   5.424  27.058   3.201
51980W        W24295   1.738  24.078  13.858
51981W        W24296  30.542  10.850  12.445
51982W        W24297   4.316  44.822   4.175
51983W        W24298  36.542  23.000  12.507
51984W        W24299  21.190  17.063  14.473
51985W        W24300  13.739  13.317   0.811
51986W        W24301  38.351   0.885   4.351
51987W        W24302  13.263  22.171   1.838
51988W        W24303  30.022  24.998  14.293
51989W        W24304  28.614  23.600   0.882
51990W        W24305  36.511  40.430  13.488
51991W        W24306   3.387  24.167  14.880
51992W        W24307  32.931   3.239   4.354
51993W        W24308  19.605  16.082   4.600
51994W        W24309  26.176  22.013   4.153
51995W        W24310  38.543  26.649   1.292
51996W        W24311  14.675   1.888  12.851
51997W        W24312  27.600   2.322   0.788
51998W        W24313  11.721  17.268   5.175
51999W        W24314  10.765  28.083  14.815
52000W        W24315  14.624  37.950   0.882
52001W        W24316  38.569  16.617   2.277
52002W        W24317  39.839  31.134   2.771
52003W        W24318  19.242   4.839  13.511
52004W        W24319  44.995  43.993  14.808
52005W        W24320  10.201  13.190   3.216
52006W        W24321  29.937   3.883   1.380
52007W        W24322  35.511  22.539  14.377
52008W        W24323  19.146  20.653  13.050
52009W        W24324   7.222  43.386   2.901
52010W        W24325   4.396  44.794  13.991
52011W        W24326   8.198  36.425   2.399
52012W        W24327  10.292  37.873   0.868
52013W        W24328  27.487  11.141  14.898
52014W        W24329  40.860  10.878   4.684
52015W        W24330  20.137   6.742   2.241
52016W        W24331  23.566  13.819   4.599
52017W        W24332  27.073  14.238  13.031
52018W        W24333  38.898  15.724  14.848
52019W        W24334  35.578  25.045   1.302
52020W        W24335   1.384   6.866  14.836
52021W        W24336  31.120  14.615   1.283
52022W        W24337  30.033  40.800   0.881
52023W        W24338  32.036  25.479   0.438
52024W        W24339   1.314  19.150  10.964
52025W        W24340   1.792  19.066  10.932
52026W        W24341  24.551  15.645   2.818
52027W        W24342  16.723  30.075   3.333
52028W        W24343  14.625   8.186   4.804
52029W        W24344  34.480  34.988  12.472
52030W        W24345  30.517  36.540   4.833
52031W        W24346  22.152   7.181   3.849
52032W        W24347  33.526  34.441  12.356
52033W        W24348  14.687   5.383  10.947
52034W        W24349   1.371  31.608   3.306
52035W        W24350  22.148  13.646  12.466
52036W        W24351  19.631   7.221   0.846
52037W        W24352   1.328  38.477   2.358
52038W        W24353   0.390  35.012   3.372
52039W        W24354  17.074  15.605  13.359
52040W        W24355   4.819  42.012   5.109
52041W        W24356   0.746  13.810  10.581
52042W        W24357  42.317  44.984   2.868
52043W        W24358  10.636  29.468  10.506
52044W        W24359  38.055  43.486  14.770
52045W        W24360  25.491  44.486   5.245
52046W        W24361   8.657   9.805   0.853
52047W        W24362   8.765  16.292   3.369
52048W        W24363  27.664  16.663  14.482
52049W        W24364  11.823  12.664  11.891
52050W        W24365  33.050  42.999   1.339
52051W        W24366   0.900   3.887  12.955
52052W        W24367  26.549  10.743   0.832
52053W        W24368  22.017  17.164  10.553
52054W        W24369  10.815  36.902   3.351
52055W        W24370   8.405  34.023  13.975
52056W        W24371  16.140  28.179   2.664
52057W        W24372  42.292  24.689   1.844
52058W        W24373   9.842  43.880   2.304
52059W        W24374  37.030  12.704   1.329
52060W        W24375   5.693  11.699  10.963
52061W        W24376  10.688  20.267  14.348
52062W        W24377  28.456   6.815   9.484
52063W        W24378  14.721   6.857   1.360
52064W        W24379  10.666   1.246   4.212
52065W        W24380   0.413  19.685   1.761
52066W        W24381  22.695   1.734  13.992
52067W        W24382  31.518  22.516   3.256
52068W        W24383  39.874  27.101  10.453
52069W        W24384  37.837   3.809  14.287
52070W        W24385   9.363  16.631   1.879
52071W        W24386   1.969  32.901   3.191
52072W        W24387   6.683  27.152  14.772
52073W        W24388   4.773  12.819   1.376
52074W        W24389   2.778   9.875  11.523
52075W        W24390  42.302   5.312  12.525
52076W        W24391  42.474  25.969   3.165
52077W        W24392  27.999  27.189   4.776
52078W        W24393   9.699  11.668   3.811
52079W        W24394  35.918   2.321   3.788
52080W        W24395  24.676  10.727   1.893
52081W        W24396  41.518  26.002   3.204
52082W        W24397  16.791  29.587  13.842
52083W        W24398   6.207   9.877  13.967
52084W        W24399   3.894  28.654  12.091
52085W        W24400  18.231  42.780   4.757
52086W        W24401  44.447  15.732   2.297
52087W        W24402  42.444  37.448   3.648
52088W        W24403  39.047  22.678  14.305
52089W        W24404  33.126  26.045  11.596
52090W        W24405  28.057  16.283  14.867
52091W        W24406  39.388   4.854  11.108
52092W        W24407  12.657  31.933   0.806
52093W        W24408  33.095   0.768  11.554
52094W        W24409  15.590  28.489   2.389
52095W        W24410  33.114  41.437   1.277
52096W        W24411  14.325  37.012   2.798
52097W        W24412  43.813  16.287  10.464
52098W        W24413  10.694   0.413   1.853
52099W        W24414  43.770  40.799   2.196
52100W        W24415  23.114  18.076   1.363
52101W        W24416  38.830  35.090   1.790
52102W        W24417  34.084  36.930   2.881
52103W        W24418   4.936   0.885  10.980
52104W        W24419  12.356  29.470   4.813
52105W        W24420  14.701  33.505  12.401
52106W        W24421  12.662  14.230   2.403
52107W        W24422   6.922  21.198   3.659
52108W        W24423  14.116  12.748   0.854
52109W        W24424  28.181  19.158   2.328
52110W        W24425  37.530   9.653   1.752
52111W        W24426  27.692   3.410  10.157
52112W        W24427  26.031  36.964   0.729
52113W        W24428  19.083   9.812   0.731
52114W        W24429  27.521  17.150  11.473
52115W        W24430  34.063  12.712  12.058
52116W        W24431   7.753  17.787   3.236
52117W        W24432  40.913  34.494  12.421
52118W        W24433  18.139  42.882  14.339
52119W        W24434  25.971  11.781   1.926
52120W        W24435  13.786  20.746  13.403
52121W        W24436  25.526  11.702   1.322
52122W        W24437  29.921  13.768   0.750
52123W        W24438  34.004  24.100   3.822
52124W        W24439  19.107   8.736  10.994
52125W        W24440   9.253  12.764   3.750
52126W        W24441  42.478  43.378   4.132
52127W        W24442  29.534  13.254  12.007
52128W        W24443  22.054  25.637   1.228
52129W        W24444   4.868   9.839   4.822
52130W        W24445   5.393  43.448   3.198
52131W        W24446  19.712   8.790  11.531
52132W        W24447  19.571  38.886  11.987
52133W        W24448  20.043   1.773   2.400
52134W        W24449  15.758   0.492  14.991
52135W        W24450  28.587  27.609   0.805
52136W        W24451  18.273  13.193  11.376
52137W        W24452  26.644  17.721  13.862
52138W        W24453  37.955  40.923   4.750
52139W        W24454  33.129  28.567  12.003
52140W        W24455  19.549   1.819   4.215
52141W        W24456  15.657  19.767   4.228
52142W        W24457  21.650  17.129   4.239
52143W        W24458  35.397  10.667  13.839
52144W        W24459  30.473  25.516   0.743
52145W        W24460  16.287   6.390  14.027
52146W        W24461  25.671  19.630   1.384
52147W        W24462  36.077  28.012  14.394
52148W        W24463  35.085  27.144  14.015
52149W        W24464  19.194  36.975  13.035
52150W        W24465  27.967   9.876   1.865
52151W        W24466  11.142   4.285  13.411
52152W        W24467  44.998  13.830   4.669
52153W        W24468  42.396  32.081  13.858
52154W        W24469  43.358  20.768   1.394
52155W        W24470   8.869  41.375  13.424
52156W        W24471  33.524  37.482  12.538
52157W        W24472   1.372  30.472  12.574
52158W        W24473   6.874   4.405   0.728
52159W        W24474  33.623  26.609   1.285
52160W        W24475   5.196  43.430   0.298
52161W        W24476  21.171  19.652   9.942
52162W        W24477  25.161  22.631   4.312
52163W        W24478   5.236  28.070  13.912
52164W        W24479  33.622  21.671   2.827
52165W        W24480  36.867   8.315   0.262
52166W        W24481  19.135  17.618  14.329
52167W        W24482   8.750  10.840  11.068
52168W        W24483  31.946  43.399   0.413
52169W        W24484  18.785  37.960   1.436
52170W        W24485   3.236  40.819   3.209
52171W        W24486  38.333  41.338  11.607
52172W        W24487  41.364  37.449  13.505
52173W        W24488  27.687   5.344  13.486
52174W        W24489  32.531  11.742  12.040
52175W        W24490  34.015  43.288   3.331
52176W        W24491  34.401  22.632   4.605
52177W        W24492  34.871  29.489   3.786
52178W        W24493  17.678   7.336  10.589
52179W        W24494  12.243   4.265   3.830
52180W        W24495  35.003  19.249  14.831
52181W        W24496  13.157  12.351  13.965
52182W        W24497  23.985  40.368  11.479
52183W        W24498  37.942   5.204   4.762
52184W        W24499  23.537  32.933  11.590
52185W        W24500  25.128  31.947   3.251
52186W        W24501  44.259  12.738  14.024
52187W        W24502   4.731   3.321   0.304
52188W        W24503  30.121  23.542   0.833
52189W        W24504  17.120  27.649   5.167
52190W        W24505  11.631  11.708  13.995
52191W        W24506  12.779  40.858  14.394
52192W        W24507  41.371  20.035  10.927
52193W        W24508   6.402  18.124  14.815
52194W        W24509  30.012   6.796  10.538
52195W        W24510  33.974   2.383  12.462
52196W        W24511  18.101  28.953   3.244
52197W        W24512  37.536   9.663  11.058
52198W        W24513  11.337  44.768   4.122
52199W        W24514  35.523  36.094  12.939
52200W        W24515  21.546  41.008   3.852
52201W        W24516  31.903  42.940  11.082
52202W        W24517  25.479  31.426   0.419
52203W        W24518  38.857  24.713  13.450
52204W        W24519  43.395  28.108  13.016
52205W        W24520  38.849  40.428   0.247
52206W        W24521  44.005  39.870  12.930
52207W        W24522  20.042  13.262   4.293
52208W        W24523  31.431  37.937   1.367
52209W        W24524  38.449  29.099   0.824
52210W        W24525  19.045  36.503   1.842
52211W        W24526  20.736  29.024   3.182
52212W        W24527  34.075  16.143   3.672
52213W        W24528  28.000   9.750  10.555
52214W        W24529   0.857  38.923   3.177
52215W        W24530   7.320  13.127   3.818
52216W        W24531  43.355  38.366   4.646
52217W        W24532  17.214   4.744  13.389
52218W        W24533  40.370  13.680  12.546
52219W        W24534  37.441   2.895   4.265
52220W        W24535  39.326   8.321   1.881
52221W        W24536  10.858  10.304  14.844
52222W        W24537  16.653  16.605   4.704
52223W        W24538  42.928   8.265   0.365
52224W        W24539  12.757  28.046   3.834
52225W        W24540  38.872  31.606   3.220
52226W        W24541  43.996  30.516  11.514
52227W        W24542  10.175  25.107   3.250
52228W        W24543  18.723   2.294   1.768
52229W        W24544  11.205  36.898  13.353
52230W        W24545  16.185  31.568   0.253
52231W        W24546  18.164   5.867  13.806
52232W        W24547  14.759  42.950   5.090
52233W        W24548  13.343   1.957  12.392
52234W        W24549  10.264  15.638   4.249
52235W        W24550   7.353  10.863   3.758
52236W        W24551  24.219  10.748  14.325
52237W        W24552  25.603  42.342  12.952
52238W        W24553  23.551  40.438   4.692
52239W        W24554  19.266  36.358  12.006
52240W        W24555  42.307   6.245   0.251
52241W        W24556  13.768  29.499   1.376
52242W        W24557  29.460  29.976  10.437
52243W        W24558   1.859  30.087   3.168
52244W        W24559   8.402   8.166   2.812
52245W        W24560  17.694  19.219   3.648
52246W        W24561  38.922  38.514   1.763
52247W        W24562   7.881  44.452   0.431
52248W        W24563  26.952  36.939   2.854
52249W        W24564   1.444   0.272   1.819
52250W        W24565   2.327   3.342   0.791
52251W        W24566  26.611  28.094  14.355
52252W        W24567  27.943  25.589   1.695
52253W        W24568  24.524  34.445  10.903
52254W        W24569  14.245  34.994   1.443
52255W        W24570   0.342  10.210   1.298
52256W        W24571  36.841   4.271   4.211
52257W        W24572  26.083   6.719   2.394
52258W        W24573  16.679  34.542   1.776
52259W        W24574   2.825   1.900  11.449
52260W        W24575  37.077  37.411   3.193
52261W        W24576  18.242  22.011   2.313
52262W        W24577  38.963   5.854  12.465
52263W        W24578  35.397   9.190  10.993
52264W        W24579  34.059   2.278  10.505
52265W        W24580  43.007  38.379   1.854
52266W        W24581  44.485   3.255  11.612
52267W        W24582  26.082  33.941  10.419
52268W        W24583   7.335  27.644   3.732
52269W        W24584  26.628   9.255  13.364
52270W        W24585  42.469  23.725  14.854
52271W        W24586  42.963  14.620   1.696
52272W        W24587  13.603  32.925  14.883
52273W        W24588  34.929  40.896  13.436
52274W        W24589  25.692  18.090  11.023
52275W        W24590  42.964   0.982  14.397
52276W        W24591  22.666   9.277   1.805
52277W        W24592  25.987   8.162  13.522
52278W        W24593   5.430  34.865  11.607
52279W        W24594  33.411   5.824   2.329
52280W        W24595  31.077  24.203  10.485
52281W        W24596  13.605  35.601   4.710
52282W        W24597  15.233  34.989   4.615
52283W        W24598  40.971   8.278   3.339
52284W        W24599  31.132  37.033  14.513
52285W        W24600  42.298  36.517  12.578
52286W        W24601  11.733  42.814   0.310
52287W        W24602  10.160   1.918  10.098
52288W        W24603   9.312   2.382  13.959
52289W        W24604  15.268   6.196   3.794
52290W        W24605  31.410   6.839  10.440
52291W        W24606  41.304  24.039   4.196
52292W        W24607   0.434  23.675  10.545
52293W        W24608  26.965  39.333   1.876
52294W        W24609  26.147  41.854  11.554
52295W        W24610   2.797  39.412  13.872
52296W        W24611  40.347  16.753  12.828
52297W        W24612  34.096   5.778   0.967
52298W        W24613  27.096  15.271  14.410
52299W        W24614   6.427   2.873  11.909
52300W        W24615  29.602  37.553   5.128
52301W        W24616   4.408   0.439   4.164
52302W        W24617  35.429  11.799   0.476
52303W        W24618   6.406  32.542   0.393
52304W        W24619  32.939  15.740   4.151
52305W        W24620  21.252  22.137   5.231
52306W        W24621  36.444   4.854  10.473
52307W        W24622  39.313  12.814  11.101
52308W        W24623  12.231   2.384   2.871
52309W        W24624  15.632  10.376   1.350
52310W        W24625  20.071  23.554  13.376
52311W        W24626  34.544  16.642  12.872
52312W        W24627  28.467   8.290   4.623
52313W        W24628   6.707   1.779   1.304
52314W        W24629  19.614  43.506   3.705
52315W        W24630  21.193  36.502  11.942
52316W        W24631   2.813  43.805  12.894
52317W        W24632  15.802  12.338  10.940
52318W        W24633  12.248   8.302   2.859
52319W        W24634  27.941  36.059   1.910
52320W        W24635  24.623  44.326  12.452
52321W        W24636  39.001  29.096   3.821
52322W        W24637  13.672  24.100   1.345
52323W        W24638   6.230  31.988   4.601
52324W        W24639  33.593   0.427  11.449
52325W        W24640  25.150  19.612  10.009
52326W        W24641   0.370  17.764   1.307
52327W        W24642  13.611  17.090   0.878
52328W        W24643  33.100   4.726  12.019
52329W        W24644  27.624  21.617  12.831
52330W        W24645  22.095  33.566  13.876
52331W        W24646  28.025   1.265  14.918
52332W        W24647  15.215   9.221  10.943
52333W        W24648  33.515  34.005   3.739
52334W        W24649  35.091  24.495  14.373
52335W        W24650  19.154  11.241   3.671
52336W        W24651  44.285  11.327  13.945
52337W        W24652  37.413  15.710   5.270
52338W        W24653  20.234  38.970  13.918
52339W        W24654  25.641   6.826  12.485
52340W        W24655   2.343  39.912  13.352
52341W        W24656  30.539  37.517   1.839
52342W        W24657  31.643  21.241  10.103
52343W        W24658  18.694  27.626  12.385
52344W        W24659  34.447   7.871  11.479
52345W        W24660  15.715  13.685  12.827
52346W        W24661   7.889   6.377  12.351
52347W        W24662  37.539   6.247   5.243
52348W        W24663  32.631  13.230  10.972
52349W        W24664  36.528  15.327  14.832
52350W        W24665   4.361   5.306   0.881
52351W        W24666   9.175  39.856  11.945
52352W        W24667  35.531  33.933   0.746
52353W        W24668  29.151   8.348   0.771
52354W        W24669  22.207  44.423   0.245
52355W        W24670  40.037   0.386   1.746
52356W        W24671  19.587  33.993  12.901
52357W        W24672  22.723  22.513  12.386
52358W        W24673  29.522   5.772  13.387
52359W        W24674  26.489  27.974  12.992
52360W        W24675   6.300  31.936   0.849
52361W        W24676  24.229  21.669   1.298
52362W        W24677   7.347  41.296  10.463
52363W        W24678  16.704  29.029  12.062
52364W        W24679  24.166  27.590  11.091
52365W        W24680  36.017  28.028   4.347
52366W        W24681  21.565  20.743  13.483
52367W        W24682  32.596  28.137   3.321
52368W        W24683  35.019  18.174  14.348
52369W        W24684  39.935  44.317   2.807
52370W        W24685  27.574   6.416   3.800
52371W        W24686  33.029  22.119   4.303
52372W        W24687  44.951  24.611   0.445
52373W        W24688  19.541   5.221  13.338
52374W        W24689  37.374  15.318  14.810
52375W        W24690  34.959  21.122   0.733
52376W        W24691  33.499  17.182   4.686
52377W        W24692  21.238  41.456  11.006
52378W        W24693  16.794  34.404  14.841
52379W        W24694  20.152   1.870  14.491
52380W        W24695  22.502  23.595  11.398
52381W        W24696  15.101  36.475  12.384
52382W        W24697  20.651   5.424  11.892
52383W        W24698  40.472  32.995  10.615
52384W        W24699  38.373  39.553  12.493
52385W        W24700  33.895  13.775  14.966
52386W        W24701  21.186  37.086   3.260
52387W        W24702  37.932  37.858   2.891
52388W        W24703  34.078   0.384  14.019
52389W        W24704  23.685  36.506   0.750
52390W        W24705  17.648  29.127  10.929
52391W        W24706  27.120   3.412  10.494
52392W        W24707  18.053  35.521  12.354
52393W        W24708   5.293  39.912  11.059
52394W        W24709  10.320  11.752   2.876
52395W        W24710   8.165  27.023   3.808
52396W        W24711  24.549  23.055   0.756
52397W        W24712  37.984  16.119   4.214
52398W        W24713  12.229  19.706   0.455
52399W        W24714  11.263  26.031  10.592
52400W        W24715   8.177  30.445  13.026
52401W        W24716  35.092  36.049   0.276
52402W        W24717  44.439  10.644  13.495
52403W        W24718  11.226  39.820   2.358
52404W        W24719  17.164   0.906   0.818
52405W        W24720   4.422  23.079  12.942
52406W        W24721   1.419  10.873   9.961
52407W        W24722  38.054  36.529  11.590
52408W        W24723  33.551  29.963   0.304
52409W        W24724   3.313   5.829   1.396
52410W        W24725  44.763  18.554   2.675
52411W        W24726  33.523   0.919   2.873
52412W        W24727  34.863  32.038  14.293
52413W        W24728  10.308  21.044  12.833
52414W        W24729   8.296  43.941   3.196
52415W        W24730   7.229  29.151   1.411
52416W        W24731  13.825  20.662   1.428
52417W        W24732   0.949  33.381  12.013
52418W        W24733  15.083  21.199  14.429
52419W        W24734  13.618  42.914  11.508
52420W        W24735  27.971  35.443   2.736
52421W        W24736  14.171  41.790   3.839
52422W        W24737  38.829   0.975   3.201
52423W        W24738  42.999  39.321  14.988
52424W        W24739  29.133  20.648   1.882
52425W        W24740   8.742  40.482   1.851
52426W        W24741  11.706   9.258   3.666
52427W        W24742  40.833  42.897   0.860
52428W        W24743   5.302  32.972  13.039
52429W        W24744  40.499  19.629   3.222
52430W        W24745  24.589  12.135   2.239
52431W        W24746  10.869  30.477   0.848
52432W        W24747  42.848  14.337  13.540
52433W        W24748  36.926  16.186  14.464
52434W        W24749   5.234  29.100  12.827
52435W        W24750  23.553  19.670  14.473
52436W        W24751  18.681   9.255   2.879
52437W        W24752  43.803  20.757  11.485
52438W        W24753   2.286   7.728  14.009
52439W        W24754  42.949  25.020  11.058
52440W        W24755  44.008  34.063  13.510
52441W        W24756  15.091  37.414   0.474
52442W        W24757   3.822  33.563  12.455
52443W        W24758  10.728  29.059   2.767
52444W        W24759  38.961  22.226   1.222
52445W        W24760  44.489  10.651   3.810
52446W        W24761  28.059   9.308   3.792
52447W        W24762  16.601  40.506  12.854
52448W        W24763  42.975  15.659   4.227
52449W        W24764  38.904  18.545  13.395
52450W        W24765   3.320  44.000   0.806
52451W        W24766  21.754   3.348   1.741
52452W        W24767  41.357  20.127   0.870
52453W        W24768   4.256  27.563   1.244
52454W        W24769  15.147   9.753  12.844
52455W        W24770  19.158   2.932   2.276
52456W        W24771   2.945  22.150   1.340
52457W        W24772  14.781  35.943   1.702
52458W        W24773  15.299  25.472   0.939
52459W        W24774  38.047   7.220  14.516
52460W        W24775  38.004  29.499  14.780
52461W        W24776  43.907  42.471   3.747
52462W        W24777   8.251  27.679   1.388
52463W        W24778   8.317  18.133  13.882
52464W        W24779  29.604  24.005  13.335
52465W        W24780  10.354  20.183  12.401
52466W        W24781  38.511   5.300   4.293
52467W        W24782   9.265  32.937   3.246
52468W        W24783  13.737  44.775  13.877
52469W        W24784  16.168  24.548   3.632
52470W        W24785  35.552  26.670  14.923
52471W        W24786  25.142  25.209   0.774
52472W        W24787  10.180  41.447   4.755
52473W        W24788   3.944   9.153   0.961
52474W        W24789  33.538   2.440   0.810
52475W        W24790  20.132  15.618   2.688
52476W        W24791   1.802  39.340   0.966
52477W        W24792   1.749  15.795  14.346
52478W        W24793  25.082  30.585   0.443
52479W        W24794   4.374  23.077  14.874
52480W        W24795   1.435  32.952   4.733
52481W        W24796  41.399  43.822   0.961
52482W        W24797   2.282  15.266  11.892
52483W        W24798  18.716  43.370  14.341
52484W        W24799   8.283  34.587   3.185
52485W        W24800  21.584  30.957  13.956
52486W        W24801  17.616  30.502   2.272
52487W        W24802  29.013  26.554  14.291
52488W        W24803  21.709  42.480   2.786
52489W        W24804   3.910  37.914  14.297
52490W        W24805   7.179   2.460   3.289
52491W        W24806  27.640  36.912   4.187
52492W        W24807  32.954  15.799   0.389
52493W        W24808  10.689  22.057   2.256
52494W        W24809  31.484  13.765  10.425
52495W        W24810  39.529  37.956   2.869
52496W        W24811   9.257  12.847  14.355
52497W        W24812  16.122  43.941  14.856
52498W        W24813  34.093  28.528   3.363
52499W        W24814  32.113  22.500  13.796
52500W        W24815  22.525   5.219   3.217
52501W        W24816  40.977  35.960  14.456
52502W        W24817  28.488  15.169  13.914
52503W        W24818  17.246  14.637  13.515
52504W        W24819  21.742  24.068  13.357
52505W        W24820  33.902  11.192   0.911
52506W        W24821  40.984  35.579  11.495
52507W        W24822  38.547  38.994  12.409
52508W        W24823   4.238  14.210   0.881
52509W        W24824   0.335   3.305  10.410
52510W        W24825  20.621  44.948  11.436
52511W        W24826   7.405  12.270   3.703
52512W        W24827  34.979   0.807  13.899
52513W        W24828  32.627  24.155   1.214
52514W        W24829  19.700  39.556  14.287
52515W        W24830   5.385  23.067   2.727
52516W        W24831  27.484   5.841   2.755
52517W        W24832  36.879  23.636  12.578
52518W        W24833  21.684  32.545   3.638
52519W        W24834  32.518  25.711   4.147
52520W        W24835  23.534  21.668   1.737
52521W        W24836   9.744   1.937   3.797
52522W        W24837  40.406  18.672  13.467
52523W        W24838  19.670  22.664  12.467
52524W        W24839  35.964   3.775  14.365
52525W        W24840   6.685  37.475  12.527
52526W        W24841  22.148  15.251   1.874
52527W        W24842  23.584  19.232   3.265
52528W        W24843   8.332   6.856   3.270
52529W        W24844  32.921  43.788   4.688
52530W        W24845  38.336   4.714  14.890
52531W        W24846  10.815  23.536  12.515
52532W        W24847  40.407   3.813   1.916
52533W        W24848  15.274  41.811   1.871
52534W        W24849  20.761  31.081  10.506
52535W        W24850   5.728   5.917  10.891
52536W        W24851  10.749   3.439   4.188
52537W        W24852  25.691   8.737  13.792
52538W        W24853  20.663  30.008   3.734
52539W        W24854  29.633   0.928  12.910
52540W        W24855  31.624  35.444   4.722
52541W        W24856   9.224  34.396   2.887
52542W        W24857  17.782  38.406   4.197
52543W        W24858  42.491  33.419   1.255
52544W        W24859  36.463  41.810  12.846
52545W        W24860  42.876   2.862   2.389
52546W        W24861  38.976   5.362  10.633
52547W        W24862  27.076   5.774   3.162
52548W        W24863   2.741  44.857  14.330
52549W        W24864  29.534  26.204   4.307
52550W        W24865   3.768  22.251  12.498
52551W        W24866  26.592   2.790   3.646
52552W        W24867   3.805  28.639  10.473
52553W        W24868  42.427   4.805   1.694
52554W        W24869   2.234  20.061   3.706
52555W        W24870   0.450   7.295  14.926
52556W        W24871  24.062  15.126   4.758
52557W        W24872  37.571  33.542  14.791
52558W        W24873  29.449  28.063  10.455
52559W        W24874  16.292  38.451  10.561
52560W        W24875   4.373  38.539   4.819
52561W        W24876   0.746  18.585   0.849
52562W        W24877  40.348  37.908  12.383
52563W        W24878  22.609  30.468  13.823
52564W        W24879  19.271  33.989   0.319
52565W        W24880  37.403  44.405   1.361
52566W        W24881  20.093   5.298   3.184
52567W        W24882  41.404  19.127  12.489
52568W        W24883   3.840  19.280  13.418
52569W        W24884  26.499  10.712  13.312
52570W        W24885  34.903  23.729  12.853
52571W        W24886   5.311  43.962  12.942
52572W        W24887   9.253  40.317   3.346
52573W        W24888   4.267  14.674   4.153
52574W        W24889  38.460  31.575  12.432
52575W        W24890  25.975  33.406  10.559
52576W        W24891   0.263   9.821   3.861
52577W        W24892  15.243  23.015   2.848
52578W        W24893  36.976   8.264   2.682
52579W        W24894  17.275   4.254   1.798
52580W        W24895  35.018  15.638   1.931
52581W        W24896  42.459   7.835  10.434
52582W        W24897  17.724  28.523   0.451
52583W        W24898  25.142  28.121  14.831
52584W        W24899  44.804  32.565  14.993
52585W        W24900  21.045  33.031   0.903
52586W        W24901  14.306  33.589   0.280
52587W        W24902   3.731  11.341  11.898
52588W        W24903  29.090  18.551   0.401
52589W        W24904  30.983   5.399  12.970
52590W        W24905  23.534   9.149   4.169
52591W        W24906   7.363  31.978  10.433
52592W        W24907  37.903   4.273  10.608
52593W        W24908  34.945  31.926   3.241
52594W        W24909  12.325  33.023  14.306
52595W        W24910  33.884  33.480  12.061
52596W        W24911   2.376  23.058   4.625
52597W        W24912   3.830  10.322   0.453
52598W        W24913  22.034   3.824  10.906
52599W        W24914  35.467  17.080   0.334
52600W        W24915  10.837  29.918   2.302
52601W        W24916  26.158  44.293  11.003
52602W        W24917  33.042  30.965   0.243
52603W        W24918  24.192  22.171  14.934
52604W        W24919  39.905  41.838   2.875
52605W        W24920  40.396  18.737   4.800
52606W        W24921  24.181   9.220   3.751
52607W        W24922  11.160   9.386  14.898
52608W        W24923   2.755  10.730   2.711
52609W        W24924  13.254  26.055   3.163
52610W        W24925  23.610  35.009  13.404
52611W        W24926   3.375  12.296   2.383
52612W        W24927  22.148  39.043  14.880
52613W        W24928  31.501   3.822  13.412
52614W        W24929   0.864   2.334   4.651
52615W        W24930  43.506   4.391   1.276
52616W        W24931  26.993  21.031  14.802
52617W        W24932  33.510  32.565  12.504
52618W        W24933   5.782  32.906  14.869
52619W        W24934  16.115  33.876   2.343
52620W        W24935  42.427   7.811   3.672
52621W        W24936  10.233  14.326   4.288
52622W        W24937  22.745  35.957   1.308
52623W        W24938  20.100  37.367  10.961
52624W        W24939  17.690  34.543  12.567
52625W        W24940  33.388  10.841  14.859
52626W        W24941  19.585  36.845   1.390
52627W        W24942   7.886  19.071   3.254
52628W        W24943   2.743  12.811  13.962
52629W        W24944  19.580  36.850  14.853
52630W        W24945  14.143  33.602   2.788
52631W        W24946  10.850  43.827  12.463
52632W        W24947  39.317  28.174  13.801
52633W        W24948  16.732  29.128  10.441
52634W        W24949  27.064  34.052   5.099
52635W        W24950  36.957  43.821  10.912
52636W        W24951  32.978  23.232   0.878
52637W        W24952  43.273  22.243   2.705
52638W        W24953  13.251  15.199   0.353
52639W        W24954  25.005  35.413  11.981
52640W        W24955  24.028  42.359  12.517
52641W        W24956  41.895  43.468  11.373
52642W        W24957  28.185  18.167   0.811
52643W        W24958  14.757  41.959   0.888
52644W        W24959  16.216  24.539  11.561
52645W        W24960   1.255   7.375  12.020
52646W        W24961  33.461  12.679  10.902
52647W        W24962  36.061  26.672   1.881
52648W        W24963   5.765  27.575  14.788
52649W        W24964  22.087  18.252  11.088
52650W        W24965  26.023  22.041   0.372
52651W        W24966  33.975  18.604  11.484
52652W        W24967  12.251  34.485  14.373
52653W        W24968  27.954   1.781  11.065
52654W        W24969   8.894  24.586   4.802
52655W        W24970  36.053  40.456   0.365
52656W        W24971   3.956  40.314   0.818
52657W        W24972  18.260  43.416  14.500
52658W        W24973  26.020  33.985   3.275
52659W        W24974  44.259  38.997  10.471
52660W        W24975  28.005  44.318  14.354
52661W        W24976  29.480   5.333   4.802
52662W        W24977   4.868  40.538  10.579
52663W        W24978  44.502  29.149   4.649
52664W        W24979  26.489  18.218  10.120
52665W        W24980  37.018   8.160  14.377
52666W        W24981   8.709  13.717  13.831
52667W        W24982  32.978   7.835  12.497
52668W        W24983  30.120  33.881  11.070
52669W        W24984   0.483  22.531  12.949
52670W        W24985  25.015  41.391  10.934
52671W        W24986  12.817  22.646   3.302
52672W        W24987  17.698   6.759   2.295
52673W        W24988  34.423  27.622  10.901
52674W        W24989  36.992  27.176   2.755
52675W        W24990   8.849  16.233  13.889
52676W        W24991  15.749  19.080  12.052
52677W        W24992  19.250  24.054   2.679
52678W        W24993  33.397  32.032  14.506
52679W        W24994  26.472  36.938  14.009
52680W        W24995  43.293  16.586  13.889
52681W        W24996  34.099   1.742   2.857
52682W        W24997  29.521   3.429  14.004
52683W        W24998  38.552  41.389  14.342
52684W        W24999   3.715  24.542   4.626
52685W        W25000  27.514   1.787   4.701
52686W        W25001  26.182  29.951   3.684
52687W        W25002   2.337  36.429  14.939
52688W        W25003  14.770  26.469   4.282
52689W        W25004   3.802  35.590   4.665
52690W        W25005  39.919  13.169   2.297
52691W        W25006  17.577   8.683   3.265
52692W        W25007  35.519  37.432  13.010
52693W        W25008   4.338   0.849   1.251
52694W        W25009  31.547  17.260   0.324
52695W        W25010  11.205  13.732   1.298
52696W        W25011  17.634  17.283  13.891
52697W        W25012  36.937  40.516  13.797
52698W        W25013   4.702  14.109   0.463
52699W        W25014  29.625   7.312   0.793
52700W        W25015  30.015  42.377   3.311
52701W        W25016  24.108  21.744   9.992
52702W        W25017  42.444  18.576   4.669
52703W        W25018  27.496  40.957  13.364
52704W        W25019  12.183   6.347  13.317
52705W        W25020  20.679   0.935   1.918
52706W        W25021  30.565  11.181  14.830
52707W        W25022  12.702  30.542   2.361
52708W        W25023  33.471  32.519   1.716
52709W        W25024  18.607  19.552  14.986
52710W        W25025  31.499  40.948  12.066
52711W        W25026  40.821  29.575   3.738
52712W        W25027  18.734  16.089   0.792
52713W        W25028  34.497   6.359  13.981
52714W        W25029  38.523  17.561   2.204
52715W        W25030  44.437  24.041  12.940
52716W        W25031   8.739  25.043  13.836
52717W        W25032   7.727  21.663  13.848
52718W        W25033  19.678   9.821  10.595
52719W        W25034  44.326   8.314  14.428
52720W        W25035   0.275  21.175  11.474
52721W        W25036  24.196   6.417  10.575
52722W        W25037  18.129  40.337   1.815
52723W        W25038  32.115  32.069   1.778
52724W        W25039  31.982  15.281   3.858
52725W        W25040   7.221  37.858   1.887
52726W        W25041  38.472  18.200  13.965
52727W        W25042  33.034   0.796   4.730
52728W        W25043  27.966  26.080   4.795
52729W        W25044  21.150  39.026   2.267
52730W        W25045  12.809  15.277  14.416
52731W        W25046  30.932  11.344   1.761
52732W        W25047  32.012  17.636  14.508
52733W        W25048  42.810  17.706  12.875
52734W        W25049  36.452  44.287   4.334
52735W        W25050  21.248  39.060   3.732
52736W        W25051  21.738  36.506   2.289
52737W        W25052   1.959  41.532   1.375
52738W        W25053  17.632  40.806   0.337
52739W        W25054   8.368  35.003  14.852
52740W        W25055  33.985   7.248  13.371
52741W        W25056  10.290  32.939  13.374
52742W        W25057  28.656   9.321  13.396
52743W        W25058  18.098  23.734  11.124
52744W        W25059  11.203  19.651   2.797
52745W        W25060  20.096  17.166  10.955
52746W        W25061  26.078  44.390  11.585
52747W        W25062   0.905   4.917   0.384
52748W        W25063  18.671  36.549  14.010
52749W        W25064  31.082  23.110  13.954
52750W        W25065  35.367  23.691   4.243
52751W        W25066  14.114   4.826  12.899
52752W        W25067  22.140  18.634   3.284
52753W        W25068  31.113   4.831  13.860
52754W        W25069  43.874  19.717  12.558
52755W        W25070  35.055  16.312   4.796
52756W        W25071  32.987  29.527   3.660
52757W        W25072  12.337  32.058  12.532
52758W        W25073   0.460  14.123   2.746
52759W        W25074  32.943   7.693   0.471
52760W        W25075  17.080  35.542   2.668
52761W        W25076   8.186  38.886   4.145
52762W        W25077  18.583  30.162   1.321
52763W        W25078  20.747  23.187   1.866
52764W        W25079  25.485  30.438   4.322
52765W        W25080  42.394  43.932   1.370
52766W        W25081  10.640  15.609  12.464
52767W        W25082  29.966  21.229  11.084
52768W        W25083  28.139  44.824  12.085
52769W        W25084  32.622  20.059  13.335
52770W        W25085  37.012  40.310  13.494
52771W        W25086  20.266  16.212  10.575
52772W        W25087  17.237  10.257  12.826
52773W        W25088  35.905  43.413  12.388
52774W        W25089  40.457  14.662   2.874
52775W        W25090  43.315  12.756   4.351
52776W        W25091  18.787  18.284  12.857
52777W        W25092  13.281  27.958  13.936
52778W        W25093   6.184  26.583   2.894
52779W        W25094   4.339  22.151   4.239
52780W        W25095  12.672  42.281  11.898
52781W        W25096  12.825  34.057  13.925
52782W        W25097  38.510  27.997  13.996
52783W        W25098  10.302  23.018  12.344
52784W        W25099   0.323  35.909   5.313
52785W        W25100  38.570  44.010  14.871
52786W        W25101  25.998   2.463  11.866
52787W        W25102  42.821  11.142   4.266
52788W        W25103  21.535   5.893  13.464
52789W        W25104  28.662   6.752   0.319
52790W        W25105  23.548  44.398  14.806
52791W        W25106  44.377  33.493   3.382
52792W        W25107  19.723  26.191   2.177
52793W        W25108  36.565  42.393   2.669
52794W        W25109   7.187  18.647   2.330
52795W        W25110   7.723  25.181   3.765
52796W        W25111   7.840  22.231   4.711
52797W        W25112  44.497  27.123  13.818
52798W        W25113  30.971  36.388  13.410
52799W        W25114   1.900  16.210   0.292
52800W        W25115  43.425  35.379   1.772
52801W        W25116   1.746  15.631   2.242
52802W        W25117  18.587   0.846   1.887
52803W        W25118  30.571  21.118  14.923
52804W        W25119  27.462  33.879   4.290
52805W        W25120  30.552   8.794  13.537
52806W        W25121  40.882  37.838   4.298
52807W        W25122  30.063  14.831   0.461
52808W        W25123   6.737  32.997   0.366
52809W        W25124  15.324  16.787   2.394
52810W        W25125   1.477  36.975  13.467
52811W        W25126  18.118  36.384   2.703
52812W        W25127  24.640  14.768  12.384
52813W        W25128  38.385  42.436  10.989
52814W        W25129  40.007  19.652   4.249
52815W        W25130   8.394  32.513  12.479
52816W        W25131   2.360   9.361  12.539
52817W        W25132  39.015  14.297   1.825
52818W        W25133   3.928   3.257  10.969
52819W        W25134   4.445  16.303   4.331
52820W        W25135  29.979   5.744   1.881
52821W        W25136  30.039  18.667  11.579
52822W        W25137  14.119  31.569  11.917
52823W        W25138  25.046  27.121  14.978
52824W        W25139  24.575  22.626  13.063
52825W        W25140   9.846  44.786  10.606
52826W        W25141  30.132  43.832  12.567
52827W        W25142  22.594  20.067   9.948
52828W        W25143  29.480  14.733  13.539
52829W        W25144  33.493  20.765   3.319
52830W        W25145  26.536  42.978  14.453
52831W        W25146   4.940   1.299  12.467
52832W        W25147  31.901  28.121  12.060
52833W        W25148  13.139   9.776   3.206
52834W        W25149   5.819  29.948  10.563
52835W        W25150  17.759   3.310  12.064
52836W        W25151  25.549  38.462   3.147
52837W        W25152  11.772  37.546  12.901
52838W        W25153   2.243   1.247   2.218
52839W        W25154   0.442  39.410  13.915
52840W        W25155  32.435  31.912  13.829
52841W        W25156   3.418  27.975  12.063
52842W        W25157  33.588  12.125  11.441
52843W        W25158   9.816  37.040  13.451
52844W        W25159  40.342  28.511   4.814
52845W        W25160  13.289  21.725   1.296
52846W        W25161  30.570   2.259  11.464
52847W        W25162  19.593  31.628  14.478
52848W        W25163  31.003   6.368  12.902
52849W        W25164   1.747  22.100  12.429
52850W        W25165  44.757  27.113   3.267
52851W        W25166   1.447  38.837   1.339
52852W        W25167  25.125  38.066   0.870
52853W        W25168   8.797  37.988   0.769
52854W        W25169  41.457  32.468  11.451
52855W        W25170   7.761  17.142   4.288
52856W        W25171  16.783   3.952  12.485
52857W        W25172  13.799  11.732  11.455
52858W        W25173  44.796  42.790  11.379
52859W        W25174  17.271  33.905  14.999
52860W        W25175  22.137  24.671  13.363
52861W        W25176  34.015   7.677   2.229
52862W        W25177  38.332  41.927   4.352
52863W        W25178  43.955  12.211   5.655
52864W        W25179  29.535  28.176   2.784
52865W        W25180  40.921   5.428   2.193
52866W        W25181  42.778  38.489  12.366
52867W        W25182   5.217   7.348  14.326
52868W        W25183   4.220  29.979   2.753
52869W        W25184  42.024  19.635   1.218
52870W        W25185  43.971   6.906   3.313
52871W        W25186  37.403  27.027  11.561
52872W        W25187  22.632  42.938  11.581
52873W        W25188  10.153  23.057   1.823
52874W        W25189   0.403  31.934   1.250
52875W        W25190   9.351  30.527   4.724
52876W        W25191  12.738   3.782  10.530
52877W        W25192  21.705   1.972   1.903
52878W        W25193  38.036  35.889   4.247
52879W        W25194  16.599  22.018   0.891
52880W        W25195  28.512   3.420   3.273
52881W        W25196  32.006  24.092  12.093
52882W        W25197  15.216  38.333   3.244
52883W        W25198   4.307  10.714   4.214
52884W        W25199  38.842  22.633  10.410
52885W        W25200   5.865  13.284   0.784
52886W        W25201  20.679  17.677   4.246
52887W        W25202  13.840   2.319  14.021
52888W        W25203  44.286   6.372   0.962
52889W        W25204  10.251  18.244   4.607
52890W        W25205  29.172  21.236   1.732
52891W        W25206  41.303  10.847  12.496
52892W        W25207   5.266  28.100   2.688
52893W        W25208  16.131  36.890   1.737
52894W        W25209  10.151  38.464   2.757
52895W        W25210  43.272  42.931   4.298
52896W        W25211  42.507  38.927  10.436
52897W        W25212  12.855   6.185  11.467
52898W        W25213  35.521  40.838  13.037
52899W        W25214  10.270  40.858   2.785
52900W        W25215  29.146   3.308   0.428
52901W        W25216  31.425   3.807   1.405
52902W        W25217  42.425  25.631   0.275
52903W        W25218  27.152  25.682  14.918
52904W        W25219  38.827  41.789  10.892
52905W        W25220   3.911  27.118  10.610
52906W        W25221  22.159   2.739   0.457
52907W        W25222  27.542  24.121  12.907
52908W        W25223  34.084  37.469  14.465
52909W        W25224  25.557  23.130   4.792
52910W        W25225  24.555  10.173   4.747
52911W        W25226  30.969  33.036  13.455
52912W        W25227  39.812  22.172   1.843
52913W        W25228  24.114  42.854  12.485
52914W        W25229  44.502   0.263  13.997
52915W        W25230  21.512   6.721  14.446
52916W        W25231   5.359  34.094  13.898
52917W        W25232  14.338  13.744  12.950
52918W        W25233   9.656  16.318  13.413
52919W        W25234  20.232  43.497   4.750
52920W        W25235  25.652  19.215  14.983
52921W        W25236  20.147  19.142  13.347
52922W        W25237  12.274   2.739   0.436
52923W        W25238  33.456  38.544   2.780
52924W        W25239  34.875   8.322  12.032
52925W        W25240  43.343  16.790  10.982
52926W        W25241  34.978  25.113   3.790
52927W        W25242   6.410  42.845  13.816
52928W        W25243   2.755  35.523   0.845
52929W        W25244   6.267  18.190   3.751
52930W        W25245  32.621   5.307   0.413
52931W        W25246  11.751  26.478  11.584
52932W        W25247   7.204  19.589   4.354
52933W        W25248  36.451  25.557  10.897
52934W        W25249  26.542  34.917   3.817
52935W        W25250  26.072  36.058   4.265
52936W        W25251   4.836  18.716   4.760
52937W        W25252  22.118   9.766   3.253
52938W        W25253  12.339  32.624   1.798
52939W        W25254  12.198  20.540   2.221
52940W        W25255  22.073   1.473  13.848
52941W        W25256   3.242   3.260   1.298
52942W        W25257   2.425  29.619   1.332
52943W        W25258  26.091   5.210  10.548
52944W        W25259  27.586  20.066   3.329
52945W        W25260  44.378   9.300  10.034
52946W        W25261   5.724   3.911   1.716
52947W        W25262  17.602  44.436   0.341
52948W        W25263  25.532  28.959   0.483
52949W        W25264  16.572  41.831   1.695
52950W        W25265  41.978   2.257  12.552
52951W        W25266  23.101  41.455   3.267
52952W        W25267   2.472  24.647  12.401
52953W        W25268  31.974  21.624   3.160
52954W        W25269  32.404  29.645  13.489
52955W        W25270  32.931  40.465  13.366
52956W        W25271   3.220  39.502   1.396
52957W        W25272  35.432   2.270   0.326
52958W        W25273   9.368   7.186   0.317
52959W        W25274  36.054  41.323   4.807
52960W        W25275   7.842  37.990   4.273
52961W        W25276  34.077  17.729   1.281
52962W        W25277  33.413   4.752   1.737
52963W        W25278  18.743  34.088  13.797
52964W        W25279  22.651  25.713   0.377
52965W        W25280  39.997  34.083  13.514
52966W        W25281  32.067  37.913  11.885
52967W        W25282  23.098  40.317  13.843
52968W        W25283  13.630  28.506   3.315
52969W        W25284  35.099  31.074  14.288
52970W        W25285  33.617  42.986   1.439
52971W        W25286   2.465   5.927  11.859
52972W        W25287  28.648  31.025   3.289
52973W        W25288  14.588  13.621   2.709
52974W        W25289  43.884  18.180  12.941
52975W        W25290   7.741  15.609   3.305
52976W        W25291  11.173   9.798   0.922
52977W        W25292   8.890  39.818  11.389
52978W        W25293  35.887   1.892  11.455
52979W        W25294  11.354   3.408  11.114
52980W        W25295  44.453   3.275   4.838
52981W        W25296  38.076  21.580  12.366
52982W        W25297   6.308  25.220   1.869
52983W        W25298  27.593  26.550  10.935
52984W        W25299  18.630  27.645   3.192
52985W        W25300  25.982  27.655   2.246
52986W        W25301  25.041  23.577   3.264
52987W        W25302  24.668  42.954  11.542
52988W        W25303  32.411  22.074  14.954
52989W        W25304  40.805  18.151  11.060
52990W        W25305  10.245  11.661  10.529
52991W        W25306  43.924  27.622   0.343
52992W        W25307  39.865  14.614   3.854
52993W        W25308  39.324  36.531  11.435
52994W        W25309  29.434  20.561   0.832
52995W        W25310   3.220   5.889   0.295
52996W        W25311   3.925  43.806  11.895
52997W        W25312  19.699  26.951   4.260
52998W        W25313  33.001  10.735   0.776
52999W        W25314  43.503  38.446   1.243
53000W        W25315  36.576  30.447   2.321
53001W        W25316  26.528   9.235  11.490
53002W        W25317  26.156   3.766  11.485
53003W        W25318  28.628  43.317  10.582
53004W        W25319  13.669   5.727   4.131
53005W        W25320  20.195  44.385   4.598
53006W        W25321  16.217  24.028  11.921
53007W        W25322   3.734  44.296   2.367
53008W        W25323  42.784  12.808   1.328
53009W        W25324  41.333   6.221   4.656
53010W        W25325  33.621   8.279  14.469
53011W        W25326  35.996   2.781   0.423
53012W        W25327   9.644  22.228  12.027
53013W        W25328  19.103   8.304  10.149
53014W        W25329  42.424  39.986   3.673
53015W        W25330  38.332  31.549  11.088
53016W        W25331  31.153  40.413  14.925
53017W        W25332   6.867  24.707   4.686
53018W        W25333  37.359   7.297   0.935
53019W        W25334  30.142  27.972   1.408
53020W        W25335  12.795  25.191   4.186
53021W        W25336   4.414  28.122   0.910
53022W        W25337  11.863  22.040   0.955
53023W        W25338  44.346   6.729  11.977
53024W        W25339   4.235  17.145  10.574
53025W        W25340  20.542  22.095  11.379
53026W        W25341   3.330  35.364  14.897
53027W        W25342   7.399  42.829   0.842
53028W        W25343  40.544  30.544  10.096
53029W        W25344  10.260   2.958   3.724
53030W        W25345  15.235  40.438   4.141
53031W        W25346   9.340  39.340   1.243
53032W        W25347  40.921  37.456  14.365
53033W        W25348  10.781  25.982   0.308
53034W        W25349   7.299  19.731   2.707
53035W        W25350  30.438   9.324   1.241
53036W        W25351   2.253  37.039  14.992
53037W        W25352  31.625  22.734  12.080
53038W        W25353   3.453  34.610   3.844
53039W        W25354  40.504  29.642  13.890
53040W        W25355  20.248  43.913   3.728
53041W        W25356  31.149  38.049   2.231
53042W        W25357  35.576   6.267   4.309
53043W        W25358   3.824  44.843   0.324
53044W        W25359  30.449  34.105  13.532
53045W        W25360   6.256  11.781   2.874
53046W        W25361  29.606  30.930   4.148
53047W        W25362   4.264  22.655  11.425
53048W        W25363  11.303  17.154   4.198
53049W        W25364  28.500   1.872  12.989
53050W        W25365  34.921  26.153   1.397
53051W        W25366  41.487  41.530  10.403
53052W        W25367  43.768  33.576  13.423
53053W        W25368  25.521   0.819  14.385
53054W        W25369  34.372  12.840   2.404
53055W        W25370  22.119  41.973  10.412
53056W        W25371   3.834  19.059  14.915
53057W        W25372  33.073  37.365   0.735
53058W        W25373   4.410  36.383  13.446
53059W        W25374  34.074  43.359   2.716
53060W        W25375  16.612  10.274  14.883
53061W        W25376  26.037  28.672   2.206
53062W        W25377  38.481  14.676   3.669
53063W        W25378   9.815  23.036  12.900
53064W        W25379   5.425  22.614  13.806
53065W        W25380  17.586  40.404  12.543
53066W        W25381  24.535  33.010   0.309
53067W        W25382   3.387   8.819  12.386
53068W        W25383  10.767   3.354  13.391
53069W        W25384  29.524  23.508   4.147
53070W        W25385  20.073  38.528   1.839
53071W        W25386  24.071  31.517   3.824
53072W        W25387  42.398  11.746   1.788
53073W        W25388  13.683  14.694  11.027
53074W        W25389  32.085  33.419  13.910
53075W        W25390  16.753  14.135  14.765
53076W        W25391  36.356   4.740   1.285
53077W        W25392  29.588  31.937   0.415
53078W        W25393  11.144  30.045  12.367
53079W        W25394  40.414   4.259  11.092
53080W        W25395   3.352   6.234   4.156
53081W        W25396  31.412  15.740   3.363
53082W        W25397  15.776  42.383  12.922
53083W        W25398   2.899  33.931  11.517
53084W        W25399  24.488  25.621   2.888
53085W        W25400  29.429  44.956  11.418
53086W        W25401  40.519   5.720   4.305
53087W        W25402  38.399  25.631   5.166
53088W        W25403  16.649   0.472   4.201
53089W        W25404  35.906   3.382  11.383
53090W        W25405   1.246  20.640   2.737
53091W        W25406   5.405  35.938   3.723
53092W        W25407  39.468  35.989  12.976
53093W        W25408  29.655  26.161  11.949
53094W        W25409   3.460  43.966   2.394
53095W        W25410  37.072  18.741  11.002
53096W        W25411  22.053  41.450   2.670
53097W        W25412  32.601  33.018   4.159
53098W        W25413  21.726  13.302  11.378
53099W        W25414   9.725  22.630   2.855
53100W        W25415  25.123  16.304  11.529
53101W        W25416  41.927  11.725   3.226
53102W        W25417  32.138  29.026  13.872
53103W        W25418  27.683   6.716   5.240
53104W        W25419  19.564  38.844  12.454
53105W        W25420   1.910  17.165   4.330
53106W        W25421  22.532   9.763   3.763
53107W        W25422   3.239  12.688   1.353
53108W        W25423  37.465  23.228  13.490
53109W        W25424  38.507  21.573   0.421
53110W        W25425  23.622  13.738   3.284
53111W        W25426  40.414   7.195   4.305
53112W        W25427   4.333  23.527   1.255
53113W        W25428  34.977  21.206   1.263
53114W        W25429   1.849  19.062   2.363
53115W        W25430  21.564  30.523  14.977
53116W        W25431  37.034  24.503   3.700
53117W        W25432   3.821  31.917   4.116
53118W        W25433  21.712  20.686  14.986
53119W        W25434  43.015  27.063  11.113
53120W        W25435   4.738  21.676   2.825
53121W        W25436  17.719   0.361   4.780
53122W        W25437  22.058  40.802   2.774
53123W        W25438  23.037  39.042  12.551
53124W        W25439  32.022  21.523  13.403
53125W        W25440  24.175  15.299   3.350
53126W        W25441  19.715  37.952  14.858
53127W        W25442  40.054  28.942   2.729
53128W        W25443  37.502  24.659   3.729
53129W        W25444  34.599   3.821  13.469
53130W        W25445  40.861  38.543  12.087
53131W        W25446  26.991  43.767  11.035
53132W        W25447  13.287  18.285  12.347
53133W        W25448  29.095   1.376  10.949
53134W        W25449  44.403  42.313  13.009
53135W        W25450  20.651  37.344  13.805
53136W        W25451   6.329  14.180  13.366
53137W        W25452  26.093  38.051  11.882
53138W        W25453  32.490  34.554  14.405
53139W        W25454  10.334  36.864  10.891
53140W        W25455  44.754  37.085   3.364
53141W        W25456  16.779  11.705   0.266
53142W        W25457  36.944  44.994   4.210
53143W        W25458  25.197  44.395  13.045
53144W        W25459  29.426  32.951   1.901
53145W        W25460  44.010  31.113   4.338
53146W        W25461  28.161  22.232  13.423
53147W        W25462   2.815  29.116   0.809
53148W        W25463  27.568  37.552   1.418
53149W        W25464  40.835  30.574   3.837
53150W        W25465  26.103   2.323   2.200
53151W        W25466  10.701   4.884   4.152
53152W        W25467  36.074   8.717  11.057
53153W        W25468  24.055  10.767  13.928
53154W        W25469  11.765   8.671   2.722
53155W        W25470  37.878   4.734  13.913
53156W        W25471  44.345  35.548   2.680
53157W        W25472  13.715   2.943  13.998
53158W        W25473  32.920  40.446   1.265
53159W        W25474  10.794  12.831  13.799
53160W        W25475   5.898   2.275  13.813
53161W        W25476   7.759  22.021  14.837
53162W        W25477  20.699  19.207   1.284
53163W        W25478   5.347  15.116  10.537
53164W        W25479  31.617  43.281  11.012
53165W        W25480  36.939   3.938   4.829
53166W        W25481  12.766   5.715  10.914
53167W        W25482  42.785   3.948  11.532
53168W        W25483   7.205  13.666   0.909
53169W        W25484  35.881  24.692  14.854
53170W        W25485  16.248  16.190   3.851
53171W        W25486  41.849   2.927   0.341
53172W        W25487  21.163  27.052   0.413
53173W        W25488  38.530   3.934   2.392
53174W        W25489  31.022   1.280   3.320
53175W        W25490  38.435  39.874  13.966
53176W        W25491  17.078  23.219   1.757
53177W        W25492  26.470  28.938  13.952
53178W        W25493  19.109  15.245  12.020
53179W        W25494  24.217  26.508  14.777
53180W        W25495  37.563  32.886  14.391
53181W        W25496  15.322  40.498  14.400
53182W        W25497   6.704  23.127   2.880
53183W        W25498   4.918  34.527  13.491
53184W        W25499   9.275  33.558   0.268
53185W        W25500   7.199   1.417  14.798
53186W        W25501  22.505  19.632  13.006
53187W        W25502  23.191  32.413  11.860
53188W        W25503  32.985   9.332   2.361
53189W        W25504  23.083  31.152  14.898
53190W        W25505  39.402  28.521  10.970
53191W        W25506   5.193   4.761   0.246
53192W        W25507  29.536  32.531   3.226
53193W        W25508  28.635  43.354  14.341
53194W        W25509   5.747  35.423  13.388
53195W        W25510  21.145  36.509   3.287
53196W        W25511  26.992   4.821  14.322
53197W        W25512  35.072   5.914   2.741
53198W        W25513   1.306  31.514   2.666
53199W        W25514  23.538  14.759  11.884
53200W        W25515  40.818   2.944   1.230
53201W        W25516  24.171  10.247   5.307
53202W        W25517  19.235  43.839   4.167
53203W        W25518  44.357  29.566   0.823
53204W        W25519   0.398  20.632   4.303
53205W        W25520   5.299  17.686   0.792
53206W        W25521  41.448   7.810   4.176
53207W        W25522  38.980  42.021   0.752
53208W        W25523   8.319  39.845   3.788
53209W        W25524  10.826  34.928   4.601
53210W        W25525  34.499  18.639  10.433
53211W        W25526  14.699  42.930   2.257
53212W        W25527  35.083  11.165   4.220
53213W        W25528  34.562  32.002   0.746
53214W        W25529   4.294  10.328  14.871
53215W        W25530  19.683   6.191  10.582
53216W        W25531  39.841  33.585   4.128
53217W        W25532  20.599  38.496   2.386
53218W        W25533  41.001  11.792   0.874
53219W        W25534  16.648  21.065   2.664
53220W        W25535   0.929  43.769  11.403
53221W        W25536   5.715   3.914  13.410
53222W        W25537  16.097  11.858  13.505
53223W        W25538  37.361  28.671   3.796
53224W        W25539  28.647  20.127   0.926
53225W        W25540  26.469  24.043   0.343
53226W        W25541   8.882  31.556  13.387
53227W        W25542   2.758  22.995  10.406
53228W        W25543  11.718  34.920  12.348
53229W        W25544  39.013   0.953  10.625
53230W        W25545  22.731   5.220   1.402
53231W        W25546  36.009   4.916  11.498
53232W        W25547  21.660  10.646   1.905
53233W        W25548  32.916  15.208  10.451
53234W        W25549  19.076  28.620   1.360
53235W        W25550   7.880  38.399   2.669
53236W        W25551  21.021  36.402  12.942
53237W        W25552  14.149  38.976   2.328
53238W        W25553  33.402  31.627  14.930
53239W        W25554  11.701  20.221  11.385
53240W        W25555  12.159  35.023  12.494
53241W        W25556  37.536   6.712  12.041
53242W        W25557  27.093  36.531  10.478
53243W        W25558  41.817  36.558  10.493
53244W        W25559   4.844  17.690   5.256
53245W        W25560   3.711  42.496   0.788
53246W        W25561  36.485  28.176   2.196
53247W        W25562   6.780  44.919  12.014
53248W        W25563  27.977  20.264  10.592
53249W        W25564  38.917  39.814  12.006
53250W        W25565  15.129  14.199  10.488
53251W        W25566  29.568   9.205  13.041
53252W        W25567   2.760  25.551  12.410
53253W        W25568  16.569  44.428   0.246
53254W        W25569  18.285  23.685   1.754
53255W        W25570  28.485  40.812   3.808
53256W        W25571  21.748   9.815  13.421
53257W        W25572  20.241  18.624   4.603
53258W        W25573  39.387  37.537   0.843
53259W        W25574  36.090  10.707   1.316
53260W        W25575  22.697  33.005  11.864
53261W        W25576   4.755   9.219  14.458
53262W        W25577   0.871  39.998   2.839
53263W        W25578   0.810  10.229   1.301
53264W        W25579  44.937  24.521   1.450
53265W        W25580  33.460  11.638   2.777
53266W        W25581  29.937  27.448   2.697
53267W        W25582  16.179  26.083   0.260
53268W        W25583  24.721   0.935  12.078
53269W        W25584  14.759  17.293   1.223
53270W        W25585   9.273  22.558   4.837
53271W        W25586   9.236  33.623   2.371
53272W        W25587  21.178  24.703  10.919
53273W        W25588  41.862  13.787  11.548
53274W        W25589   7.216  39.403   1.301
53275W        W25590  43.485  26.700  11.014
53276W        W25591  28.441  35.042  12.028
53277W        W25592  26.149   1.403  11.382
53278W        W25593  17.097  38.396  14.494
53279W        W25594   2.283   6.697   0.272
53280W        W25595  16.240  12.767  12.511
53281W        W25596  21.161   9.682  12.976
53282W        W25597  14.184  34.116  14.436
53283W        W25598  18.668  32.900  14.446
53284W        W25599  15.121   4.900  13.829
53285W        W25600  41.361   1.817   1.698
53286W        W25601  13.801  10.680   3.791
53287W        W25602  38.501   5.436  10.636
53288W        W25603  35.594   7.720   4.177
53289W        W25604  17.267  23.036   3.167
53290W        W25605   6.782  12.157  12.343
53291W        W25606  25.974  11.335   3.268
53292W        W25607  37.976  40.817   0.353
53293W        W25608  17.740   4.415   4.819
53294W        W25609  22.700  33.495   9.934
53295W        W25610   5.261   2.741   2.216
53296W        W25611   5.729  40.991  14.281
53297W        W25612  36.897  42.446  11.529
53298W        W25613  22.640  37.356   1.883
53299W        W25614   9.787  33.426   2.785
53300W        W25615  11.260   1.860  13.920
53301W        W25616  40.976  40.417  11.462
53302W        W25617  33.530   6.746   5.235
53303W        W25618  14.217  12.844  11.005
53304W        W25619  22.244  13.270  14.860
53305W        W25620   7.406   1.865  13.406
53306W        W25621  33.981  38.907   1.862
53307W        W25622   1.347  23.663  11.411
53308W        W25623  14.124  33.459   3.676
53309W        W25624  10.244  17.742  13.919
53310W        W25625  36.054  11.238  14.497
53311W        W25626  28.474  26.024   0.846
53312W        W25627  17.797  23.630   3.714
53313W        W25628   9.657  13.728   2.369
53314W        W25629  37.913  18.128  10.044
53315W        W25630  18.637  36.082  13.492
53316W        W25631  22.244  27.009  11.083
53317W        W25632  23.049  12.647  14.370
53318W        W25633  37.387  22.581   2.693
53319W        W25634  41.523  17.765   0.378
53320W        W25635  12.280  14.252  11.910
53321W        W25636   7.209  36.523  10.914
53322W        W25637   4.823  18.237  13.332
53323W        W25638  36.916  39.853   4.656
53324W        W25639  26.616  40.531  12.906
53325W        W25640  19.729  30.961   1.258
53326W        W25641   1.390  35.075  10.621
53327W        W25642  10.702  12.355   4.269
53328W        W25643  23.589  28.533   0.913
53329W        W25644  23.044  38.978  14.303
53330W        W25645   8.260  25.709   2.693
53331W        W25646  24.721   4.783  11.030
53332W        W25647  14.834  44.855   4.238
53333W        W25648  39.459  12.130  10.892
53334W        W25649   9.203  30.456  11.942
53335W        W25650  28.557  23.044   1.228
53336W        W25651  38.048  25.584  13.521
53337W        W25652   8.841  11.698   2.342
53338W        W25653  29.588   0.346   4.649
53339W        W25654   0.420  36.942   9.979
53340W        W25655  13.834  14.307  13.884
53341W        W25656   4.919  17.791  13.835
53342W        W25657  28.933  30.988  11.941
53343W        W25658  36.556  37.470  14.824
53344W        W25659  25.045  39.845  11.608
53345W        W25660  10.840  35.460  14.489
53346W        W25661  20.238  24.557   1.419
53347W        W25662  42.813   6.407   2.791
53348W        W25663   6.337  21.096   5.285
53349W        W25664  32.895  38.943  12.412
53350W        W25665  30.912  17.261  11.860
53351W        W25666  40.957  37.084   1.223
53352W        W25667  16.304   6.809  11.079
53353W        W25668  13.801  33.930   3.791
53354W        W25669  28.606  26.703   0.445
53355W        W25670  11.653  34.087  14.948
53356W        W25671  16.667   9.348  13.824
53357W        W25672  18.559   3.230   4.624
53358W        W25673  35.553   3.411  13.854
53359W        W25674   6.309  19.092  11.943
53360W        W25675  29.496  42.951  12.546
53361W        W25676  37.934  30.001  10.621
53362W        W25677  40.982  38.368   0.480
53363W        W25678  28.948  38.365   2.370
53364W        W25679  10.767  19.048   4.635
53365W        W25680  32.538  18.128  11.434
53366W        W25681   9.845  35.034   1.232
53367W        W25682  11.158  35.505  14.845
53368W        W25683  37.831  33.491   1.740
53369W        W25684  18.789   1.246  14.858
53370W        W25685  37.411  31.054  11.023
53371W        W25686   4.806  27.602   1.245
53372W        W25687  14.737  42.792  13.526
53373W        W25688  18.697  38.439   5.179
53374W        W25689  36.409  36.367   1.776
53375W        W25690  26.161   2.846  14.403
53376W        W25691  17.112  28.064   4.317
53377W        W25692  39.814  19.160   2.374
53378W        W25693  30.435  30.091  11.506
53379W        W25694   7.847  12.735   0.457
53380W        W25695  23.195  28.628  13.412
53381W        W25696  34.112  16.305   2.870
53382W        W25697  22.006   0.961   3.307
53383W        W25698  23.223  36.853   4.162
53384W        W25699   6.386  21.638   0.823
53385W        W25700   3.921  10.312   3.267
53386W        W25701  40.038  20.606   1.220
53387W        W25702  14.296  24.560  14.424
53388W        W25703   8.335   1.743  13.042
53389W        W25704  14.654  12.323   1.825
53390W        W25705  20.762  18.136  14.439
53391W        W25706  37.443  32.056  14.885
53392W        W25707  21.682   3.342   3.777
53393W        W25708  27.947   5.761  14.479
53394W        W25709  23.637   6.747  12.471
53395W        W25710  25.578  42.891  10.042
53396W        W25711  16.223  23.092  12.895
53397W        W25712  16.803   3.851   3.796
53398W        W25713  14.278   8.838   3.748
53399W        W25714  16.162  36.403  11.432
53400W        W25715  33.118  29.085   1.377
53401W        W25716  29.514  32.625  12.892
53402W        W25717  25.651   6.902  14.959
53403W        W25718   4.870  18.211  12.086
53404W        W25719  31.953  27.473   2.743
53405W        W25720  25.178   8.264   2.689
53406W        W25721   5.268  23.506  12.893
53407W        W25722  14.328  34.878   0.446
53408W        W25723  13.648  42.410   3.242
53409W        W25724   3.842  14.780   2.393
53410W        W25725  27.139  20.127  11.038
53411W        W25726  10.833   1.912  10.493
53412W        W25727   8.258  22.087   2.740
53413W        W25728  30.047   2.911  11.094
53414W        W25729  26.579  16.290  14.430
53415W        W25730  11.195  28.109  11.922
53416W        W25731  23.030   1.966   2.229
53417W        W25732  44.768  35.437   4.299
53418W        W25733  14.723   0.338  14.970
53419W        W25734  29.978  44.788  14.771
53420W        W25735  20.068  23.110   1.236
53421W        W25736  41.475  15.682   1.353
53422W        W25737  19.065  13.286   1.341
53423W        W25738  36.397  32.087   4.782
53424W        W25739  38.915  17.256  12.352
53425W        W25740  42.501  11.739   0.311
53426W        W25741   1.751   8.816  13.509
53427W        W25742  10.270  44.323   5.137
53428W        W25743  23.651  23.668  14.450
53429W        W25744  22.096  33.995   2.238
53430W        W25745  14.753  38.493   3.239
53431W        W25746  19.147  22.232  12.343
53432W        W25747   9.696  39.349  13.485
53433W        W25748  33.521  18.200   1.819
53434W        W25749   7.775   9.858   0.778
53435W        W25750  11.247   2.738  12.918
53436W        W25751  32.612   1.741  14.359
53437W        W25752   3.812  13.747   0.447
53438W        W25753  13.694   9.848   0.345
53439W        W25754  14.788   0.436  13.398
53440W        W25755  36.955   6.722   1.335
53441W        W25756   2.367  16.765   2.789
53442W        W25757  28.016   4.766   4.175
53443W        W25758   5.740  21.663  11.580
53444W        W25759   0.928  20.186   0.845
53445W        W25760  24.624  39.342  13.814
53446W        W25761  33.975   8.210  14.815
53447W        W25762  20.105  16.702   4.354
53448W        W25763  17.241  34.954  13.807
53449W        W25764  37.420   4.338   1.297
53450W        W25765  42.959  16.626  10.536
53451W        W25766   9.841  23.193  10.490
53452W        W25767  41.514  30.052  12.524
53453W        W25768  11.341  42.822  12.070
53454W        W25769  11.839   8.731   9.945
53455W        W25770  36.533  31.104  11.984
53456W        W25771  38.429  33.950  12.967
53457W        W25772  41.434  24.530   1.281
53458W        W25773  19.135   3.892   0.362
53459W        W25774   3.915   4.356  14.486
53460W        W25775   3.894  15.179  14.418
53461W        W25776  15.636  40.797  11.524
53462W        W25777  26.007   2.390   1.722
53463W        W25778  41.951  41.390   3.653
53464W        W25779   0.373  10.738  14.330
53465W        W25780  32.900  16.813  13.914
53466W        W25781  11.855  27.193   1.935
53467W        W25782  17.768  11.855   0.257
53468W        W25783  38.013  20.711  13.971
53469W        W25784   7.713  23.991  13.009
53470W        W25785   3.768   5.748   3.222
53471W        W25786  18.548  14.272   1.294
53472W        W25787  11.811  40.465   4.620
53473W        W25788  15.142  15.732  12.950
53474W        W25789  29.621  21.207   1.925
53475W        W25790  35.560  31.484  11.867
53476W        W25791  21.740  35.477  11.396
53477W        W25792  17.590  12.749   3.380
53478W        W25793   6.409   2.820  14.855
53479W        W25794  24.724  30.647   3.822
53480W        W25795   1.824   6.827   0.463
53481W        W25796  20.755  21.660  11.452
53482W        W25797   0.821  28.140  11.111
53483W        W25798  12.317   5.820  11.606
53484W        W25799  10.829  42.873   3.843
53485W        W25800  15.250  10.802   1.438
53486W        W25801  44.324  36.513  14.466
53487W        W25802  21.556  38.519   3.212
53488W        W25803  17.638  35.949  12.483
53489W        W25804  40.302  11.234   3.283
53490W        W25805  29.505  34.919   4.604
53491W        W25806  43.333  10.810  14.443
53492W        W25807  12.778   2.311  13.848
53493W        W25808  29.523   0.269   0.758
53494W        W25809  30.929  27.602  11.959
53495W        W25810  27.191  19.710  10.893
53496W        W25811  36.001  13.160   0.825
53497W        W25812  11.246   0.463  14.366
53498W        W25813   2.425   6.209  12.012
53499W        W25814  27.138  15.765   4.828
53500W        W25815  43.316  28.032   2.776
53501W        W25816  19.536  33.124  13.868
53502W        W25817  10.867  13.155   4.752
53503W        W25818   6.726   0.260  12.901
53504W        W25819  23.673  11.164  14.930
53505W        W25820  40.868  23.606   2.294
53506W        W25821  37.024   6.326  11.408
53507W        W25822  39.890  43.925   0.782
53508W        W25823  29.614  30.124  13.454
53509W        W25824  25.567   9.263   2.742
53510W        W25825  20.175   7.293  12.089
53511W        W25826  21.590  40.972   2.331
53512W        W25827  43.870  23.506   3.267
53513W        W25828  31.530  33.043   3.849
53514W        W25829   1.333  39.981   1.882
53515W        W25830  31.498   4.353  14.813
53516W        W25831  25.608  36.010  12.917
53517W        W25832  37.922  36.029  14.912
53518W        W25833  40.036  26.476  13.828
53519W        W25834  26.161   3.364   2.877
53520W        W25835  37.336  19.118   3.176
53521W        W25836  28.563   0.270  11.093
53522W        W25837  41.503  25.161  14.402
53523W        W25838  26.146   2.804  11.062
53524W        W25839   2.767  13.833   0.788
53525W        W25840   2.256  44.923  10.948
53526W        W25841  36.354  32.929   1.797
53527W        W25842  12.685  24.063   3.379
53528W        W25843   5.315  37.831  11.520
53529W        W25844  10.789  25.705   3.232
53530W        W25845  15.217  39.871   2.699
53531W        W25846  25.523  18.613   3.188
53532W        W25847  37.972  28.651   3.204
53533W        W25848  28.678  39.838   2.296
53534W        W25849  42.341  29.143  10.459
53535W        W25850  41.336  14.256   1.925
53536W        W25851  22.665  32.404  13.400
53537W        W25852  18.215  10.261   1.330
53538W        W25853  42.327  17.757  14.921
53539W        W25854  36.573   0.947  12.417
53540W        W25855   6.394   2.348   3.867
53541W        W25856  42.869   5.808  11.400
53542W        W25857  36.418  42.836  13.794
53543W        W25858   1.790  43.846  12.932
53544W        W25859  28.618  26.984  13.004
53545W        W25860   7.387  30.467   1.309
53546W        W25861   5.303  19.141   4.614
53547W        W25862  13.631  23.634   1.346
53548W        W25863   2.904  18.546  11.508
53549W        W25864  18.777  36.438   1.291
53550W        W25865  16.608  41.933  14.981
53551W        W25866  25.625  36.363  13.426
53552W        W25867  15.755  34.592  10.593
53553W        W25868   2.962  36.440   4.202
53554W        W25869  28.585  25.128   0.893
53555W        W25870   8.187  19.061   2.281
53556W        W25871  31.563  29.974   1.247
53557W        W25872  24.024  22.229  10.452
53558W        W25873  40.998  28.096  12.559
53559W        W25874  17.772  19.054  13.342
53560W        W25875  44.439  20.242  12.572
53561W        W25876  21.603  16.290   0.429
53562W        W25877  30.651  28.475   4.245
53563W        W25878  21.078  35.452   3.349
53564W        W25879  13.266   5.746   3.229
53565W        W25880  40.486   6.356   5.243
53566W        W25881  12.300  33.894   2.863
53567W        W25882  24.121   9.679  13.337
53568W        W25883  18.772   0.830  13.478
53569W        W25884  44.479  16.749  14.311
53570W        W25885  14.246   7.206  10.484
53571W        W25886  33.437   5.851   1.908
53572W        W25887  26.499  27.508   3.258
53573W        W25888  34.004  26.493   0.813
53574W        W25889   5.726  12.359   2.188
53575W        W25890  32.600  43.882  13.872
53576W        W25891  30.051   5.217  14.475
53577W        W25892  22.723   6.849   1.842
53578W        W25893  39.939  40.002  12.995
53579W        W25894  31.544  26.543  10.438
53580W        W25895  18.550  18.768  10.578
53581W        W25896  30.101  27.985   0.297
53582W        W25897   4.747   7.846  10.966
53583W        W25898  10.758  13.262   0.961
53584W        W25899  34.014  26.535  13.433
53585W        W25900  18.607  12.612   0.287
53586W        W25901  24.090  20.759   1.286
53587W        W25902  22.101  21.026  14.482
53588W        W25903  36.959  41.012   4.650
53589W        W25904  37.083  19.653  13.834
53590W        W25905  19.197  27.647   4.159
53591W        W25906  15.085  23.735  11.977
53592W        W25907  16.662  13.316   0.729
53593W        W25908  37.384  10.301  11.002
53594W        W25909  19.239   4.898   4.121
53595W        W25910   4.260  42.461   1.709
53596W        W25911  18.114   2.745   1.361
53597W        W25912   6.688  30.601   2.385
53598W        W25913  21.112  25.567  11.936
53599W        W25914  41.937  14.785   4.154
53600W        W25915  25.001  10.170  10.644
53601W        W25916  15.662   8.845   4.221
53602W        W25917   4.842  32.407   1.403
53603W        W25918  35.451  11.222  12.531
53604W        W25919   8.354  26.044  12.884
53605W        W25920  37.398  30.117   1.438
53606W        W25921  37.064  20.106  10.487
53607W        W25922  13.238  29.654   1.427
53608W        W25923   6.184   8.888   5.217
53609W        W25924  16.746  25.114   3.257
53610W        W25925  25.187  38.066   2.339
53611W        W25926  28.641   2.412  13.930
53612W        W25927  11.221  21.237   3.376
53613W        W25928  40.021  41.015  12.558
53614W        W25929  28.092  43.419   2.802
53615W        W25930  14.188  32.456   1.219
53616W        W25931  18.554  21.611  12.840
53617W        W25932  26.623  32.999  11.495
53618W        W25933  25.024   8.670  11.464
53619W        W25934  11.794  28.050  14.969
53620W        W25935  27.037   9.323   4.743
53621W        W25936  19.536  43.818  11.018
53622W        W25937  27.677  40.925   1.752
53623W        W25938   2.733  24.503  13.925
53624W        W25939  42.449  39.834   4.177
53625W        W25940  30.435  37.992   2.840
53626W        W25941  31.125  38.412   0.868
53627W        W25942  22.726  38.941   4.748
53628W        W25943  17.130  23.163  11.029
53629W        W25944  28.113  31.624  14.790
53630W        W25945  43.859  40.035  11.076
53631W        W25946  28.643   4.892   0.392
53632W        W25947  16.671  29.608  14.411
53633W        W25948  28.093  38.384  12.422
53634W        W25949  17.162  31.016   2.811
53635W        W25950  13.690  37.402  12.034
53636W        W25951  44.377  24.046   2.187
53637W        W25952  33.417  36.573   2.335
53638W        W25953   8.387  20.636   2.832
53639W        W25954  32.631  14.178  11.122
53640W        W25955  22.519  28.495  13.848
53641W        W25956  13.787  13.323  13.994
53642W        W25957  43.375   7.881  11.392
53643W        W25958  38.053  41.509   3.265
53644W        W25959  37.027  27.548   3.350
53645W        W25960  33.082  34.571  13.380
53646W        W25961   6.377   2.241   0.810
53647W        W25962   1.851  20.638   4.321
53648W        W25963  28.637   6.801   4.613
53649W        W25964   9.159  12.732  13.479
53650W        W25965  34.921  31.533   2.891
53651W        W25966   6.782  32.603  13.854
53652W        W25967  12.726  11.368  14.330
53653W        W25968  11.268  18.091  13.900
53654W        W25969  39.930  26.516   3.227
53655W        W25970  15.711   9.883   0.292
53656W        W25971  41.842  16.626  13.856
53657W        W25972  22.573  35.380   3.155
53658W        W25973  15.121  37.492   1.337
53659W        W25974  44.848  11.306   2.259
53660W        W25975  42.819  17.165   2.816
53661W        W25976  14.670  39.014  14.948
53662W        W25977  20.585  21.143   1.450
53663W        W25978  11.165  43.358   4.790
53664W        W25979  28.138  35.013  14.357
53665W        W25980  13.221   7.190  11.468
53666W        W25981  36.064  16.187  13.380
53667W        W25982  28.084  31.559   2.305
53668W        W25983  11.679  30.035  11.443
53669W        W25984  10.803  29.663   2.348
53670W        W25985  18.225   6.854   2.349
53671W        W25986   1.870  17.578   2.190
53672W        W25987  26.175  40.990  14.837
53673W        W25988  22.091  26.055  12.483
53674W        W25989   1.806  10.635  10.640
53675W        W25990  17.601   2.841  10.898
53676W        W25991   8.828   0.985   2.766
53677W        W25992  31.416  39.055   0.245
53678W        W25993  35.364  32.481  10.961
53679W        W25994   8.241  36.592   1.381
53680W        W25995  39.417   9.849   3.207
53681W        W25996   2.959  25.620   0.255
53682W        W25997  39.824   9.337   1.935
53683W        W25998  18.290  35.456   4.833
53684W        W25999   7.311  37.001   2.864
53685W        W26000  22.675  34.085   4.838
53686W        W26001   8.736  19.620   3.149
53687W        W26002  19.080   5.254   1.710
53688W        W26003  32.890  23.544  14.454
53689W        W26004  26.611   0.355   4.263
53690W        W26005  14.699  26.069  12.040
53691W        W26006  10.160  40.004  12.917
53692W        W26007   4.840   4.292  13.509
53693W        W26008  14.102  36.025   1.912
53694W        W26009  28.505  16.693  14.294
53695W        W26010   7.732   3.299   9.988
53696W        W26011   9.828  39.850  11.882
53697W        W26012   4.728   0.295  12.506
53698W        W26013  29.044  40.315  12.091
53699W        W26014  16.779   9.291  13.397
53700W        W26015  30.134  41.827  11.489
53701W        W26016  40.828  35.036   0.913
53702W        W26017  39.493  19.726   0.437
53703W        W26018  31.438  22.116  13.395
53704W        W26019   1.241  43.472  10.997
53705W        W26020   3.710   1.463   1.772
53706W        W26021  15.272   1.830  14.464
53707W        W26022   2.413   3.889   3.629
53708W        W26023  30.996  21.640   1.764
53709W        W26024  26.613   1.736  12.564
53710W        W26025  41.792   5.894   0.416
53711W        W26026  27.954  15.657   2.226
53712W        W26027  33.425  14.098  12.033
53713W        W26028  33.414  13.183  13.794
53714W        W26029  23.050   0.281  13.058
53715W        W26030  25.060   5.794   4.608
53716W        W26031  41.961   3.262  11.514
53717W        W26032  18.700  16.704   0.833
53718W        W26033  36.943   8.814   3.837
53719W        W26034   2.450  22.999   2.317
53720W        W26035  35.941  17.081   1.249
53721W        W26036  27.661   5.749  14.943
53722W        W26037  21.145  27.963  11.481
53723W        W26038  42.453  15.661   2.751
53724W        W26039  11.142  13.152  10.905
53725W        W26040  31.522  28.521   3.664
53726W        W26041   0.961  40.383  13.547
53727W        W26042  43.298   5.429   4.739
53728W        W26043  18.615  44.310  11.466
53729W        W26044  12.232   7.858   1.755
53730W        W26045  39.917   5.693   1.449
53731W        W26046  11.244  38.336   3.217
53732W        W26047  34.113  34.610  13.963
53733W        W26048  17.799   9.280   4.133
53734W        W26049  21.259  13.343   1.317
53735W        W26050  44.799   5.256  13.409
53736W        W26051   3.399  25.702   1.425
53737W        W26052   0.778  26.501  12.984
53738W        W26053  23.181  17.736   1.408
53739W        W26054  40.814  20.573   2.243
53740W        W26055  32.131  37.902  13.399
53741W        W26056  21.512  15.742  13.905
53742W        W26057   3.287   6.693   0.963
53743W        W26058   4.267   0.272  14.505
53744W        W26059  44.426  10.228   4.732
53745W        W26060  13.737   3.423   2.237
53746W        W26061   8.873  13.178   0.944
53747W        W26062  21.106  22.222   3.862
53748W        W26063  39.892  32.622  14.403
53749W        W26064  40.421  31.582  12.466
53750W        W26065  30.642  20.272  13.468
53751W        W26066  33.589  36.428   2.694
53752W        W26067  20.159  43.494  11.090
53753W        W26068   5.396  30.631  12.478
53754W        W26069  37.406  26.676   1.449
53755W        W26070   4.821  26.700   2.213
53756W        W26071  26.197  33.507  12.052
53757W        W26072  42.425   9.301   1.765
53758W        W26073  24.507   7.726  14.499
53759W        W26074   8.306  22.690  12.947
53760W        W26075  13.828   3.424  14.837
53761W        W26076  37.403  20.756   4.129
53762W        W26077  18.115   8.252   0.460
53763W        W26078  36.496   1.280   1.817
53764W        W26079  28.976  30.440  12.505
53765W        W26080  41.445   2.849  12.915
53766W        W26081   8.314  11.646   4.656
53767W        W26082  13.258  11.136   0.843
53768W        W26083  18.079  19.206  12.400
53769W        W26084   7.753  23.734   3.316
53770W        W26085  34.391  36.998   3.746
53771W        W26086  17.762   7.414   3.804
53772W        W26087  38.407  17.223  10.476
53773W        W26088  25.175  37.341   1.216
53774W        W26089   2.917  26.184  13.840
53775W        W26090  15.191   2.252   1.310
53776W        W26091   5.200  40.025  14.926
53777W        W26092  14.666  26.496   5.099
53778W        W26093   3.824   4.707   1.878
53779W        W26094  23.657   8.662   2.397
53780W        W26095  23.185  35.453   0.951
53781W        W26096  30.080  29.172  14.483
53782W        W26097  41.364   0.839   2.308
53783W        W26098  20.534  27.058  11.414
53784W        W26099  12.639   9.259  14.940
53785W        W26100   0.750  26.010   1.384
53786W        W26101  40.805  17.142   2.713
53787W        W26102   0.760   4.336  11.108
53788W        W26103  36.530   8.317   2.236
53789W        W26104  14.246  41.433  12.530
53790W        W26105  29.534   2.228  14.428
53791W        W26106  24.034   8.235   0.276
53792W        W26107  33.538  38.952  14.365
53793W        W26108  43.782  26.479  11.057
53794W        W26109  31.090  37.367  10.921
53795W        W26110   9.876  30.443  13.024
53796W        W26111  37.395  32.590  11.878
53797W        W26112  13.754  17.659  13.860
53798W        W26113  21.098   6.733   0.898
53799W        W26114  18.223  10.367   2.307
53800W        W26115  30.475   5.256  11.944
53801W        W26116  37.567  30.160  12.875
53802W        W26117   1.336  36.545  14.791
53803W        W26118  17.702  17.237  14.334
53804W        W26119  14.709  33.914  10.567
53805W        W26120  33.044  43.765   1.447
53806W        W26121   8.398   5.262   1.301
53807W        W26122  29.982  40.520  13.792
53808W        W26123  36.903  33.132  11.023
53809W        W26124  37.049  27.546   1.308
53810W        W26125  32.001  13.800  13.403
53811W        W26126  22.601  28.087   3.368
53812W        W26127  26.618  38.982  13.000
53813W        W26128   4.418  27.601   1.775
53814W        W26129  13.831  35.937   3.259
53815W        W26130  14.309  12.341   1.701
53816W        W26131   2.414  17.785  14.770
53817W        W26132  43.846  24.089  14.330
53818W        W26133  15.619  29.150  13.438
53819W        W26134  26.039   9.809  11.487
53820W        W26135  35.910   4.258  11.007
53821W        W26136  20.134  42.870   4.810
53822W        W26137  37.051   4.361   1.727
53823W        W26138  39.440  21.172   1.222
53824W        W26139  33.042  30.118  14.951
53825W        W26140  17.271  31.518   3.285
53826W        W26141   1.291  34.374  11.553
53827W        W26142  13.661   1.800  10.626
53828W        W26143  42.987  22.144   4.774
53829W        W26144  31.148  14.753   0.875
53830W        W26145  28.608   5.786  14.815
53831W        W26146  25.550  28.995  11.014
53832W        W26147   9.653   0.420  13.316
53833W        W26148  15.810  27.581   4.138
53834W        W26149  42.516  31.526   2.294
53835W        W26150  32.985  34.865   2.242
53836W        W26151  35.492  25.036  14.322
53837W        W26152  10.138  31.120  12.940
53838W        W26153  36.532  38.438   4.691
53839W        W26154  27.531  25.014   0.297
53840W        W26155  35.891  28.178   0.243
53841W        W26156   7.680   3.776  11.094
53842W        W26157  40.418   9.725   4.807
53843W        W26158   1.770  11.225   9.994
53844W        W26159  18.271  30.442  13.513
53845W        W26160  42.884  39.065   4.137
53846W        W26161  37.846   8.284   0.848
53847W        W26162   5.901  33.619   4.252
53848W        W26163  32.976  28.177  10.943
53849W        W26164  40.391  24.064   2.286
53850W        W26165   2.834  14.129  13.430
53851W        W26166  15.172  29.122   4.720
53852W        W26167   7.756  14.335   0.910
53853W        W26168  20.082  11.741  11.952
53854W        W26169  18.082  35.376  14.857
53855W        W26170  26.088  13.599   1.292
53856W        W26171  11.797  39.953  11.984
53857W        W26172   9.379  19.779   2.274
53858W        W26173  35.956  25.507  11.408
53859W        W26174  40.352  38.844  14.902
53860W        W26175  12.687  37.916  14.374
53861W        W26176  11.144  22.136  14.915
53862W        W26177  34.531  42.969   2.418
53863W        W26178   5.728   7.317  14.286
53864W        W26179  25.490  18.679   4.608
53865W        W26180  27.164  35.861   1.935
53866W        W26181  25.658  20.052   3.684
53867W        W26182   3.297  40.797  14.286
53868W        W26183  21.099  39.318  10.462
53869W        W26184   0.882  23.650   1.260
53870W        W26185  38.337  14.667   1.716
53871W        W26186  16.157  32.078   3.172
53872W        W26187   0.350  10.784  13.497
53873W        W26188  24.197   1.847   1.815
53874W        W26189  38.863  15.128  11.941
53875W        W26190   0.898  26.604   4.185
53876W        W26191   7.910   6.323   3.174
53877W        W26192   5.327  27.160   0.837
53878W        W26193  18.126  33.590  12.381
53879W        W26194   7.389  14.171   0.437
53880W        W26195  31.082  13.325  13.370
53881W        W26196  18.143  42.847  12.078
53882W        W26197  23.693  25.545  11.084
53883W        W26198   6.277  11.855  11.462
53884W        W26199   9.704   4.824   0.465
53885W        W26200  38.496  29.930  13.330
53886W        W26201  37.987  29.571   0.313
53887W        W26202  15.097   6.418  13.055
53888W        W26203  42.492   0.829   1.728
53889W        W26204  36.989  21.162   1.354
53890W        W26205  19.079  37.448   1.449
53891W        W26206  21.573   8.775   0.379
53892W        W26207   6.292  14.245  11.376
53893W        W26208  31.532  16.583  11.379
53894W        W26209  13.606  31.448   4.815
53895W        W26210  21.729  17.245   2.279
53896W        W26211   2.930  38.020   0.246
53897W        W26212   6.919  38.927   2.399
53898W        W26213  16.569  11.858   1.360
53899W        W26214  21.522  31.904   2.744
53900W        W26215  32.479  27.162   3.741
53901W        W26216  44.380  38.407   0.896
53902W        W26217  42.895  34.513   4.821
53903W        W26218  36.402   8.204  11.127
53904W        W26219  37.906  38.379  12.021
53905W        W26220  41.786   9.777   2.901
53906W        W26221   7.395  39.327  12.576
53907W        W26222  32.486  36.574   2.803
53908W        W26223  40.523  36.899  13.796
53909W        W26224  20.190  40.404  13.357
53910W        W26225  36.507  42.917  12.424
53911W        W26226  11.339  13.207   3.775
53912W        W26227  44.327  20.174  14.818
53913W        W26228  34.944  19.636  11.871
53914W        W26229  22.645  34.945  14.972
53915W        W26230   8.227  29.951   4.824
53916W        W26231  28.611  10.192   4.213
53917W        W26232  35.957  32.128   0.295
53918W        W26233  38.503  28.469  12.064
53919W        W26234   1.913  14.114  11.997
53920W        W26235  31.464   0.886   4.654
53921W        W26236  44.872  11.293   3.307
53922W        W26237  42.791  13.659   0.729
53923W        W26238  28.577  16.671  13.538
53924W        W26239  17.140  34.518   3.722
53925W        W26240  20.151  29.503  12.439
53926W        W26241  41.514  33.514  14.307
53927W        W26242  25.218   5.906  10.467
53928W        W26243   7.294  37.461   1.223
53929W        W26244  20.641  26.171  13.513
53930W        W26245  22.079  19.164   0.864
53931W        W26246   4.346  30.152   2.340
53932W        W26247  31.068  41.006  11.542
53933W        W26248  22.502   0.838  13.540
53934W        W26249  18.657  41.396   4.179
53935W        W26250  33.530  34.953   3.796
53936W        W26251  29.942  17.603  12.089
53937W        W26252  40.532  42.871   3.257
53938W        W26253  28.524  17.581  11.094
53939W        W26254  34.416  36.025   2.316
53940W        W26255  26.550  26.633   3.801
53941W        W26256  11.354  38.905   2.885
53942W        W26257  14.139   3.333   3.169
53943W        W26258  33.595  37.537   0.797
53944W        W26259  28.168  14.101   1.928
53945W        W26260  36.957  22.147   3.843
53946W        W26261  30.984  32.558   4.260
53947W        W26262  31.578   7.787  12.073
53948W        W26263   8.376   2.271   2.864
53949W        W26264  25.128  12.794  14.510
53950W        W26265  19.214  33.088  11.564
53951W        W26266  37.578   8.782  13.531
53952W        W26267  43.791  14.307   3.350
53953W        W26268  18.119   1.746  14.840
53954W        W26269  28.951  29.630   4.721
53955W        W26270  27.537  43.850   2.781
53956W        W26271  17.570   4.420  12.396
53957W        W26272  11.667  39.013   2.355
53958W        W26273  10.795   0.926  11.928
53959W        W26274  36.977  38.023   1.703
53960W        W26275  43.402  14.100  14.931
53961W        W26276  41.363  43.941   2.829
53962W        W26277   5.928  15.738   4.328
53963W        W26278  33.568   8.276  10.415
53964W        W26279   9.848   5.273   1.240
53965W        W26280  22.132  21.121   1.420
53966W        W26281  33.890  30.499   5.303
53967W        W26282  12.216  36.571  11.576
53968W        W26283  20.608  41.997   3.679
53969W        W26284  25.072   2.843   0.462
53970W        W26285  17.632   0.355  11.391
53971W        W26286   8.214   0.471  10.531
53972W        W26287  39.446  44.298  10.606
53973W        W26288  41.951  13.676   2.828
53974W        W26289  19.586  33.984   2.414
53975W        W26290  19.085  26.580   1.423
53976W        W26291  27.188  21.239  13.390
53977W        W26292  12.614  26.051   1.835
53978W        W26293  37.518  42.410   2.718
53979W        W26294  18.256   6.863  11.124
53980W        W26295  32.080  29.126  12.503
53981W        W26296  26.468  14.657  10.554
53982W        W26297   5.919  12.310  14.980
53983W        W26298  10.176  29.047   4.332
53984W        W26299   9.338  44.352   0.768
53985W        W26300   0.845  31.455  12.422
53986W        W26301  17.101   9.365   5.660
53987W        W26302  19.226  43.489  11.592
53988W        W26303  11.355  23.092  13.438
53989W        W26304   0.430  43.480   4.796
53990W        W26305  44.953  36.447  12.548
53991W        W26306   2.331   7.714  11.388
53992W        W26307   5.394   5.835   4.299
53993W        W26308   3.923   0.778   4.140
53994W        W26309   7.390  33.452  14.958
53995W        W26310   9.654  18.586   1.849
53996W        W26311   0.743  42.427  12.396
53997W        W26312  26.697   2.364   1.768
53998W        W26313  43.957  35.015  10.062
53999W        W26314   8.202  10.711  14.902
54000W        W26315   1.902  29.530   1.745
54001W        W26316  44.376  31.565  11.456
54002W        W26317  35.407  36.063   1.877
54003W        W26318   2.792   0.310   3.652
54004W        W26319   1.348  42.864   0.862
54005W        W26320   5.357  37.892   1.700
54006W        W26321  25.658  30.961   1.697
54007W        W26322  25.470  26.588   2.349
54008W        W26323   6.257  33.920  12.896
54009W        W26324  16.635  25.630  10.534
54010W        W26325  39.439  16.668   1.735
54011W        W26326  34.936  35.901   1.406
54012W        W26327   2.915   7.307   3.152
54013W        W26328  42.932   0.789   0.247
54014W        W26329  30.611  27.470   2.277
54015W        W26330  34.502  19.054   4.261
54016W        W26331   6.750  28.638  10.452
54017W        W26332  27.101   4.262   3.379
54018W        W26333   9.690  13.314  11.027
54019W        W26334  39.878  25.044  14.280
54020W        W26335  18.169  23.009   4.719
54021W        W26336   7.850  36.008   1.364
54022W        W26337  12.827  43.021   2.699
54023W        W26338   0.982  41.797  10.510
54024W        W26339  21.161   6.315   3.195
54025W        W26340  29.132  24.152  14.300
54026W        W26341  38.467  14.731   3.146
54027W        W26342  32.973   9.661   3.651
54028W        W26343  38.984  41.841   2.380
54029W        W26344  14.197  32.530  13.883
54030W        W26345  26.468  24.694   4.343
54031W        W26346  28.063  40.801   4.147
54032W        W26347  20.527  30.911   2.346
54033W        W26348  35.099  34.550   3.652
54034W        W26349  18.741   7.387   3.261
54035W        W26350   5.359  30.580  12.016
54036W        W26351   5.914  10.798   2.362
54037W        W26352  17.184  19.265   2.686
54038W        W26353  41.509  20.059  14.781
54039W        W26354   3.871  33.454   2.791
54040W        W26355  19.672  23.570   3.841
54041W        W26356  32.125  28.550  11.512
54042W        W26357  23.122  14.125  11.926
54043W        W26358   1.462   2.856  14.311
54044W        W26359  21.697  33.382  14.869
54045W        W26360   2.265  22.519   1.406
54046W        W26361   5.276  44.442  11.580
54047W        W26362  30.097  35.490   4.285
54048W        W26363  40.491  30.093  12.497
54049W        W26364  20.600  35.533   0.392
54050W        W26365  34.494   9.374   2.661
54051W        W26366  33.923  14.316  11.004
54052W        W26367  14.208  43.845  12.547
54053W        W26368  38.370  37.018   0.932
54054W        W26369   8.297  25.567  13.902
54055W        W26370  25.119  40.046  14.923
54056W        W26371  30.059  32.935   3.283
54057W        W26372  22.036  23.708  13.471
54058W        W26373  42.430  33.554  10.593
54059W        W26374  16.720  38.467   0.752
54060W        W26375  35.988  42.807  10.905
54061W        W26376  15.732  11.804  14.973
54062W        W26377  31.941   1.886   1.442
54063W        W26378  13.641  33.531   1.422
54064W        W26379  12.210  24.725  13.059
54065W        W26380   9.287  38.990  12.837
54066W        W26381  39.898  14.797  13.842
54067W        W26382  25.170  22.134  12.075
54068W        W26383   5.283  37.545  14.452
54069W        W26384  25.538  36.082   4.131
54070W        W26385  25.631   0.354   2.260
54071W        W26386  15.151   9.331   1.875
54072W        W26387  26.979  19.538   2.701
54073W        W26388  23.140  42.861   0.735
54074W        W26389   8.257  37.963   2.673
54075W        W26390  26.009   5.232   0.948
54076W        W26391  21.756   1.406  14.345
54077W        W26392  29.630  38.858  11.550
54078W        W26393  25.649   0.362  12.873
54079W        W26394  41.019  44.941   2.237
54080W        W26395  40.948  30.119   4.316
54081W        W26396   9.748  11.767  12.508
54082W        W26397  19.234  41.879  13.426
54083W        W26398  17.584  37.991  14.826
54084W        W26399   2.914  17.628   3.860
54085W        W26400  17.787  13.201  14.998
54086W        W26401  36.868  35.879   4.679
54087W        W26402  30.571   5.219   4.715
54088W        W26403  37.061  35.913   2.190
54089W        W26404   8.370  25.545   0.453
54090W        W26405  22.620  23.101  12.516
54091W        W26406  21.673   1.342   2.841
54092W        W26407  10.837  39.958  11.004
54093W        W26408  29.100   2.812   3.645
54094W        W26409  35.564  28.972  12.005
54095W        W26410  30.596  21.540   2.685
54096W        W26411  25.080   5.877  12.544
54097W        W26412   9.324  15.677   1.921
54098W        W26413  19.658  39.368  12.954
54099W        W26414  44.473  35.922   2.345
54100W        W26415  18.214  37.864  13.939
54101W        W26416  16.242  17.640  11.568
54102W        W26417  33.929  10.151  10.428
54103W        W26418  26.635  20.268  13.942
54104W        W26419   0.360  16.172  11.879
54105W        W26420  30.623  35.453   3.262
54106W        W26421  29.663  32.136  13.011
54107W        W26422  13.811  11.265   2.794
54108W        W26423  44.359   2.965  14.028
54109W        W26424  12.637  16.717  11.856
54110W        W26425  39.531  42.397  13.495
54111W        W26426   6.414   0.301   2.841
54112W        W26427  24.026  44.275   4.283
54113W        W26428   7.409  39.505   2.821
54114W        W26429  18.747  26.532   1.343
54115W        W26430  18.679   2.851  12.959
54116W        W26431  22.727  35.554  11.525
54117W        W26432  14.639  26.472   1.839
54118W        W26433  27.100   2.903  10.145
54119W        W26434   0.296  27.580  14.969
54120W        W26435  35.005   6.281  13.970
54121W        W26436  17.233  17.170   0.385
54122W        W26437  28.641  31.096  11.451
54123W        W26438  44.407   7.782  13.426
54124W        W26439  25.033  19.233  11.860
54125W        W26440  22.602  11.654   1.294
54126W        W26441  40.426   0.300  11.489
54127W        W26442  22.014   1.353   1.710
54128W        W26443   3.928  19.664   0.378
54129W        W26444  30.494  11.221   2.687
54130W        W26445   3.349   4.893  10.613
54131W        W26446  44.951   4.708   0.379
54132W        W26447  44.931  15.684  14.394
54133W        W26448   6.269  24.591   1.394
54134W        W26449  28.968  31.454   1.439
54135W        W26450   0.489  40.840   0.382
54136W        W26451  26.632   3.939   2.361
54137W        W26452  19.081  40.006   0.402
54138W        W26453   5.288   3.838  13.505
54139W        W26454  43.847   1.906  13.854
54140W        W26455  35.373  22.191  13.353
54141W        W26456   4.793  11.211   0.866
54142W        W26457  17.744  14.306  14.914
54143W        W26458   9.162   9.217   0.458
54144W        W26459  13.335  20.261   0.960
54145W        W26460  16.282   1.740  11.049
54146W        W26461  25.553   6.398  13.995
54147W        W26462  44.325  15.584   0.367
54148W        W26463   3.739   1.821   2.766
54149W        W26464  40.485  41.949  13.443
54150W        W26465  14.667  41.518   4.225
54151W        W26466   4.240  32.626  12.519
54152W        W26467  33.590  17.686  14.862
54153W        W26468  20.244   3.419  14.996
54154W        W26469  31.421  36.382   3.191
54155W        W26470  26.028   2.773  11.540
54156W        W26471   2.753   0.779   0.774
54157W        W26472  15.762   0.494   0.791
54158W        W26473   9.666  22.043  13.978
54159W        W26474   6.216  35.071   1.317
54160W        W26475  37.436  17.259  13.945
54161W        W26476  43.367  25.175   3.275
54162W        W26477   0.951  32.635  12.894
54163W        W26478   1.962  19.620   4.798
54164W        W26479  18.712  32.597   1.772
54165W        W26480  18.284  23.083   4.235
54166W        W26481   9.768  30.521  13.919
54167W        W26482  26.120  25.070  13.819
54168W        W26483   1.788   3.264  10.969
54169W        W26484   1.453  19.667   0.347
54170W        W26485  38.361   8.243  13.833
54171W        W26486  10.854  39.394  10.625
54172W        W26487  10.307  30.609   2.257
54173W        W26488  32.887   1.311  12.976
54174W        W26489  13.251   6.732  12.457
54175W        W26490  24.148  21.607  13.974
54176W        W26491  32.487  19.267  13.858
54177W        W26492  32.046  44.304   0.871
54178W        W26493  20.746   8.270  12.349
54179W        W26494  31.515  29.470  12.922
54180W        W26495  10.769  28.503   4.709
54181W        W26496  24.638  37.534  13.535
54182W        W26497  18.562  40.858  11.499
54183W        W26498  18.628  41.843   1.399
54184W        W26499  30.495  38.437   0.773
54185W        W26500  12.644  39.857  13.814
54186W        W26501  32.633  20.585   2.283
54187W        W26502  25.710   2.464  14.995
54188W        W26503  42.008  39.917  10.895
54189W        W26504  23.047  14.144  14.943
54190W        W26505  23.135  35.511   1.784
54191W        W26506   3.409  26.192   1.433
54192W        W26507  37.992  20.537  11.888
54193W        W26508  35.482  24.222  14.460
54194W        W26509  30.925  32.095   3.716
54195W        W26510  11.786   1.893  11.526
54196W        W26511  18.296  11.318   3.191
54197W        W26512  36.374   0.254   0.475
54198W        W26513  44.490  25.645   3.251
54199W        W26514   1.918  15.163  13.887
54200W        W26515  20.702  37.876   1.890
54201W        W26516  26.625  32.972   2.185
54202W        W26517   2.412  30.619   0.380
54203W        W26518  21.572  40.961  12.400
54204W        W26519  28.505  43.491   0.399
54205W        W26520  31.952   2.434  12.875
54206W        W26521   2.847   5.801   3.650
54207W        W26522  34.397  26.667   5.153
54208W        W26523  31.469  11.645   1.867
54209W        W26524  25.638  41.015  14.377
54210W        W26525   1.281   8.328  12.497
54211W        W26526  23.526  16.121  14.890
54212W        W26527  23.657  21.140  12.516
54213W        W26528  40.972   0.748  14.001
54214W        W26529  32.445   8.234   1.700
54215W        W26530  14.635  25.500   4.209
54216W        W26531  15.246  10.645  11.903
54217W        W26532   9.854   0.764   0.247
54218W        W26533  30.927  19.114   1.428
54219W        W26534   4.366  16.724  14.984
54220W        W26535  32.134   7.805   5.129
54221W        W26536  33.503  22.536   1.897
54222W        W26537  40.306   0.425   4.289
54223W        W26538  25.060  14.327   1.855
54224W        W26539  43.967  44.958   2.837
54225W        W26540  33.380  11.180   4.145
54226W        W26541  23.211   8.232   2.758
54227W        W26542  39.818  14.223  11.882
54228W        W26543   4.890  33.989  11.038
54229W        W26544  12.634  23.712  13.033
54230W        W26545  13.275   8.695  12.999
54231W        W26546  29.089   6.418  11.507
54232W        W26547  26.599  19.750   3.344
54233W        W26548  23.113  13.686  10.576
54234W        W26549  38.512  32.562   2.356
54235W        W26550  34.472  40.468  14.295
54236W        W26551  41.498  43.362   3.633
54237W        W26552  29.113  18.683   2.347
54238W        W26553  44.823  17.290  11.968
54239W        W26554  41.832  18.712  10.534
54240W        W26555  21.738   3.883   2.821
54241W        W26556   3.886   4.435  11.466
54242W        W26557  23.505  12.642   1.834
54243W        W26558  25.472   7.733   3.839
54244W        W26559  21.154  13.278   0.373
54245W        W26560  10.750  12.148  13.948
54246W        W26561  43.375  27.657   2.751
54247W        W26562   0.312  39.939   1.758
54248W        W26563  13.339  31.083   4.194
54249W        W26564  11.846  22.682   1.328
54250W        W26565  26.588   6.769  13.458
54251W        W26566  17.161  39.407  13.508
54252W        W26567  38.858  37.454  14.795
54253W        W26568  33.096  32.422  10.598
54254W        W26569  21.686  15.707   4.774
54255W        W26570   9.242  27.513  14.415
54256W        W26571  28.535  12.848  12.392
54257W        W26572  20.624   7.175  14.866
54258W        W26573  39.446  34.121  10.433
54259W        W26574  27.647   5.690  11.604
54260W        W26575  13.319  23.222   0.843
54261W        W26576  19.143  21.668   2.797
54262W        W26577  31.090  35.487   0.307
54263W        W26578  25.599  20.227  13.441
54264W        W26579  15.110   2.803   1.703
54265W        W26580  27.074  10.730  10.430
54266W        W26581  27.661  42.449  12.886
54267W        W26582  26.973  36.437   2.736
54268W        W26583   6.385  20.203   2.230
54269W        W26584  43.326  13.164   0.255
54270W        W26585  30.534  44.915   4.337
54271W        W26586   0.818  18.265  13.321
54272W        W26587   6.232  20.525   2.188
54273W        W26588  14.209  17.263  10.428
54274W        W26589  23.682   0.950  13.368
54275W        W26590  22.724   2.914  14.358
54276W        W26591  12.199  22.088   1.805
54277W        W26592  37.486  18.657   0.816
54278W        W26593  22.679   1.244  12.994
54279W        W26594  44.311  27.009   4.748
54280W        W26595   3.836   7.403  11.105
54281W        W26596  40.322  38.499  14.957
54282W        W26597   8.215  28.523  13.002
54283W        W26598  14.760   0.359   3.834
54284W        W26599  38.031  28.660   2.268
54285W        W26600  41.866  43.963  13.436
54286W        W26601  11.129   0.391   3.275
54287W        W26602   2.321  44.866  13.844
54288W        W26603  26.145   4.730  11.009
54289W        W26604  16.799  30.580   0.791
54290W        W26605  42.479  29.027   0.413
54291W        W26606   1.741   6.765  14.435
54292W        W26607  20.059  38.464  11.014
54293W        W26608  20.197  41.861  12.558
54294W        W26609  41.812  40.395   4.721
54295W        W26610  30.005  37.341  14.837
54296W        W26611  22.692  44.303   5.231
54297W        W26612  36.000   9.735  13.857
54298W        W26613  18.676  39.998  13.011
54299W        W26614  40.390  31.998   9.938
54300W        W26615  23.657  22.185   5.233
54301W        W26616  13.790  32.076   2.408
54302W        W26617  44.975  28.009   3.688
54303W        W26618   0.392  35.927   0.423
54304W        W26619  38.914   2.932  12.556
54305W        W26620  18.259  31.943  11.110
54306W        W26621  19.741   3.233  11.863
54307W        W26622  32.426  21.157  14.778
54308W        W26623  27.025  26.958   4.808
54309W        W26624  21.110  13.805   2.745
54310W        W26625  26.956  27.618  12.860
54311W        W26626  14.739  44.426  14.903
54312W        W26627  38.491   6.812   0.757
54313W        W26628   9.831  31.985   3.284
54314W        W26629  16.110  27.157  11.859
54315W        W26630   4.909  43.904   2.766
54316W        W26631  40.863  11.631   4.265
54317W        W26632  34.117  15.683   3.637
54318W        W26633  26.092   2.721   0.326
54319W        W26634   3.886  38.927   1.845
54320W        W26635  33.564  40.441   1.708
54321W        W26636  15.740  14.815   2.240
54322W        W26637  39.992   4.767  12.952
54323W        W26638  27.465   5.785  10.031
54324W        W26639   4.765  27.947   0.752
54325W        W26640  18.738  39.397   0.956
54326W        W26641   3.286   9.845  12.092
54327W        W26642   5.381   4.294  12.513
54328W        W26643  12.728  25.217  13.473
54329W        W26644  37.945   2.317   2.355
54330W        W26645  10.839  15.251  12.011
54331W        W26646  19.233  19.110  14.482
54332W        W26647  14.643  20.642  14.324
54333W        W26648   4.913  15.820  10.436
54334W        W26649  31.468  31.010   2.685
54335W        W26650  21.158  41.838  10.534
54336W        W26651  22.662  33.036  12.909
54337W        W26652  13.806  41.987  14.964
54338W        W26653  11.175  28.930  14.471
54339W        W26654  33.907  25.127  11.928
54340W        W26655  37.977  43.296   2.750
54341W        W26656   5.933  24.184  13.514
54342W        W26657  12.837  34.380   3.821
54343W        W26658  41.039  29.961  14.982
54344W        W26659  11.829  44.478  11.918
54345W        W26660  27.521  41.855  11.069
54346W        W26661   6.262  39.367  13.433
54347W        W26662   0.454   9.255   3.193
54348W        W26663  41.881  31.129  12.448
54349W        W26664  43.337  11.255  14.387
54350W        W26665   4.439  12.665  11.009
54351W        W26666  15.681   1.804   2.188
54352W        W26667  33.507  27.470  11.552
54353W        W26668  22.189  34.062  12.471
54354W        W26669  32.980  14.657   1.773
54355W        W26670  17.610   1.442   4.702
54356W        W26671  15.685   9.288   1.233
54357W        W26672  17.559  35.974   1.934
54358W        W26673  37.563  37.556   0.333
54359W        W26674   9.383  15.781   3.315
54360W        W26675  31.446  23.144   2.669
54361W        W26676   6.913  10.215  13.982
54362W        W26677   7.180  17.152   1.924
54363W        W26678   7.896  26.493   2.244
54364W        W26679   1.783  41.789  13.425
54365W        W26680   4.727  32.058  10.036
54366W        W26681  25.632   5.400   5.660
54367W        W26682  18.109  44.798   0.395
54368W        W26683  26.461  19.721  10.425
54369W        W26684  35.080  33.416  10.099
54370W        W26685   6.918  42.868   4.646
54371W        W26686  33.420  36.002   4.808
54372W        W26687   3.399  10.643   3.150
54373W        W26688  35.999   5.731   1.926
54374W        W26689   2.455  24.187  12.082
54375W        W26690  14.713  41.934  14.022
54376W        W26691  43.510  18.686   1.319
54377W        W26692   3.746  37.555  14.398
54378W        W26693  21.728  15.756  12.900
54379W        W26694  21.079  29.628  11.419
54380W        W26695  29.601  11.337  11.116
54381W        W26696   5.316  40.936   1.716
54382W        W26697  31.452  30.566  13.433
54383W        W26698  34.043   2.343   3.161
54384W        W26699  33.602  33.050  10.141
54385W        W26700   7.312  19.711   0.408
54386W        W26701  10.847  27.632   0.430
54387W        W26702  20.729  32.117   1.217
54388W        W26703  34.093  12.172  14.889
54389W        W26704  43.975  31.570  14.825
54390W        W26705  42.879  37.979   3.738
54391W        W26706  15.578  30.090   3.302
54392W        W26707   6.763  22.646  12.047
54393W        W26708   3.903  17.767  12.559
54394W        W26709  13.308  15.813   3.643
54395W        W26710   4.709  21.544  12.575
54396W        W26711  18.200  43.958   2.314
54397W        W26712  41.530  39.344  14.989
54398W        W26713  41.802  37.878  11.986
54399W        W26714   0.940  38.409   3.802
54400W        W26715  38.446  15.212   4.675
54401W        W26716  19.726   9.184   2.351
54402W        W26717   3.437  34.890   1.231
54403W        W26718   8.161  25.133   4.226
54404W        W26719  16.150  15.634  14.776
54405W        W26720  26.540   9.852   2.219
54406W        W26721  29.934  18.703   0.746
54407W        W26722   5.284  14.742  10.483
54408W        W26723  43.506  41.804   0.901
54409W        W26724   2.422  18.056  10.090
54410W        W26725   7.237   9.361   2.810
54411W        W26726  40.845  31.487   4.149
54412W        W26727  22.577   2.467  12.072
54413W        W26728  41.487  36.018   0.365
54414W        W26729   3.398  41.018  12.015
54415W        W26730  10.171  11.238  12.023
54416W        W26731   8.318  32.037   4.602
54417W        W26732   4.220  30.513   2.325
54418W        W26733  22.649  16.742   2.812
54419W        W26734  11.751  25.576  14.439
54420W        W26735  18.104  34.482  11.905
54421W        W26736  24.680  13.688   1.431
54422W        W26737  44.999  36.046   2.234
54423W        W26738  18.099  14.757  14.952
54424W        W26739  30.538  42.026  13.917
54425W        W26740  24.045  20.616   4.806
54426W        W26741  28.538   1.788   4.255
54427W        W26742   1.773  40.453   2.694
54428W        W26743  23.530  23.084  14.800
54429W        W26744   6.733  18.713   0.482
54430W        W26745  15.730  28.987  11.445
54431W        W26746  13.773  43.862   2.195
54432W        W26747   2.394  22.701  13.338
54433W        W26748  26.995  43.932   0.327
54434W        W26749   2.472  31.560   4.190
54435W        W26750  32.114  20.542   4.826
54436W        W26751  28.594  40.830  12.861
54437W        W26752  32.528  40.887  12.564
54438W        W26753  42.393  44.907  14.460
54439W        W26754   8.260  14.747  10.608
54440W        W26755  33.508  16.725  11.856
54441W        W26756  25.666  22.118   3.385
54442W        W26757  42.291  36.851  14.958
54443W        W26758   6.683  31.981  11.893
54444W        W26759  32.522   3.818  14.309
54445W        W26760   4.768  35.512   4.746
54446W        W26761   5.243  37.348   0.362
54447W        W26762  11.806  24.119  14.998
54448W        W26763  28.464  36.439  13.972
54449W        W26764  41.313  36.936   4.233
54450W        W26765  41.839  13.789  13.498
54451W        W26766  19.118   6.214   3.361
54452W        W26767   8.842  10.341   3.827
54453W        W26768  43.450   7.380   4.189
54454W        W26769   8.718  30.050   1.371
54455W        W26770   1.249   7.704   1.811
54456W        W26771   2.393  20.613   0.734
54457W        W26772  14.647  44.892  13.451
54458W        W26773  25.631  14.187  13.030
54459W        W26774  11.685   9.871  14.346
54460W        W26775  21.168  36.028  13.999
54461W        W26776  12.691   2.235   3.844
54462W        W26777  15.237  22.734  14.960
54463W        W26778   5.314  18.080   0.337
54464W        W26779  24.508   2.337   3.708
54465W        W26780  40.846  13.125  13.850
54466W        W26781  29.529  37.537  11.408
54467W        W26782   4.407  24.486  11.936
54468W        W26783   9.250  32.611  13.962
54469W        W26784  40.486  38.893   0.403
54470W        W26785   1.970  22.557   0.275
54471W        W26786  39.395  34.388  10.419
54472W        W26787  22.544  12.794  10.637
54473W        W26788   5.818  26.543  14.769
54474W        W26789  39.501  40.904  11.538
54475W        W26790  18.675  17.127  11.505
54476W        W26791  24.164  23.184   0.437
54477W        W26792  15.644  38.428   3.663
54478W        W26793  20.122  22.551   1.818
54479W        W26794   2.828   7.770  11.535
54480W        W26795  43.408  15.691  11.391
54481W        W26796  19.572  24.495   2.244
54482W        W26797  23.634  20.262   0.762
54483W        W26798  34.039  44.418   4.278
54484W        W26799   6.225  19.600   1.757
54485W        W26800  14.224   6.873   2.875
54486W        W26801  41.849  30.928   0.398
54487W        W26802  19.541   8.370   5.785
54488W        W26803  40.385   2.727  14.452
54489W        W26804  41.791  15.186   1.216
54490W        W26805  40.055  27.949   3.768
54491W        W26806   5.410  34.481   2.268
54492W        W26807  16.601  30.020  11.862
54493W        W26808   7.368  34.568   1.855
54494W        W26809  31.629  29.483   2.261
54495W        W26810  15.297   9.843   1.741
54496W        W26811  38.887  36.401   3.300
54497W        W26812  42.319  44.821  12.426
54498W        W26813  29.532  15.107   4.345
54499W        W26814  32.053  38.854  12.909
54500W        W26815   6.212  36.447   0.283
54501W        W26816   9.754  30.922   2.786
54502W        W26817  13.656   1.866   3.845
54503W        W26818  40.305  25.218   1.784
54504W        W26819  27.553  43.804   3.338
54505W        W26820  14.771  43.342  11.855
54506W        W26821  36.878  42.984   0.883
54507W        W26822  40.899  35.551  10.599
54508W        W26823   0.310  28.993   1.785
54509W        W26824  16.212  35.384   2.264
54510W        W26825  38.002  14.698   4.692
54511W        W26826   9.658  18.119   5.161
54512W        W26827  30.462  10.310  13.322
54513W        W26828  42.976  10.327  14.364
54514W        W26829  39.444  16.287   4.199
54515W        W26830  19.652  15.728   1.816
54516W        W26831  10.225  26.483   1.694
54517W        W26832  29.619  13.350  10.944
54518W        W26833  26.103  41.816   4.609
54519W        W26834   4.250  21.581   4.659
54520W        W26835   8.802  32.530   4.320
54521W        W26836  26.980  44.843   2.839
54522W        W26837  14.262  11.857   1.391
54523W        W26838  14.207  36.844   4.704
54524W        W26839   8.768  43.767   2.230
54525W        W26840  15.212  43.848  14.341
54526W        W26841  43.988  29.445  11.904
54527W        W26842   5.241  15.089  14.365
54528W        W26843  32.527  40.494  14.370
54529W        W26844  33.994   3.803  12.845
54530W        W26845  32.911  31.110  11.118
54531W        W26846   8.189  30.599   3.744
54532W        W26847  40.316  17.743  11.411
54533W        W26848  18.284  43.937   4.193
54534W        W26849  36.842   5.317   2.794
54535W        W26850  31.440  32.613   0.816
54536W        W26851  38.465  35.566   1.274
54537W        W26852  43.291  31.023  12.924
54538W        W26853   3.729  41.500   3.769
54539W        W26854  29.586  36.502  12.825
54540W        W26855  24.154  30.523   5.223
54541W        W26856   2.850  17.137   1.862
54542W        W26857  33.462  37.005   3.217
54543W        W26858  31.417  42.330  12.356
54544W        W26859  11.833  43.423  10.464
54545W        W26860  15.758  12.762  13.468
54546W        W26861  15.197  22.701   4.766
54547W        W26862  35.410  30.525  10.919
54548W        W26863  34.117  26.541  11.538
54549W        W26864  39.956  39.433   2.362
54550W        W26865   4.758   5.711  14.908
54551W        W26866  41.846   7.854  11.406
54552W        W26867  20.737  31.150   1.718
54553W        W26868  23.177   6.776  11.450
54554W        W26869  42.859   7.695   1.708
54555W        W26870   2.385  40.949   4.144
54556W        W26871  21.548   1.378   0.314
54557W        W26872  17.173  40.354   4.314
54558W        W26873   3.304  26.053   2.286
54559W        W26874  42.803  35.377   4.735
54560W        W26875  15.789  12.639   2.766
54561W        W26876  16.812  20.144   4.617
54562W        W26877   5.829  19.583   4.286
54563W        W26878  35.853  39.019   0.481
54564W        W26879  29.462  38.452   0.288
54565W        W26880  31.150  25.482  11.039
54566W        W26881   0.781   8.296  12.032
54567W        W26882  24.076  36.526   0.754
54568W        W26883   1.748  12.628  10.998
54569W        W26884  10.712  17.736  14.281
54570W        W26885  13.681  19.724  11.933
54571W        W26886  34.551   6.398  11.016
54572W        W26887   7.209  29.518   3.688
54573W        W26888   4.300  39.066  12.406
54574W        W26889   6.337   5.342   0.934
54575W        W26890   6.207  44.859  10.519
54576W        W26891  43.890   4.290   2.698
54577W        W26892  36.034  24.226  11.419
54578W        W26893  23.649  27.059  14.949
54579W        W26894  24.068  37.527  12.075
54580W        W26895  40.862  27.047  10.940
54581W        W26896   8.252  42.922  14.002
54582W        W26897  30.991  39.525  14.313
54583W        W26898   1.421  36.587  13.374
54584W        W26899  34.867  33.604   3.161
54585W        W26900  12.341  20.253   0.938
54586W        W26901  17.746  15.174  14.884
54587W        W26902  12.760  33.615   4.648
54588W        W26903  17.757  43.334  13.001
54589W        W26904  42.305   2.960  13.434
54590W        W26905  41.346  15.218  12.481
54591W        W26906   5.320  40.500   0.270
54592W        W26907  18.179  32.137  11.464
54593W        W26908   7.240  37.020   4.310
54594W        W26909  15.704  44.340  13.323
54595W        W26910  21.715  33.617  13.485
54596W        W26911  39.942  13.782  11.040
54597W        W26912  44.413  31.140   2.374
54598W        W26913  41.861  11.681  14.809
54599W        W26914  40.448  35.952   0.374
54600W        W26915   2.729  29.511  12.863
54601W        W26916  18.614  18.549   0.930
54602W        W26917  27.683  21.605   0.439
54603W        W26918  15.320  38.514  11.562
54604W        W26919  37.018   6.913  10.558
54605W        W26920  43.922  22.733  10.548
54606W        W26921  40.303  19.089   2.853
54607W        W26922   6.364  22.023   4.788
54608W        W26923  24.998  15.240   1.431
54609W        W26924  25.665  32.434   1.788
54610W        W26925   5.931  23.093   2.246
54611W        W26926  38.339  12.322   0.388
54612W        W26927  17.626  40.450  13.477
54613W        W26928  15.098  41.403   0.782
54614W        W26929  29.998  37.856  10.510
54615W        W26930  23.599  30.030   2.838
54616W        W26931  14.739  26.157   0.958
54617W        W26932  26.066   1.279   2.242
54618W        W26933  31.586  31.605   1.292
54619W        W26934   2.315  35.584  12.990
54620W        W26935   5.907  20.725  13.345
54621W        W26936  10.691   9.853  13.834
54622W        W26937   5.793  19.544   2.215
54623W        W26938  27.643   9.832   0.413
54624W        W26939   7.675  18.595  12.978
54625W        W26940  28.567  24.511   0.932
54626W        W26941  21.067  29.126  11.082
54627W        W26942  37.048   7.201   1.381
54628W        W26943  12.275  21.732   2.374
54629W        W26944  10.285  25.132  14.975
54630W        W26945   4.844  25.618   3.224
54631W        W26946  12.726  31.425  10.893
54632W        W26947   9.382  15.692   4.667
54633W        W26948   9.833  15.630  11.922
54634W        W26949  41.891  37.493   5.125
54635W        W26950   3.954  42.960  12.888
54636W        W26951  10.785  13.107  11.432
54637W        W26952  32.054  40.400   3.708
54638W        W26953  37.887  15.695   2.897
54639W        W26954   5.882  33.964   0.856
54640W        W26955  26.550  33.531  14.319
54641W        W26956  35.998  31.521  12.935
54642W        W26957   4.816  36.875  10.967
54643W        W26958  36.480  16.777   4.121
54644W        W26959  39.036   1.445  13.500
54645W        W26960   2.331  29.041  11.391
54646W        W26961  19.098  40.835   4.729
54647W        W26962   5.812  20.181  11.977
54648W        W26963  21.628  27.641   0.831
54649W        W26964  10.838  18.663  11.013
54650W        W26965   3.282  10.198   4.640
54651W        W26966  10.333   6.422  13.030
54652W        W26967  33.917  30.980  13.343
54653W        W26968   1.304  43.999  14.325
54654W        W26969  41.326  18.644   5.121
54655W        W26970  26.120  33.043  10.629
54656W        W26971  26.984  31.998   5.312
54657W        W26972  36.857  28.514  10.623
54658W        W26973  20.682  39.845   4.227
54659W        W26974  35.366  39.539   1.776
54660W        W26975  32.990   8.879  12.489
54661W        W26976   6.795  12.234   3.276
54662W        W26977  40.822  24.985   3.153
54663W        W26978   5.346  28.465   1.870
54664W        W26979  41.533  43.889  11.051
54665W        W26980  16.295   8.800   4.133
54666W        W26981  25.562   1.416   0.955
54667W        W26982  39.997  44.863   3.387
54668W        W26983  42.421  33.922  11.462
54669W        W26984  23.126   1.336  11.009
54670W        W26985  16.290  40.924  11.886
54671W        W26986  26.694  39.846   4.179
54672W        W26987  15.790  12.654   4.642
54673W        W26988  22.706  29.995   4.662
54674W        W26989  30.615  13.125  13.367
54675W        W26990  44.873  32.947  12.339
54676W        W26991  35.391  33.891   2.400
54677W        W26992  43.874  23.511  13.459
54678W        W26993  21.079  32.061   1.747
54679W        W26994   9.824  26.699   4.238
54680W        W26995   7.393  34.524   3.778
54681W        W26996  19.696  40.893   0.787
54682W        W26997   2.448   1.766  10.549
54683W        W26998  11.784  28.498  12.905
54684W        W26999  10.352  18.074  11.877
54685W        W27000   8.692  11.243  13.834
54686W        W27001  44.002  17.251   0.356
54687W        W27002  20.029   9.243   2.297
54688W        W27003  29.088  21.058   4.772
54689W        W27004  18.145   1.924   2.205
54690W        W27005  24.552  42.513   1.830
54691W        W27006   1.306  31.147  12.472
54692W        W27007  23.136  15.111   2.703
54693W        W27008  32.533  13.347  13.828
54694W        W27009  10.166   9.376  11.469
54695W        W27010   7.177   1.754   1.722
54696W        W27011  11.289  34.567   1.877
54697W        W27012  43.513  11.195  13.467
54698W        W27013  14.717  12.118   3.818
54699W        W27014  32.423   9.293  14.849
54700W        W27015   1.454   8.342  14.999
54701W        W27016  38.864  24.148   2.696
54702W        W27017  43.451   7.807   4.222
54703W        W27018  12.638  34.983   4.713
54704W        W27019  13.281  34.466   1.391
54705W        W27020  14.154  16.283  11.520
54706W        W27021  42.504  12.775  12.065
54707W        W27022  34.934  17.662  13.934
54708W        W27023  26.661  42.024   5.150
54709W        W27024  39.918  27.606  14.400
54710W        W27025  29.667  30.642  12.943
54711W        W27026  24.651  13.180  10.437
54712W        W27027   0.435  42.785  13.865
54713W        W27028   3.253  36.397  13.020
54714W        W27029  15.697  41.504  12.031
54715W        W27030  41.491  34.976  14.944
54716W        W27031  44.380   6.230   4.155
54717W        W27032   6.222  12.721  14.441
54718W        W27033  19.777  41.365   4.803
54719W        W27034  29.951  13.657  13.535
54720W        W27035  40.385  15.170   1.382
54721W        W27036  22.502  10.310   3.716
54722W        W27037  17.065   6.844  13.866
54723W        W27038  29.036   5.222  13.436
54724W        W27039  23.097  31.995   4.177
54725W        W27040  23.239  39.326  11.990
54726W        W27041  22.601  13.183   0.379
54727W        W27042  32.470  15.702  14.877
54728W        W27043  19.583  32.452  11.877
54729W        W27044  19.079   1.938  10.522
54730W        W27045   6.837  21.551  14.021
54731W        W27046   6.330   7.202  11.980
54732W        W27047  15.675  36.056  13.460
54733W        W27048  16.709  14.166  14.473
54734W        W27049  18.657   6.328  13.937
54735W        W27050  21.189  20.720  13.959
54736W        W27051  43.008   6.215   3.322
54737W        W27052  21.141  40.315   3.168
54738W        W27053  14.719   2.289   1.422
54739W        W27054  39.053  13.635  14.013
54740W        W27055  42.509  28.013   1.230
54741W        W27056   7.732   0.941  14.790
54742W        W27057   6.866   8.177  10.965
54743W        W27058  37.832  38.338  11.102
54744W        W27059   3.730  22.223   2.667
54745W        W27060  28.000  38.410   0.896
54746W        W27061  16.229  27.635   0.274
54747W        W27062  31.102  40.409   0.361
54748W        W27063   2.961  41.929  12.368
54749W        W27064  15.755  26.069   3.328
54750W        W27065  14.170  28.586   0.428
54751W        W27066  43.388  36.017  13.336
54752W        W27067  12.297  34.087  13.517
54753W        W27068  12.707   2.338   2.713
54754W        W27069  26.067   1.945  14.888
54755W        W27070  23.076  31.611  13.405
54756W        W27071  11.789  34.402  10.413
54757W        W27072  23.023  44.471   1.383
54758W        W27073  34.880  11.734  13.794
54759W        W27074   1.842  44.883   0.292
54760W        W27075  23.197  36.896   3.152
54761W        W27076  15.091  26.184   0.766
54762W        W27077   5.299  21.511  14.918
54763W        W27078  43.310  24.995   1.434
54764W        W27079  16.695   1.245  10.905
54765W        W27080  42.991  15.321   1.772
54766W        W27081  25.631  17.183  11.376
54767W        W27082   2.836  21.543  11.018
54768W        W27083  32.550  34.481  14.836
54769W        W27084  18.289  40.991   2.812
54770W        W27085   3.827  29.970  13.434
54771W        W27086   9.188  19.535   4.754
54772W        W27087  38.498  38.025   1.248
54773W        W27088  27.960  12.290   9.970
54774W        W27089  30.452  44.896  13.878
54775W        W27090  42.870  15.600  10.102
54776W        W27091  31.025  26.029   3.803
54777W        W27092  42.896  14.682  13.320
54778W        W27093  21.701  14.131   3.644
54779W        W27094   1.948  29.963   4.827
54780W        W27095  27.610  17.250  10.976
54781W        W27096  10.191  26.539  10.533
54782W        W27097  38.324   3.907  11.895
54783W        W27098  43.803   5.706   0.803
54784W        W27099  34.902  44.928  14.475
54785W        W27100   8.715   7.358   1.855
54786W        W27101  12.271  33.948   4.703
54787W        W27102  20.727  25.097   0.439
54788W        W27103  29.634  41.425  12.507
54789W        W27104  29.940   4.714   3.231
54790W        W27105   4.734  33.494   2.792
54791W        W27106  23.217  32.992   2.699
54792W        W27107  36.921  34.531  13.836
54793W        W27108  41.294  38.987   4.195
54794W        W27109  24.611  12.360   3.827
54795W        W27110   3.404  18.726  12.568
54796W        W27111  42.429  34.948  13.530
54797W        W27112  25.519  28.011  14.368
54798W        W27113  33.920  21.650   3.648
54799W        W27114  42.461  21.177   3.647
54800W        W27115  30.423  12.362  12.086
54801W        W27116   0.415  36.501   0.401
54802W        W27117  38.495  36.021  11.430
54803W        W27118  20.176  13.260  14.297
54804W        W27119  17.152  31.610   1.261
54805W        W27120  31.613   8.217   1.879
54806W        W27121   6.745  22.021   0.765
54807W        W27122  37.525  39.902   2.243
54808W        W27123  29.513   5.754  12.552
54809W        W27124  10.700  12.225  14.797
54810W        W27125  31.901  26.519  11.014
54811W        W27126  23.530  36.069   1.329
54812W        W27127  29.150   1.414  10.478
54813W        W27128   6.876   3.438   4.266
54814W        W27129  26.964  28.505  11.969
54815W        W27130  38.475  43.415  13.409
54816W        W27131  23.071   3.938   4.134
54817W        W27132  44.005  28.512   2.871
54818W        W27133  36.369  43.999   1.301
54819W        W27134  26.091  44.787   3.154
54820W        W27135  13.751  26.608   3.306
54821W        W27136  15.738  41.797  13.411
54822W        W27137  44.368   0.490  13.315
54823W        W27138  23.640  40.391  13.512
54824W        W27139  25.120  17.685   4.283
54825W        W27140  38.843   3.260   4.247
54826W        W27141  30.142   4.404   3.644
54827W        W27142  32.897  24.134   3.826
54828W        W27143  36.909  26.190  13.932
54829W        W27144  42.830  12.251  12.425
54830W        W27145   8.870  25.025   4.797
54831W        W27146   9.278  42.981  14.482
54832W        W27147  24.537  20.085   2.805
54833W        W27148  38.055  25.517   2.355
54834W        W27149  39.005  20.759  11.876
54835W        W27150  11.135  10.865  12.092
54836W        W27151  27.657  27.502   2.719
54837W        W27152  35.544  19.257   4.731
54838W        W27153  12.743  37.930  13.427
54839W        W27154   0.958  34.984  10.420
54840W        W27155   8.224  40.474  10.408
54841W        W27156  28.938  15.245  13.054
54842W        W27157   4.355  21.529  14.363
54843W        W27158  13.817  17.066  12.472
54844W        W27159  12.820   8.315   4.687
54845W        W27160  20.168  24.479  11.923
54846W        W27161  15.199   9.328  12.479
54847W        W27162  12.622  18.255  12.962
54848W        W27163  20.271  11.200   3.679
54849W        W27164  19.596  20.143   5.139
54850W        W27165  19.568  18.761   0.939
54851W        W27166   5.893  14.813   1.297
54852W        W27167  17.603   6.308  13.843
54853W        W27168  11.367  12.342  12.081
54854W        W27169  21.076  40.030   5.274
54855W        W27170  12.676  18.727  14.848
54856W        W27171   9.755  36.497   0.916
54857W        W27172   9.869  20.766  11.858
54858W        W27173  29.566  32.480   2.329
54859W        W27174  43.307  41.905  10.631
54860W        W27175   7.890  29.038   4.831
54861W        W27176  26.975  39.882   0.768
54862W        W27177  41.409  41.411  11.996
54863W        W27178   6.297  42.996  12.024
54864W        W27179   1.948  43.351   3.724
54865W        W27180  32.015   8.692  12.964
54866W        W27181   8.730  24.641   4.215
54867W        W27182  34.082   3.765   1.770
54868W        W27183  37.471   3.270   1.333
54869W        W27184   3.444  38.409   1.224
54870W        W27185  37.531  29.607   3.732
54871W        W27186  15.109   7.682  10.623
54872W        W27187   9.762  18.757   5.717
54873W        W27188  41.820  17.072   3.171
54874W        W27189  30.103  31.061   4.239
54875W        W27190  40.331   6.736   0.345
54876W        W27191   0.908   9.673   5.706
54877W        W27192   7.830   7.364  13.968
54878W        W27193   1.330  39.836  11.113
54879W        W27194  13.791  22.136   1.226
54880W        W27195  37.433   4.236  12.407
54881W        W27196  35.527  17.627  14.515
54882W        W27197  10.824  26.532  11.571
54883W        W27198   6.289  35.413  12.366
54884W        W27199   5.851   0.281  14.372
54885W        W27200   1.879   0.820   4.665
54886W        W27201  28.158  31.443   0.388
54887W        W27202  29.480   0.887   0.482
54888W        W27203  34.420  31.572  11.026
54889W        W27204  39.343  37.849  12.928
54890W        W27205   5.249  43.305  13.517
54891W        W27206  32.462  15.186   1.346
54892W        W27207  23.542  40.932  13.883
54893W        W27208  31.975  44.498   2.275
54894W        W27209  27.962  15.307  11.562
54895W        W27210  18.218   2.300   2.205
54896W        W27211  24.202  24.568  12.021
54897W        W27212  30.455  35.528   0.738
54898W        W27213  25.993   9.680  12.382
54899W        W27214  22.996   4.781   4.177
54900W        W27215   3.325   5.285   2.705
54901W        W27216  20.204  28.974  14.942
54902W        W27217  25.597   9.221   2.336
54903W        W27218  20.605  32.946  11.517
54904W        W27219  33.561  14.640  12.096
54905W        W27220  19.182  10.838   4.307
54906W        W27221  24.587  41.385  12.875
54907W        W27222  25.522  36.992  14.367
54908W        W27223  19.721  29.058   2.885
54909W        W27224  23.151  38.931   4.774
54910W        W27225  27.669  34.391  12.502
54911W        W27226  37.483   6.250   3.830
54912W        W27227  24.650  17.657   4.636
54913W        W27228   3.436  30.111  12.457
54914W        W27229   7.180  19.097  11.020
54915W        W27230  27.560  42.443   0.424
54916W        W27231  31.460  21.083  13.502
54917W        W27232  18.751  34.993   2.251
54918W        W27233  15.671  43.774  10.572
54919W        W27234  34.048  30.530  12.008
54920W        W27235  12.788  39.010  11.509
54921W        W27236  19.538  11.244  10.491
54922W        W27237  23.087  36.401  13.396
54923W        W27238  22.650  39.460  11.050
54924W        W27239  32.468  28.513   0.761
54925W        W27240   5.246  13.649  12.848
54926W        W27241   6.718  32.586   4.761
54927W        W27242  25.084  31.554   2.337
54928W        W27243  40.544  13.807   3.165
54929W        W27244  33.419  15.698   4.311
54930W        W27245  14.805   0.822  11.979
54931W        W27246  20.142   4.432   0.790
54932W        W27247   3.311  39.516   0.444
54933W        W27248  39.920  36.453   0.299
54934W        W27249  43.384   5.756  10.587
54935W        W27250  27.951   4.227  14.962
54936W        W27251  32.410  39.407   0.412
54937W        W27252  44.404  34.606  13.356
54938W        W27253  37.081  25.471   4.720
54939W        W27254  34.978  33.032   0.469
54940W        W27255  13.629  40.343   3.703
54941W        W27256  30.917  30.037   3.642
54942W        W27257   8.768  25.712  11.866
54943W        W27258   9.225  21.043   3.865
54944W        W27259   8.875  35.065  10.964
54945W        W27260  35.361  14.320  11.904
54946W        W27261  39.847  13.349   1.347
54947W        W27262   2.887  37.487   0.464
54948W        W27263  12.699  38.562  13.912
54949W        W27264  39.971  26.008   4.328
54950W        W27265  24.576  17.137  11.458
54951W        W27266  18.632  16.673   2.397
54952W        W27267  43.428   3.919   4.133
54953W        W27268  18.067  17.735   0.479
54954W        W27269  25.145  30.105  10.994
54955W        W27270  10.634  20.655   0.933
54956W        W27271  39.554  40.982  11.918
54957W        W27272  40.939  27.574  14.825
54958W        W27273  12.663   4.446  14.951
54959W        W27274  33.510  10.246   4.172
54960W        W27275   5.714   1.767  10.902
54961W        W27276  13.622  32.559   4.693
54962W        W27277   1.978  43.973   2.392
54963W        W27278  27.020  29.462   4.165
54964W        W27279  17.765  22.213  13.961
54965W        W27280  33.577   1.351  14.993
54966W        W27281   3.946  38.940   4.278
54967W        W27282  16.276  28.994   2.343
54968W        W27283  12.716  23.005  11.402
54969W        W27284  37.860  26.566   3.672
54970W        W27285  42.973  28.010   2.712
54971W        W27286  39.460   8.383   0.787
54972W        W27287  41.993   5.234   4.285
54973W        W27288  30.957   6.235  13.961
54974W        W27289  38.945  37.063   2.224
54975W        W27290  11.218   3.304   1.909
54976W        W27291   9.648  38.954  12.473
54977W        W27292   3.802  37.517  11.456
54978W        W27293  19.136   7.788  12.417
54979W        W27294  28.978  40.888  11.116
54980W        W27295  19.188   4.882  11.414
54981W        W27296  36.878  25.088   3.364
54982W        W27297  40.549   1.905  12.072
54983W        W27298  36.095   7.804  11.599
54984W        W27299  33.492  26.650  11.507
54985W        W27300  16.776  15.104   3.331
54986W        W27301   0.354   3.904  10.507
54987W        W27302  17.561  34.934  14.289
54988W        W27303  39.865  28.164  12.038
54989W        W27304   7.248  11.343  11.897
54990W        W27305  24.092   3.357  11.892
54991W        W27306  42.846  30.914  10.933
54992W        W27307  20.646  16.687  14.430
54993W        W27308  30.921  12.212  11.574
54994W        W27309   9.264   6.426   4.133
54995W        W27310  28.097  22.182  10.154
54996W        W27311  27.125   3.822  12.558
54997W        W27312  21.602  25.592  10.622
54998W        W27313   7.222   0.315  12.901
54999W        W27314  35.058  25.200   4.189
55000W        W27315  25.567   0.950   0.259
55001W        W27316  26.190  34.452  11.588
55002W        W27317   8.875  35.389  12.055
55003W        W27318  26.151  31.502   9.561
55004W        W27319  10.259  37.574  14.004
55005W        W27320  15.818  30.962   4.273
55006W        W27321  17.586  44.467   4.825
55007W        W27322  24.098  37.572   4.619
55008W        W27323  20.146   6.206   0.899
55009W        W27324   1.307  24.665   1.212
55010W        W27325  14.739  18.184  10.505
55011W        W27326  22.084   1.803   1.438
55012W        W27327  11.163  25.981  12.879
55013W        W27328  39.521  17.687   4.651
55014W        W27329   9.213  30.536   4.227
55015W        W27330  28.127  26.509  12.024
55016W        W27331  37.961  36.863  14.003
55017W        W27332   1.735  29.553   2.199
55018W        W27333   1.350   3.755  14.937
55019W        W27334  20.718  34.951   3.638
55020W        W27335  15.619  33.499   1.732
55021W        W27336  38.552   3.279   1.305
55022W        W27337  27.491  17.200  10.471
55023W        W27338  33.413  30.467  10.960
55024W        W27339  30.640  42.449   0.938
55025W        W27340  17.742  43.395  12.067
55026W        W27341   8.335  10.240  11.954
55027W        W27342  33.550  44.309   0.446
55028W        W27343  12.263  16.105   1.810
55029W        W27344  30.156  19.131   4.194
55030W        W27345  29.598  20.736  10.508
55031W        W27346  16.647  18.775   0.896
55032W        W27347   0.416  26.561   4.681
55033W        W27348  40.374  29.019  10.466
55034W        W27349  31.569  41.974  10.463
55035W        W27350   1.777   2.250  12.579
55036W        W27351   0.487  29.475   2.707
55037W        W27352  22.661  37.531  12.085
55038W        W27353  38.019   3.224   3.781
55039W        W27354  20.215  30.925  14.764
55040W        W27355   7.817  23.186  13.423
55041W        W27356   1.824   2.859  14.401
55042W        W27357   8.375   5.794   3.756
55043W        W27358  44.933   8.406  14.990
55044W        W27359  15.167  31.616   2.846
55045W        W27360   1.799  25.078  13.388
55046W        W27361   1.744  31.909   4.329
55047W        W27362  33.076  26.633  11.015
55048W        W27363  25.185  28.463   3.796
55049W        W27364  31.499  32.111  11.543
55050W        W27365  43.899  26.001   3.807
55051W        W27366   2.417  38.469   3.644
55052W        W27367  12.229  37.909  13.329
55053W        W27368  16.804  37.908  10.997
55054W        W27369  40.496  29.082  13.333
55055W        W27370  20.638  24.571  13.013
55056W        W27371  40.529  26.582   2.187
55057W        W27372  30.147  10.796  11.382
55058W        W27373  30.563  36.035   4.836
55059W        W27374   9.797   1.750  10.443
55060W        W27375  19.770  15.195  14.991
55061W        W27376  34.584  24.037  11.903
55062W        W27377  41.951  16.703   3.243
55063W        W27378   3.427  27.528  12.028
55064W        W27379  18.763  30.102   9.551
55065W        W27380  17.273  11.225  14.449
55066W        W27381   9.767  22.213  12.933
55067W        W27382  29.131  11.791  10.973
55068W        W27383  18.740  30.947   9.968
55069W        W27384  10.651  33.127   2.205
55070W        W27385  20.557  15.271   1.706
55071W        W27386   5.826  25.480   3.762
55072W        W27387   3.935  21.155   1.333
55073W        W27388  14.676   8.779  12.025
55074W        W27389  38.477  21.756  14.335
55075W        W27390  25.195  13.697   0.464
55076W        W27391  32.126  36.850   2.362
55077W        W27392  24.530   9.768  14.942
55078W        W27393  37.397  14.697  13.336
55079W        W27394  21.167  44.396   4.676
55080W        W27395   0.984   9.789   1.874
55081W        W27396  16.132  43.801  13.964
55082W        W27397  18.216  21.144  10.145
55083W        W27398   2.434  20.648  13.545
55084W        W27399   5.370  20.659  11.435
55085W        W27400  40.362  34.942   0.771
55086W        W27401  15.146   8.321  11.434
55087W        W27402  42.965   5.735  12.953
55088W        W27403  24.714  32.111   1.725
55089W        W27404   5.694  28.977   3.149
55090W        W27405  34.011  32.993  11.570
55091W        W27406  13.284   5.235  12.357
55092W        W27407  17.143  25.694   4.163
55093W        W27408   5.860  12.814   1.451
55094W        W27409  39.877   0.770   3.281
55095W        W27410  23.114  39.883   4.127
55096W        W27411  40.838  37.516  14.962
55097W        W27412   9.712  28.967   0.858
55098W        W27413  23.578  25.124  14.831
55099W        W27414  30.921  10.839   0.274
55100W        W27415  38.382  23.512   4.193
55101W        W27416  26.497   0.987  11.952
55102W        W27417  19.601  11.304  10.002
55103W        W27418   2.394   5.755   4.143
55104W        W27419   1.877  33.517  13.521
55105W        W27420  44.850  23.103  12.074
55106W        W27421  19.740  38.392   2.824
55107W        W27422   1.306  42.527  11.099
55108W        W27423  19.179  30.600   1.212
55109W        W27424  36.061  14.708  13.414
55110W        W27425  15.279  38.823   3.254
55111W        W27426  13.114   3.819   1.403
55112W        W27427  28.138  29.995   3.150
55113W        W27428  34.100   6.325  10.482
55114W        W27429  18.553  22.738  11.119
55115W        W27430  34.445  16.197   3.302
55116W        W27431  13.286   5.224   1.903
55117W        W27432  15.100  26.579  14.872
55118W        W27433  31.571   8.831  10.642
55119W        W27434   9.157   3.379  14.923
55120W        W27435  28.599   8.745   4.764
55121W        W27436  21.095  32.108   3.707
55122W        W27437  44.844  24.511  12.573
55123W        W27438  33.380  23.009   1.768
55124W        W27439  40.927  35.975   2.326
55125W        W27440  36.946  17.760   3.808
55126W        W27441  29.029  44.003   1.749
55127W        W27442  22.231   8.655   3.164
55128W        W27443  36.484  42.914  13.380
55129W        W27444   4.744  43.446   3.682
55130W        W27445  43.447  19.148   1.777
55131W        W27446   1.843  16.611   4.614
55132W        W27447   9.756   4.730  10.639
55133W        W27448   4.785  15.689   2.825
55134W        W27449   4.910   5.886   3.819
55135W        W27450   2.383  44.846   0.757
55136W        W27451   7.903  20.095   0.924
55137W        W27452  43.308  40.947   3.354
55138W        W27453  32.072  39.033   0.781
55139W        W27454  25.676   3.253  10.551
55140W        W27455  32.974   7.730  12.069
55141W        W27456  38.027   5.334   1.356
55142W        W27457  39.477  32.007   0.267
55143W        W27458  15.183   6.856  12.835
55144W        W27459  15.269  28.036  14.404
55145W        W27460  27.968  16.083   4.159
55146W        W27461  29.121  40.453  11.116
55147W        W27462  33.514  31.633   2.687
55148W        W27463   5.827  14.161  12.828
55149W        W27464  20.740  31.123   3.208
55150W        W27465  21.067  40.910  11.046
55151W        W27466  43.916  13.108  13.922
55152W        W27467  17.225  33.024   0.342
55153W        W27468  32.624   4.895  14.475
55154W        W27469  33.975  12.252   2.260
55155W        W27470   3.770  30.974  13.438
55156W        W27471  25.175  24.173  14.508
55157W        W27472   3.815  33.570  14.305
55158W        W27473  16.725   0.330   0.787
55159W        W27474  37.397  35.410   4.323
55160W        W27475  22.054   4.855  11.399
55161W        W27476  24.065  43.403  14.398
55162W        W27477  44.869  27.172  13.491
55163W        W27478  33.043  10.289   0.256
55164W        W27479   8.170  28.958  14.999
55165W        W27480  17.723  32.419  11.886
55166W        W27481  39.035  19.223  14.922
55167W        W27482  29.664  43.885   4.235
55168W        W27483   4.743  22.148  12.377
55169W        W27484  43.809  39.510  12.539
55170W        W27485   3.889  19.588  12.859
55171W        W27486  22.177  11.325  14.993
55172W        W27487  26.191  13.193  11.983
55173W        W27488   4.368  37.933   2.697
55174W        W27489   2.923  19.765   4.686
55175W        W27490  40.897   8.701  14.438
55176W        W27491  15.278  39.380  11.572
55177W        W27492  25.973  38.987  12.524
55178W        W27493  21.090  36.924  13.899
55179W        W27494  19.148   3.257   2.666
55180W        W27495  37.497  44.973  14.027
55181W        W27496  20.646  26.994   1.928
55182W        W27497   9.687  22.546   4.626
55183W        W27498  22.118  19.534  12.430
55184W        W27499  14.292  28.584   3.186
55185W        W27500  29.597  41.914   1.378
55186W        W27501  17.306  25.191  14.991
55187W        W27502  44.789   8.376   2.381
55188W        W27503  25.066  33.069  12.401
55189W        W27504  14.727  38.871   1.778
55190W        W27505   6.681  30.117  13.844
55191W        W27506  20.196  31.466   4.202
55192W        W27507  14.796  31.962  10.945
55193W        W27508  25.703  37.893   3.763
55194W        W27509  34.052  36.930   3.753
55195W        W27510  37.521  15.171   2.816
55196W        W27511  16.282   7.758   2.305
55197W        W27512  41.934  33.922   4.818
55198W        W27513  24.061  41.463  14.011
55199W        W27514  40.458  15.184   2.355
55200W        W27515  40.983  22.149  14.420
55201W        W27516   9.217  32.009  10.436
55202W        W27517   8.655  41.462   4.281
55203W        W27518   9.827  28.959   4.142
55204W        W27519  14.660  28.033   0.841
55205W        W27520  37.009  25.566   4.135
55206W        W27521   5.850   6.399  10.635
55207W        W27522  17.151  19.163   0.796
55208W        W27523  25.581   0.875  11.885
55209W        W27524   4.872  37.563  11.108
55210W        W27525  18.657   4.337   0.769
55211W        W27526   8.173   4.839  12.381
55212W        W27527   4.229   1.453  11.002
55213W        W27528  32.577  26.182  11.489
55214W        W27529  24.503  36.066   0.959
55215W        W27530  24.125  17.707   2.350
55216W        W27531   8.289  11.236   1.790
55217W        W27532  11.839  10.294  11.542
55218W        W27533  28.182  24.223   1.423
55219W        W27534  20.054  39.900   3.206
55220W        W27535  15.756  37.928   4.621
55221W        W27536  11.349   0.830  14.901
55222W        W27537  38.914  27.110   2.197
55223W        W27538  34.015  43.864   2.722
55224W        W27539  29.522  11.858   5.128
55225W        W27540  42.477   1.366   0.966
55226W        W27541  17.074  10.807   4.630
55227W        W27542  11.246  44.792  11.991
55228W        W27543  22.120  33.979  12.980
55229W        W27544  14.808  11.142   0.254
55230W        W27545  38.489  40.540  10.534
55231W        W27546   8.798  32.613   3.174
55232W        W27547  32.040  12.289  11.468
55233W        W27548  28.111  32.914   1.810
55234W        W27549  20.062  16.295  10.985
55235W        W27550  40.802  18.126  13.059
55236W        W27551  12.744  14.600   2.379
55237W        W27552  36.088  11.233  12.880
55238W        W27553  24.184   0.323  13.939
55239W        W27554   1.472  14.337   3.381
55240W        W27555  26.545  16.714  13.818
55241W        W27556   9.777  14.208   2.725
55242W        W27557   5.721  11.745  13.400
55243W        W27558  15.218  20.114  13.360
55244W        W27559  34.564  35.064   3.711
55245W        W27560  29.934  32.098  11.947
55246W        W27561  30.421  19.143   4.248
55247W        W27562  41.897  14.786   4.730
55248W        W27563  24.690  40.037   0.738
55249W        W27564  14.752   3.746  10.918
55250W        W27565  43.851  39.043  13.399
55251W        W27566  14.770  44.848   3.865
55252W        W27567  17.258  25.017   2.820
55253W        W27568  43.308  10.680   0.833
55254W        W27569  29.045   6.217   4.342
55255W        W27570   2.958  21.019   2.772
55256W        W27571  31.946  34.388   2.186
55257W        W27572  16.281  36.562  13.317
55258W        W27573  39.477  29.104  14.335
55259W        W27574  22.567   7.841   3.847
55260W        W27575  18.655   3.222   1.781
55261W        W27576  20.126  10.638   5.297
55262W        W27577  39.054  19.193  13.517
55263W        W27578  36.004  15.227  11.890
55264W        W27579  39.059  26.473  10.112
55265W        W27580  42.978  35.381  13.796
55266W        W27581   7.296  24.111   4.729
55267W        W27582  14.190   6.904  13.518
55268W        W27583   5.227  29.153   4.748
55269W        W27584  15.241   4.403   1.327
55270W        W27585  28.154  41.477   0.351
55271W        W27586  31.621  35.086   0.258
55272W        W27587  37.979  31.955   4.130
55273W        W27588  20.614   2.961   3.189
55274W        W27589  10.268  20.728   2.347
55275W        W27590  17.170   7.830   1.849
55276W        W27591  27.941  31.611  12.509
55277W        W27592  27.610  20.140   1.878
55278W        W27593  18.600  33.485  10.068
55279W        W27594  30.064  15.140   0.291
55280W        W27595  30.926   3.250  10.022
55281W        W27596  22.637  38.382   3.672
55282W        W27597  15.749   6.246   3.174
55283W        W27598   5.285  27.148   3.644
55284W        W27599  25.122  22.545  13.904
55285W        W27600  30.971   8.739  12.443
55286W        W27601  42.463  17.182  11.442
55287W        W27602  37.012  21.686   1.739
55288W        W27603  24.026  15.722  10.532
55289W        W27604  10.720  15.758   3.341
55290W        W27605  21.162  25.701   2.815
55291W        W27606  26.515  33.911   5.183
55292W        W27607  42.286  18.229  10.437
55293W        W27608  14.232  20.045  10.548
55294W        W27609   2.409  10.174  14.904
55295W        W27610  16.801  16.777  12.427
55296W        W27611  31.481   0.347  10.967
55297W        W27612  37.916  21.222  14.469
55298W        W27613  22.144  13.128  10.544
55299W        W27614  34.463   5.880  12.525
55300W        W27615   4.239  13.687   3.846
55301W        W27616  32.031   1.408  14.018
55302W        W27617  11.237  20.749   2.691
55303W        W27618  11.335  28.436   1.892
55304W        W27619  37.385  15.731   2.275
55305W        W27620   6.722  10.353   0.881
55306W        W27621  39.028  33.013   1.244
55307W        W27622   2.840  34.102  12.873
55308W        W27623  32.402  30.630  13.009
55309W        W27624  26.151  40.483   2.258
55310W        W27625  12.618   5.400   3.181
55311W        W27626   5.214  27.070  14.009
55312W        W27627  31.040   1.935  14.509
55313W        W27628   9.328  15.613  10.120
55314W        W27629  12.808  18.230  13.367
55315W        W27630  25.988  32.547   5.087
55316W        W27631  38.832  12.121  13.855
55317W        W27632  25.028  32.404  13.894
55318W        W27633  20.698  38.984  11.538
55319W        W27634   7.666  17.239   2.878
55320W        W27635  30.988  24.090   2.313
55321W        W27636  26.144  19.604   1.241
55322W        W27637   4.866  11.703   5.188
55323W        W27638   8.828  37.873  14.821
55324W        W27639  11.311  14.653  11.542
55325W        W27640  10.636  17.768  14.871
55326W        W27641  17.186  26.012  13.004
55327W        W27642  33.919  23.538  10.446
55328W        W27643   8.207   5.267   0.815
55329W        W27644  40.051  27.572   4.280
55330W        W27645  24.646  35.374  14.953
55331W        W27646  40.351  32.418   4.231
55332W        W27647   1.433  20.689  12.543
55333W        W27648  25.518  17.161  11.962
55334W        W27649  29.470  25.680   0.347
55335W        W27650  16.779  40.896   0.330
55336W        W27651  24.175  10.718   0.929
55337W        W27652  27.482  22.127   0.286
55338W        W27653  29.965  25.013  13.993
55339W        W27654   1.310  38.971   3.308
55340W        W27655  36.558  15.101  10.512
55341W        W27656  19.061  11.672  14.931
55342W        W27657  34.058  21.064  11.984
55343W        W27658  42.301  13.240   1.285
55344W        W27659   8.843  30.969   4.654
55345W        W27660  20.165  15.193   3.817
55346W        W27661  43.348  13.165   2.821
55347W        W27662  19.221   1.400  11.057
55348W        W27663  42.500  16.163  14.351
55349W        W27664  20.569  44.345   0.391
55350W        W27665  13.342   1.833   1.775
55351W        W27666  35.514  35.562   4.655
55352W        W27667  35.518   0.320  12.352
55353W        W27668  24.177   8.852  11.928
55354W        W27669  22.524   1.328   0.844
55355W        W27670  11.752  22.143   4.677
55356W        W27671   6.226   0.826   4.662
55357W        W27672  16.316  29.987   9.971
55358W        W27673   9.334  12.335  13.399
55359W        W27674  16.765  36.949   4.748
55360W        W27675  35.926  27.657  11.457
55361W        W27676  28.543  29.932  11.936
55362W        W27677  27.028  27.192  12.569
55363W        W27678  14.305  35.909   3.695
55364W        W27679  10.186  42.800  14.395
55365W        W27680  40.885  10.273   4.622
55366W        W27681  13.218   9.645   0.802
55367W        W27682  20.606  20.093   2.352
55368W        W27683  35.079  43.441   3.183
55369W        W27684  23.229   5.739  12.024
55370W        W27685   4.417  41.476  11.887
55371W        W27686  20.611   5.230   4.733
55372W        W27687  16.807  14.100  10.451
55373W        W27688   7.328   6.216   2.237
55374W        W27689  40.524  42.338   3.661
55375W        W27690  33.415  23.012  14.375
55376W        W27691   9.250  32.141  13.854
55377W        W27692  16.792  24.094  13.013
55378W        W27693  31.929  23.525  10.497
55379W        W27694  21.515   6.387   3.171
55380W        W27695  41.411  23.716  11.373
55381W        W27696  23.566  22.633  14.915
55382W        W27697  18.086   9.849  12.482
55383W        W27698  30.983   3.388  11.025
55384W        W27699  24.006   8.770  14.918
55385W        W27700  12.622  28.551   1.301
55386W        W27701  11.868   4.432   3.775
55387W        W27702  29.161  14.782   0.824
55388W        W27703   2.766  39.922  14.421
55389W        W27704  44.478  23.118   2.664
55390W        W27705  41.801  13.688   3.820
55391W        W27706  20.075  30.968  11.511
55392W        W27707  41.415  43.996   1.764
55393W        W27708   7.770   6.917   2.358
55394W        W27709  11.237  41.831   0.902
55395W        W27710  10.759  11.821  13.454
55396W        W27711  10.361  35.877  11.576
55397W        W27712  42.921  22.669   5.126
55398W        W27713  31.621   4.830   3.823
55399W        W27714  19.678   6.390   3.867
55400W        W27715   0.423   0.764   0.254
55401W        W27716  12.226  14.158   2.362
55402W        W27717   0.383  13.338   3.862
55403W        W27718  13.138  26.686   4.818
55404W        W27719  33.993  40.404   1.341
55405W        W27720  31.569  28.522  10.954
55406W        W27721  39.987  12.146  12.350
55407W        W27722  11.311  24.526  12.491
55408W        W27723  27.561  21.706   3.290
55409W        W27724  19.099  12.725  14.354
55410W        W27725  42.382  44.372   2.713
55411W        W27726  33.445   5.689  12.923
55412W        W27727  20.230  24.151   4.253
55413W        W27728   8.309  42.403   1.732
55414W        W27729  24.159  12.618  11.032
55415W        W27730   3.915   8.774  13.388
55416W        W27731  38.056  13.719  12.957
55417W        W27732  40.523   1.960  14.001
55418W        W27733  22.591  16.113  14.919
55419W        W27734  28.584  19.667  13.974
55420W        W27735  21.644  21.198  14.501
55421W        W27736  41.012  24.707  12.891
55422W        W27737  15.602  43.458   2.327
55423W        W27738  35.934   5.830  11.587
55424W        W27739  33.415  11.769   5.146
55425W        W27740  11.854  16.155  10.548
55426W        W27741  30.589  37.061   1.347
55427W        W27742  29.103  17.237  12.519
55428W        W27743  15.732   5.792  12.463
55429W        W27744  34.973  15.699   3.681
55430W        W27745  29.001  39.864   0.738
55431W        W27746   6.707  27.634   2.242
55432W        W27747   3.809   2.459   0.875
55433W        W27748  26.103  28.024  11.109
55434W        W27749  36.020  24.568   4.704
55435W        W27750   9.798   7.829   0.897
55436W        W27751  14.215  44.370   5.098
55437W        W27752  22.197  37.043  13.801
55438W        W27753   6.816  18.291   3.262
55439W        W27754  26.637  35.467   1.799
55440W        W27755  11.230  40.433  10.932
55441W        W27756  28.035   0.270   1.423
55442W        W27757  35.454  39.446   0.835
55443W        W27758  16.624  36.915  11.929
55444W        W27759  36.441  39.479   0.287
55445W        W27760  12.148  11.299   0.325
55446W        W27761  19.050  21.700  11.418
55447W        W27762   6.777  26.101  12.882
55448W        W27763  16.171   0.829  13.794
55449W        W27764  16.792  26.191  13.396
55450W        W27765   6.857  37.002   4.637
55451W        W27766  14.180  15.294  11.116
55452W        W27767  29.135   6.756   3.652
55453W        W27768  14.308   9.267   3.275
55454W        W27769  35.414  20.538  12.845
55455W        W27770   4.365  32.409  13.369
55456W        W27771   2.389  43.283   4.171
55457W        W27772   4.356  14.677  11.031
55458W        W27773   9.662   2.389  10.573
55459W        W27774  36.915   4.853   3.687
55460W        W27775  10.861  25.663   0.397
55461W        W27776  40.995   1.732  14.985
55462W        W27777  40.500  33.585   1.370
55463W        W27778  22.524  41.382  11.971
55464W        W27779  17.295  33.501  11.106
55465W        W27780  31.425  26.082   0.449
55466W        W27781  35.868   2.257   1.787
55467W        W27782  15.138  29.978  13.912
55468W        W27783  18.264   9.710  11.884
55469W        W27784   6.915  36.960   2.777
55470W        W27785   8.710  33.506   3.191
55471W        W27786  39.428  31.584  11.434
55472W        W27787  17.187  30.652  14.326
55473W        W27788   4.277  21.165  14.346
55474W        W27789  33.926  38.969   3.783
55475W        W27790   7.758  21.122  12.872
55476W        W27791   1.393  36.529   0.791
55477W        W27792  18.567  40.504  10.623
55478W        W27793  42.983   3.910   4.694
55479W        W27794  38.451  24.561  14.988
55480W        W27795  36.945   3.264  12.075
55481W        W27796   7.393  39.508  12.055
55482W        W27797  15.242  25.084  13.504
55483W        W27798  15.690  19.750   4.672
55484W        W27799  43.297  23.024  12.900
55485W        W27800   4.395  41.402  11.088
55486W        W27801   4.385  36.441  12.563
55487W        W27802   3.893  12.768  10.997
55488W        W27803   7.273   1.250   3.202
55489W        W27804  18.094  40.804  12.484
55490W        W27805   2.927   1.843  13.855
55491W        W27806  14.633  39.378  12.082
55492W        W27807   2.759  14.169  13.882
55493W        W27808  37.848  21.549  12.881
55494W        W27809  44.337  24.104  10.430
55495W        W27810   1.477   2.902  12.920
55496W        W27811   0.307  25.137   0.944
55497W        W27812   8.886  19.174  10.493
55498W        W27813  27.952  34.865   2.309
55499W        W27814   1.793  31.538   4.727
55500W        W27815   6.688  18.564   4.740
55501W        W27816  19.111  27.459  14.900
55502W        W27817   7.201  14.276  14.902
55503W        W27818  38.024   8.396   3.284
55504W        W27819   4.869  14.307   3.152
55505W        W27820  40.966   1.270  12.972
55506W        W27821   1.927  12.726  14.430
55507W        W27822  43.879   3.764   4.721
55508W        W27823  14.640  37.954  13.451
55509W        W27824  14.825  23.519  11.885
55510W        W27825  41.504  30.079  11.902
55511W        W27826  36.559  40.472   3.678
55512W        W27827  16.647  31.447  10.968
55513W        W27828   1.820  22.999   3.283
55514W        W27829  40.828   3.754   1.726
55515W        W27830  25.219  32.908   2.340
55516W        W27831   1.829  34.887  11.494
55517W        W27832  21.610  22.229  13.478
55518W        W27833   9.674  44.755  13.896
55519W        W27834  23.067  43.011  11.469
55520W        W27835   7.676  22.552   5.148
55521W        W27836  34.933   6.846   4.173
55522W        W27837  40.386  18.763   0.415
55523W        W27838  11.344  13.803  11.489
55524W        W27839  18.189  18.141  13.870
55525W        W27840  23.683  40.358  10.619
55526W        W27841  39.941  14.597  14.339
55527W        W27842  15.314  38.894   1.381
55528W        W27843  28.566  30.929  12.861
55529W        W27844   6.342   3.270   1.280
55530W        W27845  15.194  27.151  14.796
55531W        W27846  38.966  26.502   3.739
55532W        W27847  22.128  39.853   4.235
55533W        W27848  30.979  14.652  14.936
55534W        W27849   4.719   9.690  11.094
55535W        W27850   4.928  18.072   9.955
55536W        W27851  32.622  12.718   1.446
55537W        W27852  13.234  11.623  13.028
55538W        W27853   6.406  26.000  10.441
55539W        W27854  19.171  16.622  13.928
55540W        W27855  11.866  26.594   0.745
55541W        W27856  25.112  39.349  13.970
55542W        W27857  30.608  32.586  14.915
55543W        W27858  16.274  31.953  11.529
55544W        W27859  44.474  23.538   0.466
55545W        W27860  33.878   1.767  13.872
55546W        W27861  41.838  12.199   1.803
55547W        W27862   5.905  24.502  12.881
55548W        W27863  43.290  22.646   1.228
55549W        W27864  11.681   6.809  12.414
55550W        W27865   8.353  11.151   0.422
55551W        W27866  29.666  44.876  14.284
55552W        W27867  26.996  43.863  10.638
55553W        W27868  32.946   5.721   1.756
55554W        W27869  40.994  30.611  11.095
55555W        W27870  35.537  13.756   0.315
55556W        W27871  18.159  11.200  13.478
55557W        W27872   9.266   7.841   3.727
55558W        W27873   0.823  44.293  14.028
55559W        W27874  21.545  27.088  10.633
55560W        W27875  15.193  17.247   4.235
55561W        W27876   0.311  30.907  11.957
55562W        W27877  18.569  23.055  13.527
55563W        W27878  27.058   8.778  14.339
55564W        W27879  25.582  40.976  13.051
55565W        W27880  18.109  21.250   4.819
55566W        W27881  26.613   5.848   1.257
55567W        W27882  16.731  41.851   0.313
55568W        W27883   6.300  33.511   0.443
55569W        W27884  43.347  14.208  12.518
55570W        W27885  21.708  18.678   1.433
55571W        W27886  10.808  12.810   4.311
55572W        W27887   2.900  33.024   2.375
55573W        W27888  34.097  21.558   0.850
55574W        W27889  11.747  22.124  13.323
55575W        W27890  37.403  10.302   1.365
55576W        W27891  30.091  21.231   3.732
55577W        W27892  22.229  31.647  10.474
55578W        W27893   1.412  18.625   2.676
55579W        W27894  20.589  38.526   4.629
55580W        W27895  36.957  10.734  11.446
55581W        W27896   4.325  37.976   1.266
55582W        W27897  43.920   5.829  10.555
55583W        W27898  18.070  26.487  11.601
55584W        W27899   8.396  19.703   0.749
55585W        W27900  20.741  39.992  10.617
55586W        W27901  32.930  26.578  12.022
55587W        W27902  34.395  28.530  14.871
55588W        W27903  38.873  21.666  12.066
55589W        W27904  35.593  33.957   0.405
55590W        W27905  23.172  43.764   3.372
55591W        W27906   3.737  29.460  13.884
55592W        W27907   8.371   3.801  11.086
55593W        W27908  14.200  22.171  13.321
55594W        W27909  41.820   7.335   2.768
55595W        W27910  11.150  29.526  11.505
55596W        W27911   2.966  29.985   0.456
55597W        W27912  14.217  19.659   2.212
55598W        W27913  20.260  11.298   1.780
55599W        W27914  30.045  44.763   4.256
55600W        W27915  31.644   7.764  13.844
55601W        W27916  24.182  30.540   2.342
55602W        W27917   1.252  42.874   3.629
55603W        W27918   6.191  43.452   0.754
55604W        W27919  41.989  13.133  11.586
55605W        W27920  41.457  16.211  12.982
55606W        W27921  10.843  27.947   0.433
55607W        W27922  39.404  14.713   4.664
55608W        W27923   8.824  39.497  10.572
55609W        W27924  13.127   1.467  12.451
55610W        W27925  29.484  38.981   5.260
55611W        W27926  34.516  41.306   2.367
55612W        W27927  20.625  42.282  12.368
55613W        W27928  24.566  28.948  14.769
55614W        W27929   6.903   1.733   3.347
55615W        W27930   9.737  28.109   0.945
55616W        W27931  35.995  44.951  12.938
55617W        W27932  17.291  17.761   3.676
55618W        W27933  20.179  29.445   3.319
55619W        W27934  24.196  29.527   4.136
55620W        W27935   9.288  20.523  12.499
55621W        W27936  28.027  36.993  12.083
55622W        W27937  13.651  41.820   4.260
55623W        W27938   5.828  42.407  13.922
55624W        W27939  28.536  38.844  11.015
55625W        W27940  29.513  28.560  14.287
55626W        W27941   3.949  14.249   4.280
55627W        W27942   5.298  10.288  11.415
55628W        W27943   4.831  32.598  11.993
55629W        W27944  36.975  19.746   0.799
55630W        W27945  25.575  18.101  10.472
55631W        W27946  23.591  43.793   3.765
55632W        W27947  15.638   4.277  11.390
55633W        W27948  35.942   6.868   1.928
55634W        W27949  16.716   9.773   2.745
55635W        W27950  35.505  44.908   4.621
55636W        W27951  18.779  42.320  13.793
55637W        W27952  14.199  32.064   4.324
55638W        W27953  24.625  31.536  13.832
55639W        W27954   4.414   0.404  13.410
55640W        W27955  44.898   7.384   0.741
55641W        W27956   4.924  38.334  13.530
55642W        W27957   7.844  33.512  14.998
55643W        W27958  40.384  11.844   2.792
55644W        W27959  24.603  44.426   4.190
55645W        W27960   1.315  24.492   3.151
55646W        W27961  13.700  38.556   0.930
55647W        W27962  25.046  34.892   5.099
55648W        W27963  28.059  13.787   2.888
55649W        W27964  40.353   7.265   0.482
55650W        W27965  34.581  23.226   2.863
55651W        W27966  32.984   7.195   3.646
55652W        W27967  38.352  17.706  13.338
55653W        W27968  39.916  42.937  13.491
55654W        W27969   8.747  34.562   1.833
55655W        W27970  27.502  36.462  12.474
55656W        W27971  37.988  28.544  12.364
55657W        W27972   4.880  38.070   1.336
55658W        W27973  32.925  10.226   2.316
55659W        W27974  36.016  40.526   2.845
55660W        W27975  29.160  21.716   0.857
55661W        W27976  39.896  26.137  13.995
55662W        W27977  18.112   1.334  12.409
55663W        W27978  14.827   6.228   0.734
55664W        W27979  12.655  37.003   4.348
55665W        W27980  38.943  16.809   2.847
55666W        W27981  27.520  33.916  12.993
55667W        W27982  29.482  19.143   2.808
55668W        W27983  19.665  28.934  13.877
55669W        W27984  13.779  13.806  11.516
55670W        W27985  30.428  44.472  12.009
55671W        W27986  29.502  27.102  14.025
55672W        W27987   5.818  35.530  13.803
55673W        W27988   3.861  42.497   1.900
55674W        W27989  19.735  26.541  12.344
55675W        W27990  18.748   2.273   0.301
55676W        W27991  14.707  28.998   5.216
55677W        W27992  21.741  14.149   0.300
55678W        W27993  21.136   1.823   1.811
55679W        W27994  10.277   6.729  14.505
55680W        W27995  31.408   5.385  13.823
55681W        W27996   9.783   4.250  13.856
55682W        W27997  23.044  33.101   1.806
55683W        W27998  21.237  13.784   0.453
55684W        W27999  36.424  35.964   0.446
55685W        W28000  16.764  14.700  11.573
55686W        W28001   7.734  44.329   2.283
55687W        W28002  14.106  31.916   2.395
55688W        W28003  37.000  16.680   4.699
55689W        W28004   5.297   0.962   1.256
55690W        W28005  11.790  41.350   2.797
55691W        W28006  23.734   8.246   3.801
55692W        W28007  38.364  40.855  13.923
55693W        W28008   0.762  36.969  10.428
55694W        W28009  43.021  35.568  10.984
55695W        W28010  32.619  18.722   1.803
55696W        W28011  31.951  41.906  14.805
55697W        W28012  28.135  23.162  11.078
55698W        W28013   5.277  41.525   3.373
55699W        W28014  22.619  40.445   3.856
55700W        W28015  30.149  18.282   1.246
55701W        W28016  25.703  17.191   4.119
55702W        W28017   9.716  36.929  12.892
55703W        W28018  33.079  34.568  13.920
55704W        W28019  42.894  13.280  11.574
55705W        W28020  25.052  33.969  10.956
55706W        W28021  11.868   6.284  11.901
55707W        W28022  13.302  21.751   4.599
55708W        W28023  43.449  25.517   3.191
55709W        W28024   3.740  24.981   2.858
55710W        W28025   1.938  24.709  11.102
55711W        W28026  33.087   5.240   2.254
55712W        W28027  16.634  16.775  14.934
55713W        W28028  30.540  34.095  13.905
55714W        W28029  16.097   3.286   3.795
55715W        W28030  15.803  39.371   3.662
55716W        W28031  39.864  41.963  13.826
55717W        W28032  36.449  19.690  13.310
55718W        W28033  29.450  29.613   0.392
55719W        W28034  12.655  32.971   2.343
55720W        W28035  36.960  42.394   2.383
55721W        W28036  34.028  27.079  11.567
55722W        W28037  42.901  31.513   1.412
55723W        W28038  19.235  12.728   3.231
55724W        W28039  42.343  23.574   1.414
55725W        W28040  39.365  24.043   1.401
55726W        W28041  32.922   4.719  11.075
55727W        W28042  15.601   9.229  12.049
55728W        W28043   3.859   1.905   0.765
55729W        W28044  32.615  25.059   2.712
55730W        W28045  19.124  21.156  10.532
55731W        W28046  34.048  32.438   4.692
55732W        W28047   5.292  29.134   3.180
55733W        W28048  25.999  31.645   1.289
55734W        W28049  40.470  21.127  12.430
55735W        W28050  42.329  43.768   0.274
55736W        W28051  13.761   2.853   1.298
55737W        W28052  22.587   4.311  14.843
55738W        W28053  13.286  41.412  14.773
55739W        W28054   5.703  39.474  14.938
55740W        W28055  22.160  43.443  14.506
55741W        W28056  24.722  28.981   2.846
55742W        W28057  28.184  12.258   4.610
55743W        W28058  26.066   6.183  13.997
55744W        W28059  43.792  41.309   2.252
55745W        W28060  39.965  41.987   4.605
55746W        W28061  38.442  18.653   2.899
55747W        W28062  27.496  23.161  12.925
55748W        W28063  34.060  26.152  10.998
55749W        W28064  32.497  38.369  14.351
55750W        W28065  29.567  13.264   2.301
55751W        W28066  32.026  40.541   2.197
55752W        W28067  18.658  38.331   3.211
55753W        W28068   5.278   1.905   3.722
55754W        W28069  40.801  18.065   4.721
55755W        W28070  10.326  27.149   0.792
55756W        W28071  43.882  31.923   0.432
55757W        W28072  13.730  16.241   2.188
55758W        W28073  34.909   8.787   0.954
55759W        W28074   7.700  29.623   3.284
55760W        W28075   8.269   3.324   0.791
55761W        W28076  43.987   4.858  13.338
55762W        W28077  43.426  20.596  11.965
55763W        W28078   9.272  23.018   3.277
55764W        W28079  34.495   3.741   0.927
55765W        W28080  22.038  20.112   2.316
55766W        W28081   5.744  33.381  13.029
55767W        W28082  41.310  15.239   4.153
55768W        W28083  26.046  41.532  11.420
55769W        W28084  19.042   4.212  11.504
55770W        W28085  33.906   9.210  13.951
55771W        W28086  28.032   6.270   2.831
55772W        W28087  22.126   3.359  14.307
55773W        W28088  44.955  11.646   3.176
55774W        W28089  30.527  31.090   0.325
55775W        W28090  35.950  30.929   4.339
55776W        W28091  10.326  43.828   3.149
55777W        W28092  34.405  29.021  11.455
55778W        W28093   1.325  29.504  12.856
55779W        W28094  13.248  41.006   2.215
55780W        W28095  34.908   3.803   3.721
55781W        W28096  43.874   6.219   4.821
55782W        W28097  33.559  10.382   3.651
55783W        W28098  32.005   4.244  10.585
55784W        W28099  24.648  30.644   1.834
55785W        W28100  28.051  17.074   0.356
55786W        W28101   6.264  34.447   1.361
55787W        W28102  42.479  43.968  11.064
55788W        W28103  12.701   9.884  11.381
55789W        W28104   2.281  40.966  12.090
55790W        W28105  38.418   3.357   2.368
55791W        W28106  41.870  10.261  11.979
55792W        W28107  29.644  38.960   2.884
55793W        W28108  33.930  25.566  14.899
55794W        W28109  31.072   6.862   4.836
55795W        W28110  16.118  28.487   1.262
55796W        W28111  29.471   4.233  11.592
55797W        W28112  23.540  15.249  13.468
55798W        W28113  12.755  23.989   1.724
55799W        W28114  12.270   3.889  11.435
55800W        W28115  29.504   8.892   0.476
55801W        W28116  42.427  14.711  11.026
55802W        W28117  40.873  28.479   2.724
55803W        W28118   0.266  33.092   3.205
55804W        W28119  27.119  12.768   1.329
55805W        W28120  14.159  10.853  11.442
55806W        W28121  20.108  25.504   2.384
55807W        W28122  36.077  39.314  12.040
55808W        W28123   8.666  38.549  14.019
55809W        W28124  19.741  20.616  12.084
55810W        W28125  39.461  40.007  11.574
55811W        W28126  29.085  13.778   1.792
55812W        W28127  14.235  27.032  11.867
55813W        W28128   4.367  38.538   4.196
55814W        W28129  37.472   5.304   1.430
55815W        W28130  32.567  37.397  11.884
55816W        W28131  21.636  39.392  11.397
55817W        W28132  11.704  36.426   2.836
55818W        W28133   4.734   9.742  12.830
55819W        W28134   6.232  35.081   0.481
55820W        W28135  41.344  42.324   0.819
55821W        W28136  18.109  44.437   3.630
55822W        W28137  24.120   0.760   2.331
55823W        W28138  38.383  20.672   0.781
55824W        W28139  11.810  11.797   2.751
55825W        W28140   5.799   3.834  11.416
55826W        W28141   2.813  31.601  13.867
55827W        W28142  43.921   6.391  13.509
55828W        W28143   1.373  12.117  10.113
55829W        W28144  42.920  10.732   1.851
55830W        W28145  31.048  21.520  12.051
55831W        W28146  24.510  15.670  14.772
55832W        W28147  27.569   0.369  14.337
55833W        W28148   8.220  23.549   3.819
55834W        W28149  29.474  24.563   4.122
55835W        W28150  43.282  10.200  10.606
55836W        W28151  27.587  29.547  13.812
55837W        W28152  24.976   5.892   4.287
55838W        W28153  43.378  42.026  11.395
55839W        W28154   6.269  17.101   0.432
55840W        W28155  11.770  13.322   1.244
55841W        W28156  15.716   3.857  11.511
55842W        W28157  19.100  18.614  13.823
55843W        W28158  17.185   4.915   1.711
55844W        W28159   0.854  43.368  12.917
55845W        W28160  12.810   9.208   1.710
55846W        W28161  11.364   3.765  11.959
55847W        W28162  27.552  40.852   2.404
55848W        W28163  21.519   9.202  12.040
55849W        W28164  19.281  18.156  14.895
55850W        W28165  30.588  16.172  14.449
55851W        W28166   0.400   6.730  14.466
55852W        W28167  24.097   2.326   4.809
55853W        W28168  17.735   1.258  13.811
55854W        W28169  15.267  34.561  11.951
55855W        W28170  42.912  29.157   2.665
55856W        W28171   7.900   6.185   2.788
55857W        W28172  30.065   5.704  11.985
55858W        W28173  39.324  24.697  11.604
55859W        W28174  34.984   1.350  14.275
55860W        W28175   0.901   4.934   4.121
55861W        W28176  16.759  15.756   2.718
55862W        W28177   3.320  35.953   2.312
55863W        W28178  11.336  16.118   4.141
55864W        W28179  34.391  19.575  14.471
55865W        W28180  34.892   2.249  14.888
55866W        W28181  18.672  29.086   3.205
55867W        W28182  26.558  37.516   3.192
55868W        W28183  37.064  30.467   4.647
55869W        W28184  26.495  32.992   0.385
55870W        W28185  29.541  23.566  10.934
55871W        W28186   8.216   9.820  11.071
55872W        W28187  33.545   1.906   4.351
55873W        W28188  18.247  32.096  12.825
55874W        W28189  39.450   4.851  14.364
55875W        W28190  16.736  18.234   1.339
55876W        W28191   4.759  16.314  11.987
55877W        W28192   2.875  14.823   4.834
55878W        W28193   4.822  37.010  10.613
55879W        W28194  38.409  15.602   4.305
55880W        W28195  41.915  39.062   1.345
55881W        W28196  24.179   1.308  13.325
55882W        W28197  42.463  17.662  13.921
55883W        W28198  11.358   6.236  11.893
55884W        W28199  44.310  11.269  11.560
55885W        W28200  37.962  23.505  14.973
55886W        W28201  15.193   5.290  11.969
55887W        W28202  34.412  10.147   2.256
55888W        W28203  11.753  38.072  14.370
55889W        W28204  14.234  24.538  13.410
55890W        W28205  22.213  34.912   1.405
55891W        W28206  15.680  16.117   1.839
55892W        W28207   2.374  29.559   4.662
55893W        W28208  42.288  37.087   0.449
55894W        W28209  26.563  18.065  12.852
55895W        W28210   5.255  26.167  14.410
55896W        W28211  31.152  38.971  11.450
55897W        W28212  31.519   6.199   1.227
55898W        W28213  21.627  32.528   2.215
55899W        W28214  37.918  21.196   2.394
55900W        W28215  31.058  44.977  14.499
55901W        W28216  21.258  40.048  14.347
55902W        W28217  28.096  12.283   0.292
55903W        W28218  19.631  42.959  13.944
55904W        W28219   2.957  43.323  12.489
55905W        W28220  13.195  25.065   3.786
55906W        W28221  27.138  39.546  11.462
55907W        W28222  21.682  31.135   0.770
55908W        W28223  30.614  13.845   2.370
55909W        W28224  31.410   2.375  13.959
55910W        W28225   8.823  29.542   2.317
55911W        W28226  35.488   1.913   0.789
55912W        W28227   2.967   6.189   2.802
55913W        W28228  28.058  27.556  10.084
55914W        W28229   9.867  20.260   4.625
55915W        W28230  28.487  31.551   5.613
55916W        W28231  24.011   5.409  13.965
55917W        W28232  32.003   2.363  12.027
55918W        W28233  43.955  36.094  11.540
55919W        W28234   5.860  37.403  13.962
55920W        W28235  38.411   3.934  10.426
55921W        W28236  17.172   4.717   5.199
55922W        W28237  15.113  39.373   3.177
55923W        W28238  22.170  21.212   2.329
55924W        W28239  33.042  37.865   1.762
55925W        W28240  30.654  23.192  13.831
55926W        W28241  32.466  36.931  14.446
55927W        W28242  14.273  28.467  12.559
55928W        W28243  23.516  30.124  13.313
55929W        W28244  15.683  44.845  10.975
55930W        W28245  32.029  30.640  12.975
55931W        W28246  29.143  41.479   1.244
55932W        W28247  10.768  38.866  11.376
55933W        W28248   9.341  22.129   4.251
55934W        W28249  35.544   9.760  10.486
55935W        W28250  18.076  26.561  14.832
55936W        W28251   1.952  36.953   3.700
55937W        W28252  24.076  38.035  13.397
55938W        W28253  37.446   8.778   0.939
55939W        W28254  18.268   0.862  13.310
55940W        W28255  18.639  11.847   0.427
55941W        W28256   1.482  17.144   1.770
55942W        W28257  35.383  26.018   1.786
55943W        W28258  13.187  13.738   4.634
55944W        W28259  36.357   2.869  14.027
55945W        W28260  20.053  30.157  12.882
55946W        W28261  30.553  32.512  13.378
55947W        W28262  38.404  32.113   4.275
55948W        W28263  35.500  14.626  13.805
55949W        W28264  32.060  12.823   3.713
55950W        W28265  36.023  39.840   1.221
55951W        W28266   5.209  28.559   4.343
55952W        W28267  25.044  37.388  10.410
55953W        W28268  26.658  41.492   0.427
55954W        W28269  39.853  25.698   3.790
55955W        W28270  16.119  15.756   1.252
55956W        W28271  18.221   9.266   0.841
55957W        W28272   6.830  36.080  12.945
55958W        W28273  11.742  27.101   2.272
55959W        W28274  30.448   3.410   1.396
55960W        W28275  42.931   4.426   0.835
55961W        W28276   4.427  25.998   1.434
55962W        W28277  32.887  39.438  11.041
55963W        W28278   7.246   9.173  14.829
55964W        W28279  35.476  42.438   2.871
55965W        W28280  42.420  37.932  14.306
55966W        W28281   8.179  22.714  13.940
55967W        W28282  41.880  12.717  14.340
55968W        W28283  36.456  22.033  14.834
55969W        W28284  37.457  19.642   4.741
55970W        W28285  24.137  42.893  11.005
55971W        W28286  16.240  41.406  13.835
55972W        W28287  38.937  14.168  10.129
55973W        W28288  10.209   7.393   4.598
55974W        W28289   4.870   9.161   3.174
55975W        W28290  11.723  17.205   0.726
55976W        W28291  25.163  19.590   0.809
55977W        W28292  44.761   4.700   0.939
55978W        W28293  32.078  33.581   4.271
55979W        W28294  22.244  30.062  14.923
55980W        W28295  15.217  13.220  11.013
55981W        W28296  19.235  18.646  10.644
55982W        W28297  15.241  21.158  13.459
55983W        W28298   2.423  15.600   4.795
55984W        W28299  20.606   2.939  12.912
55985W        W28300  33.379  39.361   1.234
55986W        W28301  13.629  41.797  11.552
55987W        W28302  15.739  26.475  11.437
55988W        W28303  19.055  36.362  14.998
55989W        W28304  43.464  29.579  14.768
55990W        W28305  22.699   7.397   2.276
55991W        W28306  27.566   3.439   3.835
55992W        W28307  13.193  26.022  14.397
55993W        W28308  40.397  12.787   0.410
55994W        W28309  29.660  28.942  12.850
55995W        W28310   5.353   5.843   3.322
55996W        W28311  16.661  37.044   2.344
55997W        W28312  42.952   4.764   0.867
55998W        W28313  37.884  25.707   3.750
55999W        W28314  37.922  43.848  14.886
56000W        W28315  34.900  20.183   4.740
56001W        W28316  31.612   6.714   2.187
56002W        W28317   9.773  29.143   1.254
56003W        W28318   1.366  37.835  14.358
56004W        W28319   0.966  19.560   2.336
56005W        W28320   1.798  43.845  12.390
56006W        W28321   7.178  17.150   3.285
56007W        W28322  35.507  12.759  12.933
56008W        W28323  25.009  13.137  14.482
56009W        W28324   7.737   2.853   0.318
56010W        W28325  30.461   3.885   1.402
56011W        W28326   8.693  40.817  11.991
56012W        W28327  40.438   2.757   4.226
56013W        W28328  22.068   5.927  12.994
56014W        W28329   3.720  17.143   0.792
56015W        W28330   8.370  20.526  12.998
56016W        W28331  17.246  32.022  11.066
56017W        W28332   9.652  21.570   3.150
56018W        W28333  44.802  23.058  12.399
56019W        W28334  13.803  14.272   2.227
56020W        W28335  15.607  36.010   3.223
56021W        W28336  14.756  30.953   4.681
56022W        W28337  10.662   7.292  10.604
56023W        W28338  38.823   4.282   3.157
56024W        W28339   3.454  38.944  12.859
56025W        W28340  24.139  29.095  10.116
56026W        W28341  11.711   4.224   3.290
56027W        W28342  43.786  19.180  11.967
56028W        W28343  20.152  19.533  13.051
56029W        W28344  28.580   4.765  12.941
56030W        W28345  19.125   5.268  10.546
56031W        W28346  42.846   4.271  14.343
56032W        W28347   5.734  18.776  12.451
56033W        W28348  24.125  35.054   5.110
56034W        W28349  26.126  29.426   1.382
56035W        W28350  11.736  43.342   0.790
56036W        W28351  14.597  30.644  12.993
56037W        W28352  24.011  16.784   0.855
56038W        W28353   3.226  39.885  14.445
56039W        W28354   0.408   1.966   2.796
56040W        W28355   8.690  22.552   1.842
56041W        W28356  39.026  11.246   2.789
56042W        W28357  26.514  10.321   4.682
56043W        W28358  43.927  39.380   2.316
56044W        W28359  42.381  36.998   0.892
56045W        W28360  17.578   0.292   2.892
56046W        W28361  34.476  32.933  11.987
56047W        W28362  41.392   8.854  13.827
56048W        W28363  35.966  41.338   3.287
56049W        W28364  18.678  13.626  11.914
56050W        W28365  40.856  38.488   1.701
56051W        W28366   6.845  23.696   2.874
56052W        W28367  24.213  25.199  12.084
56053W        W28368  21.710  30.504  11.428
56054W        W28369  38.863  13.762   0.781
56055W        W28370  28.171   7.299   3.735
56056W        W28371  40.949  10.273   0.848
56057W        W28372   9.363  30.505  12.998
56058W        W28373   7.755   6.738  12.432
56059W        W28374  39.517   1.888  11.381
56060W        W28375  12.646  31.033  12.954
56061W        W28376  11.298  23.055   3.352
56062W        W28377  40.497  23.535   4.714
56063W        W28378   0.908   9.845  10.051
56064W        W28379  18.619  37.972  10.022
56065W        W28380  23.676  22.739   1.216
56066W        W28381  37.993  18.144  10.990
56067W        W28382  34.615  11.638  12.543
56068W        W28383  18.188  27.534  11.872
56069W        W28384  40.849  44.431  10.467
56070W        W28385   6.769  18.114   0.472
56071W        W28386  27.604  13.252   0.334
56072W        W28387  23.217  22.183   1.853
56073W        W28388  31.584   6.885   1.867
56074W        W28389  29.069  15.701  14.890
56075W        W28390  43.009  39.388   3.370
56076W        W28391  33.005  39.498  12.049
56077W        W28392  29.127  39.514   4.712
56078W        W28393  36.929  27.952  10.537
56079W        W28394  29.094  19.166   1.373
56080W        W28395  42.932  38.568   3.232
56081W        W28396   4.886  13.778   1.234
56082W        W28397   9.813  27.641  14.417
56083W        W28398   3.450  35.577   1.714
56084W        W28399  41.302   8.738   4.222
56085W        W28400  11.765  20.219   1.320
56086W        W28401  43.896  10.823  10.083
56087W        W28402  44.774   5.373   4.198
56088W        W28403  43.480  27.990  14.419
56089W        W28404  39.049   8.287  10.953
56090W        W28405  31.472   2.723   1.433
56091W        W28406  21.744  18.691   0.939
56092W        W28407  41.879  11.805   2.665
56093W        W28408  23.717  33.617   3.158
56094W        W28409  33.507   6.276  14.836
56095W        W28410  28.145  31.960  10.536
56096W        W28411  33.121  29.923   2.318
56097W        W28412  27.573  27.570   3.303
56098W        W28413   8.715  27.082   3.653
56099W        W28414  44.940  26.190  10.644
56100W        W28415   4.420  36.848   2.684
56101W        W28416  44.998  19.700   3.658
56102W        W28417  35.508  12.620   3.352
56103W        W28418  38.461  21.547   1.830
56104W        W28419  27.016  32.525   1.797
56105W        W28420  11.373  22.194   2.310
56106W        W28421  41.323  18.600  11.551
56107W        W28422  22.252  27.650   0.366
56108W        W28423  31.602   9.250   2.860
56109W        W28424  36.003  37.476  12.011
56110W        W28425  19.145  15.115  14.850
56111W        W28426  15.745  33.055  14.396
56112W        W28427  22.156  14.270   4.259
56113W        W28428   7.273  42.978  11.461
56114W        W28429  35.003  13.695   0.381
56115W        W28430  18.773  19.050  14.968
56116W        W28431   0.260  13.116  13.460
56117W        W28432  23.696   6.272  14.840
56118W        W28433  34.593  34.940   0.447
56119W        W28434  25.600   6.678  14.296
56120W        W28435  29.611  12.263   1.334
56121W        W28436   9.829  29.084   3.231
56122W        W28437  28.020  22.193  12.408
56123W        W28438  29.467   1.740  11.450
56124W        W28439   8.304   0.327  12.968
56125W        W28440   5.363  14.127  12.992
56126W        W28441  40.326  13.751   4.648
56127W        W28442  14.131   0.970  14.816
56128W        W28443  14.617  26.113   1.788
56129W        W28444  37.554   9.285  12.938
56130W        W28445  40.022  20.672  14.497
56131W        W28446  20.729   6.338   4.632
56132W        W28447   8.697  13.127   1.381
56133W        W28448  41.821  29.943  11.452
56134W        W28449  29.122  19.674  14.313
56135W        W28450  31.980  19.626  12.062
56136W        W28451  37.039  27.506   1.894
56137W        W28452  35.928  31.136  12.449
56138W        W28453  16.246  24.587   3.292
56139W        W28454  14.281  16.142   2.368
56140W        W28455  17.596  31.957  12.573
56141W        W28456  27.997  22.205   1.736
56142W        W28457  24.603  38.914  12.403
56143W        W28458  24.973  43.933  13.932
56144W        W28459   7.790  41.962  12.968
56145W        W28460  14.736   6.795  14.912
56146W        W28461  44.962  26.175   3.690
56147W        W28462  36.494  13.773   1.365
56148W        W28463  36.067   5.757   2.316
56149W        W28464  39.529  30.117  13.813
56150W        W28465  10.641  17.245  11.872
56151W        W28466  39.864  43.911   4.772
56152W        W28467  38.942   4.755   4.819
56153W        W28468  17.598  33.511   1.419
56154W        W28469  43.327   6.237  13.918
56155W        W28470  20.714  20.178   4.641
56156W        W28471  12.191   4.311   3.335
56157W        W28472  35.485  23.698  11.376
56158W        W28473  32.495  25.682   0.846
56159W        W28474  12.279  37.418  12.976
56160W        W28475  31.028  15.771  12.380
56161W        W28476  33.421  13.262  11.867
56162W        W28477  39.922  17.255   0.343
56163W        W28478  32.052  40.004  14.863
56164W        W28479  31.988  36.935   4.262
56165W        W28480  41.444  17.740   3.346
56166W        W28481  28.043  32.960   2.387
56167W        W28482  43.347  27.108  14.955
56168W        W28483   2.924  38.375  10.979
56169W        W28484  25.108  10.737  14.430
56170W        W28485   2.815  38.489   3.864
56171W        W28486  23.165   9.818   4.690
56172W        W28487  31.494   9.161  14.993
56173W        W28488  21.688  25.199   4.772
56174W        W28489  35.487  14.316   2.299
56175W        W28490  23.235  15.196   0.872
56176W        W28491  41.452   5.326  13.032
56177W        W28492   5.888  38.460   1.901
56178W        W28493  15.590  21.131   3.751
56179W        W28494   4.361  34.431  11.593
56180W        W28495  25.197  30.579  10.911
56181W        W28496  18.740   0.493   0.825
56182W        W28497  30.458  10.842   0.357
56183W        W28498  38.989  23.516  12.011
56184W        W28499  38.488  32.924   4.129
56185W        W28500  39.542  28.129  11.126
56186W        W28501  41.996  32.431  11.902
56187W        W28502  27.618  41.831  13.334
56188W        W28503  44.888  37.379  13.875
56189W        W28504   8.341  11.726  12.536
56190W        W28505  11.281  43.799  14.000
56191W        W28506  10.839  15.595   1.356
56192W        W28507  35.559   1.879   1.752
56193W        W28508  26.610  28.505   1.331
56194W        W28509  35.589  12.129   4.338
56195W        W28510   7.293  42.957   4.165
56196W        W28511  33.495  31.090  12.095
56197W        W28512   4.728  25.962   4.133
56198W        W28513  42.444   8.191   1.308
56199W        W28514  30.038   2.331   1.825
56200W        W28515   8.360  32.460   0.306
56201W        W28516  12.676  18.149  11.500
56202W        W28517  44.470  44.997   0.901
56203W        W28518  29.088  27.632   4.334
56204W        W28519   1.429  35.087   2.757
56205W        W28520  18.231  37.485   2.856
56206W        W28521   3.881  35.054   0.263
56207W        W28522   6.398  40.366  14.408
56208W        W28523  14.668  13.794   4.668
56209W        W28524  24.490   2.273  12.879
56210W        W28525   3.382   7.175  11.578
56211W        W28526  21.628  10.747   3.284
56212W        W28527  33.506  31.136  13.958
56213W        W28528  43.996  22.694   1.450
56214W        W28529  24.699   0.263   2.384
56215W        W28530  35.572  37.518  10.527
56216W        W28531  26.112  24.534   4.252
56217W        W28532  28.012   4.206   1.319
56218W        W28533  14.166   4.744   2.386
56219W        W28534  10.806  19.113   2.688
56220W        W28535  11.128  34.599  11.997
56221W        W28536   1.316  17.278  12.070
56222W        W28537   9.194  28.085   2.390
56223W        W28538  37.970  25.546   0.910
56224W        W28539   7.889  43.400  14.914
56225W        W28540  16.583  34.056  13.984
56226W        W28541  35.392  14.204   4.262
56227W        W28542   5.428  28.607  12.871
56228W        W28543  12.242  22.686   0.816
56229W        W28544  26.013  26.192  11.012
56230W        W28545   2.822  30.025  14.421
56231W        W28546  37.942  27.570  11.012
56232W        W28547  30.478  17.559   2.766
56233W        W28548  38.474  27.174  13.000
56234W        W28549  37.941  21.213  11.991
56235W        W28550  17.601  36.001  14.851
56236W        W28551  44.428   1.856  12.572
56237W        W28552   1.841  10.732  11.454
56238W        W28553  16.723  25.568  13.851
56239W        W28554  26.607  39.393  10.604
56240W        W28555   1.742  41.367  11.474
56241W        W28556  35.437  26.507  12.071
56242W        W28557  10.312  41.370  11.903
56243W        W28558  17.254  13.219  13.812
56244W        W28559  40.449  24.216   0.482
56245W        W28560   6.190  38.910   3.700
56246W        W28561  32.072  10.157   4.272
56247W        W28562  14.104  15.684   1.337
56248W        W28563  25.067  10.225  12.473
56249W        W28564  28.608  33.109  11.098
56250W        W28565  43.341  38.848   1.891
56251W        W28566  20.071  27.139  12.468
56252W        W28567  21.693   5.345  13.015
56253W        W28568  39.418  41.519   3.682
56254W        W28569  19.651  25.687   1.886
56255W        W28570  42.454  43.303   0.258
56256W        W28571  13.141   1.875  11.611
56257W        W28572  40.411  41.012  14.031
56258W        W28573   5.762  30.963   4.644
56259W        W28574  14.615  33.952   0.424
56260W        W28575  18.592   5.282   4.603
56261W        W28576  36.484  17.194   2.836
56262W        W28577  24.081  42.419  12.959
56263W        W28578  14.810   3.374  10.641
56264W        W28579   3.732  15.319   1.418
56265W        W28580  35.462  21.560   2.244
56266W        W28581  15.754   0.891  13.361
56267W        W28582  15.787  29.604  11.900
56268W        W28583  32.947  20.594  13.932
56269W        W28584  28.546  16.252  10.567
56270W        W28585  37.339  36.960   1.743
56271W        W28586  26.620  19.748  14.002
56272W        W28587  19.775   3.231   2.696
56273W        W28588  33.971  29.001   4.234
56274W        W28589  35.550  30.996   0.786
56275W        W28590  17.253   1.746   4.617
56276W        W28591   1.748  14.656   3.373
56277W        W28592   6.317  38.843  13.856
56278W        W28593  21.576   7.682  14.434
56279W        W28594  11.635  44.316   0.779
56280W        W28595   3.862  43.313  13.317
56281W        W28596  21.247  38.938  14.951
56282W        W28597   5.267  10.166  12.967
56283W        W28598  32.529   7.872  11.436
56284W        W28599  10.198  13.616   1.335
56285W        W28600  21.626  20.167  14.923
56286W        W28601  34.110  29.070   2.352
56287W        W28602  31.626  30.151   2.767
56288W        W28603  38.379  13.749  12.412
56289W        W28604  35.865   7.206  14.868
56290W        W28605   8.300  43.773   2.398
56291W        W28606  28.109  26.082   2.412
56292W        W28607  33.053  37.004  13.433
56293W        W28608   0.965   1.768   3.706
56294W        W28609  40.959  34.407   2.791
56295W        W28610  29.432  30.449  14.308
56296W        W28611  31.007  42.288  13.989
56297W        W28612  14.099  17.759  13.827
56298W        W28613   2.416  42.392  14.888
56299W        W28614  20.577  14.746   0.348
56300W        W28615  16.777  10.345  12.039
56301W        W28616  32.889   3.742   3.644
56302W        W28617  39.047  43.455  12.579
56303W        W28618  29.978  11.330   4.767
56304W        W28619  20.030  34.417  12.568
56305W        W28620   6.819  37.999   3.793
56306W        W28621  33.063   7.909  14.495
56307W        W28622   6.389   8.359   2.711
56308W        W28623  19.247  41.789  12.521
56309W        W28624   6.863  20.641   1.902
56310W        W28625  11.293  17.061   2.685
56311W        W28626   2.730  40.923  10.447
56312W        W28627   5.198  36.435   0.289
56313W        W28628  10.156  44.403   1.315
56314W        W28629  29.030  30.622  12.901
56315W        W28630  27.509  26.615   0.372
56316W        W28631  36.068   2.343  11.486
56317W        W28632  11.139  12.618   1.291
56318W        W28633  41.366   4.339  11.550
56319W        W28634  34.469  26.484  11.897
56320W        W28635   4.390   1.859  13.840
56321W        W28636  28.153  21.207   0.875
56322W        W28637  42.374  39.039  13.812
56323W        W28638   2.728  18.085  13.928
56324W        W28639   3.940  30.099  11.999
56325W        W28640  28.469  29.430  14.487
56326W        W28641  42.301  22.995   3.740
56327W        W28642  38.958   1.868  10.936
56328W        W28643  39.809   1.364  11.026
56329W        W28644   5.740  42.983   2.868
56330W        W28645  38.426   6.844  13.420
56331W        W28646  40.006  23.013  14.502
56332W        W28647  38.560  43.805  11.563
56333W        W28648  12.704  21.077   3.742
56334W        W28649  16.165  18.583  13.028
56335W        W28650  35.931  23.063  14.497
56336W        W28651  27.149  18.613   4.115
56337W        W28652   4.906  30.490   4.351
56338W        W28653  33.112  37.433  13.836
56339W        W28654  24.053  27.538   2.723
56340W        W28655  29.090  11.655   0.815
56341W        W28656  41.990  26.092   3.246
56342W        W28657  29.027  34.606  11.103
56343W        W28658  23.125   9.824  11.447
56344W        W28659  44.489  15.585  13.858
56345W        W28660  26.031   9.181  10.967
56346W        W28661   7.702   0.869  14.481
56347W        W28662   0.903  37.868  12.915
56348W        W28663  33.927  18.617   2.891
56349W        W28664  42.356  25.201   3.381
56350W        W28665  36.936  27.959   2.813
56351W        W28666  34.960  12.755  14.478
56352W        W28667  15.256  38.934  12.540
56353W        W28668   4.736   9.787  12.051
56354W        W28669  16.668  35.400  14.827
56355W        W28670  25.685  19.775   0.333
56356W        W28671  28.614   8.396  12.450
56357W        W28672  15.706  28.442   5.152
56358W        W28673   4.288  36.962  11.885
56359W        W28674  32.901  29.502  11.463
56360W        W28675  41.866  11.181  12.855
56361W        W28676  38.340  27.150  13.436
56362W        W28677   5.792  19.623  10.931
56363W        W28678   0.491  29.557  12.448
56364W        W28679  38.330  20.172  13.520
56365W        W28680   9.651  42.944  10.542
56366W        W28681   7.261   1.936   3.629
56367W        W28682   7.745  14.651   0.361
56368W        W28683  21.681  20.576  11.550
56369W        W28684  21.233  30.955  13.816
56370W        W28685  31.554  16.306   3.272
56371W        W28686  36.881  40.390  14.956
56372W        W28687   4.319  29.456  11.922
56373W        W28688  14.783   3.779  11.880
56374W        W28689  38.031  29.070  14.766
56375W        W28690  34.062  24.036   0.407
56376W        W28691  27.994  33.013  14.773
56377W        W28692   0.927  20.595   0.839
56378W        W28693  31.551  14.284   3.364
56379W        W28694   4.741  26.958  11.536
56380W        W28695  28.632  22.670  13.388
56381W        W28696  18.731  20.085   2.375
56382W        W28697  31.036  28.015   0.961
56383W        W28698  33.995  12.345  14.328
56384W        W28699  25.083  27.577   0.843
56385W        W28700   2.457  27.447   0.346
56386W        W28701  23.501  30.440  12.988
56387W        W28702  15.816   6.680  13.962
56388W        W28703   8.337  35.560  13.877
56389W        W28704   2.319  24.700  14.345
56390W        W28705  39.525   0.854   1.737
56391W        W28706  23.599  42.894   4.678
56392W        W28707  40.809  18.107  14.932
56393W        W28708  43.471  11.205   2.182
56394W        W28709   3.920  12.681   2.218
56395W        W28710   5.732  35.065  11.010
56396W        W28711   0.477  23.146   1.298
56397W        W28712  17.761  42.433  12.427
56398W        W28713  35.085  13.273   4.743
56399W        W28714  26.980   1.309  12.450
56400W        W28715   3.409  41.299  12.854
56401W        W28716  31.506  42.384   2.351
56402W        W28717   2.756   9.226  12.085
56403W        W28718  14.142  31.492  12.527
56404W        W28719  10.222  35.568  13.793
56405W        W28720  38.441  30.419  13.925
56406W        W28721  23.601  21.160  14.437
56407W        W28722  35.477  16.622   4.657
56408W        W28723  43.807  23.734  12.973
56409W        W28724   9.676  40.907  12.426
56410W        W28725  24.992  10.783  11.000
56411W        W28726  44.951  35.576   1.379
56412W        W28727   4.943  15.696   9.921
56413W        W28728  42.876   7.766   5.134
56414W        W28729  19.088   2.356  14.437
56415W        W28730  41.868  30.996  12.960
56416W        W28731  20.260  21.720   2.296
56417W        W28732  22.527   0.742  11.388
56418W        W28733  15.593   8.728   3.285
56419W        W28734  11.631   1.865   5.263
56420W        W28735   1.240  35.557  12.504
56421W        W28736   6.735   5.299  10.890
56422W        W28737  21.740  16.772   3.808
56423W        W28738   4.255  44.793  11.411
56424W        W28739  17.244   3.866  13.363
56425W        W28740  16.205  41.324   1.338
56426W        W28741   0.915   3.714  14.473
56427W        W28742  37.468  33.903  11.514
56428W        W28743  40.451   5.740   0.727
56429W        W28744  40.471  24.575   1.272
56430W        W28745  27.605  38.915   3.273
56431W        W28746  19.062   1.468  12.405
56432W        W28747  27.574  10.217   0.802
56433W        W28748  15.318  44.458   3.286
56434W        W28749  11.338  27.174  11.991
56435W        W28750  14.142  13.661   1.847
56436W        W28751  35.095  18.675   1.785
56437W        W28752  22.719  30.601   4.292
56438W        W28753  31.062  18.601   2.373
56439W        W28754  22.127  27.096   4.280
56440W        W28755  43.995  31.987  11.562
56441W        W28756  33.069  19.086  11.529
56442W        W28757   0.937   2.891   3.836
56443W        W28758  38.844  15.664   9.960
56444W        W28759  14.249  42.429  14.850
56445W        W28760  12.241  44.967   0.301
56446W        W28761  38.468  15.768   1.861
56447W        W28762  40.867  23.126   4.742
56448W        W28763  11.689  27.660   0.891
56449W        W28764   9.357  30.949  11.123
56450W        W28765  36.440  27.137   3.660
56451W        W28766  35.871  15.265  10.986
56452W        W28767  11.146  33.071  14.347
56453W        W28768  41.297  34.979   3.787
56454W        W28769   2.943  15.579  12.912
56455W        W28770  22.745  38.408   1.891
56456W        W28771  31.572  31.483   1.889
56457W        W28772  27.060  44.387   1.714
56458W        W28773  14.162   7.774  12.861
56459W        W28774  27.448  16.699   0.837
56460W        W28775  17.604  17.695   4.722
56461W        W28776  15.202  26.960  10.916
56462W        W28777  37.369  14.758   1.734
56463W        W28778  42.854  13.760  11.880
56464W        W28779  26.663   0.946   4.633
56465W        W28780  26.181  16.086  11.582
56466W        W28781  21.020  26.020   4.136
56467W        W28782  25.139  10.698   4.716
56468W        W28783  17.728  14.796   1.714
56469W        W28784   0.845   0.493   3.693
56470W        W28785  14.130  14.129   4.723
56471W        W28786  32.596   2.471   3.743
56472W        W28787  28.522   0.458  13.803
56473W        W28788  33.601  11.289  10.937
56474W        W28789   4.915  40.042  10.586
56475W        W28790  22.715  33.023  14.498
56476W        W28791  39.890  41.043  12.966
56477W        W28792  24.592  22.061   1.399
56478W        W28793  38.534  22.524   4.275
56479W        W28794  22.176  32.491   1.371
56480W        W28795  38.480  21.571   4.329
56481W        W28796  42.317  35.470   0.888
56482W        W28797   7.280  33.533   0.895
56483W        W28798  16.752   4.769   4.316
56484W        W28799  17.290   4.386   0.826
56485W        W28800  36.457  26.027   2.739
56486W        W28801  40.054  35.385  14.949
56487W        W28802   6.856  30.459  14.007
56488W        W28803  13.799   2.854  11.469
56489W        W28804  25.695  22.582  11.987
56490W        W28805   7.859   1.430  11.524
56491W        W28806   5.379   6.881   1.324
56492W        W28807  40.373  34.947   1.338
56493W        W28808  30.651  16.675   4.222
56494W        W28809   1.263   2.760  12.086
56495W        W28810  36.494  21.714   2.263
56496W        W28811   0.812   5.839  11.953
56497W        W28812   6.722  33.086  13.979
56498W        W28813  41.975  39.354  13.480
56499W        W28814   1.410  40.009   4.218
56500W        W28815  24.221  27.046  12.036
56501W        W28816  25.054  37.436  13.807
56502W        W28817  21.192  35.025   1.213
56503W        W28818   5.316  33.537   4.700
56504W        W28819  31.404  27.000  12.930
56505W        W28820  28.053   8.672  12.987
56506W        W28821  42.391  19.644  10.993
56507W        W28822  22.603   8.276  12.411
56508W        W28823  19.043   4.443   3.212
56509W        W28824   1.240  20.576  11.610
56510W        W28825  38.076  16.220  11.601
56511W        W28826  22.152  13.161   1.858
56512W        W28827  17.106   0.367   3.240
56513W        W28828  43.414  38.980   4.342
56514W        W28829  34.002   9.824   3.810
56515W        W28830   0.486  25.498  12.525
56516W        W28831  33.888  19.247   2.296
56517W        W28832  30.137  36.083  12.349
56518W        W28833  23.653  29.455  14.830
56519W        W28834  36.512  29.011  13.888
56520W        W28835  38.850  19.049   1.838
56521W        W28836  18.706  16.734  11.416
56522W        W28837  24.182  29.031  13.321
56523W        W28838  34.416  38.386   3.646
56524W        W28839  32.913  12.137   1.211
56525W        W28840  28.015  16.132   1.358
56526W        W28841  34.477  44.470  14.993
56527W        W28842  33.891  10.257   2.226
56528W        W28843  39.050  32.140   3.304
56529W        W28844  37.992  12.129   3.832
56530W        W28845  37.082  18.101  10.450
56531W        W28846  21.683  11.777  11.511
56532W        W28847  34.517  30.013   4.770
56533W        W28848  29.646  12.696  13.852
56534W        W28849   1.877  23.209   1.421
56535W        W28850   6.248  25.542  12.029
56536W        W28851  23.534   2.796   3.202
56537W        W28852  36.976  12.244  12.400
56538W        W28853   8.256  17.625  12.081
56539W        W28854  42.912  41.410  12.369
56540W        W28855  36.405  43.011   3.782
56541W        W28856  16.585  10.874   2.686
56542W        W28857  36.886  17.185  14.912
56543W        W28858   0.898  26.568  10.025
56544W        W28859   6.729  11.367  11.468
56545W        W28860   5.909  39.334   4.722
56546W        W28861  21.254   6.694  13.324
56547W        W28862  38.026  19.069  11.428
56548W        W28863  22.743  25.591   2.228
56549W        W28864  38.506  35.106  14.477
56550W        W28865  44.995  33.969   2.765
56551W        W28866   1.404  35.403  10.436
56552W        W28867  29.427  42.449  14.781
56553W        W28868  11.736  16.150   0.816
56554W        W28869  37.410  14.642  12.018
56555W        W28870   3.883   9.801  13.992
56556W        W28871  34.583  25.049   0.466
56557W        W28872   1.884  39.065   2.390
56558W        W28873  29.016   9.324  14.353
56559W        W28874  24.568  22.731   5.160
56560W        W28875   0.934  21.546   4.826
56561W        W28876   7.776  35.966  14.802
56562W        W28877   5.876  30.981  10.450
56563W        W28878  30.959   7.743   2.397
56564W        W28879  23.057   9.821   1.854
56565W        W28880  34.027  43.332  13.952
56566W        W28881  25.692  35.422  11.546
56567W        W28882   5.247  44.941   3.640
56568W        W28883  43.373  26.060   4.625
56569W        W28884  44.765  11.808   1.812
56570W        W28885  32.480  21.650   1.342
56571W        W28886  21.529  43.415   0.352
56572W        W28887  23.560  21.587  12.564
56573W        W28888  44.879  14.245  14.504
56574W        W28889  35.361  13.726   0.930
56575W        W28890   2.755  41.478   4.744
56576W        W28891  29.539  36.995   4.113
56577W        W28892  36.540  19.766  11.996
56578W        W28893   3.352  29.442  11.960
56579W        W28894  24.714  24.013   1.276
56580W        W28895  21.575   4.857  12.526
56581W        W28896   8.317  39.402  13.411
56582W        W28897   7.766  42.927  14.388
56583W        W28898  12.755  26.174  14.338
56584W        W28899   3.354  14.822   3.674
56585W        W28900  31.050   6.340  14.383
56586W        W28901  36.006  43.315  10.443
56587W        W28902   9.261  15.263  11.602
56588W        W28903  42.873   3.304   0.900
56589W        W28904   8.691  33.931   3.171
56590W        W28905   6.886   1.442  13.423
56591W        W28906  32.936  17.078   2.354
56592W        W28907  25.976  19.097  11.558
56593W        W28908  14.617   1.856  10.503
56594W        W28909  30.113  35.538  11.114
56595W        W28910   6.375  30.604   3.223
56596W        W28911   8.717  18.785  13.916
56597W        W28912   7.206   1.480   1.742
56598W        W28913  16.304  21.516  12.938
56599W        W28914  17.617  18.087  12.983
56600W        W28915  12.617  16.313   4.816
56601W        W28916  42.287  33.445  12.534
56602W        W28917  16.581  38.474  12.892
56603W        W28918  27.108  20.101  13.939
56604W        W28919  18.092  11.861   9.498
56605W        W28920  32.575  14.282   1.901
56606W        W28921  41.344  17.699  10.418
56607W        W28922  24.013  22.573   1.286
56608W        W28923   0.780  39.541   2.186
56609W        W28924  23.590  39.367  10.547
56610W        W28925  22.075  42.924   2.258
56611W        W28926  10.671   8.314   2.238
56612W        W28927  12.166  29.498  11.112
56613W        W28928  14.672  42.376   2.348
56614W        W28929  15.692   5.343   4.629
56615W        W28930  22.724  43.000   4.281
56616W        W28931  18.632   4.284  11.381
56617W        W28932  40.995  11.350   3.317
56618W        W28933   3.379   4.430   0.833
56619W        W28934  32.984  43.294  13.329
56620W        W28935   5.773  35.087   0.383
56621W        W28936  32.957  33.562   0.382
56622W        W28937  18.710  11.679  12.365
56623W        W28938  19.669   8.356   4.640
56624W        W28939  16.748   0.933  14.430
56625W        W28940  37.009  18.554  13.323
56626W        W28941  38.931  26.146   3.278
56627W        W28942  10.283  10.770   1.245
56628W        W28943  18.630  27.941   5.179
56629W        W28944  27.516  24.523  13.439
56630W        W28945  20.036   9.384  11.068
56631W        W28946  40.513  38.414  11.887
56632W        W28947   1.967  12.758  12.506
56633W        W28948  39.040  31.082  14.854
56634W        W28949   0.836  29.004   3.800
56635W        W28950  11.837  17.569   1.222
56636W        W28951  28.154  13.683  10.432
56637W        W28952  43.991  20.126   2.685
56638W        W28953   7.373  34.575   0.394
56639W        W28954  19.175   3.881  10.951
56640W        W28955  23.613   3.807   4.692
56641W        W28956  41.897  14.301   1.328
56642W        W28957  21.163  39.874  14.868
56643W        W28958  15.201  24.103   2.711
56644W        W28959  29.924  32.593  10.497
56645W        W28960   7.681  12.635  14.378
56646W        W28961  18.666  38.460  13.803
56647W        W28962   9.689  24.528   2.855
56648W        W28963  18.269   6.344   3.224
56649W        W28964   2.382  16.310   4.625
56650W        W28965  29.549  43.406   0.277
56651W        W28966  14.271  40.861   3.747
56652W        W28967  15.096   1.437   3.821
56653W        W28968  29.478   5.372  13.956
56654W        W28969  29.653   4.355   9.973
56655W        W28970   8.690   4.842   2.854
56656W        W28971  19.643  10.816  12.442
56657W        W28972   6.892  20.147   2.764
56658W        W28973  28.172  30.417  13.810
56659W        W28974  31.064  10.158  11.408
56660W        W28975  27.003   6.384  13.987
56661W        W28976  10.345  20.701   0.457
56662W        W28977  26.032  29.633   1.745
56663W        W28978   9.267  20.585   2.718
56664W        W28979  25.198  34.538  14.988
56665W        W28980  11.150  32.533   3.686
56666W        W28981   3.891  37.550  13.915
56667W        W28982  22.198  35.053  12.539
56668W        W28983  12.685   7.333   2.299
56669W        W28984  20.098  39.427   2.771
56670W        W28985  40.911  32.991  10.475
56671W        W28986   2.357  15.644   2.822
56672W        W28987  17.112  35.365  12.980
56673W        W28988  25.056   8.712  14.417
56674W        W28989  19.701  39.040   1.837
56675W        W28990   2.370  42.414   0.301
56676W        W28991   3.229  10.845  14.466
56677W        W28992  37.888  17.283   2.863
56678W        W28993  30.590  34.452  14.911
56679W        W28994  31.919  42.782  14.949
56680W        W28995  21.193  37.385  14.456
56681W        W28996  23.141  28.494  12.378
56682W        W28997  43.853  13.781   0.849
56683W        W28998  23.160  44.485  11.041
56684W        W28999  14.171  36.030   0.962
56685W        W29000  35.507  10.670  11.933
56686W        W29001   9.272   5.225  14.397
56687W        W29002  22.512  13.813  11.927
56688W        W29003  43.913   9.348  10.429
56689W        W29004  30.035  28.141   3.367
56690W        W29005  34.017   3.935   1.229
56691W        W29006  37.076   9.349   1.815
56692W        W29007  40.030   1.457   0.729
56693W        W29008  15.621   2.234   2.790
56694W        W29009  35.453  18.159   1.752
56695W        W29010  37.085   4.781  14.762
56696W        W29011  27.643  17.203  13.338
56697W        W29012   0.429  30.434  12.975
56698W        W29013   1.360  23.058   4.156
56699W        W29014  38.836  41.401  10.950
56700W        W29015  41.518  11.698   2.323
56701W        W29016   0.248   6.394  14.781
56702W        W29017  42.802  29.991  10.905
56703W        W29018  28.469  39.971  12.498
56704W        W29019  44.849  10.361  10.106
56705W        W29020  13.752   4.309   2.676
56706W        W29021  26.595  24.546  14.318
56707W        W29022  27.514  31.450  12.869
56708W        W29023  39.881  29.140   1.280
56709W        W29024   1.923  38.458   4.121
56710W        W29025  27.511  32.399  12.094
56711W        W29026  10.178  36.548   0.838
56712W        W29027  39.518   0.316  13.492
56713W        W29028   9.652   1.440  10.926
56714W        W29029  11.706  28.125  10.895
56715W        W29030   8.402  17.660   0.397
56716W        W29031  16.224  35.887  11.973
56717W        W29032  11.683  24.099  14.504
56718W        W29033  41.436   5.763   1.238
56719W        W29034  42.526  41.479   1.847
56720W        W29035  32.477  12.669   0.920
56721W        W29036  26.998  25.079   3.308
56722W        W29037  30.072   9.758  13.392
56723W        W29038  13.693  30.648   1.718
56724W        W29039  39.051  16.784  13.858
56725W        W29040  20.723  44.904   4.305
56726W        W29041  24.225  37.943  11.105
56727W        W29042  31.504  38.030  11.491
56728W        W29043  44.463  12.247   5.684
56729W        W29044   1.453  35.366   2.868
56730W        W29045  27.574  32.100   1.260
56731W        W29046  43.819  16.158   1.825
56732W        W29047  23.718  17.134  13.354
56733W        W29048  23.506  33.967   0.462
56734W        W29049  26.553  17.112   1.804
56735W        W29050   3.333  30.630   3.378
56736W        W29051   4.391  14.669   3.177
56737W        W29052  14.140  30.132   3.639
56738W        W29053  22.534  25.026  14.293
56739W        W29054  28.069   2.824  13.893
56740W        W29055  39.930  40.964  14.339
56741W        W29056  12.241  25.127   3.370
56742W        W29057  28.136  13.140  13.992
56743W        W29058   7.389  29.589   1.439
56744W        W29059  19.575  37.442  12.824
56745W        W29060  20.716  21.230  11.408
56746W        W29061  30.079  22.064   4.310
56747W        W29062  44.495  22.251  12.447
56748W        W29063  20.752  43.504   2.202
56749W        W29064  37.941  36.566  10.950
56750W        W29065  34.115  29.462   0.749
56751W        W29066   9.288  43.841  11.612
56752W        W29067  34.512  17.680   4.292
56753W        W29068  41.310   6.755   2.278
56754W        W29069  20.526  24.090  13.327
56755W        W29070  19.054  20.681   0.822
56756W        W29071  24.089   4.830  11.455
56757W        W29072  14.764  16.802  11.609
56758W        W29073  15.688  38.420  12.972
56759W        W29074  35.575  34.414   1.844
56760W        W29075   3.218   6.272  10.514
56761W        W29076   3.458   0.772  11.514
56762W        W29077  31.944  30.656   4.825
56763W        W29078   2.933  39.891  13.060
56764W        W29079   1.914  40.027   4.735
56765W        W29080  13.181  18.715  10.998
56766W        W29081  23.587  40.304   2.783
56767W        W29082  24.611  17.641   2.701
56768W        W29083   9.668  13.344  12.921
56769W        W29084  11.672  14.280   0.432
56770W        W29085  11.856  43.431  12.058
56771W        W29086   8.825  34.871  10.483
56772W        W29087   3.845  42.019   0.914
56773W        W29088   1.935   9.656   4.597
56774W        W29089  22.020  37.490   2.779
56775W        W29090   3.825  22.564  13.808
56776W        W29091  34.535  38.495  13.888
56777W        W29092  24.074   3.763  10.577
56778W        W29093   0.290  19.684   2.815
56779W        W29094  24.101  42.987   1.792
56780W        W29095  37.453  21.053   3.748
56781W        W29096   1.748   1.895  11.589
56782W        W29097  13.614  16.694  10.444
56783W        W29098  43.925  39.400   1.383
56784W        W29099   3.319  15.742  12.374
56785W        W29100  30.908  43.461  14.358
56786W        W29101  11.196  32.128   1.398
56787W        W29102  37.006   6.679   3.250
56788W        W29103  42.837  38.349  11.070
56789W        W29104  11.699  29.122  14.911
56790W        W29105  30.921  21.609   3.676
56791W        W29106  22.241  19.568  10.992
56792W        W29107   9.255  44.920  10.539
56793W        W29108  26.087  23.632  13.958
56794W        W29109  29.628   9.707   0.923
56795W        W29110  16.602  19.588   2.277
56796W        W29111  26.176  20.273  12.554
56797W        W29112  30.624  15.168  13.881
56798W        W29113  23.702  43.812  10.922
56799W        W29114   7.352   3.358   1.876
56800W        W29115  18.622   1.265   3.224
56801W        W29116   0.412  43.367   1.282
56802W        W29117  19.626  10.213   2.811
56803W        W29118  35.531  31.544  13.430
56804W        W29119  20.179  27.574   3.707
56805W        W29120  29.957  20.122   3.290
56806W        W29121  35.487   1.788  11.112
56807W        W29122  32.928  29.928   3.820
56808W        W29123  32.424  28.547  14.922
56809W        W29124  31.454  23.670  11.449
56810W        W29125  24.050  18.172   1.427
56811W        W29126   5.856  19.610   4.724
56812W        W29127   0.476   3.716   3.213
56813W        W29128  28.057   3.330   1.278
56814W        W29129  32.444   9.859  12.520
56815W        W29130  13.210  37.057  12.867
56816W        W29131  39.550  18.633   4.231
56817W        W29132   7.775   6.791  14.766
56818W        W29133  42.847  11.727  11.461
56819W        W29134  41.834  12.198   4.803
56820W        W29135  36.573   5.388   1.399
56821W        W29136  23.994  19.722   4.222
56822W        W29137   8.788  36.467   4.747
56823W        W29138  29.094  28.526  10.954
56824W        W29139   2.965  23.033  13.512
56825W        W29140  38.824  20.583   3.294
56826W        W29141  34.481  36.866  10.605
56827W        W29142  27.067   3.731   2.372
56828W        W29143  32.612  14.660   2.695
56829W        W29144  41.890  22.619   3.727
56830W        W29145  39.870  38.328  14.013
56831W        W29146  28.071  20.244   3.282
56832W        W29147  12.796  44.941  11.923
56833W        W29148  43.847  35.056  14.010
56834W        W29149   8.716   3.426  10.136
56835W        W29150  35.387  14.163   3.202
56836W        W29151   4.253  31.020  13.482
56837W        W29152  13.124  42.409  10.458
56838W        W29153  41.043  21.017   0.948
56839W        W29154  30.021  16.610   4.758
56840W        W29155  29.621   7.881   4.825
56841W        W29156  13.710  20.126   2.180
56842W        W29157  31.969   3.941   3.275
56843W        W29158  18.671  10.726   3.864
56844W        W29159  42.412  15.592  11.404
56845W        W29160  12.131  14.797   3.710
56846W        W29161  33.505  18.764   0.309
56847W        W29162   7.209  16.599   4.674
56848W        W29163  33.617  10.844   4.137
56849W        W29164  18.069  34.113  11.978
56850W        W29165  26.535  40.544   0.868
56851W        W29166  14.314  17.615   2.699
56852W        W29167   4.331  44.856  10.919
56853W        W29168   5.811   8.724   1.441
56854W        W29169  19.711  29.527  13.026
56855W        W29170  24.670  34.397  13.916
56856W        W29171   8.741  20.716   0.821
56857W        W29172  21.262  24.701  11.908
56858W        W29173   7.754  11.635  14.371
56859W        W29174  31.986  16.172  13.422
56860W        W29175  11.214  15.667  14.999
56861W        W29176  17.201  21.199  11.051
56862W        W29177  17.660  34.569  10.466
56863W        W29178  25.559  27.582  11.469
56864W        W29179  23.995   1.478   1.783
56865W        W29180  41.873  38.355   4.334
56866W        W29181  19.628  36.515  13.865
56867W        W29182  22.174  36.978  13.028
56868W        W29183  19.684  18.238   4.180
56869W        W29184  27.018  32.438  14.342
56870W        W29185  29.168  27.472   0.262
56871W        W29186   7.730  25.473   4.279
56872W        W29187  11.712  38.849   0.418
56873W        W29188   6.908  37.465   9.967
56874W        W29189  12.313  28.979   1.275
56875W        W29190  23.032  29.975  10.453
56876W        W29191  18.294  36.535   0.837
56877W        W29192  10.835  20.221  13.461
56878W        W29193  38.406  36.014  14.945
56879W        W29194  30.493  12.809  11.876
56880W        W29195  20.125  12.831  10.939
56881W        W29196   4.762  36.475   1.275
56882W        W29197  26.512   9.680   4.203
56883W        W29198  23.178   2.926   4.605
56884W        W29199  35.451  21.569   0.450
56885W        W29200  12.349  23.115   0.414
56886W        W29201  14.179  17.253   3.673
56887W        W29202  17.619  18.117  14.342
56888W        W29203   6.365  26.591   0.334
56889W        W29204  15.650  20.571   0.776
56890W        W29205  10.637  14.257  10.537
56891W        W29206  36.995  21.596  12.830
56892W        W29207  21.039  36.975   2.744
56893W        W29208  26.696  41.463   9.956
56894W        W29209   9.289  29.503   4.204
56895W        W29210   9.171   2.394   2.363
56896W        W29211   3.230   1.854   4.155
56897W        W29212  27.662  44.451   3.319
56898W        W29213   5.200  39.404  10.968
56899W        W29214  20.761  35.881  11.595
56900W        W29215  34.439   5.250  14.824
56901W        W29216  12.719   2.402   3.290
56902W        W29217  44.477  13.844   0.443
56903W        W29218  16.152   8.250  10.585
56904W        W29219  43.814  44.980   0.463
56905W        W29220  22.221   1.264  10.590
56906W        W29221  42.787  43.840  13.423
56907W        W29222  42.019   6.248  13.811
56908W        W29223  17.706   8.228   2.403
56909W        W29224  12.779  13.715   4.266
56910W        W29225  10.633   1.835  13.950
56911W        W29226  33.927  23.700  12.030
56912W        W29227   5.717  25.674  12.092
56913W        W29228  16.689  42.018  10.617
56914W        W29229  11.221  33.395  12.058
56915W        W29230  13.791  31.641   0.272
56916W        W29231  35.021  11.312   2.788
56917W        W29232  16.744  39.950  14.419
56918W        W29233  34.527  20.174   1.303
56919W        W29234   4.870  22.054  11.518
56920W        W29235  16.752  41.946   4.129
56921W        W29236  40.951   1.935  13.797
56922W        W29237  22.507  34.444  11.003
56923W        W29238  37.343  38.866   0.747
56924W        W29239  34.607  21.728   2.199
56925W        W29240  20.217  38.539   1.338
56926W        W29241  11.784  40.814   1.932
56927W        W29242  12.246  38.530   2.831
56928W        W29243  17.701  20.686   0.284
56929W        W29244  12.766  19.637   4.203
56930W        W29245  26.683  38.556   4.188
56931W        W29246  33.420   8.873  12.548
56932W        W29247  20.124  29.575   2.293
56933W        W29248  24.702  11.717   4.728
56934W        W29249  27.585  36.025  13.827
56935W        W29250  42.330  17.630  13.418
56936W        W29251  38.947  10.252  14.340
56937W        W29252  30.964   5.804   1.400
56938W        W29253  17.257  28.575  11.855
56939W        W29254  18.138  42.836  10.550
56940W        W29255  20.226  13.841  14.798
56941W        W29256  35.500  15.198  12.573
56942W        W29257  18.774  15.084  13.380
56943W        W29258   7.819  34.877   1.401
56944W        W29259  13.699  30.025  13.931
56945W        W29260  43.492  44.271   4.770
56946W        W29261  15.628  25.158  12.359
56947W        W29262  30.623   4.410   1.423
56948W        W29263  23.208  34.892  12.992
56949W        W29264  35.070  11.809   4.354
56950W        W29265  18.120   3.220   4.680
56951W        W29266  20.597  25.654   1.752
56952W        W29267  17.582  22.530  12.871
56953W        W29268   0.260   3.458  13.421
56954W        W29269  38.538   0.933   3.832
56955W        W29270  40.922  32.611   4.642
56956W        W29271  26.691  26.033  10.428
56957W        W29272  40.377  29.958   2.406
56958W        W29273  14.316  41.481  14.352
56959W        W29274   5.760  23.621   3.241
56960W        W29275   0.420  10.157   3.162
56961W        W29276  21.515   5.371   3.817
56962W        W29277   7.202  31.115  13.524
56963W        W29278   5.812  32.926   3.241
56964W        W29279  43.924  23.025   2.680
56965W        W29280   6.269  10.291  11.080
56966W        W29281  31.025  14.249   2.241
56967W        W29282  10.845  13.637  14.978
56968W        W29283  18.665   1.277   0.443
56969W        W29284  27.190   8.342  14.921
56970W        W29285  31.008   4.812   1.699
56971W        W29286  31.610  28.975   3.356
56972W        W29287  43.864  36.419   4.706
56973W        W29288  44.310  30.115   1.894
56974W        W29289  15.659  34.984  10.452
56975W        W29290   8.235  44.359  12.544
56976W        W29291   1.755  29.562  14.387
56977W        W29292  39.450   2.415  11.535
56978W        W29293  43.856  27.969  11.060
56979W        W29294  41.883   1.740  11.372
56980W        W29295  34.521  10.236  13.827
56981W        W29296  15.309  44.914   3.856
56982W        W29297  39.818  32.522  12.477
56983W        W29298  33.553  44.354  14.766
56984W        W29299  36.845  44.995  11.553
56985W        W29300  13.741  20.198   0.945
56986W        W29301   1.962  32.396  13.542
56987W        W29302  32.582  13.741   3.679
56988W        W29303  35.468  12.218  12.005
56989W        W29304  10.365  34.937   3.248
56990W        W29305  20.081   8.254  12.056
56991W        W29306   3.229  13.237   3.199
56992W        W29307  10.745  31.627  11.409
56993W        W29308  14.314  24.119   0.792
56994W        W29309  24.156  15.264  13.822
56995W        W29310   0.784  42.303  13.950
56996W        W29311  11.664   4.384  12.840
56997W        W29312  38.918  33.889   0.958
56998W        W29313   2.923  40.000  11.122
56999W        W29314  34.553  21.216  11.578
57000W        W29315  33.414   8.688  12.005
57001W        W29316  42.403   8.899   3.231
57002W        W29317  27.120  22.058   0.323
57003W        W29318  12.192  14.708   4.607
57004W        W29319   8.311  24.595   2.303
57005W        W29320  28.027  20.527   0.780
57006W        W29321   3.278  33.020   2.756
57007W        W29322   1.810   9.345   3.693
57008W        W29323  14.682   9.376   1.424
57009W        W29324   8.327   7.188   2.200
57010W        W29325  38.899  30.095   2.301
57011W        W29326  41.019  11.155  12.900
57012W        W29327  34.015  30.608  14.995
57013W        W29328  16.161  24.107  10.911
57014W        W29329   7.213  15.590   4.175
57015W        W29330  36.903   3.350   3.255
57016W        W29331  30.997   8.754  14.881
57017W        W29332  15.329  30.562   3.283
57018W        W29333   0.263  33.076  14.812
57019W        W29334  12.809  10.729   1.338
57020W        W29335  16.766  38.372   3.318
57021W        W29336   1.751  40.881   2.401
57022W        W29337  19.644  20.072  12.357
57023W        W29338  35.067   1.820  11.525
57024W        W29339  18.192  26.464   1.286
57025W        W29340  13.258  18.118  13.915
57026W        W29341   8.351   9.308  14.924
57027W        W29342  35.386  27.956   0.938
57028W        W29343  22.604  22.160   5.306
57029W        W29344  36.442  11.290   1.830
57030W        W29345  38.899  31.587  10.445
57031W        W29346  42.394   2.770  14.995
57032W        W29347  44.942  24.049   1.702
57033W        W29348  19.282  41.006   2.883
57034W        W29349  20.185  10.347   0.930
57035W        W29350  33.622  39.853  14.974
57036W        W29351  13.697   8.850   0.285
57037W        W29352  39.967  10.264  13.867
57038W        W29353  40.819  35.552   1.868
57039W        W29354  19.135  39.426   0.862
57040W        W29355  15.682  28.555  13.859
57041W        W29356   6.878  37.345   4.227
57042W        W29357  33.492  22.626   0.292
57043W        W29358  25.637   2.729   2.705
57044W        W29359  24.655  34.881   1.791
57045W        W29360  21.643  28.986  13.845
57046W        W29361  42.988  26.024   0.349
57047W        W29362  38.397  26.188   4.274
57048W        W29363  17.224  41.481  11.915
57049W        W29364  31.520  21.132  13.830
57050W        W29365  12.333  40.363   0.465
57051W        W29366  28.627  32.477  10.902
57052W        W29367  33.067  18.782  10.509
57053W        W29368  31.611  25.706   0.474
57054W        W29369  39.409   5.767  11.950
57055W        W29370   5.742  15.736  12.509
57056W        W29371  17.659  14.296   4.184
57057W        W29372  27.652   2.963  11.043
57058W        W29373   4.365   2.726   1.212
57059W        W29374  26.957  33.425   3.266
57060W        W29375  16.106   4.718  10.098
57061W        W29376  20.724  26.523   2.208
57062W        W29377  32.519  20.089   3.654
57063W        W29378  22.071  42.346   0.810
57064W        W29379   5.203  18.132   0.847
57065W        W29380  17.072  42.965   1.886
57066W        W29381   1.263  17.673   0.859
57067W        W29382  21.102  29.451  10.442
57068W        W29383  14.187  31.627  14.285
57069W        W29384   3.809  23.582  12.964
57070W        W29385   8.747   6.259  14.442
57071W        W29386  42.300  25.139  10.472
57072W        W29387  17.286  13.666   3.762
57073W        W29388  39.398   3.304  13.373
57074W        W29389  30.627  24.192   0.905
57075W        W29390   2.378  16.123   0.742
57076W        W29391   3.807  23.718  10.619
57077W        W29392  18.187  39.816  12.943
57078W        W29393  21.669  31.636  11.942
57079W        W29394  32.137  39.560  11.044
57080W        W29395  43.273  40.418  10.997
57081W        W29396  23.150  44.448  10.641
57082W        W29397  42.360  41.814  10.972
57083W        W29398  23.655   2.229  12.545
57084W        W29399  43.422  17.251  11.591
57085W        W29400  13.773   2.965   4.310
57086W        W29401  32.088  44.395  14.013
57087W        W29402   7.374  32.555   3.383
57088W        W29403  30.491  39.373   2.352
57089W        W29404   2.851  39.060   3.686
57090W        W29405   3.841   1.472   0.791
57091W        W29406  35.984  44.432   3.272
57092W        W29407  11.737  34.435  13.509
57093W        W29408  33.384  27.023  13.441
57094W        W29409  25.691  14.210  10.557
57095W        W29410   9.856  20.208   0.822
57096W        W29411  40.316  21.512  14.337
57097W        W29412  23.556  43.945   0.358
57098W        W29413  28.462  10.358  11.967
57099W        W29414  38.934  13.154  10.577
57100W        W29415  21.691  13.230  12.003
57101W        W29416   8.385  10.783  13.439
57102W        W29417  14.764  11.274  11.590
57103W        W29418  17.231  44.796  11.611
57104W        W29419  16.305   2.293   0.393
57105W        W29420  42.477  18.138   3.761
57106W        W29421  37.493  28.998   4.625
57107W        W29422  10.661  16.208   3.385
57108W        W29423  21.017  18.671  13.478
57109W        W29424  41.487  27.174  13.323
57110W        W29425  20.717  17.124   0.483
57111W        W29426  44.476  19.642   3.232
57112W        W29427   4.241  21.653  12.499
57113W        W29428  41.867  16.147  12.912
57114W        W29429   2.370  39.463  13.938
57115W        W29430  17.118   1.748   0.770
57116W        W29431  35.065  38.073   3.861
57117W        W29432  11.145  31.046   1.706
57118W        W29433  37.468  34.893  13.408
57119W        W29434  16.186  29.928  14.761
57120W        W29435   3.347  41.807   0.303
57121W        W29436   7.370  35.946  11.870
57122W        W29437  16.318  19.049  13.447
57123W        W29438  43.946   1.323  10.949
57124W        W29439  32.559  29.442   2.903
57125W        W29440  23.106  19.757   0.752
57126W        W29441  40.344  24.031  10.642
57127W        W29442  34.067  11.678  12.029
57128W        W29443   1.819   1.464   1.333
57129W        W29444  32.059   6.348   1.784
57130W        W29445  44.999  31.929  14.938
57131W        W29446  32.000  14.317   0.926
57132W        W29447   3.227   6.232  12.996
57133W        W29448  28.591  24.614  11.879
57134W        W29449   0.385  37.949  14.344
57135W        W29450  10.161  27.680   3.314
57136W        W29451   7.696  14.753  11.005
57137W        W29452  42.844  10.754  12.527
57138W        W29453  32.407  38.847  14.797
57139W        W29454   4.405   9.219   3.354
57140W        W29455  21.260  13.127   4.616
57141W        W29456   0.972  33.983  12.025
57142W        W29457  17.206  42.284  14.795
57143W        W29458   5.210  29.170   2.899
57144W        W29459  16.605  42.383  11.102
57145W        W29460  15.671  27.061   0.953
57146W        W29461   0.438  12.797   2.396
57147W        W29462  25.611  33.492   2.394
57148W        W29463  28.529  39.010  10.454
57149W        W29464  17.652  40.054   5.284
57150W        W29465  17.151  30.930   2.244
57151W        W29466  30.135  20.565  10.422
57152W        W29467  23.008  43.913  10.952
57153W        W29468  31.061  44.858   3.245
57154W        W29469   5.913  12.842  14.283
57155W        W29470   6.234   7.865  13.540
57156W        W29471  43.884  37.571   1.335
57157W        W29472   6.370  28.535  12.374
57158W        W29473  11.779  23.579   4.746
57159W        W29474  20.080  17.262   2.884
57160W        W29475  10.300  23.573   5.186
57161W        W29476   6.193  13.178  10.450
57162W        W29477  43.838  29.639   1.224
57163W        W29478   9.164   0.486   2.190
57164W        W29479   9.343   1.287  13.972
57165W        W29480  43.801  25.108   2.377
57166W        W29481   4.923  16.746   2.870
57167W        W29482   3.321  28.953  10.500
57168W        W29483   0.412  42.521  12.970
57169W        W29484  19.558  18.283  13.432
57170W        W29485  35.094  44.386   4.261
57171W        W29486  10.644  31.555  14.825
57172W        W29487  42.423  11.807   0.913
57173W        W29488  31.420   3.741  10.451
57174W        W29489  11.294   9.728   2.216
57175W        W29490  33.910   5.232  13.849
57176W        W29491  36.056   0.337   4.743
57177W        W29492  17.301  29.545  11.901
57178W        W29493  17.228  42.798  11.401
57179W        W29494   1.267  11.267  14.790
57180W        W29495  32.062  18.669   2.883
57181W        W29496  30.622  34.070   2.237
57182W        W29497  34.991  17.758   4.597
57183W        W29498  21.641  37.376  13.857
57184W        W29499  37.582  20.069  14.845
57185W        W29500   4.735  25.162  10.136
57186W        W29501  40.803   8.747  13.377
57187W        W29502  28.526  42.499   3.362
57188W        W29503  12.350  21.593   3.224
57189W        W29504  18.182  21.562  11.373
57190W        W29505  26.505  27.678  11.514
57191W        W29506  44.977  24.533  11.530
57192W        W29507  27.035  44.450   0.299
57193W        W29508  17.155  23.204   4.336
57194W        W29509  27.646  20.271   2.385
57195W        W29510  17.697  24.547  11.417
57196W        W29511  38.041   4.285   4.319
57197W        W29512   2.771  26.988   1.437
57198W        W29513  21.045  16.105  12.837
57199W        W29514  11.792   3.289   9.934
57200W        W29515  42.508   9.728   1.324
57201W        W29516   1.764  17.244  14.390
57202W        W29517  15.801   1.797  14.304
57203W        W29518   3.794   6.200   4.807
57204W        W29519  37.436  44.954  11.527
57205W        W29520  33.935  29.135  10.602
57206W        W29521  42.502  43.774   4.114
57207W        W29522  18.646   1.895   0.474
57208W        W29523   4.431  29.952   4.230
57209W        W29524  16.581   3.746   1.418
57210W        W29525   4.434  38.376  10.954
57211W        W29526  34.418  35.996  11.051
57212W        W29527  19.756  20.174  11.901
57213W        W29528   5.853  42.815  11.955
57214W        W29529  17.162  33.479  14.986
57215W        W29530  33.033  41.898   0.832
57216W        W29531   1.463  17.182  13.388
57217W        W29532  38.358   8.698  12.445
57218W        W29533  38.037  16.698  13.519
57219W        W29534   9.792  23.222   3.220
57220W        W29535   9.251  42.409  10.616
57221W        W29536   3.305  29.637   2.327
57222W        W29537  34.050  43.006  13.895
57223W        W29538  20.095  39.841  12.066
57224W        W29539  19.692   8.873   3.841
57225W        W29540  19.275  43.325  13.826
57226W        W29541  25.684  17.721   4.812
57227W        W29542   2.740  36.420   4.764
57228W        W29543  23.725  21.574   3.183
57229W        W29544   4.359  24.685   2.842
57230W        W29545   0.377  20.034  13.326
57231W        W29546  24.122  20.572   1.878
57232W        W29547  19.749  24.548  10.978
57233W        W29548   5.844  11.295   3.790
57234W        W29549  36.937  24.686   0.408
57235W        W29550  23.510  16.107  12.489
57236W        W29551  22.682  40.019   3.177
57237W        W29552  39.886   7.381   3.783
57238W        W29553  22.120   4.264  14.964
57239W        W29554   8.363  24.509   1.321
57240W        W29555  14.238   7.255   2.870
57241W        W29556  30.607  35.540  14.443
57242W        W29557  44.321  23.019  13.528
57243W        W29558  38.410  28.157   1.285
57244W        W29559  26.579  25.504  11.491
57245W        W29560  11.318  16.570  10.592
57246W        W29561  44.925   3.453   5.148
57247W        W29562  37.473   0.330   2.753
57248W        W29563   2.865   8.874   0.286
57249W        W29564  35.533  35.430   1.810
57250W        W29565  35.876  41.800   3.161
57251W        W29566  25.570  33.475   3.225
57252W        W29567  29.520   6.241  14.443
57253W        W29568   0.908  43.413   3.385
57254W        W29569  34.500  35.999   0.751
57255W        W29570  43.013   5.324  14.410
57256W        W29571  41.470  38.328   2.774
57257W        W29572  10.218  37.038  13.905
57258W        W29573  42.447  15.170  13.856
57259W        W29574  21.681  17.215  12.480
57260W        W29575  39.495  15.280  13.044
57261W        W29576   8.207  27.549   3.242
57262W        W29577  36.037  38.472   2.869
57263W        W29578   7.357  40.474  14.299
57264W        W29579  22.688   5.883   1.272
57265W        W29580  11.288  32.610  14.798
57266W        W29581  21.086  29.454  12.071
57267W        W29582  34.602  26.500  14.338
57268W        W29583  26.647   6.424   9.515
57269W        W29584   2.903  15.783   3.282
57270W        W29585  31.086  24.632   1.439
57271W        W29586   8.855   2.933  11.923
57272W        W29587  18.601   9.671   4.128
57273W        W29588  16.669  15.791  12.930
57274W        W29589  38.409  38.939  13.899
57275W        W29590  19.186   9.749  14.282
57276W        W29591  15.600  44.480   0.425
57277W        W29592  24.209  37.558   1.841
57278W        W29593   0.315  13.252  13.840
57279W        W29594  33.436  30.644   2.357
57280W        W29595  11.798  36.072  10.939
57281W        W29596  37.082  31.013  12.072
57282W        W29597  12.766  25.126  13.047
57283W        W29598  21.671  26.650  11.530
57284W        W29599  35.521  31.424  14.433
57285W        W29600  40.801  26.662  14.911
57286W        W29601  32.001  32.056  13.806
57287W        W29602  21.019  36.969  14.287
57288W        W29603   1.736   3.245  11.581
57289W        W29604  40.412  16.673   0.341
57290W        W29605  31.575  39.437  11.055
57291W        W29606  19.132  38.884   9.545
57292W        W29607  31.974  13.123  13.803
57293W        W29608  32.075   5.833  13.513
57294W        W29609  42.892  44.331   1.437
57295W        W29610  38.873  13.669   4.184
57296W        W29611   5.762   7.298   0.250
57297W        W29612   4.309  22.669  13.009
57298W        W29613  36.576   0.897   4.716
57299W        W29614   4.901  41.437   2.814
57300W        W29615  44.271   1.308   2.886
57301W        W29616  43.836  41.821  10.478
57302W        W29617   7.211  36.556  14.031
57303W        W29618  21.515  20.057   5.713
57304W        W29619  42.871  26.051  10.585
57305W        W29620   8.370  43.270  10.639
57306W        W29621   4.264  17.133   1.751
57307W        W29622   4.435   4.765   2.415
57308W        W29623  18.084  13.615  12.860
57309W        W29624   5.859  23.987   4.342
57310W        W29625  14.715  20.569  14.979
57311W        W29626  44.992  43.337  11.125
57312W        W29627   2.252  29.592   2.371
57313W        W29628  34.014  21.716  13.540
57314W        W29629  29.975  38.539  13.948
57315W        W29630  20.219   4.767  14.296
57316W        W29631  42.503   9.869  12.398
57317W        W29632  20.564  15.643   4.346
57318W        W29633  27.071  44.433  10.919
57319W        W29634  44.300  18.067  11.382
57320W        W29635   2.395  37.512  13.800
57321W        W29636   6.309  12.168  14.357
57322W        W29637  34.018   8.799   1.326
57323W        W29638  19.724  43.876   1.871
57324W        W29639  24.097  16.582   2.344
57325W        W29640   1.891  33.413   0.824
57326W        W29641  29.510  15.749  11.465
57327W        W29642  30.607  39.053  12.060
57328W        W29643  26.073  27.515   1.433
57329W        W29644  21.690   9.762  10.591
57330W        W29645   7.910  27.495  10.454
57331W        W29646  15.263   7.848  13.939
57332W        W29647  21.725  20.592  14.305
57333W        W29648  43.788  24.213   2.835
57334W        W29649  41.813  13.810  14.966
57335W        W29650   9.286  18.238   9.614
57336W        W29651   9.226  20.697   4.690
57337W        W29652   8.800  43.789   0.369
57338W        W29653  39.459  30.634  13.542
57339W        W29654  15.165   1.925   3.722
57340W        W29655  36.502  28.945  14.784
57341W        W29656  41.866  40.388  13.058
57342W        W29657   4.936  17.238   3.277
57343W        W29658  36.572  22.698   4.305
57344W        W29659  36.502  39.895  10.155
57345W        W29660  16.768   2.462  13.348
57346W        W29661   6.824  41.403  13.807
57347W        W29662  13.259  24.052   4.351
57348W        W29663  33.593  40.504   3.204
57349W        W29664   4.340   1.899   1.853
57350W        W29665  14.762  29.175  11.434
57351W        W29666  16.736  41.529  14.405
57352W        W29667  31.152  43.853   1.432
57353W        W29668  11.236  26.115   2.699
57354W        W29669  27.020   8.851   5.127
57355W        W29670  38.421  27.043   9.952
57356W        W29671  41.944  20.125  13.913
57357W        W29672   6.403  27.102  10.935
57358W        W29673  32.057  42.784   4.734
57359W        W29674  38.440   1.241  12.498
57360W        W29675  12.853  16.301  14.457
57361W        W29676  17.614  43.445   1.843
57362W        W29677   1.456  16.670  14.872
57363W        W29678  37.845   1.780   4.703
57364W        W29679  14.121   3.290   1.251
57365W        W29680  30.998  23.163   1.791
57366W        W29681  11.798  36.537  10.977
57367W        W29682  19.201  26.951   1.238
57368W        W29683  33.056  37.436   3.824
57369W        W29684  14.645  10.309  11.050
57370W        W29685  37.444  18.551   2.777
57371W        W29686  37.065  41.383   1.760
57372W        W29687  15.221  32.585  12.377
57373W        W29688  37.543  33.421  11.491
57374W        W29689  33.431  42.920   5.307
57375W        W29690   0.818  42.948  10.588
57376W        W29691  15.805   5.365   1.340
57377W        W29692  19.775  16.187   0.771
57378W        W29693  10.279  10.831   3.743
57379W        W29694  30.073  23.028  12.565
57380W        W29695  28.641  24.711  10.938
57381W        W29696  36.090  44.904   1.787
57382W        W29697  40.524   6.890  11.561
57383W        W29698  42.392  44.755  11.591
57384W        W29699  38.407  26.188   9.492
57385W        W29700  44.830  35.389   1.929
57386W        W29701  10.322  23.711   1.447
57387W        W29702   2.954  22.612   0.340
57388W        W29703  32.081  41.396   2.280
57389W        W29704  26.076  16.211   0.285
57390W        W29705   3.327  39.918   3.805
57391W        W29706   1.428  12.231  11.474
57392W        W29707  28.511  21.042   3.374
57393W        W29708   1.352  33.971   3.763
57394W        W29709   4.725  30.644   1.447
57395W        W29710  40.969  23.589   0.392
57396W        W29711  32.616  10.695  13.334
57397W        W29712  29.950  32.519  13.445
57398W        W29713   7.397   2.858  13.350
57399W        W29714  18.115  38.832   0.794
57400W        W29715   5.902  27.152  10.891
57401W        W29716  23.231  19.161   3.386
57402W        W29717  30.098  22.712   3.806
57403W        W29718  28.977  35.580  11.985
57404W        W29719  20.111  23.583   3.383
57405W        W29720  29.051  20.760  12.949
57406W        W29721  41.511   7.180   2.786
57407W        W29722  19.638  24.228   1.777
57408W        W29723   6.385  43.875  13.412
57409W        W29724  13.773   1.259  13.990
57410W        W29725   2.261  32.395   3.687
57411W        W29726   4.823  19.630  13.793
57412W        W29727  42.489  15.762   1.755
57413W        W29728  22.710  30.482   2.845
57414W        W29729  17.305  10.837  13.930
57415W        W29730  19.772  32.054  11.942
57416W        W29731  28.633  20.643   2.795
57417W        W29732   1.386   8.878  11.517
57418W        W29733  40.813  40.311  14.446
57419W        W29734  34.112   6.886  14.466
57420W        W29735   1.866  10.384  11.941
57421W        W29736  22.638  10.281   2.699
57422W        W29737  22.582   4.335  13.958
57423W        W29738  40.869  22.575  13.042
57424W        W29739  21.045  27.960  14.508
57425W        W29740  19.761  37.903   4.294
57426W        W29741   8.775   6.682   3.262
57427W        W29742  29.544  32.982   3.352
57428W        W29743  44.308   5.695  14.890
57429W        W29744  24.999  34.926  11.540
57430W        W29745  23.603  33.122   3.174
57431W        W29746  19.568  20.713  10.497
57432W        W29747  34.983  14.657  12.971
57433W        W29748  18.058   0.247   1.756
57434W        W29749  41.909  10.742  11.417
57435W        W29750  18.178  10.724   3.347
57436W        W29751  37.420  13.836  14.821
57437W        W29752  35.359   2.344   2.345
57438W        W29753  23.668  11.201  10.992
57439W        W29754   3.237  41.446   2.235
57440W        W29755   3.771  25.581  14.994
57441W        W29756   7.366   3.820  13.844
57442W        W29757  15.301  19.052   3.270
57443W        W29758  32.926  20.715   4.320
57444W        W29759   5.335  41.465   4.152
57445W        W29760  13.325  18.608  11.507
57446W        W29761   6.256   4.225   1.249
57447W        W29762  29.114  24.081  13.535
57448W        W29763  20.083  14.692   3.307
57449W        W29764  32.453  22.681   3.354
57450W        W29765  13.272  22.123   4.174
57451W        W29766  31.605  37.414   3.370
57452W        W29767  18.122  13.194  14.450
57453W        W29768   2.760   9.676  13.309
57454W        W29769   9.353   6.917  14.870
57455W        W29770  10.766  22.668  13.898
57456W        W29771  27.979  38.075  10.928
57457W        W29772  33.546  44.878  10.425
57458W        W29773  38.363  38.026   2.345
57459W        W29774   7.752  35.900   3.327
57460W        W29775   4.235   2.746   2.733
57461W        W29776  41.526  40.458   1.345
57462W        W29777  15.126  14.205  13.884
57463W        W29778  20.533  32.583   0.764
57464W        W29779  41.962  19.688  14.918
57465W        W29780  26.546  40.919   2.667
57466W        W29781  29.608  20.188  10.579
57467W        W29782   7.906  31.952   2.756
57468W        W29783   7.732  19.049   2.313
57469W        W29784  37.469  40.973  11.941
57470W        W29785   1.922  34.449  12.946
57471W        W29786  19.755   6.279   4.218
57472W        W29787  14.337  14.282  13.355
57473W        W29788  43.507  42.523  10.463
57474W        W29789  44.416   4.887   0.783
57475W        W29790  24.578  17.093   0.817
57476W        W29791  41.356  32.579  14.823
57477W        W29792   4.411   7.247  13.348
57478W        W29793   4.414  40.856  11.889
57479W        W29794  36.526  32.505   3.193
57480W        W29795   4.923  41.009   0.431
57481W        W29796  14.737  40.894  14.395
57482W        W29797  24.599   7.300  14.426
57483W        W29798   3.379   6.262  12.062
57484W        W29799  35.952  13.798  14.342
57485W        W29800  17.740  27.580   3.344
57486W        W29801  22.067  26.469   4.229
57487W        W29802  23.520  39.056  12.013
57488W        W29803  32.521  23.502   2.372
57489W        W29804  11.206  20.104   3.735
57490W        W29805   0.324  36.004   0.943
57491W        W29806  15.102  31.487  12.385
57492W        W29807  20.594  24.689   4.149
57493W        W29808  42.792  24.711  13.448
57494W        W29809  17.282  11.371  14.880
57495W        W29810  12.324  13.699   1.407
57496W        W29811  44.757  32.522   4.289
57497W        W29812  16.317  29.950   3.214
57498W        W29813  32.091   3.450   3.283
57499W        W29814  19.645  19.751   1.263
57500W        W29815  35.418   2.317   0.885
57501W        W29816   6.764  25.600   2.302
57502W        W29817  18.099  31.101  14.952
57503W        W29818  12.274  18.121  14.480
57504W        W29819  30.557  39.030   2.331
57505W        W29820  23.545   4.425   4.656
57506W        W29821  38.051   2.841  12.016
57507W        W29822  16.301   5.700   4.615
57508W        W29823  14.228  36.861   3.857
57509W        W29824  30.477   3.383   3.384
57510W        W29825  43.489  30.041   2.835
57511W        W29826  39.813  27.173   0.478
57512W        W29827  42.967  34.451   2.771
57513W        W29828  33.994   9.816  11.011
57514W        W29829   5.431  20.675   2.382
57515W        W29830  34.921  11.739  12.894
57516W        W29831   1.893  21.097  13.966
57517W        W29832  40.929  43.970  12.868
57518W        W29833  42.506   0.887  13.415
57519W        W29834  41.463  12.797  11.124
57520W        W29835  25.522   8.900  14.986
57521W        W29836  24.534  28.511   4.252
57522W        W29837   7.313  15.161  11.989
57523W        W29838  22.608  38.552  10.493
57524W        W29839   4.877  35.483  10.447
57525W        W29840  18.573  39.323  14.784
57526W        W29841  37.027   7.668   3.251
57527W        W29842  41.900  18.282   1.815
57528W        W29843   9.774  10.638   0.353
57529W        W29844  42.977  42.452   1.868
57530W        W29845  36.941  22.203  10.563
57531W        W29846  31.965  20.050   0.902
57532W        W29847  11.195  10.257   2.750
57533W        W29848   8.704  14.286  13.444
57534W        W29849  24.025  32.591  14.318
57535W        W29850  33.887  31.130   0.330
57536W        W29851  40.916  12.260  14.413
57537W        W29852   3.838  21.620  13.901
57538W        W29853  36.438   8.198  12.016
57539W        W29854  14.217   3.309   4.344
57540W        W29855   2.426  21.119  14.988
57541W        W29856   4.306  10.641   3.155
57542W        W29857  12.150  17.253  12.911
57543W        W29858  22.585  13.787   1.926
57544W        W29859  17.593   5.376  13.040
57545W        W29860  13.293  36.442  13.316
57546W        W29861  19.614  19.263  12.343
57547W        W29862  28.494   5.751  10.404
57548W        W29863   4.447  44.322  13.436
57549W        W29864  43.399  20.082  13.815
57550W        W29865   3.942  17.701   2.832
57551W        W29866  13.276  41.883   4.235
57552W        W29867  18.616  38.839  13.808
57553W        W29868  35.054  15.582   1.251
57554W        W29869  40.003   9.881  10.956
57555W        W29870  23.724  15.687  11.956
57556W        W29871  32.114  13.661   3.687
57557W        W29872  24.654  21.256   1.263
57558W        W29873  35.954  30.452   1.279
57559W        W29874  21.045  14.242   5.085
57560W        W29875  15.764  41.321   2.322
57561W        W29876   8.176  43.868  12.058
57562W        W29877  13.316  31.009  11.509
57563W        W29878  10.688   3.800  10.476
57564W        W29879  42.865   2.896   4.662
57565W        W29880  44.293  34.892   5.141
57566W        W29881  38.413  10.761  13.497
57567W        W29882  34.968  19.673   3.184
57568W        W29883  13.252  18.754   0.435
57569W        W29884  44.489  34.003   3.651
57570W        W29885  10.282  41.974   0.824
57571W        W29886   5.320  12.831  12.038
57572W        W29887  37.903   1.472  10.912
57573W        W29888  19.584  26.594  11.975
57574W        W29889  16.257   9.683   4.736
57575W        W29890  43.804  27.615   2.718
57576W        W29891  44.972   4.213  11.439
57577W        W29892  11.233  25.617  10.492
57578W        W29893   2.834  14.677  13.331
57579W        W29894  26.199  31.074  13.992
57580W        W29895  29.574  12.268  10.565
57581W        W29896  34.539   7.197   3.234
57582W        W29897  14.645  36.072  14.296
57583W        W29898   1.395   7.175  14.861
57584W        W29899  22.587  32.405   1.414
57585W        W29900  16.305  21.699  11.582
57586W        W29901   2.330  35.983   5.223
57587W        W29902  17.690  34.035  14.886
57588W        W29903  35.378   8.896   2.883
57589W        W29904  39.456  20.109   3.308
57590W        W29905  19.282  32.451   4.305
57591W        W29906  28.579   3.418  14.897
57592W        W29907   8.815  20.182  14.512
57593W        W29908  30.931  20.060  13.908
57594W        W29909  12.136   3.778   4.771
57595W        W29910  12.292  44.373   2.851
57596W        W29911  38.520   5.327   2.414
57597W        W29912  23.182  17.645   3.285
57598W        W29913   9.813   8.884  14.512
57599W        W29914  40.542  17.793   0.943
57600W        W29915   3.299  20.217   4.152
57601W        W29916  24.169  23.600   4.346
57602W        W29917  42.906  28.992   0.377
57603W        W29918  26.638  44.002  14.769
57604W        W29919  33.421  15.126   3.175
57605W        W29920   5.715   1.753   3.803
57606W        W29921  13.829  41.341   3.864
57607W        W29922  30.070  14.737   4.299
57608W        W29923  34.030  27.140  11.975
57609W        W29924  32.041  39.007  11.463
57610W        W29925  16.635  20.222   1.341
57611W        W29926  16.162  43.429   1.420
57612W        W29927  36.391  11.728   0.822
57613W        W29928   3.835  22.567  12.354
57614W        W29929  37.442  30.630   9.965
57615W        W29930   6.690  16.729   1.726
57616W        W29931  21.677  43.326  11.415
57617W        W29932  31.473   0.362   1.224
57618W        W29933  23.583   4.307  12.949
57619W        W29934  23.082  35.496  11.448
57620W        W29935  34.920  38.924  13.390
57621W        W29936  18.056  16.288  12.978
57622W        W29937  21.196   4.902   5.228
57623W        W29938  26.532   8.209   4.691
57624W        W29939  33.554  35.891  13.985
57625W        W29940  15.249  27.619  10.601
57626W        W29941   8.367  40.964  13.358
57627W        W29942  40.481  26.507  10.061
57628W        W29943  18.153  13.166  13.829
57629W        W29944  21.671  41.936   2.286
57630W        W29945  31.037  22.612   2.686
57631W        W29946   2.394  22.171  14.499
57632W        W29947  44.006   2.380   0.323
57633W        W29948   7.717  29.056  14.953
57634W        W29949  44.965  44.798   2.199
57635W        W29950  21.741   7.411  12.960
57636W        W29951  43.962  26.109  10.591
57637W        W29952  14.265  34.943  14.943
57638W        W29953  37.545  16.159  10.417
57639W        W29954  44.831  40.969   4.152
57640W        W29955  15.697   5.820  11.127
57641W        W29956   9.870  17.062   9.922
57642W        W29957  40.306  11.794  10.000
57643W        W29958  38.042  24.638  11.079
57644W        W29959  20.236   3.906  13.916
57645W        W29960  20.125  23.618   0.958
57646W        W29961  29.439  34.588   4.732
57647W        W29962  38.072  21.092   9.978
57648W        W29963  43.321   5.257  13.799
57649W        W29964   1.867  40.459   1.877
57650W        W29965  19.751  27.951  11.056
57651W        W29966  29.974   5.241   2.720
57652W        W29967  44.796  38.871  13.001
57653W        W29968  34.944   7.760   4.772
57654W        W29969  22.504  37.408   3.672
57655W        W29970  19.551  31.557   2.310
57656W        W29971  40.416  22.573   5.169
57657W        W29972  20.111  29.439   4.171
57658W        W29973  13.191  10.200   0.867
57659W        W29974  34.894   7.804   1.698
57660W        W29975   9.199  25.118   3.216
57661W        W29976  28.621   3.423  10.403
57662W        W29977   5.691  34.872  11.558
57663W        W29978  14.747   7.344  13.900
57664W        W29979   3.776  19.570  10.921
57665W        W29980  40.413  40.974   2.413
57666W        W29981   4.246  32.599   0.872
57667W        W29982  14.310   2.787  11.438
57668W        W29983   5.687  16.250   3.822
57669W        W29984   9.365   5.201  11.938
57670W        W29985  17.640  37.845  11.968
57671W        W29986  21.717   2.416   0.418
57672W        W29987  20.578  13.212  13.483
57673W        W29988  29.581  19.188   1.855
57674W        W29989  20.730  31.504   2.869
57675W        W29990  10.662  10.299  10.541
57676W        W29991  37.352  28.148  12.027
57677W        W29992   3.440  27.029  11.381
57678W        W29993  10.332  28.467   2.282
57679W        W29994   6.199  42.462   4.151
57680W        W29995  16.653   2.783   4.284
57681W        W29996   4.380  23.520  13.410
57682W        W29997  16.138  26.483  13.933
57683W        W29998  12.236  42.389   3.157
57684W        W29999   2.389  43.402  12.057
57685W        W30000  10.315  32.133   3.233
57686W        W30001   9.735  23.080  12.540
57687W        W30002  42.962  17.668   0.861
57688W        W30003  43.360  22.648  11.490
57689W        W30004  29.477  38.058   4.189
57690W        W30005   3.881   5.760   3.685
57691W        W30006  22.213  24.099  11.125
57692W        W30007  40.305  27.175  14.002
57693W        W30008  17.220  14.703  12.404
57694W        W30009  22.683  21.737   2.318
57695W        W30010  27.624  37.367   1.831
57696W        W30011  20.064  36.991   0.773
57697W        W30012  11.639  20.735   0.480
57698W        W30013   2.455  28.457  10.930
57699W        W30014  40.343  14.111   5.143
57700W        W30015   5.698  21.544   0.406
57701W        W30016  24.709  34.073   1.825
57702W        W30017  23.676  17.214  12.088
57703W        W30018  21.739  30.153  13.817
57704W        W30019  30.068  24.716   4.765
57705W        W30020  27.571  39.044  10.431
57706W        W30021  32.002   5.316  10.636
57707W        W30022  11.272  28.635   2.417
57708W        W30023  25.581  44.452  13.495
57709W        W30024   2.286   1.322   0.870
57710W        W30025  14.215  32.425  11.609
57711W        W30026  31.950  21.175   2.678
57712W        W30027  29.608  35.987   1.735
57713W        W30028   6.769  38.995   0.281
57714W        W30029  37.435   0.950   4.316
57715W        W30030   9.282   8.841  11.128
57716W        W30031  43.949  16.279   0.275
57717W        W30032   3.325  24.973  12.075
57718W        W30033   0.976   1.298   1.381
57719W        W30034  20.210  14.195  10.577
57720W        W30035  20.621  21.617   2.881
57721W        W30036  25.482  25.190   4.203
57722W        W30037  14.664  38.938   3.241
57723W        W30038  33.049  35.400   4.794
57724W        W30039  11.622   5.746  12.978
57725W        W30040  26.034  42.499   2.887
57726W        W30041  23.633   7.869   4.197
57727W        W30042  15.726  17.240  10.424
57728W        W30043  24.491  28.440  12.564
57729W        W30044  41.308  43.798  13.816
57730W        W30045  13.139  22.638  11.558
57731W        W30046  36.004  17.194   2.730
57732W        W30047   4.901  12.219  14.294
57733W        W30048  13.149  19.113  12.066
57734W        W30049  34.518  42.822  11.093
57735W        W30050  25.172   8.166   3.758
57736W        W30051   7.318  23.642  14.350
57737W        W30052   2.392  42.831   9.921
57738W        W30053   3.399   9.655  13.350
57739W        W30054  26.513  29.163  12.837
57740W        W30055  10.641  23.187  12.987
57741W        W30056  33.905   9.314   4.664
57742W        W30057  11.260  20.063   9.521
57743W        W30058  21.660  17.771  12.991
57744W        W30059  15.313  13.164  11.592
57745W        W30060  20.243   7.395   0.256
57746W        W30061  40.449  31.467  14.336
57747W        W30062  29.603   3.379   3.791
57748W        W30063  17.072  27.947   2.301
57749W        W30064  41.835  35.942   2.255
57750W        W30065  14.800  17.133  13.315
57751W        W30066   4.241  15.127   2.766
57752W        W30067  28.948  43.497  14.357
57753W        W30068  41.905   6.872  12.914
57754W        W30069  22.663   7.279  14.800
57755W        W30070  29.519  29.075  10.448
57756W        W30071   1.902  33.889   0.734
57757W        W30072  39.979  28.506   4.275
57758W        W30073  38.999  37.032  14.875
57759W        W30074  31.046  17.140   1.824
57760W        W30075  36.550  13.242   1.378
57761W        W30076  15.601  35.101  13.034
57762W        W30077  44.950  13.204   1.398
57763W        W30078  29.157  38.951   3.154
57764W        W30079  24.650  16.683  10.913
57765W        W30080  35.427  40.897  12.543
57766W        W30081  35.395  44.820   0.369
57767W        W30082   5.394   1.795  14.870
57768W        W30083  39.349  42.397   0.371
57769W        W30084  12.131  16.645   1.791
57770W        W30085  27.140  20.065   2.751
57771W        W30086  25.045  25.569   1.433
57772W        W30087  26.175  16.112  12.944
57773W        W30088  31.025  26.460   0.964
57774W        W30089  23.987  25.199  12.413
57775W        W30090   4.237  20.644   0.841
57776W        W30091   4.262  39.063  10.515
57777W        W30092  35.108  43.282   0.382
57778W        W30093   7.717  18.104  13.932
57779W        W30094   0.330  25.599   3.173
57780W        W30095   1.761  26.052   0.852
57781W        W30096  17.291  19.257   4.789
57782W        W30097  34.532  36.585  13.911
57783W        W30098  19.225  32.487  12.073
57784W        W30099  37.416  10.703   3.806
57785W        W30100  17.250  14.737   1.896
57786W        W30101   1.393  21.599  11.422
57787W        W30102  42.451   1.822   0.251
57788W        W30103   1.775  17.570  14.883
57789W        W30104  28.938  11.626   0.273
57790W        W30105  11.832  29.994  14.017
57791W        W30106  24.224  18.570   9.665
57792W        W30107  17.157  43.892  13.334
57793W        W30108  15.578   3.887   2.385
57794W        W30109   0.361  32.545  11.543
57795W        W30110   0.310   5.873  11.563
57796W        W30111  10.204   8.271   1.721
57797W        W30112  15.594  41.492  13.029
57798W        W30113   8.857   2.316   0.274
57799W        W30114  20.115  38.467   0.758
57800W        W30115   2.453   7.865   1.265
57801W        W30116  29.624  15.284  14.488
57802W        W30117  25.164  43.870  11.608
57803W        W30118   4.893  14.262  10.925
57804W        W30119  36.368   9.763   0.932
57805W        W30120  19.165   9.317  10.592
57806W        W30121  35.441  29.111  13.349
57807W        W30122  31.972  29.076  14.964
57808W        W30123  40.423  34.492   0.801
57809W        W30124  20.609   5.753   0.743
57810W        W30125  33.122  27.116   2.759
57811W        W30126  34.508  13.655  11.464
57812W        W30127  10.849   3.351   4.686
57813W        W30128  41.430  20.695   3.310
57814W        W30129   5.217  27.086  12.370
57815W        W30130   7.910  41.296  12.527
57816W        W30131   0.445  21.514   1.377
57817W        W30132  16.144  27.188   1.829
57818W        W30133   6.267  37.026  11.048
57819W        W30134  33.609   1.961   3.804
57820W        W30135  33.057  42.909   0.334
57821W        W30136   8.316  35.598   4.194
57822W        W30137  25.191  37.993  14.867
57823W        W30138  37.537   1.836   4.814
57824W        W30139  30.121  27.101   3.713
57825W        W30140   2.887  27.020   4.817
57826W        W30141   9.726  41.486   4.678
57827W        W30142   0.315  29.005  14.395
57828W        W30143  33.074  41.370  14.468
57829W        W30144  26.686  40.977  13.337
57830W        W30145  41.395  17.661  14.761
57831W        W30146  25.639  19.182  12.353
57832W        W30147  15.231   3.736  11.085
57833W        W30148  38.921  43.995  12.857
57834W        W30149  31.035  22.539   9.929
57835W        W30150  22.081  31.437   3.307
57836W        W30151  24.574  14.116   3.805
57837W        W30152  32.597   0.429  13.343
57838W        W30153  13.217  43.328   3.181
57839W        W30154  38.993  29.128   1.704
57840W        W30155  37.371  32.917  11.422
57841W        W30156  26.522  19.665   3.808
57842W        W30157  18.226   9.290  12.922
57843W        W30158  10.263  39.403  12.836
57844W        W30159  16.296   5.354  10.948
57845W        W30160  16.657  22.051  13.897
57846W        W30161  29.473  25.609  14.342
57847W        W30162   2.254  37.879  11.533
57848W        W30163  43.831  43.421  11.409
57849W        W30164  14.641  10.182  10.138
57850W        W30165  18.150  23.021  12.484
57851W        W30166  19.547  13.231  13.394
57852W        W30167  22.559  21.159   0.775
57853W        W30168  37.950  23.493  13.908
57854W        W30169  15.147  37.387   2.349
57855W        W30170  20.723  10.792   3.637
57856W        W30171  39.842  40.830  10.445
57857W        W30172  24.040  22.234   4.275
57858W        W30173   2.753  29.611   3.652
57859W        W30174  38.030  20.628   0.967
57860W        W30175   2.449  19.214   0.364
57861W        W30176  42.476  25.023  14.484
57862W        W30177  17.088  28.642   2.333
57863W        W30178  28.942   5.395  13.907
57864W        W30179  24.653  15.314  14.406
57865W        W30180  35.993  25.055  13.475
57866W        W30181  35.969  19.637   1.740
57867W        W30182  25.207  27.195   2.382
57868W        W30183  32.966  17.223   1.743
57869W        W30184   3.386  16.155   0.401
57870W        W30185  10.677  15.682   0.956
57871W        W30186  34.873  17.605  14.415
57872W        W30187  19.627  20.623   2.190
57873W        W30188  41.422   6.778  10.954
57874W        W30189   1.906   3.863   2.411
57875W        W30190  32.018   4.324   1.255
57876W        W30191  26.144   7.180   1.334
57877W        W30192  36.090  37.460   1.219
57878W        W30193   7.873   4.752  10.422
57879W        W30194  24.182   1.894   2.222
57880W        W30195  33.912  22.532  10.125
57881W        W30196  30.028  30.629   0.785
57882W        W30197  43.967  24.562   2.379
57883W        W30198   2.366  18.597  14.988
57884W        W30199  36.357   7.414  14.913
57885W        W30200  26.984   2.388  11.969
57886W        W30201  30.091  15.613   1.345
57887W        W30202   9.890  25.623   4.820
57888W        W30203  17.184   1.431  12.421
57889W        W30204  19.759  25.169   1.759
57890W        W30205   1.849  44.755  12.044
57891W        W30206  29.664   6.839   4.820
57892W        W30207  25.706   7.375  14.366
57893W        W30208  40.843  25.511   3.783
57894W        W30209   9.745  43.381   2.773
57895W        W30210  12.796  33.035   0.423
57896W        W30211  32.427  18.662   4.205
57897W        W30212   9.775  37.530   4.783
57898W        W30213  37.051  29.472  11.866
57899W        W30214  10.858  20.163   4.824
57900W        W30215  20.195  16.774   0.884
57901W        W30216  11.797   7.184   0.778
57902W        W30217   1.415  33.397   2.754
57903W        W30218  16.587  42.342   2.402
57904W        W30219  34.402  16.664   2.667
57905W        W30220  25.091  35.973  10.520
57906W        W30221  16.091   3.459   0.929
57907W        W30222   8.830  26.537  11.461
57908W        W30223  33.107  32.494  12.574
57909W        W30224  23.052  14.695  10.935
57910W        W30225  33.990   9.152   2.248
57911W        W30226  35.073  22.543   2.865
57912W        W30227  31.618   0.861   0.412
57913W        W30228  43.801  31.487  14.304
57914W        W30229  29.025  34.996  13.475
57915W        W30230  38.505   3.734   1.865
57916W        W30231  43.363  43.776  14.810
57917W        W30232  16.693   3.283   3.200
57918W        W30233  24.077  41.843   0.417
57919W        W30234  21.090   2.751   1.346
57920W        W30235   0.905  25.145   2.231
57921W        W30236  21.105  11.745  13.427
57922W        W30237  11.691  36.582  12.497
57923W        W30238  29.062   6.240   0.373
57924W        W30239   2.831  33.963   1.842
57925W        W30240  17.712   1.862   1.412
57926W        W30241  30.635  12.224   3.633
57927W        W30242  39.542  10.335   1.935
57928W        W30243  21.601   5.361   4.225
57929W        W30244  28.980  20.735  14.921
57930W        W30245  19.683   1.410  11.462
57931W        W30246  24.107   4.435   1.338
57932W        W30247  20.044  25.587   3.379
57933W        W30248  25.524  24.149   0.786
57934W        W30249  40.410   5.708  14.863
57935W        W30250  12.814  22.091   4.121
57936W        W30251   5.264  28.663  11.460
57937W        W30252  35.489  19.590  11.067
57938W        W30253  42.416  24.208  10.446
57939W        W30254  10.338  15.719  11.601
57940W        W30255  27.614  23.535  13.960
57941W        W30256  24.170  26.613   1.305
57942W        W30257   4.288  29.508  12.552
57943W        W30258  18.722  40.944   5.093
57944W        W30259   1.325  14.279  13.937
57945W        W30260  32.055  12.169   3.167
57946W        W30261   4.728  24.978  13.961
57947W        W30262  28.480  40.338   4.659
57948W        W30263  21.042   0.896   4.824
57949W        W30264  30.438  22.154  14.513
57950W        W30265  33.904  39.459  13.063
57951W        W30266  37.073  40.859   3.306
57952W        W30267  34.871   9.385   2.678
57953W        W30268  14.737   8.406  12.369
57954W        W30269  25.144  29.532   5.289
57955W        W30270  22.017   2.233  12.360
57956W        W30271  27.612   1.855  10.625
57957W        W30272  10.272  11.684   0.832
57958W        W30273  34.581  37.867  11.043
57959W        W30274  18.127  27.964  12.931
57960W        W30275  17.735  12.733   3.657
57961W        W30276   8.303  22.577  11.402
57962W        W30277   0.767  38.435   4.649
57963W        W30278   2.933  12.798  11.909
57964W        W30279   5.698  44.459  13.491
57965W        W30280  43.942  26.496  14.938
57966W        W30281  16.805  17.301  12.369
57967W        W30282  20.140   3.419   5.138
57968W        W30283  13.648  13.844  14.418
57969W        W30284   1.316  11.310  12.356
57970W        W30285   0.967   8.791  13.947
57971W        W30286  37.973  35.555   1.821
57972W        W30287  15.693   8.804  11.881
57973W        W30288  22.668   2.409   3.851
57974W        W30289  19.264  18.140   1.442
57975W        W30290  12.806  18.186  10.084
57976W        W30291  19.140  42.364   0.764
57977W        W30292  20.261   0.329   0.734
57978W        W30293  32.620  11.183  11.484
57979W        W30294  12.287  40.912   2.875
57980W        W30295  18.260  34.086  12.360
57981W        W30296  26.089  39.892   0.888
57982W        W30297  30.150  25.514  14.029
57983W        W30298   3.442  35.865  14.502
57984W        W30299  29.087   5.927  12.420
57985W        W30300  30.915  36.394  13.026
57986W        W30301  12.613   5.707   4.283
57987W        W30302   9.791   0.257   0.896
57988W        W30303   2.438   7.382  10.534
57989W        W30304   6.717  11.675   2.825
57990W        W30305   6.865  20.109   0.745
57991W        W30306  16.725  40.854  11.009
57992W        W30307  21.088  43.374   2.782
57993W        W30308  24.677  41.031   3.685
57994W        W30309  17.252  33.884  10.966
57995W        W30310  40.988  25.706   0.922
57996W        W30311  41.402  18.076   0.954
57997W        W30312  20.039   8.346   2.406
57998W        W30313  28.584  43.388  12.088
57999W        W30314  15.821  38.462   5.197
58000W        W30315  35.907   1.916   2.194
58001W        W30316  16.769  10.638   0.786
58002W        W30317  40.876  36.564   0.760
58003W        W30318  25.103  22.099   4.777
58004W        W30319   9.390   7.727   0.273
58005W        W30320  40.888  41.998   2.733
58006W        W30321   7.911  12.294  14.915
58007W        W30322  12.202  37.898   0.816
58008W        W30323   1.261   7.712   0.255
58009W        W30324  42.317  11.864  12.950
58010W        W30325  38.067  16.589   4.674
58011W        W30326  34.566  11.731   3.336
58012W        W30327   9.744  13.118   0.256
58013W        W30328  15.753  24.090   4.838
58014W        W30329  18.773  24.695   0.268
58015W        W30330  33.393   1.977   1.753
58016W        W30331  28.135  16.190  11.498
58017W        W30332  31.433   9.673   4.233
58018W        W30333   9.349  22.551   2.834
58019W        W30334  10.167  36.891  10.436
58020W        W30335  39.483  11.296   0.382
58021W        W30336  38.437   4.874   0.416
58022W        W30337  37.392  22.726  12.913
58023W        W30338  22.062  38.335   1.354
58024W        W30339  34.107  28.142  13.034
58025W        W30340   6.296  15.701   2.774
58026W        W30341  15.715  36.400   1.342
58027W        W30342   1.856  42.822  11.904
58028W        W30343  23.059   6.903  14.991
58029W        W30344  38.939  17.287  10.615
58030W        W30345  22.649  26.628   2.875
58031W        W30346  29.484  33.584   2.253
58032W        W30347  28.040  12.776   3.791
58033W        W30348  16.140  25.589  13.437
58034W        W30349   5.342  44.441  12.416
58035W        W30350  19.099  33.041   2.897
58036W        W30351  40.806  20.645   4.667
58037W        W30352   8.670  17.146   0.322
58038W        W30353  13.209   0.350  12.866
58039W        W30354  29.021  42.799  12.451
58040W        W30355  20.054  44.462  10.472
58041W        W30356  37.504  38.965   3.758
58042W        W30357   4.820  21.567  14.498
58043W        W30358  17.089   9.178  14.850
58044W        W30359  23.111  40.019  13.485
58045W        W30360  24.483  30.069   2.837
58046W        W30361   1.390  12.826  13.854
58047W        W30362  22.593  17.209  11.389
58048W        W30363  30.933  30.523  10.455
58049W        W30364  16.752  18.647   2.668
58050W        W30365   3.337  14.610   1.307
58051W        W30366  43.434   7.902  11.038
58052W        W30367  11.355  23.654   0.469
58053W        W30368   2.281   0.864   4.205
58054W        W30369  43.778  19.589   2.316
58055W        W30370  18.753  14.693  10.940
58056W        W30371   0.455   6.273  12.951
58057W        W30372   7.206  19.146   4.819
58058W        W30373  44.899  41.042   0.422
58059W        W30374  30.048  39.531  10.447
58060W        W30375  35.361  23.038   3.657
58061W        W30376  32.499  38.982   4.676
58062W        W30377  17.588  40.946   3.239
58063W        W30378  19.151  36.369   2.848
58064W        W30379  38.960  18.704   2.239
58065W        W30380  22.703  26.475   5.258
58066W        W30381  39.053   9.824   0.320
58067W        W30382   2.737  41.966   1.806
58068W        W30383  15.814   0.438   0.411
58069W        W30384  25.629  32.122  10.116
58070W        W30385   7.352  29.978  10.492
58071W        W30386  24.144  19.262  11.016
58072W        W30387  20.103  11.369   4.255
58073W        W30388  29.939  20.666   0.362
58074W        W30389  18.164  35.905  11.540
58075W        W30390  18.683  23.725   0.469
58076W        W30391  34.116  22.049  12.071
58077W        W30392  42.378  39.916  12.824
58078W        W30393  14.751  40.890   0.927
58079W        W30394  17.668  43.356   3.834
58080W        W30395   8.891  25.051  10.997
58081W        W30396  29.987  12.335   2.343
58082W        W30397  39.897  44.416   0.940
58083W        W30398  33.474  23.569   4.329
58084W        W30399  43.765  41.902   1.425
58085W        W30400  25.998  18.285  14.450
58086W        W30401  17.161  13.234   1.312
58087W        W30402  29.045  31.596  14.961
58088W        W30403   8.889  29.997   4.770
58089W        W30404  25.647  35.460  13.868
58090W        W30405  24.693  29.465  12.397
58091W        W30406  18.060  27.554  11.599
58092W        W30407  33.585  32.448   1.339
58093W        W30408  36.985   9.353   0.401
58094W        W30409  18.746  44.855   1.888
58095W        W30410  27.650  43.980  12.512
58096W        W30411  32.428  41.528   3.382
58097W        W30412  20.251  21.135   3.793
58098W        W30413  16.278  17.247   3.867
58099W        W30414  21.021  21.186  11.005
58100W        W30415  39.039  28.573  13.387
58101W        W30416  12.191  20.210  13.314
58102W        W30417  25.647   3.876   1.259
58103W        W30418   6.318  19.768  10.601
58104W        W30419  16.752  17.274   3.689
58105W        W30420   0.975  36.524  14.432
58106W        W30421  16.267  13.324   4.298
58107W        W30422  18.194   5.267   4.203
58108W        W30423  27.552  16.636   2.241
58109W        W30424  20.586  20.625  10.421
58110W        W30425   1.291  44.950  11.091
58111W        W30426  39.039  20.038  10.946
58112W        W30427  14.239  16.074  14.029
58113W        W30428  11.166  30.418  13.513
58114W        W30429  44.409  31.560   3.258
58115W        W30430  20.742  16.581  13.341
58116W        W30431  22.081  25.602   2.179
58117W        W30432  15.808  28.648   5.762
58118W        W30433  10.649  35.082   3.153
58119W        W30434  34.470  29.158   1.803
58120W        W30435   1.331  13.832   1.844
58121W        W30436  21.243  38.513   0.458
58122W        W30437  16.579  36.883   1.378
58123W        W30438  24.525  29.059   0.875
58124W        W30439  13.632  17.107  12.013
58125W        W30440  15.197  19.044  12.435
58126W        W30441  21.605  28.675   4.648
58127W        W30442  38.867  10.810  11.952
58128W        W30443  43.819  13.256  13.483
58129W        W30444  31.945  36.463   0.822
58130W        W30445  22.548  34.092   2.293
58131W        W30446  32.128   4.300   4.133
58132W        W30447   6.367  44.971  12.985
58133W        W30448  36.858  12.361   1.395
58134W        W30449  35.572  23.192  14.032
58135W        W30450   2.333  15.096   4.828
58136W        W30451  15.622   6.861   0.863
58137W        W30452  15.739  39.873   2.737
58138W        W30453  33.455  31.437   4.736
58139W        W30454  10.310  21.190   5.268
58140W        W30455   9.237  44.337  14.482
58141W        W30456  15.796  41.516  14.993
58142W        W30457   1.832  26.584  14.856
58143W        W30458   1.977  35.374   2.879
58144W        W30459  33.027  34.061   3.743
58145W        W30460   6.733   2.265   1.390
58146W        W30461  40.334  17.180  14.439
58147W        W30462  18.148  26.011  13.949
58148W        W30463  13.316  34.448  13.839
58149W        W30464  23.109   8.304   3.251
58150W        W30465  28.654  12.697  10.902
58151W        W30466   0.984  29.990   1.871
58152W        W30467   1.814  44.787   2.706
58153W        W30468  18.764   5.344   1.297
58154W        W30469  39.051   7.683  11.088
58155W        W30470  25.641  28.055  10.081
58156W        W30471  34.493   6.852  13.874
58157W        W30472  39.911  23.993   5.777
58158W        W30473  38.916  44.925  13.328
58159W        W30474  33.615  13.700  11.499
58160W        W30475  25.649  14.230   3.849
58161W        W30476  11.222  41.387   2.781
58162W        W30477   3.793  38.000  14.825
58163W        W30478  34.399   2.849   3.176
58164W        W30479   0.813   8.824   0.433
58165W        W30480  39.461   1.873  12.418
58166W        W30481  10.272  41.802   1.285
58167W        W30482  28.557  19.278  13.405
58168W        W30483   4.892  38.540   1.709
58169W        W30484  21.664  29.547  13.420
58170W        W30485  39.866  37.929   4.829
58171W        W30486  16.188  24.509  12.510
58172W        W30487  43.440  12.746   4.791
58173W        W30488  20.256  38.834   5.212
58174W        W30489  44.886  39.398   4.297
58175W        W30490  38.925  15.251  14.479
58176W        W30491   7.761  33.131  14.865
58177W        W30492   6.198  33.601   4.688
58178W        W30493  32.960  38.530   3.292
58179W        W30494   4.366   4.890   4.799
58180W        W30495  37.359  44.332   5.156
58181W        W30496   4.733   8.375   1.302
58182W        W30497  34.433  26.971  12.473
58183W        W30498  36.478  31.504   3.372
58184W        W30499  18.120  27.144   1.369
58185W        W30500  43.945  30.531  13.865
58186W        W30501  21.522   9.887   1.746
58187W        W30502   2.446  35.464   4.821
58188W        W30503  24.057   2.772  11.604
58189W        W30504  28.948  10.794  14.455
58190W        W30505   0.770  41.341   0.891
58191W        W30506  34.031  14.701  11.455
58192W        W30507   2.310  35.586  13.900
58193W        W30508   8.294  32.967  13.953
58194W        W30509  15.758  28.114  11.093
58195W        W30510   3.329  11.240   1.704
58196W        W30511   7.187  31.570   2.294
58197W        W30512  41.465  29.540  13.878
58198W        W30513  32.537  17.217   4.664
58199W        W30514   1.437   2.768  12.550
58200W        W30515  22.070  31.116   1.726
58201W        W30516  26.166  29.147  11.990
58202W        W30517   8.366  41.913   4.778
58203W        W30518  28.508  11.273  14.776
58204W        W30519  29.033   2.285   3.720
58205W        W30520  25.471   6.191   5.145
58206W        W30521  33.445  14.254  12.520
58207W        W30522  21.194  33.065   3.655
58208W        W30523  38.394   0.266   4.784
58209W        W30524   3.447   9.292   2.779
58210W        W30525   1.819   5.253  12.867
58211W        W30526   9.836  27.983   3.767
58212W        W30527  21.110  20.631  10.158
58213W        W30528  23.712   4.911  11.571
58214W        W30529  38.845  13.815   0.363
58215W        W30530   7.385  42.019   2.861
58216W        W30531  12.198  40.959   1.889
58217W        W30532  17.273   8.845  11.939
58218W        W30533  42.023  30.464   1.342
58219W        W30534  25.589  30.030  13.809
58220W        W30535  25.540  21.653  13.425
58221W        W30536  34.085  10.856  14.793
58222W        W30537  36.843  14.284  12.353
58223W        W30538   6.376  27.089  10.482
58224W        W30539   2.301  37.919   1.908
58225W        W30540  21.711  23.693  12.920
58226W        W30541  44.316  27.685   2.894
58227W        W30542  43.984  19.207   2.857
58228W        W30543  30.575  11.693  10.470
58229W        W30544  24.673  19.573  14.391
58230W        W30545  11.714  38.434  11.570
58231W        W30546  37.434  20.239  13.060
58232W        W30547  26.981   7.797   3.748
58233W        W30548   0.450  40.450   4.152
58234W        W30549  32.082  37.371   0.826
58235W        W30550  40.334  16.637   4.643
58236W        W30551   2.794  21.709  13.402
58237W        W30552  13.308  17.125   1.382
58238W        W30553  30.464  18.149  13.324
58239W        W30554   9.258  35.055   1.292
58240W        W30555  35.440  44.427   0.780
58241W        W30556  23.554   0.380  14.359
58242W        W30557  38.933  37.832   1.802
58243W        W30558  34.016  28.493   0.914
58244W        W30559  41.040  21.529  13.441
58245W        W30560  31.902  31.406   3.775
58246W        W30561  10.843   7.394  11.124
58247W        W30562   9.362  18.209   0.796
58248W        W30563  41.899  22.238  10.547
58249W        W30564   7.401  26.025   1.250
58250W        W30565  27.030   7.798   3.336
58251W        W30566  29.022   1.262   2.676
58252W        W30567   3.862  29.123   2.709
58253W        W30568   4.721  32.550   4.618
58254W        W30569  27.499  20.181  14.957
58255W        W30570  12.235  23.038  11.469
58256W        W30571  29.585  35.566   4.822
58257W        W30572   8.396   1.324  10.894
58258W        W30573   2.400   3.399  14.864
58259W        W30574   6.909  44.947  14.783
58260W        W30575   1.973  31.495  14.829
58261W        W30576  38.363  32.446  11.978
58262W        W30577  19.650  28.597   3.665
58263W        W30578  12.293  19.056   0.447
58264W        W30579   7.882  33.499   2.204
58265W        W30580  11.321  12.192  11.595
58266W        W30581  17.118  16.310   1.776
58267W        W30582  38.386  34.997   2.682
58268W        W30583  10.195  27.463  11.529
58269W        W30584   5.915  10.250  13.958
58270W        W30585   1.863   3.879  12.878
58271W        W30586  14.242  27.137   1.433
58272W        W30587  29.143   7.317   4.763
58273W        W30588  17.195   9.810   0.300
58274W        W30589  36.421  22.697   2.181
58275W        W30590  14.751   1.781   1.751
58276W        W30591  20.740  24.480   1.302
58277W        W30592   5.807  30.463   4.837
58278W        W30593   3.718  24.563  13.459
58279W        W30594  34.023  41.906   0.260
58280W        W30595  34.480  19.283  11.498
58281W        W30596  20.717  42.478  13.048
58282W        W30597  24.071  43.857  14.909
58283W        W30598  23.579  19.153  13.807
58284W        W30599  11.304  19.173   0.275
58285W        W30600  22.616   6.265  10.156
58286W        W30601  39.396   5.279   1.291
58287W        W30602  43.821  43.467  11.876
58288W        W30603   0.452  22.648   4.649
58289W        W30604   6.764  28.630  13.003
58290W        W30605  28.670  12.230  10.536
58291W        W30606  44.836  27.616   4.199
58292W        W30607  17.744  38.064  11.568
58293W        W30608  39.464  44.009   4.167
58294W        W30609  31.140  34.072   0.481
58295W        W30610  33.503  15.203  10.977
58296W        W30611  21.021   4.770  11.873
58297W        W30612  26.689  32.446   2.894
58298W        W30613  33.891   1.777  12.539
58299W        W30614  27.028  23.607   3.195
58300W        W30615  18.286  15.731   0.967
58301W        W30616  23.164  14.111   0.385
58302W        W30617  31.110  22.038  14.983
58303W        W30618  43.462   0.850   3.825
58304W        W30619  35.415  26.143  14.360
58305W        W30620   7.909  44.392  13.538
58306W        W30621  13.824  30.463  13.467
58307W        W30622  40.491   7.290   4.646
58308W        W30623   6.349  40.901  12.902
58309W        W30624  31.993  10.373  11.912
58310W        W30625  32.519   7.254   0.310
58311W        W30626  25.037   7.770   2.389
58312W        W30627  17.785  13.763  14.442
58313W        W30628   7.733  31.988  13.372
58314W        W30629  37.336  22.640   1.418
58315W        W30630   3.410  24.544   2.294
58316W        W30631  20.556  17.299   2.404
58317W        W30632   9.721  34.898  14.397
58318W        W30633  31.061  35.377  11.379
58319W        W30634  27.464  29.037  13.965
58320W        W30635  14.753   5.863  13.799
58321W        W30636   8.384  34.486   1.400
58322W        W30637  10.291  11.713  12.508
58323W        W30638  42.324   8.780  12.876
58324W        W30639  40.377  38.493  13.974
58325W        W30640  21.140  26.700   4.319
58326W        W30641  42.477   4.795  14.980
58327W        W30642  38.448  28.653   0.379
58328W        W30643  42.434  42.859   0.383
58329W        W30644  37.047  15.083   1.918
58330W        W30645  28.154  31.041   4.774
58331W        W30646  29.605   8.681   1.403
58332W        W30647  30.043  20.606  14.451
58333W        W30648  30.926   9.239   3.844
58334W        W30649  28.435  40.855  13.395
58335W        W30650  23.089  38.355  12.533
58336W        W30651   5.342   7.753  12.080
58337W        W30652  41.410  23.999  11.958
58338W        W30653  20.111  25.980  12.413
58339W        W30654   7.414   8.658  14.386
58340W        W30655   3.758   3.889  14.925
58341W        W30656  14.616  19.534   9.969
58342W        W30657  23.507  32.041   3.846
58343W        W30658   8.895  26.544   0.466
58344W        W30659  18.685  30.637  14.335
58345W        W30660  38.459  29.518   1.444
58346W        W30661  17.583  25.600  10.525
58347W        W30662  30.151   3.288  12.939
58348W        W30663  20.746  34.510   2.876
58349W        W30664   3.345  27.179  13.485
58350W        W30665  26.058   3.884   5.135
58351W        W30666  13.627  12.205   3.239
58352W        W30667   5.791  20.155  13.805
58353W        W30668  42.809  22.696   0.735
58354W        W30669  10.682   4.356   0.477
58355W        W30670  21.694  19.615  10.437
58356W        W30671   1.339  43.857   4.796
58357W        W30672   8.783  28.180   1.435
58358W        W30673  15.671  36.359   3.813
58359W        W30674  23.530  26.597   0.914
58360W        W30675   4.438   0.252   1.730
58361W        W30676  43.925  18.114  14.504
58362W        W30677  17.075  34.022  13.361
58363W        W30678  12.186  35.399  14.842
58364W        W30679  13.312   2.738  14.294
58365W        W30680  27.546  25.103  13.908
58366W        W30681  40.397  26.573  10.495
58367W        W30682  37.860  20.749   3.703
58368W        W30683  36.925  12.133  12.923
58369W        W30684   6.861   7.210   1.285
58370W        W30685  15.817   4.786   0.354
58371W        W30686  44.908   2.825  12.345
58372W        W30687  26.601   6.386  13.537
58373W        W30688  34.977  20.099   1.400
58374W        W30689   9.852  39.449   4.829
58375W        W30690  12.306   9.324   0.442
58376W        W30691  18.266  23.037  11.885
58377W        W30692  37.418  26.544  13.377
58378W        W30693  33.040  15.093   2.381
58379W        W30694  40.848  26.186  13.909
58380W        W30695  25.019   4.815   0.466
58381W        W30696  17.770  27.643  10.576
58382W        W30697  39.437  25.585  11.923
58383W        W30698  36.350  33.944   1.354
58384W        W30699  23.095  22.077  14.358
58385W        W30700   1.969  40.041  14.023
58386W        W30701  23.064  26.514   2.676
58387W        W30702  19.660  18.579  14.814
58388W        W30703  23.569  22.112  13.506
58389W        W30704  43.410  20.232  12.892
58390W        W30705  22.692   1.401   3.170
58391W        W30706  20.095  12.628   1.917
58392W        W30707   8.677  27.542   1.809
58393W        W30708  15.206  35.959  12.038
58394W        W30709  23.053  19.690  12.844
58395W        W30710   4.864  43.495  14.833
58396W        W30711  24.175  19.276   9.658
58397W        W30712   3.869   7.853   1.696
58398W        W30713  16.764  33.536   4.338
58399W        W30714   2.800  10.633   3.303
58400W        W30715  30.143  40.850   4.350
58401W        W30716   5.375  41.881  12.826
58402W        W30717  32.110  42.476   2.265
58403W        W30718  24.561   5.770   1.318
58404W        W30719  28.593  12.183  14.793
58405W        W30720  38.454  28.163  10.922
58406W        W30721  20.676  20.154   1.446
58407W        W30722  39.843  30.460  11.589
58408W        W30723  24.992   6.326  13.860
58409W        W30724  42.515  40.502  13.055
58410W        W30725  34.400  42.942  13.333
58411W        W30726  18.709  39.007   3.265
58412W        W30727  34.916  18.617  12.476
58413W        W30728  28.034  24.132   0.755
58414W        W30729  44.793  39.859   0.248
58415W        W30730   0.873   5.742   1.903
58416W        W30731  14.296  42.853  14.849
58417W        W30732  34.548  34.423  14.309
58418W        W30733  44.415  25.184   3.314
58419W        W30734  12.224  30.044  13.793
58420W        W30735  14.329  44.324  11.111
58421W        W30736   7.815  19.731  13.986
58422W        W30737  16.088  10.374   1.448
58423W        W30738   3.398   7.281   0.262
58424W        W30739   4.924  29.431   2.311
58425W        W30740  39.411  18.604  11.052
58426W        W30741  28.951  37.359   3.284
58427W        W30742   5.324  24.074   0.863
58428W        W30743   8.190  10.801  11.026
58429W        W30744  27.470  15.329  12.422
58430W        W30745  36.844  34.870  13.995
58431W        W30746  39.931   3.231   4.213
58432W        W30747  30.558  44.914  11.960
58433W        W30748  40.006  16.728   4.129
58434W        W30749   3.215  34.104  14.423
58435W        W30750  38.822   0.823  13.850
58436W        W30751  14.622   7.282   3.254
58437W        W30752  18.111  12.752   0.444
58438W        W30753  37.509  34.953  13.834
58439W        W30754  23.495  27.485   3.846
58440W        W30755  17.083   6.306   2.365
58441W        W30756  13.738  40.326  10.425
58442W        W30757  14.595   3.925   3.645
58443W        W30758  37.916  15.684  14.877
58444W        W30759  20.556  32.460  13.947
58445W        W30760  26.172  35.572   0.861
58446W        W30761   1.939  28.949  11.056
58447W        W30762  37.428  18.174  14.998
58448W        W30763   0.939  25.508   4.647
58449W        W30764   7.699   5.431   2.297
58450W        W30765  38.865  13.705   2.760
58451W        W30766  30.940  40.961   0.385
58452W        W30767  33.995  42.383  11.610
58453W        W30768  39.895   2.840  14.389
58454W        W30769  27.574  21.144   0.400
58455W        W30770  29.640  34.482  11.573
58456W        W30771  41.026  21.093  11.521
58457W        W30772  21.159  28.466   0.758
58458W        W30773  17.300  12.629   5.202
58459W        W30774  41.982  44.376   9.963
58460W        W30775   2.830  26.617  12.898
58461W        W30776   0.401  21.118   2.741
58462W        W30777  10.716  36.857   2.185
58463W        W30778  30.432  18.095  11.072
58464W        W30779  37.385  24.176   1.830
58465W        W30780  10.856  12.246   0.803
58466W        W30781   4.790  26.570   3.217
58467W        W30782  25.606  28.052   3.184
58468W        W30783  10.774   8.801   1.315
58469W        W30784  16.212  38.026  11.376
58470W        W30785  38.547  32.025   0.855
58471W        W30786  34.006  17.210   3.251
58472W        W30787  10.319  21.537   0.877
58473W        W30788  32.056   1.818  11.377
58474W        W30789  42.291  13.277  11.550
58475W        W30790  20.201  37.515   5.280
58476W        W30791  39.032   7.727   3.856
58477W        W30792  42.348  29.443   4.319
58478W        W30793  28.498  23.220   0.754
58479W        W30794  33.447  41.514  14.415
58480W        W30795  41.404  16.098   4.159
58481W        W30796  39.392  16.804   0.958
58482W        W30797  12.767   7.343  14.940
58483W        W30798   1.867  37.831   4.661
58484W        W30799  17.576  23.219   4.739
58485W        W30800   9.325  41.458  12.854
58486W        W30801  32.495   1.962   1.806
58487W        W30802  28.558  24.585   1.421
58488W        W30803  15.176   4.403   4.158
58489W        W30804  33.886  40.440  12.428
58490W        W30805  33.447  32.988   2.351
58491W        W30806  42.839  38.369  13.032
58492W        W30807  11.166  36.971   3.213
58493W        W30808  23.567  40.857  10.597
58494W        W30809  37.492  24.570   4.241
58495W        W30810  35.409  44.795  11.066
58496W        W30811  26.673  40.902   0.464
58497W        W30812  29.922  32.046  12.927
58498W        W30813  41.478  26.625  12.892
58499W        W30814  39.324  12.227   3.773
58500W        W30815  19.201  42.409   2.749
58501W        W30816   4.808  32.591   3.311
58502W        W30817  21.118  10.144  12.432
58503W        W30818  22.656  23.575   1.385
58504W        W30819  23.010  25.658   3.832
58505W        W30820  40.038  27.608  13.029
58506W        W30821  31.121  27.193   0.320
58507W        W30822   2.770  28.100   2.712
58508W        W30823  18.658  18.116  12.421
58509W        W30824   9.252  17.127   1.829
58510W        W30825   8.885  21.036  12.979
58511W        W30826  41.887  14.649  13.835
58512W        W30827   5.715   6.234  12.356
58513W        W30828  35.013  23.632  14.955
58514W        W30829  17.768  12.710  13.892
58515W        W30830   0.452   4.440  11.090
58516W        W30831  13.628  28.957  14.490
58517W        W30832  14.296   5.875  11.950
58518W        W30833  22.741  20.138   4.670
58519W        W30834  36.850  40.999   1.222
58520W        W30835  32.547  37.983   0.273
58521W        W30836  16.162  43.498   1.921
58522W        W30837   7.208  33.592  13.341
58523W        W30838  19.151  17.222   4.121
58524W        W30839  23.199  27.613   1.756
58525W        W30840   3.297  16.790   0.457
58526W        W30841  21.746  21.254   5.674
58527W        W30842  22.077   8.318  10.910
58528W        W30843   8.237  13.142  11.578
58529W        W30844  33.420  37.436  10.039
58530W        W30845  27.973  38.059  10.573
58531W        W30846  39.552  13.246  11.991
58532W        W30847  26.039  23.701   4.213
58533W        W30848   5.726  29.172  11.440
58534W        W30849  20.125  17.627  13.466
58535W        W30850   8.658  38.024   5.145
58536W        W30851  23.011  23.500   1.420
58537W        W30852  12.167  27.034   0.961
58538W        W30853   9.314   0.882  13.948
58539W        W30854   1.291  27.105   2.789
58540W        W30855   2.242  13.180  14.830
58541W        W30856  12.633  35.589  10.489
58542W        W30857   1.286   9.844  11.105
58543W        W30858  39.831  40.349  12.343
58544W        W30859   2.857   3.425  10.991
58545W        W30860  33.995  18.202  14.275
58546W        W30861  34.063  19.559   2.790
58547W        W30862  40.889   4.886   1.924
58548W        W30863  41.308  26.097   0.311
58549W        W30864  13.139  44.758   3.630
58550W        W30865   1.941  43.290   3.313
58551W        W30866  34.594  40.004  12.999
58552W        W30867  43.769  42.894   1.696
58553W        W30868  44.501  34.954  12.975
58554W        W30869  26.975  32.069  10.968
58555W        W30870   4.885  14.696   0.360
58556W        W30871  14.245   4.878  13.395
58557W        W30872   7.207  17.775  14.932
58558W        W30873  31.535  32.630   3.220
58559W        W30874  29.176  37.881  13.941
58560W        W30875  25.601   3.891   0.313
58561W        W30876  19.698   1.319   3.287
58562W        W30877  20.032  17.197   4.607
58563W        W30878   9.217  42.476   4.154
58564W        W30879   9.179  24.547   0.857
58565W        W30880  38.944  16.116   0.280
58566W        W30881  12.163  15.326  12.026
58567W        W30882  23.235   7.785  12.383
58568W        W30883  28.937  11.189   1.255
58569W        W30884   4.416  18.745   2.372
58570W        W30885   9.705  30.466  12.089
58571W        W30886  39.355  35.559   3.731
58572W        W30887   8.349  33.407  14.426
58573W        W30888   8.340  23.536  13.023
58574W        W30889  32.085   1.433   1.880
58575W        W30890  13.823  29.928  10.967
58576W        W30891  33.009  35.885   4.651
58577W        W30892  26.054  12.339   0.378
58578W        W30893  26.662  20.582   0.377
58579W        W30894  44.422  12.247   9.590
58580W        W30895  42.894   1.830  11.899
58581W        W30896  44.455   8.667   2.701
58582W        W30897   1.264  10.677   5.138
58583W        W30898  16.798  31.566   3.739
58584W        W30899  17.799   6.298   4.639
58585W        W30900  11.347  32.047  11.095
58586W        W30901  21.659  20.270  11.424
58587W        W30902  12.744  29.530   1.401
58588W        W30903  13.256  10.712  13.316
58589W        W30904  26.485   0.412   0.282
58590W        W30905  11.749  17.670  14.927
58591W        W30906  13.815  39.525   3.856
58592W        W30907  25.633  22.573   1.738
58593W        W30908  24.591  24.132   0.242
58594W        W30909  13.778  36.913  11.045
58595W        W30910   9.381  42.429  11.043
58596W        W30911  35.597   2.744  12.480
58597W        W30912  28.584  14.242  11.479
58598W        W30913  22.569  28.004   3.697
58599W        W30914   1.873   9.149   1.412
58600W        W30915  24.515   1.769   3.385
58601W        W30916   4.725  36.064   5.211
58602W        W30917  36.500  27.465  13.474
58603W        W30918  27.082   4.255  11.958
58604W        W30919  29.979  37.386   2.416
58605W        W30920  38.944   3.266  12.501
58606W        W30921  39.360  33.064  14.847
58607W        W30922  12.196  15.152  12.914
58608W        W30923   9.365   8.300   0.388
58609W        W30924  14.147  29.565  14.327
58610W        W30925  20.156  22.636  13.796
58611W        W30926   9.733  13.802  13.392
58612W        W30927  38.340  18.054   0.747
58613W        W30928  15.302  15.199   2.232
58614W        W30929  34.455  24.719   4.625
58615W        W30930  41.479  29.526   1.815
58616W        W30931  10.683  14.777   3.257
58617W        W30932  44.909  24.698   2.874
58618W        W30933  17.672  33.916  12.089
58619W        W30934   4.816  27.958  12.444
58620W        W30935   8.349   6.912  12.916
58621W        W30936   1.446  39.540  12.439
58622W        W30937   4.703  22.162   1.806
58623W        W30938  32.590  24.597  13.338
58624W        W30939   8.786   5.221   4.138
58625W        W30940  38.961  16.718  10.926
58626W        W30941  34.392  14.158   0.836
58627W        W30942  16.308  15.113   4.625
58628W        W30943   7.751  38.001   0.350
58629W        W30944  27.022  36.057  12.065
58630W        W30945   0.384  18.659   4.751
58631W        W30946  35.546  10.878   3.147
58632W        W30947  12.307  22.722  13.337
58633W        W30948  31.563  27.994   1.356
58634W        W30949  20.606  33.478   3.857
58635W        W30950   7.887  41.337  14.454
58636W        W30951  30.031   3.737   2.232
58637W        W30952  13.619  36.420  12.450
58638W        W30953  24.111  22.622  11.917
58639W        W30954  20.109  24.480  13.867
58640W        W30955  25.208  29.546   3.798
58641W        W30956  39.859  35.588   0.906
58642W        W30957  24.141  40.320   1.223
58643W        W30958   7.859   4.307  13.420
58644W        W30959  35.519   0.890   3.372
58645W        W30960  26.521  27.988   1.774
58646W        W30961  35.951  38.936  14.281
58647W        W30962   5.902  26.002  12.433
58648W        W30963   8.893  32.432  11.962
58649W        W30964  34.453  38.062   0.418
58650W        W30965   9.805   8.338   3.285
58651W        W30966  43.953  38.437  13.337
58652W        W30967  31.138  40.797  10.544
58653W        W30968  41.859   4.314  12.025
58654W        W30969  38.346   1.822  12.943
58655W        W30970  33.023   2.399   0.458
58656W        W30971   9.207  24.577   3.150
58657W        W30972   1.742   6.837   3.851
58658W        W30973  11.796  32.989   0.816
58659W        W30974  30.998  33.918   1.355
58660W        W30975   5.818  20.208   0.847
58661W        W30976  18.070  13.793  11.071
58662W        W30977  21.591  33.449  14.476
58663W        W30978  15.772  34.099   0.888
58664W        W30979  41.940  32.074  14.955
58665W        W30980  44.385  25.071   4.615
58666W        W30981  29.970  40.530   4.198
58667W        W30982  13.730  31.096   4.268
58668W        W30983  12.310  25.121   4.293
58669W        W30984  24.024  13.820   3.643
58670W        W30985  39.373  42.010   3.162
58671W        W30986   0.405  11.282   0.877
58672W        W30987  12.798  40.007  11.377
58673W        W30988  14.777  19.606   4.213
58674W        W30989  36.039   5.274  12.431
58675W        W30990  32.988   7.217   4.670
58676W        W30991  19.725  31.908  14.979
58677W        W30992  42.778   5.735   0.833
58678W        W30993  27.994  26.033  12.935
58679W        W30994  19.595  37.369  12.576
58680W        W30995  18.725  21.094  11.924
58681W        W30996  32.971  36.974  11.970
58682W        W30997  23.714   8.711  10.427
58683W        W30998  23.608  34.368   0.823
58684W        W30999  20.679  18.712   2.258
58685W        W31000  17.302   4.250  10.593
58686W        W31001  13.820  44.441  10.445
58687W        W31002  17.225  43.021   0.342
58688W        W31003  13.705  11.709   0.964
58689W        W31004  29.619  40.922  13.510
58690W        W31005  31.086   5.291  14.010
58691W        W31006  40.018  37.521  13.357
58692W        W31007  18.275  27.041  11.536
58693W        W31008   8.164  40.900   3.177
58694W        W31009  38.419  24.599   3.323
58695W        W31010  38.986   2.965  13.471
58696W        W31011  21.231  10.632   0.952
58697W        W31012  13.157   4.857   2.373
58698W        W31013  16.762  44.850   3.207
58699W        W31014  17.259  15.788   1.879
58700W        W31015   4.860  32.141  14.389
58701W        W31016  34.025   4.284  10.902
58702W        W31017  31.965  12.193   2.186
58703W        W31018  15.720  42.931   0.966
58704W        W31019   4.792  16.791   0.441
58705W        W31020  10.693   6.777   1.244
58706W        W31021  18.144  36.848   1.272
58707W        W31022  11.141  35.072  13.533
58708W        W31023  40.938   4.805  14.868
58709W        W31024  13.649  16.138   1.210
58710W        W31025  41.984  42.837  10.082
58711W        W31026   5.828  36.387   0.885
58712W        W31027  30.431  33.048  11.929
58713W        W31028  12.168  39.032  14.021
58714W        W31029  33.516   6.402  11.554
58715W        W31030  42.008  10.204   2.894
58716W        W31031  36.067   4.299   0.848
58717W        W31032  42.973  11.758   0.772
58718W        W31033  26.525  42.932   5.090
58719W        W31034   7.775  27.689   1.376
58720W        W31035  22.534  30.939   4.756
58721W        W31036  27.677  29.487   1.835
58722W        W31037  10.701  31.993   2.862
58723W        W31038   3.375   7.210  10.618
58724W        W31039  17.074  13.810   4.116
58725W        W31040   2.930  22.224   2.737
58726W        W31041   4.900  17.728   0.910
58727W        W31042  10.154  29.606   4.325
58728W        W31043  29.583  42.400  12.893
58729W        W31044  34.593  17.759   3.720
58730W        W31045  19.640  35.055  12.413
58731W        W31046   1.755  43.349  12.966
58732W        W31047   4.446   9.721  10.903
58733W        W31048   0.397  33.049   5.315
58734W        W31049  18.562  15.821  12.472
58735W        W31050  39.997   4.425   2.757
58736W        W31051  18.761  14.682   3.772
58737W        W31052  12.755  34.115   3.325
58738W        W31053  17.143   9.749   1.707
58739W        W31054  30.614  33.384  14.919
58740W        W31055  37.929   7.173   0.291
58741W        W31056  12.748  38.395  10.909
58742W        W31057  28.469   2.759   4.830
58743W        W31058  43.314  27.499  13.534
58744W        W31059  42.432  31.999  14.914
58745W        W31060  37.405  11.352  11.018
58746W        W31061   4.897  21.558   4.618
58747W        W31062   4.220  21.198   3.274
58748W        W31063  32.597  42.388   4.339
58749W        W31064   1.951   2.870  13.518
58750W        W31065  40.827  41.365   2.807
58751W        W31066   1.359   7.223   3.753
58752W        W31067  42.862  29.924   1.298
58753W        W31068  14.631  35.543  11.058
58754W        W31069  29.120  37.862   0.403
58755W        W31070  23.100   6.903  12.942
58756W        W31071  32.559  23.212  10.909
58757W        W31072  14.252  39.415   1.310
58758W        W31073  18.106  34.993  14.891
58759W        W31074  13.333  29.089  13.935
58760W        W31075  11.269  13.745   1.852
58761W        W31076  29.026  34.031  11.001
58762W        W31077   3.847   6.413  13.489
58763W        W31078  42.523   2.362   1.883
58764W        W31079  44.993  21.662   3.247
58765W        W31080  14.613  20.615   2.678
58766W        W31081  15.100  16.796   3.345
58767W        W31082  37.028  35.855   1.447
58768W        W31083  25.520  38.018  11.386
58769W        W31084  15.174  41.526  14.828
58770W        W31085  37.511  36.867   0.754
58771W        W31086  21.231  22.250  10.087
58772W        W31087  23.152  36.562  14.361
58773W        W31088  12.142  26.664   3.300
58774W        W31089  40.856  40.362  12.381
58775W        W31090  28.135  10.313   2.312
58776W        W31091   0.832  22.576  14.960
58777W        W31092   4.380   6.812   1.835
58778W        W31093  23.500  34.933  10.555
58779W        W31094  17.800   4.228   0.260
58780W        W31095  18.585  29.570  10.418
58781W        W31096  32.529  28.511  13.910
58782W        W31097  14.702  30.630  10.434
58783W        W31098  25.216  42.822   0.863
58784W        W31099  39.531  16.081  10.556
58785W        W31100   2.305   6.745  12.843
58786W        W31101  22.600   1.438  13.450
58787W        W31102   0.433   8.373  11.436
58788W        W31103  31.899  18.741   3.288
58789W        W31104  19.777   8.330   0.249
58790W        W31105   6.803  44.399   3.169
58791W        W31106  38.329  38.034  13.824
58792W        W31107  38.847  13.232  14.922
58793W        W31108  44.260   8.786  10.472
58794W        W31109  38.977   2.442   2.227
58795W        W31110  19.537  36.387  12.973
58796W        W31111  41.422  10.218  13.825
58797W        W31112   9.311  17.205  11.557
58798W        W31113  22.043  16.633   2.284
58799W        W31114  44.832  37.936  11.970
58800W        W31115  31.418  18.069   0.328
58801W        W31116   7.227  26.042  11.893
58802W        W31117  26.191  34.904  12.889
58803W        W31118   0.952   7.732   2.294
58804W        W31119  35.915  12.701  11.529
58805W        W31120  43.413  11.193   4.746
58806W        W31121  25.520  10.866  11.063
58807W        W31122  28.672  16.137  11.956
58808W        W31123  27.998   7.737  13.823
58809W        W31124  42.393   2.921  12.846
58810W        W31125  44.846   6.865  13.341
58811W        W31126  33.963  35.604  12.992
58812W        W31127  33.616  39.451   0.740
58813W        W31128  28.444  20.731  12.043
58814W        W31129  19.750  33.602   3.743
58815W        W31130  21.153  15.253  11.105
58816W        W31131  22.050  36.033   3.818
58817W        W31132  10.819  20.051  12.517
58818W        W31133  14.146  16.166   3.214
58819W        W31134  37.464  42.402  10.912
58820W        W31135   3.247  12.348  13.531
58821W        W31136   5.899  18.266   0.408
58822W        W31137  24.117  38.992   1.750
58823W        W31138  39.860   5.792   4.189
58824W        W31139  24.614  30.032   0.905
58825W        W31140  17.115  34.398   2.878
58826W        W31141  20.227  32.464   0.967
58827W        W31142  19.057   7.268  11.457
58828W        W31143  33.023  19.560  12.463
58829W        W31144  39.353   9.761   2.182
58830W        W31145  34.604   1.300   3.358
58831W        W31146  10.653  36.979  11.077
58832W        W31147  41.373  17.689   2.845
58833W        W31148   5.295  13.692   1.842
58834W        W31149   7.247  11.736  11.556
58835W        W31150  22.534   1.335   1.837
58836W        W31151  44.790  26.093  12.524
58837W        W31152  41.306  34.497  11.024
58838W        W31153  40.355  20.734  12.986
58839W        W31154  12.662  11.774   2.899
58840W        W31155  13.761   0.743  12.512
58841W        W31156  10.769   5.286  12.415
58842W        W31157   8.822  26.989   5.226
58843W        W31158  10.254  25.197   0.778
58844W        W31159  36.367   5.885   2.259
58845W        W31160  33.398  18.641  12.061
58846W        W31161  43.962  42.887   4.674
58847W        W31162  24.220  12.630   4.770
58848W        W31163  27.596  11.332   2.388
58849W        W31164  38.398  25.081  10.595
58850W        W31165  38.330  21.151  12.442
58851W        W31166  11.697  19.643   3.292
58852W        W31167  15.115   9.680   3.275
58853W        W31168  31.954  27.599  14.030
58854W        W31169  23.236  22.583  10.594
58855W        W31170  38.547   0.979   3.273
58856W        W31171  28.524  44.975  13.444
58857W        W31172  22.611  17.601  12.023
58858W        W31173   9.339  41.849   1.235
58859W        W31174   2.849  30.985   1.341
58860W        W31175  24.649  42.812   3.309
58861W        W31176   1.309  37.012  10.642
58862W        W31177  17.242  24.031  10.048
58863W        W31178  33.574  23.550   1.218
58864W        W31179  39.904  11.127   1.874
58865W        W31180  35.360  25.203  12.933
58866W        W31181   1.931   2.370   3.311
58867W        W31182  13.691  44.892   4.206
58868W        W31183   9.165  24.671   4.767
58869W        W31184   6.825  40.934  10.989
58870W        W31185  35.473  22.567   4.747
58871W        W31186  35.931  22.104   0.259
58872W        W31187  43.809  24.156   1.743
58873W        W31188  13.809  43.932   0.354
58874W        W31189  13.304  27.017   2.244
58875W        W31190  27.192  19.610  14.392
58876W        W31191  11.678  21.136  12.917
58877W        W31192  44.984  23.585  11.106
58878W        W31193   4.324   8.195   4.144
58879W        W31194  12.208  34.529   0.934
58880W        W31195  10.759   3.299   2.277
58881W        W31196  37.450   9.252  13.464
58882W        W31197  15.286  41.893   0.325
58883W        W31198  32.940  21.752  11.090
58884W        W31199   5.709  38.062  13.344
58885W        W31200  36.079  27.564  13.033
58886W        W31201  12.661  18.646  10.902
58887W        W31202   7.707  42.517   2.730
58888W        W31203   3.297  21.611  13.330
58889W        W31204  25.591  22.533  10.521
58890W        W31205  23.732  11.164   4.121
58891W        W31206  26.990   3.352   3.336
58892W        W31207  14.100   9.198   0.776
58893W        W31208  12.318  17.623   2.181
58894W        W31209  17.625  18.160  13.414
58895W        W31210  28.179  10.815   0.959
58896W        W31211  11.236  36.909   0.309
58897W        W31212   8.798  31.520  14.960
58898W        W31213  42.804  10.822  14.306
58899W        W31214  22.635  12.221  10.140
58900W        W31215  44.967  26.647   0.271
58901W        W31216  28.465   1.274   0.962
58902W        W31217  35.985  20.669   0.314
58903W        W31218   8.864  10.258   2.202
58904W        W31219  17.106  29.043  10.904
58905W        W31220  23.146   3.360  11.110
58906W        W31221   3.457  14.325   5.081
58907W        W31222  26.513   4.940  11.468
58908W        W31223  44.896  22.691  14.873
58909W        W31224  23.594  14.339  13.353
58910W        W31225  35.077  21.705  11.412
58911W        W31226  27.166   5.829  11.912
58912W        W31227  22.506   5.906   0.260
58913W        W31228  34.591  34.538  11.125
58914W        W31229  14.766  27.556  14.503
58915W        W31230  31.927  15.672  10.161
58916W        W31231  36.933  12.787  12.920
58917W        W31232  40.821  29.992  13.040
58918W        W31233  39.455  41.337  14.942
58919W        W31234  23.026  12.790   2.298
58920W        W31235  11.761   8.818   3.691
58921W        W31236  34.053  16.229   3.367
58922W        W31237  43.013   5.698  10.637
58923W        W31238  35.050   3.908   0.428
58924W        W31239  42.465  24.536  10.518
58925W        W31240  30.048  28.148  13.428
58926W        W31241   9.361   2.960  11.593
58927W        W31242  14.752  12.712   1.836
58928W        W31243   7.325  21.131  10.097
58929W        W31244  40.535  35.068   1.840
58930W        W31245  17.612  21.602   0.947
58931W        W31246  10.848  11.788   2.185
58932W        W31247  11.307  39.357   3.321
58933W        W31248  32.458  30.615   1.210
58934W        W31249  37.995   5.224   0.783
58935W        W31250  33.894  19.685  11.605
58936W        W31251  35.597  13.149  14.301
58937W        W31252  20.653  44.457  13.848
58938W        W31253  32.572  36.031   0.828
58939W        W31254   4.913  33.440   3.169
58940W        W31255  11.153  31.566   2.269
58941W        W31256  33.381   6.816  11.898
58942W        W31257  32.919  39.970   2.179
58943W        W31258  20.162  28.657   2.407
58944W        W31259  44.942  38.565  12.980
58945W        W31260  27.195   0.884  12.024
58946W        W31261   4.245  18.790  11.575
58947W        W31262  20.082  14.724   1.325
58948W        W31263   7.355   0.760  11.119
58949W        W31264  36.004   5.789   0.355
58950W        W31265  44.802  18.216  10.501
58951W        W31266  12.355  29.137   1.890
58952W        W31267  13.162   4.377   3.751
58953W        W31268   3.260  13.794   1.829
58954W        W31269   4.763  40.328   0.813
58955W        W31270  38.998  36.934   3.150
58956W        W31271  39.979  29.571  14.954
58957W        W31272  25.555  21.662   1.400
58958W        W31273  41.349  42.959   0.956
58959W        W31274   8.247  42.996  11.398
58960W        W31275   2.440  15.138   4.220
58961W        W31276  42.426   6.877  11.091
58962W        W31277   3.806  17.247   1.699
58963W        W31278   0.426   7.270  12.497
58964W        W31279  38.968  40.495  11.524
58965W        W31280  39.501  36.059  12.501
58966W        W31281  10.719  36.911  13.518
58967W        W31282   0.321  34.998  12.560
58968W        W31283  42.005  27.685   1.818
58969W        W31284  18.711  36.401  11.942
58970W        W31285  10.329  38.931   5.295
58971W        W31286  28.001  36.502   4.708
58972W        W31287  17.106  32.057   2.188
58973W        W31288   6.822  30.959  11.003
58974W        W31289  28.075  43.281   1.265
58975W        W31290  12.307   3.360  11.962
58976W        W31291   7.898  22.243  12.920
58977W        W31292  28.032  18.239   0.276
58978W        W31293  17.731  15.675  12.074
58979W        W31294  41.931  38.875  14.780
58980W        W31295  36.403  32.106  13.917
58981W        W31296  35.548  38.922  13.795
58982W        W31297   8.162  17.218   1.753
58983W        W31298  18.122  35.015  10.447
58984W        W31299  40.388  44.910  13.548
58985W        W31300  35.599  44.426  14.431
58986W        W31301  25.056   1.380  14.823
58987W        W31302  29.633  17.257  14.025
58988W        W31303  41.441   7.253   0.250
58989W        W31304  11.764  23.700  14.491
58990W        W31305  24.979  44.795   1.698
58991W        W31306   0.483  41.488  11.917
58992W        W31307  38.355  15.676   0.300
58993W        W31308  35.080   2.751  11.094
58994W        W31309  33.071   0.875  12.364
58995W        W31310  43.475  42.474  10.931
58996W        W31311  21.078  33.074   4.246
58997W        W31312  39.883  27.550   1.878
58998W        W31313  19.583   8.345   9.963
58999W        W31314  36.927  27.532  14.762
59000W        W31315  42.430   5.729   4.638
59001W        W31316   9.186  24.193   2.753
59002W        W31317  43.826  11.733   1.843
59003W        W31318  39.546   5.755   0.310
59004W        W31319   6.830  19.235  13.516
59005W        W31320  41.947  38.477  11.575
59006W        W31321  27.000  38.836  14.499
59007W        W31322   1.254  39.556  10.949
59008W        W31323  43.346  43.295   4.700
59009W        W31324  37.023  17.174   2.347
59010W        W31325  21.154  22.605   0.962
59011W        W31326  16.683  19.709   2.868
59012W        W31327  20.123  20.598   4.687
59013W        W31328   0.492   6.278   0.251
59014W        W31329  25.197  36.406  11.972
59015W        W31330  17.148  41.395   0.812
59016W        W31331  20.742  33.617   1.438
59017W        W31332  32.397  24.097   2.801
59018W        W31333  32.904  36.866  12.388
59019W        W31334   5.310  24.486  14.389
59020W        W31335  19.262  32.527  12.829
59021W        W31336   7.198  21.100  12.013
59022W        W31337  13.188  37.968  13.924
59023W        W31338  24.206  34.993   1.772
59024W        W31339  11.328   9.668  11.875
59025W        W31340   4.290   4.413  10.598
59026W        W31341  14.264  44.262  13.404
59027W        W31342  12.847  19.769  13.975
59028W        W31343  41.831   5.243   0.776
59029W        W31344   7.796  27.521  10.916
59030W        W31345  22.660  23.154   3.643
59031W        W31346  43.992  33.041  13.905
59032W        W31347   2.378  11.234  13.883
59033W        W31348   1.251   4.368   2.332
59034W        W31349  29.559  21.564  11.019
59035W        W31350   8.857  24.163  11.033
59036W        W31351  35.104  14.788  10.507
59037W        W31352   2.803  23.686  10.623
59038W        W31353   8.822  23.080  12.498
59039W        W31354   8.309  10.369  14.928
59040W        W31355  32.942  21.686  12.579
59041W        W31356  26.636  11.624  12.403
59042W        W31357  11.634   0.473   1.801
59043W        W31358   6.288   6.700  11.932
59044W        W31359   5.747  13.719  13.340
59045W        W31360  39.381  15.769  11.021
59046W        W31361  22.604  31.090  10.475
59047W        W31362  33.941  26.033  11.482
59048W        W31363   3.836  34.433   1.736
59049W        W31364  10.817  12.850   3.346
59050W        W31365  31.403  42.422  11.930
59051W        W31366  26.655  34.574   3.289
59052W        W31367  15.094   7.865   4.600
59053W        W31368  26.963  44.878   0.292
59054W        W31369  40.039  15.293  10.563
59055W        W31370  10.330  20.563  11.987
59056W        W31371   7.889  40.480   1.895
59057W        W31372  11.360  22.056  10.544
59058W        W31373  14.613  28.462   3.237
59059W        W31374  40.014  31.570  13.374
59060W        W31375  32.061  10.777  11.492
59061W        W31376   4.404  19.688   3.841
59062W        W31377  30.028   4.702  12.032
59063W        W31378  21.519  25.189  12.039
59064W        W31379  20.116  15.144  12.437
59065W        W31380  22.645  21.208  10.930
59066W        W31381  22.064  22.031  11.114
59067W        W31382   8.201   2.447   4.147
59068W        W31383  25.606  18.691  13.842
59069W        W31384   5.246  33.399  12.923
59070W        W31385  40.801  32.041   0.842
59071W        W31386  17.687  14.716  11.053
59072W        W31387  16.692  34.078   0.373
59073W        W31388  36.977  35.409  11.073
59074W        W31389   2.863  28.001   1.326
59075W        W31390  18.098   3.871   3.718
59076W        W31391  36.982   8.762   4.241
59077W        W31392  12.260  13.797  11.555
59078W        W31393   0.854  24.624   4.762
59079W        W31394  10.288  34.978  13.371
59080W        W31395  33.484   1.468   2.879
59081W        W31396  36.866   2.374   1.917
59082W        W31397  14.764  23.177   1.769
59083W        W31398  20.701  17.127  13.003
59084W        W31399   7.682  11.292  14.897
59085W        W31400  28.451  42.992  12.445
59086W        W31401  25.166  18.597  12.001
59087W        W31402   8.795  15.207  14.982
59088W        W31403   3.838  27.068   4.643
59089W        W31404   1.948   3.885   4.144
59090W        W31405  36.019  26.172  13.345
59091W        W31406  35.098  42.462  13.809
59092W        W31407  21.233  16.297  13.408
59093W        W31408  13.770  33.112   1.315
59094W        W31409  30.601  41.312  11.476
59095W        W31410  22.504   7.676  13.480
59096W        W31411  19.741  32.028  13.469
59097W        W31412  33.495  20.677   0.320
59098W        W31413  39.858   4.392  10.637
59099W        W31414  28.593  23.592  13.415
59100W        W31415  32.130  33.532  13.511
59101W        W31416  32.134  39.990   3.827
59102W        W31417  27.487  15.168   3.728
59103W        W31418  42.986  22.040   4.173
59104W        W31419  35.934  38.867  10.903
59105W        W31420  42.001  16.159   3.310
59106W        W31421  11.676  12.173  14.885
59107W        W31422  11.655  32.027  12.048
59108W        W31423   0.353  21.657  12.045
59109W        W31424  17.778  13.181  11.871
59110W        W31425   0.305  25.064  14.496
59111W        W31426  33.046  19.735  11.918
59112W        W31427   8.208  15.819  13.056
59113W        W31428  18.724  13.158   4.190
59114W        W31429  17.285   9.370  14.514
59115W        W31430  39.397  21.048   3.292
59116W        W31431  13.745  13.630   0.290
59117W        W31432  13.292  17.752   4.196
59118W        W31433  21.249  16.274  14.007
59119W        W31434  21.717  12.725   1.415
59120W        W31435  21.527  22.085  11.009
59121W        W31436  36.592  15.317   1.819
59122W        W31437  40.985  20.269   1.366
59123W        W31438  31.594  12.226   3.715
59124W        W31439  44.470  28.991   9.992
59125W        W31440   9.700  41.438   1.385
59126W        W31441   4.895   8.230  10.566
59127W        W31442   0.770  38.017  10.509
59128W        W31443  33.475   5.875   3.799
59129W        W31444  21.109   1.959   4.776
59130W        W31445  11.847   6.866   2.204
59131W        W31446  22.194  43.862  10.526
59132W        W31447  22.571  29.655   5.168
59133W        W31448  12.831  25.595   2.775
59134W        W31449  24.491  12.213  12.571
59135W        W31450  28.093  23.159   4.789
59136W        W31451  43.454  17.086   3.825
59137W        W31452  13.140  16.633  13.385
59138W        W31453  30.937   7.259   3.246
59139W        W31454  23.627  14.152  13.003
59140W        W31455  27.160  35.069  10.149
59141W        W31456  25.637  36.028  10.640
59142W        W31457  31.078   0.819  12.067
59143W        W31458  39.524  38.428  13.530
59144W        W31459   2.824   0.865  14.923
59145W        W31460  14.151   9.387  14.474
59146W        W31461  20.564  31.967  11.466
59147W        W31462   0.856  38.965   1.865
59148W        W31463   5.755  25.986  13.812
59149W        W31464  38.436   5.335  12.992
59150W        W31465  24.642  26.614   0.254
59151W        W31466  31.550  13.223  12.432
59152W        W31467  42.929  40.942  13.030
59153W        W31468   4.315  15.660   2.245
59154W        W31469  14.637  18.697   3.737
59155W        W31470  19.095  18.265   2.733
59156W        W31471  33.066  15.183  12.574
59157W        W31472  43.903  28.120   3.246
59158W        W31473  21.608  13.148  11.004
59159W        W31474   8.873  17.119   2.858
59160W        W31475   1.479  17.088  12.429
59161W        W31476  37.965   0.466   4.128
59162W        W31477  30.608  43.432  13.317
59163W        W31478  15.158   2.394   0.817
59164W        W31479  20.711  34.496  14.422
59165W        W31480  12.756   3.312  12.055
59166W        W31481  22.202  22.537  13.542
59167W        W31482  30.920   6.918  11.880
59168W        W31483  14.259  19.728  14.015
59169W        W31484  35.499  18.571  12.432
59170W        W31485  17.075  39.415   1.901
59171W        W31486   8.883   7.316  10.533
59172W        W31487  42.942  43.496  14.921
59173W        W31488  33.600  43.512   0.956
59174W        W31489  23.505  24.630  12.925
59175W        W31490   4.759  41.486   3.678
59176W        W31491  42.365  33.087   4.314
59177W        W31492  24.488  40.864   3.176
59178W        W31493  12.317  37.426   2.295
59179W        W31494  13.129  33.615   2.325
59180W        W31495  32.550  17.644  14.001
59181W        W31496   9.387   1.785  14.858
59182W        W31497  11.702  25.488  12.993
59183W        W31498  10.284   7.850   5.179
59184W        W31499  31.484   7.213  11.053
59185W        W31500  25.005  37.490   4.789
59186W        W31501   4.919  15.801  12.061
59187W        W31502  35.109   4.230  12.067
59188W        W31503  20.695  29.120  10.974
59189W        W31504  29.106  36.860  12.539
59190W        W31505   9.838  41.416  10.475
59191W        W31506  41.521  44.763   0.353
59192W        W31507  13.646  40.493  13.940
59193W        W31508  18.629  43.381  10.592
59194W        W31509  40.925   4.382  13.406
59195W        W31510  29.096  16.686   0.263
59196W        W31511  25.132   3.423   2.707
59197W        W31512  15.271  29.539   3.235
59198W        W31513  44.399  22.593   0.961
59199W        W31514  23.563  18.201  11.966
59200W        W31515   2.391  17.617   2.391
59201W        W31516  39.936   5.732   0.765
59202W        W31517  18.121  39.520  12.479
59203W        W31518  18.213   4.255   1.754
59204W        W31519  32.975  44.945  11.476
59205W        W31520   1.762  32.548   2.861
59206W        W31521  15.158  26.088  12.870
59207W        W31522  14.737  15.747  13.941
59208W        W31523  32.633  21.651   3.308
59209W        W31524  38.017  23.717  13.525
59210W        W31525  20.645  38.891  11.941
59211W        W31526  33.992  16.269  14.997
59212W        W31527  17.225  10.798   2.828
59213W        W31528  17.085  18.584  10.633
59214W        W31529  39.903  33.883   0.892
59215W        W31530  40.963  44.429  14.489
59216W        W31531  42.326  26.065  10.947
59217W        W31532  28.119  41.519   2.698
59218W        W31533  13.245  24.521  12.943
59219W        W31534  33.898   9.277   0.292
59220W        W31535  30.918  31.615  11.087
59221W        W31536  38.455  33.074  13.033
59222W        W31537  20.090   0.281   3.756
59223W        W31538  13.217  32.056  13.948
59224W        W31539   4.731  33.579  14.980
59225W        W31540   1.884  12.174  14.911
59226W        W31541  28.462  31.608  11.010
59227W        W31542  39.344   8.239  10.618
59228W        W31543  25.171  24.603   4.693
59229W        W31544   7.694  26.632  10.039
59230W        W31545   6.386  12.830  14.859
59231W        W31546   6.263  34.560  10.941
59232W        W31547  16.657  10.311   0.747
59233W        W31548  31.442  16.778   3.832
59234W        W31549  38.065   8.900  10.404
59235W        W31550  16.138  38.559  12.442
59236W        W31551   7.295  22.077   0.473
59237W        W31552  37.355  35.958  14.370
59238W        W31553  27.509  43.300  10.924
59239W        W31554  29.541  30.494   4.312
59240W        W31555  19.771   4.843   1.324
59241W        W31556  27.468  34.391  13.544
59242W        W31557   7.672  34.553  14.454
59243W        W31558  16.685  20.753  11.388
59244W        W31559  41.925   0.383   3.825
59245W        W31560  10.156   6.343  14.010
59246W        W31561   9.380  41.850   0.295
59247W        W31562   9.365  43.463  14.766
59248W        W31563  37.421  20.111   4.253
59249W        W31564   2.392   7.756  12.072
59250W        W31565   2.842   3.280  14.775
59251W        W31566  10.253  33.478  10.997
59252W        W31567   9.718   8.764   1.905
59253W        W31568   0.893  22.734   5.243
59254W        W31569   6.236  29.967  11.408
59255W        W31570  31.648   0.881  13.006
59256W        W31571  37.434  15.261  11.540
59257W        W31572   4.919  33.048   4.163
59258W        W31573  28.561  44.850   4.647
59259W        W31574  23.541  29.041   4.645
59260W        W31575  29.603   7.714   0.431
59261W        W31576  21.109  23.046   0.423
59262W        W31577  30.907   3.726   0.270
59263W        W31578   8.358  30.558   2.356
59264W        W31579  39.906  28.490   1.762
59265W        W31580  11.837  13.673  11.528
59266W        W31581  36.394  24.621  14.963
59267W        W31582  19.583  31.005   2.735
59268W        W31583   0.961  24.146   2.320
59269W        W31584   4.375  35.535   3.303
59270W        W31585   1.309   3.755   4.699
59271W        W31586  29.173   1.795   1.363
59272W        W31587  13.779  15.314  11.883
59273W        W31588  12.670  18.268  14.419
59274W        W31589   4.774  23.502  13.917
59275W        W31590  12.849  35.596  13.353
59276W        W31591  29.937  15.722   4.772
59277W        W31592  18.594  39.001   4.657
59278W        W31593  44.945  36.571   1.894
59279W        W31594  23.679   2.827   1.222
59280W        W31595  18.195  26.655  10.888
59281W        W31596  42.427  42.809  12.359
59282W        W31597  34.528  38.071   1.719
59283W        W31598  25.105  40.007  12.492
59284W        W31599  19.072   9.153  11.512
59285W        W31600  43.931  14.133  12.942
59286W        W31601  30.917  15.757  10.519
59287W        W31602  44.454   4.736   3.743
59288W        W31603  23.643  42.474  13.986
59289W        W31604  21.179  20.681  14.916
59290W        W31605  23.724  12.722   3.209
59291W        W31606  19.544  15.263   0.950
59292W        W31607   2.332   7.347  10.914
59293W        W31608  14.124  14.174   0.931
59294W        W31609   9.751  20.229   2.291
59295W        W31610   0.886  12.677   4.604
59296W        W31611  27.993  15.117   2.408
59297W        W31612   8.790   1.864  10.974
59298W        W31613  38.426  26.037   5.694
59299W        W31614  20.159   3.262  11.962
59300W        W31615  27.464   1.256  12.852
59301W        W31616  26.110  43.876   1.778
59302W        W31617  22.190   6.309   3.698
59303W        W31618  24.684  42.859  14.439
59304W        W31619  41.511  14.648   2.362
59305W        W31620  12.185   0.432  14.954
59306W        W31621  37.373   6.240  11.610
59307W        W31622   2.366  16.286   2.411
59308W        W31623   4.431  28.516   1.861
59309W        W31624   3.440  26.651   4.838
59310W        W31625  31.056  44.360   2.290
59311W        W31626   2.370  29.528   1.832
59312W        W31627   2.361  34.056   3.680
59313W        W31628  32.490  26.533  12.092
59314W        W31629  24.575  17.182   4.836
59315W        W31630  18.290  10.225   2.670
59316W        W31631   4.766   2.315   1.818
59317W        W31632  25.100  24.171  14.030
59318W        W31633  33.446  13.819  14.786
59319W        W31634  39.829  29.087  14.871
59320W        W31635   3.290  24.578  14.308
59321W        W31636  28.548  24.591  14.813
59322W        W31637  20.055  31.417   0.249
59323W        W31638  30.469  16.639  11.373
59324W        W31639  33.891  22.014  13.309
59325W        W31640   7.201   4.336  12.521
59326W        W31641  35.462   0.959  13.983
59327W        W31642  17.557  28.022   2.800
59328W        W31643  21.142  38.059   0.482
59329W        W31644  35.364  33.499  10.424
59330W        W31645  42.426  26.959   3.210
59331W        W31646  29.977  38.423  11.527
59332W        W31647  22.528  32.555   4.786
59333W        W31648   6.282  22.689   1.215
59334W        W31649   7.744  19.229   2.893
59335W        W31650  44.788  12.270   5.721
59336W        W31651  15.726   3.371  13.022
59337W        W31652   2.450   3.823  11.060
59338W        W31653  21.185   9.732   2.286
59339W        W31654  23.009  42.823   1.710
59340W        W31655  31.974  21.661   1.892
59341W        W31656   9.277  43.441   0.949
59342W        W31657  24.001  13.676   0.952
59343W        W31658  29.142  31.605  10.927
59344W        W31659  21.687  26.106  12.445
59345W        W31660  37.470  19.187   0.818
59346W        W31661   0.771  29.080   1.739
59347W        W31662  21.732   9.388   3.226
59348W        W31663   0.336   0.332  10.516
59349W        W31664  37.459  11.153  11.979
59350W        W31665  16.589   3.943   3.240
59351W        W31666  40.011  20.113  11.005
59352W        W31667  37.435  15.261   4.202
59353W        W31668  38.442  21.578   1.432
59354W        W31669  36.876  43.414  13.458
59355W        W31670  29.564  36.061   5.255
59356W        W31671  37.026   4.940   2.722
59357W        W31672  43.285  26.133  14.808
59358W        W31673  31.004  37.577   5.252
59359W        W31674   4.431  39.478  12.384
59360W        W31675  19.138  23.533   4.783
59361W        W31676  31.028  11.189   1.361
59362W        W31677  30.630  36.384  10.917
59363W        W31678  38.401  10.679  12.928
59364W        W31679  42.779  25.498   3.206
59365W        W31680  22.673   1.437   1.412
59366W        W31681  37.537  13.629  12.474
59367W        W31682  37.421   3.419  11.511
59368W        W31683   8.283  23.675   3.235
59369W        W31684  32.451  23.680   3.258
59370W        W31685   6.424  22.519  14.467
59371W        W31686  16.265   7.717  14.284
59372W        W31687  21.694  29.626   4.138
59373W        W31688  32.501  36.385  12.530
59374W        W31689  44.824  34.069  13.426
59375W        W31690  18.622  20.105  10.421
59376W        W31691  12.760   7.387  14.305
59377W        W31692  42.465   8.853   2.408
59378W        W31693   5.208  29.452   3.740
59379W        W31694  13.791  20.229  12.068
59380W        W31695  20.255  44.820  12.374
59381W        W31696   0.360   1.402  12.559
59382W        W31697  25.488  29.513   2.699
59383W        W31698  19.744   7.835   3.667
59384W        W31699   6.877  40.401  13.985
59385W        W31700  14.287  15.145  13.332
59386W        W31701   2.245  25.638  12.989
59387W        W31702  11.366   0.398   2.274
59388W        W31703   8.866  28.502   1.229
59389W        W31704  30.034   0.437  12.914
59390W        W31705  14.656  21.073   2.851
59391W        W31706  23.148   8.717  11.560
59392W        W31707  26.118   9.869  11.005
59393W        W31708  31.996  22.733   0.884
59394W        W31709  32.419  35.066  13.533
59395W        W31710   5.789  14.663  12.911
59396W        W31711  13.658  19.769   4.659
59397W        W31712   5.300  27.668   1.850
59398W        W31713  26.494   8.346  13.412
59399W        W31714  15.818  39.322   5.305
59400W        W31715  34.912  13.831  11.008
59401W        W31716   6.355  11.369   3.169
59402W        W31717  34.913  10.185   4.290
59403W        W31718  38.562  16.801  11.506
59404W        W31719  41.467   9.229  10.941
59405W        W31720  40.402  27.544   3.685
59406W        W31721  41.985   7.898   0.412
59407W        W31722   5.310   2.301   4.271
59408W        W31723  20.218   8.858  10.146
59409W        W31724  12.703   6.301  10.422
59410W        W31725  42.299  29.982  10.995
59411W        W31726  37.353  16.723   4.687
59412W        W31727  39.378  24.073  12.389
59413W        W31728   9.232  34.063   1.751
59414W        W31729  13.106  24.172  10.589
59415W        W31730  34.005  14.718   1.710
59416W        W31731  28.084  43.866   4.702
59417W        W31732  31.940  21.191  12.468
59418W        W31733   3.266  18.058   2.750
59419W        W31734   1.974  23.635  10.553
59420W        W31735   7.724  37.443   0.302
59421W        W31736  42.372  10.188  14.810
59422W        W31737  17.286  29.589   2.213
59423W        W31738  29.057   4.927   0.467
59424W        W31739  23.096  37.849   0.808
59425W        W31740   4.317  28.929  10.442
59426W        W31741  28.506   6.718   5.747
59427W        W31742  40.025  25.534   5.576
59428W        W31743  35.097  34.593  14.283
59429W        W31744  27.478  13.734   0.843
59430W        W31745  13.838   6.208   1.364
59431W        W31746  32.940   0.322   3.281
59432W        W31747  14.280  14.124  11.562
59433W        W31748  11.363  15.620  11.903
59434W        W31749   5.357  25.682  11.450
59435W        W31750   3.340  38.048  12.534
59436W        W31751   1.849  37.843   3.227
59437W        W31752  33.891  30.136   1.290
59438W        W31753  17.665  42.343  13.982
59439W        W31754   2.927  25.674  13.986
59440W        W31755  32.894  17.186  11.968
59441W        W31756  29.929  15.132  11.908
59442W        W31757  26.529   0.752  12.945
59443W        W31758  18.071  16.264  10.577
59444W        W31759   8.673   0.349  14.336
59445W        W31760   4.434  12.757  13.837
59446W        W31761  30.019  40.901   3.368
59447W        W31762  36.397  38.938  11.914
59448W        W31763  38.031   2.412  13.791
59449W        W31764  28.952  14.206   0.254
59450W        W31765  13.657  22.089  11.067
59451W        W31766  34.088  39.852  14.458
59452W        W31767  27.133  34.374   3.299
59453W        W31768  22.601  22.555   0.254
59454W        W31769  22.681  35.390  10.596
59455W        W31770   9.367  28.120  14.913
59456W        W31771   6.685   9.693  13.913
59457W        W31772  18.243  29.543  10.427
59458W        W31773   7.901  28.977   0.855
59459W        W31774  27.500  44.260   0.383
59460W        W31775  37.564   9.292  14.499
59461W        W31776  41.836  26.005  14.315
59462W        W31777  23.128  19.043   4.757
59463W        W31778  41.823   9.877   3.869
59464W        W31779  43.911  32.965  10.440
59465W        W31780  35.981  13.178   4.750
59466W        W31781  35.385  24.096  11.445
59467W        W31782  41.459  23.623   0.947
59468W        W31783  22.595  21.719  12.864
59469W        W31784  28.456  27.030   3.321
59470W        W31785  15.691  18.648  14.766
59471W        W31786  30.647  39.488  14.397
59472W        W31787  20.042  34.942  14.783
59473W        W31788  14.734  29.112  13.968
59474W        W31789  25.528   1.907   5.236
59475W        W31790   6.677  27.597  13.374
59476W        W31791  32.929   7.727  10.535
59477W        W31792  36.464  37.452   0.826
59478W        W31793  30.563  21.233  13.792
59479W        W31794  21.044  42.848   0.815
59480W        W31795  36.090  18.250  14.952
59481W        W31796   7.232  14.812  14.840
59482W        W31797  42.473  27.974  14.421
59483W        W31798  24.725   6.905   2.693
59484W        W31799  34.930   6.227  13.345
59485W        W31800  24.106   3.927  14.344
59486W        W31801   3.273  18.059   4.838
59487W        W31802  25.185  26.119   2.388
59488W        W31803  10.860  33.125  11.119
59489W        W31804  33.895  26.955  12.525
59490W        W31805   1.867  10.298   0.839
59491W        W31806   9.152   6.188  11.978
59492W        W31807   6.313  31.123  12.871
59493W        W31808   0.842  31.498  11.874
59494W        W31809   5.242  34.927  14.963
59495W        W31810  25.077  22.681  12.949
59496W        W31811  34.542  10.191   4.787
59497W        W31812   8.393  24.202   1.284
59498W        W31813  11.266   7.747   0.877
59499W        W31814  24.184  19.644  13.974
59500W        W31815   1.469  11.683   1.914
59501W        W31816   4.919  16.583   1.819
59502W        W31817  13.131  18.728  14.316
59503W        W31818  32.073  41.445   1.391
59504W        W31819  24.197  21.636  13.543
59505W        W31820  36.466  32.995  11.372
59506W        W31821   8.320  13.789  10.418
59507W        W31822  15.595  36.918   0.436
59508W        W31823  15.723  11.773   2.295
59509W        W31824  31.044  26.483  12.458
59510W        W31825  13.274  41.345   0.428
59511W        W31826  41.410   7.872   1.846
59512W        W31827  25.471  17.152  12.882
59513W        W31828   4.249   8.182  11.882
59514W        W31829  41.824  40.837   0.376
59515W        W31830  39.038   8.302  12.917
59516W        W31831   1.915  13.200  14.803
59517W        W31832  25.558   3.410   2.742
59518W        W31833  33.124  25.662  14.965
59519W        W31834   1.478  27.464   2.339
59520W        W31835  30.959   8.687   2.321
59521W        W31836  37.506  20.084  11.575
59522W        W31837  10.847  34.448   4.693
59523W        W31838  16.663  17.174  11.505
59524W        W31839  33.525  37.983  10.050
59525W        W31840  43.431  21.642  13.480
59526W        W31841  36.544  10.850  11.403
59527W        W31842  26.492   6.814  12.851
59528W        W31843  36.412  14.785  13.930
59529W        W31844  29.664  20.108  13.338
59530W        W31845  25.691  40.852  11.452
59531W        W31846   9.383  13.643   3.653
59532W        W31847  25.187  29.593  12.948
59533W        W31848  33.042  24.666   3.301
59534W        W31849   4.301   2.748   4.237
59535W        W31850  33.892  37.385  11.478
59536W        W31851  27.065  14.770   0.967
59537W        W31852  34.424  35.392   4.644
59538W        W31853  13.226  26.960  14.277
59539W        W31854   8.718   0.793   4.226
59540W        W31855  42.998  11.790   3.667
59541W        W31856  11.621  16.181   3.870
59542W        W31857   4.799  38.442   4.157
59543W        W31858   6.828  22.015  10.504
59544W        W31859   5.282  11.179  10.477
59545W        W31860  16.615  25.653  11.046
59546W        W31861   5.788   7.297  11.874
59547W        W31862   0.957  13.730  14.283
59548W        W31863  35.455   0.849   4.260
59549W        W31864  41.960  18.664  12.016
59550W        W31865   8.162  11.693   1.709
59551W        W31866  25.989  25.606   0.947
59552W        W31867  38.983  22.144   1.776
59553W        W31868  39.883  27.521   2.771
59554W        W31869   2.757  13.181  12.915
59555W        W31870  33.537  32.061  14.954
59556W        W31871  15.633  17.661   3.770
59557W        W31872  16.257  23.577  10.566
59558W        W31873  28.967  22.573   4.809
59559W        W31874  24.150  11.357   0.961
59560W        W31875  30.512  31.896   3.782
59561W        W31876  40.452  37.965  14.818
59562W        W31877  25.683   2.290   3.726
59563W        W31878   4.705  42.475  12.996
59564W        W31879   2.260  40.004  14.839
59565W        W31880  22.525   5.704   3.197
59566W        W31881  31.079   4.775   4.168
59567W        W31882  44.265  41.041   0.474
59568W        W31883  43.421  34.053  11.992
59569W        W31884   0.885   0.897  10.015
59570W        W31885   8.812   1.446   3.223
59571W        W31886  19.663  29.153  13.336
59572W        W31887  35.365  37.837   0.957
59573W        W31888  10.258  27.091  13.356
59574W        W31889  25.072  22.736  10.455
59575W        W31890  10.384  13.626   3.752
59576W        W31891  21.693  12.142  10.979
59577W        W31892  20.158  11.221   5.797
59578W        W31893  23.683   7.790   0.422
59579W        W31894   6.845  40.442   4.804
59580W        W31895  25.140  36.974   3.813
59581W        W31896  17.727  20.174  10.594
59582W        W31897  29.121   9.295   1.901
59583W        W31898  21.673  20.265   3.231
59584W        W31899  39.367  10.692  13.906
59585W        W31900  23.010  10.780  12.888
59586W        W31901   6.819  29.113  12.858
59587W        W31902  31.040   0.907  10.935
59588W        W31903   7.696  27.468   4.645
59589W        W31904   8.380  21.169  11.885
59590W        W31905  36.930   0.970   3.742
59591W        W31906  37.035  40.018  10.484
59592W        W31907  17.076  28.028   1.748
59593W        W31908  26.640  44.831  13.325
59594W        W31909  29.545   6.420  13.899
59595W        W31910  31.432  31.901   3.836
59596W        W31911  42.964  44.297  14.860
59597W        W31912  19.664  23.575  10.446
59598W        W31913  39.868  38.400   4.278
59599W        W31914  18.655  42.820  10.921
59600W        W31915  26.549  42.335   1.330
59601W        W31916  32.943  18.283   0.794
59602W        W31917  33.448  39.337   2.333
59603W        W31918  22.546  28.616  14.772
59604W        W31919  35.905  37.873  10.566
59605W        W31920   3.865   2.429   2.333
59606W        W31921  43.020  16.233   1.739
59607W        W31922  25.169  18.761   0.774
59608W        W31923  25.164   2.276   4.751
59609W        W31924  25.663  33.074  12.445
59610W        W31925  25.708  33.966   2.308
59611W        W31926  21.232  26.590  14.977
59612W        W31927  12.237  11.771   2.242
59613W        W31928  39.976  30.533  14.448
59614W        W31929  38.471  26.472   1.696
59615W        W31930  21.186   5.712   0.746
59616W        W31931  12.622  43.945  13.317
59617W        W31932  21.658   6.767   4.181
59618W        W31933   6.289   6.345  11.902
59619W        W31934   3.337  24.549   3.765
59620W        W31935   2.952  21.593   4.248
59621W        W31936  32.397  20.146   4.701
59622W        W31937  24.551  20.648   2.883
59623W        W31938  20.688   3.381  13.481
59624W        W31939  12.238  18.770  10.640
59625W        W31940   6.897  29.066  10.947
59626W        W31941  37.003   3.834  13.448
59627W        W31942  11.156  38.912  11.492
59628W        W31943  22.516   8.372   4.226
59629W        W31944  37.340  41.964   4.679
59630W        W31945  26.020   8.394  12.980
59631W        W31946   7.795   4.731  12.351
59632W        W31947   9.302  23.135  11.887
59633W        W31948   5.316  31.555   3.716
59634W        W31949  18.153  35.097   0.832
59635W        W31950  41.878  36.006  10.591
59636W        W31951   5.255  11.340  11.928
59637W        W31952   5.339  17.611   2.398
59638W        W31953  12.275  27.978   4.143
59639W        W31954  17.645   4.891   2.352
59640W        W31955  10.759  21.652  12.018
59641W        W31956  17.201  14.144  10.106
59642W        W31957  31.512  29.139   3.680
59643W        W31958   9.793  31.473  13.524
59644W        W31959  16.579  39.974  13.047
59645W        W31960   5.393  11.195   2.373
59646W        W31961  15.685  41.841  10.922
59647W        W31962   8.318  43.492  14.016
59648W        W31963  30.590  29.548  12.847
59649W        W31964   8.213  32.947   4.773
59650W        W31965  22.220  11.320  11.546
59651W        W31966  13.283  10.191   1.418
59652W        W31967  16.079  28.632  13.542
59653W        W31968  30.017  34.986   1.364
59654W        W31969  42.373  35.069   2.296
59655W        W31970  11.628  15.308   3.182
59656W        W31971   2.897  44.921  14.778
59657W        W31972  12.811   8.383   0.268
59658W        W31973  17.255  21.243  10.575
59659W        W31974   0.370   5.931  12.387
59660W        W31975  27.965  11.724   2.841
59661W        W31976   0.800  44.274   4.134
59662W        W31977  36.017  11.130  13.873
59663W        W31978  42.999  10.832  14.874
59664W        W31979   8.166   3.845  14.329
59665W        W31980  22.634  32.426  13.828
59666W        W31981  25.559  12.261  13.383
59667W        W31982  41.999  36.565  13.457
59668W        W31983  44.934  31.495  11.071
59669W        W31984  19.055  11.850   3.847
59670W        W31985  44.944   4.756  13.342
59671W        W31986   9.741  43.969  14.865
59672W        W31987  30.145  26.972  13.444
59673W        W31988   7.186  34.552   2.777
59674W        W31989  22.648  44.806   0.779
59675W        W31990  27.541  12.629   2.414
59676W        W31991   0.383  22.137  11.890
59677W        W31992  31.467  16.608  12.904
59678W        W31993  22.529  14.179   1.891
59679W        W31994  40.345  17.153   0.477
59680W        W31995  42.445  26.143   1.228
59681W        W31996  32.047   4.806   2.749
59682W        W31997  24.605  32.619   4.697
59683W        W31998   5.307  27.557   3.795
59684W        W31999  23.219  38.831  12.970
59685W        W32000  30.588   1.283   4.180
59686W        W32001  43.378  12.150  13.897
59687W        W32002  26.663  43.011  13.953
59688W        W32003   7.882   1.890   4.279
59689W        W32004  20.078   5.208   1.786
59690W        W32005  22.708   8.363   3.168
59691W        W32006  38.991  32.418  12.854
59692W        W32007  26.538  37.438  10.006
59693W        W32008  35.511  35.061  10.890
59694W        W32009  24.115  24.645  14.888
59695W        W32010  33.474  22.214  13.060
59696W        W32011  22.506  37.435  14.823
59697W        W32012  18.065  40.307  10.576
59698W        W32013  33.095  16.593  12.384
59699W        W32014  32.002  11.669   1.779
59700W        W32015  25.565  28.937  13.891
59701W        W32016   5.310  30.430   2.321
59702W        W32017  18.186   0.957   4.745
59703W        W32018  19.158  17.210   1.746
59704W        W32019  39.365   3.372   1.728
59705W        W32020  30.092  31.082   0.480
59706W        W32021   2.729  17.200   4.325
59707W        W32022  44.813  15.677   2.321
59708W        W32023  27.033  43.765  14.028
59709W        W32024  12.167  11.235   2.685
59710W        W32025  44.478  14.687  10.506
59711W        W32026  38.050  21.079  13.994
59712W        W32027  31.505  36.400   2.788
59713W        W32028  33.028   2.723  14.309
59714W        W32029  22.603  19.207   2.672
59715W        W32030  42.023  43.345  11.859
59716W        W32031  15.659  16.643   4.133
59717W        W32032  22.647  27.592  14.814
59718W        W32033  38.049  10.635  11.860
59719W        W32034  26.521  29.518  13.359
59720W        W32035   7.394   8.230  10.613
59721W        W32036   7.322  35.972  14.915
59722W        W32037  27.080   8.203  13.980
59723W        W32038  10.154  18.167   5.109
59724W        W32039  42.330  20.542  13.410
59725W        W32040   1.483   6.721   4.835
59726W        W32041  22.721  31.499   2.414
59727W        W32042  37.062   2.388  13.856
59728W        W32043  10.307  31.915   4.142
59729W        W32044  36.462  40.534  14.862
59730W        W32045  36.005   8.315  13.009
59731W        W32046  33.978  10.659   1.430
59732W        W32047  44.883  19.690   0.315
59733W        W32048   5.808  37.004  11.943
59734W        W32049   6.234  15.229  14.861
59735W        W32050  23.017  15.804   0.914
59736W        W32051  27.670  28.040   1.810
59737W        W32052  44.968   1.819  10.629
59738W        W32053  22.080  14.733   4.343
59739W        W32054  25.610  33.451   4.731
59740W        W32055  14.632   2.291  14.809
59741W        W32056  28.532   3.953   9.673
59742W        W32057  21.163  25.635   0.429
59743W        W32058  34.503  13.168  11.552
59744W        W32059  42.836   7.883  11.505
59745W        W32060  41.957   3.947   2.233
59746W        W32061  43.805   2.312  14.941
59747W        W32062  10.241  23.205  11.387
59748W        W32063   1.243  22.608  13.533
59749W        W32064  18.717   8.745  10.083
59750W        W32065  19.182   9.394  12.984
59751W        W32066  11.783  19.071  14.406
59752W        W32067  28.021  21.535  12.375
59753W        W32068  29.059   2.357  13.459
59754W        W32069  37.947  36.396   4.233
59755W        W32070  26.689  36.466   1.812
59756W        W32071  36.922  26.469   3.774
59757W        W32072  27.464  41.031   0.443
59758W        W32073  23.698  15.227  11.545
59759W        W32074  32.977  22.638  12.016
59760W        W32075  27.503   1.859   3.693
59761W        W32076  19.701  21.688   3.273
59762W        W32077  40.999   6.278   1.846
59763W        W32078   2.891  11.699  12.451
59764W        W32079  43.479  25.203   0.248
59765W        W32080  14.773   7.174   0.760
59766W        W32081  21.058  20.100  10.494
59767W        W32082  24.223  37.898   4.644
59768W        W32083  12.360   8.322  13.896
59769W        W32084  20.701  24.578  14.893
59770W        W32085  16.723  24.528  14.475
59771W        W32086  17.061  22.569   1.857
59772W        W32087  16.807   2.748   0.452
59773W        W32088  21.018  37.465   2.202
59774W        W32089  20.560  40.531   3.713
59775W        W32090  13.795  15.219   0.792
59776W        W32091  38.908  22.557  12.390
59777W        W32092  31.523  19.695   5.166
59778W        W32093  34.550  14.145   0.448
59779W        W32094  29.638  28.095  11.050
59780W        W32095  14.672  21.567   2.182
59781W        W32096  30.533  35.057  11.895
59782W        W32097  18.129  43.767  10.546
59783W        W32098   6.716   0.986  12.941
59784W        W32099   5.439  12.266  12.886
59785W        W32100  30.108  26.609  10.914
59786W        W32101  21.072  44.311   3.800
59787W        W32102  29.665  35.080   2.801
59788W        W32103  24.066  22.225  12.003
59789W        W32104  28.942  22.067  11.465
59790W        W32105   9.176  11.835  13.916
59791W        W32106  36.928  32.903   3.777
59792W        W32107  36.401  26.520   3.278
59793W        W32108  19.574  41.928   3.738
59794W        W32109  38.324  27.650  11.126
59795W        W32110  20.119  43.955   4.648
59796W        W32111  11.244  31.960   0.340
59797W        W32112  26.692  23.568   1.856
59798W        W32113   6.917  31.079  14.308
59799W        W32114  34.499  36.550  13.546
59800W        W32115   1.310  30.561   2.703
59801W        W32116  24.160  32.636   3.815
59802W        W32117  26.124  43.825  14.500
59803W        W32118   5.436  18.737   3.795
59804W        W32119  38.895  32.094  10.042
59805W        W32120   9.393   6.818   4.610
59806W        W32121   9.824   3.430  12.983
59807W        W32122  25.133   2.924  10.495
59808W        W32123  44.922   0.949   1.708
59809W        W32124  43.437  36.411  10.429
59810W        W32125  30.040  21.573   0.890
59811W        W32126  26.065   9.780   2.832
59812W        W32127  23.180  18.266  14.489
59813W        W32128  24.510  28.494   3.639
59814W        W32129  44.413   4.803  12.510
59815W        W32130  27.589  38.968   1.854
59816W        W32131  32.417  30.483   4.693
59817W        W32132  18.741  35.006  10.941
59818W        W32133  21.129  17.748   4.215
59819W        W32134  23.596   1.267   1.909
59820W        W32135  39.046  17.615  12.377
59821W        W32136  19.563  14.713   1.380
59822W        W32137  26.507  31.537   2.183
59823W        W32138   9.872  39.532  14.958
59824W        W32139   0.798  26.633  13.539
59825W        W32140  23.197  34.520   4.624
59826W        W32141  38.567  33.544  10.577
59827W        W32142  42.943  21.039  11.018
59828W        W32143  37.485  30.420   2.716
59829W        W32144  17.133  33.613   1.391
59830W        W32145   8.386  27.969   2.286
59831W        W32146   1.285  43.835  11.446
59832W        W32147   1.449  10.652   1.262
59833W        W32148  29.928  33.556   0.788
59834W        W32149   7.745  10.674  12.829
59835W        W32150   0.812  18.285  13.993
59836W        W32151   0.956  16.094  14.918
59837W        W32152  28.549  39.849   0.770
59838W        W32153  14.223  28.043   0.932
59839W        W32154   3.383  23.194   1.823
59840W        W32155  39.346   1.945   1.330
59841W        W32156  25.184   3.842  10.599
59842W        W32157  22.041  29.637   4.741
59843W        W32158   2.454  33.521  13.399
59844W        W32159  22.602  16.592   4.605
59845W        W32160  25.184  24.712   0.315
59846W        W32161  10.227  21.545   3.762
59847W        W32162  40.967  33.568  14.337
59848W        W32163  25.164  25.492   3.213
59849W        W32164  39.415  27.008   9.573
59850W        W32165  30.023  24.217  11.102
59851W        W32166  42.917   4.341  13.805
59852W        W32167  30.463  38.463   2.366
59853W        W32168  34.973  42.476   1.825
59854W        W32169   6.851  10.701   2.283
59855W        W32170   1.834  11.266   5.782
59856W        W32171  26.082  34.428  14.329
59857W        W32172  15.213  40.961  14.477
59858W        W32173  31.465   2.926  13.401
59859W        W32174  27.093   1.900  11.375
59860W        W32175   3.257  39.389  11.029
59861W        W32176  17.079   7.269   3.168
59862W        W32177  28.509   2.800  12.395
59863W        W32178   3.884  42.781  13.930
59864W        W32179  38.035  27.025  10.436
59865W        W32180  29.029   7.206   1.441
59866W        W32181   3.926  39.405   1.412
59867W        W32182  12.180  29.502   0.817
59868W        W32183  23.676   4.440   1.896
59869W        W32184  18.200  13.677   0.838
59870W        W32185   3.936  17.593  14.996
59871W        W32186  16.214  18.278   1.260
59872W        W32187  14.804  29.040   4.255
59873W        W32188  21.600  34.488  14.910
59874W        W32189  42.300   1.401  12.094
59875W        W32190  34.415  13.817  14.835
59876W        W32191  40.890  17.284   3.277
59877W        W32192   3.392   8.350   2.291
59878W        W32193  13.258  15.720  10.905
59879W        W32194  29.972  13.186   3.629
59880W        W32195  36.961   4.907  13.991
59881W        W32196  42.303  36.857  11.394
59882W        W32197   0.820  18.182   4.766
59883W        W32198  21.220  20.203   0.383
59884W        W32199  30.106  14.163   3.331
59885W        W32200  33.604   9.155   0.319
59886W        W32201   7.852  14.318  13.530
59887W        W32202  11.191   5.737   3.782
59888W        W32203  20.137  35.962  14.504
59889W        W32204  35.987   2.905  14.892
59890W        W32205  37.891   3.880   0.364
59891W        W32206  31.462  30.115  11.974
59892W        W32207   9.347  10.334   3.868
59893W        W32208   5.880   5.858   4.796
59894W        W32209  42.945  33.988  14.827
59895W        W32210  23.995  15.814   2.665
59896W        W32211  15.175  13.705   1.925
59897W        W32212   9.675  15.312  11.002
59898W        W32213  28.990   4.227   5.607
59899W        W32214  15.611   7.735   2.243
59900W        W32215   9.220  32.630  14.323
59901W        W32216  23.082   1.429   4.650
59902W        W32217  35.101  28.655  14.450
59903W        W32218  30.655  32.615  12.578
59904W        W32219  28.592   3.835  13.857
59905W        W32220  19.556  19.671   2.819
59906W        W32221  40.995   8.709  10.502
59907W        W32222  44.435   3.849  12.028
59908W        W32223  44.486  14.206  12.544
59909W        W32224  35.921  16.682   1.888
59910W        W32225  40.028   0.303  14.863
59911W        W32226  15.792  15.186   4.159
59912W        W32227  23.568  19.134   5.749
59913W        W32228  25.514   0.773  12.533
59914W        W32229   1.961  20.628   3.670
59915W        W32230   6.811   8.224  14.457
59916W        W32231  41.499  34.481  14.862
59917W        W32232  11.341  30.046  11.893
59918W        W32233  18.692  29.046   2.845
59919W        W32234  24.591  11.680   1.885
59920W        W32235  39.459  22.029  14.311
59921W        W32236  28.519  37.410  14.901
59922W        W32237  20.139  36.569   4.317
59923W        W32238  37.419   3.281   1.875
59924W        W32239  27.184  32.543  10.993
59925W        W32240  35.876  26.652   2.208
59926W        W32241  10.728  42.913  11.534
59927W        W32242  39.910   1.353   2.877
59928W        W32243   6.247   8.837   3.652
59929W        W32244  24.625   7.188  11.534
59930W        W32245  14.324  39.456   4.665
59931W        W32246   9.252  42.334   1.308
59932W        W32247   7.255  23.727  12.015
59933W        W32248   2.411  42.015   3.747
59934W        W32249   8.403  33.100  11.549
59935W        W32250  41.919  15.692   4.791
59936W        W32251  44.334   5.700   2.419
59937W        W32252  22.081  24.635   3.322
59938W        W32253  22.238   5.403  14.386
59939W        W32254  37.086  31.984   1.766
59940W        W32255  41.354  34.067  13.035
59941W        W32256  31.084  27.104   3.768
59942W        W32257  32.906   7.805   4.232
59943W        W32258   4.764   2.779  14.829
59944W        W32259   0.262  12.308   0.745
59945W        W32260   0.295  35.931   5.686
59946W        W32261   0.794  43.899  11.129
59947W        W32262  12.753  44.342  10.546
59948W        W32263  36.969  16.627  11.040
59949W        W32264   3.949  19.203   4.228
59950W        W32265  23.714   9.306  13.933
59951W        W32266  37.509   9.862   2.816
59952W        W32267  42.002   6.422   2.291
59953W        W32268   3.355  36.985  12.893
59954W        W32269  35.430  43.294  13.867
59955W        W32270  13.679  36.437   2.855
59956W        W32271  14.796  27.127  11.008
59957W        W32272  32.028   2.301   0.415
59958W        W32273  40.396   0.920  13.519
59959W        W32274  38.492   8.782   3.177
59960W        W32275  18.056  14.823   1.431
59961W        W32276  18.164  16.631   4.213
59962W        W32277  12.249  14.184  13.924
59963W        W32278   1.755  14.594  13.811
59964W        W32279  20.690  43.999  11.477
59965W        W32280  24.983  33.430   1.762
59966W        W32281   1.855  19.547   0.421
59967W        W32282   4.930  29.496   0.881
59968W        W32283  44.432  32.962  11.520
59969W        W32284  18.058   6.376  11.856
59970W        W32285   6.678   6.696  11.989
59971W        W32286  34.519  39.850  14.026
59972W        W32287   6.292   7.235   3.379
59973W        W32288  43.018  22.245  10.086
59974W        W32289  27.954  38.443   0.317
59975W        W32290  43.312  15.580   2.316
59976W        W32291  17.098  29.516   0.332
59977W        W32292  16.256  27.056  10.631
59978W        W32293  33.428  25.561   0.955
59979W        W32294  10.803  28.152   4.319
59980W        W32295  29.019   6.313  11.994
59981W        W32296   3.289  16.175  13.424
59982W        W32297   6.769  38.068   4.159
59983W        W32298  30.589  22.245   1.724
59984W        W32299   5.324  10.675   4.291
59985W        W32300  12.122  25.489  10.601
59986W        W32301  19.152  28.170   1.795
59987W        W32302  33.996  38.560   0.796
59988W        W32303  28.522  33.427  12.010
59989W        W32304  32.896  23.582  13.833
59990W        W32305  13.221  17.262  10.449
59991W        W32306  12.272  23.061  14.771
59992W        W32307   1.876  15.313   1.793
59993W        W32308  28.063  20.171   4.765
59994W        W32309  31.598   3.277   1.708
59995W        W32310   0.398  24.517  10.552
59996W        W32311  30.549   7.255   0.282
59997W        W32312  17.693  37.990   9.582
59998W        W32313  16.155  15.803   4.763
59999W        W32314   3.271   4.856  14.819
60000W        W32315  26.496  21.194   2.775
60001W        W32316   3.763  23.613   0.333
60002W        W32317  19.084  11.699  13.313
60003W        W32318  26.156   3.876   2.238
60004W        W32319  40.480  25.059  13.023
60005W        W32320  37.869  24.710   2.713
60006W        W32321  24.701  39.967   1.269
60007W        W32322   8.845   7.371   3.706
60008W        W32323   2.760   6.796   0.475
60009W        W32324   5.851  10.867   2.844
60010W        W32325  36.939   7.376   1.804
60011W        W32326  37.533  16.222   1.864
60012W        W32327   8.770  19.186  12.958
60013W        W32328  39.473  37.428  12.914
60014W        W32329  22.674  14.177  14.971
60015W        W32330  40.814   3.826   4.676
60016W        W32331   2.871  13.721   2.189
60017W        W32332  35.450  39.935  12.552
60018W        W32333  10.871   4.859   0.281
60019W        W32334  14.652   4.421   3.225
60020W        W32335  41.321  12.327   3.344
60021W        W32336   6.901  31.940  10.023
60022W        W32337   9.385  28.959  11.564
60023W        W32338  37.525  22.162   3.336
60024W        W32339   7.259  10.868  10.981
60025W        W32340  38.847  32.087  14.942
60026W        W32341  25.084   8.203  11.445
60027W        W32342   9.745  29.496  11.977
60028W        W32343  17.215  30.475   9.664
60029W        W32344  19.754  18.609  11.388
60030W        W32345  18.138   1.906  11.995
60031W        W32346   9.182   1.364   3.680
60032W        W32347  18.735  27.065  10.593
60033W        W32348  13.218   2.904   3.726
60034W        W32349   1.789  32.902  12.969
60035W        W32350  10.876  38.954   1.259
60036W        W32351  32.400  43.816  10.461
60037W        W32352  29.613  30.628   2.400
60038W        W32353   7.884  15.093   3.150
60039W        W32354  30.567   7.309   3.228
60040W        W32355  18.564  40.388   2.297
60041W        W32356  33.072  13.244   1.737
60042W        W32357  44.481   0.379  10.470
60043W        W32358  42.413  44.883   4.205
60044W        W32359   8.336  15.158  13.850
60045W        W32360   7.198  21.716  13.917
60046W        W32361   0.369  33.431  11.925
60047W        W32362  44.866   1.326   2.264
60048W        W32363  19.157  39.341  12.391
60049W        W32364  20.094  12.288  12.853
60050W        W32365  33.514  32.501  13.005
60051W        W32366  33.935  23.193   1.270
60052W        W32367  44.993  40.895   1.894
60053W        W32368  28.102  25.115   1.738
60054W        W32369  38.069  24.585   3.747
60055W        W32370  30.493  20.597   2.804
60056W        W32371  15.167  37.352  11.505
60057W        W32372  21.245  27.000   2.661
60058W        W32373  22.025  14.155  14.502
60059W        W32374  29.620  16.672  10.610
60060W        W32375  35.003   2.362   1.393
60061W        W32376  32.403  34.863   0.274
60062W        W32377  21.595   5.714   4.775
60063W        W32378  16.789  39.963   1.774
60064W        W32379   8.807   1.454   0.249
60065W        W32380  40.808   1.765  10.590
60066W        W32381  22.192   9.260   2.745
60067W        W32382  27.060  34.008  12.482
60068W        W32383  42.911  41.413  13.857
60069W        W32384   6.192  30.417  13.838
60070W        W32385  36.949  30.985   2.746
60071W        W32386  10.325   8.735   5.176
60072W        W32387  19.255  21.532  11.128
60073W        W32388   6.344  43.440  11.037
60074W        W32389  27.485   7.230  11.467
60075W        W32390  31.032   7.256  10.530
60076W        W32391   4.399   7.745  13.410
60077W        W32392  41.526   8.775   3.690
60078W        W32393  21.229   0.302  13.501
60079W        W32394  24.976  16.084   0.477
60080W        W32395  38.990  22.705   2.253
60081W        W32396  23.596  28.003   2.235
60082W        W32397  23.143  17.799   0.273
60083W        W32398  37.570  19.594   0.396
60084W        W32399  41.383  12.226  14.910
60085W        W32400  42.908   3.344   1.753
60086W        W32401  18.624  22.068  13.930
60087W        W32402   1.805  22.610  10.464
60088W        W32403  42.867  13.157   3.664
60089W        W32404  37.568   4.728   0.775
60090W        W32405  43.878  12.286  13.349
60091W        W32406  23.235  14.325   2.248
60092W        W32407  13.716  29.668   2.780
60093W        W32408  32.604   6.397  10.900
60094W        W32409   1.907  10.731   4.627
60095W        W32410  11.145  39.864   3.165
60096W        W32411  33.978   4.292   1.350
60097W        W32412  28.136  34.079  11.374
60098W        W32413  24.976  28.551   4.289
60099W        W32414  43.354  24.719  14.462
60100W        W32415  28.573  40.052   3.754
60101W        W32416   1.956  16.072   3.317
60102W        W32417   0.270  31.912   3.687
60103W        W32418  22.120  25.661   3.277
60104W        W32419  19.070  13.307  11.072
60105W        W32420  40.317   2.425  12.377
60106W        W32421  32.140  38.035  11.101
60107W        W32422  20.541  30.493   0.726
60108W        W32423  26.487  13.652  13.830
60109W        W32424  16.212  30.038   2.238
60110W        W32425  37.572  23.515  14.943
60111W        W32426  37.893   4.707  14.776
60112W        W32427  35.559  20.262  10.628
60113W        W32428  24.123  24.152  11.413
60114W        W32429  28.011  26.202   3.690
60115W        W32430  23.012  17.598  11.956
60116W        W32431  40.982  23.732   4.742
60117W        W32432  25.109  26.692  11.076
60118W        W32433  40.999   2.460  13.342
60119W        W32434  11.331   5.860   1.808
60120W        W32435  17.162  32.026  12.577
60121W        W32436  11.306  22.111  13.798
60122W        W32437  18.103  44.990   1.812
60123W        W32438  23.700  28.461  11.983
60124W        W32439   2.906   3.893  13.512
60125W        W32440   6.826  11.135  14.778
60126W        W32441  40.485   2.942   3.319
60127W        W32442  26.581   4.237  13.521
60128W        W32443   7.735  12.732   2.759
60129W        W32444   6.238  15.270  11.520
60130W        W32445   7.879  30.975   3.299
60131W        W32446  10.779  42.315   3.289
60132W        W32447   1.951   1.887  10.508
60133W        W32448  37.008  39.346  14.361
60134W        W32449  41.854   2.755   3.759
60135W        W32450  33.896  30.639   3.173
60136W        W32451  19.097  19.742  14.400
60137W        W32452  25.571   9.797  12.911
60138W        W32453  15.219   4.937   0.420
60139W        W32454   2.940  35.395   1.828
60140W        W32455  30.497  16.724  14.496
60141W        W32456  33.027  19.179  14.479
60142W        W32457  14.777  27.657   0.928
60143W        W32458   9.254  26.677   0.748
60144W        W32459  28.128  43.501   0.734
60145W        W32460   2.890  24.209   1.220
60146W        W32461   3.879   1.264  10.608
60147W        W32462   8.868  38.555  12.483
60148W        W32463  19.643  11.785  14.488
60149W        W32464   6.227  34.582  12.082
60150W        W32465  41.851  29.118  13.964
60151W        W32466  33.425  34.104   0.900
60152W        W32467  29.010  36.039   0.830
60153W        W32468  27.011  36.509   4.723
60154W        W32469   9.855  17.689  11.466
60155W        W32470  15.589  35.028   4.778
60156W        W32471  34.427  21.745   0.278
60157W        W32472  20.575  30.095   4.259
60158W        W32473  18.080  21.082  10.616
60159W        W32474  25.188   6.738  11.564
60160W        W32475  30.441   0.328  12.888
60161W        W32476  25.491  29.927   1.805
60162W        W32477  42.397  35.092  10.583
60163W        W32478  19.730  37.550  14.788
60164W        W32479  12.673   8.330   1.857
60165W        W32480  15.209  32.973  13.340
60166W        W32481  17.637  29.542  14.993
60167W        W32482  20.250  31.954  11.127
60168W        W32483  18.125  10.743  11.568
60169W        W32484   8.402  29.040   1.735
60170W        W32485   2.822   0.439  13.970
60171W        W32486  29.924  15.615  10.539
60172W        W32487  38.526  33.983  10.989
60173W        W32488  13.291   2.730  11.426
60174W        W32489   6.227  29.119   1.877
60175W        W32490  40.392  27.079   4.245
60176W        W32491  11.827   7.667   2.717
60177W        W32492   7.202  10.656   1.401
60178W        W32493  23.512   2.343  12.883
60179W        W32494  19.208   8.325   1.721
60180W        W32495  39.971  17.269   4.242
60181W        W32496  27.063   7.219   1.931
60182W        W32497  15.605   8.209   0.480
60183W        W32498  31.536  17.277  11.576
60184W        W32499  23.694  17.140   2.872
60185W        W32500  34.438   5.791   4.643
60186W        W32501   5.386  21.757   0.893
60187W        W32502  37.019  22.720  13.419
60188W        W32503  26.125  24.601   3.849
60189W        W32504   0.288   9.733   5.152
60190W        W32505  28.616  13.294   3.277
60191W        W32506   8.731  43.907  12.384
60192W        W32507   2.344  11.622  10.047
60193W        W32508   6.215  40.499  14.886
60194W        W32509   4.298  20.119  14.997
60195W        W32510  18.581   8.293  13.337
60196W        W32511  44.831  14.781   1.929
60197W        W32512  24.215  24.579   3.633
60198W        W32513  30.148  26.588   4.244
60199W        W32514  34.025  20.554  12.969
60200W        W32515  36.407  11.853  10.609
60201W        W32516   4.314  11.327   1.858
60202W        W32517  10.237  13.768   1.875
60203W        W32518  18.088  18.597  14.383
60204W        W32519   4.904  24.479   4.787
60205W        W32520   6.340   5.429   1.231
60206W        W32521  10.302  35.961  12.550
60207W        W32522   2.926   8.269   2.348
60208W        W32523   4.723  32.450   2.369
60209W        W32524   2.376  15.607   1.368
60210W        W32525  43.862  30.157   3.787
60211W        W32526  17.561   3.757  11.481
60212W        W32527  17.676  31.011  10.110
60213W        W32528  32.495   6.734   1.919
60214W        W32529   5.287   6.310  10.480
60215W        W32530  26.513  28.012  12.558
60216W        W32531  39.434   0.252   4.260
60217W        W32532  24.137  25.608  14.030
60218W        W32533  15.264  32.932  12.919
60219W        W32534  16.625  33.998   4.247
60220W        W32535  33.917   7.354  13.901
60221W        W32536  29.530   1.911  14.498
60222W        W32537  44.003  23.500  14.284
60223W        W32538  38.989   1.369   4.598
60224W        W32539  11.692  42.334  13.831
60225W        W32540  31.577  32.467  14.367
60226W        W32541   1.789  21.092   1.844
60227W        W32542   9.787  43.953  12.947
60228W        W32543  36.452  38.399   2.389
60229W        W32544  19.177  35.518   3.772
60230W        W32545   9.226  22.505   3.770
60231W        W32546  11.234   9.867   3.315
60232W        W32547  28.446  26.132   1.442
60233W        W32548   6.238  13.319  12.350
60234W        W32549  28.163  36.997   2.834
60235W        W32550  42.918   4.312  10.585
60236W        W32551   8.876  17.154  14.375
60237W        W32552  14.339  19.617  14.790
60238W        W32553   9.363  21.198   4.203
60239W        W32554  23.680  14.588   1.796
60240W        W32555  38.905  34.615   5.309
60241W        W32556  29.645  37.843  10.949
60242W        W32557  43.854   5.389   0.852
60243W        W32558  20.185  10.872   2.668
60244W        W32559  17.776  30.480   5.738
60245W        W32560  20.179   5.768  12.843
60246W        W32561  41.820   3.848   3.304
60247W        W32562  18.727  25.572   4.226
60248W        W32563  22.032   0.485  14.341
60249W        W32564  26.000  14.626  12.343
60250W        W32565  35.380   9.763  11.001
60251W        W32566  23.570  42.830   2.329
60252W        W32567  40.425  18.148   2.362
60253W        W32568  14.682  40.922  13.881
60254W        W32569   1.781  32.019   0.795
60255W        W32570  10.862  38.929  12.917
60256W        W32571  14.129  42.977  11.446
60257W        W32572  26.064  27.130   0.252
60258W        W32573  17.172  10.191  14.306
60259W        W32574  37.069   4.819  10.521
60260W        W32575   8.797  21.038  12.491
60261W        W32576  31.436  23.715  13.387
60262W        W32577   7.767  13.640  14.496
60263W        W32578  20.089   9.660   0.823
60264W        W32579  30.658  21.172   4.653
60265W        W32580  28.483  13.784   1.256
60266W        W32581  37.573  13.116  12.482
60267W        W32582  44.976  44.411  14.791
60268W        W32583  35.535  10.774   1.251
60269W        W32584  32.964  24.181   0.265
60270W        W32585  32.462  10.281  13.440
60271W        W32586  19.752  37.982   4.705
60272W        W32587   6.751   8.676   1.335
60273W        W32588   4.357  20.160  12.536
60274W        W32589  24.155   1.875   4.175
60275W        W32590  28.560  14.638   0.835
60276W        W32591   7.725   0.956   5.187
60277W        W32592  15.228  32.064  12.886
60278W        W32593  34.029  44.318  13.391
60279W        W32594  38.501  21.195  11.082
60280W        W32595  43.357  25.133   1.909
60281W        W32596  39.820  25.561   9.492
60282W        W32597  35.914  12.654   3.363
60283W        W32598   6.319  14.652  14.829
60284W        W32599   9.862   4.872   1.817
60285W        W32600  43.897  42.793   0.322
60286W        W32601  33.591  43.395  10.410
60287W        W32602  11.315  32.498   1.850
60288W        W32603   6.402  39.493   4.802
60289W        W32604   8.187  34.042   0.778
60290W        W32605  26.509   6.212  11.930
60291W        W32606  40.905  15.619  11.438
60292W        W32607  21.199  31.079  13.404
60293W        W32608  36.492   6.885   3.199
60294W        W32609  33.615  12.664  11.941
60295W        W32610  20.078   6.767  14.010
60296W        W32611  28.540   8.371   4.146
60297W        W32612  26.066  17.071   4.646
60298W        W32613  27.480  40.334   1.722
60299W        W32614  12.839  26.989  13.817
60300W        W32615   9.386  13.183  12.914
60301W        W32616  36.033  17.298  14.836
60302W        W32617  43.882  34.397  14.823
60303W        W32618  22.053  12.734   1.868
60304W        W32619  23.638  35.983  12.453
60305W        W32620  20.157  15.259   1.384
60306W        W32621  39.543  23.241  13.933
60307W        W32622  20.274  12.675   0.768
60308W        W32623   7.330  28.002  12.413
60309W        W32624   6.909  22.241  11.502
60310W        W32625  23.237   4.790  13.898
60311W        W32626  37.873  35.390  10.483
60312W        W32627  36.926  16.115   2.273
60313W        W32628  31.459  27.082  13.904
60314W        W32629  34.015  24.528  12.883
60315W        W32630  26.973  38.072   0.258
60316W        W32631  17.614  15.782  11.505
60317W        W32632  27.096   0.440   4.158
60318W        W32633  33.389  21.677   0.935
60319W        W32634  18.113  37.941   3.332
60320W        W32635  17.127  32.492  11.598
60321W        W32636  25.206  21.727   3.222
60322W        W32637  13.774  19.744  12.999
60323W        W32638  22.062  10.666  13.417
60324W        W32639  22.503  37.071  14.907
60325W        W32640  17.270  36.419   0.392
60326W        W32641  42.808  27.602   4.687
60327W        W32642  19.137   3.371   0.962
60328W        W32643  33.498  26.462  11.004
60329W        W32644  34.582   3.314   1.909
60330W        W32645  39.541   7.308  11.451
60331W        W32646   7.776  37.922   2.861
60332W        W32647  37.354  31.476   2.291
60333W        W32648  20.203   8.209   1.765
60334W        W32649  33.098  19.718   5.155
60335W        W32650  13.605  16.279  14.836
60336W        W32651  32.451  27.128  11.901
60337W        W32652  16.752   5.893   2.262
60338W        W32653  42.379   3.923   2.792
60339W        W32654  44.825   9.670   5.157
60340W        W32655   2.345  26.612  12.445
60341W        W32656   1.418  44.766   4.290
60342W        W32657  29.622  10.793   2.207
60343W        W32658  29.445   3.730  10.993
60344W        W32659  10.186  25.010   1.437
60345W        W32660  38.365  18.223   1.269
60346W        W32661  17.080   2.258  11.888
60347W        W32662  39.391  12.116   0.439
60348W        W32663  11.368  37.041  12.425
60349W        W32664  41.406  33.602   1.315
60350W        W32665  13.649   8.287  10.611
60351W        W32666   0.890   1.862   5.212
60352W        W32667   4.855  16.682   5.225
60353W        W32668  42.517   8.307  11.516
60354W        W32669  12.826  16.102   1.433
60355W        W32670  39.484  40.986   0.411
60356W        W32671   5.380  34.434   0.260
60357W        W32672  39.384  16.242   3.724
60358W        W32673  18.641  29.592   1.715
60359W        W32674  43.352  25.687  14.977
60360W        W32675  44.483  44.948  12.973
60361W        W32676  25.109   6.329   1.361
60362W        W32677  11.367  43.427  14.861
60363W        W32678  41.953  39.506  12.935
60364W        W32679  40.914  34.418   1.910
60365W        W32680  10.320  18.079   1.381
60366W        W32681  21.147  13.325  12.458
60367W        W32682  28.523  23.636  11.047
60368W        W32683   7.852  16.116   2.799
60369W        W32684   5.260  24.155   3.377
60370W        W32685  28.647  42.411   1.305
60371W        W32686  30.113  30.442   2.665
60372W        W32687  31.126  20.670   2.193
60373W        W32688  13.124  11.189  13.465
60374W        W32689  11.351  34.905   0.261
60375W        W32690  32.466  22.505  14.022
60376W        W32691  32.003  18.108  11.980
60377W        W32692  26.001  36.361   0.368
60378W        W32693   2.760  19.562  13.528
60379W        W32694  37.509  36.545  11.874
60380W        W32695   8.776  22.175  10.917
60381W        W32696  20.257   8.349  11.480
60382W        W32697   4.778   7.828   4.629
60383W        W32698  12.671  15.277   2.887
60384W        W32699  43.924  16.612  10.485
60385W        W32700   0.472  42.439  10.949
60386W        W32701  24.634  31.534  10.615
60387W        W32702  12.185   7.385  13.466
60388W        W32703   9.800  10.362   1.242
60389W        W32704  25.007  24.654  10.422
60390W        W32705   6.212  39.053   1.792
60391W        W32706   4.881  22.646   1.883
60392W        W32707  37.487  34.494  14.852
60393W        W32708  33.566  26.514   2.832
60394W        W32709  38.069  31.443  11.005
60395W        W32710  17.083   4.326  12.907
60396W        W32711  29.992  37.364   1.327
60397W        W32712  33.438  19.670  13.424
60398W        W32713  20.655  15.277  13.052
60399W        W32714  44.759   0.418  10.497
60400W        W32715  22.630  24.514  12.382
60401W        W32716  28.183  41.459  12.434
60402W        W32717  26.148  28.115   3.340
60403W        W32718  44.438  16.753   3.332
60404W        W32719  20.769  30.152  12.029
60405W        W32720   3.777  30.073  14.814
60406W        W32721  37.336  38.055  11.991
60407W        W32722  33.927  27.681   3.361
60408W        W32723  32.066  15.721   4.687
60409W        W32724  38.850   0.817   4.120
60410W        W32725  25.981  11.209   2.823
60411W        W32726  25.695  20.757  10.910
60412W        W32727  25.504  22.714   4.679
60413W        W32728  40.386  13.801   2.360
60414W        W32729  41.385  27.632  13.906
60415W        W32730  44.374  39.950   4.192
60416W        W32731  22.029   6.220  12.853
60417W        W32732  36.434  31.999  10.079
60418W        W32733  15.704  40.528   2.379
60419W        W32734  11.660  39.810   1.318
60420W        W32735  42.024   6.785  13.948
60421W        W32736  35.429  37.396   2.371
60422W        W32737  22.227  33.587   1.823
60423W        W32738  21.653  23.002   4.832
60424W        W32739  35.410  15.772   1.722
60425W        W32740  23.231  12.235   0.473
60426W        W32741   3.724  34.958   0.731
60427W        W32742  28.472  42.893   4.350
60428W        W32743  15.207  31.072  10.555
60429W        W32744   6.699  15.706  14.948
60430W        W32745   6.351  13.246  13.949
60431W        W32746  22.664  19.542   4.213
60432W        W32747  17.174  43.894   4.340
60433W        W32748  22.694  29.973  12.567
60434W        W32749  33.924  25.492   2.419
60435W        W32750  16.579  23.651   2.840
60436W        W32751  25.163  26.582   5.162
60437W        W32752  27.505  16.810   3.746
60438W        W32753  16.178  14.751  10.595
60439W        W32754  28.055  28.109  11.537
60440W        W32755   0.914  33.040  14.841
60441W        W32756   9.193  44.825   1.261
60442W        W32757  38.003  14.135  14.463
60443W        W32758  41.829  13.180  12.879
60444W        W32759  31.469  43.903  11.476
60445W        W32760  15.602   7.679  11.429
60446W        W32761  18.227   6.200   4.343
60447W        W32762  24.124  19.731   0.913
60448W        W32763  28.503   9.253   4.293
60449W        W32764   3.765   9.761   1.337
60450W        W32765  11.233  40.925   1.389
60451W        W32766  33.425  16.186   1.798
60452W        W32767  20.239  24.996   4.750
60453W        W32768   7.783  36.850  10.445
60454W        W32769  31.040  10.676  13.888
60455W        W32770  14.254  30.429  13.962
60456W        W32771   3.803  30.926  13.055
60457W        W32772  25.140  36.506   1.874
60458W        W32773   6.245  31.591   2.895
60459W        W32774  22.635   2.780  10.524
60460W        W32775  22.589   6.781   4.330
60461W        W32776  32.917  27.565  11.528
60462W        W32777  43.336  22.114   4.788
60463W        W32778  43.385  18.711  13.906
60464W        W32779   4.412  35.883  10.987
60465W        W32780   5.408  42.025  13.320
60466W        W32781  32.591  33.876   3.291
60467W        W32782  38.391  20.113   1.337
60468W        W32783  29.952  40.361   2.846
60469W        W32784  19.550  24.652   2.898
60470W        W32785  18.633  35.444  12.510
60471W        W32786  35.417  27.114  11.538
60472W        W32787  43.809  41.891   2.787
60473W        W32788  11.815  41.456  11.027
60474W        W32789  14.223  39.464  13.974
60475W        W32790  28.598   0.282   1.300
60476W        W32791  33.461  23.109  14.793
60477W        W32792  34.919  11.792   0.484
60478W        W32793  32.121  30.642   4.315
60479W        W32794  44.797  36.364   3.322
60480W        W32795  16.674  29.424   1.711
60481W        W32796  25.082  37.472  11.524
60482W        W32797  28.452   8.259  14.503
60483W        W32798  32.442   3.411   0.242
60484W        W32799  37.001  30.022   0.838
60485W        W32800  20.068  41.385  11.909
60486W        W32801  14.313  36.539   2.364
60487W        W32802   6.315  27.130  14.931
60488W        W32803  14.259  31.150  12.878
60489W        W32804  33.985  11.220  12.983
60490W        W32805  31.147  26.116   3.222
60491W        W32806  35.897  22.153   2.855
60492W        W32807  24.508  15.818   3.350
60493W        W32808   4.882  41.013  12.051
60494W        W32809  41.336  17.567  13.393
60495W        W32810   5.371  26.119   1.701
60496W        W32811   2.744  31.419  10.889
60497W        W32812   4.373  21.085   1.327
60498W        W32813  11.792  36.032   0.339
60499W        W32814   3.398  40.465  12.081
60500W        W32815  20.262  34.561  11.374
60501W        W32816  21.543  16.172   0.948
60502W        W32817   9.380   0.800   3.787
60503W        W32818  29.445  15.744   2.356
60504W        W32819  28.629   2.772  14.491
60505W        W32820   4.714  23.721   0.807
60506W        W32821  14.593   0.858  14.973
60507W        W32822  34.034  37.339   2.739
60508W        W32823  13.827   0.776  12.988
60509W        W32824  43.794  24.530  10.995
60510W        W32825  33.086   2.816  13.452
60511W        W32826   9.182  21.043   0.270
60512W        W32827  34.912  24.111  10.566
60513W        W32828  20.194  27.004  11.891
60514W        W32829  39.316   2.231   4.176
60515W        W32830  42.964  41.449   0.882
60516W        W32831  27.117  41.310  14.433
60517W        W32832   4.424  27.183  11.410
60518W        W32833  34.891  15.218   3.235
60519W        W32834  34.553  37.954  13.871
60520W        W32835  44.793  32.453  12.957
60521W        W32836  31.011  42.951  10.132
60522W        W32837  13.658  19.277   4.667
60523W        W32838   5.862   2.724  12.972
60524W        W32839  15.281  13.758  12.007
60525W        W32840  12.780  29.518  12.393
60526W        W32841  16.787  24.133  14.423
60527W        W32842  22.147  21.189  14.799
60528W        W32843  32.590   3.402  14.884
60529W        W32844  16.118  39.441   0.447
60530W        W32845   8.296   2.228   0.264
60531W        W32846  39.958  11.283  10.442
60532W        W32847  18.705  37.063  10.640
60533W        W32848   7.192  23.005  11.089
60534W        W32849  15.216   6.336  12.422
60535W        W32850  35.530  36.949  11.102
60536W        W32851  13.241   5.893   0.798
60537W        W32852  37.364   3.808   1.754
60538W        W32853  19.577  32.445  13.442
60539W        W32854  17.717  35.896   2.824
60540W        W32855   6.803  27.655   1.903
60541W        W32856   7.843   9.797  12.056
60542W        W32857  13.199  13.775  12.985
60543W        W32858  44.310  21.581  10.006
60544W        W32859   9.206  38.511  14.938
60545W        W32860  37.074   6.685  12.454
60546W        W32861  22.223  38.486  14.383
60547W        W32862  15.166  15.759   2.415
60548W        W32863   5.398  21.551  12.561
60549W        W32864   3.943  35.899  10.566
60550W        W32865   1.775  16.102  12.354
60551W        W32866   2.732  38.992   1.797
60552W        W32867  17.606  42.359  14.809
60553W        W32868  35.553   1.741  12.999
60554W        W32869  23.038   7.727   2.893
60555W        W32870  20.182   5.917   2.195
60556W        W32871  34.424  20.197   3.246
60557W        W32872  39.857   2.401  10.937
60558W        W32873   4.924  37.467   3.249
60559W        W32874  17.296  43.775   1.830
60560W        W32875   9.797  29.668  12.372
60561W        W32876  38.999  22.637   4.221
60562W        W32877   7.790   6.309  11.868
60563W        W32878   7.908  35.104  14.368
60564W        W32879   0.793  17.205  12.029
60565W        W32880  33.129  26.564  14.974
60566W        W32881  24.716  37.932   1.250
60567W        W32882  19.196   8.182  13.848
60568W        W32883  39.341  10.184  10.111
60569W        W32884  39.478  29.070  13.855
60570W        W32885  24.049  35.593   2.345
60571W        W32886  27.981  32.539  14.914
60572W        W32887   4.294  35.542   0.410
60573W        W32888   0.880  21.057  14.006
60574W        W32889   6.690   1.902   4.638
60575W        W32890   2.964  41.882  10.578
60576W        W32891  18.084  23.499   1.254
60577W        W32892   5.234   2.777  14.304
60578W        W32893  38.880  43.809  13.891
60579W        W32894   0.748   8.317   2.312
60580W        W32895   7.294  16.626   2.284
60581W        W32896  38.886  32.455  13.857
60582W        W32897  12.149  37.947  12.883
60583W        W32898  44.801   6.418   1.789
60584W        W32899  40.318  32.034   3.670
60585W        W32900  10.830  18.640   0.245
60586W        W32901  39.997  20.623   1.920
60587W        W32902   2.933  21.249  10.430
60588W        W32903  35.022  42.359  11.867
60589W        W32904   6.279  19.199  14.778
60590W        W32905  40.522  18.224   4.302
60591W        W32906   0.259  23.193   0.321
60592W        W32907  11.733  15.213   1.336
60593W        W32908  18.616  21.078   3.155
60594W        W32909   0.391  39.962  11.060
60595W        W32910  39.423   3.800   2.335
60596W        W32911  27.182  36.515  13.483
60597W        W32912  10.170   5.250   2.229
60598W        W32913  33.541  17.622   2.268
60599W        W32914   7.199  11.151  14.461
60600W        W32915  33.981  15.299   2.228
60601W        W32916  30.119  31.949   3.324
60602W        W32917   8.313  23.124   3.336
60603W        W32918  15.633  31.522  11.983
60604W        W32919  11.326  14.146   3.322
60605W        W32920   8.819   7.312   1.397
60606W        W32921  40.431  23.567   4.321
60607W        W32922  12.297  17.710  10.511
60608W        W32923  18.200  28.677   0.865
60609W        W32924  42.281  32.503  14.341
60610W        W32925  41.397  44.427  12.422
60611W        W32926  26.531  15.609  14.398
60612W        W32927  31.938  25.649   3.297
60613W        W32928   0.895  30.934  13.918
60614W        W32929  13.128  43.490   3.855
60615W        W32930   8.746   9.792   2.191
60616W        W32931   3.393  39.812  14.758
60617W        W32932   6.341   2.849   4.320
60618W        W32933  21.187  10.770  13.965
60619W        W32934  35.435   6.677  12.910
60620W        W32935  38.915  20.694  11.529
60621W        W32936  17.193  14.146   5.292
60622W        W32937  34.597   3.790   3.860
60623W        W32938  26.087  18.760  14.379
60624W        W32939  42.961  38.953   2.179
60625W        W32940  43.788   4.226  10.990
60626W        W32941   8.250  20.751   1.215
60627W        W32942   6.715  14.282  13.392
60628W        W32943  31.095  27.623   4.312
60629W        W32944  41.886  16.609  12.065
60630W        W32945  30.065  31.900  11.055
60631W        W32946   0.488  32.085  11.878
60632W        W32947  34.946  43.296   1.337
60633W        W32948  15.618  20.612  14.800
60634W        W32949  44.281   4.923   2.762
60635W        W32950  41.489  29.536  12.517
60636W        W32951  16.260   2.239   2.220
60637W        W32952  40.928  12.634  13.032
60638W        W32953  31.511  23.984  13.531
60639W        W32954  11.325   8.240   1.322
60640W        W32955  23.006   2.428   1.897
60641W        W32956  25.614   6.392   4.613
60642W        W32957   4.922  31.126  14.759
60643W        W32958  37.914  41.910   4.354
60644W        W32959  20.761  29.494  10.576
60645W        W32960   7.280  11.792   4.278
60646W        W32961  30.917   5.325  13.411
60647W        W32962  35.602  18.106  12.027
60648W        W32963  18.772  29.484  11.420
60649W        W32964   4.365  32.594  14.890
60650W        W32965  31.512  19.718   4.636
60651W        W32966   8.390  18.564  11.095
60652W        W32967  27.993  20.556  11.079
60653W        W32968   0.422  21.258   9.976
60654W        W32969  31.099  38.866   3.718
60655W        W32970  30.616  22.589  12.089
60656W        W32971  29.098  34.932   0.413
60657W        W32972   1.412  15.633  11.492
60658W        W32973  25.567  34.374  11.424
60659W        W32974  36.572  11.258   3.201
60660W        W32975  41.891  25.684  11.517
60661W        W32976  35.934  27.575  14.892
60662W        W32977  16.573   6.688  12.825
60663W        W32978  15.261  22.729  10.918
60664W        W32979  17.169  14.241   0.270
60665W        W32980  43.765  17.703  11.034
60666W        W32981  17.694   4.945   2.712
60667W        W32982   5.253  21.085   0.315
60668W        W32983   1.347   6.199   2.338
60669W        W32984  12.210  13.106  11.100
60670W        W32985  16.806  28.951   4.344
60671W        W32986   6.688  13.325  11.383
60672W        W32987   6.706  42.450  12.993
60673W        W32988  37.903   7.763   0.844
60674W        W32989   5.362  24.127   2.679
60675W        W32990   6.209  14.234  11.856
60676W        W32991   6.419   1.416  14.762
60677W        W32992  19.678  10.732  14.924
60678W        W32993  33.998   3.387   0.290
60679W        W32994  26.479  13.817   1.408
60680W        W32995  23.606   3.239   2.183
60681W        W32996  14.637  36.057   2.704
60682W        W32997  22.646  27.507  10.920
60683W        W32998  19.281   6.403  11.120
60684W        W32999  14.726  30.011  12.838
60685W        W33000  11.227  12.745  12.880
60686W        W33001  24.675  41.844  14.359
60687W        W33002  19.054  31.498   1.291
60688W        W33003   1.460  35.904   4.761
60689W        W33004   8.662  23.593   4.155
60690W        W33005  29.024  33.418  11.953
60691W        W33006   6.295  34.384   0.756
60692W        W33007  15.227   0.476  12.469
60693W        W33008  19.204  18.677   4.182
60694W        W33009  33.532  21.257  13.962
60695W        W33010   7.695  43.438   2.191
60696W        W33011  42.490  17.092   3.786
60697W        W33012  12.299  12.151   3.857
60698W        W33013   4.749  26.140   1.427
60699W        W33014  21.592  44.878   3.339
60700W        W33015  35.983  37.484   0.367
60701W        W33016  34.445  43.507   0.408
60702W        W33017  39.412  32.902   4.173
60703W        W33018  38.916  14.780  10.577
60704W        W33019  37.371   4.701  10.408
60705W        W33020  33.445  40.965  13.991
60706W        W33021  36.553  39.426   0.743
60707W        W33022  17.632  13.162  13.872
60708W        W33023   4.941   7.293  14.832
60709W        W33024  12.797  20.624   4.663
60710W        W33025  13.643  36.433  11.927
60711W        W33026  30.492  19.707  12.833
60712W        W33027  42.521   0.351   0.425
60713W        W33028  14.636  11.673   1.356
60714W        W33029  10.382  28.947  12.386
60715W        W33030  15.323  33.599   4.133
60716W        W33031   7.805   4.775   1.890
60717W        W33032  26.992  23.012   1.215
60718W        W33033   0.250  35.040   2.285
60719W        W33034  33.503  24.031  11.597
60720W        W33035  40.952  32.137  13.355
60721W        W33036  10.345  32.046  12.383
60722W        W33037  15.641  18.734  10.984
60723W        W33038  35.590  39.844  13.791
60724W        W33039  10.189  22.187   4.233
60725W        W33040  34.538  39.317  13.521
60726W        W33041   6.848  22.060  12.906
60727W        W33042  37.865  19.120   4.293
60728W        W33043   1.820   0.791   2.363
60729W        W33044  34.005  25.639   2.886
60730W        W33045  38.865  12.694  10.482
60731W        W33046  21.201  40.367   0.389
60732W        W33047   9.360   8.898  13.326
60733W        W33048  32.114  16.801  12.401
60734W        W33049  22.715  20.602  14.332
60735W        W33050   8.328   0.335   0.260
60736W        W33051  42.941  35.058   3.845
60737W        W33052  30.991   9.679   1.910
60738W        W33053  15.675  13.635  13.483
60739W        W33054  42.444   0.485  13.355
60740W        W33055   8.194  18.098  11.055
60741W        W33056  41.966  38.057  14.010
60742W        W33057  16.108  16.754  14.853
60743W        W33058  40.538   3.718   2.315
60744W        W33059  11.139  31.116   2.190
60745W        W33060  25.697  44.806  11.421
60746W        W33061   7.203  42.477  14.505
60747W        W33062  40.985   3.783  10.612
60748W        W33063   5.917  44.778   0.735
60749W        W33064  40.912   6.267   4.781
60750W        W33065  17.668  18.567   2.880
60751W        W33066   4.286   0.754   3.382
60752W        W33067  11.821  10.682   4.667
60753W        W33068  15.817  43.783   3.293
60754W        W33069  31.452   4.259   4.253
60755W        W33070  23.137  38.386  14.791
60756W        W33071  16.630   9.665  14.883
60757W        W33072  28.112  19.562   1.719
60758W        W33073   0.964  13.722  11.999
60759W        W33074   0.838   3.777  13.401
60760W        W33075   8.326  42.830  10.563
60761W        W33076  18.720  25.967   2.903
60762W        W33077  11.287  18.087   2.749
60763W        W33078  13.624   3.710   2.783
60764W        W33079  27.980  12.315  11.391
60765W        W33080  18.203  15.193   1.415
60766W        W33081  34.088  21.143   3.327
60767W        W33082   7.900   9.347   1.409
60768W        W33083  40.374  21.241  11.863
60769W        W33084  37.074  29.471  10.488
60770W        W33085   6.921   6.861   4.188
60771W        W33086  15.736   4.243  10.069
60772W        W33087  34.425  16.114   4.735
60773W        W33088  24.081  40.335   4.665
60774W        W33089  13.341  10.350  12.349
60775W        W33090   1.738  10.867  11.065
60776W        W33091  44.872   2.802   3.330
60777W        W33092   8.662  33.542  12.049
60778W        W33093   9.391  14.169  14.896
60779W        W33094  34.476   0.761  12.391
60780W        W33095   5.385  30.054  14.386
60781W        W33096  15.662  10.190   0.832
60782W        W33097  44.873  13.639  10.937
60783W        W33098   6.412   1.478   3.651
60784W        W33099  28.446  33.461   2.843
60785W        W33100  42.887   3.455   1.252
60786W        W33101  44.322  16.166   4.673
60787W        W33102  34.446   5.898  11.955
60788W        W33103  10.244  43.819  13.444
60789W        W33104   9.170   0.775   0.445
60790W        W33105   7.355  31.060  12.906
60791W        W33106  27.529  14.272   2.848
60792W        W33107  37.924   5.274   4.176
60793W        W33108  41.013   0.984  14.990
60794W        W33109  40.844  40.912   4.806
60795W        W33110  23.531  20.650  13.379
60796W        W33111   9.342  36.090  12.580
60797W        W33112   6.206  22.156  12.476
60798W        W33113  39.860  30.013   2.809
60799W        W33114   0.275  34.443  12.062
60800W        W33115  28.453  17.566   2.284
60801W        W33116  20.717   9.346  14.891
60802W        W33117  36.911  33.105   4.180
60803W        W33118   8.384  36.871  14.415
60804W        W33119  23.241   3.950  14.873
60805W        W33120  15.279  32.904   1.736
60806W        W33121   6.746  19.223   0.775
60807W        W33122  32.121   0.421  11.567
60808W        W33123  34.077  41.324  14.765
60809W        W33124  40.829  17.214   0.462
60810W        W33125  13.803  35.911  11.880
60811W        W33126  39.432   2.278   4.839
60812W        W33127  35.952   3.421   3.224
60813W        W33128  32.507  12.233  13.515
60814W        W33129   3.332  38.460   3.280
60815W        W33130  16.687   8.332  11.127
60816W        W33131   3.858  28.959  11.521
60817W        W33132  17.296  19.277  12.465
60818W        W33133  12.178  32.435  14.024
60819W        W33134  12.257  19.697  10.635
60820W        W33135   2.256  44.316   3.146
60821W        W33136  33.968  29.162   0.728
60822W        W33137   9.180  41.004  11.497
60823W        W33138  22.141   1.434  13.513
60824W        W33139  12.282   0.766  11.082
60825W        W33140  36.361  14.807  11.444
60826W        W33141  13.198  24.584  14.804
60827W        W33142  11.772  43.434   4.709
60828W        W33143  14.249  43.435  11.496
60829W        W33144  18.184  30.141  14.371
60830W        W33145  36.411  42.892   5.292
60831W        W33146  42.978  12.662  10.040
60832W        W33147  37.395   0.788  13.036
60833W        W33148  30.615  16.257  11.860
60834W        W33149  15.105  16.185   0.358
60835W        W33150  28.581  24.044  13.387
60836W        W33151  42.419  37.902   4.295
60837W        W33152  44.900  20.567   3.744
60838W        W33153  13.794  37.835   4.741
60839W        W33154  24.661   3.271   1.315
60840W        W33155   9.221  33.441  12.502
60841W        W33156  11.795  21.125   0.442
60842W        W33157  21.044  31.613   0.307
60843W        W33158  22.636   2.860   1.919
60844W        W33159  13.816  19.069   1.793
60845W        W33160  44.344  29.016  11.594
60846W        W33161  28.990  24.702   4.189
60847W        W33162  29.641   8.834   5.314
60848W        W33163  38.823   4.208   1.915
60849W        W33164  13.776   5.716  10.470
60850W        W33165  18.220  22.025   3.381
60851W        W33166  29.442  31.931   5.094
60852W        W33167  24.701  20.156  11.016
60853W        W33168  19.121  18.232  13.045
60854W        W33169   9.384   4.432  14.422
60855W        W33170  37.461  13.308   4.720
60856W        W33171  32.132  40.388  10.946
60857W        W33172  20.031  13.735   2.391
60858W        W33173   3.735  36.551  10.544
60859W        W33174  35.566  44.339  13.823
60860W        W33175   5.220  38.473  11.479
60861W        W33176  17.786  23.609   4.197
60862W        W33177   3.216  44.905  13.044
60863W        W33178  35.071   5.893  11.911
60864W        W33179  28.613   6.182   2.214
60865W        W33180  39.881  25.515  10.628
60866W        W33181  25.100   4.394   5.207
60867W        W33182  23.047   8.298   1.427
60868W        W33183  11.184  23.677  11.408
60869W        W33184  40.494  28.092  13.324
60870W        W33185  19.058   9.367   0.750
60871W        W33186   4.298  30.654   0.452
60872W        W33187  30.514  18.152  12.840
60873W        W33188  36.445  14.205   4.326
60874W        W33189  42.361  12.216   2.370
60875W        W33190  13.191  27.154   0.726
60876W        W33191   7.822  11.245   4.738
60877W        W33192   2.777  16.092   0.750
60878W        W33193  37.952   4.901  10.502
60879W        W33194  33.484   6.389   4.246
60880W        W33195  23.493   7.672   2.710
60881W        W33196  33.396  26.117  11.032
60882W        W33197  29.498  43.891  11.092
60883W        W33198  39.509  13.825  13.356
60884W        W33199   9.681   5.768  13.822
60885W        W33200  41.991  27.108  14.458
60886W        W33201  34.905  27.005   2.404
60887W        W33202  11.129   7.857  10.412
60888W        W33203   0.892   4.274  11.986
60889W        W33204  25.684  27.506   1.400
60890W        W33205  25.657  43.324  10.589
60891W        W33206  22.124  28.527  14.814
60892W        W33207   9.354  35.561  13.441
60893W        W33208  13.661  23.517   4.648
60894W        W33209  33.881  13.327  12.983
60895W        W33210   2.892   0.808   2.383
60896W        W33211  29.448  32.466  12.424
60897W        W33212   9.648  36.406  13.923
60898W        W33213  25.555   3.274  11.979
60899W        W33214  27.988  42.977   4.254
60900W        W33215  31.151  20.234   3.799
60901W        W33216  17.218  35.021   5.307
60902W        W33217  37.396  25.008  13.428
60903W        W33218   8.214  32.423   2.718
60904W        W33219  15.648  21.050  10.135
60905W        W33220   6.796  44.835   2.354
60906W        W33221   2.934   9.810  11.884
60907W        W33222  44.435  41.317   2.686
60908W        W33223  21.133  23.150   1.834
60909W        W33224  20.257  14.100   3.751
60910W        W33225  18.294  17.710  14.378
60911W        W33226  14.180  26.469  14.028
60912W        W33227  20.659  28.111  12.524
60913W        W33228  16.187  10.815   1.724
60914W        W33229  10.366  44.968  12.014
60915W        W33230  36.883   9.851  12.905
60916W        W33231  21.257  28.051  13.937
60917W        W33232  35.925  41.869  14.322
60918W        W33233   4.862  32.442  13.391
60919W        W33234   3.898   5.213  10.613
60920W        W33235  28.475  29.583  13.010
60921W        W33236  29.434  24.087  11.471
60922W        W33237  32.528   2.275  14.394
60923W        W33238  21.690  30.569   0.752
60924W        W33239  29.584  38.820  13.312
60925W        W33240   5.863  23.703  12.466
60926W        W33241  16.628  28.523  12.872
60927W        W33242  10.379  10.288   4.815
60928W        W33243  17.123  37.389   9.998
60929W        W33244  10.816  33.565  13.369
60930W        W33245  17.771  19.160   0.245
60931W        W33246  24.077  34.377  10.907
60932W        W33247  36.063  18.217   3.866
60933W        W33248  12.291  36.404   0.306
60934W        W33249   0.931   9.265  11.917
60935W        W33250  21.738  21.614   9.437
60936W        W33251  13.174  28.657  10.404
60937W        W33252  24.526  44.336   0.903
60938W        W33253  30.035  32.391   4.128
60939W        W33254   8.400  27.119  11.410
60940W        W33255  20.628  43.936   0.844
60941W        W33256   7.295  16.709  14.481
60942W        W33257   8.371  33.926   3.147
60943W        W33258  21.209  31.472  13.325
60944W        W33259  36.058  43.007  12.847
60945W        W33260  15.668  14.276  10.011
60946W        W33261  32.895  25.622   3.201
60947W        W33262  17.652  22.605  14.958
60948W        W33263   4.241  11.135   3.830
60949W        W33264   3.439  43.389   0.949
60950W        W33265   6.733  20.215   1.860
60951W        W33266  28.594  33.414  13.886
60952W        W33267  29.117  17.691  14.321
60953W        W33268  14.114   1.472  12.974
60954W        W33269  21.679  14.318  11.992
60955W        W33270  20.640  18.077  11.887
60956W        W33271  14.831  29.443   3.675
60957W        W33272  38.019  35.409   3.828
60958W        W33273   7.786   0.833   1.362
60959W        W33274  13.293  12.819   1.317
60960W        W33275   1.887   2.819  10.546
60961W        W33276  26.642  44.878   4.293
60962W        W33277  43.804  40.454   4.310
60963W        W33278  42.390  36.573   2.766
60964W        W33279  42.921  40.003  10.987
60965W        W33280   1.896  23.588   3.659
60966W        W33281  22.538  34.512  14.430
60967W        W33282  29.656  24.044  12.011
60968W        W33283  42.829   3.738  14.515
60969W        W33284  44.905  16.128  13.480
60970W        W33285   1.418  23.098  14.417
60971W        W33286  20.177  43.347   4.180
60972W        W33287  26.207  16.118   4.163
60973W        W33288  14.210  43.302   0.848
60974W        W33289  33.908   3.795  10.933
60975W        W33290  10.797   6.871  14.341
60976W        W33291  25.593  30.080  12.534
60977W        W33292   1.263  35.023  11.114
60978W        W33293   6.291  13.153  14.351
60979W        W33294   8.283  10.845  13.924
60980W        W33295  24.663   0.957  13.885
60981W        W33296  41.907   3.303   1.886
60982W        W33297  32.582  27.540   4.754
60983W        W33298   1.976  11.358  13.949
60984W        W33299  42.778  28.643  10.459
60985W        W33300  25.545   4.835  10.470
60986W        W33301  10.260  21.081  14.445
60987W        W33302  13.720   3.298   1.289
60988W        W33303  43.935   6.862  10.449
60989W        W33304  35.095  30.524  14.851
60990W        W33305   1.862  23.671  12.503
60991W        W33306  16.252  14.723   2.395
60992W        W33307  23.013  29.120  11.004
60993W        W33308  21.173  10.747  11.574
60994W        W33309  41.856   2.923   1.268
60995W        W33310  13.301  21.157   2.264
60996W        W33311  35.448  38.429  12.939
60997W        W33312  38.455  23.190   2.830
60998W        W33313  29.649   4.746   1.881
60999W        W33314  44.828  12.782  11.557
61000W        W33315   0.749  39.947  11.887
61001W        W33316  43.990  38.446  12.495
61002W        W33317  24.193  29.527  13.058
61003W        W33318  27.008   7.236  13.438
61004W        W33319   8.323  39.527   0.898
61005W        W33320  26.512  34.919  13.031
61006W        W33321  20.081  44.875  14.824
61007W        W33322  39.016   1.778   0.829
61008W        W33323  10.171  42.907   4.674
61009W        W33324  28.575  22.204   2.806
61010W        W33325  39.367  43.980   0.787
61011W        W33326   2.807  25.591  12.958
61012W        W33327   5.934  12.213   0.270
61013W        W33328  28.100  11.134   1.270
61014W        W33329  44.771  20.537   4.268
61015W        W33330   5.244   1.410  14.916
61016W        W33331  21.039  41.886  14.293
61017W        W33332   8.197   6.728  10.636
61018W        W33333  17.130  18.755   0.843
61019W        W33334  30.507  37.849  10.422
61020W        W33335   8.382  44.919   2.771
61021W        W33336  25.201  23.032   2.768
61022W        W33337   0.985  18.554  11.017
61023W        W33338  32.932  35.865  13.933
61024W        W33339   7.872   4.759  11.031
61025W        W33340  23.043  40.876   1.229
61026W        W33341  14.180  14.703  11.435
61027W        W33342   4.267   8.204   3.298
61028W        W33343   4.213  17.249   4.764
61029W        W33344  28.458  11.673   1.281
61030W        W33345  39.345  43.882  14.386
61031W        W33346  16.259  10.690   3.367
61032W        W33347  13.178   8.347   4.292
61033W        W33348  29.039  10.324   1.761
61034W        W33349   9.254  14.231   1.446
61035W        W33350  41.535  33.957   4.314
61036W        W33351  34.971   3.866  13.912
61037W        W33352   5.869  14.757   4.637
61038W        W33353  23.158  22.636  10.985
61039W        W33354  23.160  22.171  10.145
61040W        W33355  16.288  19.722  13.875
61041W        W33356  15.151  40.879  11.899
61042W        W33357   1.317  26.983  12.019
61043W        W33358  33.469   4.390  10.627
61044W        W33359   6.861  21.101  11.609
61045W        W33360   2.849   0.399  12.475
61046W        W33361  11.780  28.039   1.422
61047W        W33362  43.274  29.953   0.880
61048W        W33363  18.090  35.034   2.324
61049W        W33364  35.434  19.581  12.878
61050W        W33365  40.313  30.429  14.444
61051W        W33366   4.762   8.260   2.832
61052W        W33367   5.221  40.517   4.327
61053W        W33368  36.917  27.470  13.001
61054W        W33369  39.041  37.545   3.811
61055W        W33370   1.243  29.125  13.002
61056W        W33371  12.305  31.115   0.842
61057W        W33372  27.064  41.363   3.780
61058W        W33373  22.132  39.992   1.244
61059W        W33374  16.146  20.161   1.819
61060W        W33375   2.236   7.768  14.781
61061W        W33376  41.837  22.577   1.734
61062W        W33377  41.928  36.394   3.191
61063W        W33378  26.136   3.747  13.330
61064W        W33379  29.633  44.371  11.115
61065W        W33380  31.908  43.487  14.372
61066W        W33381  11.661  41.476  13.434
61067W        W33382  24.980   6.744  14.820
61068W        W33383  28.116   0.262   0.850
61069W        W33384   4.390   3.858  13.889
61070W        W33385   6.192  14.762  12.342
61071W        W33386  10.797   4.231  11.957
61072W        W33387   7.823  15.278   4.732
61073W        W33388  44.782  29.080   0.926
61074W        W33389  40.341  32.043  11.959
61075W        W33390  28.656  42.874   0.907
61076W        W33391  14.229  36.898   1.327
61077W        W33392  23.490  43.770   4.312
61078W        W33393  11.206  32.584  11.602
61079W        W33394  35.567  25.091  10.578
61080W        W33395  34.425  11.320  12.057
61081W        W33396  23.588  31.424   4.239
61082W        W33397  22.597  12.634  12.391
61083W        W33398  16.288  40.897   3.231
61084W        W33399   9.240  24.614  10.627
61085W        W33400  29.154   2.924   1.357
61086W        W33401  20.712  25.030  12.944
61087W        W33402   6.211  40.337  12.882
61088W        W33403  15.776  29.146   2.691
61089W        W33404   4.417  42.021  14.954
61090W        W33405  34.021  20.579   2.854
61091W        W33406   0.307  35.077   1.353
61092W        W33407  15.641   2.748  13.981
61093W        W33408  43.425  44.898   4.276
61094W        W33409  11.265  34.087  12.017
61095W        W33410  42.868  33.069   3.382
61096W        W33411   4.297  17.733  13.845
61097W        W33412   4.733  20.764  11.421
61098W        W33413  33.497   1.304   4.651
61099W        W33414  17.078  34.892  12.540
61100W        W33415  17.130   9.750  11.498
61101W        W33416  11.354   7.712  12.365
61102W        W33417   5.233  14.264  10.479
61103W        W33418   9.751   6.711   4.641
61104W        W33419  31.915  15.651  14.031
61105W        W33420  26.078  18.708  13.895
61106W        W33421  30.913   3.788  10.628
61107W        W33422  15.201   3.862   4.638
61108W        W33423  43.849  35.088  10.407
61109W        W33424  42.456  34.557  12.880
61110W        W33425   2.724  32.619   3.785
61111W        W33426  29.608  35.871   4.116
61112W        W33427  41.375   4.899   3.301
61113W        W33428  16.131  13.830   1.924
61114W        W33429   8.889   6.722  10.636
61115W        W33430  38.036   9.373   4.778
61116W        W33431  35.006  19.271  13.003
61117W        W33432  27.977  40.983  10.933
61118W        W33433   5.880  41.813  10.631
61119W        W33434  11.698   9.809  14.844
61120W        W33435  33.531  19.272   2.799
61121W        W33436  18.588  32.992   0.408
61122W        W33437  20.760  42.314   2.184
61123W        W33438  41.512   0.814   0.415
61124W        W33439  36.055  35.016   4.672
61125W        W33440   7.711  15.800  10.943
61126W        W33441  30.088  40.972  12.005
61127W        W33442   5.825  26.070  14.902
61128W        W33443   4.391  29.617  10.907
61129W        W33444  39.472  29.092   0.812
61130W        W33445  35.449  20.733   1.751
61131W        W33446  25.974  16.807   2.881
61132W        W33447  35.048  37.037   4.640
61133W        W33448  11.328  38.489   2.864
61134W        W33449  37.949  22.722  11.080
61135W        W33450  14.117  10.686  14.505
61136W        W33451  35.050   5.731  11.509
61137W        W33452  30.969  38.040  11.415
61138W        W33453  27.131  41.862   2.700
61139W        W33454  16.222  24.600  13.408
61140W        W33455  22.240  34.876  13.845
61141W        W33456   6.731  10.821  11.521
61142W        W33457  22.522   5.261  11.504
61143W        W33458  30.132  18.689  12.544
61144W        W33459  12.304  15.224   0.937
61145W        W33460   2.741  41.505  10.548
61146W        W33461  16.573  30.461  13.546
61147W        W33462   2.261  25.153  12.874
61148W        W33463  31.131  19.173  10.488
61149W        W33464  14.594  24.574  13.913
61150W        W33465  26.697  29.140   3.700
61151W        W33466   3.247  38.001  14.315
61152W        W33467  36.519  38.843   2.310
61153W        W33468   5.209  43.474  14.966
61154W        W33469   2.438  19.617   1.312
61155W        W33470   7.322  27.585   3.246
61156W        W33471  41.531  27.600   2.755
61157W        W33472  37.515  33.010   1.701
61158W        W33473  13.695   1.405  10.479
61159W        W33474  18.230  29.923  10.980
61160W        W33475  43.806  12.310  12.945
61161W        W33476  23.022   0.789  11.933
61162W        W33477  12.262  16.219  11.032
61163W        W33478  28.456  20.565  12.355
61164W        W33479   3.931  34.928  12.987
61165W        W33480  14.762  38.890   2.891
61166W        W33481   7.842   4.307   3.297
61167W        W33482  24.523  40.369   4.288
61168W        W33483  40.862   0.254  13.852
61169W        W33484  13.140  44.437   3.339
61170W        W33485  32.413   3.914   2.348
61171W        W33486  34.410  39.024  14.398
61172W        W33487  18.168  41.948   0.937
61173W        W33488  21.217  17.254  12.911
61174W        W33489  40.994  24.585  13.317
61175W        W33490  37.351  41.792   5.234
61176W        W33491  16.776   5.197   4.120
61177W        W33492  41.347   1.802   4.604
61178W        W33493  44.378  21.118  12.932
61179W        W33494  38.420  37.864  12.843
61180W        W33495  33.879  40.869  12.034
61181W        W33496  24.570   5.846  10.937
61182W        W33497  26.030  11.778  14.026
61183W        W33498  10.238  28.573   4.714
61184W        W33499  14.802  15.661   1.450
61185W        W33500  14.832  32.632  12.011
61186W        W33501   7.843   7.677   0.438
61187W        W33502  11.841  24.708   0.850
61188W        W33503  37.953  13.273   1.906
61189W        W33504   9.872  17.681   3.217
61190W        W33505  33.960   0.776   0.903
61191W        W33506  33.381  15.183  14.405
61192W        W33507  16.129   6.879   2.678
61193W        W33508   3.867  14.333  10.635
61194W        W33509   0.919  20.096  10.894
61195W        W33510  25.482  16.786   3.862
61196W        W33511  40.403   1.778   5.301
61197W        W33512  12.799   0.478   4.225
61198W        W33513  32.511  21.612  14.499
61199W        W33514  20.660  34.410  10.462
61200W        W33515  19.244  40.984  14.969
61201W        W33516   8.216   3.936   0.453
61202W        W33517  11.771   4.721   0.734
61203W        W33518   3.447  22.240  14.293
61204W        W33519   2.871  40.356  10.902
61205W        W33520  44.387   4.312  12.966
61206W        W33521   6.818   0.410  13.832
61207W        W33522  35.000   2.802  10.622
61208W        W33523  27.575  19.075   4.149
61209W        W33524  26.611   9.158   2.256
61210W        W33525   5.723   0.410   4.775
61211W        W33526  25.652  27.466  14.362
61212W        W33527  23.101  43.484  14.944
61213W        W33528   2.920  15.685   4.629
61214W        W33529  33.553   8.870   2.688
61215W        W33530   8.302   7.384   4.200
61216W        W33531  32.460  21.738   0.417
61217W        W33532  23.591  15.242   4.699
61218W        W33533  42.502  32.609  11.454
61219W        W33534  42.876  29.020  10.534
61220W        W33535  28.152   8.890  12.529
61221W        W33536  13.656  16.621   1.763
61222W        W33537  28.149   8.899   4.279
61223W        W33538  35.432  27.473  13.331
61224W        W33539  40.952  35.046  12.994
61225W        W33540  22.072  29.037  14.021
61226W        W33541   5.281  44.782   4.631
61227W        W33542  25.678  32.946  13.831
61228W        W33543  34.908  28.038  13.343
61229W        W33544  13.651  42.300   3.809
61230W        W33545  38.436  20.133   1.775
61231W        W33546  15.580   6.235   2.733
61232W        W33547   0.462  27.470  10.895
61233W        W33548  19.768  36.564  14.278
61234W        W33549   0.463  41.512  14.946
61235W        W33550   5.260  28.949   4.335
61236W        W33551  24.101  18.103  11.449
61237W        W33552   6.868  10.699   2.667
61238W        W33553  33.945  23.016   2.237
61239W        W33554  31.930  14.615   5.123
61240W        W33555   5.384  32.597  14.403
61241W        W33556  39.406  37.412  12.464
61242W        W33557   5.349  22.137  11.889
61243W        W33558  41.433  29.662  10.540
61244W        W33559   3.805   5.779   4.241
61245W        W33560  10.325  23.552   1.848
61246W        W33561   4.782  19.571   0.287
61247W        W33562  14.157  35.360  13.308
61248W        W33563  13.175  20.707  11.095
61249W        W33564  37.370  41.317   0.322
61250W        W33565  36.957  41.381   0.772
61251W        W33566  29.494  18.222   3.851
61252W        W33567  16.734  31.902   4.644
61253W        W33568  19.629  41.536   0.925
61254W        W33569  34.969  30.577  13.801
61255W        W33570  10.381  38.938  12.954
61256W        W33571  33.593  44.339  14.392
61257W        W33572   7.218  28.012   2.900
61258W        W33573  23.654  12.304  12.953
61259W        W33574  16.799  22.707  12.544
61260W        W33575  29.497  20.631  13.854
61261W        W33576  44.265  19.260   0.262
61262W        W33577   7.401  17.265  14.466
61263W        W33578  42.375   4.832   4.212
61264W        W33579   0.748  37.843  11.858
61265W        W33580  22.113  44.860  10.454
61266W        W33581   4.811   4.739  11.418
61267W        W33582   1.834  27.650  14.837
61268W        W33583  23.654  36.951   3.800
61269W        W33584   4.876  19.619   3.324
61270W        W33585  13.180   6.765   1.815
61271W        W33586  26.171  35.050  13.409
61272W        W33587  33.934   3.405   0.905
61273W        W33588   3.258  12.129  13.925
61274W        W33589  41.938  34.019   2.262
61275W        W33590  13.194   3.458  12.553
61276W        W33591  44.802  34.078   3.208
61277W        W33592  35.392  32.126  14.787
61278W        W33593  36.467   4.377  11.904
61279W        W33594  16.731  32.973  11.113
61280W        W33595  29.493  35.058  13.474
61281W        W33596  42.363  36.366   1.389
61282W        W33597  15.151  16.773   1.316
61283W        W33598  17.697  44.353  12.517
61284W        W33599   7.331  36.030  11.578
61285W        W33600  29.026  26.027  14.355
61286W        W33601  14.718  41.533   1.773
61287W        W33602   6.816  28.452   1.395
61288W        W33603  13.665   6.305   3.252
61289W        W33604   8.721  20.059  12.384
61290W        W33605   4.706  43.871  13.380
61291W        W33606  26.065  21.056  14.288
61292W        W33607  16.245  18.178  13.986
61293W        W33608  22.140   4.803   4.240
61294W        W33609  15.621  35.010   3.752
61295W        W33610  16.764  41.948  12.003
61296W        W33611  26.985  32.013  12.971
61297W        W33612  24.721  10.701  11.128
61298W        W33613   1.968   2.749  14.787
61299W        W33614  26.053   6.414  10.115
61300W        W33615   4.759  40.866  11.006
61301W        W33616  17.251  24.975  12.858
61302W        W33617  43.353  29.965  11.429
61303W        W33618  29.621   9.208  14.816
61304W        W33619  29.059   8.697   3.290
61305W        W33620  39.021  16.600   1.401
61306W        W33621  17.079  25.980   3.353
61307W        W33622  18.739   4.720   3.691
61308W        W33623  26.001  29.613  11.383
61309W        W33624  25.579  10.864  14.769
61310W        W33625  19.594   8.807  12.014
61311W        W33626  39.530  28.612  12.365
61312W        W33627  11.698  42.472  12.348
61313W        W33628  36.401  21.648   0.824
61314W        W33629  18.706   0.264  14.376
61315W        W33630  27.060  17.201   4.256
61316W        W33631  29.154   2.420   2.353
61317W        W33632  41.834   8.742  12.370
61318W        W33633  39.991  28.612  14.977
61319W        W33634  16.790  26.026   4.261
61320W        W33635  31.118   9.192   4.821
61321W        W33636  16.146  27.964  12.529
61322W        W33637  24.058  26.469   3.777
61323W        W33638  31.905  41.467   0.350
61324W        W33639  35.446  30.117   2.746
61325W        W33640  42.016  36.934   3.222
61326W        W33641  25.594  19.162  14.410
61327W        W33642   3.221   8.204  10.412
61328W        W33643   7.762  37.030   3.354
61329W        W33644   2.768  44.811   3.169
61330W        W33645  21.031  34.372  11.868
61331W        W33646  16.759  16.800  11.426
61332W        W33647  31.588  38.836  10.430
61333W        W33648  35.593   4.812  14.452
61334W        W33649  27.951  38.075   3.743
61335W        W33650  23.099  37.422  13.390
61336W        W33651  21.124  16.273   1.731
61337W        W33652  36.592  23.986   1.404
61338W        W33653  15.596  28.508   3.170
61339W        W33654  15.170  32.636  13.343
61340W        W33655   7.280  38.382   1.828
61341W        W33656   9.697  44.274   1.904
61342W        W33657  11.807  11.744  14.800
61343W        W33658   8.766  22.117  14.925
61344W        W33659   9.241   2.882   2.226
61345W        W33660  44.931   8.696   2.849
61346W        W33661   7.315  38.999   2.289
61347W        W33662  34.119  44.786  12.355
61348W        W33663   9.258   8.383   0.889
61349W        W33664  41.878  18.567  12.362
61350W        W33665  31.940  13.789  10.645
61351W        W33666  42.496   0.864  12.487
61352W        W33667  41.808  20.749   0.322
61353W        W33668  16.617  43.939   0.274
61354W        W33669  21.753  42.024   0.757
61355W        W33670  27.188  35.042  12.520
61356W        W33671  35.098   6.204   1.214
61357W        W33672   4.381  41.535   2.688
61358W        W33673  15.682  25.158   4.722
61359W        W33674  41.527  44.958  10.643
61360W        W33675  32.890  24.619  14.822
61361W        W33676  33.405  16.169   1.211
61362W        W33677  43.856  15.664  10.139
61363W        W33678  10.698  35.973  13.309
61364W        W33679   3.370  40.870   1.769
61365W        W33680  37.389   1.424   2.211
61366W        W33681  37.512  33.904  11.962
61367W        W33682  18.579   9.206  11.954
61368W        W33683  40.053  10.342   3.312
61369W        W33684  30.437  15.137   0.941
61370W        W33685  20.150  42.797   0.883
61371W        W33686  18.118  20.564   3.705
61372W        W33687  30.412  41.293   2.700
61373W        W33688  35.010  29.591  10.949
61374W        W33689  16.307   5.855  10.927
61375W        W33690   2.440  35.083   9.965
61376W        W33691  42.902   3.903  10.990
61377W        W33692  34.048  15.637  11.068
61378W        W33693   2.432  24.577   0.471
61379W        W33694  13.303  17.144   4.699
61380W        W33695  12.831  44.279  11.912
61381W        W33696  34.467   0.819   2.752
61382W        W33697   1.926  25.025   4.160
61383W        W33698   6.391  18.171   2.214
61384W        W33699  19.205   5.254  13.867
61385W        W33700  16.744  38.001   1.927
61386W        W33701  32.978  22.535  13.407
61387W        W33702  26.167  11.139   1.349
61388W        W33703  32.622  15.799  12.868
61389W        W33704  30.080  37.355  12.430
61390W        W33705  36.475   3.739  10.544
61391W        W33706  11.784  41.471  13.981
61392W        W33707  22.242  27.502   3.176
61393W        W33708  36.868  22.240  10.956
61394W        W33709   9.394  34.375  10.592
61395W        W33710  22.104  19.102  11.002
61396W        W33711  30.445   5.729  13.040
61397W        W33712  10.684  22.697  11.502
61398W        W33713  37.515  31.908   3.869
61399W        W33714  24.631   2.285   1.225
61400W        W33715  37.345   8.397  11.055
61401W        W33716  25.569   9.252  12.991
61402W        W33717  12.773  10.258  12.567
61403W        W33718  11.130  14.692   2.745
61404W        W33719  13.750  32.103  13.007
61405W        W33720  19.698  30.437   1.291
61406W        W33721  29.008   5.358  12.977
61407W        W33722  36.421  13.136   0.740
61408W        W33723   5.380  10.772  14.399
61409W        W33724   9.151  10.310  10.901
61410W        W33725  40.018  43.372   3.652
61411W        W33726  26.494  10.301  12.460
61412W        W33727  41.341  32.416   2.231
61413W        W33728  22.156  20.057  14.860
61414W        W33729  36.842  37.862  13.428
61415W        W33730  43.774  12.812   4.766
61416W        W33731   4.374  42.919   1.419
61417W        W33732  14.196  18.566   0.963
61418W        W33733  42.366  44.312   2.314
61419W        W33734  42.317  36.031   4.275
61420W        W33735  26.109  19.215  10.584
61421W        W33736  20.196  11.633   0.842
61422W        W33737   7.891  43.857  13.386
61423W        W33738  33.459  19.091   0.887
61424W        W33739  41.887  40.422  13.919
61425W        W33740  32.017  17.733   1.414
61426W        W33741   6.858  23.023  11.008
61427W        W33742   1.347  17.139   1.307
61428W        W33743  12.124  37.490   2.745
61429W        W33744  22.541  35.958   2.326
61430W        W33745  18.266  38.867   2.752
61431W        W33746  19.646  32.972  12.523
61432W        W33747  38.441  27.034   1.345
61433W        W33748  31.623  41.956  11.885
61434W        W33749  26.541   3.231  13.821
61435W        W33750  23.197  13.154   3.735
61436W        W33751  26.564  10.654  14.003
61437W        W33752  20.768   7.272  12.512
61438W        W33753  32.560  10.350  11.029
61439W        W33754  16.752  33.052  13.484
61440W        W33755  27.548  23.668   3.279
61441W        W33756   4.839  20.051   1.697
61442W        W33757   5.424  25.615   4.678
61443W        W33758  12.727  26.513   2.314
61444W        W33759  19.059   5.350  11.512
61445W        W33760   0.418  40.895   2.361
61446W        W33761  33.113  18.638  11.025
61447W        W33762  11.181  16.171  12.052
61448W        W33763   4.207  25.974  12.980
61449W        W33764  22.537  10.725  11.482
61450W        W33765  20.238  33.092  14.763
61451W        W33766  36.995  22.050   2.373
61452W        W33767  14.197  40.027  12.504
61453W        W33768  16.205  31.597  12.985
61454W        W33769   2.446  17.244  10.911
61455W        W33770  28.971  40.889  10.541
61456W        W33771   0.335  12.198  13.046
61457W        W33772  13.180   9.757   2.325
61458W        W33773  33.525  39.819   3.866
61459W        W33774  25.066  17.608   0.798
61460W        W33775   8.385  20.153  11.901
61461W        W33776  34.933   4.784  11.583
61462W        W33777  16.598  23.093  11.920
61463W        W33778  26.992  29.962   2.884
61464W        W33779   8.160   3.877  11.961
61465W        W33780   5.725   4.424   3.715
61466W        W33781  28.675  39.020  14.469
61467W        W33782  21.027  44.986  14.990
61468W        W33783  44.789  30.032  10.987
61469W        W33784  23.031   0.304   3.825
61470W        W33785  44.756  10.657  10.113
61471W        W33786  11.258  34.495  11.420
61472W        W33787  33.466  18.239   2.373
61473W        W33788   8.664  24.084  12.385
61474W        W33789  12.775  38.980  12.560
61475W        W33790  31.473  15.675   2.753
61476W        W33791   3.928  15.778  13.546
61477W        W33792  11.180  33.981   1.445
61478W        W33793  27.499  16.083  12.455
61479W        W33794   2.891  28.567  14.790
61480W        W33795  23.192  39.900  12.069
61481W        W33796  24.558  17.139  11.055
61482W        W33797  38.475   1.871  14.783
61483W        W33798  27.133  13.806   2.238
61484W        W33799   0.985  29.988   3.816
61485W        W33800  23.555  16.661   0.920
61486W        W33801  25.660   3.885  13.018
61487W        W33802  18.116  24.577   4.342
61488W        W33803  31.959  17.250   5.308
61489W        W33804  31.602  39.841   3.751
61490W        W33805  19.644  32.581  13.025
61491W        W33806  36.592  25.064   9.991
61492W        W33807  25.995  14.136  14.785
61493W        W33808  15.598  21.543  11.890
61494W        W33809  43.461  21.148   3.357
61495W        W33810  23.991  10.231   0.442
61496W        W33811  42.332   1.466  13.806
61497W        W33812  36.990  28.954   2.241
61498W        W33813  20.746  31.589  14.768
61499W        W33814   0.860  26.567  14.826
61500W        W33815  26.582  24.124   1.392
61501W        W33816   1.458  27.080   3.726
61502W        W33817   2.358  39.925   3.692
61503W        W33818  24.195  27.587  14.828
61504W        W33819  21.090   0.780   5.214
61505W        W33820  16.131   2.804  10.607
61506W        W33821   8.308  37.875  14.931
61507W        W33822  31.119   1.320   2.402
61508W        W33823  23.228  30.546  14.777
61509W        W33824   8.841  35.593   4.297
61510W        W33825  23.033  24.096   2.782
61511W        W33826  20.080  15.683   3.265
61512W        W33827  24.187  37.417  12.980
61513W        W33828  25.498   8.671   1.361
61514W        W33829   7.218   6.310  12.828
61515W        W33830  10.167  35.539   4.791
61516W        W33831  17.559  26.101  13.520
61517W        W33832  38.534  31.592  11.438
61518W        W33833  44.901  42.340   4.632
61519W        W33834  27.095  41.484  11.427
61520W        W33835  26.077  28.608   0.861
61521W        W33836  40.881  22.699   0.380
61522W        W33837  27.961  44.779  11.524
61523W        W33838  34.090  27.489  13.383
61524W        W33839  20.767  28.007  12.847
61525W        W33840   6.321  26.015   0.286
61526W        W33841  40.314  39.333  14.854
61527W        W33842  33.935  42.884   3.373
61528W        W33843  36.571   6.788  12.430
61529W        W33844  34.940  35.878  11.875
61530W        W33845  23.236  14.626  13.062
61531W        W33846  23.108  31.130   4.275
61532W        W33847   3.858   2.397   1.237
61533W        W33848   2.931  20.230   0.961
61534W        W33849  42.294  33.485  14.840
61535W        W33850  10.752  13.231  14.852
61536W        W33851  20.679   9.821  12.484
61537W        W33852  24.206  31.454   0.817
61538W        W33853  43.498  42.319   0.762
61539W        W33854  29.102  17.093   2.389
61540W        W33855   2.470  42.332   3.188
61541W        W33856   0.862  22.628  10.602
61542W        W33857  16.630  38.412  13.925
61543W        W33858   8.394  19.269   1.360
61544W        W33859  28.592  17.589   3.340
61545W        W33860  15.330  19.172   1.305
61546W        W33861  26.069  35.872   2.760
61547W        W33862   1.357  33.414  13.799
61548W        W33863  24.226  37.902   4.174
61549W        W33864  37.997  27.115   4.682
61550W        W33865  19.075   5.885   2.751
61551W        W33866  36.350  32.530  13.520
61552W        W33867  36.935  30.557   0.805
61553W        W33868   4.223  38.933   4.791
61554W        W33869  24.074  26.485   4.203
61555W        W33870  44.983  43.474  12.392
61556W        W33871   6.329  35.902   5.136
61557W        W33872  44.436  41.917   1.782
61558W        W33873  43.932   7.206  14.982
61559W        W33874  23.516   3.238  11.107
61560W        W33875  24.038  14.290  13.020
61561W        W33876   2.469  15.779  14.972
61562W        W33877  20.593  15.201   0.414
61563W        W33878  30.912  36.853  11.446
61564W        W33879  43.965  41.414   3.699
61565W        W33880  26.086   3.714  14.498
61566W        W33881  28.118   5.325   2.720
61567W        W33882  29.118  44.940   1.380
61568W        W33883  10.374  10.247   4.339
61569W        W33884  35.046  26.666  14.430
61570W        W33885  31.497   6.349   4.725
61571W        W33886  38.373  41.957   0.422
61572W        W33887  13.240  15.777   4.742
61573W        W33888  19.219  38.941   1.321
61574W        W33889   9.363   6.851  12.998
61575W        W33890   0.986  13.268   4.670
61576W        W33891  40.801  13.690   0.444
61577W        W33892  11.176  44.903   3.871
61578W        W33893  25.128  20.647  14.789
61579W        W33894  15.643  27.477  12.966
61580W        W33895  15.743  13.694  11.580
61581W        W33896  42.381  21.059   4.330
61582W        W33897   2.328  23.061  12.028
61583W        W33898   4.439   7.845   4.305
61584W        W33899   4.761  30.581  12.063
61585W        W33900  11.193  29.583  12.397
61586W        W33901  27.147  30.576   0.848
61587W        W33902  30.973  31.018  14.856
61588W        W33903   8.180  34.121   1.848
61589W        W33904  19.238  44.933  13.407
61590W        W33905  32.998  27.103   4.745
61591W        W33906  39.514  32.498   3.838
61592W        W33907   9.851  19.755   3.224
61593W        W33908  26.459  12.813  13.546
61594W        W33909   1.419  32.088   3.348
61595W        W33910  39.494  29.472   1.228
61596W        W33911  19.098  37.335   2.772
61597W        W33912  26.030  37.064   3.719
61598W        W33913  22.094  30.982  11.969
61599W        W33914   2.424  29.109  13.440
61600W        W33915   3.847  31.515   2.241
61601W        W33916  15.623  22.102   0.826
61602W        W33917  33.970  34.572   3.761
61603W        W33918   8.687  19.074  13.481
61604W        W33919  42.966   7.813   3.695
61605W        W33920  38.834  37.005  12.532
61606W        W33921   1.272   0.361  14.949
61607W        W33922  17.137   5.927  12.991
61608W        W33923   9.191  39.516  11.464
61609W        W33924   0.447  15.109  11.871
61610W        W33925  13.282  13.301  13.531
61611W        W33926  18.720  44.986   3.723
61612W        W33927  16.787   6.244   1.933
61613W        W33928  12.790   1.331   0.265
61614W        W33929  23.151  26.003   2.325
61615W        W33930  40.897  41.904  12.948
61616W        W33931  20.156  41.986  14.354
61617W        W33932   0.766   0.384  11.883
61618W        W33933  24.127  34.462  14.016
61619W        W33934  11.357  43.887   0.344
61620W        W33935  32.503  11.208   1.711
61621W        W33936  15.733  10.370  12.965
61622W        W33937  12.630   1.827   0.823
61623W        W33938  38.461  21.690   0.959
61624W        W33939   2.750  25.102   0.262
61625W        W33940  32.549  15.181   1.721
61626W        W33941  10.789  35.380  14.814
61627W        W33942   4.937  41.834  14.373
61628W        W33943   7.676   5.885   1.735
61629W        W33944  37.946  35.420   3.155
61630W        W33945  17.570  25.179  13.321
61631W        W33946   6.744   2.791   3.795
61632W        W33947  14.292  26.103   3.792
61633W        W33948  44.417  11.278   1.824
61634W        W33949  35.972  30.561   1.921
61635W        W33950  33.994   6.752   4.131
61636W        W33951  21.599   7.203   4.146
61637W        W33952  21.521   6.776   1.343
61638W        W33953  39.440  40.399   1.332
61639W        W33954  13.199  14.312   1.853
61640W        W33955  37.436  11.151   1.226
61641W        W33956  21.183  13.683  14.303
61642W        W33957  11.622  18.209  12.381
61643W        W33958  29.596  41.954  12.077
61644W        W33959  13.840  43.508   0.370
61645W        W33960   5.252  18.113  13.850
61646W        W33961  18.246  33.429  14.954
61647W        W33962   0.770  38.009  14.379
61648W        W33963  17.712  22.727   2.415
61649W        W33964  33.462  12.255   3.784
61650W        W33965  20.127  32.892   4.622
61651W        W33966  11.152  41.948   4.837
61652W        W33967  16.287  14.180  14.438
61653W        W33968  17.303  13.721  12.017
61654W        W33969  34.445  18.712   0.327
61655W        W33970  38.840   0.365  11.414
61656W        W33971  20.193  32.530   4.726
61657W        W33972  38.978   8.698  11.112
61658W        W33973  18.682   8.337   4.672
61659W        W33974  17.599  44.451   1.310
61660W        W33975  30.024  16.238  11.007
61661W        W33976  11.724  27.556  13.438
61662W        W33977   6.399  43.828   0.480
61663W        W33978  12.286  14.815  11.053
61664W        W33979   3.925  17.711   2.190
61665W        W33980  11.740  12.208  14.437
61666W        W33981   0.276  21.661  12.850
61667W        W33982  40.538  40.471  13.984
61668W        W33983  20.570  27.530  13.007
61669W        W33984  31.071   9.670   3.197
61670W        W33985   5.915  15.274  11.560
61671W        W33986  37.047  42.025  10.526
61672W        W33987  27.045  28.162  10.418
61673W        W33988  30.999  14.117   2.670
61674W        W33989  14.639  31.471   0.246
61675W        W33990  24.222  39.981   2.745
61676W        W33991  23.010  34.050  11.482
61677W        W33992   9.690  14.297  13.900
61678W        W33993   6.321   3.262  13.818
61679W        W33994  22.165  37.365  11.465
61680W        W33995  41.524  10.246   0.466
61681W        W33996  18.572   4.264   2.205
61682W        W33997   1.801  12.317  11.477
61683W        W33998   1.820  35.402   3.279
61684W        W33999  29.641  29.097  13.466
61685W        W34000  15.276  40.944   3.338
61686W        W34001  25.063   6.723  14.025
61687W        W34002  22.223  10.795   2.855
61688W        W34003  25.576  21.104   0.730
61689W        W34004  33.924   6.198  13.809
61690W        W34005  44.273  28.097   1.356
61691W        W34006  23.157   0.256  10.556
61692W        W34007   2.967  33.078   3.241
61693W        W34008  28.647   1.364  12.904
61694W        W34009  15.215   5.436   1.837
61695W        W34010  13.340  18.743   5.106
61696W        W34011  38.842   2.919   3.662
61697W        W34012   8.673  20.139   1.335
61698W        W34013  13.622  13.722   0.932
61699W        W34014  14.232  26.029  14.287
61700W        W34015  10.871  35.360   1.916
61701W        W34016  32.437  23.577  14.865
61702W        W34017  36.457  44.466   1.271
61703W        W34018  11.728   6.774  10.906
61704W        W34019  15.121  39.383   0.314
61705W        W34020  18.749  31.918  13.024
61706W        W34021  17.074  21.684   3.753
61707W        W34022  39.428   9.727   1.873
61708W        W34023  22.650  35.871   2.701
61709W        W34024  14.639  41.964  12.550
61710W        W34025  43.505  32.519  13.999
61711W        W34026  41.000  42.923  13.321
61712W        W34027   1.817  36.571  10.120
61713W        W34028  39.896   9.338   3.797
61714W        W34029  30.414   0.862  11.378
61715W        W34030  30.025  21.035  10.488
61716W        W34031  27.047  26.607   4.634
61717W        W34032   0.933  29.969  11.400
61718W        W34033  34.523  20.141   1.878
61719W        W34034   9.749  22.713   4.114
61720W        W34035  31.484   5.922   2.694
61721W        W34036  44.365  30.134  12.082
61722W        W34037   2.771  26.632  12.507
61723W        W34038   1.780   8.317  12.863
61724W        W34039  24.708   6.891  14.491
61725W        W34040  23.643  13.612   0.825
61726W        W34041  15.126  31.051  14.468
61727W        W34042  14.748  24.128   1.210
61728W        W34043  40.523  11.194  11.996
61729W        W34044  32.136  33.612   5.157
61730W        W34045  26.618  44.820  12.948
61731W        W34046  31.938   8.771   0.878
61732W        W34047  22.582  18.647  10.972
61733W        W34048  22.521  23.723  10.452
61734W        W34049  25.546  37.364   1.300
61735W        W34050  33.073  29.445  12.069
61736W        W34051   3.757   6.885  14.301
61737W        W34052  41.533  26.594  10.605
61738W        W34053  13.737  35.979   4.231
61739W        W34054  14.152  41.030  11.045
61740W        W34055  14.230  10.718   2.841
61741W        W34056  38.882  29.962  13.471
61742W        W34057  37.868   3.871   0.852
61743W        W34058  27.167  22.129  13.899
61744W        W34059  39.029  10.232   2.771
61745W        W34060   4.411   2.917   0.296
61746W        W34061  16.802   5.746  11.475
61747W        W34062   7.865  42.400  12.495
61748W        W34063  40.537   1.454   2.727
61749W        W34064  15.185  18.728   3.207
61750W        W34065  12.687  43.472   1.780
61751W        W34066  41.009   5.415  10.913
61752W        W34067  27.602  36.934  11.902
61753W        W34068  28.083  20.221   2.675
61754W        W34069   3.381  41.022   0.426
61755W        W34070   8.320  31.555  10.978
61756W        W34071  32.895  29.489   0.314
61757W        W34072   0.326  29.971  13.473
61758W        W34073   2.343  25.585   1.266
61759W        W34074  17.778  13.600   3.176
61760W        W34075  21.520   8.340  10.971
61761W        W34076  36.884   6.923  12.036
61762W        W34077   0.797   7.705   2.767
61763W        W34078  12.357  12.126  14.475
61764W        W34079  23.179  28.042   4.759
61765W        W34080  26.088  20.635   2.323
61766W        W34081  14.734  29.562  13.410
61767W        W34082  25.163  36.967  11.930
61768W        W34083  33.594   7.833  12.550
61769W        W34084  19.557  18.744   4.133
61770W        W34085  42.853  32.547  11.025
61771W        W34086  10.169   9.260  12.021
61772W        W34087  20.066  34.031   2.293
61773W        W34088  44.894   4.865  11.013
61774W        W34089  34.888  31.036   4.350
61775W        W34090  29.082   6.788  11.102
61776W        W34091  14.716   4.749   2.232
61777W        W34092  32.133  37.047  10.416
61778W        W34093  43.396  26.017   3.302
61779W        W34094  16.286  33.388   2.238
61780W        W34095   2.794  34.438  13.993
61781W        W34096  12.145  18.686  14.433
61782W        W34097   5.270  10.715   1.739
61783W        W34098  15.321  21.191  11.124
61784W        W34099  26.642  34.006  14.455
61785W        W34100   4.232  40.859   0.900
61786W        W34101  25.505  28.676  13.454
61787W        W34102   8.206  24.510   1.732
61788W        W34103  31.905  34.022  10.996
61789W        W34104  29.599  18.157  12.969
61790W        W34105  34.513  20.749  10.618
61791W        W34106  27.150  42.452  14.386
61792W        W34107  36.426  39.349   2.185
61793W        W34108  34.586  33.041   0.746
61794W        W34109  27.998  40.918  11.982
61795W        W34110  23.698   8.236   3.214
61796W        W34111   6.713  32.968   3.193
61797W        W34112   1.261  35.481  11.444
61798W        W34113  24.625  15.607  13.906
61799W        W34114   8.267  31.997  13.858
61800W        W34115   6.829  24.054   1.380
61801W        W34116  22.534  40.915  12.377
61802W        W34117  20.111  32.505   0.456
61803W        W34118  20.597   6.396   2.233
61804W        W34119  39.874  16.619  14.833
61805W        W34120  23.670  33.432   4.255
61806W        W34121  30.569  17.734  10.416
61807W        W34122  37.352  21.705   5.232
61808W        W34123  42.834  18.213   2.400
61809W        W34124  36.493  27.540  12.084
61810W        W34125  25.963   0.925  14.980
61811W        W34126  28.031  24.118   2.308
61812W        W34127  18.763  23.164   3.196
61813W        W34128   3.359  19.128   2.795
61814W        W34129  42.799  41.444  10.939
61815W        W34130  34.900  34.928  10.940
61816W        W34131  39.324  35.104   0.470
61817W        W34132   9.177   1.736   2.196
61818W        W34133  16.635   5.739   3.720
61819W        W34134  34.892  12.755  14.011
61820W        W34135  44.335  14.221  11.883
61821W        W34136  37.948  25.499   3.290
61822W        W34137  26.057  31.425   5.093
61823W        W34138  12.239  27.988  12.842
61824W        W34139  40.350   0.434  12.999
61825W        W34140  41.892  35.530  14.341
61826W        W34141  35.908  28.448  12.367
61827W        W34142  41.533  15.677   4.300
61828W        W34143   0.803  22.649  13.840
61829W        W34144  23.138   6.831   2.793
61830W        W34145  38.866  27.546   2.359
61831W        W34146  17.691  35.980  13.365
61832W        W34147  19.093  30.464  11.881
61833W        W34148  33.957  36.381  14.371
61834W        W34149  16.783  34.472   2.301
61835W        W34150  30.914  14.246   3.852
61836W        W34151  42.014   7.742  14.873
61837W        W34152  35.574   6.722  10.609
61838W        W34153  10.157  43.480  14.948
61839W        W34154  20.641  34.525  14.008
61840W        W34155  29.126  28.144   1.270
61841W        W34156  30.977  42.798   4.657
61842W        W34157  43.009  42.375   3.298
61843W        W34158  24.042  29.624   2.404
61844W        W34159  34.106  38.468   2.808
61845W        W34160  31.149   4.945   3.341
61846W        W34161   6.356  40.383  10.420
61847W        W34162   9.728  40.334   1.925
61848W        W34163   1.342  22.678  11.892
61849W        W34164  25.156  24.129   0.352
61850W        W34165  42.482  20.203  14.356
61851W        W34166  32.528  19.729  12.867
61852W        W34167  25.665  20.160  14.774
61853W        W34168  16.752  27.569  13.397
61854W        W34169  13.785   1.754  14.813
61855W        W34170   9.216  22.230   3.307
61856W        W34171   8.191  18.079  11.515
61857W        W34172  28.655  20.561  14.014
61858W        W34173  34.542  21.191  14.479
61859W        W34174  13.348  11.865  10.920
61860W        W34175  37.001   5.397   3.231
61861W        W34176  15.254  38.535   1.819
61862W        W34177  27.160   0.879   0.779
61863W        W34178  34.585  44.814   2.665
61864W        W34179  31.967  31.540  12.544
61865W        W34180   6.226  18.126   2.769
61866W        W34181  12.656  23.619  13.519
61867W        W34182   3.938   9.823   4.142
61868W        W34183  26.549   4.255   1.741
61869W        W34184  38.526  39.934  10.486
61870W        W34185  32.511   1.950  11.499
61871W        W34186  15.130  44.306   4.680
61872W        W34187  17.590  36.032   4.241
61873W        W34188  28.103  32.922   0.338
61874W        W34189  27.198   7.379   4.125
61875W        W34190  27.035  17.750  14.032
61876W        W34191  31.046  13.278   3.733
61877W        W34192  14.106  37.844  11.606
61878W        W34193  42.953  19.591   2.737
61879W        W34194  24.122  14.143   2.297
61880W        W34195   9.296  38.427   1.802
61881W        W34196  17.606  20.580   2.222
61882W        W34197  33.435  11.652   0.910
61883W        W34198  15.230   8.733   4.251
61884W        W34199  42.301   8.204  10.894
61885W        W34200   2.804  40.012  11.444
61886W        W34201  42.310  25.591   1.259
61887W        W34202  34.052  17.569  12.501
61888W        W34203  27.160  18.110   1.306
61889W        W34204  43.359   5.694  13.003
61890W        W34205  12.159  33.895   4.134
61891W        W34206  17.597  26.621   3.787
61892W        W34207  18.636   8.827  11.026
61893W        W34208  28.469  22.690  12.437
61894W        W34209  35.987  32.572   2.877
61895W        W34210  43.395  15.193   2.779
61896W        W34211  29.435  13.672   1.757
61897W        W34212   5.911  28.121   1.373
61898W        W34213  42.441  19.115  12.493
61899W        W34214  16.599  34.093   3.294
61900W        W34215  31.152   9.774   3.789
61901W        W34216  22.088   0.975  13.902
61902W        W34217  29.628  39.889   0.395
61903W        W34218  37.050  32.091   2.256
61904W        W34219  35.543  44.291  13.045
61905W        W34220  25.570  13.619   4.245
61906W        W34221  43.323  35.433  13.476
61907W        W34222   7.801  10.244   3.864
61908W        W34223  40.006  30.064   1.307
61909W        W34224  25.627  44.288  11.534
61910W        W34225  30.464  17.261  14.791
61911W        W34226  44.947  25.004   3.347
61912W        W34227  25.664   1.931   3.791
61913W        W34228  40.354   0.837   5.260
61914W        W34229  32.948  23.011   2.838
61915W        W34230   4.381  16.091  11.556
61916W        W34231   8.350  15.610   1.736
61917W        W34232  14.225  25.130   4.709
61918W        W34233  42.857  33.020   3.807
61919W        W34234  16.112  22.059  12.929
61920W        W34235  14.611   7.751  12.454
61921W        W34236  30.062   2.256   1.353
61922W        W34237   6.352  14.763  10.427
61923W        W34238  15.618   6.305  13.975
61924W        W34239  27.147   7.378   0.934
61925W        W34240   5.898   0.837  11.968
61926W        W34241  18.781   8.386  12.524
61927W        W34242   6.859  43.910   1.231
61928W        W34243  22.512  17.270  10.496
61929W        W34244  16.721  34.404  14.452
61930W        W34245  39.370  13.804  13.029
61931W        W34246   5.715  32.461   1.271
61932W        W34247  31.943  28.626   4.118
61933W        W34248  32.580  35.521  11.965
61934W        W34249  41.461  31.063  12.482
61935W        W34250   4.729  32.535  14.030
61936W        W34251  15.108  36.915  14.819
61937W        W34252  32.479  14.279   0.898
61938W        W34253  30.927  34.442   1.742
61939W        W34254   2.913  10.221  10.115
61940W        W34255  31.525  36.950  12.997
61941W        W34256  31.466  43.388  13.035
61942W        W34257  21.093  36.480   4.159
61943W        W34258   7.416  35.021   2.815
61944W        W34259  26.991  29.063  13.042
61945W        W34260  28.647  23.223  10.981
61946W        W34261  38.409   9.709   4.270
61947W        W34262   8.242  43.790  14.931
61948W        W34263  23.557  22.668   3.274
61949W        W34264  24.564  43.907   1.412
61950W        W34265   5.210   3.718   2.410
61951W        W34266  32.512  38.360   2.666
61952W        W34267  19.751  39.549  13.822
61953W        W34268  40.442  35.965  11.612
61954W        W34269  25.097   0.790  10.904
61955W        W34270  42.286  22.051  12.088
61956W        W34271  39.870  21.231   3.858
61957W        W34272  24.985  20.028   3.386
61958W        W34273  33.930  34.061   4.833
61959W        W34274  25.980   5.394   2.370
61960W        W34275   3.811   5.381  11.554
61961W        W34276  34.001  43.283   3.807
61962W        W34277  15.172  33.525  14.914
61963W        W34278  22.069  28.656  11.461
61964W        W34279  42.435  22.660   2.372
61965W        W34280  35.596  39.870  14.463
61966W        W34281  18.625  41.427   9.933
61967W        W34282   4.347   4.729  13.874
61968W        W34283   1.246  36.095  14.792
61969W        W34284  36.384  43.363  12.573
61970W        W34285  37.416  34.469   2.862
61971W        W34286  24.702  22.500  11.857
61972W        W34287  27.973  33.411   9.997
61973W        W34288  23.031   5.231  12.474
61974W        W34289  43.821  44.808  13.429
61975W        W34290  18.788   0.322   4.684
61976W        W34291  12.230   6.745  14.873
61977W        W34292   5.932  39.955  13.907
61978W        W34293   4.284  38.948  13.875
61979W        W34294  23.675  23.707  14.874
61980W        W34295  34.911  28.981   1.261
61981W        W34296  30.930   1.953   4.153
61982W        W34297  39.556  12.719   3.832
61983W        W34298  10.218  15.303  12.483
61984W        W34299   2.391  32.619  10.576
61985W        W34300  31.573  17.215  11.085
61986W        W34301   4.293  20.723  13.322
61987W        W34302  22.510  27.521   1.217
61988W        W34303  42.822  31.415   3.637
61989W        W34304  40.368  12.685   4.346
61990W        W34305  10.143  27.564   1.315
61991W        W34306  29.957  17.100   3.763
61992W        W34307  11.189  41.043  11.539
61993W        W34308  11.346  15.577   3.169
61994W        W34309  14.716  39.962  11.420
61995W        W34310  24.696   6.381  13.956
61996W        W34311  35.929  20.061   2.196
61997W        W34312  25.025  33.056  14.831
61998W        W34313  12.624  44.960   2.769
61999W        W34314   1.739  26.114   4.124
62000W        W34315  25.578  20.565   1.794
62001W        W34316  33.442  29.547   4.152
62002W        W34317  17.602  27.152  14.775
62003W        W34318   6.845   4.205  13.548
62004W        W34319  38.843  10.676  14.956
62005W        W34320  37.879  41.968  10.986
62006W        W34321  43.478  28.529   1.276
62007W        W34322  25.476  13.153  13.324
62008W        W34323   9.717  14.126  14.495
62009W        W34324   9.238  19.241   3.660
62010W        W34325  15.770  14.687   3.689
62011W        W34326   2.939  40.326   1.264
62012W        W34327   3.881  42.433  10.485
62013W        W34328  39.887  25.517   1.881
62014W        W34329  30.516  38.076   3.272
62015W        W34330  42.429  21.511   0.418
62016W        W34331   6.338  39.861  11.074
62017W        W34332  10.681  34.458  11.573
62018W        W34333  27.005   9.800  13.948
62019W        W34334  41.375  40.946  11.952
62020W        W34335  23.657  30.567  10.469
62021W        W34336  32.484  38.934  11.565
62022W        W34337   5.247  10.187   4.339
62023W        W34338  17.202  27.523   9.541
62024W        W34339  27.627  22.182   1.695
62025W        W34340  20.763  33.886   3.827
62026W        W34341  27.160  34.372   5.169
62027W        W34342   5.888  11.818   4.756
62028W        W34343  26.990  18.177   1.808
62029W        W34344   8.193   4.898  14.282
62030W        W34345  25.528  29.918  13.372
62031W        W34346  37.484  41.027   1.235
62032W        W34347  26.473  40.919  11.472
62033W        W34348  16.130  33.500   1.721
62034W        W34349  40.430  44.922  14.930
62035W        W34350  19.667  42.822  13.049
62036W        W34351   1.462  33.600   5.222
62037W        W34352  44.439  39.384  11.976
62038W        W34353  43.921  21.639  14.449
62039W        W34354  32.600  27.197  11.523
62040W        W34355  44.402   9.885   9.546
62041W        W34356  10.384  39.015  11.044
62042W        W34357  11.286  27.000  13.402
62043W        W34358  35.979  38.841   3.173
62044W        W34359  28.967  21.556  12.922
62045W        W34360  32.918   0.275  10.562
62046W        W34361  18.203  36.952  12.497
62047W        W34362  41.800   8.392   0.943
62048W        W34363  34.571  14.214  11.929
62049W        W34364   7.895  29.617   2.271
62050W        W34365  10.349  31.413   1.321
62051W        W34366  34.884  20.197  14.476
62052W        W34367  27.976  21.692  11.869
62053W        W34368  14.182   5.931  12.475
62054W        W34369  23.171   8.231  10.935
62055W        W34370  13.722  26.010   3.810
62056W        W34371  33.442  37.488  11.562
62057W        W34372   1.942  31.561   4.297
62058W        W34373  14.596   5.832   1.762
62059W        W34374  16.125  27.090   2.774
62060W        W34375  17.681  10.863  12.347
62061W        W34376  13.153  11.231   4.260
62062W        W34377  39.380   4.305  10.514
62063W        W34378  31.030  25.001   0.760
62064W        W34379  10.837  38.075   3.824
62065W        W34380  16.715  42.834  14.389
62066W        W34381  31.076   3.805  12.506
62067W        W34382   4.424  40.450   4.117
62068W        W34383  44.370  40.390  13.539
62069W        W34384  12.643  16.726   4.636
62070W        W34385   6.764  28.122   3.358
62071W        W34386  31.535  37.435   3.705
62072W        W34387  25.566  12.822   3.330
62073W        W34388  32.967  17.572   2.185
62074W        W34389  12.624  14.773  11.024
62075W        W34390  19.742  16.234   3.671
62076W        W34391   0.361  24.062   4.658
62077W        W34392  21.737  44.472  12.000
62078W        W34393  16.288   1.443  14.791
62079W        W34394   5.205  26.591  12.960
62080W        W34395  38.962   3.818   2.732
62081W        W34396  21.689  40.371   2.807
62082W        W34397  10.203  12.150  13.877
62083W        W34398  35.560  32.598  11.375
62084W        W34399  18.629   6.242   2.359
62085W        W34400  34.898  19.081   2.810
62086W        W34401   5.824   1.904  14.762
62087W        W34402   2.427  12.171  12.352
62088W        W34403  15.300  11.211   1.386
62089W        W34404  37.008  13.712   4.657
62090W        W34405  37.521  25.611  14.793
62091W        W34406   8.396   2.783   1.279
62092W        W34407   5.881   3.440   1.226
62093W        W34408  34.503  10.314   4.120
62094W        W34409   1.737   6.383   4.146
62095W        W34410  39.871  24.230  13.932
62096W        W34411  19.212   3.438   4.637
62097W        W34412  25.642  33.942   3.868
62098W        W34413  28.553  25.532   2.264
62099W        W34414  41.834   8.168  12.502
62100W        W34415  19.562  32.095  14.358
62101W        W34416  40.334  19.138  13.461
62102W        W34417  22.148  39.461  12.395
62103W        W34418  27.670  15.284  13.402
62104W        W34419  26.570  31.118   4.117
62105W        W34420  30.593  11.281  11.492
62106W        W34421  24.656  26.586  12.975
62107W        W34422  16.736   8.684  13.040
62108W        W34423  40.965  43.950   0.455
62109W        W34424  32.936  36.012   3.229
62110W        W34425  28.623  12.351  11.439
62111W        W34426  14.156  29.158   1.837
62112W        W34427  44.373   0.374   0.257
62113W        W34428  30.014  40.980  12.842
62114W        W34429  17.195  27.102  11.100
62115W        W34430  11.343   7.677   2.359
62116W        W34431  37.509  29.547   2.758
62117W        W34432  21.134  23.555  11.046
62118W        W34433  39.940  17.226  13.056
62119W        W34434  24.641  44.897  12.052
62120W        W34435  34.897  23.170   1.761
62121W        W34436  15.131  43.839  12.413
62122W        W34437   1.348   3.380   0.837
62123W        W34438  41.499  29.445  13.461
62124W        W34439  35.095   2.436   1.793
62125W        W34440   9.825  39.554  12.956
62126W        W34441  10.854   8.734  11.505
62127W        W34442  12.761  15.763   0.901
62128W        W34443   2.909  19.118   2.322
62129W        W34444   8.319  12.241  14.391
62130W        W34445  14.211   9.296  11.088
62131W        W34446   3.225  32.567   4.830
62132W        W34447   3.387  19.050   0.386
62133W        W34448   1.831   2.406   4.708
62134W        W34449  40.330  27.159   4.671
62135W        W34450   6.315   6.890  12.368
62136W        W34451  10.205  22.230   1.722
62137W        W34452  17.241  23.585  10.583
62138W        W34453  37.570   7.855   5.125
62139W        W34454  30.002   8.676   4.125
62140W        W34455  39.919   3.785   3.263
62141W        W34456   1.369  43.280   1.424
62142W        W34457  10.176  25.579  12.862
62143W        W34458  28.508  24.151  12.874
62144W        W34459  22.065  28.103   1.278
62145W        W34460  44.761  15.594  13.913
62146W        W34461  42.470   4.819  10.483
62147W        W34462  38.487  27.102   1.928
62148W        W34463  35.545  38.874  11.039
62149W        W34464  12.807  40.401   3.784
62150W        W34465   3.766  28.173   0.462
62151W        W34466  23.629  11.861   4.264
62152W        W34467  26.951  31.007  14.790
62153W        W34468   1.242  26.019  14.896
62154W        W34469   0.833   0.474  13.046
62155W        W34470  43.477  27.077  10.441
62156W        W34471   8.385  16.586   1.256
62157W        W34472  25.195   1.861  12.069
62158W        W34473   6.322   3.816   1.852
62159W        W34474  11.345  23.153   2.179
62160W        W34475  44.765  29.094  11.021
62161W        W34476  24.586  29.947   4.117
62162W        W34477  33.890   0.972   1.857
62163W        W34478  12.610   6.818   3.315
62164W        W34479   7.358  22.133  13.971
62165W        W34480   5.329  13.345  11.937
62166W        W34481  25.193  14.681   3.735
62167W        W34482  31.555  26.071   4.628
62168W        W34483  12.296  41.522  14.440
62169W        W34484  13.678   4.876  14.424
62170W        W34485  43.987   7.885  12.954
62171W        W34486   2.837  23.206  14.482
62172W        W34487  19.259  31.445   4.733
62173W        W34488  43.361  14.103   2.268
62174W        W34489  28.096  12.621   5.251
62175W        W34490  14.339  34.878  12.515
62176W        W34491  37.581  38.855   5.110
62177W        W34492  15.787   9.302  11.114
62178W        W34493  15.097  23.231   3.358
62179W        W34494   2.965   9.888   1.756
62180W        W34495  43.925  25.170   1.213
62181W        W34496  43.854  36.918   4.728
62182W        W34497   8.821   9.355  14.776
62183W        W34498  17.158  41.318  13.934
62184W        W34499  20.623   0.378  13.334
62185W        W34500   3.780   1.320   2.278
62186W        W34501  39.061  40.970   2.888
62187W        W34502  27.067   3.437   1.727
62188W        W34503   4.763  33.898   4.333
62189W        W34504   7.377  30.099   1.239
62190W        W34505   1.790   6.224   1.434
62191W        W34506  28.533  27.160   2.851
62192W        W34507  41.508  23.000   3.856
62193W        W34508  42.305  16.277  13.046
62194W        W34509  18.723  23.613   9.937
62195W        W34510  10.321  10.816  13.055
62196W        W34511  19.108   0.932  12.092
62197W        W34512  41.009  43.925  12.550
62198W        W34513  22.011  17.628   4.621
62199W        W34514  35.478   8.251   3.797
62200W        W34515   9.843  32.565   0.391
62201W        W34516   6.383  12.720   1.838
62202W        W34517  35.580   6.257  13.850
62203W        W34518   0.493  31.970  13.313
62204W        W34519   9.861  39.903   0.396
62205W        W34520   3.315   3.868   3.233
62206W        W34521  18.586  38.417  14.399
62207W        W34522  13.805  42.802  13.365
62208W        W34523  18.278  33.992  11.107
62209W        W34524  29.015  40.900  14.861
62210W        W34525  10.202  16.642   2.280
62211W        W34526  43.975  19.115   4.713
62212W        W34527  25.992  37.513  13.889
62213W        W34528  23.054  10.195  11.492
62214W        W34529  12.726   0.812   1.770
62215W        W34530  37.034  22.538   3.354
62216W        W34531  14.193   7.703  13.348
62217W        W34532  31.898  33.488   2.256
62218W        W34533  11.318   9.821   0.273
62219W        W34534  23.080  33.069  11.112
62220W        W34535  10.716  31.062  10.604
62221W        W34536  25.493  39.316   2.216
62222W        W34537  40.512  21.697  14.805
62223W        W34538  40.489  17.704  14.485
62224W        W34539  43.427  32.131   1.706
62225W        W34540  31.559  27.015  13.352
62226W        W34541  36.894  38.935   3.287
62227W        W34542   7.682  32.497  14.021
62228W        W34543  14.124  20.088  11.104
62229W        W34544  26.522  19.704  11.460
62230W        W34545  13.822  37.514  11.100
62231W        W34546   3.221  17.255   5.094
62232W        W34547  38.437  11.771   0.371
62233W        W34548   6.859  39.013   2.839
62234W        W34549   8.837   4.806  11.373
62235W        W34550   6.364   2.455   3.340
62236W        W34551   9.221  22.024  11.948
62237W        W34552   7.233  18.190   4.127
62238W        W34553  31.131   6.283   0.735
62239W        W34554   0.403  19.166   3.802
62240W        W34555  20.525  18.107   2.368
62241W        W34556   6.331  24.027  13.059
62242W        W34557  21.242  33.508   0.392
62243W        W34558  18.167  38.563   5.657
62244W        W34559  14.634  35.028  11.569
62245W        W34560  24.559  28.055   4.319
62246W        W34561  42.929  41.432  14.388
62247W        W34562  10.175  12.128   2.243
62248W        W34563  42.877  44.984   4.636
62249W        W34564   1.969  10.228  11.494
62250W        W34565  25.043  30.446   3.234
62251W        W34566  37.404  31.946   1.366
62252W        W34567  30.160  29.439  10.427
62253W        W34568   7.769   8.208   1.722
62254W        W34569   9.311  42.288  13.534
62255W        W34570  43.298  40.355   0.959
62256W        W34571  21.565  10.811   3.743
62257W        W34572   4.930  28.528  14.894
62258W        W34573  11.675  12.827   0.845
62259W        W34574  29.568  29.076   3.838
62260W        W34575  28.019  30.601  14.312
62261W        W34576   6.825  28.660   0.926
62262W        W34577  23.727  43.013   0.738
62263W        W34578  21.029   7.259  12.891
62264W        W34579  21.641   6.286  14.782
62265W        W34580  33.622  34.993  10.571
62266W        W34581  34.447  39.444  13.020
62267W        W34582  34.540  26.171   0.301
62268W        W34583  25.675  32.901  13.041
62269W        W34584  26.165  42.823   4.168
62270W        W34585   3.417   5.779  12.831
62271W        W34586  44.858  15.142  11.915
62272W        W34587   5.224  32.513  12.447
62273W        W34588  17.615  25.599  13.349
62274W        W34589  33.894  25.644   1.929
62275W        W34590   1.821  31.641  13.436
62276W        W34591   4.330   2.896   4.825
62277W        W34592  34.460   5.933   4.272
62278W        W34593  14.121  29.037   0.947
62279W        W34594  34.067  35.007   1.380
62280W        W34595  14.284  37.883   3.846
62281W        W34596  13.843  43.913  14.435
62282W        W34597   2.272  27.054   3.867
62283W        W34598  12.717  15.100   3.366
62284W        W34599  34.413  23.671  14.448
62285W        W34600  27.515   1.804  14.858
62286W        W34601  16.701   1.356   4.599
62287W        W34602   8.216  18.143  11.935
62288W        W34603  24.200  39.057  13.833
62289W        W34604  33.572  29.107  10.504
62290W        W34605  35.020   5.889   1.274
62291W        W34606  35.420  23.692   1.830
62292W        W34607  41.040  25.000   9.528
62293W        W34608  28.566  16.725   0.372
62294W        W34609  35.453   8.691  12.964
62295W        W34610   5.780  42.869  10.908
62296W        W34611  16.575  38.482  12.001
62297W        W34612  37.833  40.312  14.320
62298W        W34613   2.845   4.293  11.914
62299W        W34614  12.766  43.871   2.785
62300W        W34615  32.469  22.727   3.641
62301W        W34616   2.273  38.898   0.350
62302W        W34617  38.515  15.277   0.370
62303W        W34618  36.438   2.449   2.367
62304W        W34619  11.671  20.110   1.833
62305W        W34620  28.466   1.789   2.842
62306W        W34621  42.899  33.468  13.040
62307W        W34622   4.754  13.799  13.315
62308W        W34623  44.374  19.664   1.836
62309W        W34624  40.335   0.892  10.551
62310W        W34625  39.485  27.155   0.348
62311W        W34626   5.223  39.066  14.775
62312W        W34627  19.219   7.879   0.795
62313W        W34628  11.747  44.492  10.971
62314W        W34629  27.153  15.815  14.396
62315W        W34630   3.395  27.516   1.448
62316W        W34631  19.760  26.059  11.992
62317W        W34632  38.977  44.350   9.946
62318W        W34633  26.581  36.072  13.972
62319W        W34634  35.597  34.963   0.848
62320W        W34635  37.888  12.240   2.239
62321W        W34636   0.410   0.979   3.381
62322W        W34637  25.039  25.007   2.887
62323W        W34638  36.573   9.719   0.432
62324W        W34639  22.570  31.420   0.261
62325W        W34640  40.992   3.349  11.857
62326W        W34641   7.848   8.780  14.891
62327W        W34642  18.189  15.648  11.423
62328W        W34643  16.631  26.115   3.189
62329W        W34644  28.470  19.553  12.922
62330W        W34645  19.570  30.520   5.225
62331W        W34646  26.640  14.180   4.285
62332W        W34647  31.919  22.072   2.403
62333W        W34648  19.120  44.451   1.358
62334W        W34649   3.375  18.675  13.046
62335W        W34650  26.130  39.986  13.967
62336W        W34651   8.329  21.639  12.968
62337W        W34652   9.840  10.217  13.800
62338W        W34653  12.796  25.516   1.694
62339W        W34654  27.970  14.338  11.072
62340W        W34655  41.998  34.600   4.777
62341W        W34656   5.206  42.395  11.920
62342W        W34657   5.292   7.254  13.419
62343W        W34658  31.098   4.754  12.890
62344W        W34659   4.397  13.175   3.212
62345W        W34660   4.843  41.448  11.551
62346W        W34661  10.825  40.456  11.986
62347W        W34662  13.800   5.781  13.039
62348W        W34663  17.240  32.087  12.083
62349W        W34664  30.623  44.494  10.456
62350W        W34665   6.759   8.368   0.360
62351W        W34666  23.158  33.876  14.506
62352W        W34667  17.227  43.431   0.838
62353W        W34668  13.255   4.346  11.028
62354W        W34669   1.846  30.045  11.855
62355W        W34670  20.244  37.440  11.435
62356W        W34671   4.781  15.786  13.464
62357W        W34672  24.996  19.779  10.505
62358W        W34673   9.393   2.842   2.671
62359W        W34674  21.588  15.101   0.947
62360W        W34675   9.676  10.725   1.370
62361W        W34676  15.706  22.142  13.319
62362W        W34677   1.841  23.594   1.408
62363W        W34678   6.699  33.908  13.343
62364W        W34679  36.445  10.679   3.716
62365W        W34680  15.649  38.381   3.252
62366W        W34681   0.829  33.923   3.199
62367W        W34682   1.258  20.736   3.841
62368W        W34683   9.390  33.929   0.376
62369W        W34684  10.265  21.557   3.282
62370W        W34685  10.296  18.659  13.317
62371W        W34686  29.474   6.257   4.661
62372W        W34687   0.397  17.692  11.553
62373W        W34688   2.243  17.093   0.731
62374W        W34689   5.273  38.504   4.650
62375W        W34690  30.948  36.909  13.346
62376W        W34691  26.121  43.360  12.472
62377W        W34692  28.024  15.184   3.274
62378W        W34693   5.239  25.661  11.093
62379W        W34694  31.911  19.707   3.271
62380W        W34695  27.654  41.037  11.857
62381W        W34696  43.462  43.503   0.458
62382W        W34697  31.406  21.553  12.084
62383W        W34698  29.438  37.015  13.476
62384W        W34699  25.189  21.063   1.429
62385W        W34700  37.953  34.515   3.695
62386W        W34701  20.244  40.409   0.256
62387W        W34702  30.951  19.594  14.888
62388W        W34703  42.410  13.218   0.333
62389W        W34704  28.121  17.636   2.291
62390W        W34705  26.968  15.731   0.368
62391W        W34706  17.758   1.842   1.730
62392W        W34707  27.461  33.513   5.195
62393W        W34708  28.622  30.013  12.965
62394W        W34709  41.511   7.821   2.306
62395W        W34710  14.713   5.805  10.556
62396W        W34711   1.801  19.676   1.223
62397W        W34712   0.471  19.587  12.902
62398W        W34713  14.613  28.666   0.386
62399W        W34714  38.425   5.737   1.367
62400W        W34715  42.008  18.279   1.217
62401W        W34716  16.638  29.936  12.846
62402W        W34717   5.919  11.728  13.808
62403W        W34718   1.309  14.104   1.434
62404W        W34719  26.157  20.701  14.007
62405W        W34720  17.576  23.159   3.772
62406W        W34721   3.848  37.472   0.867
62407W        W34722  38.858  38.450   0.799
62408W        W34723  21.050  18.265  13.025
62409W        W34724  24.498   5.906  11.603
62410W        W34725  20.112  37.554  13.441
62411W        W34726  16.160  35.928  10.440
62412W        W34727  42.417   7.884   1.357
62413W        W34728  13.129  20.124  11.463
62414W        W34729  43.838  15.583  14.816
62415W        W34730  13.222   9.748  13.933
62416W        W34731  34.425  25.700   4.772
62417W        W34732   0.258  38.386  12.379
62418W        W34733   4.422  36.570  12.042
62419W        W34734   6.250  37.538   1.422
62420W        W34735  43.278  40.505   4.798
62421W        W34736  27.055  30.057  13.962
62422W        W34737  40.817  32.459   1.735
62423W        W34738  11.647  38.345  14.396
62424W        W34739  37.001  32.919   0.909
62425W        W34740  14.281   7.259  11.010
62426W        W34741  34.603  33.962  13.397
62427W        W34742   9.783  11.281  14.914
62428W        W34743  37.961   0.464  10.505
62429W        W34744   1.841   0.407   3.173
62430W        W34745  22.025   9.292  12.577
62431W        W34746   8.373  43.392  14.343
62432W        W34747  31.017   6.752   3.147
62433W        W34748  31.547  38.894  12.382
62434W        W34749   5.828   6.836  12.464
62435W        W34750  38.348   6.853  14.446
62436W        W34751   8.405  27.155   1.323
62437W        W34752  34.875   2.353  12.417
62438W        W34753  13.279  38.562   3.321
62439W        W34754   0.390  34.043  13.420
62440W        W34755  38.504  19.172  10.545
62441W        W34756  36.974  36.501   2.271
62442W        W34757   2.871  36.021  10.411
62443W        W34758   4.358  32.932  11.517
62444W        W34759  35.976  17.078   1.918
62445W        W34760  13.642   2.229  14.869
62446W        W34761  10.187  15.123   4.271
62447W        W34762  24.199  42.514  14.972
62448W        W34763  40.476  13.110  12.838
62449W        W34764  36.013  10.824  14.765
62450W        W34765  11.365  14.804   4.275
62451W        W34766  16.682  37.428   2.222
62452W        W34767   1.812  42.303   3.731
62453W        W34768  39.542   0.391   0.745
62454W        W34769  39.405  33.902  13.037
62455W        W34770  39.831   3.817  11.896
62456W        W34771  16.251  26.621   4.650
62457W        W34772  11.350  38.047  10.620
62458W        W34773  43.926  24.136  12.963
62459W        W34774   2.824  44.979   2.902
62460W        W34775  28.077  34.603   3.658
62461W        W34776   7.743  29.009   0.397
62462W        W34777  18.606  32.885  11.501
62463W        W34778  22.532  26.481  14.368
62464W        W34779  40.924  25.487   0.361
62465W        W34780  14.170  18.649  12.497
62466W        W34781  22.724  13.605  13.440
62467W        W34782  10.258  18.777   3.350
62468W        W34783  20.749  30.446   3.242
62469W        W34784   5.703  25.512  13.969
62470W        W34785  10.349  30.081  13.004
62471W        W34786  43.969   9.785   5.289
62472W        W34787  33.578  40.045  12.066
62473W        W34788  28.949  23.547  11.078
62474W        W34789  42.899   1.848  12.355
62475W        W34790  27.637  28.029   4.141
62476W        W34791   4.275  16.110  10.632
62477W        W34792  27.602  32.582  11.587
62478W        W34793   1.340  31.463  12.579
62479W        W34794  40.354  26.167  13.967
62480W        W34795  29.443  11.130  12.856
62481W        W34796   1.468  23.017   2.211
62482W        W34797  14.684   5.789  11.409
62483W        W34798  21.132  31.009  14.870
62484W        W34799  19.203  19.696   4.772
62485W        W34800  22.108  42.948  12.957
62486W        W34801  20.199  37.429   3.781
62487W        W34802  10.666  39.355   1.889
62488W        W34803  22.215   9.860  13.309
62489W        W34804   6.681  23.586   2.205
62490W        W34805  40.340   7.719  14.910
62491W        W34806  21.722   3.336   1.378
62492W        W34807  40.008  40.365  12.068
62493W        W34808  23.220  14.158  12.363
62494W        W34809  33.408  37.081   4.132
62495W        W34810  20.577  40.364  14.764
62496W        W34811   5.271  44.412  10.569
62497W        W34812  35.854  31.094  14.014
62498W        W34813  32.054  28.036  11.037
62499W        W34814  31.609  29.931  13.010
62500W        W34815  41.375  37.925  12.498
62501W        W34816  26.952  10.320  13.798
62502W        W34817  29.090  14.639   4.633
62503W        W34818  10.306  15.288   9.990
62504W        W34819   4.806  43.385   1.745
62505W        W34820  31.647  33.877   3.186
62506W        W34821  34.497  37.906   1.413
62507W        W34822  35.083  29.654  14.288
62508W        W34823  33.028  21.036  10.535
62509W        W34824   5.418  16.205   4.192
62510W        W34825   4.429   4.825   2.727
62511W        W34826  35.897  20.150  12.041
62512W        W34827  12.637  23.682   1.790
62513W        W34828  41.436  18.621  14.932
62514W        W34829  43.819  15.694   3.233
62515W        W34830  44.288  23.230  10.596
62516W        W34831  39.542   0.331  11.903
62517W        W34832   0.317  41.871   0.370
62518W        W34833  32.977   1.785   2.893
62519W        W34834   6.832   5.226   1.334
62520W        W34835  44.259  19.208   4.599
62521W        W34836  13.263  26.618   4.290
62522W        W34837  39.350   8.661   3.335
62523W        W34838   2.938  29.132  11.023
62524W        W34839  13.695   8.703   1.224
62525W        W34840  23.634  17.262   1.421
62526W        W34841  28.115  43.895  10.097
62527W        W34842  21.169   9.868  12.574
62528W        W34843  15.613  32.053   4.651
62529W        W34844  23.212  13.249   2.380
62530W        W34845  18.060  39.040   3.770
62531W        W34846   3.350   3.346   1.718
62532W        W34847  15.295   0.425  14.013
62533W        W34848  41.334   0.842   1.284
62534W        W34849  42.890   1.293  13.921
62535W        W34850  20.572  24.110   3.799
62536W        W34851  34.059  35.367   2.341
62537W        W34852   0.320  44.375  14.353
62538W        W34853  14.220  16.713  13.415
62539W        W34854   6.349  38.461   3.313
62540W        W34855   3.340  16.253   1.395
62541W        W34856  33.895  28.557  13.471
62542W        W34857  23.117  20.269  10.506
62543W        W34858  14.611  40.326  12.849
62544W        W34859   9.272  10.322  10.636
62545W        W34860  21.225  14.311   2.400
62546W        W34861  34.881   3.848  12.904
62547W        W34862   2.819  34.513   0.429
62548W        W34863  10.257  20.638  13.500
62549W        W34864  29.568  39.030   0.806
62550W        W34865  17.136  30.538   4.641
62551W        W34866   9.383  43.856  14.316
62552W        W34867  24.189  13.836   1.705
62553W        W34868  22.577  39.018  12.341
62554W        W34869  33.075  23.047   4.311
62555W        W34870   4.427  15.328  11.375
62556W        W34871  16.072  41.465   3.826
62557W        W34872  42.434   5.212  10.632
62558W        W34873  14.123  29.512   1.831
62559W        W34874   3.752  24.003   3.783
62560W        W34875  11.679  32.074  14.400
62561W        W34876   4.431  15.653   1.276
62562W        W34877  40.415  43.956   0.456
62563W        W34878  21.034   9.882   3.631
62564W        W34879  34.949  26.077  14.306
62565W        W34880  40.043  28.004   1.870
62566W        W34881  38.929  44.436  11.377
62567W        W34882  27.159   7.817  13.432
62568W        W34883  18.687  28.096  11.909
62569W        W34884  15.285  30.543   1.741
62570W        W34885  18.676   1.361  14.331
62571W        W34886   7.871  27.956   3.217
62572W        W34887   5.350  15.645  13.018
62573W        W34888  39.435  22.127   2.728
62574W        W34889  27.079  19.685   2.307
62575W        W34890  17.123  10.712  14.817
62576W        W34891  19.228  38.334   5.228
62577W        W34892  22.665  43.991  11.957
62578W        W34893  25.594  20.756  14.334
62579W        W34894  27.026  39.332   0.966
62580W        W34895  36.035  14.228  13.424
62581W        W34896   0.369  15.731   3.817
62582W        W34897  12.164  39.544  10.936
62583W        W34898  35.972  31.905  11.086
62584W        W34899  12.331  20.120  12.086
62585W        W34900  42.849  31.426  14.944
62586W        W34901  39.419  18.716  11.538
62587W        W34902  11.685  38.053  13.519
62588W        W34903  23.008   2.244  13.997
62589W        W34904  25.472  21.721   5.684
62590W        W34905  11.262   3.338  14.789
62591W        W34906   2.781  20.523   1.771
62592W        W34907  35.492  26.199  13.801
62593W        W34908  33.940  27.123  13.020
62594W        W34909  22.578  33.899  10.891
62595W        W34910  20.146  33.031  12.430
62596W        W34911  12.205   1.262   3.841
62597W        W34912  14.324  19.581   2.764
62598W        W34913  31.106  34.599   1.268
62599W        W34914  17.599  42.322  12.944
62600W        W34915  28.182  29.941   1.924
62601W        W34916  20.641   9.201   0.468
62602W        W34917  39.537  36.893  14.425
62603W        W34918  25.040  43.372  10.542
62604W        W34919  36.559  14.789   3.686
62605W        W34920  25.607  37.413  11.094
62606W        W34921  30.522  30.472   2.405
62607W        W34922  12.812  20.248   1.363
62608W        W34923   6.283   3.242  14.471
62609W        W34924  28.009  36.045   3.803
62610W        W34925  17.202  13.256   3.869
62611W        W34926  10.302  12.688   3.314
62612W        W34927   5.877   2.260  12.424
62613W        W34928  22.243  25.522  11.521
62614W        W34929  35.562   8.300   2.663
62615W        W34930  19.177  25.054  11.371
62616W        W34931  40.450  24.010  13.416
62617W        W34932   5.712  16.085   2.797
62618W        W34933  15.728  29.979   3.684
62619W        W34934  28.165  28.637  14.404
62620W        W34935  43.870  33.447  12.840
62621W        W34936  25.540  36.350   1.757
62622W        W34937  13.302  12.144  14.504
62623W        W34938  34.610  41.298  11.567
62624W        W34939  44.986  17.757  13.398
62625W        W34940   5.415  21.035   2.737
62626W        W34941  15.136  21.029   3.688
62627W        W34942  35.005   6.337  14.929
62628W        W34943  17.169  44.435   3.847
62629W        W34944   5.425  29.447   0.869
62630W        W34945  15.112  29.603  13.806
62631W        W34946  20.142   0.928  10.147
62632W        W34947  39.385  16.738  14.505
62633W        W34948  14.659  39.405   3.822
62634W        W34949  13.279  42.408   3.293
62635W        W34950  27.126  24.598   2.412
62636W        W34951   1.387  29.482  13.412
62637W        W34952  12.340  15.260   1.262
62638W        W34953  11.702  37.473  14.919
62639W        W34954   1.466  34.998  11.492
62640W        W34955   7.344  39.338  13.063
62641W        W34956   4.735  22.205   4.115
62642W        W34957  36.388  37.424  11.971
62643W        W34958  29.434  12.814  11.899
62644W        W34959  10.181  35.943  14.373
62645W        W34960  33.514  32.070  11.928
62646W        W34961   9.754  29.170   2.841
62647W        W34962  10.768  14.298  10.958
62648W        W34963  14.593  39.024  11.100
62649W        W34964  29.573  41.985   3.183
62650W        W34965   2.867  42.372   4.297
62651W        W34966  15.143   6.404  14.961
62652W        W34967  26.642   8.359   2.729
62653W        W34968  38.888  41.908  12.394
62654W        W34969   5.357   4.796  11.422
62655W        W34970  28.160  41.374  14.830
62656W        W34971  37.550  19.235  13.965
62657W        W34972  16.304  20.030   2.188
62658W        W34973  16.653  22.679   2.761
62659W        W34974  39.905  36.950   3.855
62660W        W34975  21.048   2.875  12.922
62661W        W34976  24.559  22.613   1.394
62662W        W34977   1.972  39.316   2.857
62663W        W34978  21.516  44.268   4.139
62664W        W34979  22.628  38.003  13.379
62665W        W34980  24.629  26.648   3.173
62666W        W34981  12.211  14.783  12.344
62667W        W34982   6.420   5.872  10.032
62668W        W34983  33.925  24.710   4.149
62669W        W34984  42.503   7.284  13.331
62670W        W34985   5.274   8.174  13.405
62671W        W34986  35.954  26.692   1.443
62672W        W34987  24.531  44.803  13.852
62673W        W34988  20.088  10.649  10.925
62674W        W34989  41.928  26.510  11.612
62675W        W34990  39.809  10.688   1.311
62676W        W34991  13.151  33.086  13.455
62677W        W34992  33.912  29.984  12.545
62678W        W34993  38.956  40.010  14.512
62679W        W34994  13.227  31.922   0.359
62680W        W34995  19.241  11.644   2.227
62681W        W34996  22.657  11.289  14.856
62682W        W34997   6.698  35.963  14.973
62683W        W34998   4.915   6.412  10.957
62684W        W34999  37.422  29.060   2.331
62685W        W35000  17.740  13.649  12.957
62686W        W35001  18.779  39.809  12.566
62687W        W35002  18.721  35.921   2.287
62688W        W35003  32.998  29.965   0.851
62689W        W35004  31.080   2.764  13.878
62690W        W35005  32.063  34.509  14.803
62691W        W35006   3.950  38.012  12.990
62692W        W35007  15.276  31.040  12.423
62693W        W35008  33.031  25.055   0.730
62694W        W35009  17.173  36.891   2.771
62695W        W35010   7.274  42.970  13.409
62696W        W35011  11.371   7.352  14.774
62697W        W35012  25.515  25.118   2.901
62698W        W35013  39.980   8.233   1.225
62699W        W35014   5.845  31.519  11.575
62700W        W35015  20.051  42.961  11.087
62701W        W35016  33.958   3.235  13.983
62702W        W35017  40.959  18.622  10.477
62703W        W35018  22.634   8.835  13.821
62704W        W35019  43.503  12.857  11.885
62705W        W35020  28.441  36.458   0.343
62706W        W35021  18.151   3.742   1.863
62707W        W35022  18.715  14.799   4.825
62708W        W35023  38.527  43.007   2.819
62709W        W35024  26.051  43.925   3.847
62710W        W35025  24.624  27.663   3.749
62711W        W35026  19.637  23.656  12.445
62712W        W35027  38.425   2.440   4.612
62713W        W35028   1.877   1.892   0.273
62714W        W35029   6.353  39.938   4.138
62715W        W35030   3.831  13.179   4.704
62716W        W35031  14.201  40.990  12.837
62717W        W35032  28.514  28.957  13.882
62718W        W35033   3.425  34.429   1.242
62719W        W35034  34.467  44.487   3.663
62720W        W35035  14.811  19.666  11.916
62721W        W35036  36.984   1.343   1.247
62722W        W35037  30.526  41.456   1.419
62723W        W35038  27.030  35.957   2.392
62724W        W35039  32.048  32.945   3.287
62725W        W35040  29.645  27.105  14.965
62726W        W35041   6.423  20.529   4.181
62727W        W35042  39.044  15.258  10.478
62728W        W35043  21.239  38.837  14.400
62729W        W35044  13.621  33.419   1.834
62730W        W35045  38.029  18.568  14.480
62731W        W35046  44.380  15.715   1.332
62732W        W35047  38.910  32.010   2.183
62733W        W35048   1.901   1.292   0.265
62734W        W35049  17.203  18.214   4.601
62735W        W35050  23.672  12.280  11.887
62736W        W35051  35.041  44.362  11.535
62737W        W35052  36.566  38.075   0.399
62738W        W35053  40.925  37.913  11.394
62739W        W35054  18.050  11.220   9.552
62740W        W35055  29.628  40.836   4.191
62741W        W35056   6.421  22.112   1.827
62742W        W35057  18.754  17.259  14.865
62743W        W35058  21.080  15.299   4.128
62744W        W35059   5.250  41.819   2.777
62745W        W35060  28.553   7.382   0.442
62746W        W35061  22.579   8.379  14.861
62747W        W35062  17.215  30.638  11.906
62748W        W35063  14.270   9.281   2.888
62749W        W35064  16.738  42.828  11.996
62750W        W35065  12.616  20.737   2.757
62751W        W35066  14.179   9.179  14.888
62752W        W35067  26.186   9.294   0.282
62753W        W35068   4.205  21.140   2.666
62754W        W35069   8.809  34.517  13.047
62755W        W35070  25.195   8.320  13.794
62756W        W35071   3.898   8.331   0.848
62757W        W35072  38.892  28.653   4.813
62758W        W35073  27.030  18.781  14.349
62759W        W35074  18.218  26.613  10.442
62760W        W35075   1.921  23.596   2.698
62761W        W35076   3.853  43.324   0.323
62762W        W35077  10.294  27.963   2.187
62763W        W35078  26.661   7.811   2.832
62764W        W35079  20.142  29.481   0.964
62765W        W35080  29.154  40.543  12.354
62766W        W35081  24.042   8.896   5.189
62767W        W35082  17.613  31.997   1.742
62768W        W35083  40.342   1.468   3.771
62769W        W35084  11.346  35.460   0.304
62770W        W35085  29.497   5.828   4.791
62771W        W35086  15.241  11.166   3.340
62772W        W35087   9.886  30.424  10.513
62773W        W35088  26.178  18.590  11.050
62774W        W35089  32.953  39.870  12.469
62775W        W35090  31.966   6.306  10.615
62776W        W35091  12.138  28.547   4.641
62777W        W35092  30.540  32.524   1.845
62778W        W35093  33.005   9.875   4.154
62779W        W35094  33.429  40.309   5.235
62780W        W35095  20.184  41.427   3.841
62781W        W35096  12.851  12.315  12.952
62782W        W35097  44.331   9.663  11.100
62783W        W35098  43.001   1.396   0.380
62784W        W35099  27.047   2.951   3.358
62785W        W35100  19.169  31.562   3.383
62786W        W35101  36.437  35.597  14.781
62787W        W35102  20.063  34.059  13.356
62788W        W35103   4.349  13.740  10.912
62789W        W35104  12.243  33.544   1.805
62790W        W35105  22.619  35.438  12.477
62791W        W35106   3.744  26.029  11.863
62792W        W35107  16.804  23.132   0.366
62793W        W35108   3.773  36.046  14.900
62794W        W35109  27.132  44.373   3.798
62795W        W35110  43.423  34.972  13.458
62796W        W35111  31.601  14.628  13.953
62797W        W35112   8.868  20.615  12.578
62798W        W35113  37.047  38.855   3.829
62799W        W35114  19.726  27.147  12.988
62800W        W35115  30.149  13.118  11.880
62801W        W35116  16.174  42.786  13.433
62802W        W35117  42.336  21.688  10.453
62803W        W35118  12.848  21.565  14.325
62804W        W35119  13.283  21.582  13.839
62805W        W35120  34.048  11.243   1.930
62806W        W35121   5.906  34.884   4.694
62807W        W35122  16.574   2.284   3.851
62808W        W35123  42.858  13.321   2.361
62809W        W35124   2.260  18.658   3.302
62810W        W35125  15.275  40.533   1.861
62811W        W35126  42.979  32.967  14.287
62812W        W35127  24.039  38.995   4.633
62813W        W35128  40.463  35.871   3.640
62814W        W35129  36.957  44.827   0.262
62815W        W35130  40.329  39.902   2.402
62816W        W35131  14.834  20.164   1.288
62817W        W35132  14.759  42.831   1.441
62818W        W35133   0.298  20.597   0.967
62819W        W35134  10.670  14.181  11.980
62820W        W35135  32.970  35.467  14.353
62821W        W35136  11.168  15.577  14.393
62822W        W35137  14.166  32.977  11.098
62823W        W35138  41.963  10.176   2.415
62824W        W35139  16.757  21.143  13.380
62825W        W35140  23.732   2.281  11.985
62826W        W35141  31.616  29.626   2.757
62827W        W35142  13.811  10.238   1.724
62828W        W35143  40.812  26.991  13.866
62829W        W35144  11.172   9.153   3.718
62830W        W35145  28.018  21.148   3.234
62831W        W35146  44.808  28.520   0.433
62832W        W35147  44.293  12.337   0.250
62833W        W35148  37.507  30.992  11.403
62834W        W35149  22.107  38.908   1.919
62835W        W35150   6.396  18.619  11.385
62836W        W35151  43.011  17.659  14.912
62837W        W35152  22.132  30.990   2.719
62838W        W35153   6.898  43.354   3.756
62839W        W35154  27.965  28.936   0.734
62840W        W35155  16.681  30.107   9.511
62841W        W35156  12.665  36.022   0.914
62842W        W35157  32.962  21.210  14.498
62843W        W35158  20.040  44.387  10.160
62844W        W35159  33.564  12.253  13.064
62845W        W35160   9.170  43.774   4.291
62846W        W35161  16.294  17.285  10.038
62847W        W35162   2.454  16.207  14.938
62848W        W35163  11.737  18.132   9.950
62849W        W35164  18.744   8.393   1.723
62850W        W35165  17.656  39.480  14.795
62851W        W35166  31.570  11.232  12.015
62852W        W35167  43.769  43.301   3.162
62853W        W35168  11.774  16.316  13.010
62854W        W35169   0.863  10.832   0.900
62855W        W35170   1.300  26.102  13.817
62856W        W35171  35.903   0.286  14.328
62857W        W35172   3.242  43.420  11.099
62858W        W35173  13.304  18.251  12.890
62859W        W35174  27.641  14.751   2.216
62860W        W35175  38.383  36.008  14.457
62861W        W35176  42.315  42.835   1.412
62862W        W35177  37.342  17.268   1.390
62863W        W35178  29.627  21.055  13.847
62864W        W35179   6.860   2.452   1.834
62865W        W35180   5.897  29.546  10.429
62866W        W35181  19.546  44.420  11.942
62867W        W35182  28.934  23.661  11.550
62868W        W35183   5.780  20.610   4.143
62869W        W35184  10.774  11.326   2.315
62870W        W35185  23.132  16.138  11.896
62871W        W35186  34.462  20.109   3.787
62872W        W35187  23.061  41.506   2.665
62873W        W35188  37.542  10.252  10.412
62874W        W35189  39.893   5.809  13.413
62875W        W35190  33.003   8.713  11.936
62876W        W35191  13.205  37.011  12.413
62877W        W35192  19.109  20.581  10.595
62878W        W35193  18.175  22.632   3.365
62879W        W35194  38.887  38.870   4.355
62880W        W35195  26.047   5.319  14.403
62881W        W35196  34.983  41.294   2.818
62882W        W35197  19.126  25.132   1.866
62883W        W35198  16.201   5.754  13.991
62884W        W35199  36.479   1.248  12.450
62885W        W35200  29.489   1.397  12.539
62886W        W35201  29.477   4.764  11.888
62887W        W35202  41.440   0.944   4.302
62888W        W35203   4.368  26.662   2.753
62889W        W35204  17.640  25.696   0.764
62890W        W35205  34.929  32.527   2.193
62891W        W35206  17.221  41.798  10.408
62892W        W35207  24.200  13.621   0.307
62893W        W35208  41.423  15.196  13.501
62894W        W35209  16.191  34.519   1.448
62895W        W35210  23.149  15.321   1.444
62896W        W35211  41.390  22.680   1.822
62897W        W35212  27.035  38.929   0.469
62898W        W35213   4.239  41.886  12.408
62899W        W35214  24.479   6.231  10.906
62900W        W35215  22.717  12.819  12.884
62901W        W35216   9.334  34.943  14.760
62902W        W35217   5.407  30.051   4.610
62903W        W35218  37.046  14.174  11.459
62904W        W35219  15.112  33.596  12.554
62905W        W35220  14.284   5.794  14.992
62906W        W35221  27.150   4.335  14.853
62907W        W35222  31.418  21.208   0.263
62908W        W35223  15.741  32.045  11.943
62909W        W35224   9.269  12.782   4.214
62910W        W35225  15.776  29.920   0.329
62911W        W35226  17.234  19.557   2.669
62912W        W35227  30.614   4.289  12.857
62913W        W35228  43.970  29.570  10.947
62914W        W35229  40.494  34.374  13.893
62915W        W35230  32.599   8.859   4.702
62916W        W35231  38.064  28.936   4.202
62917W        W35232  17.737  23.655   1.298
62918W        W35233  42.020  38.972   0.843
62919W        W35234   2.364  35.557   1.274
62920W        W35235  31.455  16.698   3.302
62921W        W35236  15.201  15.323   0.249
62922W        W35237   8.205  17.623   0.852
62923W        W35238  43.323   5.225  12.895
62924W        W35239  11.844  31.130  14.015
62925W        W35240   3.795  44.313   0.259
62926W        W35241   1.257  44.479  10.598
62927W        W35242   2.472  42.394  13.355
62928W        W35243  10.692  12.706  11.460
62929W        W35244  35.962  41.842   2.725
62930W        W35245  36.084  40.034  10.522
62931W        W35246   1.273  44.405  11.949
62932W        W35247   8.231  44.356  11.455
62933W        W35248  37.854  22.734   3.651
62934W        W35249  17.588  26.655  13.064
62935W        W35250  38.860  28.005  13.042
62936W        W35251  37.862   7.374   4.804
62937W        W35252  23.148   6.377  10.975
62938W        W35253  42.312  22.700   0.852
62939W        W35254   1.312  34.559  14.787
62940W        W35255  19.188  17.172  10.974
62941W        W35256  44.396  43.854   4.684
62942W        W35257  34.001   0.393   0.398
62943W        W35258  20.254  18.656  13.323
62944W        W35259  12.815  29.040   4.681
62945W        W35260  38.361  31.144   0.313
62946W        W35261  26.509  30.006  13.448
62947W        W35262  21.613   6.225   4.626
62948W        W35263  25.044  24.687  13.316
62949W        W35264  28.006   0.844   1.353
62950W        W35265  21.066  16.153  14.996
62951W        W35266   5.874  25.068  14.463
62952W        W35267  33.058   2.928  13.905
62953W        W35268   2.817  41.437  11.917
62954W        W35269  44.426  39.318  10.568
62955W        W35270  17.200  19.709  12.566
62956W        W35271  24.043  29.608   0.388
62957W        W35272  30.548   2.344   4.136
62958W        W35273  27.040   4.423   0.425
62959W        W35274  37.579  36.037   1.756
62960W        W35275   1.961   3.428  12.365
62961W        W35276   5.781   6.325   1.374
62962W        W35277  24.576  33.544   0.408
62963W        W35278   7.840   0.321   3.686
62964W        W35279  22.554  30.620   9.979
62965W        W35280  20.165  11.787  12.960
62966W        W35281   3.740  38.944  12.004
62967W        W35282  41.863  41.406   3.321
62968W        W35283  27.481  43.865  12.909
62969W        W35284  42.846  31.059   2.347
62970W        W35285  28.609  44.435  13.791
62971W        W35286   7.179  11.216   0.429
62972W        W35287  21.636  29.919  14.976
62973W        W35288  34.607  21.147   3.225
62974W        W35289  37.410  30.009  14.467
62975W        W35290   8.689   6.385   0.829
62976W        W35291  26.675  32.481   0.378
62977W        W35292  44.425  35.887  11.492
62978W        W35293  11.250  12.812  11.498
62979W        W35294  18.711  15.587   2.386
62980W        W35295   2.857  34.415   2.319
62981W        W35296  27.510   0.924  13.472
62982W        W35297  40.385  18.217  11.074
62983W        W35298  11.146   7.385   2.221
62984W        W35299   4.441   7.306  12.465
62985W        W35300  16.269  33.077  14.861
62986W        W35301   9.774   0.909   1.749
62987W        W35302  38.463  24.681   2.367
62988W        W35303  27.584  34.100   1.362
62989W        W35304  36.032  14.688  14.880
62990W        W35305  40.006  16.214  11.867
62991W        W35306   8.743  22.554  13.439
62992W        W35307  18.257  44.418  11.400
62993W        W35308  35.592  31.977   1.732
62994W        W35309  44.942   5.305  12.429
62995W        W35310  32.444   6.364  12.461
62996W        W35311  21.106   5.370  10.514
62997W        W35312  26.154  42.812  13.030
62998W        W35313  42.382  43.965  13.357
62999W        W35314  31.410  33.097  14.323
63000W        W35315  31.463  41.847   2.823
63001W        W35316   7.709  19.079   4.824
63002W        W35317  30.580  36.071  11.012
63003W        W35318  29.995  14.164   4.713
63004W        W35319  39.469   7.263  11.937
63005W        W35320  32.962  15.583   1.363
63006W        W35321  24.505  15.764  10.533
63007W        W35322  11.814  11.197   1.826
63008W        W35323  12.663  24.506   4.268
63009W        W35324  28.081  19.233   0.925
63010W        W35325   6.246   5.784  12.500
63011W        W35326   8.406  44.846   1.721
63012W        W35327  13.778  19.064  11.551
63013W        W35328  35.540  42.811  11.889
63014W        W35329  23.100   2.956   4.226
63015W        W35330  15.766  27.050  13.858
63016W        W35331  25.523   0.906  10.493
63017W        W35332   7.407  38.066   1.258
63018W        W35333  22.232  23.638   2.347
63019W        W35334   6.319  32.075  11.006
63020W        W35335   4.380  12.617  13.025
63021W        W35336  41.362  25.557   3.721
63022W        W35337  24.616  40.810   0.746
63023W        W35338  19.684  39.542  11.031
63024W        W35339  26.471  31.078  12.378
63025W        W35340  19.153  40.446  11.570
63026W        W35341  43.355  15.273  10.937
63027W        W35342  26.703  43.499   0.368
63028W        W35343  43.421  19.233  11.930
63029W        W35344  18.727  24.600  10.474
63030W        W35345  33.094  41.474  14.870
63031W        W35346  11.741  44.355   5.282
63032W        W35347  34.568  26.664  10.041
63033W        W35348  11.787  25.173   2.879
63034W        W35349   8.696   5.769  13.393
63035W        W35350  17.222   3.276   1.256
63036W        W35351  11.151  20.662  10.916
63037W        W35352  42.438  34.473  11.415
63038W        W35353  27.038  35.457  14.938
63039W        W35354  26.606  29.531  14.478
63040W        W35355  27.020   1.927   3.804
63041W        W35356  38.494  41.799   1.815
63042W        W35357  33.008  11.342   4.690
63043W        W35358  35.886  43.954  13.435
63044W        W35359   5.200  14.619  11.487
63045W        W35360  22.081  29.469  13.406
63046W        W35361   4.316   1.852  11.606
63047W        W35362  14.291  21.659   2.772
63048W        W35363  33.493  24.123   3.773
63049W        W35364  43.846  31.140  13.530
63050W        W35365  19.601  10.324   5.162
63051W        W35366  26.624  29.670  13.963
63052W        W35367  14.197   0.250  12.037
63053W        W35368  19.656   5.216  14.977
63054W        W35369  17.261  31.515  14.410
63055W        W35370  27.650  27.057   0.363
63056W        W35371   7.306  24.040  10.549
63057W        W35372  24.553  13.802  13.870
63058W        W35373  38.866  42.441   4.316
63059W        W35374  15.180  39.842   2.286
63060W        W35375  11.641  25.987   3.642
63061W        W35376  40.441   9.310   2.794
63062W        W35377  43.942  11.285  10.110
63063W        W35378  43.438  42.482   1.299
63064W        W35379  15.684   5.393   3.285
63065W        W35380  40.005  37.997   0.292
63066W        W35381  42.352  31.542  12.908
63067W        W35382  18.561  36.916  11.441
63068W        W35383  41.371  16.595  11.578
63069W        W35384  20.209  20.733   0.733
63070W        W35385  35.927  20.677  12.475
63071W        W35386  34.079  35.872  14.900
63072W        W35387  20.683  39.358  12.870
63073W        W35388  20.646   5.347  13.833
63074W        W35389  36.055   3.911  12.876
63075W        W35390   5.336  15.244  14.775
63076W        W35391  14.209  19.131  10.405
63077W        W35392   0.419   9.738   2.843
63078W        W35393  26.960  26.204  14.918
63079W        W35394  25.670  38.841  11.572
63080W        W35395  19.092   0.259   2.399
63081W        W35396  43.895  14.215   2.714
63082W        W35397  14.185  24.225  12.038
63083W        W35398  31.145   3.855  14.824
63084W        W35399  43.351  17.200  13.841
63085W        W35400   4.209  17.795  11.564
63086W        W35401  37.965  10.792   0.334
63087W        W35402  11.827   3.879  11.007
63088W        W35403  27.077  37.448  12.022
63089W        W35404  17.722  20.100   2.280
63090W        W35405  43.941   3.392  11.476
63091W        W35406  23.663  31.053  13.356
63092W        W35407   0.975  12.314   0.929
63093W        W35408  32.003  43.902   4.236
63094W        W35409   2.277  13.294   3.715
63095W        W35410  14.723  10.799  12.468
63096W        W35411  34.070  41.511  10.604
63097W        W35412  23.545  42.889  14.336
63098W        W35413   6.221   3.843   0.943
63099W        W35414  40.875  11.625   4.805
63100W        W35415   5.895  30.157  13.854
63101W        W35416  35.965  10.209  14.485
63102W        W35417  22.249   1.299   0.445
63103W        W35418  17.746  20.676   4.691
63104W        W35419  10.213  16.623  13.824
63105W        W35420   8.655  44.264   2.684
63106W        W35421  42.483  42.780  12.845
63107W        W35422  29.061   1.354  14.847
63108W        W35423  22.128   9.166  14.286
63109W        W35424   5.422  44.848   4.319
63110W        W35425  28.130  19.632  13.020
63111W        W35426  25.048   1.949  14.839
63112W        W35427  17.214   3.453   0.341
63113W        W35428  15.143   1.784   2.289
63114W        W35429  16.657   5.845   1.852
63115W        W35430  30.163   7.215  12.450
63116W        W35431   3.729  38.472  11.906
63117W        W35432  11.785  35.538  14.387
63118W        W35433   2.895   0.419  14.422
63119W        W35434  31.118   8.318  13.818
63120W        W35435  24.521  13.725  11.964
63121W        W35436  41.954   5.793   1.726
63122W        W35437   8.698  22.665  10.407
63123W        W35438   6.378  32.012   2.794
63124W        W35439  33.480   6.394  14.447
63125W        W35440  14.176   5.329   3.812
63126W        W35441  34.451  30.932  12.836
63127W        W35442   4.405   0.323  13.025
63128W        W35443  30.009  23.533  11.540
63129W        W35444  30.563  19.201   0.734
63130W        W35445  20.043  43.440   1.859
63131W        W35446  35.432  39.439  12.855
63132W        W35447   8.871  12.347  10.560
63133W        W35448  42.013   2.254  11.023
63134W        W35449  12.620  43.934  13.042
63135W        W35450   7.803  15.809   4.230
63136W        W35451  32.510   0.823   4.661
63137W        W35452   9.201  41.364  12.088
63138W        W35453   9.332   9.689   1.848
63139W        W35454  43.376   9.717   3.741
63140W        W35455  22.020  28.075   2.245
63141W        W35456   5.744   8.659   3.365
63142W        W35457  33.946  30.650  11.465
63143W        W35458  19.176  32.500   1.749
63144W        W35459  38.371  34.461   2.672
63145W        W35460  11.656   8.730  10.443
63146W        W35461  11.191  40.004   0.417
63147W        W35462  41.023  10.229  12.975
63148W        W35463  32.396  12.753  12.836
63149W        W35464   4.935  43.333   0.772
63150W        W35465  41.414  34.954  13.463
63151W        W35466  14.668   5.438   2.189
63152W        W35467   1.387  23.989  13.346
63153W        W35468  18.077   3.286  10.519
63154W        W35469  17.100  29.043   2.179
63155W        W35470  11.230  14.630   3.365
63156W        W35471  42.349   5.870   1.738
63157W        W35472  25.214  13.818  13.340
63158W        W35473  33.580  32.538  14.787
63159W        W35474  21.244   5.756  10.459
63160W        W35475  18.180  41.495  12.872
63161W        W35476  41.925  14.668   0.893
63162W        W35477   7.744  26.134  12.530
63163W        W35478  30.465  26.630  13.962
63164W        W35479  25.577   0.825  11.561
63165W        W35480   1.471  30.439   1.432
63166W        W35481  43.007  15.216   3.669
63167W        W35482  17.306  24.099  11.385
63168W        W35483   7.863   7.184  10.132
63169W        W35484  36.590   8.809  14.413
63170W        W35485  16.270   2.301  13.011
63171W        W35486   9.802  15.159  13.408
63172W        W35487   8.702  16.157  11.989
63173W        W35488  32.929  10.709   3.334
63174W        W35489  20.056  16.810   3.662
63175W        W35490  30.965  33.559  12.873
63176W        W35491  29.104   6.263   2.711
63177W        W35492   5.760  17.718  10.568
63178W        W35493  26.994   9.705  12.395
63179W        W35494   7.834  41.936  11.449
63180W        W35495  29.482  34.490   3.378
63181W        W35496  39.441  26.054  10.474
63182W        W35497  17.142  41.892   2.199
63183W        W35498   8.265   5.901  11.517
63184W        W35499  12.716   1.960   3.632
63185W        W35500  39.999  33.962   1.845
63186W        W35501  18.615  19.712   1.338
63187W        W35502  27.176   7.760  13.952
63188W        W35503  14.110  33.114  11.589
63189W        W35504   0.873  32.931   5.646
63190W        W35505  18.706  16.749  11.124
63191W        W35506  36.480  44.805   1.887
63192W        W35507  44.819  10.816  14.816
63193W        W35508  23.682   4.418  13.954
63194W        W35509  10.655  22.096   3.756
63195W        W35510  23.656  44.271   3.186
63196W        W35511  15.783  15.617  12.012
63197W        W35512  24.197  44.895  14.997
63198W        W35513   6.752   3.435  13.020
63199W        W35514  44.769  44.785  14.974
63200W        W35515  27.687  28.143  12.370
63201W        W35516  30.992  22.589   5.152
63202W        W35517   2.836  40.313   4.299
63203W        W35518  19.673  34.418   2.321
63204W        W35519   8.709  38.535   0.959
63205W        W35520   1.738  29.938  14.288
63206W        W35521  25.545  25.045   0.773
63207W        W35522  39.391  33.535   4.216
63208W        W35523  20.055   3.443   4.835
63209W        W35524  31.989   5.406  13.793
63210W        W35525  38.374  17.714   1.370
63211W        W35526  39.984  37.013   2.309
63212W        W35527  22.608  23.204   2.311
63213W        W35528  39.454  15.790  10.438
63214W        W35529  25.166  19.705   2.693
63215W        W35530  21.157  42.307  10.482
63216W        W35531   9.664  10.377  12.895
63217W        W35532  37.926  13.302   2.739
63218W        W35533  13.805  44.855   3.210
63219W        W35534  15.191  35.500   1.923
63220W        W35535  10.765  25.038  13.028
63221W        W35536   5.244  17.674   4.693
63222W        W35537  14.157  22.659  12.842
63223W        W35538   5.422  41.414  12.501
63224W        W35539  18.582  40.944   9.944
63225W        W35540  17.256  26.565  10.994
63226W        W35541  32.038  23.153   1.231
63227W        W35542  35.528  25.136  13.461
63228W        W35543  41.358  27.567  12.049
63229W        W35544   8.175   3.387  11.045
63230W        W35545  10.854  22.068  11.887
63231W        W35546   6.916  35.021   1.853
63232W        W35547   4.884  11.832  12.095
63233W        W35548  35.425  22.666   2.193
63234W        W35549   6.747  24.038  12.937
63235W        W35550  12.732  40.844   3.806
63236W        W35551   9.372   4.891   2.900
63237W        W35552  20.042  38.957  12.867
63238W        W35553  22.185   2.432  11.610
63239W        W35554  20.176  25.647  13.384
63240W        W35555  25.201  21.133  11.460
63241W        W35556  23.619  15.598  10.893
63242W        W35557  43.846  43.799   1.232
63243W        W35558  42.974   4.232  12.027
63244W        W35559  23.727  33.009   1.340
63245W        W35560  11.235  32.887  13.468
63246W        W35561  42.353  10.174  14.339
63247W        W35562  13.641  43.450  14.997
63248W        W35563  20.159  26.115   2.319
63249W        W35564  20.590  11.671  14.455
63250W        W35565  31.938  30.015  12.516
63251W        W35566   9.196  44.995  13.028
63252W        W35567  42.402  11.234  13.798
63253W        W35568  25.713  39.350   1.703
63254W        W35569  30.431  38.435   3.231
63255W        W35570  11.140  33.395  13.059
63256W        W35571  33.484  21.124   3.360
63257W        W35572  42.368  15.181   0.288
63258W        W35573  15.310   6.190   4.623
63259W        W35574   1.740  23.177   0.821
63260W        W35575   3.892  36.584   3.783
63261W        W35576  30.513   2.288   3.806
63262W        W35577  34.585   5.761  10.570
63263W        W35578   7.686  33.941  10.604
63264W        W35579   4.333  38.961   0.883
63265W        W35580  16.680  35.559   1.378
63266W        W35581   3.295  10.235  12.001
63267W        W35582   5.273  13.805   4.667
63268W        W35583   6.806  34.090  13.852
63269W        W35584  19.216  11.716   1.257
63270W        W35585   3.222  33.471   0.252
63271W        W35586  30.070  16.115  13.021
63272W        W35587  36.517  34.570  10.595
63273W        W35588  12.712   3.711   0.828
63274W        W35589  18.288  17.749   1.288
63275W        W35590  40.965  31.440   3.718
63276W        W35591  25.059  34.534  10.468
63277W        W35592  13.690  24.028  12.062
63278W        W35593  30.023  21.601   1.297
63279W        W35594   5.268  20.639  11.940
63280W        W35595  12.136  14.819   2.306
63281W        W35596   2.347  23.199   4.327
63282W        W35597  27.081  40.852   0.954
63283W        W35598   5.710  37.830  13.832
63284W        W35599  35.467  32.129  12.081
63285W        W35600  13.700   3.851   4.768
63286W        W35601  16.698   3.254  11.098
63287W        W35602  29.022  16.206  12.964
63288W        W35603  38.881  21.680  11.416
63289W        W35604  26.520  26.132  14.332
63290W        W35605  12.704  33.456  14.998
63291W        W35606  30.609  35.076   1.863
63292W        W35607  41.341  31.009  14.486
63293W        W35608   3.342  31.516   2.369
63294W        W35609  19.133  23.024  10.540
63295W        W35610  40.448  18.563   3.743
63296W        W35611  41.335  37.078   0.418
63297W        W35612  35.553   0.370   2.827
63298W        W35613   4.898   9.859   3.176
63299W        W35614   2.232   0.337  10.421
63300W        W35615  29.100  39.542   2.307
63301W        W35616  15.688  15.603  12.863
63302W        W35617  43.489  11.831   2.230
63303W        W35618   1.922   8.185   1.289
63304W        W35619  38.049  30.928   3.867
63305W        W35620  13.674  13.312   2.309
63306W        W35621  12.255  24.518  10.942
63307W        W35622   0.925  19.644  13.405
63308W        W35623  37.384  17.794  12.459
63309W        W35624  39.815  26.684  11.079
63310W        W35625  27.447  35.942   4.698
63311W        W35626  13.659   6.345  12.848
63312W        W35627  16.792  39.948  11.934
63313W        W35628  43.964  36.413   0.876
63314W        W35629  32.905  12.746   1.236
63315W        W35630  27.589  16.173   0.282
63316W        W35631  10.355  22.502  14.287
63317W        W35632  30.946  30.966  12.998
63318W        W35633   9.355  40.926  14.457
63319W        W35634  17.063   0.276  12.020
63320W        W35635  37.839  42.342  11.943
63321W        W35636  30.504  42.397   0.266
63322W        W35637  33.588  21.200  10.487
63323W        W35638  14.260  39.392  14.943
63324W        W35639  16.308  14.647  14.498
63325W        W35640  11.199  12.139   3.276
63326W        W35641   0.382  12.146  11.486
63327W        W35642  43.455  29.174   2.182
63328W        W35643   0.280  43.789  11.533
63329W        W35644  37.430  26.085   3.173
63330W        W35645  20.620  16.612   2.789
63331W        W35646  17.258  30.453  12.343
63332W        W35647  14.743  39.482  13.045
63333W        W35648   3.954  31.900   0.860
63334W        W35649  24.552  10.647   2.347
63335W        W35650   5.891  26.468   3.328
63336W        W35651  20.216  23.589   4.133
63337W        W35652  22.564  34.883   2.417
63338W        W35653  28.028  24.703   2.263
63339W        W35654  21.211  42.998   0.387
63340W        W35655  12.199  11.850  10.599
63341W        W35656  40.347  25.546   1.435
63342W        W35657  15.178  44.499  14.460
63343W        W35658  37.058  11.762   0.359
63344W        W35659  39.544  15.197  13.881
63345W        W35660  24.038  36.434   4.641
63346W        W35661  18.055   5.821  13.534
63347W        W35662  10.205  23.129   2.215
63348W        W35663   0.873  21.688   3.856
63349W        W35664   7.772  39.560  11.941
63350W        W35665  30.128  18.791   4.661
63351W        W35666  11.724  20.534  12.834
63352W        W35667   5.877  31.082   0.929
63353W        W35668  26.096  23.218   1.811
63354W        W35669  17.096  32.030   0.353
63355W        W35670  37.518  31.963  10.570
63356W        W35671  42.403   9.389   1.334
63357W        W35672  22.051  38.439  12.984
63358W        W35673   6.317  41.406  10.036
63359W        W35674   0.476  22.679   0.967
63360W        W35675  16.683  25.189  11.590
63361W        W35676  12.179  11.712  13.336
63362W        W35677  29.130  43.281   4.251
63363W        W35678  26.206   8.799   3.185
63364W        W35679  17.680  15.094   3.211
63365W        W35680   9.794  24.011  10.624
63366W        W35681   1.436  27.006   4.760
63367W        W35682  37.533   8.349   4.144
63368W        W35683   3.774  22.538  10.555
63369W        W35684  27.978  20.560  12.884
63370W        W35685  19.144  27.992   4.681
63371W        W35686  36.864  44.504  11.077
63372W        W35687  19.165   0.283   1.728
63373W        W35688  17.623  28.438   4.801
63374W        W35689  18.267  20.720  14.821
63375W        W35690  37.437  16.750   0.290
63376W        W35691   1.875  42.510   0.859
63377W        W35692  18.636  36.028   1.219
63378W        W35693  28.988   1.447  13.827
63379W        W35694  33.471   2.744  13.005
63380W        W35695  14.144  16.642   1.749
63381W        W35696   0.403  14.669  11.055
63382W        W35697   1.832  25.088   0.857
63383W        W35698  30.446   4.299   0.749
63384W        W35699  17.800  33.400  12.457
63385W        W35700  20.699  36.588  11.083
63386W        W35701  39.873  37.526  11.108
63387W        W35702   9.664   2.313   4.716
63388W        W35703  41.431  41.336   2.410
63389W        W35704  30.056  19.603   4.167
63390W        W35705  28.586  32.037   1.697
63391W        W35706  21.031   9.348   3.692
63392W        W35707  11.821  19.257   1.886
63393W        W35708  17.581  19.754   1.326
63394W        W35709  24.178  20.616  13.999
63395W        W35710  28.165  28.937   2.395
63396W        W35711   8.213  19.065   2.711
63397W        W35712  24.667  14.713   2.389
63398W        W35713  21.730  44.431   2.764
63399W        W35714  23.543  13.175  11.444
63400W        W35715  25.473  37.455   4.800
63401W        W35716  38.387   5.388  12.090
63402W        W35717  15.093   7.760  11.040
63403W        W35718  23.993  10.709  13.357
63404W        W35719  31.536  28.122   1.720
63405W        W35720  14.640  17.262   3.355
63406W        W35721  36.529  24.988   4.677
63407W        W35722   3.383   7.825   1.695
63408W        W35723  23.029  38.457   2.304
63409W        W35724   6.865  30.460  12.460
63410W        W35725  26.076  40.002  14.876
63411W        W35726   4.309  15.296   1.713
63412W        W35727  21.220  17.105   5.081
63413W        W35728  32.019   0.454   0.268
63414W        W35729  22.032  42.841  12.347
63415W        W35730  24.705  15.734   0.836
63416W        W35731  25.673  34.996   3.726
63417W        W35732  13.311  42.314   2.777
63418W        W35733   1.748   3.441   1.360
63419W        W35734   1.442  27.041   0.785
63420W        W35735  23.506  32.531   3.285
63421W        W35736  38.873  34.490   0.438
63422W        W35737  26.108  39.419   0.398
63423W        W35738  20.563  25.968  14.002
63424W        W35739  33.392   3.235  10.420
63425W        W35740  22.696  22.606   1.758
63426W        W35741   7.398  31.150  11.882
63427W        W35742  36.489  33.397   2.247
63428W        W35743   6.892   4.278  13.993
63429W        W35744   4.376  20.259   4.604
63430W        W35745  11.359  19.588  14.916
63431W        W35746  31.151  38.867   2.782
63432W        W35747  42.928  18.704  12.502
63433W        W35748  12.768   5.366  10.494
63434W        W35749  42.873  32.080   0.751
63435W        W35750  11.130  38.851   2.233
63436W        W35751  16.672  26.623  12.485
63437W        W35752   7.302  44.268  11.513
63438W        W35753  26.141  41.319  14.302
63439W        W35754   4.344  19.760   0.253
63440W        W35755   7.341  24.616   3.285
63441W        W35756  44.318  39.887   1.414
63442W        W35757   7.801   8.729  11.500
63443W        W35758  17.307  15.694  10.140
63444W        W35759  13.772   7.786   4.156
63445W        W35760  40.400  31.914  14.474
63446W        W35761  27.063   2.737   0.761
63447W        W35762  13.151  16.315  10.560
63448W        W35763  43.860   7.182   1.750
63449W        W35764  12.165   2.809   3.824
63450W        W35765  10.172  36.450  11.407
63451W        W35766  40.308  29.149   4.653
63452W        W35767  41.475  41.506   1.354
63453W        W35768  35.582   5.858   0.328
63454W        W35769  26.061  39.813  14.342
63455W        W35770  18.600  10.373   0.903
63456W        W35771  21.162  36.392  13.947
63457W        W35772  43.486   7.211  14.855
63458W        W35773  20.221   6.725  12.062
63459W        W35774  33.061  40.372  11.976
63460W        W35775   9.794   4.916   3.812
63461W        W35776   6.758  19.592  11.563
63462W        W35777  32.556  35.384   1.894
63463W        W35778   7.889   9.890   1.781
63464W        W35779  39.022   6.679   0.413
63465W        W35780   4.908  22.036   4.754
63466W        W35781   7.354  43.981  10.949
63467W        W35782   0.488  43.780  14.284
63468W        W35783   3.397  31.956   1.704
63469W        W35784   7.670   1.845   3.303
63470W        W35785  17.246  19.774   0.424
63471W        W35786  17.687   7.826   1.440
63472W        W35787   4.433  10.333  10.531
63473W        W35788  42.494  31.473   4.120
63474W        W35789  42.861  42.984   3.285
63475W        W35790   7.227  41.918   2.387
63476W        W35791  11.191  21.111  12.907
63477W        W35792   5.832  31.956   2.884
63478W        W35793  28.613  44.495  11.565
63479W        W35794  18.108   6.346   0.365
63480W        W35795  17.257   0.279   1.429
63481W        W35796   0.395  19.561   2.339
63482W        W35797  37.917   1.393  12.883
63483W        W35798   8.861  19.566  11.588
63484W        W35799  10.859  27.038  12.946
63485W        W35800   0.902  25.689   1.852
63486W        W35801   8.751   2.825   2.406
63487W        W35802   1.947  34.406  10.145
63488W        W35803  13.712  14.598   4.597
63489W        W35804  31.587  35.994   4.218
63490W        W35805  44.328   0.924  13.923
63491W        W35806   1.341  11.693   3.278
63492W        W35807   9.211  40.439  11.513
63493W        W35808   5.284  17.741  10.987
63494W        W35809  34.057  32.132   1.327
63495W        W35810   7.852  29.982   0.402
63496W        W35811  16.765  29.010   3.686
63497W        W35812  17.154  35.974  12.371
63498W        W35813  20.666   2.441  13.386
63499W        W35814  26.673  37.841   0.316
63500W        W35815  40.869   0.431   2.201
63501W        W35816  20.074  37.995   0.825
63502W        W35817   8.885  37.572   2.178
63503W        W35818  39.975  16.669  10.577
63504W        W35819  40.421  17.111   1.858
63505W        W35820   6.410  22.118   2.896
63506W        W35821  41.912  23.114   0.798
63507W        W35822  31.121  23.999  12.373
63508W        W35823  36.071   2.925  10.554
63509W        W35824  13.270  40.950  12.537
63510W        W35825   1.818  10.245   1.924
63511W        W35826  27.544  37.032  10.500
63512W        W35827  41.864  11.802  11.074
63513W        W35828  16.128  38.434   3.274
63514W        W35829  28.106  36.084  14.973
63515W        W35830  26.521  13.779   0.425
63516W        W35831   4.378  14.728   0.290
63517W        W35832  12.289  12.752  14.398
63518W        W35833  18.161  21.179  10.905
63519W        W35834   5.347  28.470  13.906
63520W        W35835   5.264  33.035  11.598
63521W        W35836  41.869  20.694   3.235
63522W        W35837  38.912  19.174   2.853
63523W        W35838   6.822   6.334  14.790
63524W        W35839  24.217   0.917  14.952
63525W        W35840  38.469  11.763  11.515
63526W        W35841  10.241  30.037   2.786
63527W        W35842  14.243   3.864   4.787
63528W        W35843  22.677  13.731   0.923
63529W        W35844  10.790  20.162  10.576
63530W        W35845   8.861   9.188   2.188
63531W        W35846  30.986   4.935  14.381
63532W        W35847  23.710  26.187   0.456
63533W        W35848  38.376  17.170  14.855
63534W        W35849  16.265  16.646   3.199
63535W        W35850   8.703  15.655  11.903
63536W        W35851  36.973   0.384   1.931
63537W        W35852  10.872   1.932   1.312
63538W        W35853  16.728  39.379  13.056
63539W        W35854  17.171  27.184   1.317
63540W        W35855  24.484  13.312   2.684
63541W        W35856   0.983  27.949  13.803
63542W        W35857   0.310   9.181   1.337
63543W        W35858  15.757  22.721  11.496
63544W        W35859  37.453  10.150   0.761
63545W        W35860  31.148  13.816   2.255
63546W        W35861  22.551  27.135   3.304
63547W        W35862  24.127  32.962  11.406
63548W        W35863  39.341  13.210  13.877
63549W        W35864  28.664  40.974   4.644
63550W        W35865  21.582   8.196   4.144
63551W        W35866  19.559  11.699   0.348
63552W        W35867  37.445   2.804   1.807
63553W        W35868  42.798   4.743   4.244
63554W        W35869   8.884  39.833  14.460
63555W        W35870   7.820  13.793   2.335
63556W        W35871  16.122  34.101   3.286
63557W        W35872  32.432  32.596  12.039
63558W        W35873  12.615  11.845   1.228
63559W        W35874  16.088  31.014   3.170
63560W        W35875  14.319  21.717   0.957
63561W        W35876   8.684  26.604  14.481
63562W        W35877  31.523  20.607  10.591
63563W        W35878  31.643  24.979  11.499
63564W        W35879   6.407   3.870  12.045
63565W        W35880  28.564  34.425  14.799
63566W        W35881  12.276   0.918  12.875
63567W        W35882  22.205  43.949   3.639
63568W        W35883   6.712   9.310  10.588
63569W        W35884  44.271  21.143   4.662
63570W        W35885  44.862  30.008   1.915
63571W        W35886  23.214  28.548  12.013
63572W        W35887   0.278   7.390  14.330
63573W        W35888  21.572  12.345   0.386
63574W        W35889   5.891  32.555   4.197
63575W        W35890  23.221  27.034   1.920
63576W        W35891  18.288   3.303   0.895
63577W        W35892  23.638  26.702   4.205
63578W        W35893  21.096  29.095  14.457
63579W        W35894  28.584  44.839   0.952
63580W        W35895   0.864  40.874   3.235
63581W        W35896   1.890  19.675   2.191
63582W        W35897  38.876  19.546  10.120
63583W        W35898  10.312  29.108   5.246
63584W        W35899   0.487  44.844  12.357
63585W        W35900  32.963  15.261   1.334
63586W        W35901   1.332  38.854   4.795
63587W        W35902  23.988  33.928   2.273
63588W        W35903  37.044  34.384  12.406
63589W        W35904  18.565  38.510  10.405
63590W        W35905   4.301   1.419  10.607
63591W        W35906  32.632  13.632   4.666
63592W        W35907  24.083   3.356   1.231
63593W        W35908   5.898   1.466  13.986
63594W        W35909  29.642  17.190  11.002
63595W        W35910  20.055  21.109  11.096
63596W        W35911   0.866  37.910   3.324
63597W        W35912  36.046   3.265   4.220
63598W        W35913  38.458  22.079   1.449
63599W        W35914  36.521  36.945  14.340
63600W        W35915  34.043  29.489   1.264
63601W        W35916   7.306  19.198  10.642
63602W        W35917  10.211   0.880  11.574
63603W        W35918   0.430  32.514  10.524
63604W        W35919  14.654  24.541   0.842
63605W        W35920  24.594  13.280   0.322
63606W        W35921  43.372  33.884  11.510
63607W        W35922  21.600  42.938   3.273
63608W        W35923  25.178  18.138   2.689
63609W        W35924  26.694  32.114  13.874
63610W        W35925   5.785  39.456  13.322
63611W        W35926  31.554  19.093   0.324
63612W        W35927  11.646  32.126   4.163
63613W        W35928  38.016  37.505  12.021
63614W        W35929  36.970  20.196  13.020
63615W        W35930   6.345  15.169  13.974
63616W        W35931  37.910  24.083  10.605
63617W        W35932   6.719  42.989   1.722
63618W        W35933  43.385  44.329  13.376
63619W        W35934  13.688  39.986   1.440
63620W        W35935   4.894   6.396  10.553
63621W        W35936   4.823  44.916   4.824
63622W        W35937   3.845  14.263   2.827
63623W        W35938   5.823   4.827  10.961
63624W        W35939   5.708  27.003   4.143
63625W        W35940  11.777   2.840  13.530
63626W        W35941   7.681  31.564  14.515
63627W        W35942  22.551   5.905   5.132
63628W        W35943  32.133  32.625   1.773
63629W        W35944  43.803  42.904  14.767
63630W        W35945  41.990  40.865  12.539
63631W        W35946   5.737  24.699  14.378
63632W        W35947  38.522  20.609  13.411
63633W        W35948  34.498   1.356   0.908
63634W        W35949  25.514  38.894  10.555
63635W        W35950  27.520  17.700  11.400
63636W        W35951   1.475   8.401  13.022
63637W        W35952   3.912  19.169  12.938
63638W        W35953  42.808  31.066   3.640
63639W        W35954  16.179  15.278   1.294
63640W        W35955  21.249   7.394  10.559
63641W        W35956  26.075   5.721  12.094
63642W        W35957  31.085  28.658  13.327
63643W        W35958   7.752  12.678  13.506
63644W        W35959  37.513   0.363  10.408
63645W        W35960  35.992  33.475  10.997
63646W        W35961  29.117  31.409   0.371
63647W        W35962  13.219  44.352  11.435
63648W        W35963   5.712  23.709   1.249
63649W        W35964  37.542  32.554  13.384
63650W        W35965  13.173  19.576   1.406
63651W        W35966   2.727  27.063  14.789
63652W        W35967   8.400  13.719   2.667
63653W        W35968   6.302   9.728  11.034
63654W        W35969   2.286  41.936  14.384
63655W        W35970  25.080  42.873  13.472
63656W        W35971  13.658  44.345  11.478
63657W        W35972  38.492  23.996  10.004
63658W        W35973  16.734  30.569  12.966
63659W        W35974  28.076  20.266  12.919
63660W        W35975  26.132  21.203  10.000
63661W        W35976  12.338  43.445   1.736
63662W        W35977   4.835  18.724   0.776
63663W        W35978   2.412   4.211   3.829
63664W        W35979  22.149  16.304   2.756
63665W        W35980  34.497  42.378  14.399
63666W        W35981  42.799  42.298   2.354
63667W        W35982  34.014  32.914  14.874
63668W        W35983  38.031  14.159   2.805
63669W        W35984   4.904  32.119   1.329
63670W        W35985  41.015  12.646  11.521
63671W        W35986   8.312   1.346   1.821
63672W        W35987  35.057  37.937  13.033
63673W        W35988   1.432  39.401  14.435
63674W        W35989  21.037  13.289   3.845
63675W        W35990   6.344  22.160  13.402
63676W        W35991  30.511  40.018   2.195
63677W        W35992  36.902   5.859   0.285
63678W        W35993  29.962  40.848   2.294
63679W        W35994  40.537  16.194   0.307
63680W        W35995  19.764  34.903   5.234
63681W        W35996  13.818  23.013   1.757
63682W        W35997  20.587  38.030  13.430
63683W        W35998  32.589  43.485  13.418
63684W        W35999  10.646  41.895   2.391
63685W        W36000  21.220  21.620   1.923
63686W        W36001   8.204  34.895   3.823
63687W        W36002   7.379  20.255   1.797
63688W        W36003  15.223  32.932  13.895
63689W        W36004  18.231  22.185   0.767
63690W        W36005  43.771  42.287   1.870
63691W        W36006  20.152   0.437   2.191
63692W        W36007  14.161  31.909  14.397
63693W        W36008  26.494  28.526  12.965
63694W        W36009   1.328  15.626   4.352
63695W        W36010  22.572  13.145  12.064
63696W        W36011   4.858  44.441  11.529
63697W        W36012  32.530  15.300  12.825
63698W        W36013   7.216  19.688  11.955
63699W        W36014   3.711  18.589  10.902
63700W        W36015  30.439  34.050   3.300
63701W        W36016  36.903  22.203  14.883
63702W        W36017  28.584  44.873  14.000
63703W        W36018  21.202  22.696   0.313
63704W        W36019  25.975  32.442  11.470
63705W        W36020  41.858  42.841  12.936
63706W        W36021  43.286  26.469  14.429
63707W        W36022  39.374   4.868   4.631
63708W        W36023  30.921   9.743   1.326
63709W        W36024  34.046  12.828   2.754
63710W        W36025   0.259  35.579   4.184
63711W        W36026  27.163  34.556   0.460
63712W        W36027  31.508  31.487   0.464
63713W        W36028  15.703   3.380   4.313
63714W        W36029  43.344  26.074   0.257
63715W        W36030  26.985   0.824   1.719
63716W        W36031   2.805  39.443  11.497
63717W        W36032  23.652  12.161   2.205
63718W        W36033  26.121  27.622   1.849
63719W        W36034   0.416  33.483  11.105
63720W        W36035  33.885   6.843  13.316
63721W        W36036  34.398  25.099   4.791
63722W        W36037  38.021  19.160  13.854
63723W        W36038  19.231   9.667   0.264
63724W        W36039  29.458  19.198  14.400
63725W        W36040  39.840  13.213  13.946
63726W        W36041  38.032  26.672  12.368
63727W        W36042  31.004  11.280   3.315
63728W        W36043  18.737  23.606  10.891
63729W        W36044  32.997  24.052   1.409
63730W        W36045   0.861  28.058   0.755
63731W        W36046  33.095  19.248   4.628
63732W        W36047  39.420  18.672  12.908
63733W        W36048   1.386  24.077   1.778
63734W        W36049  23.181  18.229  14.812
63735W        W36050   1.812  14.780  14.412
63736W        W36051  10.316   7.792  12.482
63737W        W36052  39.989  42.318  12.362
63738W        W36053  21.255   8.677  13.030
63739W        W36054  23.164  33.937   0.479
63740W        W36055  25.470  35.518   4.732
63741W        W36056  30.438  14.807  12.427
63742W        W36057  16.244  33.508  14.938
63743W        W36058  23.605  32.611   2.232
63744W        W36059  34.035   6.262  12.547
63745W        W36060   4.438  23.674   3.829
63746W        W36061  20.148  38.429   4.348
63747W        W36062  37.381  16.221   2.315
63748W        W36063   1.775  27.968   3.376
63749W        W36064  13.246   1.400   4.793
63750W        W36065   3.956  21.214   9.931
63751W        W36066  33.532   5.277  14.837
63752W        W36067  10.359  12.167  14.814
63753W        W36068  32.968  12.689  12.847
63754W        W36069   7.252  17.223  11.905
63755W        W36070   4.783  14.276  10.568
63756W        W36071  19.698   4.878   4.819
63757W        W36072   8.401  34.594   3.809
63758W        W36073   3.419  40.321   2.719
63759W        W36074   1.866   2.808   0.861
63760W        W36075   5.704  25.119   0.894
63761W        W36076  40.931   1.794   3.773
63762W        W36077   3.319  35.023  11.432
63763W        W36078  13.315  41.924   2.778
63764W        W36079  24.634  41.491  11.068
63765W        W36080  39.889   4.276   4.617
63766W        W36081  14.592  40.919  11.967
63767W        W36082  40.349  15.775  12.472
63768W        W36083  42.803  42.003  13.849
63769W        W36084  15.311  22.176   0.752
63770W        W36085  10.864  43.306  10.638
63771W        W36086   0.362  37.495   2.401
63772W        W36087   4.882  12.183   3.636
63773W        W36088  12.150   9.281  14.790
63774W        W36089  27.627  13.142  12.930
63775W        W36090  35.053  29.475   2.378
63776W        W36091  27.616  32.626  13.821
63777W        W36092  28.947  23.070  11.611
63778W        W36093  12.684  40.523  11.012
63779W        W36094  24.505  23.115   1.326
63780W        W36095  24.041  15.213  11.580
63781W        W36096  27.985  24.478   3.162
63782W        W36097   9.764   5.773   3.205
63783W        W36098  29.594   0.411   2.414
63784W        W36099   2.429   7.842  12.458
63785W        W36100  16.603  17.565   3.266
63786W        W36101  28.974  16.728  11.960
63787W        W36102  36.001  13.261   2.850
63788W        W36103  20.599  17.692  10.581
63789W        W36104  11.210  16.727   9.602
63790W        W36105   3.337  11.867  10.494
63791W        W36106   8.870   9.766   3.165
63792W        W36107  21.251  11.258  14.305
63793W        W36108  41.901  13.295   1.694
63794W        W36109  28.617  15.709   0.483
63795W        W36110   4.390  26.593  11.391
63796W        W36111  17.127  29.626   4.743
63797W        W36112   0.454  41.878  13.904
63798W        W36113  21.733   0.409  14.308
63799W        W36114  10.226  35.065  14.915
63800W        W36115  32.414  34.052   1.774
63801W        W36116  44.804  44.753   0.933
63802W        W36117   9.166  27.486   1.918
63803W        W36118  41.517  28.039   1.257
63804W        W36119   3.403  10.194   3.382
63805W        W36120  18.295   6.847   4.659
63806W        W36121  35.894  14.791  12.077
63807W        W36122  29.009  13.299  13.330
63808W        W36123  32.106  35.403  10.987
63809W        W36124   2.429  42.423  13.022
63810W        W36125  44.840  27.154  11.983
63811W        W36126  20.731   8.688   2.200
63812W        W36127  14.161  38.901  13.808
63813W        W36128  33.613  31.556   1.890
63814W        W36129   5.874   1.463   3.713
63815W        W36130   6.760   7.186  11.550
63816W        W36131  33.459  13.321   4.297
63817W        W36132  18.690  39.062   0.732
63818W        W36133  37.915   9.791  12.376
63819W        W36134  27.561   2.454  14.974
63820W        W36135  28.517  10.168  10.470
63821W        W36136  11.217  38.447  12.964
63822W        W36137  32.137  34.898   2.198
63823W        W36138   7.171   2.285  11.934
63824W        W36139  19.694  18.224  14.902
63825W        W36140  17.183  15.743  10.580
63826W        W36141   6.195  34.416  13.381
63827W        W36142  17.222   2.752  14.316
63828W        W36143   3.243  35.982   2.832
63829W        W36144   3.251  16.088   2.267
63830W        W36145  28.677  36.387   3.216
63831W        W36146  19.065  15.623   1.333
63832W        W36147  22.514   4.301   3.329
63833W        W36148  42.404   0.899   4.281
63834W        W36149   7.284  27.464   0.423
63835W        W36150  23.574  17.275  11.121
63836W        W36151   4.270  29.564   1.304
63837W        W36152  30.053   3.317   5.121
63838W        W36153   0.768  39.988   3.228
63839W        W36154  11.685   2.772   2.707
63840W        W36155  27.574  41.972   0.361
63841W        W36156  11.790  28.040  11.992
63842W        W36157  23.166   6.415  12.391
63843W        W36158  27.684  34.999   4.767
63844W        W36159   5.886  35.039   3.820
63845W        W36160  16.663   0.483   1.277
63846W        W36161  10.314  27.658  14.818
63847W        W36162   7.252  35.473  13.051
63848W        W36163  35.071  33.617  13.490
63849W        W36164  23.704  41.982   4.195
63850W        W36165  29.551  10.680  11.937
63851W        W36166  32.918  10.289   0.875
63852W        W36167   3.340   0.317  12.444
63853W        W36168  30.019  13.272  11.520
63854W        W36169  14.137  34.995   4.827
63855W        W36170  23.590  44.287   0.738
63856W        W36171  20.539  20.248   4.133
63857W        W36172  11.652  22.619   0.806
63858W        W36173  24.693  36.873  12.003
63859W        W36174  35.535  44.454   2.363
63860W        W36175  29.495  27.984  14.852
63861W        W36176   3.341  39.493   3.718
63862W        W36177   2.383   0.983  14.950
63863W        W36178  21.689   9.744   3.747
63864W        W36179  31.128  42.888   1.427
63865W        W36180   6.195  41.451  12.402
63866W        W36181  25.205  33.485  12.510
63867W        W36182  14.159  37.468  14.942
63868W        W36183   5.343  15.262  11.437
63869W        W36184  19.601  18.733  14.000
63870W        W36185  10.285  12.731  10.121
63871W        W36186  13.291   6.401   4.256
63872W        W36187  44.409   9.175  12.535
63873W        W36188  36.996  33.934  11.052
63874W        W36189  30.419  43.982   0.761
63875W        W36190   2.413   3.771   3.318
63876W        W36191  36.583  21.040   5.156
63877W        W36192  12.843  33.035   0.927
63878W        W36193   7.788  28.125   0.264
63879W        W36194  19.689   4.236   4.209
63880W        W36195  31.563  17.070  11.898
63881W        W36196  34.476  21.019  10.429
63882W        W36197  11.329  37.912   4.137
63883W        W36198   9.186  42.832  14.895
63884W        W36199  24.659  39.543   0.901
63885W        W36200  27.472  33.888  14.448
63886W        W36201  32.573  11.747  14.927
63887W        W36202  17.567  43.794   0.918
63888W        W36203   3.316  41.946  12.899
63889W        W36204  31.073  42.300  14.378
63890W        W36205   2.371  21.539  11.069
63891W        W36206  25.604  26.694  13.015
63892W        W36207  20.618  30.126  10.979
63893W        W36208  44.294  43.405  13.032
63894W        W36209   7.334  29.009  11.942
63895W        W36210  30.447  26.656   4.676
63896W        W36211  21.731  41.435   3.683
63897W        W36212  42.938   4.233   2.797
63898W        W36213  24.075  22.995  11.046
63899W        W36214  24.177  21.221   2.224
63900W        W36215  36.866  36.565   4.771
63901W        W36216  16.268  30.544   4.735
63902W        W36217  13.765  21.187   4.328
63903W        W36218  20.139  26.506   1.226
63904W        W36219  31.571   4.705   3.269
63905W        W36220  12.753  42.449  14.779
63906W        W36221  39.057  33.414   1.717
63907W        W36222   4.248  26.174  12.491
63908W        W36223   6.741  38.563  14.415
63909W        W36224  32.912  37.031   1.350
63910W        W36225  44.797   7.299   4.615
63911W        W36226  28.119  41.998  14.945
63912W        W36227  21.703  27.106  11.611
63913W        W36228  41.320  25.683  14.378
63914W        W36229  33.021  39.901  13.392
63915W        W36230  38.037  32.608  11.542
63916W        W36231  38.927   4.871   0.896
63917W        W36232  42.778  41.301   1.868
63918W        W36233   7.394  24.499   0.386
63919W        W36234  24.618  15.095  13.442
63920W        W36235  16.194  18.104   4.603
63921W        W36236  15.669  18.263  14.492
63922W        W36237  29.628  37.888  14.765
63923W        W36238   1.276   3.883   4.163
63924W        W36239  38.876  20.090   1.368
63925W        W36240  25.175  22.517  13.357
63926W        W36241   4.930  10.322  14.969
63927W        W36242  11.328  44.409   2.740
63928W        W36243  16.705  33.090  14.393
63929W        W36244  20.161  38.339   0.280
63930W        W36245   3.293  16.245  10.930
63931W        W36246  36.508  34.907  11.407
63932W        W36247  15.129  39.484   1.904
63933W        W36248  39.811  44.321   1.868
63934W        W36249   9.728  18.579  11.939
63935W        W36250  20.573  30.953  12.978
63936W        W36251  22.164  24.685  10.561
63937W        W36252  10.647   4.843  10.982
63938W        W36253   9.376  22.037   2.318
63939W        W36254  30.993  26.556   1.319
63940W        W36255  43.289  37.900  14.811
63941W        W36256  28.577  25.622   1.853
63942W        W36257  36.439  11.347  11.081
63943W        W36258  29.945  29.093   4.724
63944W        W36259  21.245  23.022  12.890
63945W        W36260  43.869  19.742   4.758
63946W        W36261  36.528  22.064   3.836
63947W        W36262  43.327  14.832  11.943
63948W        W36263  30.007  27.192  10.893
63949W        W36264  16.666  42.958   2.202
63950W        W36265  40.846  27.976   4.824
63951W        W36266  16.730  13.637   0.365
63952W        W36267  18.658  10.138  12.522
63953W        W36268  38.381  16.752  14.507
63954W        W36269   2.952  16.286  13.002
63955W        W36270  33.886  27.948   2.785
63956W        W36271  32.966  27.544   0.744
63957W        W36272  10.139  12.794   2.304
63958W        W36273  19.069  39.386   1.736
63959W        W36274  18.716  14.788  12.085
63960W        W36275  43.383  34.121  10.559
63961W        W36276  13.787  16.669   0.363
63962W        W36277  42.854  41.498   1.441
63963W        W36278  42.337  42.305   2.866
63964W        W36279   0.383  31.096   4.646
63965W        W36280   6.707  28.015   0.918
63966W        W36281  28.025  15.166  10.612
63967W        W36282  11.819  37.975   3.193
63968W        W36283   1.960  33.095   0.738
63969W        W36284  15.245   2.903   4.629
63970W        W36285  25.016  29.067  11.068
63971W        W36286  13.189  39.984  10.596
63972W        W36287  40.959  12.292   0.831
63973W        W36288  29.109  10.148   0.818
63974W        W36289  26.969  28.945  13.496
63975W        W36290   0.848  33.437  10.481
63976W        W36291  21.668   2.811  11.544
63977W        W36292  31.090  41.807   1.702
63978W        W36293  36.051  25.996   4.623
63979W        W36294  11.625  39.021   3.629
63980W        W36295   0.275  31.441  10.524
63981W        W36296  22.030  36.082   3.346
63982W        W36297  19.639  16.768   1.291
63983W        W36298  35.990   1.799  12.382
63984W        W36299  27.052   6.693   3.220
63985W        W36300  35.012  36.392   2.189
63986W        W36301  34.903   1.894  13.339
63987W        W36302  26.978  37.885  14.460
63988W        W36303  43.863  25.996   0.880
63989W        W36304  17.611  24.069   1.884
63990W        W36305  20.582   9.302   1.391
63991W        W36306  28.174  36.084   3.341
63992W        W36307  44.885  11.714   0.383
63993W        W36308  27.162   6.294   0.814
63994W        W36309   5.248  24.982  13.980
63995W        W36310   7.669   4.310   0.967
63996W        W36311  15.770  21.241   4.746
63997W        W36312  27.983  41.982   2.851
63998W        W36313  44.770  35.016   1.724
63999W        W36314  31.632  38.509   2.365
64000W        W36315  24.037   3.728  13.983
64001W        W36316   9.769  22.207   4.687
64002W        W36317  32.017   1.802  13.058
64003W        W36318  16.181   1.872  14.808
64004W        W36319   3.887  18.052   0.913
64005W        W36320  34.468  31.039   3.858
64006W        W36321  31.020  33.027  12.090
64007W        W36322  19.612  14.144  10.507
64008W        W36323  18.690  34.052  11.899
64009W        W36324  23.111  24.706  11.857
64010W        W36325  23.213  25.194   0.249
64011W        W36326  34.543   0.312  12.063
64012W        W36327  33.438   0.889   1.389
64013W        W36328  29.130  24.616  12.389
64014W        W36329  18.085  13.709  13.911
64015W        W36330  11.360  32.478  14.278
64016W        W36331   2.356  43.821  11.436
64017W        W36332  25.701  18.736  11.506
64018W        W36333  25.006  35.401  12.966
64019W        W36334  12.287  30.442   3.241
64020W        W36335  20.589  44.264   3.715
64021W        W36336   7.722  20.036   4.788
64022W        W36337  10.373  36.570  10.615
64023W        W36338  33.893  44.399  14.420
64024W        W36339  17.144  38.371   4.164
64025W        W36340  22.033   1.410  12.445
64026W        W36341  39.981  29.427   2.293
64027W        W36342   2.757  35.447   1.426
64028W        W36343   2.911  18.628  10.505
64029W        W36344  24.717  37.947   3.307
64030W        W36345  12.132  22.068   0.771
64031W        W36346  15.719  22.022   1.791
64032W        W36347   7.362   1.439   2.338
64033W        W36348   5.895   2.273   1.925
64034W        W36349  21.639  17.177  14.397
64035W        W36350  27.059  12.311   4.335
64036W        W36351   9.685  33.066  10.970
64037W        W36352  28.937  44.977  14.873
64038W        W36353  37.367  36.516   1.249
64039W        W36354  24.693   8.736  14.402
64040W        W36355  18.573  44.357  14.840
64041W        W36356   8.772  38.552  11.071
64042W        W36357   8.850  27.197  14.003
64043W        W36358  22.183  10.637   1.799
64044W        W36359  23.672  11.153  12.927
64045W        W36360  10.797  14.708   0.794
64046W        W36361   4.209  11.691   4.693
64047W        W36362  31.534  21.127   5.196
64048W        W36363  29.533  36.956  11.931
64049W        W36364  41.398  11.294   0.735
64050W        W36365   2.750   3.899   2.321
64051W        W36366  38.417  41.865   0.775
64052W        W36367  17.091  20.722   0.748
64053W        W36368  40.811   4.276  12.937
64054W        W36369  17.743  34.417   3.330
64055W        W36370  38.022   9.155  11.896
64056W        W36371  15.604  13.319  12.922
64057W        W36372  28.463   0.342   3.193
64058W        W36373  22.011  29.534   2.270
64059W        W36374  18.235   4.445   0.403
64060W        W36375  35.429  24.499  12.837
64061W        W36376   9.200   2.740   1.402
64062W        W36377  36.937   8.769   3.339
64063W        W36378  38.476  38.366   1.864
64064W        W36379  43.381   8.899   0.471
64065W        W36380  31.899  42.942   0.852
64066W        W36381  19.753  24.613  11.522
64067W        W36382  40.402  36.031   0.772
64068W        W36383  13.344  27.654   2.720
64069W        W36384  26.079   4.814   1.248
64070W        W36385   4.331  42.462  11.463
64071W        W36386  19.744   6.902  14.776
64072W        W36387   5.810  19.259   1.858
64073W        W36388  28.635  37.442   0.449
64074W        W36389  10.283  39.360   3.326
64075W        W36390  17.563  36.985   2.335
64076W        W36391   4.425  42.813   4.770
64077W        W36392  13.273  21.577   0.376
64078W        W36393  38.530  17.671  10.517
64079W        W36394  35.945  17.226  11.465
64080W        W36395   2.895  39.826   1.399
64081W        W36396  29.459  10.871  11.061
64082W        W36397  38.985  42.341   2.374
64083W        W36398   7.228  12.189   0.244
64084W        W36399  15.802  36.892  11.859
64085W        W36400   2.349   4.221   4.837
64086W        W36401  44.797   9.210   1.840
64087W        W36402  36.416  31.542  13.025
64088W        W36403   8.295  23.605   1.283
64089W        W36404   6.285  20.604  11.468
64090W        W36405  34.105  15.271  13.988
64091W        W36406  19.723  30.975   0.466
64092W        W36407  23.048  35.520  10.958
64093W        W36408  34.110  19.776   3.771
64094W        W36409   2.762   4.352   4.775
64095W        W36410  27.959  21.694   9.988
64096W        W36411  26.137   4.301  12.978
64097W        W36412  21.195   4.405  10.556
64098W        W36413   2.262  23.721  11.406
64099W        W36414   4.221  42.458   2.355
64100W        W36415   0.420  21.017  14.321
64101W        W36416  36.475  43.883  11.397
64102W        W36417  44.870  41.937  14.282
64103W        W36418  34.398  29.989   3.182
64104W        W36419  37.857  37.831  11.462
64105W        W36420  27.046  26.998  14.337
64106W        W36421  27.530   6.214   9.946
64107W        W36422  27.163  23.619   2.871
64108W        W36423  25.607   6.856   2.896
64109W        W36424  16.253  34.577  14.762
64110W        W36425  20.601  28.178   3.250
64111W        W36426  21.192  39.891  11.993
64112W        W36427  27.497  31.145   9.517
64113W        W36428  27.117  20.158   0.932
64114W        W36429  26.135  21.595   3.798
64115W        W36430  32.110  35.896  12.873
64116W        W36431  44.416  28.000   4.835
64117W        W36432  20.724  33.460  11.437
64118W        W36433  20.564   6.378   1.445
64119W        W36434  28.095  32.426  13.373
64120W        W36435  17.674  41.036   2.833
64121W        W36436  44.399  14.331  14.322
64122W        W36437  23.122  20.142   1.249
64123W        W36438   4.892   0.789   3.338
64124W        W36439  20.037  29.080   2.362
64125W        W36440  14.733   5.305   4.214
64126W        W36441  11.314  26.483  13.466
64127W        W36442   6.389  31.019   2.667
64128W        W36443  27.129  32.514   4.273
64129W        W36444  35.533  38.329   2.328
64130W        W36445  40.548  12.707  14.854
64131W        W36446   3.344  27.129   4.640
64132W        W36447   2.848  38.860   3.270
64133W        W36448  20.684   8.309   9.658
64134W        W36449  24.106  38.409   3.284
64135W        W36450  20.065  39.927   2.899
64136W        W36451  33.431  38.459   0.822
64137W        W36452  29.105  34.063   5.783
64138W        W36453  19.632  17.781  11.949
64139W        W36454  35.446  42.505   2.219
64140W        W36455  17.228   6.852  11.086
64141W        W36456  40.822  30.477  14.846
64142W        W36457  37.406  29.018  13.307
64143W        W36458   3.378  22.681   2.290
64144W        W36459  36.090  31.912  12.553
64145W        W36460   0.315   0.257  11.865
64146W        W36461  31.993  33.584   0.765
64147W        W36462  24.565  20.194   0.726
64148W        W36463   5.410   0.785   0.443
64149W        W36464  21.581   3.316  11.902
64150W        W36465  42.475   0.841  11.972
64151W        W36466  40.957  39.532  12.854
64152W        W36467   1.871  25.494   1.218
64153W        W36468  41.916  33.557  13.826
64154W        W36469   9.766   7.252   4.600
64155W        W36470  29.077  36.420  14.954
64156W        W36471   2.779  38.919   0.948
64157W        W36472  25.107  35.974  10.917
64158W        W36473  11.849   6.222  12.539
64159W        W36474  27.603   0.390  10.618
64160W        W36475  20.072  22.718   1.236
64161W        W36476  21.244  43.991   3.844
64162W        W36477  29.447  43.785   4.713
64163W        W36478   1.901  13.144   1.752
64164W        W36479  44.957  42.884   2.224
64165W        W36480  16.276   0.320  14.026
64166W        W36481   4.756  25.135  13.358
64167W        W36482  44.977  40.809  11.067
64168W        W36483   0.353   0.789  12.854
64169W        W36484  27.178  41.511  10.638
64170W        W36485  13.311   7.277   4.658
64171W        W36486   1.310   4.945  13.452
64172W        W36487   4.716  33.459   2.295
64173W        W36488  32.590  17.795   3.745
64174W        W36489  31.073   3.262   2.416
64175W        W36490  12.822   4.324   4.271
64176W        W36491  28.994  30.047   0.734
64177W        W36492  11.732   5.393   1.351
64178W        W36493  43.923  11.271   0.829
64179W        W36494  43.875  39.387  10.914
64180W        W36495   0.969  22.050   2.724
64181W        W36496  44.809  17.121   3.169
64182W        W36497   9.221  30.580  13.985
64183W        W36498   6.807  32.090  11.051
64184W        W36499  17.696   4.439   2.414
64185W        W36500  11.662   0.435   4.268
64186W        W36501  42.002   8.177   1.257
64187W        W36502  38.497  24.229   3.671
64188W        W36503  29.119  41.353   2.291
64189W        W36504  35.389   5.251   0.280
64190W        W36505  17.303  36.992   2.342
64191W        W36506  16.627  41.891  13.845
64192W        W36507  34.088   9.340  11.497
64193W        W36508  27.609  30.476  13.825
64194W        W36509  29.432   3.820  10.580
64195W        W36510  22.192  39.847   2.190
64196W        W36511  18.175  26.689   2.746
64197W        W36512  34.954   0.856  13.311
64198W        W36513  38.863  36.357   1.738
64199W        W36514  32.053  20.134  11.380
64200W        W36515  37.054  42.960   1.779
64201W        W36516  30.151   5.694  13.393
64202W        W36517  40.836  40.818   3.284
64203W        W36518  29.998  12.730  12.943
64204W        W36519  28.638  28.100  13.888
64205W        W36520  41.029  43.966  11.371
64206W        W36521  40.938  27.193   0.383
64207W        W36522  11.177  22.197  13.407
64208W        W36523   3.893   8.891  11.961
64209W        W36524  24.639   1.848   0.303
64210W        W36525  22.163  44.987  13.545
64211W        W36526  10.669   2.847  11.595
64212W        W36527  20.644  21.241   1.732
64213W        W36528  27.166  16.081   3.738
64214W        W36529  32.978  16.167  11.382
64215W        W36530   9.389  35.007  12.579
64216W        W36531   0.456  34.414   5.224
64217W        W36532  10.817   7.843   3.648
64218W        W36533  32.481   9.826   3.276
64219W        W36534  25.127  27.113   4.265
64220W        W36535  24.723   9.167   1.800
64221W        W36536   7.361  37.404  13.365
64222W        W36537  22.120  29.054   0.342
64223W        W36538  15.651  14.166  12.069
64224W        W36539   6.711   0.455  13.357
64225W        W36540   4.872  18.279   4.113
64226W        W36541   6.830   4.257  14.387
64227W        W36542  33.590  27.953  12.508
64228W        W36543  26.532  23.504   1.404
64229W        W36544  44.322  29.486  10.496
64230W        W36545  29.452  29.625   4.788
64231W        W36546  27.122  12.156  12.492
64232W        W36547   9.305  11.148   3.252
64233W        W36548  21.062  18.658   4.124
64234W        W36549  43.896  20.192  11.933
64235W        W36550  36.409  20.054   2.402
64236W        W36551  34.450  22.717   2.310
64237W        W36552  36.550  19.679  12.938
64238W        W36553  10.787  18.693   9.974
64239W        W36554  19.275   1.938  13.008
64240W        W36555  37.369   5.798  11.479
64241W        W36556   4.873  38.875  12.014
64242W        W36557  14.643  40.012  11.891
64243W        W36558   6.882   6.856   4.823
64244W        W36559  22.547  18.198   0.780
64245W        W36560   4.898  41.527   2.261
64246W        W36561  14.672  18.116  10.899
64247W        W36562  18.554  14.705  12.470
64248W        W36563  43.867  27.041   1.813
64249W        W36564  26.457  37.393   0.916
64250W        W36565  14.777   5.869   4.756
64251W        W36566  26.551  16.288  13.458
64252W        W36567  34.107  35.032   2.287
64253W        W36568  26.093  27.490  12.436
64254W        W36569  18.659  43.831   2.357
64255W        W36570  17.657  41.815   1.737
64256W        W36571  26.514  35.458   0.828
64257W        W36572   9.155  32.396  12.527
64258W        W36573  25.537  40.939   3.162
64259W        W36574  25.212   7.389  12.051
64260W        W36575  44.976   9.175   2.273
64261W        W36576  29.964  35.958   1.912
64262W        W36577  10.299  18.743   1.834
64263W        W36578  14.263  27.962   5.177
64264W        W36579   5.283  44.873   2.687
64265W        W36580   6.205  12.226  12.506
64266W        W36581  11.314   8.847  14.331
64267W        W36582  16.570  37.394  14.879
64268W        W36583  39.333   8.286  11.033
64269W        W36584  18.108   5.798  14.365
64270W        W36585  20.652   8.250   1.752
64271W        W36586   9.350   8.294   4.629
64272W        W36587  21.626  41.334   4.301
64273W        W36588  35.545  15.813  11.996
64274W        W36589   0.259  14.174  12.512
64275W        W36590  33.929   7.778  10.511
64276W        W36591  21.118  42.483  12.474
64277W        W36592  19.775   6.284  11.971
64278W        W36593  44.461  34.556  11.119
64279W        W36594  14.609  28.650   2.287
64280W        W36595  31.423  24.032   4.681
64281W        W36596  16.684  37.576   1.227
64282W        W36597   1.733  41.388  12.426
64283W        W36598   6.801  38.348  11.553
64284W        W36599  39.489   7.842  12.891
64285W        W36600  44.502  26.188   0.421
64286W        W36601  35.517  34.922   3.860
64287W        W36602  24.169   4.385   3.863
64288W        W36603   4.699   0.314   3.205
64289W        W36604  23.546  18.750  10.615
64290W        W36605  39.435   0.341  14.499
64291W        W36606  20.673  18.063   2.869
64292W        W36607  23.238   9.746   3.850
64293W        W36608  40.484  11.173   0.738
64294W        W36609  21.252   7.908   3.751
64295W        W36610  13.259  30.613   1.262
64296W        W36611   0.419  37.886  12.884
64297W        W36612  13.804  27.491  11.970
64298W        W36613   2.858  17.695  14.958
64299W        W36614  44.498  32.968   4.350
64300W        W36615  35.457  41.314  12.916
64301W        W36616   3.340  19.199   2.283
64302W        W36617  33.892  19.187   2.770
64303W        W36618  23.986  21.039   3.356
64304W        W36619  19.216   6.768  11.454
64305W        W36620  44.839  18.678   0.895
64306W        W36621  23.017  22.241   2.815
64307W        W36622  31.494  35.048  13.952
64308W        W36623  21.221  24.170   0.260
64309W        W36624   1.731  34.401   9.563
64310W        W36625  34.077   1.297  10.416
64311W        W36626  26.514  40.428  13.803
64312W        W36627  42.338  10.871  14.493
64313W        W36628  35.982  33.423  13.863
64314W        W36629  20.239  32.042  10.418
64315W        W36630  18.694  38.969   2.207
64316W        W36631  19.576   0.786   3.687
64317W        W36632  29.960  23.676  12.477
64318W        W36633   1.854  23.190  14.315
64319W        W36634  23.564  20.600  12.964
64320W        W36635  37.375  29.038  14.328
64321W        W36636   8.678   3.246   3.648
64322W        W36637  14.337   4.437   1.769
64323W        W36638   0.813   7.417  12.907
64324W        W36639  44.970   5.927   4.599
64325W        W36640   2.449  24.061  11.018
64326W        W36641  26.672  14.699   1.273
64327W        W36642   9.281   4.719  11.073
64328W        W36643  32.998  43.946   2.734
64329W        W36644   9.663  36.550   0.385
64330W        W36645   5.750  36.888  14.470
64331W        W36646   4.356  28.576   4.323
64332W        W36647  28.465  27.688   1.321
64333W        W36648   4.251  28.159   4.208
64334W        W36649  12.191  28.108  11.890
64335W        W36650  32.535  26.552   0.744
64336W        W36651  15.150  36.992   1.870
64337W        W36652  16.706  35.436  11.118
64338W        W36653  42.975  38.456   4.627
64339W        W36654   3.375  39.809  13.340
64340W        W36655   6.370  31.584  14.788
64341W        W36656  20.567  40.940  10.550
64342W        W36657  44.341  35.928   3.811
64343W        W36658  42.348   4.835   1.373
64344W        W36659  10.264  13.631  10.576
64345W        W36660  14.820  10.812   1.897
64346W        W36661  11.178  11.223   0.279
64347W        W36662  29.935  13.612   3.691
64348W        W36663  30.954  39.928   4.773
64349W        W36664  44.259  33.965   3.332
64350W        W36665   1.268  39.878  12.520
64351W        W36666   7.757   7.908  13.033
64352W        W36667  30.982  34.044   0.856
64353W        W36668  13.831  15.091   1.710
64354W        W36669  38.014  40.801   0.827
64355W        W36670  26.058  42.375  12.921
64356W        W36671   8.273   8.708  14.287
64357W        W36672  13.248  26.504  13.851
64358W        W36673   9.171  28.470   0.941
64359W        W36674  16.108  27.512  10.636
64360W        W36675  11.748  18.618   4.255
64361W        W36676  25.561  44.451   1.224
64362W        W36677   8.354  27.078   2.672
64363W        W36678  17.647  23.621  13.876
64364W        W36679  10.657  18.177  12.414
64365W        W36680  11.713  24.539   2.740
64366W        W36681  11.342   5.865  10.485
64367W        W36682  43.989   5.764   1.438
64368W        W36683  35.863   9.201   4.268
64369W        W36684   9.808  19.223   3.204
64370W        W36685   1.240  13.273   0.780
64371W        W36686  44.859  29.487   1.336
64372W        W36687  36.897  44.845   4.715
64373W        W36688  31.462  11.734   2.357
64374W        W36689  27.448  39.454  14.792
64375W        W36690  10.783  23.693  13.547
64376W        W36691  28.942  42.856  13.396
64377W        W36692  44.358  43.814   1.237
64378W        W36693  32.472  18.111   1.306
64379W        W36694  30.913  15.820   2.192
64380W        W36695  11.745   6.900  12.953
64381W        W36696   7.303  32.488   0.327
64382W        W36697   8.715  13.245   0.446
64383W        W36698  14.285  37.883  14.908
64384W        W36699  21.549  27.093   0.389
64385W        W36700  25.135  20.668  10.577
64386W        W36701  22.594  15.607  12.828
64387W        W36702   7.681  28.110  10.896
64388W        W36703   0.426   6.226   3.160
64389W        W36704   0.348   7.334   4.695
64390W        W36705  40.470   2.394   0.774
64391W        W36706  39.879  43.884  14.783
64392W        W36707   9.179  21.587  14.798
64393W        W36708  27.453   6.217   3.382
64394W        W36709  33.022  42.795   2.708
64395W        W36710  31.046   6.871   2.416
64396W        W36711  34.952   8.296  13.356
64397W        W36712  13.197  16.180  14.025
64398W        W36713   7.737   8.370   1.258
64399W        W36714  42.414   4.755  13.397
64400W        W36715   5.378   4.302   2.294
64401W        W36716   0.742   2.431   0.263
64402W        W36717  36.050   4.336  13.951
64403W        W36718  43.798  32.396  12.969
64404W        W36719  32.473   2.882  14.342
64405W        W36720  15.084  42.294   3.322
64406W        W36721  27.073   6.427  13.462
64407W        W36722  23.518  15.163   3.764
64408W        W36723  20.087  44.427  11.482
64409W        W36724  23.156  37.362  14.869
64410W        W36725  26.190  25.036  12.349
64411W        W36726   7.713  16.223  13.019
64412W        W36727  27.598   4.381   3.671
64413W        W36728  27.639   3.727  12.369
64414W        W36729  28.930  39.434   0.359
64415W        W36730  41.806  35.580   1.805
64416W        W36731   1.445  23.990   0.861
64417W        W36732  16.281  12.268  12.095
64418W        W36733   9.232  10.806  11.451
64419W        W36734  34.537  16.233   2.899
64420W        W36735  36.498   3.256  12.958
64421W        W36736  24.158  11.204  10.474
64422W        W36737   5.809  39.980   2.183
64423W        W36738   9.311   2.747  14.971
64424W        W36739  12.150  38.870  14.970
64425W        W36740  21.148  20.036  13.045
64426W        W36741  10.668   0.303   2.331
64427W        W36742   9.711   6.417   0.951
64428W        W36743   5.386  20.534  14.794
64429W        W36744  28.085  35.560  14.903
64430W        W36745  20.554  30.555  14.314
64431W        W36746  13.289  15.786  13.792
64432W        W36747   3.305  23.514   4.216
64433W        W36748   9.308   4.284   4.738
64434W        W36749  38.924  15.094  14.785
64435W        W36750  15.630  27.982  12.505
64436W        W36751  16.286  23.654   1.736
64437W        W36752  30.122  11.775  13.368
64438W        W36753  28.601  14.619  13.369
64439W        W36754  13.818  11.134   3.380
64440W        W36755  40.812  43.986  13.433
64441W        W36756  30.488  38.439   0.440
64442W        W36757  19.079  29.027  10.465
64443W        W36758  31.899   1.476   1.410
64444W        W36759   4.772   1.788  10.154
64445W        W36760   5.773   9.681  14.296
64446W        W36761  11.159   3.885  13.823
64447W        W36762   5.407  37.022   4.677
64448W        W36763  28.963  23.073   4.263
64449W        W36764   7.811  34.031  11.451
64450W        W36765  28.977  40.403   4.607
64451W        W36766  29.111  34.874  14.329
64452W        W36767   9.259  41.428   1.264
64453W        W36768  43.820  18.686  12.001
64454W        W36769  40.957   8.335  14.435
64455W        W36770  16.604  15.591  11.449
64456W        W36771  39.974   7.195  11.469
64457W        W36772  41.972  44.266   2.672
64458W        W36773  38.917  27.546   0.250
64459W        W36774  15.234  25.004  14.455
64460W        W36775   7.682  18.545  11.000
64461W        W36776  12.643  41.324   2.410
64462W        W36777   1.442  34.442  10.525
64463W        W36778  40.027  23.997  12.049
64464W        W36779  20.566  36.490   0.780
64465W        W36780  23.143  39.353   1.814
64466W        W36781  40.047  17.699  11.015
64467W        W36782  38.330  33.899  10.551
64468W        W36783  26.694  26.073   1.275
64469W        W36784  39.934   8.293   4.171
64470W        W36785   1.268   8.698   1.811
64471W        W36786  32.453   8.670   0.806
64472W        W36787  36.561  12.186   0.728
64473W        W36788  29.940  24.611  13.897
64474W        W36789  16.762   5.404   1.847
64475W        W36790  35.600  14.212  13.529
64476W        W36791   8.897  38.553  10.129
64477W        W36792  23.135  17.761   4.294
64478W        W36793  41.918  15.625  14.018
64479W        W36794   1.863   9.283   5.111
64480W        W36795   8.762  12.699   3.250
64481W        W36796   0.899  24.699  13.900
64482W        W36797  39.510   2.246   1.824
64483W        W36798   3.332   3.802  10.435
64484W        W36799  41.300   7.262  12.970
64485W        W36800  10.189   9.368   3.162
64486W        W36801  15.790  41.344   0.302
64487W        W36802  20.044  19.103   4.255
64488W        W36803  20.532   0.928   3.274
64489W        W36804  40.003   3.937   2.411
64490W        W36805  35.517  23.590   0.854
64491W        W36806  24.174  26.077   2.198
64492W        W36807  31.637  17.681   4.114
64493W        W36808  39.550  34.068  11.863
64494W        W36809  36.561  37.457  14.465
64495W        W36810  19.244  20.613   1.829
64496W        W36811   2.915  40.356   2.832
64497W        W36812  44.492  24.675   4.737
64498W        W36813  12.134  10.697   4.792
64499W        W36814  31.444   9.700  12.890
64500W        W36815   9.664  16.239   0.259
64501W        W36816   9.742  20.711   1.852
64502W        W36817  25.013  42.431   0.337
64503W        W36818  30.439   9.330  12.561
64504W        W36819   7.222  21.068  11.507
64505W        W36820   5.370  13.313   4.760
64506W        W36821  36.352   9.187   0.451
64507W        W36822  42.466  39.473   4.771
64508W        W36823  13.643   7.360   1.846
64509W        W36824  14.689  44.961   3.304
64510W        W36825   9.767  22.565  13.027
64511W        W36826  22.239  10.856  11.463
64512W        W36827  30.477  17.264   4.831
64513W        W36828  15.176  36.890  13.327
64514W        W36829  37.413  44.907  14.438
64515W        W36830  17.201  21.104  12.472
64516W        W36831  11.625  39.558   4.687
64517W        W36832  10.173  42.456  13.892
64518W        W36833  26.626  14.309  12.094
64519W        W36834  20.254   3.815   4.634
64520W        W36835   5.199  24.192   1.276
64521W        W36836   9.739  17.162  12.413
64522W        W36837  30.494  42.816  14.831
64523W        W36838  42.443  37.344   2.684
64524W        W36839  13.803  26.019  10.530
64525W        W36840  38.561  35.505  11.570
64526W        W36841  38.537  10.349  14.376
64527W        W36842  42.816   0.820  14.926
64528W        W36843  44.897  30.521   3.202
64529W        W36844   8.329  19.141  14.278
64530W        W36845   2.902  40.335  13.908
64531W        W36846  41.951   7.839  13.951
64532W        W36847  43.338   1.307   4.328
64533W        W36848  37.868  42.393   3.192
64534W        W36849  43.005  35.108   1.835
64535W        W36850  38.015  40.910   4.209
64536W        W36851  26.638   7.417  13.471
64537W        W36852  43.308  42.801  12.043
64538W        W36853  30.635  10.296  10.098
64539W        W36854  44.974  43.408  12.977
64540W        W36855   2.878  12.165  14.988
64541W        W36856  34.069  23.552   1.899
64542W        W36857  33.416   8.229  10.145
64543W        W36858  20.650  12.261  13.411
64544W        W36859  36.560  44.998  12.472
64545W        W36860  18.217   7.752   1.869
64546W        W36861  35.853   4.701   1.779
64547W        W36862  20.070  24.987   2.818
64548W        W36863  39.499   5.364   0.426
64549W        W36864  12.836  13.272  10.461
64550W        W36865   6.825   4.912   4.193
64551W        W36866  11.320   6.181   0.810
64552W        W36867  24.147  24.613   0.412
64553W        W36868   8.871  28.943  14.971
64554W        W36869  14.278   8.838   2.381
64555W        W36870  38.424  15.221  13.892
64556W        W36871  11.686  31.415   3.386
64557W        W36872  34.413  24.097  13.459
64558W        W36873  32.592  24.601   2.664
64559W        W36874  14.313  19.071   0.820
64560W        W36875  23.590   0.252   0.419
64561W        W36876  29.134  23.051   0.379
64562W        W36877  41.955  11.647  12.081
64563W        W36878  34.600  10.792  12.424
64564W        W36879  34.917  13.656  10.566
64565W        W36880   3.445  20.534  10.971
64566W        W36881   2.779  11.765   0.399
64567W        W36882  27.074  14.168  12.500
64568W        W36883  37.846  33.101  13.411
64569W        W36884  42.978  27.557  10.560
64570W        W36885  40.398   0.856  14.968
64571W        W36886  15.198  19.239  10.952
64572W        W36887  16.186  32.423  11.994
64573W        W36888  18.769   5.877  13.964
64574W        W36889  19.592  26.533  11.082
64575W        W36890  27.634  13.300   0.759
64576W        W36891  11.298  39.854  10.961
64577W        W36892  12.256   6.894  12.858
64578W        W36893  25.611  18.158   2.662
64579W        W36894  29.517  40.402  14.774
64580W        W36895  37.015  30.971   1.225
64581W        W36896  21.064  14.256  11.966
64582W        W36897  34.449  33.976  14.783
64583W        W36898  39.938  10.362   1.722
64584W        W36899   4.224  42.824  13.828
64585W        W36900  19.114  22.145   1.423
64586W        W36901   6.307  38.522  13.365
64587W        W36902  39.522  40.927  12.893
64588W        W36903  26.560  35.881   1.339
64589W        W36904  17.605  19.662   3.703
64590W        W36905  42.327  41.963   0.955
64591W        W36906  27.603  18.561  10.499
64592W        W36907   6.271  15.681  13.489
64593W        W36908   8.844   8.870   3.799
64594W        W36909  39.908  26.170   5.632
64595W        W36910  18.675   0.865   2.850
64596W        W36911  14.279   8.213   3.291
64597W        W36912  39.527  24.601   0.453
64598W        W36913  26.549  31.142   2.694
64599W        W36914  10.793  29.657  12.578
64600W        W36915  26.519  19.138   2.856
64601W        W36916  41.861   3.760   0.887
64602W        W36917  42.947  11.303  14.327
64603W        W36918  13.281  35.497  10.966
64604W        W36919   8.362  33.433  13.360
64605W        W36920  35.592  30.522   0.378
64606W        W36921  12.184  34.119  11.550
64607W        W36922  32.499  15.743  13.898
64608W        W36923  11.317  22.570   4.746
64609W        W36924  28.571  41.485  14.288
64610W        W36925  41.526  28.659  13.996
64611W        W36926  22.137  24.064   3.186
64612W        W36927  32.634  13.823   0.841
64613W        W36928  17.784  23.698  14.767
64614W        W36929  37.016   4.386   2.848
64615W        W36930   1.763  11.214  13.459
64616W        W36931  29.935  39.322   3.803
64617W        W36932  27.487  20.652  10.927
64618W        W36933  40.528  21.574   2.258
64619W        W36934  21.703   1.742  14.295
64620W        W36935  17.096  37.928   3.211
64621W        W36936  31.902  19.639  11.020
64622W        W36937  36.045   1.879  14.512
64623W        W36938   3.866  14.133   1.817
64624W        W36939  27.628  40.545   3.257
64625W        W36940   8.701   9.797  11.987
64626W        W36941  15.251  12.628  14.464
64627W        W36942  41.967  22.021   1.868
64628W        W36943  17.703  11.293  10.633
64629W        W36944  17.595  30.137   3.165
64630W        W36945  35.413   4.364  11.099
64631W        W36946  22.744   2.395  14.908
64632W        W36947   5.710  32.998   2.667
64633W        W36948   7.897  23.047   0.412
64634W        W36949  23.141  15.303  13.921
64635W        W36950  19.223  36.445   0.478
64636W        W36951  36.860  14.325  13.435
64637W        W36952  29.663  19.596  14.448
64638W        W36953  41.500  23.124  14.468
64639W        W36954  39.363   1.246  10.990
64640W        W36955   7.394  42.898  13.854
64641W        W36956   6.859  28.527   2.671
64642W        W36957   7.673  37.861  12.464
64643W        W36958  42.798  23.688   2.199
64644W        W36959  10.196  37.443  11.932
64645W        W36960  20.214  24.514   4.157
64646W        W36961  44.784   2.407  14.485
64647W        W36962  11.680  22.102   3.271
64648W        W36963  41.307  31.084  10.491
64649W        W36964  32.427  11.854  11.391
64650W        W36965  31.941  22.077   4.313
64651W        W36966  35.100  35.892   1.862
64652W        W36967  29.107   0.356  14.781
64653W        W36968  42.282  24.723  12.921
64654W        W36969  25.685   9.787   3.850
64655W        W36970  21.179   5.259   3.680
64656W        W36971  11.320  19.542  12.904
64657W        W36972   3.922  29.660   1.839
64658W        W36973   6.765  28.469   3.746
64659W        W36974  32.912   2.245  11.023
64660W        W36975  31.927  30.599  11.905
64661W        W36976  15.592  35.948   2.391
64662W        W36977  35.080   2.398   3.174
64663W        W36978  33.492  37.076  11.485
64664W        W36979  35.880  29.069  12.383
64665W        W36980  20.537  28.511   0.868
64666W        W36981  36.988  17.631   2.669
64667W        W36982  39.448  13.664   4.140
64668W        W36983  44.396  43.937  14.788
64669W        W36984   2.308   1.402   4.319
64670W        W36985  32.057   5.695  12.536
64671W        W36986  42.417  32.950  14.372
64672W        W36987  30.599  42.806   1.383
64673W        W36988  27.130  39.327  13.966
64674W        W36989  27.449  43.009  11.394
64675W        W36990  17.090   5.194   3.212
64676W        W36991  39.064  24.679  11.029
64677W        W36992  44.957  11.667  11.600
64678W        W36993  24.708  17.080  14.769
64679W        W36994  31.590  13.817  11.869
64680W        W36995  27.662  25.662   4.779
64681W        W36996  42.886   6.748  13.015
64682W        W36997  32.627  34.398   4.639
64683W        W36998  33.509   2.745  10.471
64684W        W36999  12.753  12.735   3.724
64685W        W37000  30.049  19.758   0.927
64686W        W37001  27.684  38.380  10.988
64687W        W37002  30.128  12.708   3.737
64688W        W37003  28.038  28.096  14.426
64689W        W37004  24.109  23.571  10.906
64690W        W37005   8.742  27.460  12.369
64691W        W37006   1.337  12.124  13.809
64692W        W37007  11.248  34.614   1.309
64693W        W37008   5.349  39.833   0.274
64694W        W37009  25.508   7.261  14.004
64695W        W37010  14.696  43.862  10.638
64696W        W37011  19.739  34.475   4.207
64697W        W37012  28.491  16.092   1.696
64698W        W37013  12.277  19.581  11.576
64699W        W37014   7.726  26.554  12.090
64700W        W37015  19.736   1.958  10.947
64701W        W37016  28.538   9.224   1.347
64702W        W37017  41.853   6.371  11.991
64703W        W37018  19.580  18.213   1.863
64704W        W37019   6.733  31.080  12.895
64705W        W37020  43.318   0.283  10.931
64706W        W37021   7.839  35.549   1.241
64707W        W37022  16.196  31.498   3.245
64708W        W37023  36.007  25.212   0.867
64709W        W37024  44.981  28.029   1.739
64710W        W37025  37.987  24.481   0.748
64711W        W37026  35.488  12.803   2.883
64712W        W37027  30.928  16.170  13.519
64713W        W37028  11.670  39.473  10.533
64714W        W37029  26.170  39.865   1.702
64715W        W37030   6.826  15.744   3.651
64716W        W37031  19.689   6.232  14.493
64717W        W37032  24.974   2.758   3.685
64718W        W37033  29.989  23.495  13.791
64719W        W37034   5.704  13.293  12.484
64720W        W37035   5.423  25.548   3.362
64721W        W37036  33.909  11.708  14.379
64722W        W37037  11.743  10.803  10.474
64723W        W37038  33.038  42.859   1.754
64724W        W37039  30.914   7.378  14.281
64725W        W37040  19.617  22.244  13.435
64726W        W37041  41.929   6.734  12.490
64727W        W37042  35.004  41.829   1.713
64728W        W37043   1.925   0.312   2.858
64729W        W37044   5.796  37.566   2.847
64730W        W37045  27.124  37.916   4.168
64731W        W37046  42.485  30.420   1.233
64732W        W37047  41.319  25.490  13.382
64733W        W37048  27.600  30.645  12.474
64734W        W37049   4.769   1.880  11.000
64735W        W37050  11.788   2.412   0.425
64736W        W37051  36.466   9.869  12.383
64737W        W37052  40.306  13.345  13.862
64738W        W37053  16.635  19.060   0.965
64739W        W37054  36.097  33.016  13.310
64740W        W37055   1.936   4.699   0.838
64741W        W37056  40.539   2.382   1.435
64742W        W37057   0.849  31.499  10.532
64743W        W37058  35.375   7.796  13.445
64744W        W37059  27.968  35.020  11.905
64745W        W37060  27.490   9.820  13.404
64746W        W37061  36.547   5.324   0.403
64747W        W37062  13.796   8.227   2.229
64748W        W37063  10.200  40.863   3.714
64749W        W37064   2.794  25.119  10.449
64750W        W37065  42.997  43.310  14.287
64751W        W37066  26.085  23.592  12.907
64752W        W37067  42.516  20.112  11.426
64753W        W37068   5.877  36.075   1.392
64754W        W37069  26.646  37.995   3.347
64755W        W37070  19.166  10.706  12.052
64756W        W37071  22.690  24.149  12.442
64757W        W37072  37.581  40.868   4.709
64758W        W37073   3.453  20.195   5.279
64759W        W37074   6.836  34.598   1.355
64760W        W37075   3.910   5.371  10.946
64761W        W37076  19.060   3.907  11.959
64762W        W37077   7.836   1.368  13.368
64763W        W37078  39.980   6.278  13.978
64764W        W37079  23.198   4.357   3.278
64765W        W37080  31.059   3.838   3.822
64766W        W37081  25.990   7.760   1.287
64767W        W37082  29.443  34.967   1.238
64768W        W37083  36.554  15.615  12.041
64769W        W37084   3.882  17.078  10.938
64770W        W37085  21.741   2.908   2.810
64771W        W37086   9.669  30.449   1.302
64772W        W37087  27.164  17.156   3.310
64773W        W37088  36.421  13.175  13.449
64774W        W37089  22.689   3.360   0.334
64775W        W37090  40.002  35.907   2.369
64776W        W37091   2.311   0.364  12.973
64777W        W37092  30.102  15.654  14.432
64778W        W37093   7.695  20.601  13.898
64779W        W37094   5.726  14.253   0.451
64780W        W37095   8.762   4.320   2.780
64781W        W37096  11.708  33.975   2.864
64782W        W37097  20.091   3.754   3.737
64783W        W37098   9.804  28.949  14.848
64784W        W37099  38.378  38.455  14.479
64785W        W37100  44.400  41.335   3.863
64786W        W37101  29.924   5.425   3.674
64787W        W37102  30.929  20.522  14.477
64788W        W37103  19.156   0.347  14.322
64789W        W37104   8.172  41.373  11.588
64790W        W37105  12.283  20.752  10.962
64791W        W37106  38.849   0.431   4.159
64792W        W37107  12.276  26.035   3.727
64793W        W37108  35.079  22.141  11.501
64794W        W37109  21.113  30.501  13.527
64795W        W37110  19.618  28.003  10.513
64796W        W37111  36.404  43.473  10.550
64797W        W37112   5.922  44.351  13.920
64798W        W37113  31.632  29.594   1.835
64799W        W37114  16.802  37.550  11.388
64800W        W37115  24.692   7.373  14.886
64801W        W37116   7.767   1.410  14.355
64802W        W37117  43.839  25.491  12.050
64803W        W37118  40.966   5.218   0.337
64804W        W37119   9.263  35.888   2.379
64805W        W37120  37.064  22.654   0.287
64806W        W37121   8.714  17.603  12.832
64807W        W37122   2.428  29.985  11.127
64808W        W37123   7.722  42.410   3.209
64809W        W37124  44.828   9.820  12.979
64810W        W37125  14.174  11.202  10.937
64811W        W37126  20.204   8.670  11.518
64812W        W37127  18.560   0.425  13.548
64813W        W37128   5.245   9.804   0.813
64814W        W37129  11.846  37.468   9.920
64815W        W37130   2.896  11.272  14.887
64816W        W37131   8.767  26.093  11.048
64817W        W37132   7.205  15.296  11.524
64818W        W37133  25.179   4.426   3.856
64819W        W37134  30.521  39.951  12.524
64820W        W37135  13.632  15.171   1.264
64821W        W37136  20.756  30.529   4.639
64822W        W37137  16.596  36.069  14.834
64823W        W37138  16.645   5.438  12.473
64824W        W37139  20.527  39.339   1.272
64825W        W37140   4.865  28.976   2.191
64826W        W37141   3.272  35.500  14.469
64827W        W37142   4.357  29.992   0.477
64828W        W37143  38.417  31.584  14.006
64829W        W37144  36.011  39.321   2.709
64830W        W37145  43.376  39.325   2.720
64831W        W37146  40.320  12.151  14.437
64832W        W37147  29.009  31.618   9.661
64833W        W37148   9.277  39.379   4.631
64834W        W37149  39.546  21.186   4.298
64835W        W37150  29.445  18.781  10.640
64836W        W37151  35.586  38.066  10.621
64837W        W37152  13.221  36.996   4.761
64838W        W37153   0.459  42.461  11.869
64839W        W37154  31.959  20.070  12.095
64840W        W37155  29.598  43.488   2.276
64841W        W37156  44.320  19.673   4.254
64842W        W37157  31.125  30.648  12.073
64843W        W37158  17.261  28.034   4.665
64844W        W37159  38.366  17.251   4.249
64845W        W37160  30.097  37.429  11.115
64846W        W37161  16.202  20.595   1.737
64847W        W37162  26.958  30.487  13.402
64848W        W37163  20.100  38.507   5.611
64849W        W37164  44.497  34.420  12.883
64850W        W37165  23.058   4.871  12.061
64851W        W37166  39.521  24.553   2.419
64852W        W37167   5.298   3.938   1.836
64853W        W37168  40.821  27.133  14.458
64854W        W37169  17.661  40.939  11.435
64855W        W37170   4.236  42.976  13.419
64856W        W37171  19.623  42.811  12.379
64857W        W37172  39.987  37.953  11.434
64858W        W37173  33.041  44.271   3.283
64859W        W37174  30.522  43.270   1.288
64860W        W37175  10.211  29.635   4.666
64861W        W37176  30.004  10.150   4.343
64862W        W37177  42.936  39.470   2.825
64863W        W37178   7.799   2.248  11.013
64864W        W37179  25.700  27.059   3.374
64865W        W37180  13.229  26.031   0.387
64866W        W37181   5.194  32.923   2.792
64867W        W37182  24.075   0.462   4.317
64868W        W37183  34.582  13.609   0.403
64869W        W37184  15.754  13.826  11.910
64870W        W37185  40.037  35.885  14.364
64871W        W37186  27.197   7.329   3.692
64872W        W37187  18.641  37.481   1.244
64873W        W37188   6.275   7.334   0.449
64874W        W37189   2.897  25.128   4.157
64875W        W37190  22.995  24.188  11.119
64876W        W37191  18.658  39.340  11.930
64877W        W37192  44.870  17.568   1.275
64878W        W37193  17.190  23.596  14.461
64879W        W37194  41.505  13.750  12.472
64880W        W37195   9.303   2.933   0.865
64881W        W37196  31.144   4.793  14.817
64882W        W37197  12.679  21.533  11.512
64883W        W37198  34.094  14.302   5.284
64884W        W37199   9.861   9.697  13.923
64885W        W37200   2.277  20.219  10.594
64886W        W37201  21.592  44.420  10.513
64887W        W37202   7.721  27.980  14.022
64888W        W37203  19.098  27.031   3.192
64889W        W37204  38.453  37.019   3.254
64890W        W37205  36.457  39.462  14.353
64891W        W37206   3.782  13.314  13.840
64892W        W37207  10.345  22.613   5.140
64893W        W37208   8.702   9.792  14.780
64894W        W37209  34.565  44.310   4.256
64895W        W37210  29.617  36.550   2.410
64896W        W37211  38.017   5.400   1.724
64897W        W37212   8.778  21.558   3.720
64898W        W37213  31.962  25.988   3.721
64899W        W37214  34.555  13.226   0.330
64900W        W37215  26.977  13.626  11.427
64901W        W37216  20.030  14.672  10.431
64902W        W37217  27.177  33.091   3.682
64903W        W37218   2.761  40.406   4.761
64904W        W37219   5.295  12.124   2.710
64905W        W37220   1.963  34.898   2.236
64906W        W37221  33.127   5.288  11.898
64907W        W37222  42.521  40.807   4.342
64908W        W37223  19.267  11.137   1.321
64909W        W37224  43.436  19.755  13.365
64910W        W37225  22.022  30.152   0.286
64911W        W37226  18.671  38.528   1.932
64912W        W37227  39.464  40.514  14.018
64913W        W37228  30.919  43.426  11.917
64914W        W37229  41.421   8.290  13.425
64915W        W37230  44.441   7.233  11.984
64916W        W37231  33.469  44.904  14.371
64917W        W37232  11.723  16.216  10.941
64918W        W37233  35.064  26.136   4.352
64919W        W37234  27.488  32.588   4.171
64920W        W37235  43.901  23.716   4.343
64921W        W37236   2.228  10.825   3.298
64922W        W37237  28.072  36.878   1.447
64923W        W37238  30.482  31.105  10.484
64924W        W37239   3.778  11.198  11.044
64925W        W37240  25.556  32.890   0.370
64926W        W37241  15.176  32.140   3.716
64927W        W37242  20.676  13.639  14.881
64928W        W37243  22.719  14.700   0.330
64929W        W37244  10.763  42.849  12.833
64930W        W37245   8.660  42.009   1.704
64931W        W37246   9.198   4.312  13.446
64932W        W37247   2.313   0.456  14.426
64933W        W37248  15.774  25.174  14.386
64934W        W37249  21.674   5.898   3.678
64935W        W37250  15.092  17.123  14.884
64936W        W37251  32.140   6.696   1.882
64937W        W37252  38.966   8.658  13.047
64938W        W37253   0.305  40.811   4.191
64939W        W37254  27.131  39.816  13.027
64940W        W37255  26.477  10.660   2.183
64941W        W37256   0.923  36.982   2.717
64942W        W37257  32.495   4.206   1.877
64943W        W37258  30.009  21.660  14.892
64944W        W37259  24.718  10.225   3.182
64945W        W37260   3.892  33.380   1.442
64946W        W37261   7.318  23.012   2.244
64947W        W37262  31.461  39.444   0.744
64948W        W37263  13.251  41.491  10.153
64949W        W37264  22.520  24.562  11.969
64950W        W37265  21.691  21.570  13.461
64951W        W37266   7.827  31.583  11.957
64952W        W37267  32.628   8.334   2.308
64953W        W37268  26.639  30.095   0.270
64954W        W37269  17.158  22.207  12.970
64955W        W37270  23.231  31.584   0.423
64956W        W37271   5.696   7.331   3.714
64957W        W37272  10.247  27.963   4.639
64958W        W37273  14.264  41.515  12.039
64959W        W37274  28.132  28.099   2.743
64960W        W37275  38.436  36.874   0.336
64961W        W37276  13.209  14.167   5.204
64962W        W37277  31.632  33.024  13.533
64963W        W37278   4.754  17.075   3.641
64964W        W37279  10.324   0.466  13.958
64965W        W37280   4.770  39.021  14.787
64966W        W37281  38.915  27.055  12.410
64967W        W37282  19.698  30.494  10.466
64968W        W37283  20.714  19.214   4.121
64969W        W37284   3.347  39.057   1.889
64970W        W37285  13.263  22.549   2.197
64971W        W37286  24.183   1.262  12.496
64972W        W37287  13.331  38.879  10.967
64973W        W37288  14.242  36.880  12.464
64974W        W37289   0.937  23.555   2.335
64975W        W37290  33.418   7.359  12.988
64976W        W37291  21.114  40.969   1.417
64977W        W37292   1.259  15.134  12.498
64978W        W37293  24.100  25.104   4.777
64979W        W37294  31.465   1.467   1.841
64980W        W37295  12.260  11.303   4.156
64981W        W37296  24.522  44.286  14.772
64982W        W37297  43.392  26.634   2.223
64983W        W37298  10.855  16.579  13.530
64984W        W37299  18.178  43.288  12.980
64985W        W37300  18.765  30.059  10.568
64986W        W37301   4.440   1.759  11.127
64987W        W37302  36.841  32.491   4.615
64988W        W37303  13.274  13.311   0.774
64989W        W37304   8.663  15.229  10.933
64990W        W37305  39.039   5.356  13.384
64991W        W37306  11.228  20.641  12.524
64992W        W37307  16.630  43.769  12.357
64993W        W37308  32.918  24.117  11.944
64994W        W37309  43.849  30.917  14.777
64995W        W37310  34.864  23.538  13.507
64996W        W37311  11.777  18.282   1.768
64997W        W37312   4.450  42.391  12.885
64998W        W37313  39.887  23.028  11.518
64999W        W37314  26.128  43.511   2.881
65000W        W37315   7.346  34.055   2.326
65001W        W37316   3.354  36.036  12.067
65002W        W37317  38.992  33.012   0.745
65003W        W37318  28.527  35.467  10.964
65004W        W37319   6.322  28.175  14.330
65005W        W37320  32.066  11.187  13.472
65006W        W37321   4.336  26.003   3.794
65007W        W37322  22.714  19.154   5.634
65008W        W37323  30.419   0.879   2.299
65009W        W37324  29.518  24.716   0.912
65010W        W37325  40.457  15.783   2.784
65011W        W37326  30.474  43.902   4.192
65012W        W37327  11.358  26.100  14.411
65013W        W37328  21.206  30.062   0.247
65014W        W37329  35.464  42.370  13.542
65015W        W37330  19.261  31.534  14.374
65016W        W37331   8.659  15.276  11.464
65017W        W37332   1.738   1.773   0.885
65018W        W37333  27.150   1.445   0.927
65019W        W37334  10.273   9.284  13.408
65020W        W37335  21.070  38.358   2.288
65021W        W37336  14.701  23.221   0.809
65022W        W37337  31.062   7.781  11.462
65023W        W37338  39.416  23.674  14.458
65024W        W37339  34.118  28.992  12.017
65025W        W37340  28.100   2.410  13.879
65026W        W37341  15.628   4.742  13.472
65027W        W37342  24.718  30.647  13.061
65028W        W37343  12.210  20.104  10.892
65029W        W37344  16.234  36.014   1.323
65030W        W37345   4.927   7.844  13.456
65031W        W37346  43.932  18.566  10.949
65032W        W37347  38.554  42.925   1.815
65033W        W37348  34.520  43.436  14.786
65034W        W37349  20.586   8.192  13.869
65035W        W37350  11.677  36.095  13.047
65036W        W37351  34.457  25.178   2.259
65037W        W37352   1.383  27.058   1.365
65038W        W37353  35.996   6.419  14.807
65039W        W37354  23.504  26.150   0.910
65040W        W37355  27.170  25.981  12.473
65041W        W37356  35.392  27.691  13.998
65042W        W37357  30.041  12.144  10.959
65043W        W37358  34.508  43.999  10.490
65044W        W37359  34.401  10.768  14.023
65045W        W37360  26.503  38.050  12.856
65046W        W37361   2.760  18.075  10.539
65047W        W37362   6.237  32.047   1.738
65048W        W37363  22.048  15.216   1.235
65049W        W37364  18.097  45.000   3.338
65050W        W37365  10.871   4.784  14.761
65051W        W37366  20.594  16.778   0.471
65052W        W37367  24.060  30.582   1.262
65053W        W37368  26.667  37.891   3.643
65054W        W37369  42.282  23.101   0.891
65055W        W37370  21.516  11.665  14.467
65056W        W37371  40.990   4.294  13.882
65057W        W37372   3.712   4.415  12.345
65058W        W37373  24.658  30.111   0.329
65059W        W37374   3.339  35.881   0.953
65060W        W37375  40.044  33.519   0.304
65061W        W37376  23.039  32.455  11.058
65062W        W37377  28.579  29.963  10.940
65063W        W37378  42.443  16.290  12.484
65064W        W37379  24.518   2.319  11.535
65065W        W37380  10.634   0.342   1.311
65066W        W37381  28.166  12.808   4.680
65067W        W37382   1.763  36.899  14.800
65068W        W37383  25.687   8.882  12.835
65069W        W37384  16.081  11.142   1.270
65070W        W37385   0.949  23.617  10.967
65071W        W37386  42.414  20.210   2.409
65072W        W37387  29.552  36.033   4.605
65073W        W37388  44.827  31.988   4.258
65074W        W37389  29.611   1.311   0.899
65075W        W37390  14.612  26.125  12.547
65076W        W37391  30.506   9.812   0.452
65077W        W37392  44.487   5.868   5.314
65078W        W37393  18.257  10.349  14.918
65079W        W37394  23.063  13.117  14.467
65080W        W37395  35.070  33.415   4.728
65081W        W37396   8.211  32.632   3.302
65082W        W37397  41.928  22.108  14.820
65083W        W37398  30.601  40.928   4.804
65084W        W37399  24.634  15.793   2.200
65085W        W37400  16.614  15.820  10.539
65086W        W37401  36.920  24.642   4.620
65087W        W37402   0.820   5.295   0.914
65088W        W37403  27.102  36.398   1.309
65089W        W37404  36.074  13.290  13.791
65090W        W37405  30.581  11.233   4.219
65091W        W37406  17.126   2.380  11.036
65092W        W37407   6.299  14.790   2.267
65093W        W37408  32.048  19.657  10.616
65094W        W37409  30.450  14.729   3.841
65095W        W37410  31.997  43.399   3.846
65096W        W37411  17.599  32.945  13.337
65097W        W37412   1.876  29.567   1.438
65098W        W37413  15.608  12.201  14.841
65099W        W37414  30.088  26.022  12.838
65100W        W37415  33.911  14.163  13.055
65101W        W37416  32.088   4.937   4.712
65102W        W37417  40.999   3.906   3.713
65103W        W37418  31.107  29.133  14.829
65104W        W37419  29.016  44.311   4.689
65105W        W37420  26.204  18.748   0.778
65106W        W37421  25.536  39.902   4.747
65107W        W37422  24.494  27.046   0.345
65108W        W37423  31.456  40.034  14.395
65109W        W37424  33.599   4.875  10.482
65110W        W37425  14.687   8.826  10.488
65111W        W37426  10.767   1.277   0.812
65112W        W37427  36.924  27.038  13.469
65113W        W37428  31.913   0.492   0.824
65114W        W37429  42.518  36.899  13.886
65115W        W37430  29.595  33.424  11.559
65116W        W37431   2.391  36.020  12.572
65117W        W37432  38.072  12.682   2.203
65118W        W37433  37.483  17.759  13.971
65119W        W37434  14.647  20.748  10.618
65120W        W37435  37.408   0.343  14.467
65121W        W37436  32.912  33.536   4.246
65122W        W37437  20.623  27.963  13.864
65123W        W37438   2.793  19.740  10.573
65124W        W37439   9.794  24.996   4.314
65125W        W37440  36.993  11.162   0.893
65126W        W37441  20.212  37.848   2.404
65127W        W37442   3.911  42.022  14.837
65128W        W37443  13.807  29.077   2.229
65129W        W37444   0.870  32.632   0.339
65130W        W37445  34.054   3.858  11.593
65131W        W37446   5.401  35.899   4.276
65132W        W37447   2.322  31.408   4.824
65133W        W37448   2.921  36.886   4.250
65134W        W37449  29.533  44.405   3.766
65135W        W37450  35.860   1.790  14.832
65136W        W37451  15.712  27.037   3.864
65137W        W37452  34.529  25.155  14.794
65138W        W37453  27.614   3.295  13.447
65139W        W37454  31.510  29.992  14.903
65140W        W37455  41.880  22.230   4.141
65141W        W37456  10.764   6.922   0.430
65142W        W37457  41.853  32.594   1.308
65143W        W37458  42.002   6.297   0.258
65144W        W37459  24.158   3.417   5.094
65145W        W37460  23.498  41.013  11.492
65146W        W37461  12.146   9.230   3.742
65147W        W37462  39.963  31.936   2.827
65148W        W37463  32.409  30.428  11.520
65149W        W37464  17.089  31.947  12.941
65150W        W37465   3.220  19.724  14.826
65151W        W37466  10.223  21.200   0.954
65152W        W37467  29.459   4.433  13.502
65153W        W37468  30.496  28.969  13.981
65154W        W37469  30.594  44.885  10.444
65155W        W37470   9.170  10.181  13.424
65156W        W37471  43.894  14.750   2.809
65157W        W37472   4.879  15.112   2.719
65158W        W37473   9.814  33.009  14.300
65159W        W37474   1.942  23.634  11.418
65160W        W37475   6.869  31.491   4.121
65161W        W37476  10.678  24.981   4.344
65162W        W37477  26.654   8.311  10.637
65163W        W37478   8.716   0.443  10.586
65164W        W37479  15.172   6.710   0.268
65165W        W37480   0.466   6.252  14.310
65166W        W37481  23.128  24.520  13.326
65167W        W37482  15.690  15.793   4.823
65168W        W37483   1.875   8.299   0.293
65169W        W37484   3.909   6.699   3.859
65170W        W37485  25.073  39.328   3.767
65171W        W37486  15.737  36.509  12.362
65172W        W37487  39.514  12.775  11.599
65173W        W37488  28.643  27.580  14.771
65174W        W37489  40.959   6.188  14.922
65175W        W37490  25.494   2.262  11.512
65176W        W37491  19.606  19.092  14.029
65177W        W37492  29.036   8.163  13.810
65178W        W37493  28.150  42.877   4.818
65179W        W37494  25.990  42.812   0.347
65180W        W37495  31.916   7.191   2.795
65181W        W37496  22.059  28.527  10.473
65182W        W37497  12.325  29.978  12.570
65183W        W37498  14.109  38.961   4.762
65184W        W37499  26.512   2.338   2.727
65185W        W37500  20.074   1.821  13.538
65186W        W37501   5.324  21.611  13.864
65187W        W37502   4.292   8.697   2.817
65188W        W37503  23.698   4.874  11.012
65189W        W37504  16.585  37.369   4.822
65190W        W37505  37.962  30.949  11.380
65191W        W37506  38.992   9.248  11.517
65192W        W37507  30.040  40.446  14.993
65193W        W37508  35.409  32.391  14.358
65194W        W37509  27.143  23.184   0.784
65195W        W37510   6.286  13.599   0.777
65196W        W37511  27.096   8.402  11.121
65197W        W37512  25.665   4.715   4.656
65198W        W37513  37.063  39.939  11.434
65199W        W37514  21.732  16.162   1.755
65200W        W37515  30.000  25.470  12.950
65201W        W37516   2.322  23.643   1.335
65202W        W37517  24.595   0.920   3.161
65203W        W37518  42.314  40.034   0.389
65204W        W37519  43.948  41.825  13.431
65205W        W37520  43.875  37.930   0.413
65206W        W37521  16.104  40.049   9.513
65207W        W37522  30.930  34.560  14.942
65208W        W37523   9.838  16.569   1.420
65209W        W37524  35.078   0.420  12.507
65210W        W37525  34.890  12.671   2.741
65211W        W37526  34.056  44.313   3.238
65212W        W37527  37.467  40.035   2.692
65213W        W37528  35.543  34.508   4.291
65214W        W37529  17.164  16.688  10.908
65215W        W37530  34.895  35.511   0.953
65216W        W37531   1.749   3.729  12.458
65217W        W37532  14.126  31.468   0.412
65218W        W37533  33.083  42.015  13.515
65219W        W37534   2.282   5.785  11.521
65220W        W37535  19.630   4.313  12.489
65221W        W37536  31.002   8.854  13.345
65222W        W37537  12.722  35.967   1.817
65223W        W37538   8.868  28.641   2.178
65224W        W37539  43.888  15.258   3.363
65225W        W37540  23.512  15.767   3.278
65226W        W37541  41.989  22.532   4.249
65227W        W37542  27.607  28.144   3.161
65228W        W37543   9.718  10.736  12.869
65229W        W37544  30.543  39.989  14.772
65230W        W37545  29.429  10.755   0.878
65231W        W37546  18.200  43.410  13.430
65232W        W37547  11.252  10.808  13.960
65233W        W37548  39.892  40.840   2.393
65234W        W37549  10.834  18.126  13.026
65235W        W37550  34.468  22.560  11.944
65236W        W37551  34.440  12.288  11.856
65237W        W37552  43.423   4.408  14.317
65238W        W37553  39.957  20.244   3.178
65239W        W37554  11.229  33.932   3.663
65240W        W37555  33.900  38.026   0.400
65241W        W37556   7.383  39.518   1.722
65242W        W37557   5.279  31.452  11.895
65243W        W37558   3.906  36.414   4.338
65244W        W37559  38.957   6.235   1.796
65245W        W37560  37.392  29.174  13.870
65246W        W37561  11.770   3.724  14.767
65247W        W37562  40.992   4.371  11.962
65248W        W37563  34.445  23.581   2.240
65249W        W37564  35.550  41.363   3.715
65250W        W37565  27.575  15.813   0.350
65251W        W37566  42.454  11.720  13.393
65252W        W37567  24.022  19.242  13.438
65253W        W37568  32.044  13.671  11.605
65254W        W37569  40.471  39.880  14.860
65255W        W37570  40.397  11.264  10.934
65256W        W37571   3.322   3.270   2.363
65257W        W37572  31.113  15.794   3.720
65258W        W37573  16.147   6.423   1.283
65259W        W37574  14.304  28.110  10.955
65260W        W37575  16.693   7.770   4.256
65261W        W37576   7.857  40.883   2.767
65262W        W37577  18.090   9.295  14.809
65263W        W37578  13.177  39.443   4.744
65264W        W37579  35.903  36.587   3.671
65265W        W37580  31.905  30.060  12.864
65266W        W37581  26.467  41.331  11.993
65267W        W37582  18.772   9.394   4.813
65268W        W37583  35.598  33.024  11.874
65269W        W37584  10.840  34.101  13.888
65270W        W37585  44.797   9.815   2.373
65271W        W37586  12.752  18.735   5.800
65272W        W37587   4.330  37.486   3.241
65273W        W37588  42.923  39.327  14.402
65274W        W37589  44.491  12.636  14.458
65275W        W37590  10.667  37.855  14.881
65276W        W37591  14.119  14.287   2.777
65277W        W37592  41.298  39.558  11.970
65278W        W37593  25.010  39.063  14.795
65279W        W37594  29.078  25.644  10.609
65280W        W37595  39.920   4.838  13.973
65281W        W37596  19.702   2.470   5.157
65282W        W37597  27.129  21.032   1.769
65283W        W37598  43.970  33.099   4.145
65284W        W37599  15.121  21.562   4.603
65285W        W37600   3.245  42.883  12.465
65286W        W37601   8.873  12.255   0.393
65287W        W37602  44.876   8.364  12.940
65288W        W37603  31.011  25.561  12.377
65289W        W37604  29.547   8.305  11.857
65290W        W37605  30.000  20.169   0.297
65291W        W37606  44.872  23.544  14.880
65292W        W37607  38.443  27.650   0.349
65293W        W37608  36.388   5.282  13.010
65294W        W37609  22.517  12.668   4.774
65295W        W37610  25.998  15.327  12.483
65296W        W37611  14.635  10.679   4.322
65297W        W37612  16.259  14.726   0.790
65298W        W37613   9.676  40.436   2.724
65299W        W37614  26.479   7.340   0.465
65300W        W37615  28.953  39.467  12.852
65301W        W37616  19.153  15.119   0.294
65302W        W37617   7.842  27.066   1.708
65303W        W37618  39.530  15.104   0.417
65304W        W37619  25.659   8.339   0.808
65305W        W37620  30.099  27.674  12.033
65306W        W37621   4.419  33.901  12.477
65307W        W37622  12.207  36.425   2.263
65308W        W37623  20.583  29.660  14.992
65309W        W37624  15.095  37.493   0.733
65310W        W37625   2.965  35.903   1.229
65311W        W37626   2.288  10.869   2.392
65312W        W37627  37.342  20.759  10.932
65313W        W37628  42.327  11.358  14.821
65314W        W37629  26.127  31.103   2.903
65315W        W37630  22.092  27.951   3.850
65316W        W37631   2.909  29.582  11.125
65317W        W37632  22.726  12.151   0.744
65318W        W37633   4.320  16.733   1.930
65319W        W37634   7.357  12.293   2.263
65320W        W37635  24.228  40.419   2.314
65321W        W37636  26.617  10.345  14.845
65322W        W37637  11.272  39.437   4.190
65323W        W37638   1.444  20.067  12.569
65324W        W37639   2.361   9.779  13.403
65325W        W37640  41.416  19.769   1.312
65326W        W37641  26.163  28.002  14.848
65327W        W37642  11.302  42.972  10.953
65328W        W37643  15.675  12.249   3.160
65329W        W37644  30.142  33.020   1.774
65330W        W37645  11.627   9.817   2.717
65331W        W37646  40.939   1.351   1.872
65332W        W37647  13.658  28.588  13.997
65333W        W37648  36.882  28.958   4.639
65334W        W37649  38.878  42.976   0.260
65335W        W37650  21.756  17.761  10.522
65336W        W37651  29.992  43.912   1.384
65337W        W37652  30.026  14.659  12.037
65338W        W37653  27.501  13.625  12.546
65339W        W37654  39.494  42.328  14.897
65340W        W37655  44.979  40.416   3.345
65341W        W37656  36.077  42.486   3.648
65342W        W37657   3.904  44.847   1.907
65343W        W37658  27.980  41.504   1.757
65344W        W37659  18.725  36.477   2.734
65345W        W37660  44.320  18.768  10.566
65346W        W37661  16.613  22.619   2.186
65347W        W37662  10.271  38.336   4.307
65348W        W37663  19.252  17.670   2.205
65349W        W37664  33.482  18.081   4.783
65350W        W37665  34.918   3.752   1.262
65351W        W37666  35.091  14.595   4.280
65352W        W37667  17.755  32.961  13.020
65353W        W37668  41.313   4.349  10.409
65354W        W37669   7.870  31.121  10.582
65355W        W37670  26.166  35.030   1.772
65356W        W37671  40.456  23.106  11.048
65357W        W37672  34.585  35.944  11.453
65358W        W37673  31.632  39.031   1.749
65359W        W37674  10.740  39.386   4.169
65360W        W37675  16.298  14.202   1.858
65361W        W37676  24.699   5.871   0.357
65362W        W37677  34.096   6.906   1.803
65363W        W37678  21.065  17.786  10.993
65364W        W37679  33.088  21.216  13.832
65365W        W37680   7.787  28.515   1.418
65366W        W37681  38.467  12.721   2.823
65367W        W37682  24.665   1.906   0.961
65368W        W37683  12.733  13.255   4.697
65369W        W37684  34.067  13.154  12.084
65370W        W37685  44.887  18.201   0.803
65371W        W37686  32.584   1.397  14.007
65372W        W37687  21.656  15.610  11.042
65373W        W37688  13.258  34.453   2.391
65374W        W37689  26.499  10.204   2.891
65375W        W37690  27.458  24.503   1.809
65376W        W37691  28.078  12.285   1.912
65377W        W37692  29.030  16.702  14.401
65378W        W37693   0.862   9.376  10.486
65379W        W37694  36.592  43.966  13.921
65380W        W37695  21.540  11.131   2.345
65381W        W37696   7.302  18.730   0.815
65382W        W37697  43.826  29.972  13.992
65383W        W37698  38.405  16.761  12.004
65384W        W37699  35.495  19.095   2.250
65385W        W37700  12.773  31.458   3.208
65386W        W37701  33.384  34.922   3.264
65387W        W37702   7.849  22.242  11.927
65388W        W37703  20.560   5.727   4.241
65389W        W37704  26.615  37.022   4.634
65390W        W37705  12.646  41.430  13.510
65391W        W37706   6.358  12.302   2.799
65392W        W37707  17.208  17.069  14.876
65393W        W37708  33.112  34.387   2.323
65394W        W37709  26.060  14.148   0.806
65395W        W37710  37.075  43.376   3.644
65396W        W37711  38.071   5.270   0.408
65397W        W37712   6.768  38.932   0.858
65398W        W37713   3.348  41.953  12.525
65399W        W37714  11.246   4.426  10.618
65400W        W37715  29.643   0.817   4.727
65401W        W37716   3.285   3.745   0.923
65402W        W37717  18.244   0.258  10.916
65403W        W37718  23.136  42.413  13.361
65404W        W37719  31.592  22.089   4.656
65405W        W37720  34.450  31.075  12.027
65406W        W37721  27.493  33.967  12.435
65407W        W37722  28.504   4.377  12.517
65408W        W37723  18.073   2.941   0.904
65409W        W37724  21.044  42.794  12.954
65410W        W37725  40.346  25.486  14.509
65411W        W37726  22.728  14.243   3.247
65412W        W37727  18.272  31.072   5.145
65413W        W37728   1.369  10.255   9.496
65414W        W37729  21.244  23.572  10.048
65415W        W37730  17.068  24.643  12.428
65416W        W37731  17.764  29.101   4.750
65417W        W37732   7.333  30.488   4.733
65418W        W37733   2.380  38.371   0.868
65419W        W37734  27.167  26.081   3.852
65420W        W37735  27.137  40.353   2.313
65421W        W37736   3.324   1.477  14.477
65422W        W37737  31.547  22.700  12.862
65423W        W37738  40.510  12.678   3.637
65424W        W37739  21.167   5.343   1.778
65425W        W37740  17.248  16.141   4.656
65426W        W37741  22.175  43.495   0.767
65427W        W37742  33.572  16.243  12.392
65428W        W37743  41.976  17.768   1.745
65429W        W37744  24.101  40.808  14.023
65430W        W37745   6.323  29.548  12.376
65431W        W37746  16.089   9.189  14.450
65432W        W37747  29.634  19.041   4.153
65433W        W37748  11.854  19.721   2.381
65434W        W37749  25.588   5.284  13.435
65435W        W37750  44.271  32.508   1.741
65436W        W37751  30.448  40.464   2.348
65437W        W37752  13.650  42.893  12.548
65438W        W37753  36.081  24.595   2.368
65439W        W37754  16.598  24.683   3.214
65440W        W37755  37.838  40.826  13.905
65441W        W37756  18.774  33.060  12.895
65442W        W37757  29.025  11.708   4.699
65443W        W37758  31.896   5.688  10.404
65444W        W37759  16.167   2.876   4.161
65445W        W37760   9.796  17.126   2.697
65446W        W37761  26.201  11.203   4.809
65447W        W37762  26.983  33.620   0.809
65448W        W37763  32.597  18.229  10.438
65449W        W37764   3.955  20.650   1.884
65450W        W37765  16.294  43.826   3.693
65451W        W37766  23.697   3.361   2.790
65452W        W37767  30.940  13.290   2.371
65453W        W37768  36.370  17.251   9.986
65454W        W37769  35.893  25.021   1.446
65455W        W37770  17.648  21.716   2.235
65456W        W37771   1.953  30.642  12.061
65457W        W37772   0.415  37.895   2.801
65458W        W37773  35.452  37.496  14.770
65459W        W37774  33.905   4.725  12.521
65460W        W37775  23.548   5.699  11.054
65461W        W37776   4.333  10.802   1.718
65462W        W37777  25.980  37.341  10.903
65463W        W37778   7.206  17.179   4.170
65464W        W37779   8.700  25.664   5.151
65465W        W37780  17.170  12.808  10.467
65466W        W37781  17.297   6.778  10.440
65467W        W37782  41.321   9.209   3.269
65468W        W37783  24.066  27.035   3.786
65469W        W37784   6.299  35.464  11.508
65470W        W37785   4.797  41.436  14.467
65471W        W37786   4.729  43.968   4.788
65472W        W37787  16.159   8.854   1.284
65473W        W37788  27.571  27.098  11.396
65474W        W37789  20.615  37.486   5.323
65475W        W37790  41.405  24.009   2.736
65476W        W37791  38.870   5.923  12.836
65477W        W37792  37.972  13.736  12.521
65478W        W37793   3.947  16.729  13.910
65479W        W37794  19.600  44.493   3.781
65480W        W37795  44.331   5.837  13.917
65481W        W37796  16.663  12.322   4.717
65482W        W37797   1.830  25.980  14.381
65483W        W37798  41.792  23.079  11.069
65484W        W37799  42.431  40.823  13.400
65485W        W37800  20.089  29.000  13.508
65486W        W37801  25.213  11.370  11.455
65487W        W37802  36.360  42.849  14.351
65488W        W37803  21.021  44.505  10.050
65489W        W37804  25.041  22.604   2.278
65490W        W37805  19.733  20.074   4.161
65491W        W37806  10.714  27.964   1.263
65492W        W37807  28.021  29.588   1.269
65493W        W37808  36.021   4.927  13.399
65494W        W37809  38.447   5.382   1.713
65495W        W37810  24.139  10.243  11.959
65496W        W37811  36.451  13.831  10.617
65497W        W37812   6.730   7.818  13.406
65498W        W37813  33.488  21.137  12.889
65499W        W37814  10.867   2.782   0.397
65500W        W37815  38.449  24.667  10.533
65501W        W37816   1.815   6.736  12.989
65502W        W37817   2.434  36.977  10.643
65503W        W37818   6.370  15.193  12.001
65504W        W37819  14.717   8.305   1.255
65505W        W37820  16.294   8.719   1.835
65506W        W37821   9.227  14.141   1.788
65507W        W37822  35.376  18.168  10.589
65508W        W37823  12.673  42.508  12.967
65509W        W37824  19.581  23.042   4.793
65510W        W37825  35.490  25.051  10.979
65511W        W37826  18.592  16.228   4.734
65512W        W37827  40.939  10.837  14.975
65513W        W37828  31.995   6.285  14.512
65514W        W37829  35.859  31.621  13.931
65515W        W37830  28.162  28.014  12.448
65516W        W37831  13.247  18.715  12.400
65517W        W37832   0.966  22.099   0.865
65518W        W37833  40.397   3.371  13.389
65519W        W37834  25.111  41.811   2.304
65520W        W37835  42.324   0.391   3.192
65521W        W37836  24.595   3.234   0.253
65522W        W37837   4.306  24.071   4.669
65523W        W37838  22.158  13.207  14.516
65524W        W37839  43.468   4.442   3.286
65525W        W37840  32.523  12.839  13.508
65526W        W37841  40.930  38.042  14.832
65527W        W37842  32.915  18.230  12.449
65528W        W37843  10.787  25.149  11.582
65529W        W37844  30.151   8.693  13.916
65530W        W37845   7.226  16.587   3.849
65531W        W37846   5.324  30.528   3.666
65532W        W37847   0.322  38.958   0.462
65533W        W37848  14.795  12.692  13.339
65534W        W37849   1.458  19.684   1.851
65535W        W37850  34.058  10.277   4.159
65536W        W37851  15.648  38.904   3.219
65537W        W37852  44.788  37.880  13.466
65538W        W37853  35.102  11.750   3.250
65539W        W37854  31.578  12.811  11.422
65540W        W37855   0.326  33.128  10.075
65541W        W37856  36.997  17.180  12.060
65542W        W37857  20.614  19.282   0.829
65543W        W37858  21.661   6.709  14.771
65544W        W37859  40.322  37.496  14.385
65545W        W37860  44.823  19.625   2.309
65546W        W37861   2.906  35.589  12.374
65547W        W37862  44.008   4.220   4.280
65548W        W37863  32.627  39.032   3.232
65549W        W37864  23.630  22.201   4.658
65550W        W37865   3.242  34.869   1.854
65551W        W37866  42.902  10.211  11.955
65552W        W37867  27.671   7.767  12.523
65553W        W37868   0.464  17.282  13.415
65554W        W37869  36.439  40.951  12.840
65555W        W37870  21.127  43.408   1.821
65556W        W37871  42.281  35.886   3.327
65557W        W37872  12.834  21.022   3.298
65558W        W37873   6.288  37.902  12.530
65559W        W37874   7.701  15.797   5.097
65560W        W37875   8.832   3.230  12.059
65561W        W37876  26.554  20.179   4.737
65562W        W37877  14.197   9.851   3.750
65563W        W37878  44.941  24.650  11.013
65564W        W37879  27.666   5.755   0.350
65565W        W37880   9.763  36.940  14.844
65566W        W37881  18.600  42.927  10.506
65567W        W37882  26.467  23.064   2.688
65568W        W37883  40.048  25.658  13.314
65569W        W37884   2.438  29.923   2.879
65570W        W37885  40.987  20.712  11.463
65571W        W37886  18.570  44.843  11.422
65572W        W37887  33.497  32.927   0.329
65573W        W37888  30.141  33.932   3.821
65574W        W37889  23.019  13.835   3.830
65575W        W37890  32.411  12.321  12.060
65576W        W37891   9.218  42.468  11.877
65577W        W37892   5.263  18.566  13.971
65578W        W37893   3.907   3.861   4.262
65579W        W37894  37.019  21.745  14.303
65580W        W37895  27.524   0.282   1.391
65581W        W37896  34.891   4.822   1.902
65582W        W37897  44.462  33.085  12.911
65583W        W37898   4.923   7.396  10.043
65584W        W37899   7.835  18.649   3.249
65585W        W37900   7.224   0.784   2.830
65586W        W37901  19.141  38.924   2.715
65587W        W37902  17.294  38.028   2.730
65588W        W37903  44.469  18.211  13.929
65589W        W37904  31.600  36.396   0.456
65590W        W37905  38.962  29.644   0.412
65591W        W37906  27.945  19.213   1.416
65592W        W37907  33.104  33.611   1.780
65593W        W37908  39.433  38.367   2.879
65594W        W37909  36.017  27.539  12.526
65595W        W37910   6.187  11.631  10.913
65596W        W37911  44.446  23.520  10.588
65597W        W37912  30.123  16.568  11.086
65598W        W37913  12.325  34.118   0.394
65599W        W37914  12.851  30.570  10.892
65600W        W37915  15.218   8.357   2.710
65601W        W37916  37.574  31.941   0.773
65602W        W37917  12.285  37.391  13.872
65603W        W37918  31.060  11.863   3.836
65604W        W37919  43.375  41.463  11.938
65605W        W37920  29.628  16.782  12.906
65606W        W37921  37.554  30.491  10.457
65607W        W37922  20.679  41.951  12.873
65608W        W37923  41.998  44.825  13.792
65609W        W37924  32.956  21.589   4.826
65610W        W37925  30.421  37.342   2.762
65611W        W37926  19.622  22.706   1.870
65612W        W37927   0.323   8.291   0.427
65613W        W37928  30.650   3.273   4.242
65614W        W37929  43.498  31.596   4.258
65615W        W37930   5.438  32.442  13.955
65616W        W37931   6.297  23.674  13.964
65617W        W37932  27.497  15.804  13.031
65618W        W37933  38.848   5.883   4.199
65619W        W37934  27.561   6.245  10.964
65620W        W37935  17.171   8.370   4.648
65621W        W37936  41.878  39.560   4.726
65622W        W37937  19.058  26.512   3.709
65623W        W37938  27.025  13.198  12.888
65624W        W37939  26.060   8.284  12.473
65625W        W37940   2.290  22.512  11.451
65626W        W37941  38.929  41.829   2.889
65627W        W37942  44.791  11.826   1.387
65628W        W37943  16.764  23.137   0.907
65629W        W37944  25.701  30.592   0.287
65630W        W37945  21.675  28.630   4.131
65631W        W37946  25.695  15.222   4.223
65632W        W37947  24.594   5.248  12.031
65633W        W37948  23.118   3.336   0.805
65634W        W37949   4.849  16.640  10.056
65635W        W37950  23.689  17.579   1.388
65636W        W37951  27.084  32.082  10.457
65637W        W37952  14.319   6.266  12.003
65638W        W37953  17.580  10.313  12.906
65639W        W37954   2.833  39.407  13.321
65640W        W37955  43.806  34.107  11.582
65641W        W37956  29.068   2.422   1.694
65642W        W37957  29.001  15.259   4.681
65643W        W37958  13.711  43.510   2.330
65644W        W37959   8.867  40.973   3.703
65645W        W37960  39.825   3.437   0.475
65646W        W37961  35.372   6.373   3.320
65647W        W37962  36.889   8.857  11.016
65648W        W37963  26.175  43.951   0.342
65649W        W37964  44.421  13.258   4.691
65650W        W37965   2.723  17.141  14.315
65651W        W37966  32.951   6.884   1.707
65652W        W37967  12.822  41.360  11.093
65653W        W37968  25.525  40.909  13.484
65654W        W37969  26.603  19.721  14.405
65655W        W37970  40.902  44.468  14.965
65656W        W37971  40.524  39.501  12.055
65657W        W37972  12.159  41.829  13.891
65658W        W37973  42.809  42.805   0.402
65659W        W37974  21.628  30.967   3.387
65660W        W37975  12.721  40.523  10.494
65661W        W37976  19.184  28.076  13.506
65662W        W37977  26.149   0.472  11.027
65663W        W37978  37.972  37.564  13.865
65664W        W37979  24.479  28.498  11.035
65665W        W37980  15.607  23.092  13.882
65666W        W37981  22.998  37.856   2.724
65667W        W37982  30.566  23.170   1.411
65668W        W37983   6.351  12.716  12.838
65669W        W37984   3.722  24.086   0.348
65670W        W37985   2.812   2.913   4.120
65671W        W37986  10.291   2.734   3.319
65672W        W37987  35.867  30.128  12.350
65673W        W37988   9.767  27.147   1.772
65674W        W37989  38.353  28.058   2.183
65675W        W37990  10.149  35.432  10.645
65676W        W37991  15.614  39.398   1.361
65677W        W37992  36.965  24.980   4.665
65678W        W37993   5.232  19.245   3.841
65679W        W37994  28.131   7.288   3.317
65680W        W37995  37.380  27.554  12.975
65681W        W37996  18.670  24.189  11.078
65682W        W37997   5.733  36.012  11.974
65683W        W37998  28.625  32.465   3.652
65684W        W37999  35.598   0.940  13.499
65685W        W38000  16.611  42.824  11.090
65686W        W38001  37.523  40.942   1.758
65687W        W38002   6.853   8.265  11.420
65688W        W38003  42.941   2.874  10.505
65689W        W38004   4.371  41.991   4.656
65690W        W38005  41.884  37.981  11.106
65691W        W38006   5.872  21.153   4.713
65692W        W38007  19.716  22.599   4.630
65693W        W38008  18.220  43.867   4.605
65694W        W38009  26.116  17.650  14.899
65695W        W38010  32.935  44.764   2.369
65696W        W38011  29.141  39.939   3.167
65697W        W38012  30.953   6.186   4.180
65698W        W38013  22.203  18.742  11.052
65699W        W38014  21.136   3.874   2.297
65700W        W38015  39.434  32.064  12.463
65701W        W38016  21.250   4.418  10.028
65702W        W38017   4.774  39.435  13.989
65703W        W38018  17.629  11.301   9.477
65704W        W38019  10.847  35.027  12.984
65705W        W38020  11.199  36.036  12.833
65706W        W38021   5.759  21.630  13.490
65707W        W38022  30.454  30.984  14.797
65708W        W38023  36.012  38.059   4.692
65709W        W38024   8.723  22.122   3.288
65710W        W38025   0.897  26.170  13.333
65711W        W38026  38.522  30.574   3.868
65712W        W38027  39.905  27.567  14.814
65713W        W38028  17.683  36.473  12.399
65714W        W38029   0.405   0.813   1.924
65715W        W38030   0.782  22.219  14.030
65716W        W38031  28.560  16.158   3.697
65717W        W38032  20.745  37.350  11.994
65718W        W38033  37.933  29.098  10.466
65719W        W38034   4.332  16.227   3.180
65720W        W38035   4.875  30.020   4.206
65721W        W38036  43.928   2.261   3.670
65722W        W38037  43.371  35.069   0.784
65723W        W38038   0.358  16.313   4.160
65724W        W38039  13.206  39.829  12.856
65725W        W38040  17.689   6.331   2.214
65726W        W38041  43.865  42.338   3.350
65727W        W38042  23.575  17.754  10.899
65728W        W38043  14.668  33.119  12.924
65729W        W38044  34.564  29.636   2.243
65730W        W38045  27.944  18.589  10.542
65731W        W38046  34.952  13.297  11.933
65732W        W38047   6.806  18.550   0.823
65733W        W38048  18.587   6.767   3.801
65734W        W38049  40.325  27.012   1.787
65735W        W38050  26.136   1.238   4.211
65736W        W38051  17.735   6.423  14.313
65737W        W38052  43.910  24.065   1.320
65738W        W38053  13.778  27.614   1.319
65739W        W38054  32.473   9.882  13.368
65740W        W38055  29.092  42.864   2.205
65741W        W38056  15.779  27.505   3.365
65742W        W38057  44.754  26.688   1.695
65743W        W38058  43.916  18.193  12.435
65744W        W38059  42.982  14.174  13.815
65745W        W38060  39.544  41.912   1.395
65746W        W38061  26.637  24.048  12.082
65747W        W38062  32.057  36.035   4.652
65748W        W38063  19.713  13.693   4.719
65749W        W38064  27.508  20.746  12.875
65750W        W38065   1.364  42.320  13.898
65751W        W38066  20.661  37.040  11.859
65752W        W38067  11.351  18.560  11.445
65753W        W38068   7.290   3.846   2.325
65754W        W38069  24.637  26.573   1.748
65755W        W38070   4.739   7.296  12.525
65756W        W38071  43.437   0.306  13.967
65757W        W38072  27.453  22.600  11.407
65758W        W38073  16.766   4.388  11.926
65759W        W38074  43.807  21.685   3.290
65760W        W38075  34.958  43.790   0.921
65761W        W38076  14.745  17.199  10.641
65762W        W38077   3.814  34.061  10.552
65763W        W38078  40.910  29.110   3.366
65764W        W38079   4.335  39.928  11.606
65765W        W38080  19.160   9.717  13.419
65766W        W38081  27.485  20.689   2.793
65767W        W38082  24.684  22.106  11.548
65768W        W38083  28.596  41.382   3.708
65769W        W38084  11.290  39.818  10.629
65770W        W38085  13.244  14.643  13.903
65771W        W38086  35.916   9.816   4.600
65772W        W38087  22.220   6.314   2.391
65773W        W38088  43.313  44.277  11.046
65774W        W38089  37.372   0.435  10.922
65775W        W38090  20.197   6.874  12.943
65776W        W38091  35.991  29.485   0.282
65777W        W38092  37.441  40.047   1.905
65778W        W38093  33.926  27.501  14.772
65779W        W38094   0.375  26.573   2.805
65780W        W38095  13.724  32.561  11.388
65781W        W38096  16.810  11.250   2.735
65782W        W38097   4.704   7.346   3.833
65783W        W38098  29.500   1.354  14.811
65784W        W38099  25.599  20.241   2.373
65785W        W38100  25.486   2.793   4.162
65786W        W38101  30.564  20.209   5.286
65787W        W38102  22.042  26.130  10.446
65788W        W38103  29.981   8.719  14.796
65789W        W38104   6.891  33.438  11.590
65790W        W38105  30.105  20.695  11.006
65791W        W38106  13.138   5.716  12.083
65792W        W38107  17.561  10.265   2.280
65793W        W38108   6.693  40.445   2.271
65794W        W38109  20.594  29.592  11.956
65795W        W38110   5.239  40.862  13.976
65796W        W38111  12.142  42.355   2.262
65797W        W38112   3.233  29.644   5.141
65798W        W38113  32.982  42.897   4.297
65799W        W38114   7.742  16.073  10.439
65800W        W38115  44.274  39.512   0.924
65801W        W38116  37.449  38.995  13.927
65802W        W38117   7.223  11.650   2.272
65803W        W38118  33.518  19.144   4.728
65804W        W38119  10.795   6.729  13.843
65805W        W38120  15.739  42.788  11.093
65806W        W38121   1.449  43.502  13.439
65807W        W38122  27.563  38.467   4.792
65808W        W38123  36.936  36.399  12.831
65809W        W38124  40.493   0.356  13.359
65810W        W38125  37.038  14.756   2.299
65811W        W38126  26.673  40.943  11.958
65812W        W38127  15.098  43.286  14.414
65813W        W38128  29.633  26.012  12.935
65814W        W38129  35.877  21.676  14.013
65815W        W38130  21.540  27.488   3.287
65816W        W38131  33.034   2.450  12.074
65817W        W38132  33.570   8.343  11.886
65818W        W38133  20.262   2.742   4.710
65819W        W38134  34.919   9.304  11.049
65820W        W38135  25.965  17.566  11.993
65821W        W38136  42.840  33.542   5.200
65822W        W38137   9.789  28.665   3.723
65823W        W38138  33.072   6.361  13.061
65824W        W38139  30.151   2.389   2.903
65825W        W38140  19.118  38.070   0.887
65826W        W38141  36.456   8.193   0.855
65827W        W38142   8.836  32.960   4.802
65828W        W38143  40.492  29.535  14.334
65829W        W38144  34.492   0.782  11.022
65830W        W38145  39.047  44.978   2.862
65831W        W38146  38.852  25.071   3.710
65832W        W38147  31.897  36.914   0.921
65833W        W38148  37.012  30.548   2.723
65834W        W38149  30.155  22.517  10.449
65835W        W38150  10.218   4.393   1.311
65836W        W38151  12.628   7.736  11.610
65837W        W38152  11.821   0.940   5.309
65838W        W38153  30.110  39.882  13.538
65839W        W38154   8.857   4.405   3.854
65840W        W38155  29.581   2.919   2.382
65841W        W38156  20.111  33.496   0.377
65842W        W38157  31.101   2.888  11.586
65843W        W38158  11.810  26.015  12.898
65844W        W38159  37.464  37.861  12.396
65845W        W38160  23.113   7.204  12.461
65846W        W38161  16.717  43.878  13.370
65847W        W38162  27.464  32.568  10.436
65848W        W38163  19.546   2.790   2.183
65849W        W38164  44.914   3.875   4.605
65850W        W38165  16.619   8.705   1.921
65851W        W38166  18.242  13.751  14.773
65852W        W38167  25.160  26.649  14.275
65853W        W38168  35.898  25.687   2.682
65854W        W38169   4.740  28.070   3.303
65855W        W38170  31.563  13.211   2.756
65856W        W38171  38.461  16.139   4.336
65857W        W38172  33.419  38.512  12.978
65858W        W38173  15.779  16.127   0.736
65859W        W38174  13.800  14.341  14.851
65860W        W38175  33.111  37.018   2.271
65861W        W38176  19.563  43.865  10.605
65862W        W38177  27.631  38.523  14.982
65863W        W38178  28.045  10.297  14.894
65864W        W38179  32.499  12.338   2.697
65865W        W38180  39.819  22.136  13.459
65866W        W38181   6.734  39.045   4.717
65867W        W38182   3.877  14.178  14.482
65868W        W38183  12.809  19.656   1.437
65869W        W38184   7.416  38.949  14.858
65870W        W38185   3.288  10.659  11.076
65871W        W38186  18.250  36.549  13.365
65872W        W38187  35.430  38.947  14.308
65873W        W38188  29.453  43.468  13.936
65874W        W38189  15.692  22.698  12.946
65875W        W38190   7.890   3.398  14.965
65876W        W38191  24.977   2.939  14.451
65877W        W38192  18.741  30.111   0.261
65878W        W38193  31.473  43.867   3.664
65879W        W38194  42.498  19.675   1.290
65880W        W38195  44.881   8.762  13.961
65881W        W38196  21.211  17.602   3.664
65882W        W38197  14.334  43.383  12.928
65883W        W38198  43.968  24.991  12.394
65884W        W38199  29.637  26.672   1.342
65885W        W38200  33.457  17.141   3.274
65886W        W38201   4.389  41.341   1.914
65887W        W38202  42.356   5.772   2.880
65888W        W38203   3.294  10.217   3.835
65889W        W38204  43.789  39.053  13.994
65890W        W38205   5.853   1.420   1.274
65891W        W38206  42.368  37.083  13.335
65892W        W38207  14.689  27.614   2.388
65893W        W38208   2.818   1.738   4.350
65894W        W38209  10.304   6.252   2.227
65895W        W38210  16.756  30.100  13.859
65896W        W38211  20.074  35.415  11.883
65897W        W38212  34.369   0.439  14.364
65898W        W38213  35.933  33.421  14.464
65899W        W38214  31.150  35.956   4.730
65900W        W38215  14.779   3.720  11.572
65901W        W38216  35.558  31.922  13.495
65902W        W38217  26.684  30.994   3.309
65903W        W38218   5.850  16.186  11.039
65904W        W38219  19.189  38.874  12.893
65905W        W38220  41.788  39.355  12.423
65906W        W38221  20.162  43.994   4.241
65907W        W38222   7.394  35.023   3.186
65908W        W38223  38.949  32.525  13.373
65909W        W38224  40.027  34.894  13.313
65910W        W38225   3.390  10.321   5.164
65911W        W38226  18.674  20.577   3.752
65912W        W38227  25.115  10.708   3.648
65913W        W38228  36.028  24.080  14.946
65914W        W38229  30.450  37.861   1.260
65915W        W38230  21.592  36.425   3.717
65916W        W38231   4.847  11.713   3.806
65917W        W38232  24.600  15.286   3.659
65918W        W38233  24.720  12.344  10.616
65919W        W38234   9.849  42.384   0.415
65920W        W38235  20.711  19.664   2.783
65921W        W38236  32.885   1.855  14.950
65922W        W38237  16.808  11.726   3.745
65923W        W38238  34.393  11.283   1.441
65924W        W38239  34.591  25.995  11.088
65925W        W38240   8.268  27.605   4.167
65926W        W38241  17.571  35.050  11.856
65927W        W38242  26.951   4.236  12.372
65928W        W38243  16.603   2.773  10.580
65929W        W38244   3.221  38.338   0.831
65930W        W38245  43.376  27.033   3.282
65931W        W38246  31.013  44.379  10.431
65932W        W38247  18.691  29.512   0.310
65933W        W38248  14.667   0.296  12.859
65934W        W38249  30.112  21.200  12.075
65935W        W38250  40.034  23.147  13.980
65936W        W38251  40.340  43.928  11.440
65937W        W38252   8.790  37.986   3.283
65938W        W38253  22.250   6.772  13.912
65939W        W38254  17.772  15.765  12.843
65940W        W38255  27.101  31.631   1.780
65941W        W38256   8.755  25.021  14.428
65942W        W38257  41.313   2.236  10.543
65943W        W38258   8.673  29.441  12.454
65944W        W38259  14.186  33.505  14.374
65945W        W38260  20.734  19.776   3.257
65946W        W38261  14.757  38.434   4.164
65947W        W38262  18.744  27.976   4.131
65948W        W38263   3.273  33.621  14.764
65949W        W38264   9.689  18.168  11.481
65950W        W38265  23.178  15.668   4.618
65951W        W38266  39.979   7.803   3.767
65952W        W38267   1.815  18.690   3.385
65953W        W38268  20.151  29.077   2.875
65954W        W38269  36.927  40.388  10.919
65955W        W38270  14.636  14.819  14.506
65956W        W38271   6.784  43.467  14.474
65957W        W38272   0.262  44.285   1.223
65958W        W38273  22.686  29.471   3.863
65959W        W38274   7.344  34.531  12.087
65960W        W38275  11.181  44.917  11.535
65961W        W38276   0.472  13.755   2.696
65962W        W38277  35.516  42.997  13.960
65963W        W38278  36.071  21.054  11.933
65964W        W38279  36.003  43.346  14.954
65965W        W38280  28.058  40.487   4.678
65966W        W38281  43.820   3.447   2.697
65967W        W38282  10.241  36.966  14.321
65968W        W38283  34.377   1.457  13.894
65969W        W38284  29.110   6.693   1.699
65970W        W38285  30.054  10.821  12.964
65971W        W38286   6.301  29.577   0.430
65972W        W38287  19.234  10.795  13.907
65973W        W38288  20.223  18.626  11.947
65974W        W38289  15.287  32.446   4.276
65975W        W38290  36.021  39.552   0.737
65976W        W38291  39.960  19.615  12.071
65977W        W38292  43.955  31.055   0.292
65978W        W38293   9.697  40.442  14.377
65979W        W38294  30.129  41.985   0.388
65980W        W38295  43.321  41.877   2.249
65981W        W38296  28.597  42.452   4.729
65982W        W38297  22.138  31.537  14.790
65983W        W38298  20.244  28.600   0.315
65984W        W38299  16.637  27.460  12.563
65985W        W38300  23.534   8.836  11.553
65986W        W38301  37.570  41.423   2.278
65987W        W38302  42.824  39.837   2.345
65988W        W38303  10.776   3.824   1.363
65989W        W38304   9.780  15.237   4.349
65990W        W38305  23.014   4.314   2.323
65991W        W38306  18.742  16.579  12.487
65992W        W38307  43.818   0.362  13.309
65993W        W38308  14.826   5.815   1.445
65994W        W38309  12.675  14.663  13.871
65995W        W38310  26.975  17.234  13.976
65996W        W38311  14.253  26.982   2.286
65997W        W38312   5.409   5.418  10.484
65998W        W38313  33.877   9.389  13.031
65999W        W38314  27.049  33.536   1.419
66000W        W38315  25.099  11.242   0.411
66001W        W38316  42.818   5.253   0.379
66002W        W38317   9.707  18.075  14.369
66003W        W38318  32.921  15.109  10.894
66004W        W38319  12.834  20.073   4.800
66005W        W38320   3.341  15.701  14.978
66006W        W38321   1.288  34.041  13.527
66007W        W38322  21.052  42.808  11.535
66008W        W38323   1.731   1.457  10.485
66009W        W38324   2.748   3.260   3.672
66010W        W38325  37.420  29.065  12.455
66011W        W38326  40.877  10.272   3.836
66012W        W38327  31.911  20.201  13.929
66013W        W38328  31.041   0.394  12.346
66014W        W38329  19.654  20.191   1.861
66015W        W38330  17.133  43.992  12.402
66016W        W38331  25.622  11.254  13.800
66017W        W38332  32.635  33.567  14.852
66018W        W38333  16.107  20.076  14.848
66019W        W38334  18.717  18.116   1.873
66020W        W38335   8.811  26.186   3.285
66021W        W38336   8.291  22.745   1.356
66022W        W38337  30.513  16.681   2.215
66023W        W38338  39.495  21.562   2.781
66024W        W38339  38.364  27.616  14.394
66025W        W38340  32.987   9.324  13.883
66026W        W38341  14.194  40.523   3.755
66027W        W38342  32.467  27.639   4.345
66028W        W38343   2.375  28.595   2.862
66029W        W38344  15.751   4.301   4.610
66030W        W38345  11.136  41.307   3.360
66031W        W38346   9.775  35.474   2.290
66032W        W38347  26.500  16.582  13.447
66033W        W38348  32.573  14.623   4.606
66034W        W38349   7.763  10.297  11.935
66035W        W38350  31.645  25.077  14.285
66036W        W38351  38.408   7.714   0.411
66037W        W38352  15.627  41.425   3.368
66038W        W38353  44.920   5.334  11.486
66039W        W38354   8.735   8.737  12.386
66040W        W38355  24.537  42.835   2.206
66041W        W38356  37.867  22.120   4.636
66042W        W38357  19.771  38.950   4.614
66043W        W38358   7.764  32.063  12.531
66044W        W38359   2.254  18.151  13.016
66045W        W38360  33.053  16.220  14.826
66046W        W38361   1.397  43.780   2.251
66047W        W38362  38.941  27.171   1.743
66048W        W38363  41.877  29.546   1.360
66049W        W38364  22.545  27.446  11.511
66050W        W38365  21.606  14.332   1.720
66051W        W38366  20.648   1.480  14.945
66052W        W38367  34.881  31.983  11.556
66053W        W38368  37.034  21.209  14.300
66054W        W38369  40.978  10.205   1.223
66055W        W38370  33.612  28.160   0.798
66056W        W38371   6.307  20.271   4.151
66057W        W38372  36.858   6.822   2.233
66058W        W38373  32.063   1.355   2.735
66059W        W38374   9.327  24.709  12.386
66060W        W38375  32.431   0.411   3.239
66061W        W38376   9.380  34.574   4.135
66062W        W38377  42.522  19.107  11.542
66063W        W38378  11.279  32.010  14.476
66064W        W38379  22.691  25.165   3.286
66065W        W38380  29.171  12.124   0.433
66066W        W38381  40.851  41.037  13.525
66067W        W38382  12.634   9.648  10.641
66068W        W38383   8.872  36.043   1.722
66069W        W38384  43.782   3.813  11.498
66070W        W38385  14.704   5.353  14.316
66071W        W38386  19.216  12.796   1.383
66072W        W38387  26.700  26.464   4.274
66073W        W38388  44.779   2.235   2.363
66074W        W38389  11.652   9.765   1.263
66075W        W38390  38.540  25.659  12.365
66076W        W38391  19.233  40.932   2.178
66077W        W38392  42.021  33.965  11.093
66078W        W38393  29.130   3.460   2.828
66079W        W38394   8.178   2.912  13.968
66080W        W38395  12.121  23.998  14.956
66081W        W38396  14.108  42.310   1.817
66082W        W38397  13.267  32.078  14.896
66083W        W38398   5.812  38.840  14.887
66084W        W38399  34.070  42.933  10.494
66085W        W38400   9.312  35.568   2.293
66086W        W38401  10.182   7.695  10.564
66087W        W38402  27.949  23.023   1.724
66088W        W38403   4.436   1.464  14.856
66089W        W38404  16.760   4.714  10.483
66090W        W38405   0.946  32.944  11.073
66091W        W38406  39.865   9.335   0.310
66092W        W38407  19.094  42.905   2.834
66093W        W38408  35.073  14.335  10.501
66094W        W38409   9.261   9.712   4.837
66095W        W38410  30.416   8.797  10.989
66096W        W38411   2.802  44.421   2.852
66097W        W38412  15.205  29.455   4.300
66098W        W38413  16.761   1.827   2.696
66099W        W38414  12.355   4.798   0.282
66100W        W38415  29.039   6.700   1.368
66101W        W38416  26.662   9.303   4.232
66102W        W38417   8.340   5.298  11.479
66103W        W38418  36.858  16.133   1.917
66104W        W38419   3.809  31.132   1.241
66105W        W38420  21.193  35.932  10.618
66106W        W38421  31.927   6.239  14.786
66107W        W38422   4.247  17.798   0.461
66108W        W38423  33.463  32.448   0.861
66109W        W38424  35.391  11.779   1.700
66110W        W38425   8.375   7.171  11.576
66111W        W38426  12.294  33.893  14.000
66112W        W38427   5.714  37.582  11.503
66113W        W38428  18.659  32.596   2.224
66114W        W38429  17.263  15.650   3.158
66115W        W38430  11.638  10.377  13.464
66116W        W38431  30.559  24.665   3.225
66117W        W38432  12.137  17.733  14.901
66118W        W38433  41.472  28.529  11.595
66119W        W38434  26.208  13.649  13.931
66120W        W38435  24.123  30.121  11.954
66121W        W38436  40.007   1.292  12.839
66122W        W38437  24.068  29.605   3.273
66123W        W38438   4.883  38.485  10.615
66124W        W38439  25.964   8.791   4.332
66125W        W38440  43.384   1.787   4.719
66126W        W38441  35.462  33.420  14.929
66127W        W38442  22.243   7.203  12.877
66128W        W38443  11.803   7.814   0.435
66129W        W38444   8.868  21.255   5.261
66130W        W38445  12.843   2.940  12.013
66131W        W38446   5.323  35.967   0.801
66132W        W38447  18.175  38.012   5.088
66133W        W38448  44.882  32.009   1.400
66134W        W38449  39.402  33.029   2.844
66135W        W38450  10.691  34.081   2.292
66136W        W38451  15.777  32.596  11.984
66137W        W38452  29.494  26.703  10.111
66138W        W38453  15.252  16.290  13.531
66139W        W38454  12.207  35.088   1.804
66140W        W38455   3.292  36.031   4.354
66141W        W38456  34.094  34.097  12.484
66142W        W38457  10.655  32.560  14.412
66143W        W38458  12.798  28.670  14.448
66144W        W38459   7.175  25.012  11.557
66145W        W38460  30.534  44.950   1.695
66146W        W38461  21.571  28.664  14.302
66147W        W38462  13.245  14.796  11.391
66148W        W38463  10.868   6.400  13.861
66149W        W38464   6.877  37.932   0.380
66150W        W38465  15.250  10.849  14.821
66151W        W38466  19.548  10.377  11.594
66152W        W38467   7.755  10.785   2.336
66153W        W38468  17.194  10.200   0.818
66154W        W38469  24.666  26.615  14.791
66155W        W38470  21.095  39.042   0.259
66156W        W38471  44.359  33.504  14.352
66157W        W38472   9.286   0.967   1.298
66158W        W38473  21.666  13.829  13.931
66159W        W38474  22.694   8.161   2.334
66160W        W38475   2.859   9.739   2.735
66161W        W38476  37.067   9.708   3.272
66162W        W38477   9.374  16.577  12.468
66163W        W38478  30.120  34.442  14.459
66164W        W38479  38.882   7.775   2.225
66165W        W38480  30.941  20.595   2.889
66166W        W38481  29.126   8.162  14.923
66167W        W38482  17.171  12.664   3.768
66168W        W38483  24.088   2.330  13.416
66169W        W38484  44.952  11.216   5.242
66170W        W38485  38.556   9.314  11.506
66171W        W38486  26.046  19.585   3.226
66172W        W38487  15.685  15.784   3.862
66173W        W38488  31.115  23.656  13.313
66174W        W38489  17.726  33.015  10.547
66175W        W38490  23.025  29.072  12.466
66176W        W38491  23.008   2.416   3.386
66177W        W38492  13.672  10.700  11.512
66178W        W38493  26.616  41.859  14.418
66179W        W38494  19.654   8.296  13.542
66180W        W38495  22.503  17.707   1.757
66181W        W38496  29.555  18.102  10.143
66182W        W38497  25.687  28.036   2.330
66183W        W38498   1.844  25.640  14.431
66184W        W38499  40.514  22.656   0.951
66185W        W38500  23.038  13.162  11.116
66186W        W38501  23.526   5.374  11.480
66187W        W38502   1.465  33.876  14.446
66188W        W38503  26.569  10.219   4.299
66189W        W38504  13.807  24.186   3.746
66190W        W38505  21.628  23.523   2.201
66191W        W38506   4.713  24.124  10.969
66192W        W38507   2.440  35.952   1.787
66193W        W38508  17.567  12.324  12.011
66194W        W38509   5.841  17.125  14.335
66195W        W38510  31.996   8.731  10.427
66196W        W38511  24.208  15.692  11.384
66197W        W38512  42.428  20.764   4.667
66198W        W38513   7.253  23.617   1.918
66199W        W38514  16.301  12.335  12.913
66200W        W38515  43.430   8.193  12.056
66201W        W38516  22.701   3.311  11.925
66202W        W38517  11.225  19.132   2.410
66203W        W38518  33.499   3.240   2.665
66204W        W38519   5.416  30.934  12.921
66205W        W38520  22.066   4.933   0.339
66206W        W38521  18.112  22.042   0.445
66207W        W38522  16.181  10.299   0.305
66208W        W38523  20.231  10.342   4.304
66209W        W38524  42.992  26.001   1.279
66210W        W38525  41.409  43.389  14.356
66211W        W38526  35.881  17.568  10.553
66212W        W38527   9.314  25.618  11.451
66213W        W38528  27.176  36.935   0.863
66214W        W38529  13.287  13.707   0.449
66215W        W38530  39.423  17.751   2.727
66216W        W38531   4.298  19.640   2.681
66217W        W38532  39.333  41.827  12.936
66218W        W38533  21.123  27.000  10.891
66219W        W38534  33.127  42.880  11.406
66220W        W38535   4.772  37.995  13.445
66221W        W38536  31.521  33.422  12.944
66222W        W38537  23.070  13.339  14.844
66223W        W38538   6.232  32.067   2.377
66224W        W38539  11.676  39.043   1.289
66225W        W38540  37.926  24.023   2.322
66226W        W38541   6.208  34.052  13.936
66227W        W38542  13.209  33.001  12.370
66228W        W38543  41.295  10.196  10.156
66229W        W38544  34.040  16.802   4.615
66230W        W38545  13.796  36.458   1.300
66231W        W38546  13.648  16.275   3.291
66232W        W38547  30.486  32.433  13.915
66233W        W38548  16.210  10.726   2.728
66234W        W38549  30.413  39.320  14.926
66235W        W38550  41.807  34.921  10.912
66236W        W38551   8.258  24.128   3.315
66237W        W38552   1.435   6.253   1.346
66238W        W38553  29.658  35.424  11.891
66239W        W38554  29.456  13.814  14.006
66240W        W38555  23.532  10.293   3.748
66241W        W38556  37.069  23.001   2.712
66242W        W38557  17.141  20.133   0.441
66243W        W38558  25.629  13.145   2.404
66244W        W38559  12.356  31.576   0.263
66245W        W38560  37.348  28.044  10.973
66246W        W38561  21.136  13.828   2.366
66247W        W38562  40.434  12.188  13.800
66248W        W38563  32.439  15.774   1.217
66249W        W38564  13.178  34.994   2.672
66250W        W38565  43.782  26.501  10.592
66251W        W38566   6.722  40.855   2.673
66252W        W38567  13.837  34.592   1.809
66253W        W38568  36.932   0.875   0.246
66254W        W38569  35.076  29.454  11.503
66255W        W38570  12.221  25.009  12.449
66256W        W38571  15.152  24.497   1.376
66257W        W38572  23.615  39.543  14.379
66258W        W38573  23.123  36.095  10.920
66259W        W38574   8.705  37.011   2.327
66260W        W38575  37.968  12.774   0.304
66261W        W38576   7.272  37.424   0.435
66262W        W38577   5.893  27.193   1.309
66263W        W38578  21.600   8.790  13.469
66264W        W38579  18.283   6.753  11.434
66265W        W38580  30.551   0.823  12.961
66266W        W38581  33.906   3.225  12.507
66267W        W38582  26.673  13.613  12.983
66268W        W38583  39.459  20.202   0.268
66269W        W38584  33.596   1.415  11.900
66270W        W38585  14.098  30.076  14.424
66271W        W38586  24.649   1.787  10.915
66272W        W38587  34.471  42.454  11.557
66273W        W38588  10.638  26.628  11.857
66274W        W38589  32.486   4.699  11.503
66275W        W38590   0.286  23.617   2.842
66276W        W38591  30.622   3.811   0.342
66277W        W38592  22.094  12.679   0.248
66278W        W38593  38.342   7.708   4.676
66279W        W38594   7.183  20.066   0.338
66280W        W38595   2.846  31.011  13.926
66281W        W38596  35.863  38.483   0.461
66282W        W38597  26.570  14.598   2.861
66283W        W38598  28.462  17.130   2.304
66284W        W38599  20.591  44.374  10.425
66285W        W38600  30.479  25.056   4.720
66286W        W38601  26.134  42.331  11.091
66287W        W38602  27.624  23.499  10.529
66288W        W38603  26.067  24.120   0.287
66289W        W38604   8.835  41.975  12.467
66290W        W38605  21.534  13.706   4.249
66291W        W38606   8.864  17.706   5.148
66292W        W38607  11.701  23.178   3.180
66293W        W38608  41.812   3.831  12.485
66294W        W38609   0.385  30.047   3.859
66295W        W38610  11.315  20.263  11.931
66296W        W38611  28.941  27.536   3.371
66297W        W38612  14.141  42.389  13.352
66298W        W38613  39.998  18.062  11.862
66299W        W38614  35.986  34.398   0.297
66300W        W38615  32.560  15.737  10.636
66301W        W38616   6.902  11.666  13.448
66302W        W38617   1.826  30.965  10.454
66303W        W38618  36.932   7.849   0.885
66304W        W38619  29.640  44.877  12.476
66305W        W38620  30.584   3.343  11.497
66306W        W38621  28.465   8.272   0.267
66307W        W38622  28.527  38.475   3.265
66308W        W38623  22.015  18.664  10.595
66309W        W38624  32.980  31.143   4.695
66310W        W38625  21.571   7.798  12.010
66311W        W38626  37.891  21.095  11.400
66312W        W38627   5.694  40.817  11.954
66313W        W38628  28.582   0.761  12.523
66314W        W38629  26.687  18.719   2.864
66315W        W38630  20.596  34.466  13.434
66316W        W38631  24.556  31.124   4.748
66317W        W38632   3.262  20.655   4.215
66318W        W38633  17.248  37.975  13.918
66319W        W38634   6.711  13.730  13.467
66320W        W38635  16.299  12.204  12.425
66321W        W38636   5.342  30.659   2.712
66322W        W38637  41.822  38.387   1.289
66323W        W38638  35.480   8.226  14.450
66324W        W38639  21.050  15.729   1.741
66325W        W38640  23.607  40.005  13.840
66326W        W38641  19.755  35.602   0.807
66327W        W38642   4.385  44.961   0.343
66328W        W38643  31.465  12.265  12.911
66329W        W38644  18.758  38.053   5.321
66330W        W38645  12.163   2.405  13.526
66331W        W38646  39.554  40.811   2.355
66332W        W38647  12.359  23.212   3.681
66333W        W38648   5.338  15.776   2.368
66334W        W38649  34.487   3.306  14.442
66335W        W38650   1.458  44.412  11.076
66336W        W38651  43.944  21.047   3.842
66337W        W38652  40.331  41.934   1.782
66338W        W38653  13.234   6.780  12.080
66339W        W38654  27.091   0.330  11.080
66340W        W38655  39.503  25.115   3.709
66341W        W38656  38.034  22.725   1.358
66342W        W38657  36.973  40.529  11.978
66343W        W38658  34.115  44.806   4.789
66344W        W38659  15.174  43.407  12.470
66345W        W38660  14.671   8.787   1.425
66346W        W38661   6.690  25.198  11.413
66347W        W38662   8.879  21.690  13.918
66348W        W38663   8.269   3.842   1.402
66349W        W38664  12.256  24.526   1.428
66350W        W38665  28.003  34.495  11.385
66351W        W38666  40.487  44.388   2.864
66352W        W38667  29.570  39.413  11.437
66353W        W38668  24.532   3.842  13.394
66354W        W38669  33.130  26.584  11.411
66355W        W38670  24.666  37.976   4.728
66356W        W38671   8.655  33.008   1.898
66357W        W38672  14.258  20.678  14.968
66358W        W38673   7.902  15.323   4.148
66359W        W38674  29.172   8.717  11.865
66360W        W38675  24.071  36.563  12.996
66361W        W38676   6.312  31.025  14.986
66362W        W38677  11.320  23.581   1.434
66363W        W38678   7.231  44.499  13.848
66364W        W38679  41.008   0.793  11.877
66365W        W38680  36.868  43.356  14.865
66366W        W38681  29.086  11.308  14.458
66367W        W38682   8.282  34.990  12.090
66368W        W38683  19.068  10.868   5.150
66369W        W38684  44.356  25.145  14.286
66370W        W38685  39.935   3.852  12.937
66371W        W38686  29.067  28.132   4.322
66372W        W38687   5.804   3.805   2.747
66373W        W38688  42.409  15.125  12.932
66374W        W38689  33.570  25.971  13.982
66375W        W38690  39.475  21.070   0.263
66376W        W38691  23.726   3.804  13.479
66377W        W38692  40.493  38.431  12.947
66378W        W38693  22.204  32.443  10.609
66379W        W38694  15.790  37.885   2.375
66380W        W38695   8.759  15.314   2.698
66381W        W38696  39.835  17.171   0.748
66382W        W38697  14.110  14.198   0.297
66383W        W38698  40.388  32.565  14.841
66384W        W38699  10.258   7.908   1.278
66385W        W38700  20.637  18.701  11.475
66386W        W38701  36.437   8.833  10.107
66387W        W38702   3.229   0.959  13.354
66388W        W38703  19.662  27.492   0.824
66389W        W38704  36.915  21.065  12.356
66390W        W38705  16.789  38.019   4.141
66391W        W38706  32.546  41.409  14.826
66392W        W38707   2.903  34.012   3.639
66393W        W38708   1.797  40.411   1.341
66394W        W38709  21.019  11.309  11.048
66395W        W38710  17.232   0.317   2.314
66396W        W38711  43.901  16.804   0.461
66397W        W38712  10.670   4.363  14.800
66398W        W38713  15.166  40.972   1.912
66399W        W38714  30.003  42.990  14.814
66400W        W38715  23.018   7.407  12.000
66401W        W38716  19.642  21.247   0.852
66402W        W38717  17.159   4.765  13.804
66403W        W38718  24.680   9.266  14.437
66404W        W38719  17.240  22.741  11.448
66405W        W38720  15.707  32.092  14.466
66406W        W38721  41.343   7.823   2.739
66407W        W38722   1.751  20.711   0.429
66408W        W38723  30.080  14.326   2.687
66409W        W38724  22.620  30.158   4.254
66410W        W38725  31.105  15.223  14.024
66411W        W38726  30.964  43.364   1.280
66412W        W38727  13.252  16.723  10.442
66413W        W38728   2.736   8.357  11.457
66414W        W38729  36.874  17.697  10.580
66415W        W38730  36.991   4.825   4.817
66416W        W38731  11.339  40.418   4.339
66417W        W38732  21.609  24.057  11.468
66418W        W38733  38.936  27.558  13.942
66419W        W38734  35.962  27.144  14.291
66420W        W38735   4.870   0.760  13.862
66421W        W38736   2.776  18.260  12.511
66422W        W38737  23.096  37.472  11.431
66423W        W38738   2.789  42.915  11.914
66424W        W38739  44.981  42.286  12.490
66425W        W38740  31.896  17.090   0.383
66426W        W38741  36.380  17.593  14.354
66427W        W38742  36.018  31.601  11.022
66428W        W38743  17.100   5.903  12.458
66429W        W38744  23.166  38.057   1.891
66430W        W38745  31.458  26.636   1.755
66431W        W38746  13.643  10.339   4.605
66432W        W38747  19.583   7.861   2.299
66433W        W38748  37.857  39.042  10.989
66434W        W38749  34.885   3.377  10.071
66435W        W38750  40.043  44.871   0.929
66436W        W38751  38.564  13.677   3.802
66437W        W38752  36.995  29.524   3.842
66438W        W38753   2.847  23.609  12.377
66439W        W38754  21.244  34.573  12.452
66440W        W38755   6.271  30.608   1.440
66441W        W38756  20.167  11.753   2.837
66442W        W38757  17.136   6.826   2.280
66443W        W38758  21.647  10.343  14.392
66444W        W38759  43.352   9.332   1.701
66445W        W38760  44.779   2.907   1.814
66446W        W38761  40.001   9.191  14.807
66447W        W38762  35.023  26.026  12.012
66448W        W38763   5.248  42.506  12.416
66449W        W38764  13.832  19.157   2.822
66450W        W38765  43.508  24.536   4.605
66451W        W38766   1.418  32.590  13.325
66452W        W38767  35.053   6.370   4.620
66453W        W38768  25.500  42.988  13.858
66454W        W38769  17.731  21.650   3.250
66455W        W38770  11.652  36.035   3.262
66456W        W38771  43.341   7.336   4.675
66457W        W38772   4.253  14.317   0.358
66458W        W38773  19.742  27.464  12.390
66459W        W38774  34.443  42.988  14.313
66460W        W38775  12.851  12.201   4.243
66461W        W38776  12.125  10.232  14.969
66462W        W38777   2.269   4.436   1.847
66463W        W38778   3.254   6.686   3.805
66464W        W38779  18.562  20.666  13.341
66465W        W38780  11.679  24.526  12.087
66466W        W38781  24.668  18.591   1.426
66467W        W38782  39.376  24.663   3.238
66468W        W38783  13.276   4.760  12.340
66469W        W38784  13.301  17.189  12.547
66470W        W38785  24.662  39.872  12.966
66471W        W38786  14.227   3.432  14.396
66472W        W38787  37.399  33.084   1.341
66473W        W38788  14.129  25.070   2.734
66474W        W38789   5.352  31.963  10.588
66475W        W38790  17.072   6.382   9.947
66476W        W38791   8.215  40.422  11.516
66477W        W38792   3.763   0.464   3.266
66478W        W38793   6.417   3.380  14.898
66479W        W38794  28.070   7.346  11.857
66480W        W38795  19.684  31.930   3.706
66481W        W38796  37.888  17.616   0.903
66482W        W38797  19.675  14.628  13.359
66483W        W38798  27.624  36.436   1.736
66484W        W38799  31.118  15.148   4.203
66485W        W38800  31.441  13.223   4.810
66486W        W38801  29.547   9.263   1.290
66487W        W38802  26.670  14.326  13.376
66488W        W38803  18.151   7.805  11.408
66489W        W38804  35.879  23.527  12.849
66490W        W38805  10.290  37.542   0.882
66491W        W38806  11.208  43.838  13.320
66492W        W38807  21.560   8.336  14.016
66493W        W38808  36.050  34.932  12.414
66494W        W38809  31.503  41.434   2.679
66495W        W38810  12.637  26.621   1.369
66496W        W38811  44.919  11.147   0.901
66497W        W38812  39.887  44.845   4.707
66498W        W38813   7.299  36.929   1.820
66499W        W38814  30.509  40.860  12.043
66500W        W38815   4.446  21.229   0.427
66501W        W38816  26.470  16.136  11.074
66502W        W38817  20.259   3.869  11.054
66503W        W38818  14.656  11.687  12.990
66504W        W38819  38.395  22.613  14.374
66505W        W38820  23.491  10.835  11.957
66506W        W38821  20.085   1.409   0.772
66507W        W38822  35.938  25.093   4.349
66508W        W38823  43.772  36.450   0.434
66509W        W38824  14.710  25.209   1.376
66510W        W38825   4.363  42.958   3.725
66511W        W38826  15.613  42.946   2.874
66512W        W38827   7.759   0.273  12.577
66513W        W38828   8.266  36.040   0.858
66514W        W38829   7.854   0.287  14.818
66515W        W38830  41.806  26.667   1.870
66516W        W38831  21.633  35.080   9.936
66517W        W38832  43.513  26.696   1.402
66518W        W38833  37.978  40.540   4.718
66519W        W38834  24.187  25.568  10.516
66520W        W38835  23.061  41.439  10.589
66521W        W38836  44.925   4.246   2.271
66522W        W38837  34.112  18.134  13.887
66523W        W38838  33.402  33.486  10.493
66524W        W38839  22.708   1.849   2.181
66525W        W38840  27.562  30.438  10.894
66526W        W38841  30.927   9.875  11.088
66527W        W38842  38.415   6.187   4.254
66528W        W38843  37.441  24.500   1.717
66529W        W38844   7.799  29.627   4.715
66530W        W38845  16.645   6.707  14.793
66531W        W38846  18.242  11.843  10.035
66532W        W38847  28.565  23.706   4.125
66533W        W38848  32.037  23.151  10.434
66534W        W38849  30.631   5.256  13.825
66535W        W38850  19.606  31.943  11.509
66536W        W38851  10.696  16.670   1.306
66537W        W38852  39.348   8.858  12.475
66538W        W38853  26.003  15.149  14.869
66539W        W38854  35.092  20.159  11.023
66540W        W38855   2.842   7.683  12.418
66541W        W38856  25.974   5.759   4.661
66542W        W38857  36.892  22.251   3.364
66543W        W38858   0.385  31.034  11.060
66544W        W38859  33.430  25.627  10.473
66545W        W38860   6.746  38.070  13.437
66546W        W38861   8.678  24.509  11.479
66547W        W38862  24.526   2.391   2.703
66548W        W38863  42.281   6.913   2.353
66549W        W38864   2.305  20.136  13.504
66550W        W38865  28.993  44.402  14.852
66551W        W38866  11.174  36.871   2.201
66552W        W38867  36.085  42.388   0.917
66553W        W38868  29.556  25.037   5.158
66554W        W38869  39.949   5.267  12.445
66555W        W38870  17.259  33.477   2.275
66556W        W38871  38.334   4.717   3.339
66557W        W38872  37.494  17.720   0.331
66558W        W38873  11.723   3.818   2.841
66559W        W38874   8.800  15.164   4.716
66560W        W38875   1.425  44.005   2.668
66561W        W38876  37.024   0.781  13.308
66562W        W38877  42.964  31.116  11.878
66563W        W38878  15.098  38.883  13.426
66564W        W38879  24.478  37.510  12.390
66565W        W38880  37.946  26.612  10.624
66566W        W38881  29.564  21.569  13.883
66567W        W38882   8.347   5.279  13.350
66568W        W38883  37.373  35.096   4.827
66569W        W38884  32.047  38.326  10.605
66570W        W38885   0.421   0.965   4.203
66571W        W38886  36.514  18.711  11.039
66572W        W38887  34.884   8.730   5.143
66573W        W38888  29.058  44.902   3.723
66574W        W38889  36.091  35.540  11.998
66575W        W38890   8.819  12.357  14.277
66576W        W38891  39.453  20.057   4.795
66577W        W38892  10.776  41.413   1.272
66578W        W38893   8.314  38.378   0.759
66579W        W38894  29.451  34.876   0.473
66580W        W38895  25.486  15.649  10.018
66581W        W38896  10.197   3.840   1.927
66582W        W38897   0.757  35.589   2.841
66583W        W38898  22.149  33.927   3.215
66584W        W38899   8.298  31.564   2.346
66585W        W38900   0.921  14.151  10.479
66586W        W38901  43.488  37.012  14.014
66587W        W38902  11.155  17.168  12.493
66588W        W38903  38.050  26.965  14.024
66589W        W38904  23.139  20.567  12.451
66590W        W38905  32.073  40.837  14.480
66591W        W38906   2.319   3.417  13.824
66592W        W38907  18.191  25.637  11.457
66593W        W38908   4.404  21.573  13.387
66594W        W38909  28.998   1.763  12.527
66595W        W38910  10.637   4.249  13.384
66596W        W38911   2.765  29.510   3.288
66597W        W38912  18.230  30.054  12.826
66598W        W38913  38.992   3.885  13.528
66599W        W38914  25.102   0.913   2.853
66600W        W38915  12.153  10.761  12.921
66601W        W38916  35.593  35.487   0.837
66602W        W38917   2.303  22.550  14.403
66603W        W38918   7.860  15.611   2.881
66604W        W38919  35.012  18.774   0.942
66605W        W38920   1.397   1.755   1.336
66606W        W38921  11.128  29.109  14.866
66607W        W38922  11.624  39.877  11.515
66608W        W38923   4.781  15.786  14.885
66609W        W38924  26.476  17.795  14.776
66610W        W38925  15.803  37.031   2.848
66611W        W38926   8.249  21.118   4.665
66612W        W38927  27.180  17.760   3.828
66613W        W38928  15.306   7.405   4.634
66614W        W38929  43.965   4.446   0.249
66615W        W38930  26.551   5.922   3.737
66616W        W38931   3.272  31.994   1.397
66617W        W38932   3.922  10.754  10.493
66618W        W38933  12.289  37.370   5.091
66619W        W38934  41.796   5.314  10.495
66620W        W38935  43.939  16.134   3.669
66621W        W38936  21.209   2.874   0.366
66622W        W38937  28.183  25.632   0.385
66623W        W38938   6.368  39.975   0.755
66624W        W38939  31.024  31.145  12.460
66625W        W38940  12.267  19.070   9.441
66626W        W38941  22.588   7.350   5.148
66627W        W38942  10.218  24.498   2.776
66628W        W38943  15.234   7.339  11.887
66629W        W38944   2.730  28.042  13.812
66630W        W38945  25.036  40.459  13.952
66631W        W38946  34.575  27.623  12.971
66632W        W38947  32.470  40.994  12.868
66633W        W38948  41.838  12.341   2.365
66634W        W38949  19.070  14.235  14.470
66635W        W38950   9.784   3.323   0.843
66636W        W38951  27.538  24.633   4.261
66637W        W38952  18.693  30.071  12.902
66638W        W38953  14.713  44.309  12.993
66639W        W38954   5.386  41.470  11.551
66640W        W38955   0.858  23.690  12.455
66641W        W38956  31.616  18.687  14.007
66642W        W38957  16.269  20.526  13.326
66643W        W38958  23.131  44.391  14.803
66644W        W38959  43.782  25.681  12.875
66645W        W38960   8.365  31.900   3.818
66646W        W38961   0.950  33.395  12.412
66647W        W38962   9.189  32.924  12.490
66648W        W38963  14.224  24.639   4.236
66649W        W38964  10.872  36.855  13.797
66650W        W38965  23.670  26.097   4.692
66651W        W38966   6.724  21.227  13.002
66652W        W38967  21.639  19.162  14.833
66653W        W38968  31.529  26.009  12.890
66654W        W38969  32.086  21.085   3.218
66655W        W38970  34.878   1.950   0.362
66656W        W38971  18.549  35.512   3.298
66657W        W38972  30.658  27.038   1.211
66658W        W38973  30.133   4.383   2.860
66659W        W38974  20.101   5.909  13.408
66660W        W38975  21.188  29.526  14.886
66661W        W38976  36.095  35.003  10.908
66662W        W38977  19.086  37.863  11.957
66663W        W38978   6.359   8.825   0.375
66664W        W38979  21.251  19.728   5.134
66665W        W38980  11.624  43.943  14.884
66666W        W38981  27.470  40.969  10.976
66667W        W38982  33.533   9.218   4.269
66668W        W38983  19.284  40.509   0.879
66669W        W38984  14.154  13.700   1.318
66670W        W38985  30.963  43.452   3.752
66671W        W38986  28.628   8.848   1.435
66672W        W38987   7.313  40.403  10.930
66673W        W38988  19.649  11.243   3.337
66674W        W38989  36.546  30.999   1.814
66675W        W38990  33.386  30.515  14.377
66676W        W38991  35.474   1.892   2.346
66677W        W38992   4.230  32.996   0.462
66678W        W38993  36.859   6.730   1.758
66679W        W38994  30.161   9.211   1.779
66680W        W38995  32.118  32.937  13.022
66681W        W38996  21.186  20.529   3.640
66682W        W38997  24.087  25.093   1.307
66683W        W38998  43.355   4.314  14.863
66684W        W38999  14.596  29.448  12.855
66685W        W39000  13.304   2.802  11.858
66686W        W39001  22.026  12.170  10.576
66687W        W39002  28.006  31.908  11.481
66688W        W39003  11.667   7.843   3.773
66689W        W39004  28.577  19.107  13.030
66690W        W39005   5.864  11.784  10.404
66691W        W39006   0.915  30.584   4.647
66692W        W39007  29.111  34.368   3.637
66693W        W39008  27.084  22.236   4.707
66694W        W39009  30.529   4.902   4.623
66695W        W39010  34.374   1.861  13.045
66696W        W39011   7.188   7.818   0.926
66697W        W39012  15.806   4.248  12.074
66698W        W39013  32.909   1.265   0.877
66699W        W39014   4.255   5.716  12.871
66700W        W39015  40.510  43.015  14.366
66701W        W39016  20.546  23.132   4.294
66702W        W39017  29.040  26.661  13.496
66703W        W39018  32.484   5.772  12.425
66704W        W39019  44.431  42.371  14.765
66705W        W39020  10.734  32.498   2.792
66706W        W39021  40.022   1.840  11.113
66707W        W39022  38.042   1.793  11.035
66708W        W39023  33.601  24.074  11.115
66709W        W39024  22.089  10.684   3.775
66710W        W39025   2.815  19.754  12.371
66711W        W39026  24.678  23.101   2.700
66712W        W39027  14.681  19.226   0.859
66713W        W39028  29.925   0.982   2.790
66714W        W39029  25.576  35.105  12.432
66715W        W39030  28.467   5.248   2.419
66716W        W39031  22.093   6.730  12.347
66717W        W39032  18.206  15.585   1.279
66718W        W39033   9.650  40.515   2.213
66719W        W39034  37.845  23.583   0.396
66720W        W39035  42.460  35.065  14.302
66721W        W39036  17.675   3.824  13.532
66722W        W39037  16.780  21.644  13.794
66723W        W39038  22.577   1.242  11.008
66724W        W39039  34.090  30.501   1.776
66725W        W39040   0.413  43.807  10.553
66726W        W39041  39.547  43.981   2.317
66727W        W39042  33.911  15.188  11.011
66728W        W39043  22.180  34.077   3.801
66729W        W39044  14.280  27.510  13.539
66730W        W39045  22.134  38.015   3.158
66731W        W39046  44.478  41.419   1.409
66732W        W39047  39.327  41.029  12.441
66733W        W39048  27.563  40.443   0.263
66734W        W39049   1.775  35.914   1.853
66735W        W39050  29.484  26.064  11.488
66736W        W39051  14.165  26.063   3.380
66737W        W39052  40.540  39.022  12.924
66738W        W39053  32.602  18.182   2.865
66739W        W39054  18.209   1.375   4.221
66740W        W39055   3.723  12.118   4.119
66741W        W39056  38.369  36.364   3.764
66742W        W39057   6.291   1.441  11.869
66743W        W39058   0.265  15.168   3.715
66744W        W39059  34.461  41.444  14.326
66745W        W39060  17.165  36.913   3.740
66746W        W39061  37.537   8.834   2.395
66747W        W39062   8.885   0.958  13.059
66748W        W39063   0.278  34.385  13.845
66749W        W39064   0.942  17.766   1.319
66750W        W39065  38.567  13.234   0.883
66751W        W39066   0.823  31.048   0.453
66752W        W39067  34.477   6.249  11.497
66753W        W39068  37.504  19.107  10.636
66754W        W39069  33.476  28.613  12.430
66755W        W39070   5.410  37.961  12.566
66756W        W39071  30.954   2.849   4.189
66757W        W39072   5.359  27.164   2.345
66758W        W39073   4.424  44.420   1.774
66759W        W39074  33.996  22.028  14.865
66760W        W39075   8.309  21.598   2.765
66761W        W39076  41.360  26.585   1.781
66762W        W39077   2.408   0.909   3.270
66763W        W39078  39.463   4.824   3.310
66764W        W39079  30.971  42.024   3.845
66765W        W39080  35.053  37.449   5.241
66766W        W39081  43.348  38.401   0.743
66767W        W39082  31.905  25.061   1.392
66768W        W39083  43.842  39.541   3.843
66769W        W39084  27.585  10.689  11.125
66770W        W39085  44.356  19.723  13.508
66771W        W39086  23.016   4.891  11.599
66772W        W39087  14.629  44.782  14.366
66773W        W39088  18.138  28.500  10.449
66774W        W39089  12.287  12.317   1.758
66775W        W39090  27.994  39.496  12.971
66776W        W39091   4.781  23.702   1.923
66777W        W39092  15.130  17.166   2.764
66778W        W39093   4.324  13.134  12.972
66779W        W39094  10.779  39.028   1.721
66780W        W39095   8.841  34.963   1.912
66781W        W39096   8.826   1.431   2.783
66782W        W39097   2.854  27.615  10.560
66783W        W39098  27.649  22.042  10.482
66784W        W39099  43.403  37.064   2.380
66785W        W39100  17.264  30.460   2.899
66786W        W39101   0.361  17.616  13.048
66787W        W39102  26.588  16.176   3.735
66788W        W39103   2.324  37.894  14.398
66789W        W39104   9.864  32.080  14.516
66790W        W39105  10.306  14.596  10.417
66791W        W39106  19.193  20.117  13.312
66792W        W39107  20.617  44.843  13.474
66793W        W39108  21.564  26.006   1.707
66794W        W39109   5.738   3.762  13.975
66795W        W39110  10.737   2.808  14.948
66796W        W39111   4.703  14.320  10.043
66797W        W39112  24.009   9.855   3.190
66798W        W39113  15.659  44.826   1.330
66799W        W39114  38.440  27.129  10.507
66800W        W39115   5.736  21.163  11.882
66801W        W39116  44.345  32.518   0.452
66802W        W39117  19.109  35.952  12.404
66803W        W39118  43.900  18.233  13.798
66804W        W39119   7.706   8.244   4.158
66805W        W39120  44.836  40.880  14.457
66806W        W39121  20.051  23.553  12.347
66807W        W39122  15.303  24.630   3.831
66808W        W39123  25.964  10.653   3.723
66809W        W39124   7.868  24.025  14.766
66810W        W39125  30.609  21.041   0.382
66811W        W39126  35.526  33.394   3.864
66812W        W39127  32.011  34.884   3.764
66813W        W39128  16.299  18.703  11.946
66814W        W39129  24.694  26.472  11.989
66815W        W39130  29.512   3.893   3.167
66816W        W39131   8.258  26.645   2.821
66817W        W39132  42.442  12.647  11.112
66818W        W39133  21.621  31.956   1.248
66819W        W39134  24.524  17.620   3.749
66820W        W39135   2.826  32.590  11.120
66821W        W39136  22.626  24.139  11.585
66822W        W39137  12.181  21.625   3.723
66823W        W39138   5.814  39.425   0.371
66824W        W39139  43.981  25.506   3.864
66825W        W39140   8.256  40.808   1.930
66826W        W39141  21.253  33.913   0.797
66827W        W39142  18.234  25.513   2.224
66828W        W39143  39.058  42.497  14.870
66829W        W39144  41.361  27.006  13.858
66830W        W39145   4.845   7.397   0.753
66831W        W39146   5.285  13.688  11.435
66832W        W39147  36.406  32.943  14.786
66833W        W39148  33.933  12.736  12.954
66834W        W39149  15.701  28.173  14.011
66835W        W39150  32.932  30.646   0.901
66836W        W39151  26.576  13.626  10.474
66837W        W39152   8.406   7.782   4.116
66838W        W39153  35.856  34.949   3.859
66839W        W39154  31.417   2.829   0.873
66840W        W39155   2.282  24.481   1.339
66841W        W39156  25.133  43.765  13.400
66842W        W39157   0.337   9.836  11.024
66843W        W39158  34.577  34.999  14.949
66844W        W39159  24.027  43.270  12.469
66845W        W39160   1.921  14.624   4.333
66846W        W39161  18.125  17.236  14.386
66847W        W39162  25.706  29.536   0.806
66848W        W39163   8.890  18.677   2.244
66849W        W39164   4.763  19.284  14.882
66850W        W39165   6.755  44.458  13.541
66851W        W39166  44.878  44.400   2.341
66852W        W39167  19.131  37.461  11.484
66853W        W39168   5.323   3.221  12.901
66854W        W39169  18.609  25.701  11.973
66855W        W39170  20.727   9.677   4.734
66856W        W39171  13.340  26.080   1.789
66857W        W39172  23.510  15.126  12.051
66858W        W39173   9.385   0.355  10.962
66859W        W39174   6.840   8.742  13.990
66860W        W39175   9.167  28.667  12.466
66861W        W39176   9.248  30.439  10.911
66862W        W39177  11.332  41.499   4.708
66863W        W39178  31.118   4.353   1.714
66864W        W39179  12.252  18.219  10.913
66865W        W39180  36.509  18.725  13.912
66866W        W39181  22.076  41.331  14.032
66867W        W39182  23.042  38.062  13.522
66868W        W39183  31.108  30.442   3.745
66869W        W39184  38.426  11.199   3.813
66870W        W39185  12.252  43.948   2.283
66871W        W39186  19.127  14.660  10.555
66872W        W39187   4.709  15.618   3.764
66873W        W39188  16.169  26.680  11.029
66874W        W39189   2.315  44.971   1.697
66875W        W39190  13.310   4.773  10.431
66876W        W39191  21.066  26.961   3.305
66877W        W39192  29.526  12.634   4.707
66878W        W39193  25.704  17.600   1.817
66879W        W39194   3.899  31.646   4.348
66880W        W39195  35.009  13.173  13.902
66881W        W39196   0.793  24.653  14.798
66882W        W39197   1.321  26.040   1.388
66883W        W39198  28.960  23.016   3.295
66884W        W39199   9.866  18.256  13.063
66885W        W39200  28.117  37.063  11.446
66886W        W39201   0.494  22.043  11.062
66887W        W39202  13.257  10.794   2.860
66888W        W39203  37.338  36.858  14.970
66889W        W39204  44.363   3.756   2.843
66890W        W39205  25.974  25.621  12.889
66891W        W39206  27.168  42.398   2.834
66892W        W39207  23.061   1.331  12.849
66893W        W39208  14.256   2.274  11.029
66894W        W39209   6.377  29.957  14.954
66895W        W39210  41.962  24.065   0.893
66896W        W39211  37.979  34.890  11.864
66897W        W39212  11.737   6.371  14.007
66898W        W39213  27.953  43.966   3.759
66899W        W39214  11.144  24.179   3.638
66900W        W39215  17.225  17.099   3.634
66901W        W39216   8.322  21.210   3.686
66902W        W39217  16.158  26.628   3.737
66903W        W39218  36.456  23.024   2.381
66904W        W39219  16.724  39.437  14.332
66905W        W39220  12.710  30.454   2.879
66906W        W39221   6.220  24.706  13.545
66907W        W39222  14.303  38.016  13.063
66908W        W39223  16.678   5.313   2.751
66909W        W39224  41.846   4.320   1.775
66910W        W39225  18.789  39.395  11.526
66911W        W39226  39.871  34.537  14.976
66912W        W39227  18.601   5.230   1.919
66913W        W39228   3.913  24.648  14.848
66914W        W39229  16.792  36.013   3.676
66915W        W39230  33.475  34.470   9.956
66916W        W39231   6.903  10.813  13.884
66917W        W39232   8.325  19.613   2.793
66918W        W39233  25.140  13.106  12.843
66919W        W39234  38.393  30.654  14.508
66920W        W39235  14.113   5.757  11.507
66921W        W39236  27.663  31.101  10.058
66922W        W39237  15.146  26.568  11.456
66923W        W39238  26.956  33.120  11.577
66924W        W39239   1.276  38.848   2.217
66925W        W39240   6.369  25.649  13.986
66926W        W39241  33.581  38.912  12.514
66927W        W39242  12.261   4.865  11.021
66928W        W39243  33.465  37.035  14.460
66929W        W39244  23.573  13.218   3.765
66930W        W39245  17.744  40.499   1.847
66931W        W39246   2.736  39.413   2.858
66932W        W39247   2.956  31.464  12.389
66933W        W39248  41.535  37.384   3.711
66934W        W39249  25.657   2.291   2.301
66935W        W39250  19.594  16.699   1.870
66936W        W39251  17.134  38.472  13.957
66937W        W39252  29.498  20.552  14.414
66938W        W39253  34.586  24.620  13.892
66939W        W39254  24.624  42.003   1.289
66940W        W39255  31.066  36.874  14.031
66941W        W39256  24.177   2.964   4.755
66942W        W39257  29.617  34.081   1.316
66943W        W39258  24.676  36.553   3.821
66944W        W39259  20.139  35.471  10.944
66945W        W39260  41.789   2.372   2.772
66946W        W39261  19.742  44.502  13.392
66947W        W39262  27.584   5.842   4.623
66948W        W39263  21.565   4.288  10.520
66949W        W39264  13.127  21.245   1.409
66950W        W39265  18.550   2.965  13.499
66951W        W39266  27.197  12.207   2.267
66952W        W39267  42.888   3.848   1.212
66953W        W39268  36.546  30.011   2.762
66954W        W39269  16.786   6.795  11.465
66955W        W39270  12.708  35.412   3.381
66956W        W39271  35.872  20.660   1.212
66957W        W39272  22.672  32.076   2.756
66958W        W39273   4.722  12.617  12.011
66959W        W39274  42.958  40.369  12.951
66960W        W39275  15.775  31.906  11.606
66961W        W39276  19.268  36.844  14.923
66962W        W39277  35.376   5.393  11.461
66963W        W39278  36.936  15.787  11.599
66964W        W39279  11.231   9.290  14.502
66965W        W39280  41.345  21.165  13.544
66966W        W39281  23.151   0.400  14.794
66967W        W39282  38.923  18.153  13.950
66968W        W39283  26.182   6.736   2.886
66969W        W39284  43.345  27.588   4.659
66970W        W39285   4.375  41.363   1.408
66971W        W39286  33.437  11.643  14.891
66972W        W39287  18.737  26.083   1.797
66973W        W39288   2.912   9.672  14.392
66974W        W39289  14.642  11.342   2.739
66975W        W39290  12.328  38.930  12.076
66976W        W39291  11.344  16.662  13.457
66977W        W39292  35.420  43.272   2.689
66978W        W39293  44.822   7.832  14.378
66979W        W39294  43.285   0.420  13.044
66980W        W39295  12.790  35.914  12.475
66981W        W39296  26.112  24.563  14.951
66982W        W39297  31.617  23.493  12.063
66983W        W39298   3.835   1.281  14.965
66984W        W39299  28.450   7.417   3.818
66985W        W39300  35.974   4.902  14.902
66986W        W39301  14.679  11.863  13.977
66987W        W39302  24.167   7.199  12.039
66988W        W39303  36.032  11.759  14.986
66989W        W39304  24.646  41.529   3.214
66990W        W39305   7.869   0.293   0.812
66991W        W39306  18.654  11.250  11.041
66992W        W39307  32.958  31.517  14.885
66993W        W39308   5.709  43.906   0.915
66994W        W39309   1.893  42.448  12.013
66995W        W39310  11.831  38.561   2.345
66996W        W39311  10.174   3.780   3.385
66997W        W39312  17.292  20.032   3.835
66998W        W39313  44.307   5.354   2.198
66999W        W39314  33.518  34.587   0.799
67000W        W39315   5.931  19.044   3.270
67001W        W39316  20.169   3.805   1.410
67002W        W39317  11.264  40.021   1.872
67003W        W39318  40.967   4.881   4.197
67004W        W39319   0.959   3.820  12.449
67005W        W39320  41.511   2.810   2.724
67006W        W39321   7.399  35.460   0.414
67007W        W39322   0.760   6.783   2.721
67008W        W39323  29.020  28.961   3.331
67009W        W39324  37.973   4.724   1.429
67010W        W39325   4.860   4.716  13.832
67011W        W39326  40.490  41.492   0.921
67012W        W39327  13.602   0.761   1.701
67013W        W39328  19.051  30.947   3.703
67014W        W39329  26.108   6.279  11.044
67015W        W39330  43.792  37.347   0.891
67016W        W39331   8.347  36.384  13.309
67017W        W39332  22.252  27.521   0.771
67018W        W39333  38.486  35.085  10.466
67019W        W39334  13.113  17.683  13.410
67020W        W39335   3.319   4.445   2.708
67021W        W39336  22.010   2.472  12.049
67022W        W39337  38.532  42.428  11.440
67023W        W39338   3.857  40.513  12.951
67024W        W39339  18.118  32.010  14.778
67025W        W39340  21.706  13.688  12.902
67026W        W39341  17.123  11.272  11.855
67027W        W39342  10.343  24.184  13.421
67028W        W39343   5.299   2.745   2.863
67029W        W39344  31.094  16.580  10.483
67030W        W39345   4.866  37.535  14.379
67031W        W39346  14.690  25.181  12.009
67032W        W39347  22.155  19.568   9.616
67033W        W39348   3.240  17.065   0.800
67034W        W39349  14.658  20.080   4.634
67035W        W39350  36.908  31.135   4.302
67036W        W39351   0.455  36.021   2.662
67037W        W39352  33.020   8.274  12.967
67038W        W39353  34.567  27.168  11.108
67039W        W39354  29.457  27.960   4.783
67040W        W39355  24.628  10.162  13.970
67041W        W39356  24.542  16.285  11.989
67042W        W39357  13.600  20.036  13.791
67043W        W39358  35.076  26.192  14.938
67044W        W39359  33.381  17.606   1.769
67045W        W39360  36.446  38.976   1.906
67046W        W39361  32.478  19.209   3.279
67047W        W39362  23.059  25.667   2.213
67048W        W39363  21.661  22.549  13.451
67049W        W39364   2.730  11.253  11.417
67050W        W39365  30.960   9.369  10.444
67051W        W39366   6.392  32.042   4.308
67052W        W39367  15.160   2.801  13.344
67053W        W39368  11.740   6.262  10.411
67054W        W39369  22.122  31.946  13.538
67055W        W39370   0.869   9.802  13.523
67056W        W39371  16.758  35.882   2.702
67057W        W39372  16.601  26.058   0.790
67058W        W39373  23.136  44.957   4.651
67059W        W39374  22.538  41.419  10.578
67060W        W39375   3.748  14.217   1.265
67061W        W39376  32.420   6.782   2.666
67062W        W39377  44.413  18.590   5.221
67063W        W39378   8.897  23.198   0.886
67064W        W39379  30.431  37.085  11.028
67065W        W39380  43.866   5.817  12.866
67066W        W39381  10.854  27.576  11.520
67067W        W39382  30.418  41.436   0.279
67068W        W39383  18.250  14.323  13.392
67069W        W39384  11.286  14.774   1.875
67070W        W39385  31.642  44.285  14.999
67071W        W39386  36.424  14.181   3.333
67072W        W39387  11.658   2.322   2.413
67073W        W39388  19.214  32.448  13.308
67074W        W39389  10.857  27.588   4.332
67075W        W39390  39.896  43.928  11.566
67076W        W39391  33.975  15.595   2.843
67077W        W39392  19.603  34.604  10.633
67078W        W39393  40.315  38.872  11.879
67079W        W39394  16.173  37.487   0.913
67080W        W39395  14.734   9.795  12.560
67081W        W39396  16.098  16.300   1.283
67082W        W39397  40.858   1.253  10.462
67083W        W39398  25.701  24.130  13.938
67084W        W39399  14.274  27.601   1.261
67085W        W39400  14.291   8.262   0.905
67086W        W39401  35.864  11.155   1.807
67087W        W39402  11.834  17.713  13.821
67088W        W39403  34.993  40.495  11.596
67089W        W39404  29.089   4.330   1.308
67090W        W39405  13.693  16.757   4.197
67091W        W39406   3.438  44.298  13.341
67092W        W39407  43.785  18.276   4.706
67093W        W39408  35.906  11.621   4.185
67094W        W39409  13.776  24.056   1.770
67095W        W39410  18.720  20.605   0.267
67096W        W39411  20.273  41.400  14.856
67097W        W39412  13.141  19.170  12.824
67098W        W39413   8.658   7.679  14.426
67099W        W39414  36.024   8.359  13.534
67100W        W39415  34.488  10.787   1.773
67101W        W39416  34.031  37.496   2.296
67102W        W39417  14.266  29.948  11.485
67103W        W39418  19.136   0.902  11.522
67104W        W39419  20.526  42.008  11.499
67105W        W39420  40.907   8.306   2.902
67106W        W39421  34.917   7.748   1.432
67107W        W39422  35.566  13.199  10.927
67108W        W39423  19.096   0.431   2.877
67109W        W39424  12.783  28.138   0.395
67110W        W39425  26.533   6.730  10.961
67111W        W39426  12.849  39.550   4.113
67112W        W39427  26.088  11.856   0.252
67113W        W39428  34.525   7.795   1.841
67114W        W39429   6.765  37.534   1.745
67115W        W39430   5.876  30.558  12.552
67116W        W39431  23.585   6.679   3.687
67117W        W39432   3.433  22.150   4.236
67118W        W39433  31.142  11.768  11.445
67119W        W39434  14.196  19.694  10.465
67120W        W39435  25.479   8.829  12.352
67121W        W39436   3.293  13.224   2.288
67122W        W39437  24.675   8.160   2.802
67123W        W39438  40.835   3.374   4.209
67124W        W39439   5.716  17.628  12.355
67125W        W39440  12.181  10.711   0.729
67126W        W39441  22.157  30.144   4.179
67127W        W39442   0.314  29.595   4.628
67128W        W39443  12.662   5.760  12.566
67129W        W39444  25.017  40.900  13.897
67130W        W39445  10.822  23.666  12.969
67131W        W39446  28.447  17.153   3.175
67132W        W39447  18.771   7.793  13.352
67133W        W39448  26.973   1.924   0.841
67134W        W39449  11.247  43.997   4.775
67135W        W39450  25.031  14.687  12.580
67136W        W39451  17.151   0.907   3.749
67137W        W39452  37.489  41.971   3.867
67138W        W39453  21.698  12.761   0.259
67139W        W39454  20.755  11.729  14.974
67140W        W39455   1.371  15.813  12.979
67141W        W39456  17.168  38.556   9.506
67142W        W39457  40.510  38.502  14.333
67143W        W39458  18.703  23.032   1.314
67144W        W39459   3.781  21.668   1.410
67145W        W39460   3.376  10.702   4.262
67146W        W39461  43.873   6.254  14.960
67147W        W39462  37.911  25.195   2.197
67148W        W39463  17.599   9.345  13.061
67149W        W39464  28.133  43.017   3.748
67150W        W39465  13.296  36.075   4.164
67151W        W39466  40.019  20.237   4.202
67152W        W39467  20.534  20.110  11.119
67153W        W39468  26.660  36.023   4.619
67154W        W39469  33.103  40.963   1.403
67155W        W39470  19.773  12.683  12.087
67156W        W39471  12.209  29.079  10.896
67157W        W39472  10.238  31.427   9.958
67158W        W39473  38.480  17.796   1.912
67159W        W39474   9.863  30.603   4.631
67160W        W39475   6.679  28.980  12.524
67161W        W39476  11.666  43.292   2.799
67162W        W39477  31.619  34.087   4.336
67163W        W39478   8.313  44.498   2.877
67164W        W39479  37.408  26.086  10.495
67165W        W39480  19.537  10.310   0.751
67166W        W39481  16.626   4.933   1.330
67167W        W39482  37.570  16.776  12.859
67168W        W39483  20.638   2.345  12.887
67169W        W39484  24.067  31.018   0.347
67170W        W39485  20.244  22.091  12.430
67171W        W39486  18.146  11.734   1.298
67172W        W39487  38.042   4.777   0.944
67173W        W39488  26.185  24.140   2.801
67174W        W39489  25.989  30.977  14.901
67175W        W39490   7.240  13.236   0.426
67176W        W39491  42.366  27.608   0.355
67177W        W39492  42.463  30.502  11.933
67178W        W39493   8.824   6.350  13.463
67179W        W39494  38.509  14.249  11.570
67180W        W39495   7.725  16.699  13.413
67181W        W39496  28.560   4.256  11.915
67182W        W39497  12.771  34.941  14.331
67183W        W39498  38.863   4.220   2.872
67184W        W39499  18.288  40.308   1.392
67185W        W39500  18.687  23.617   1.807
67186W        W39501  21.605  37.530  10.924
67187W        W39502  10.281  17.267  13.472
67188W        W39503  32.424  38.903   3.693
67189W        W39504  25.583  26.024  14.407
67190W        W39505  30.629  29.041   1.926
67191W        W39506  11.746  10.272   0.755
67192W        W39507  16.712  32.595  13.452
67193W        W39508  22.734  13.225   5.307
67194W        W39509  41.011  25.499   4.643
67195W        W39510  27.519   4.213  14.961
67196W        W39511   4.247   9.811  12.935
67197W        W39512   6.364  32.592  12.451
67198W        W39513  26.160  43.786  13.034
67199W        W39514  19.281  27.045  14.950
67200W        W39515  26.549  20.088  12.977
67201W        W39516  20.656  16.310   2.308
67202W        W39517  29.465  37.476   2.849
67203W        W39518  34.527  11.321  11.051
67204W        W39519  34.612   6.353  13.444
67205W        W39520  26.588   3.834   1.738
67206W        W39521  41.337  21.125   1.885
67207W        W39522  18.208   9.195  10.026
67208W        W39523  32.604  41.335   3.766
67209W        W39524   0.814  14.268  13.027
67210W        W39525  39.950   0.801   2.224
67211W        W39526  28.056   9.839   3.379
67212W        W39527  41.849  13.625   0.306
67213W        W39528  38.396  28.608  14.836
67214W        W39529  18.054  11.274  10.508
67215W        W39530  17.301  12.131  13.332
67216W        W39531  44.453   1.802   2.810
67217W        W39532  31.029  38.031  14.425
67218W        W39533  43.855  32.608  13.801
67219W        W39534  35.998  31.572   3.693
67220W        W39535  20.618  18.260  13.418
67221W        W39536  41.948  25.514   4.823
67222W        W39537  24.670  25.217  11.891
67223W        W39538  32.953  32.002   2.681
67224W        W39539  42.307   4.317   0.381
67225W        W39540  19.695  22.111   0.453
67226W        W39541   4.803  24.543  12.401
67227W        W39542  31.135   5.891   3.315
67228W        W39543  27.672  36.557  11.594
67229W        W39544  33.382  15.717  12.512
67230W        W39545  34.543  30.628  14.863
67231W        W39546  28.962  27.146  11.604
67232W        W39547  27.158   8.374   2.804
67233W        W39548  29.528  11.637   1.835
67234W        W39549  18.181  31.612  13.332
67235W        W39550  40.846  41.298  13.040
67236W        W39551  10.816  21.639  11.437
67237W        W39552  24.061  30.630   4.817
67238W        W39553  37.567   8.180  10.608
67239W        W39554  36.903  38.022  13.957
67240W        W39555  42.515  41.023  11.994
67241W        W39556   7.371  40.810  14.991
67242W        W39557  23.654  18.265  13.380
67243W        W39558   4.241   0.976  12.052
67244W        W39559  30.443   2.899   0.738
67245W        W39560  23.129  29.602  11.912
67246W        W39561  37.400  26.079  10.013
67247W        W39562   7.747  35.509  13.998
67248W        W39563  28.550  25.002   2.290
67249W        W39564  16.569  15.201   2.419
67250W        W39565  37.580   6.832  13.794
67251W        W39566  27.649  26.183   3.757
67252W        W39567  28.560  21.659   4.761
67253W        W39568  23.717  19.157  11.513
67254W        W39569  44.315  24.570   1.810
67255W        W39570  20.735  31.123   4.236
67256W        W39571  17.642   1.935   0.342
67257W        W39572   8.709  39.542  13.802
67258W        W39573  34.097   2.301   1.411
67259W        W39574   6.762  11.294   4.189
67260W        W39575  44.437  17.180   3.168
67261W        W39576   4.352  41.041  14.788
67262W        W39577  13.784  26.632   1.928
67263W        W39578  22.582  44.409   2.677
67264W        W39579  25.505  15.650   0.792
67265W        W39580  39.948  40.517  13.378
67266W        W39581   1.961   5.381  10.973
67267W        W39582  44.826  32.601   0.261
67268W        W39583  33.934  19.668   5.200
67269W        W39584   8.679  16.263   0.824
67270W        W39585  42.969   4.737  13.978
67271W        W39586  29.101  24.484   0.819
67272W        W39587  39.345  15.614  14.762
67273W        W39588   7.768  35.506   2.686
67274W        W39589  25.582  25.486   4.120
67275W        W39590  31.899   7.369  13.850
67276W        W39591   1.865  31.589   1.726
67277W        W39592   6.700  13.718  13.837
67278W        W39593  21.026   3.372  11.599
67279W        W39594  16.180  30.934   1.745
67280W        W39595  38.907   3.432   0.347
67281W        W39596  16.192  17.127  12.033
67282W        W39597  26.477  14.101   0.924
67283W        W39598  17.584  40.544  10.154
67284W        W39599  43.909   8.699  13.795
67285W        W39600   7.861  26.504   5.162
67286W        W39601  44.335  13.141  13.848
67287W        W39602  13.773  20.626  14.783
67288W        W39603  35.099  12.849   3.271
67289W        W39604  33.926  33.061   0.419
67290W        W39605  37.005  12.341   2.761
67291W        W39606  14.335  39.542  12.988
67292W        W39607  41.931   1.856   5.212
67293W        W39608  15.601  10.283   0.436
67294W        W39609  17.764  24.009   3.725
67295W        W39610  23.605   7.213  13.390
67296W        W39611   6.299  15.239   3.292
67297W        W39612  11.741   1.738   0.919
67298W        W39613  28.173  10.177  12.848
67299W        W39614   3.804   2.895  14.397
67300W        W39615  21.548   0.466   3.283
67301W        W39616  29.971  32.419  14.333
67302W        W39617  25.640  16.236  10.492
67303W        W39618  35.494   7.363   4.686
67304W        W39619  22.623  20.655  14.846
67305W        W39620  22.015  32.603   1.855
67306W        W39621  13.809  12.714   4.301
67307W        W39622  36.884  24.002  12.995
67308W        W39623  27.664  42.504  11.115
67309W        W39624  26.512  26.967  13.348
67310W        W39625  17.757  22.060   1.725
67311W        W39626   1.423  15.138  13.030
67312W        W39627  35.527   1.435   4.624
67313W        W39628   3.417  35.104  13.985
67314W        W39629  19.155  21.727   3.169
67315W        W39630  29.169  14.716  12.502
67316W        W39631  25.169  29.472   2.680
67317W        W39632  38.843  32.580   0.463
67318W        W39633   6.855  44.817   2.880
67319W        W39634  44.413  33.942   0.857
67320W        W39635   8.890  16.275   1.921
67321W        W39636  11.317  28.486   3.826
67322W        W39637  31.003  34.872   0.315
67323W        W39638  28.500   7.688   1.748
67324W        W39639  38.347  33.589  14.296
67325W        W39640  39.043  25.205   0.348
67326W        W39641  35.470   4.299   4.618
67327W        W39642  10.244   9.736   3.747
67328W        W39643  29.464  14.259   4.710
67329W        W39644  20.216  24.088   3.759
67330W        W39645  17.158   2.430  10.574
67331W        W39646  32.058  28.960  10.941
67332W        W39647  39.980  39.983  11.062
67333W        W39648  33.922  12.801   1.296
67334W        W39649  11.347  19.719   1.751
67335W        W39650  18.233  11.628  12.536
67336W        W39651   3.824  40.815   3.720
67337W        W39652  27.037  15.580   1.229
67338W        W39653  36.873  27.628   4.745
67339W        W39654  41.401  32.583   0.957
67340W        W39655  26.952  15.650   0.957
67341W        W39656  31.454   9.253  12.917
67342W        W39657  14.789  28.557   2.672
67343W        W39658  21.653  13.734  10.976
67344W        W39659  15.131  44.994   1.697
67345W        W39660  39.998  22.638  14.951
67346W        W39661  43.419  25.992  12.577
67347W        W39662  33.131  41.385  13.813
67348W        W39663  41.327   0.362  10.946
67349W        W39664   5.760  12.225  12.998
67350W        W39665   9.279  43.003   1.779
67351W        W39666   2.282  34.005   4.736
67352W        W39667   5.248   5.259   3.658
67353W        W39668   9.669  32.491   3.233
67354W        W39669  38.335  21.229   5.252
67355W        W39670   9.395  36.563   2.249
67356W        W39671  44.925   9.168  11.562
67357W        W39672  32.949  44.340   4.652
67358W        W39673   5.256  22.716   3.153
67359W        W39674  17.204  24.621   1.378
67360W        W39675   5.724   2.427  10.958
67361W        W39676   7.820   1.967   2.338
67362W        W39677  27.615  17.635  10.576
67363W        W39678  12.707  10.806  11.966
67364W        W39679  38.864   9.183   1.758
67365W        W39680  21.676  20.726   1.820
67366W        W39681  10.243  28.468  13.309
67367W        W39682  10.307  20.170  10.956
67368W        W39683  17.149  42.009  13.018
67369W        W39684  27.450  36.561  13.383
67370W        W39685  42.885  10.817   2.724
67371W        W39686  17.571  31.952   2.893
67372W        W39687  33.984  41.929  10.632
67373W        W39688  35.941   1.410   2.311
67374W        W39689   3.246   3.439   4.651
67375W        W39690   8.771  15.312   3.843
67376W        W39691  35.104  42.879   1.734
67377W        W39692  28.649  15.749  13.975
67378W        W39693  35.573  12.709  13.846
67379W        W39694  13.679  10.311   3.290
67380W        W39695  25.164  39.052   0.812
67381W        W39696   5.773  32.042  14.478
67382W        W39697  37.508  21.129   0.276
67383W        W39698  13.295   2.945  13.411
67384W        W39699   1.865  39.969   3.190
67385W        W39700  25.079  38.010  11.948
67386W        W39701  28.576  17.264   1.383
67387W        W39702  13.642  32.513  12.579
67388W        W39703  44.260  34.465   1.760
67389W        W39704   9.672  38.405   1.808
67390W        W39705  38.866  43.988  11.095
67391W        W39706  42.340   8.852   0.470
67392W        W39707   2.959  23.549  11.575
67393W        W39708  40.418  39.453   2.883
67394W        W39709   7.217  25.174   1.426
67395W        W39710  17.236   7.235   1.370
67396W        W39711  27.673   5.884   1.767
67397W        W39712   6.182  43.881  11.097
67398W        W39713  12.817  17.589  12.444
67399W        W39714   3.389  33.923  13.516
67400W        W39715  18.261  18.074  11.544
67401W        W39716   6.265  19.087   0.259
67402W        W39717  43.845   8.330  12.939
67403W        W39718   0.836  22.719   1.413
67404W        W39719   8.787  23.122  14.470
67405W        W39720  22.566  42.903   1.397
67406W        W39721  21.695  40.336   0.363
67407W        W39722   1.798  15.131  11.891
67408W        W39723   4.907  19.585  14.996
67409W        W39724  29.990  28.664  10.907
67410W        W39725  10.859  29.535  10.897
67411W        W39726  25.635  16.228   0.479
67412W        W39727  12.637   0.341  13.482
67413W        W39728  23.120  29.554   3.705
67414W        W39729   7.789  24.549   3.732
67415W        W39730  25.647  12.234  11.531
67416W        W39731  36.025  32.399   0.826
67417W        W39732  12.222  37.830   3.703
67418W        W39733  31.566  35.883   1.880
67419W        W39734  11.352  14.292  13.383
67420W        W39735   8.890  36.983  14.344
67421W        W39736  20.538  14.741  12.051
67422W        W39737   8.790  11.340  14.382
67423W        W39738  24.006  21.685   0.385
67424W        W39739  10.818  41.812  10.912
67425W        W39740  43.453   0.344  12.001
67426W        W39741  40.892   8.758   3.801
67427W        W39742  23.104  22.116   5.594
67428W        W39743  40.500  37.478   2.746
67429W        W39744  20.703  43.889  14.851
67430W        W39745   0.763   7.292  10.587
67431W        W39746  36.088  29.491   4.309
67432W        W39747  12.323  29.429  12.352
67433W        W39748  35.572  40.886   4.646
67434W        W39749   3.328  13.725  13.020
67435W        W39750   1.438  39.431   4.615
67436W        W39751   9.365  23.172   4.130
67437W        W39752  36.933   1.392  11.572
67438W        W39753  21.249  23.703  13.016
67439W        W39754  21.690  44.974  11.941
67440W        W39755  27.128  28.117   4.182
67441W        W39756   5.401  40.877  12.514
67442W        W39757  13.220  10.714   4.146
67443W        W39758  15.767  13.814  10.498
67444W        W39759  16.087  26.535  14.973
67445W        W39760   6.359   7.291   9.989
67446W        W39761  13.604   8.193   4.676
67447W        W39762  29.573   1.831   4.681
67448W        W39763  39.896  34.598   3.647
67449W        W39764  32.894   4.729   1.396
67450W        W39765   8.820  19.283  12.076
67451W        W39766  29.124  31.029   4.143
67452W        W39767  38.063  39.927  10.967
67453W        W39768  30.080  39.036   0.325
67454W        W39769  16.186  34.975   4.839
67455W        W39770  16.085  26.077   1.336
67456W        W39771   7.408   1.808   1.356
67457W        W39772  31.630  42.993  13.007
67458W        W39773  23.628  17.602   0.416
67459W        W39774   2.858   7.794   4.678
67460W        W39775  32.571  15.709  13.482
67461W        W39776  24.210  41.339   4.745
67462W        W39777  31.968  13.756   4.297
67463W        W39778  25.114  13.636   1.324
67464W        W39779  22.668  36.550   2.221
67465W        W39780   3.800   6.912  11.391
67466W        W39781  10.258  24.554  10.552
67467W        W39782  14.190  24.679  10.481
67468W        W39783  40.800  13.676   4.151
67469W        W39784   8.267  20.163  12.946
67470W        W39785   2.965  28.118   4.341
67471W        W39786  19.734  33.097   2.664
67472W        W39787  23.532  39.934   4.750
67473W        W39788   6.694  40.905   2.184
67474W        W39789  31.050  41.520   1.716
67475W        W39790   5.865  13.716  11.110
67476W        W39791  19.253  16.204   0.755
67477W        W39792  28.030  26.618  12.383
67478W        W39793  18.781   5.371  10.633
67479W        W39794  17.215  19.637  13.836
67480W        W39795  26.090  21.148  11.934
67481W        W39796  28.105   2.951   4.736
67482W        W39797  11.165  27.643  13.457
67483W        W39798  19.102  12.803  10.470
67484W        W39799  12.817  28.127   3.191
67485W        W39800  16.782  25.174   4.250
67486W        W39801  33.035  29.432   4.291
67487W        W39802   3.357  19.702  14.281
67488W        W39803   1.252  29.982  11.410
67489W        W39804  12.299  17.788   9.929
67490W        W39805   2.956  14.138   1.284
67491W        W39806  40.036   2.846  11.862
67492W        W39807  25.197  34.975  14.009
67493W        W39808  44.310  39.051  14.925
67494W        W39809  17.174  15.112   3.768
67495W        W39810  12.842  43.825   0.423
67496W        W39811   7.177  27.630  14.946
67497W        W39812  20.559   6.715  12.969
67498W        W39813   1.919  40.884   2.882
67499W        W39814  33.984   8.869   5.271
67500W        W39815  18.174  10.247  12.952
67501W        W39816  34.931  11.261  13.877
67502W        W39817  31.005  43.011   3.305
67503W        W39818  19.193  33.116  12.360
67504W        W39819  42.941  10.287   2.890
67505W        W39820  17.222  25.068  11.970
67506W        W39821  20.714   2.834  11.999
67507W        W39822   5.336  24.514  14.785
67508W        W39823  11.744  39.056  12.936
67509W        W39824  36.946  32.978   4.687
67510W        W39825  37.492  22.033   4.726
67511W        W39826  31.094  20.237   2.702
67512W        W39827  40.324  24.608   0.422
67513W        W39828  13.846  10.808   3.326
67514W        W39829  23.011  30.444   2.701
67515W        W39830  37.898  33.438  10.088
67516W        W39831   3.221  44.350   2.875
67517W        W39832  36.586  29.068   0.774
67518W        W39833  35.988  37.008  13.547
67519W        W39834   2.459  40.538   0.885
67520W        W39835  40.361  40.452   3.222
67521W        W39836  31.063  19.609  11.924
67522W        W39837   9.253  29.471  11.071
67523W        W39838  37.979   9.393  13.466
67524W        W39839  23.712   8.169   4.256
67525W        W39840   3.773  18.140   1.439
67526W        W39841  40.886   6.755   1.831
67527W        W39842  21.237  44.970  13.882
67528W        W39843  23.181  29.594  10.451
67529W        W39844  30.981  37.060  10.645
67530W        W39845  34.387  34.873  10.414
67531W        W39846  12.854   8.306  13.049
67532W        W39847  41.937  39.517  12.063
67533W        W39848  42.400  18.071   2.776
67534W        W39849  27.547  33.960  10.062
67535W        W39850  23.663  39.315   0.468
67536W        W39851  40.822   7.228   1.313
67537W        W39852  38.378   7.274  13.817
67538W        W39853  16.148  28.956   0.752
67539W        W39854  28.627  35.921  13.038
67540W        W39855  20.604  42.427  14.399
67541W        W39856   0.759  44.784  12.560
67542W        W39857  19.040  10.311  13.975
67543W        W39858  43.510  23.646   2.873
67544W        W39859  27.122  16.632   1.859
67545W        W39860   0.342   7.214  11.993
67546W        W39861  10.830  41.863  14.926
67547W        W39862  23.592  11.185   1.287
67548W        W39863   1.253  30.061  13.868
67549W        W39864   1.972   8.361  13.806
67550W        W39865  30.113  31.410  13.902
67551W        W39866  38.883   6.849  13.856
67552W        W39867  19.058  38.555   3.199
67553W        W39868   9.258  25.629   4.193
67554W        W39869  28.462  22.527   0.808
67555W        W39870  25.989  27.142   0.815
67556W        W39871  18.737  19.763   4.126
67557W        W39872  12.262  18.717  12.995
67558W        W39873  16.306  15.324   3.255
67559W        W39874  36.383  30.456  10.891
67560W        W39875  15.282  22.520  12.880
67561W        W39876  43.773   9.168   1.351
67562W        W39877   4.856   1.748  12.873
67563W        W39878  24.137   6.325   0.295
67564W        W39879  39.334  32.488   0.762
67565W        W39880  33.936   6.312  11.398
67566W        W39881  33.115  22.630   3.733
67567W        W39882  39.496  30.930   0.303
67568W        W39883  19.777  13.171  11.045
67569W        W39884  11.300  22.529  14.311
67570W        W39885  18.618   7.889  12.830
67571W        W39886   3.318   5.205   1.213
67572W        W39887  16.620  18.667  14.902
67573W        W39888  43.466  20.674   3.240
67574W        W39889  10.269  21.575   4.320
67575W        W39890  43.460  42.838  13.525
67576W        W39891  38.363  10.867   0.872
67577W        W39892  10.833  28.987  14.409
67578W        W39893  22.657  17.108  12.011
67579W        W39894  12.183  44.281  11.405
67580W        W39895  31.560  28.163  10.486
67581W        W39896  10.697  39.999   1.425
67582W        W39897  44.767  39.494   4.744
67583W        W39898  15.308   7.185  10.435
67584W        W39899  30.976  28.454   4.318
67585W        W39900  43.909  43.770   4.273
67586W        W39901   5.793  37.016   4.733
67587W        W39902  36.533  24.215   3.764
67588W        W39903  30.415  29.611   3.695
67589W        W39904  12.315   3.431  13.335
67590W        W39905   7.667  39.970  14.006
67591W        W39906  23.723  11.282   0.343
67592W        W39907  38.442  10.736   2.817
67593W        W39908  17.620   2.729   4.602
67594W        W39909  38.328   9.252  14.918
67595W        W39910  20.534  14.188  10.900
67596W        W39911  38.418   9.356   1.421
67597W        W39912  34.568  26.480   0.946
67598W        W39913  27.530   7.237  11.084
67599W        W39914  34.084  18.095  12.545
67600W        W39915  35.451  10.644  14.425
67601W        W39916  14.123  37.444  10.953
67602W        W39917  30.953  24.093   0.922
67603W        W39918   8.806   5.833  13.872
67604W        W39919  44.483  21.067   2.324
67605W        W39920  28.955  33.459   5.752
67606W        W39921  32.061  42.913  10.643
67607W        W39922   2.348  22.738   3.254
67608W        W39923  12.671  29.018   4.312
67609W        W39924   6.682  16.695  14.306
67610W        W39925  43.336   7.666  13.895
67611W        W39926  43.817   8.876   0.848
67612W        W39927  19.045  38.979  13.544
67613W        W39928  10.674  16.287   4.641
67614W        W39929  44.943  39.835  14.451
67615W        W39930  36.392  31.532  11.924
67616W        W39931  12.312  22.215   4.168
67617W        W39932  33.116  29.053   4.281
67618W        W39933  26.018  28.054   0.329
67619W        W39934  41.351  24.714   3.858
67620W        W39935   9.156  20.182   3.769
67621W        W39936  37.850  44.762  12.356
67622W        W39937  11.662  32.517  10.610
67623W        W39938  12.174   1.369   0.402
67624W        W39939  38.822  35.030   0.917
67625W        W39940  17.214  16.582   0.826
67626W        W39941  17.182  41.003   1.436
67627W        W39942   4.769  42.999   5.228
67628W        W39943   0.466  12.270  12.010
67629W        W39944  23.655  31.008   4.699
67630W        W39945  20.031  11.271  14.946
67631W        W39946  23.584  19.200  10.533
67632W        W39947   9.866  28.573  13.797
67633W        W39948  20.528  25.981  14.929
67634W        W39949  22.032  19.049  13.490
67635W        W39950  12.685  27.089   2.873
67636W        W39951  23.657  35.854  10.428
67637W        W39952  44.938  36.091  13.474
67638W        W39953  44.773  18.098  14.317
67639W        W39954  10.290  28.547  14.845
67640W        W39955  38.403  41.853   3.791
67641W        W39956   0.298  44.869   0.414
67642W        W39957   3.420  29.166  11.496
67643W        W39958   2.228  28.519  10.514
67644W        W39959  42.920  16.162  14.886
67645W        W39960  26.637  31.004  13.546
67646W        W39961   3.811  17.699   4.664
67647W        W39962  18.289   3.790  11.422
67648W        W39963  29.166  15.175   1.694
67649W        W39964  43.430  34.032   0.838
67650W        W39965   4.750   0.835  14.848
67651W        W39966  27.681   4.227  13.321
67652W        W39967  20.274  40.511   3.828
67653W        W39968  20.720   4.713  14.997
67654W        W39969  42.826  30.088   3.240
67655W        W39970  42.418  38.938   0.843
67656W        W39971  43.000  30.567  12.924
67657W        W39972   2.319  44.260  12.922
67658W        W39973  20.045  39.949  14.327
67659W        W39974  28.534  37.835  11.078
67660W        W39975  43.346  42.863  10.447
67661W        W39976  25.135  17.767   2.287
67662W        W39977  28.103  17.640  12.864
67663W        W39978  12.265  25.131  10.494
67664W        W39979  29.623  18.773  14.834
67665W        W39980  30.080  21.555  14.480
67666W        W39981  12.820  35.034  14.903
67667W        W39982  31.962  37.509   1.867
67668W        W39983  18.718  32.480  13.389
67669W        W39984   4.394  26.512   3.785
67670W        W39985  15.784  33.969  13.454
67671W        W39986   8.848  14.247  14.993
67672W        W39987  20.658  40.416   2.195
67673W        W39988  36.443  20.186   2.881
67674W        W39989  42.470   7.171   0.899
67675W        W39990   8.224  20.184  11.018
67676W        W39991   0.865  36.469  13.853
67677W        W39992   9.255  34.408  12.462
67678W        W39993  43.479   8.220  14.005
67679W        W39994  19.275   4.794  12.856
67680W        W39995  41.322  17.147   1.736
67681W        W39996   5.706   2.952   3.666
67682W        W39997  35.528  18.612  13.473
67683W        W39998   1.360  24.055  12.838
67684W        W39999  19.575  36.051   2.289
67685W        W40000  17.193  44.437   4.627
67686W        W40001  14.700  17.632  10.979
67687W        W40002  39.321   4.411   1.745
67688W        W40003  25.011   6.730   4.222
67689W        W40004  22.506  26.134  13.346
67690W        W40005  26.042  17.614   0.836
67691W        W40006   6.750   7.271  13.047
67692W        W40007  37.517   2.858  10.427
67693W        W40008  22.101  33.509   4.222
67694W        W40009  34.099  37.981  12.544
67695W        W40010   6.206   4.799   1.791
67696W        W40011   0.839  19.737   4.779
67697W        W40012  37.064  21.582  11.591
67698W        W40013  33.584  24.616  11.052
67699W        W40014  41.426  44.448   4.128
67700W        W40015  19.176   9.807   2.298
67701W        W40016  27.651  10.204  11.085
67702W        W40017  44.875  20.547   2.402
67703W        W40018   6.759  32.071  14.760
67704W        W40019  18.264   1.311   4.696
67705W        W40020  40.358  31.906   4.341
67706W        W40021  38.906  23.998  11.129
67707W        W40022  13.112  30.621  13.061
67708W        W40023  15.229  37.485  14.005
67709W        W40024  17.652   8.682  14.504
67710W        W40025  30.997  32.953  11.054
67711W        W40026  13.764  25.658   2.712
67712W        W40027   2.396  28.018   2.193
67713W        W40028   5.284  31.075  12.383
67714W        W40029  31.043   2.934   0.732
67715W        W40030  24.133  44.820   4.742
67716W        W40031  25.561  21.030  12.448
67717W        W40032   7.873  21.717  14.466
67718W        W40033  18.125  16.266   2.757
67719W        W40034  17.612  31.136  12.416
67720W        W40035  44.355   4.825  11.418
67721W        W40036  34.467  17.244   1.754
67722W        W40037  36.413   3.318  13.442
67723W        W40038  36.021  11.805  12.029
67724W        W40039   3.921  37.017  11.400
67725W        W40040   1.268   4.846  12.399
67726W        W40041  44.851  37.873  14.360
67727W        W40042  29.946   9.683  14.426
67728W        W40043  12.241  31.954  10.890
67729W        W40044  34.976  28.986   4.201
67730W        W40045   3.257  16.091   1.759
67731W        W40046   6.768  19.131  13.802
67732W        W40047  37.531  32.452   1.845
67733W        W40048   7.743  35.376  14.975
67734W        W40049  19.078  26.481   3.156
67735W        W40050  23.114  36.907  13.889
67736W        W40051  39.422  12.648  10.408
67737W        W40052  35.456  30.517  13.367
67738W        W40053  17.668  24.494   4.270
67739W        W40054   8.689  18.594   3.156
67740W        W40055  36.450  32.913   0.868
67741W        W40056   1.428  41.314  11.579
67742W        W40057   7.371  38.007  14.027
67743W        W40058  44.485  21.671  11.373
67744W        W40059  13.790   1.841   0.472
67745W        W40060   3.356  26.672   2.276
67746W        W40061  23.174  16.161   1.405
67747W        W40062   6.885  44.267   4.719
67748W        W40063  43.405  22.052  10.927
67749W        W40064  18.201  14.164   1.219
67750W        W40065  26.599  34.038  12.921
67751W        W40066  27.609  10.777   4.724
67752W        W40067  10.724  26.020  14.900
67753W        W40068  36.041  32.501  10.521
67754W        W40069  20.586   9.262   0.796
67755W        W40070   7.196  24.641  11.928
67756W        W40071  22.582  11.811  14.285
67757W        W40072  23.676  22.138  12.551
67758W        W40073  40.942  28.555   1.892
67759W        W40074   0.265   6.842  10.442
67760W        W40075   3.361  41.414   4.145
67761W        W40076  43.022  10.351   5.280
67762W        W40077   3.885   9.331  12.022
67763W        W40078  43.483   6.209   1.414
67764W        W40079  41.899  38.839  11.036
67765W        W40080  32.503   9.237  11.497
67766W        W40081  14.332  42.430  10.539
67767W        W40082  10.800   4.365  14.326
67768W        W40083  31.501  29.493   0.941
67769W        W40084  37.451  43.992   0.341
67770W        W40085  42.459   4.699  12.844
67771W        W40086  13.767  13.786  13.879
67772W        W40087  11.701  19.053   3.248
67773W        W40088  27.681   8.898  13.942
67774W        W40089  35.566  19.179  14.920
67775W        W40090  44.357  43.964   2.387
67776W        W40091  27.624   0.979   2.727
67777W        W40092  39.017   3.814   4.149
67778W        W40093  38.496  44.847   1.697
67779W        W40094  38.476  42.440   2.373
67780W        W40095  38.075  24.652  12.440
67781W        W40096  29.473  31.571   9.946
67782W        W40097   3.300   8.310  11.421
67783W        W40098  12.738   1.866  13.530
67784W        W40099  18.288  12.325  12.448
67785W        W40100  11.705  17.299  12.410
67786W        W40101  10.712  10.256   0.459
67787W        W40102  44.985  22.233   2.201
67788W        W40103  24.161  40.947  14.879
67789W        W40104  35.866  14.691   2.236
67790W        W40105  33.895   9.249  11.061
67791W        W40106  42.297   7.276  11.929
67792W        W40107  40.370   1.865  10.473
67793W        W40108  34.498  28.496  12.446
67794W        W40109  30.465  32.466   1.404
67795W        W40110  17.215   2.330   1.383
67796W        W40111  36.065  20.123  11.127
67797W        W40112  11.178  37.040   4.265
67798W        W40113  27.028   2.746  13.493
67799W        W40114  33.929  31.919  14.815
67800W        W40115  23.198  19.173  10.618
67801W        W40116  21.683  10.261   0.353
67802W        W40117   3.297  18.280  14.396
67803W        W40118  40.329   5.711   3.371
67804W        W40119  19.180  42.394   0.360
67805W        W40120   1.766  36.438  12.392
67806W        W40121   4.873  13.715   0.922
67807W        W40122   8.387   2.861   3.257
67808W        W40123  15.787  11.649  10.042
67809W        W40124  22.521  24.214  14.451
67810W        W40125  10.152  32.406   2.811
67811W        W40126  23.095  33.434  13.893
67812W        W40127  33.892   4.752   2.240
67813W        W40128  41.424   1.899   1.409
67814W        W40129   2.801  23.723  14.483
67815W        W40130   1.360   0.865  11.430
67816W        W40131  24.621   5.216  14.449
67817W        W40132  11.771   3.340   1.854
67818W        W40133   8.325   9.152   3.841
67819W        W40134  38.020  43.897   4.294
67820W        W40135  10.376  37.029   4.115
67821W        W40136   6.327  14.098   2.401
67822W        W40137  34.474  31.423  13.377
67823W        W40138   7.182   2.294   2.837
67824W        W40139  37.386  24.056   5.168
67825W        W40140  17.115  29.493  11.088
67826W        W40141  37.416  28.085   3.810
67827W        W40142   3.802  16.609  10.920
67828W        W40143   9.728   2.754   2.304
67829W        W40144  27.134  15.222   2.279
67830W        W40145  44.472  38.039  14.433
67831W        W40146   5.328  39.547  13.330
67832W        W40147  11.657  40.827   2.196
67833W        W40148  35.559  22.239  10.429
67834W        W40149  19.079  14.752  12.500
67835W        W40150   5.270  36.943   0.752
67836W        W40151   8.752  10.710  12.891
67837W        W40152  27.513   5.849   5.730
67838W        W40153  15.293  41.365   3.291
67839W        W40154  16.776  23.626   3.861
67840W        W40155  32.573  27.960   1.858
67841W        W40156  43.512  14.291   3.826
67842W        W40157  18.280  19.663  13.350
67843W        W40158  21.640  21.646  11.912
67844W        W40159   4.370   1.881   0.374
67845W        W40160  32.079  31.903  12.430
67846W        W40161  11.809  10.841  13.952
67847W        W40162  43.803  11.338  12.879
67848W        W40163  16.184  10.708  13.033
67849W        W40164   2.733  43.996   2.837
67850W        W40165  15.101  42.843   3.696
67851W        W40166   4.310   6.293  14.301
67852W        W40167  17.789  40.898  10.974
67853W        W40168  43.977  15.713   1.351
67854W        W40169  22.141   3.334   2.281
67855W        W40170  33.923  14.119  12.484
67856W        W40171  36.504  12.659  14.450
67857W        W40172   5.796  12.644  14.785
67858W        W40173  14.689  31.436  11.030
67859W        W40174  35.531  41.899   0.406
67860W        W40175   9.837  22.160  11.509
67861W        W40176  23.006   5.893  12.574
67862W        W40177   4.276  33.054   2.711
67863W        W40178  29.521  27.569  12.836
67864W        W40179  18.714  42.323  10.541
67865W        W40180  37.003  31.112  13.539
67866W        W40181   7.262  26.533  12.841
67867W        W40182  10.720  19.135  13.915
67868W        W40183   0.835  38.413   4.190
67869W        W40184  16.089  11.679  12.420
67870W        W40185  17.595  14.252   4.710
67871W        W40186  31.032  19.213  12.922
67872W        W40187   2.227   7.304  10.027
67873W        W40188  37.917  36.424   3.237
67874W        W40189  26.185  44.301   1.907
67875W        W40190  42.868  43.020  11.890
67876W        W40191  39.873   0.886  11.524
67877W        W40192  34.590  11.691   3.759
67878W        W40193  29.521  23.554   2.849
67879W        W40194  44.801  42.450   3.802
67880W        W40195  29.547  37.575  14.768
67881W        W40196  24.149  20.183  14.287
67882W        W40197   4.834  34.391   4.649
67883W        W40198  38.980   7.788  11.883
67884W        W40199  19.103  20.141   0.917
67885W        W40200  40.469   6.317   1.298
67886W        W40201   6.783  31.643  12.504
67887W        W40202   4.857  37.472  11.937
67888W        W40203  43.497  27.948   0.899
67889W        W40204   6.261  27.096  13.873
67890W        W40205  16.192  18.071  10.462
67891W        W40206  21.126  42.344  13.436
67892W        W40207  28.580   1.304  10.542
67893W        W40208  18.719   6.236   4.179
67894W        W40209  38.047  33.532   0.470
67895W        W40210  27.526  18.068  10.984
67896W        W40211   6.296  25.063  11.480
67897W        W40212  39.927  26.967  10.901
67898W        W40213  30.591  39.336   1.707
67899W        W40214  25.999  31.448  14.986
67900W        W40215  40.028  20.098   1.744
67901W        W40216  44.314   9.854  12.958
67902W        W40217  34.579  17.586   1.722
67903W        W40218  34.111  37.962   2.398
67904W        W40219  18.052  20.598   1.284
67905W        W40220  16.797  15.788  14.494
67906W        W40221  19.701  39.479  11.588
67907W        W40222  11.717  19.217  10.514
67908W        W40223  22.721  18.784  14.425
67909W        W40224  18.171   8.658   9.561
67910W        W40225  16.747  33.413   1.788
67911W        W40226  12.282   8.854  13.522
67912W        W40227  42.792  14.319   0.737
67913W        W40228  23.035  15.773   3.149
67914W        W40229  40.400  20.718   0.441
67915W        W40230   6.345  31.552  10.602
67916W        W40231  34.934  17.107   2.302
67917W        W40232  37.937  33.415  10.490
67918W        W40233  20.100  35.068   4.266
67919W        W40234   8.678  41.853  13.016
67920W        W40235  32.430  21.576  13.045
67921W        W40236  32.008  38.879  14.826
67922W        W40237  18.755  39.501   2.705
67923W        W40238  38.499   9.735  12.405
67924W        W40239  34.482  38.061  12.513
67925W        W40240  19.069  31.470   4.152
67926W        W40241  23.086  33.589  10.898
67927W        W40242   3.929  31.035   2.771
67928W        W40243  28.118  17.138   2.243
67929W        W40244  42.940  31.017   4.354
67930W        W40245  26.175   1.921  10.482
67931W        W40246  36.444  10.164   4.300
67932W        W40247   6.412  22.605   1.698
67933W        W40248   5.895   1.279  13.432
67934W        W40249  17.261   1.421  11.031
67935W        W40250  25.592  20.080  11.464
67936W        W40251  43.901   8.288  13.319
67937W        W40252  30.616  14.595   1.395
67938W        W40253  38.432  40.945  10.408
67939W        W40254   1.256   3.882   2.674
67940W        W40255  37.451  10.257  13.393
67941W        W40256   9.842  35.409  12.862
67942W        W40257   6.410  25.189  13.923
67943W        W40258  20.712  23.236   2.808
67944W        W40259  37.019  23.686   4.649
67945W        W40260  16.679   5.920  12.925
67946W        W40261  15.316   0.943  12.863
67947W        W40262  13.317  11.172  12.458
67948W        W40263  20.583   6.221   1.933
67949W        W40264  25.525   8.311   1.434
67950W        W40265  35.528  31.424   3.221
67951W        W40266   5.830  42.809  14.809
67952W        W40267  14.196   4.335   0.343
67953W        W40268  22.602  44.882   2.738
67954W        W40269  34.978  15.100   1.448
67955W        W40270  17.237   6.323   2.823
67956W        W40271   5.713  14.649  11.603
67957W        W40272  43.423  16.161  14.762
67958W        W40273  26.571  18.684  11.985
67959W        W40274  20.218  39.424  11.476
67960W        W40275   5.356   0.248   3.345
67961W        W40276  42.854   9.241   2.852
67962W        W40277  22.103  12.292  14.485
67963W        W40278  26.518  27.177  12.934
67964W        W40279  22.041  21.669  11.067
67965W        W40280  35.420  12.782  12.524
67966W        W40281   3.774  38.566  11.424
67967W        W40282  34.976  40.368   1.430
67968W        W40283  43.450  17.065   2.255
67969W        W40284  24.113  23.544   3.865
67970W        W40285   8.330   0.905   4.627
67971W        W40286  44.975  12.642   2.279
67972W        W40287  28.625  14.788   2.812
67973W        W40288  36.973  32.593  12.423
67974W        W40289  36.482  21.233  12.076
67975W        W40290  26.613  12.183  11.059
67976W        W40291  33.522  34.559  13.498
67977W        W40292  17.714  41.519   9.597
67978W        W40293  13.656   4.389   4.218
67979W        W40294  39.464  38.561  10.592
67980W        W40295  19.131  25.704  11.468
67981W        W40296   8.682  41.398   4.811
67982W        W40297  42.409  33.921   4.293
67983W        W40298  22.687  29.158   3.155
67984W        W40299  38.031  21.564   4.598
67985W        W40300  43.872  30.160   4.145
67986W        W40301  40.422  42.898   1.253
67987W        W40302   7.889  27.181  10.642
67988W        W40303  35.473   9.208   3.296
67989W        W40304  12.714  11.330   3.776
67990W        W40305  21.551  43.983   4.201
67991W        W40306  44.881   2.410  13.314
67992W        W40307  30.110  17.613  10.614
67993W        W40308   3.291  36.397   5.168
67994W        W40309  12.349  21.228  14.011
67995W        W40310  12.335   9.212  11.008
67996W        W40311  39.389   6.299  14.352
67997W        W40312  22.686  30.598   1.246
67998W        W40313  42.939  17.186   1.220
67999W        W40314  11.740   0.913   0.881
68000W        W40315  37.944  22.740   0.403
68001W        W40316  44.974  21.130  12.066
68002W        W40317  25.641  24.042   3.729
68003W        W40318   5.742  34.388  10.496
68004W        W40319  31.409  24.206  10.938
68005W        W40320  40.940  32.016  11.927
68006W        W40321   0.825  28.997  13.999
68007W        W40322  31.488  40.915   2.213
68008W        W40323   1.310  44.855  13.006
68009W        W40324  44.842  37.979   4.805
68010W        W40325  29.051  32.099  12.047
68011W        W40326  27.676  41.802   3.631
68012W        W40327   9.342  37.966   3.632
68013W        W40328  27.947  11.652   3.869
68014W        W40329  38.475   6.267  11.918
68015W        W40330   1.782   9.338   1.817
68016W        W40331  44.403  12.660   2.819
68017W        W40332  15.095  10.651  11.389
68018W        W40333  28.068  27.008   1.439
68019W        W40334  18.604  35.926   0.409
68020W        W40335  22.616  40.447   0.253
68021W        W40336   3.720  13.678  12.575
68022W        W40337  40.814  23.544   3.837
68023W        W40338  28.562   7.181  13.361
68024W        W40339  39.026   2.736   4.349
68025W        W40340  24.192   4.244  10.907
68026W        W40341  18.701  12.295   4.774
68027W        W40342  28.681  41.412  11.099
68028W        W40343  14.828  14.317  13.486
68029W        W40344  41.345  24.128   3.349
68030W        W40345  11.223  30.635   0.245
68031W        W40346  31.443  32.506  14.817
68032W        W40347   0.434  11.638  14.285
68033W        W40348   8.205   8.194   2.395
68034W        W40349  44.983  20.253  10.464
68035W        W40350   6.220  37.557  11.961
68036W        W40351  25.167  16.642   1.275
68037W        W40352  17.299   2.342   4.685
68038W        W40353  37.358  25.656   1.700
68039W        W40354   3.451  35.441   0.804
68040W        W40355  17.246  18.061   2.738
68041W        W40356  11.353  36.924   4.714
68042W        W40357  15.214  42.474  10.565
68043W        W40358  17.289  21.154   2.755
68044W        W40359  42.422  21.073  13.422
68045W        W40360  26.503  39.909  10.443
68046W        W40361  39.886  18.627   0.335
68047W        W40362  21.645  33.522   2.856
68048W        W40363   1.750   5.307   4.173
68049W        W40364  17.213  18.759  12.580
68050W        W40365   1.259  21.710   1.378
68051W        W40366  15.589  32.988  13.342
68052W        W40367  33.920  13.167   3.662
68053W        W40368  19.198  37.478  14.832
68054W        W40369  26.643  11.344  14.304
68055W        W40370  43.958  36.045  13.416
68056W        W40371   7.874  19.275  11.528
68057W        W40372  22.140   6.715  10.928
68058W        W40373   7.377  23.081  11.387
68059W        W40374  41.338  11.195   0.348
68060W        W40375  18.273   8.873   0.412
68061W        W40376  14.611  24.205  11.410
68062W        W40377  30.948   7.414  14.942
68063W        W40378  42.819  39.414  13.462
68064W        W40379  25.194  31.947  10.544
68065W        W40380  23.058  20.767   1.773
68066W        W40381   7.808  21.237   0.364
68067W        W40382   8.828  11.208   1.377
68068W        W40383   8.227  11.169  10.887
68069W        W40384  16.642  33.111   3.384
68070W        W40385  35.048   1.360  11.471
68071W        W40386  16.317  31.641  13.990
68072W        W40387  23.629  32.902  10.419
68073W        W40388  36.918  24.558  12.533
68074W        W40389  36.404  36.082   0.949
68075W        W40390  42.513  13.162   2.878
68076W        W40391  29.140  32.530  12.497
68077W        W40392  18.232  25.547  11.940
68078W        W40393   8.278  24.724  10.497
68079W        W40394  42.351  42.504   3.265
68080W        W40395   5.792   3.753   2.228
68081W        W40396  23.624  34.015  12.843
68082W        W40397  35.970  36.520  13.541
68083W        W40398   5.288  34.381   5.305
68084W        W40399  17.626   5.756  13.050
68085W        W40400  43.793  18.195  10.518
68086W        W40401  12.323  43.457   4.675
68087W        W40402  44.943  28.115  11.444
68088W        W40403   8.369  17.680   2.259
68089W        W40404  43.968  20.710   1.349
68090W        W40405  39.557  27.973   3.787
68091W        W40406  42.382  29.659  14.962
68092W        W40407  13.177  16.222  12.490
68093W        W40408  42.307   6.778  11.386
68094W        W40409  24.719  33.931   4.833
68095W        W40410  23.069  15.194  12.508
68096W        W40411  32.092  35.413  14.984
68097W        W40412  18.588   6.882  14.422
68098W        W40413  42.381  13.161   3.748
68099W        W40414   1.465   7.712   2.194
68100W        W40415   7.318   2.823   4.180
68101W        W40416  13.325  28.154   1.386
68102W        W40417  42.884  31.969   2.698
68103W        W40418  29.554  14.337   5.305
68104W        W40419  40.475  17.666  14.778
68105W        W40420  18.148  24.002   3.285
68106W        W40421  36.536   5.854  13.503
68107W        W40422   4.297   3.737   2.782
68108W        W40423  39.369  29.969  12.409
68109W        W40424  38.521  39.397   1.306
68110W        W40425   6.746  42.929   4.191
68111W        W40426  37.037  31.935  13.832
68112W        W40427  28.141  19.068  10.950
68113W        W40428  12.844  38.000   3.179
68114W        W40429  16.578  43.011  13.834
68115W        W40430  32.608  39.333   2.841
68116W        W40431  32.604  35.415   2.830
68117W        W40432  26.039  19.234   2.799
68118W        W40433  10.228  31.113   1.742
68119W        W40434  44.381  32.580  11.378
68120W        W40435  41.497   8.766  11.531
68121W        W40436  29.604   4.763   4.835
68122W        W40437   5.838  25.018  13.923
68123W        W40438  38.435   9.878   2.717
68124W        W40439  22.015  35.596  13.013
68125W        W40440   4.835  13.287   1.893
68126W        W40441   5.773   5.221   2.715
68127W        W40442  36.068  16.632   0.817
68128W        W40443   5.689   1.949   1.891
68129W        W40444   8.845  22.594   5.095
68130W        W40445   6.786  30.416   4.624
68131W        W40446  10.785  31.086   0.872
68132W        W40447   2.303  17.644   4.611
68133W        W40448  14.225  43.281  10.586
68134W        W40449  27.161  29.108   2.388
68135W        W40450   3.715  21.143   3.298
68136W        W40451  25.710  13.173  10.518
68137W        W40452   1.312   7.261  10.903
68138W        W40453  34.465   3.347  11.000
68139W        W40454  36.588  39.397  10.939
68140W        W40455  27.507  41.492  13.871
68141W        W40456   0.252  37.535  13.849
68142W        W40457   7.694  20.567  13.477
68143W        W40458  17.081  19.254   3.293
68144W        W40459  12.719  19.583  12.994
68145W        W40460   5.717  23.091   4.665
68146W        W40461  34.540  13.736   2.853
68147W        W40462  36.456  14.097   2.845
68148W        W40463  15.178  14.622   1.899
68149W        W40464  10.200   2.402  13.040
68150W        W40465   7.223  38.347   4.245
68151W        W40466  42.860   0.833   4.753
68152W        W40467  39.009  43.493   3.841
68153W        W40468  21.758   7.235  11.056
68154W        W40469  35.060  39.477   2.272
68155W        W40470   5.211   6.314   0.414
68156W        W40471  38.472  40.355   2.685
68157W        W40472  44.427  15.303   3.297
68158W        W40473  26.994  17.261  14.452
68159W        W40474  19.727  41.876  13.490
68160W        W40475  24.058  32.987   4.727
68161W        W40476  44.768  22.716  13.793
68162W        W40477  19.123   4.768   1.327
68163W        W40478   7.261   7.203   4.766
68164W        W40479  38.526  42.297  11.953
68165W        W40480  19.041  37.562   4.261
68166W        W40481   1.750  18.787  11.875
68167W        W40482   1.942  23.211   4.329
68168W        W40483  30.636  39.451   1.390
68169W        W40484   0.288  33.434   5.793
68170W        W40485  32.635  21.044   5.298
68171W        W40486   4.205   1.386   2.215
68172W        W40487  40.357   9.761  11.498
68173W        W40488  43.341  15.287   4.304
68174W        W40489  35.530  26.114   3.645
68175W        W40490   2.828  20.551  11.915
68176W        W40491  35.443   4.791   2.181
68177W        W40492   9.820  37.900   4.286
68178W        W40493  27.546  31.610   5.794
68179W        W40494  19.635   5.278  11.533
68180W        W40495  13.804  34.947   2.858
68181W        W40496  33.521  39.324   3.217
68182W        W40497  39.847  24.558   1.371
68183W        W40498  17.081  30.920   4.351
68184W        W40499  42.917  21.075   9.921
68185W        W40500  42.967   8.259  10.963
68186W        W40501  39.441  21.029   2.221
68187W        W40502   4.232  29.988  12.572
68188W        W40503  22.584   9.825  14.987
68189W        W40504  14.157  16.082   1.776
68190W        W40505  26.190  44.442  14.787
68191W        W40506  11.150  30.962  12.422
68192W        W40507  40.458  11.214  11.444
68193W        W40508  17.222  17.758   0.760
68194W        W40509  44.472  18.156   2.754
68195W        W40510  22.068  43.836   2.268
68196W        W40511   0.839  32.043   3.287
68197W        W40512   6.336   0.285  11.469
68198W        W40513  10.707  34.031   4.636
68199W        W40514  42.023   7.232   2.181
68200W        W40515  17.590  18.157   2.379
68201W        W40516  44.440   6.809  10.511
68202W        W40517  44.360  25.578  14.821
68203W        W40518  10.869  33.427  14.790
68204W        W40519   3.267   8.380  12.464
68205W        W40520  36.413  43.442   3.340
68206W        W40521  23.043  38.395   0.417
68207W        W40522   5.915  14.133   2.286
68208W        W40523   6.751  12.253   2.877
68209W        W40524  44.939  10.679   1.887
68210W        W40525  22.174  17.611   2.896
68211W        W40526  40.508   8.731   9.939
68212W        W40527   5.835  36.919   1.229
68213W        W40528  42.783  10.302  12.377
68214W        W40529  17.126  10.251  11.091
68215W        W40530   1.955  25.613  10.620
68216W        W40531  41.038   1.838  11.953
68217W        W40532   6.398  11.206   1.320
68218W        W40533  12.293  33.531  11.899
68219W        W40534   6.205  28.578   3.719
68220W        W40535  37.470   2.389  10.984
68221W        W40536  13.726  23.150  13.459
68222W        W40537  15.687  31.052   3.323
68223W        W40538  30.635  20.635  14.285
68224W        W40539   3.934  23.609  14.947
68225W        W40540  28.470  36.357  12.965
68226W        W40541  34.462  31.091   1.405
68227W        W40542   0.866  39.391  14.378
68228W        W40543  14.660  21.026   1.731
68229W        W40544  36.009  13.248   2.190
68230W        W40545  38.874   4.275   1.387
68231W        W40546  21.180  40.471  14.418
68232W        W40547  27.572  41.004   3.320
68233W        W40548   4.736  28.151   9.964
68234W        W40549   5.200  16.243  12.860
68235W        W40550  30.094  28.644   0.867
68236W        W40551  34.044  18.153  13.447
68237W        W40552  25.092  19.120   0.298
68238W        W40553  11.283  14.241   4.170
68239W        W40554  23.643  19.071   0.912
68240W        W40555   3.892  28.013   4.741
68241W        W40556  34.064  16.221  11.477
68242W        W40557   0.975  11.622   0.265
68243W        W40558  15.251   1.736  13.480
68244W        W40559  41.414   5.755   3.166
68245W        W40560  41.333  10.358   1.260
68246W        W40561  20.060  33.620   2.304
68247W        W40562  41.017  36.042  11.090
68248W        W40563   1.286  13.827  13.365
68249W        W40564  17.258  31.521  14.857
68250W        W40565   6.730  30.959  12.004
68251W        W40566   5.297  27.194   1.724
68252W        W40567  21.586  15.807   2.244
68253W        W40568  41.330  12.796  14.346
68254W        W40569  21.243  28.185   1.900
68255W        W40570   9.740   0.873   4.730
68256W        W40571   9.773  32.463  10.452
68257W        W40572  10.147  19.571  12.899
68258W        W40573  19.214   6.764   0.473
68259W        W40574  12.354  10.682   3.801
68260W        W40575  13.113  39.547  14.008
68261W        W40576  15.667  27.044  11.430
68262W        W40577  23.537  43.306   3.314
68263W        W40578  11.769  21.552   9.938
68264W        W40579  42.908   5.229  11.399
68265W        W40580   2.467  24.543  11.592
68266W        W40581  22.642  36.466   1.220
68267W        W40582  31.971  36.869   3.214
68268W        W40583  10.776  37.545  10.430
68269W        W40584  35.033  43.804  12.043
68270W        W40585  34.600  30.434  11.487
68271W        W40586  42.446  41.468  14.475
68272W        W40587  37.031  20.168  13.417
68273W        W40588   8.372  33.603  12.546
68274W        W40589   3.843   8.330  14.837
68275W        W40590  44.004  31.432   2.324
68276W        W40591  13.317  31.614  14.845
68277W        W40592   9.219   5.864   3.206
68278W        W40593  16.596  43.457  11.495
68279W        W40594  22.675  19.237  14.360
68280W        W40595  41.517  12.849  12.515
68281W        W40596   7.353  33.416   2.713
68282W        W40597  11.806   6.884   0.278
68283W        W40598   1.435  17.617  14.776
68284W        W40599  28.634  38.500  14.026
68285W        W40600   0.372  32.534  10.925
68286W        W40601   6.420  27.109  12.848
68287W        W40602  28.999  32.550  10.997
68288W        W40603  17.756  39.849  10.127
68289W        W40604  19.160   0.863  13.406
68290W        W40605  13.756  10.139  12.342
68291W        W40606  19.221  24.681   0.812
68292W        W40607  44.773  25.133   2.815
68293W        W40608  32.610  12.329   4.354
68294W        W40609  42.472   4.417  10.576
68295W        W40610  32.915  43.003  13.325
68296W        W40611   4.866   8.721  13.823
68297W        W40612  30.016   5.291  12.457
68298W        W40613   6.838  24.611  13.320
68299W        W40614   8.273   5.883  14.969
68300W        W40615  41.299   7.204   1.377
68301W        W40616  13.767  22.185   2.815
68302W        W40617  26.560  21.228   3.690
68303W        W40618   2.906  39.937  13.346
68304W        W40619  32.924  13.622   1.897
68305W        W40620  23.656  12.677   4.802
68306W        W40621  12.649  42.001  13.872
68307W        W40622  17.752  10.366   4.726
68308W        W40623   3.346  43.278   5.164
68309W        W40624  31.081  26.456  13.350
68310W        W40625   3.859  32.491   3.349
68311W        W40626  15.211   4.420  10.602
68312W        W40627  44.906  22.727   3.636
68313W        W40628  10.820  13.318  12.580
68314W        W40629   2.239  13.716  14.767
68315W        W40630  23.684  15.233  10.913
68316W        W40631  14.617  12.762  11.031
68317W        W40632  23.178  13.268  13.917
68318W        W40633  27.668  25.029  13.060
68319W        W40634  43.784   9.226   0.465
68320W        W40635  41.957   1.961  12.557
68321W        W40636  35.080  10.339   3.748
68322W        W40637   2.393  27.502  13.902
68323W        W40638  27.656  19.097   4.699
68324W        W40639  27.463  12.179  11.462
68325W        W40640   8.180   4.349   3.333
68326W        W40641  29.557  26.492   1.887
68327W        W40642  37.347  26.567  11.966
68328W        W40643  24.495  16.087  12.572
68329W        W40644  38.401  16.703  10.441
68330W        W40645  30.587  27.168  10.639
68331W        W40646  36.415   8.886  12.931
68332W        W40647  39.960  39.925  12.046
68333W        W40648   8.879  13.629   0.353
68334W        W40649  17.781  42.415  10.525
68335W        W40650  33.423  11.679  11.956
68336W        W40651   6.233  19.259   0.810
68337W        W40652  22.585   7.290  12.053
68338W        W40653  16.648  37.006  14.975
68339W        W40654  38.014  40.994  10.912
68340W        W40655  31.534   5.868  14.419
68341W        W40656  39.893  32.414   4.258
68342W        W40657  24.080  40.491  10.644
68343W        W40658  30.981  14.802  11.968
68344W        W40659  11.753  10.348  12.006
68345W        W40660  31.523   9.160   0.934
68346W        W40661  27.590  11.203  14.297
68347W        W40662  44.993   6.837   2.803
68348W        W40663  26.534   0.382  10.606
68349W        W40664  35.489  20.672  10.448
68350W        W40665  21.654  26.506   0.242
68351W        W40666   5.390  43.875  13.508
68352W        W40667   0.811  18.682   1.728
68353W        W40668  39.426  15.655   1.212
68354W        W40669  31.489  10.142  10.005
68355W        W40670  14.808  32.398   2.334
68356W        W40671  27.611  16.578  11.375
68357W        W40672  33.899  14.660  10.986
68358W        W40673  17.235   3.233   1.893
68359W        W40674  10.767  38.867  11.955
68360W        W40675  10.340   3.790   2.781
68361W        W40676  10.286  18.061  14.392
68362W        W40677  27.597  35.012  10.629
68363W        W40678  14.256  25.543   2.204
68364W        W40679   3.265  39.320  14.845
68365W        W40680  17.557  18.222   0.925
68366W        W40681  35.074  27.677  11.593
68367W        W40682  21.112   4.259  14.466
68368W        W40683  23.656  12.729  12.045
68369W        W40684  14.751  37.573  13.372
68370W        W40685  40.315  24.680  11.451
68371W        W40686  38.072   6.327   4.603
68372W        W40687  19.067   6.723   2.821
68373W        W40688  25.172   8.357  13.440
68374W        W40689  27.101   4.271   4.826
68375W        W40690   3.301  10.838  12.428
68376W        W40691   4.762  21.680  13.989
68377W        W40692  30.054  30.907  12.469
68378W        W40693   9.882  32.003   2.412
68379W        W40694  37.914  19.281   1.222
68380W        W40695  33.921  36.066   2.191
68381W        W40696  14.334  18.093  10.432
68382W        W40697   9.880  13.751   3.157
68383W        W40698  15.221  34.971   4.226
68384W        W40699  43.794  16.667  12.921
68385W        W40700  17.121  24.028   0.785
68386W        W40701  13.272  37.870   3.369
68387W        W40702  26.098  37.441   2.708
68388W        W40703  14.305  14.765  14.507
68389W        W40704  35.560  30.113  13.865
68390W        W40705  41.455  40.992   0.949
68391W        W40706   3.804  37.577  14.876
68392W        W40707  40.928  24.034  14.029
68393W        W40708  12.227  15.589  12.017
68394W        W40709  27.541  21.540  12.077
68395W        W40710  17.675  41.888  11.583
68396W        W40711  27.077   1.469  14.323
68397W        W40712  31.961  31.510   2.887
68398W        W40713   0.842  24.204   1.768
68399W        W40714   3.440  37.420   0.768
68400W        W40715  15.755  37.455   4.612
68401W        W40716  28.526   3.415   4.287
68402W        W40717  38.883  19.753  11.429
68403W        W40718  40.928   4.381   0.810
68404W        W40719  42.497  15.713  14.795
68405W        W40720  29.453  11.305  14.904
68406W        W40721  34.539  32.952   0.377
68407W        W40722  36.417  30.019  13.909
68408W        W40723  10.811  29.465   4.209
68409W        W40724   0.817  23.610  13.964
68410W        W40725   2.863   2.939   2.810
68411W        W40726   6.863  41.019   4.269
68412W        W40727  26.690  43.361   2.866
68413W        W40728  15.260   2.442   4.177
68414W        W40729  23.160  25.635  10.545
68415W        W40730  37.552   2.384   4.699
68416W        W40731  10.651  34.556  10.915
68417W        W40732  26.188  28.461  13.920
68418W        W40733  14.813  13.647   2.404
68419W        W40734  31.991  15.764   4.181
68420W        W40735   6.276  22.069   0.893
68421W        W40736   0.763   0.858   1.801
68422W        W40737  11.319  28.163  12.951
68423W        W40738  25.517  41.506   3.191
68424W        W40739  26.020  37.996  12.405
68425W        W40740  11.133  10.735  11.387
68426W        W40741  43.819  39.979  14.996
68427W        W40742   0.845  14.781   3.288
68428W        W40743   4.903   2.421   2.890
68429W        W40744  12.237  36.050   3.711
68430W        W40745   0.389   8.250  14.379
68431W        W40746  41.003  29.608   3.212
68432W        W40747   7.876   7.884   3.697
68433W        W40748   6.317   0.796   4.251
68434W        W40749  29.156  36.022   2.852
68435W        W40750  36.543   2.929  11.097
68436W        W40751   1.876  20.620   1.390
68437W        W40752  44.833  21.131  14.311
68438W        W40753  10.326   2.966  14.022
68439W        W40754  42.458  10.370  13.539
68440W        W40755   8.385  19.691  13.431
68441W        W40756  44.959  31.136   2.718
68442W        W40757  24.153  21.729  12.868
68443W        W40758  19.195  26.123   3.165
68444W        W40759  22.557  35.073   1.336
68445W        W40760   8.681  31.469  10.588
68446W        W40761  40.545   9.158   1.779
68447W        W40762  37.041  44.268   1.346
68448W        W40763   6.245  23.569   0.931
68449W        W40764  33.936  10.701  13.337
68450W        W40765  24.569  38.325  14.356
68451W        W40766  38.945  41.537  14.474
68452W        W40767  13.216  41.787  10.536
68453W        W40768  32.532  23.035   2.691
68454W        W40769  40.054  35.863   0.785
68455W        W40770  34.090  16.800  14.031
68456W        W40771   8.857   1.936   2.782
68457W        W40772  31.618  41.314   0.917
68458W        W40773  44.423  24.641   3.711
68459W        W40774  11.143  18.113  11.952
68460W        W40775  37.845  23.679   1.376
68461W        W40776  17.699  22.167  11.099
68462W        W40777   1.880   1.919  14.946
68463W        W40778  32.615   0.942   1.411
68464W        W40779  34.106  10.849  12.523
68465W        W40780  40.489  22.718  11.984
68466W        W40781  32.911  10.356  10.581
68467W        W40782  29.575  12.356  13.813
68468W        W40783  14.228  43.805  10.488
68469W        W40784  31.433   4.370  13.023
68470W        W40785  27.083  30.922   0.313
68471W        W40786  39.938  27.579  11.538
68472W        W40787  29.145  10.332  14.460
68473W        W40788  40.351   7.391  11.906
68474W        W40789  42.383   7.331   0.273
68475W        W40790  28.126  18.587  14.776
68476W        W40791   5.374  29.933   2.748
68477W        W40792  37.069  37.496  14.901
68478W        W40793  18.114  21.086   0.799
68479W        W40794  27.972  41.399  13.515
68480W        W40795  16.288  23.581  14.946
68481W        W40796  41.380  38.967  12.089
68482W        W40797   1.950   8.178  14.447
68483W        W40798  26.484   3.807  10.632
68484W        W40799  35.878   2.407   4.114
68485W        W40800   7.268  14.258   4.618
68486W        W40801  13.289  25.661   0.354
68487W        W40802  25.679  27.601  13.320
68488W        W40803  27.510  43.858  14.863
68489W        W40804  10.331  40.421   3.386
68490W        W40805  27.542   8.889   4.719
68491W        W40806  36.970   8.839   2.884
68492W        W40807  36.367  24.174   0.410
68493W        W40808  34.953  18.752  11.867
68494W        W40809  29.929   1.378  13.817
68495W        W40810   7.275   3.816  13.442
68496W        W40811  36.857  29.017   1.289
68497W        W40812  21.249  15.290   0.484
68498W        W40813  34.575  43.939  12.485
68499W        W40814  43.425  20.543  11.006
68500W        W40815   8.787  40.964   2.254
68501W        W40816  37.418  35.876  11.119
68502W        W40817   1.938  25.574   0.317
68503W        W40818  32.083  24.513   2.876
68504W        W40819   6.876  11.712  10.950
68505W        W40820  37.562  40.909   3.690
68506W        W40821  30.555   6.351   1.754
68507W        W40822  29.132   1.890  10.929
68508W        W40823  11.684  29.987   0.366
68509W        W40824  10.811  29.117  10.532
68510W        W40825   3.339  37.563   2.409
68511W        W40826  36.416  43.308  13.384
68512W        W40827  30.147   2.777   4.284
68513W        W40828   6.677   1.825  13.507
68514W        W40829   5.259  39.974   2.239
68515W        W40830   4.358  35.109   4.164
68516W        W40831  33.079  44.902  12.497
68517W        W40832  40.411   7.848  13.350
68518W        W40833   5.819  15.323   1.358
68519W        W40834  29.152  21.124  14.803
68520W        W40835   6.244  11.284  13.466
68521W        W40836  40.307   2.333  12.931
68522W        W40837  32.525  32.622  11.581
68523W        W40838  17.762  16.302   4.804
68524W        W40839  15.083  38.870   1.750
68525W        W40840  24.686  38.866   1.829
68526W        W40841  18.207  41.002   3.290
68527W        W40842  19.611  32.614   4.156
68528W        W40843   2.395  37.452   0.393
68529W        W40844  29.945   6.722   4.311
68530W        W40845   8.775  36.448  12.509
68531W        W40846  30.538  21.697   2.390
68532W        W40847  32.902  12.645  12.057
68533W        W40848  17.664  13.679  12.394
68534W        W40849  37.412   1.787  11.954
68535W        W40850   7.346  28.549  14.010
68536W        W40851  35.436  22.044  11.950
68537W        W40852  36.478  39.836  11.584
68538W        W40853  29.976  10.639   2.713
68539W        W40854   4.264  10.797   1.356
68540W        W40855  30.543  40.910   3.795
68541W        W40856  35.060   0.750  14.382
68542W        W40857   6.830  41.377  13.460
68543W        W40858  40.308   8.319   2.286
68544W        W40859  23.523  43.455   1.695
68545W        W40860  35.023  32.997   1.319
68546W        W40861  21.520  28.108   3.381
68547W        W40862  26.625  16.287   0.748
68548W        W40863   9.860  23.180  14.785
68549W        W40864  16.724  36.889  10.494
68550W        W40865  41.355   4.287  13.467
68551W        W40866  17.243   1.736  10.533
68552W        W40867   6.401  33.492   0.856
68553W        W40868  36.383  16.228   0.331
68554W        W40869   3.225  27.972  10.414
68555W        W40870  18.686   4.443  12.001
68556W        W40871   0.461  20.586   0.326
68557W        W40872  37.390   3.288   2.741
68558W        W40873   5.288  32.488   2.208
68559W        W40874  16.725  36.968  13.035
68560W        W40875  15.670  23.061   2.726
68561W        W40876   0.286  25.686  11.484
68562W        W40877  14.589  32.532   1.697
68563W        W40878  10.290  29.620  13.406
68564W        W40879  25.985  14.161   4.354
68565W        W40880  41.996   9.251  14.963
68566W        W40881  33.116  38.869   3.358
68567W        W40882  13.796  25.616  11.091
68568W        W40883  44.962  14.309  11.872
68569W        W40884  24.546  40.832  11.106
68570W        W40885  39.385  23.164  12.559
68571W        W40886   9.234  33.889   4.781
68572W        W40887  29.998  12.726   4.600
68573W        W40888  41.943  14.814  14.382
68574W        W40889  30.504   7.759  12.342
68575W        W40890  10.844  19.111   5.717
68576W        W40891  15.329  28.932  11.917
68577W        W40892  25.586  26.180   4.795
68578W        W40893  21.522   0.474  11.110
68579W        W40894  13.752  38.420   1.270
68580W        W40895  21.667  24.610   1.383
68581W        W40896  33.127  13.167  11.931
68582W        W40897   7.238  43.327  13.880
68583W        W40898  15.306   1.287  11.115
68584W        W40899  17.658  26.589   1.368
68585W        W40900  28.628  44.883   3.299
68586W        W40901  15.750  44.331  11.411
68587W        W40902  17.229  25.596  14.393
68588W        W40903  22.625  34.998   0.440
68589W        W40904   4.786  29.134   4.799
68590W        W40905  30.137  43.873  10.949
68591W        W40906   1.289   0.960   1.387
68592W        W40907  14.120  32.903  10.616
68593W        W40908  29.659  12.789  14.377
68594W        W40909  28.473   8.736  10.038
68595W        W40910  22.195   1.903  14.348
68596W        W40911  39.549  30.573   5.109
68597W        W40912  39.042  42.390   1.705
68598W        W40913  34.463  21.040  10.945
68599W        W40914   5.811  24.052  14.460
68600W        W40915  25.170  42.339   0.825
68601W        W40916  35.920   8.660  12.388
68602W        W40917  42.845  39.315  10.479
68603W        W40918  44.865  12.739  12.577
68604W        W40919  30.532  43.386   2.285
68605W        W40920  17.778  25.599   2.354
68606W        W40921  40.346  44.401   0.472
68607W        W40922  24.024  44.427  10.898
68608W        W40923  33.590  14.609   2.330
68609W        W40924   8.175  40.399   3.681
68610W        W40925  13.752  40.901   4.322
68611W        W40926  18.231   9.340  14.337
68612W        W40927   4.281  12.802  11.431
68613W        W40928  27.979  25.543  14.453
68614W        W40929   7.777   0.482  11.491
68615W        W40930  34.919  41.824   1.375
68616W        W40931  30.984  37.542  12.842
68617W        W40932   8.726  12.344   2.901
68618W        W40933  34.584  16.704  10.898
68619W        W40934  39.483  33.381  12.361
68620W        W40935  30.064  38.869  11.547
68621W        W40936   5.723   6.340   2.356
68622W        W40937  25.103   5.309   1.776
68623W        W40938  34.432  27.486   4.716
68624W        W40939  34.469  16.262   2.391
68625W        W40940   2.267  29.965   1.245
68626W        W40941  32.493  29.011  13.420
68627W        W40942  13.805  16.747  13.976
68628W        W40943   7.666   7.328  12.963
68629W        W40944   5.399   6.917   2.248
68630W        W40945   4.742  24.084   5.227
68631W        W40946   8.349  19.252   0.892
68632W        W40947  42.956   8.892  10.107
68633W        W40948  29.607  42.786  10.477
68634W        W40949  43.304  12.636  11.510
68635W        W40950  44.776  17.180   2.178
68636W        W40951  43.316  31.916   2.710
68637W        W40952  37.990  16.792  12.960
68638W        W40953  27.043  25.495   0.364
68639W        W40954  43.953  15.737   0.448
68640W        W40955  42.460  19.579   0.278
68641W        W40956  23.047   2.951   1.903
68642W        W40957  25.071  30.475   4.758
68643W        W40958   8.882  29.478  13.026
68644W        W40959  17.593   1.893  12.983
68645W        W40960   8.793  35.006  12.478
68646W        W40961  34.590  39.016  10.550
68647W        W40962   4.407  30.029  13.822
68648W        W40963  14.636  10.366   4.814
68649W        W40964  34.477  12.162   1.439
68650W        W40965   0.338  23.731  14.012
68651W        W40966   1.854  40.407  13.036
68652W        W40967  39.915  33.568   2.354
68653W        W40968  19.719  30.623   4.691
68654W        W40969  11.694   6.773   4.733
68655W        W40970  35.943  15.276   4.289
68656W        W40971   9.782  44.949   4.614
68657W        W40972   4.268  36.025  12.491
68658W        W40973  23.093  23.676  13.812
68659W        W40974   8.380  43.271   3.206
68660W        W40975  39.506  43.369  11.425
68661W        W40976   7.385  13.793   2.210
68662W        W40977  22.606  22.747  13.364
68663W        W40978   2.743  18.643   3.637
68664W        W40979  25.688   2.741  13.908
68665W        W40980  38.503  13.302  11.877
68666W        W40981   5.249  27.179  11.978
68667W        W40982  31.413  40.319  11.387
68668W        W40983  25.559  36.444   3.818
68669W        W40984  30.026  35.013   4.308
68670W        W40985  33.580  38.414   9.983
68671W        W40986  32.491  18.170  14.470
68672W        W40987  30.474  24.492  13.410
68673W        W40988   0.846   4.398   2.827
68674W        W40989  15.736  19.150   3.816
68675W        W40990  32.128  40.319  11.584
68676W        W40991  43.793   7.849  14.369
68677W        W40992  22.619  42.304  12.926
68678W        W40993  28.485  18.700   1.421
68679W        W40994  41.410  37.500   2.862
68680W        W40995  11.626  27.563   2.838
68681W        W40996  14.673  12.845  14.760
68682W        W40997  24.671  32.052  12.920
68683W        W40998  12.183  17.762   9.542
68684W        W40999   3.736  27.109   4.321
68685W        W41000  13.833  40.336  13.445
68686W        W41001  10.779  21.238   0.897
68687W        W41002   7.757  21.593  12.520
68688W        W41003  34.528  11.252   4.732
68689W        W41004  12.657  17.733  12.851
68690W        W41005   0.917  12.210   5.632
68691W        W41006   8.332  40.434  10.919
68692W        W41007  18.065  30.121  14.790
68693W        W41008  28.156  27.616  13.051
68694W        W41009  14.110  38.970   5.091
68695W        W41010  31.518  13.307   4.141
68696W        W41011   6.903  29.060   0.849
68697W        W41012  34.537  40.417  14.897
68698W        W41013  24.011  14.795  13.345
68699W        W41014  25.550  18.770   2.898
68700W        W41015  32.530  40.821   4.261
68701W        W41016  42.819   2.281   4.624
68702W        W41017  14.223  25.545  10.906
68703W        W41018  37.055  39.548   2.347
68704W        W41019  43.819  12.299  14.023
68705W        W41020  28.119  38.039   1.401
68706W        W41021  43.860   6.361  10.445
68707W        W41022  29.016  39.398   0.938
68708W        W41023  22.128  43.368   1.851
68709W        W41024   5.211  44.479  13.060
68710W        W41025   8.297   8.772  12.958
68711W        W41026  22.666  40.955   2.704
68712W        W41027   2.953  25.678  13.419
68713W        W41028  20.064  37.336  14.886
68714W        W41029  18.269  40.844  10.019
68715W        W41030  14.239  39.541   0.480
68716W        W41031  23.135  11.245   2.678
68717W        W41032  11.253   9.330  10.439
68718W        W41033  22.082  16.710  10.463
68719W        W41034  43.422  38.441  13.509
68720W        W41035  10.357  37.934  14.798
68721W        W41036  42.832   2.464  12.926
68722W        W41037  22.518   6.771  13.920
68723W        W41038  36.870  33.927  11.467
68724W        W41039   9.657  39.877  11.417
68725W        W41040  21.658  38.849  13.379
68726W        W41041   0.926  41.391   0.364
68727W        W41042  30.647  36.562   0.899
68728W        W41043  11.276  21.047  11.454
68729W        W41044  39.359   6.849   4.706
68730W        W41045  15.215  30.617   2.291
68731W        W41046  41.855   0.801   0.874
68732W        W41047  39.343   1.305   0.737
68733W        W41048  28.031  43.847  11.860
68734W        W41049  22.531   4.253  10.614
68735W        W41050  10.239  30.622  14.465
68736W        W41051  37.573   3.920   2.899
68737W        W41052   7.800   6.321  13.855
68738W        W41053  22.052   5.241   2.190
68739W        W41054  44.924  40.427   1.816
68740W        W41055   2.431  19.211  14.916
68741W        W41056  33.425  30.983  14.468
68742W        W41057  20.581  18.085  14.929
68743W        W41058  10.298   6.365  10.500
68744W        W41059  35.424  40.502  12.437
68745W        W41060  25.612  31.618  10.984
68746W        W41061  15.149  35.949   4.130
68747W        W41062  25.588  21.714  10.621
68748W        W41063   1.469  36.502  12.485
68749W        W41064  38.402  39.369  13.962
68750W        W41065  19.078   0.781  10.452
68751W        W41066  37.869   1.415   3.178
68752W        W41067  18.608  15.646   0.855
68753W        W41068  23.654  20.192  12.534
68754W        W41069  24.574   0.771   3.791
68755W        W41070  10.801  23.178   2.733
68756W        W41071  19.571  20.245  10.942
68757W        W41072  16.723  31.029   4.316
68758W        W41073  20.660  38.908   0.834
68759W        W41074  22.172  36.042  11.060
68760W        W41075   4.388  39.361  14.783
68761W        W41076   2.322   6.282   0.422
68762W        W41077  44.895  31.410  12.495
68763W        W41078  12.224  41.319  12.842
68764W        W41079  11.151  18.166  14.999
68765W        W41080  19.079   5.897  12.922
68766W        W41081  44.808  22.138  13.437
68767W        W41082  24.703  28.672  12.829
68768W        W41083  15.653   1.911  10.505
68769W        W41084  28.514   3.328  14.478
68770W        W41085   1.827  28.970  14.424
68771W        W41086   3.379  22.680   4.675
68772W        W41087   5.696  36.000  10.534
68773W        W41088  44.443  24.492  12.844
68774W        W41089  33.033  10.138   1.289
68775W        W41090  44.322  24.125   4.354
68776W        W41091  36.389  28.532  14.366
68777W        W41092  33.409  23.233  13.411
68778W        W41093   8.190  26.585   3.354
68779W        W41094   2.883  27.468   3.804
68780W        W41095  10.209  21.217   2.886
68781W        W41096  14.646   9.667  13.465
68782W        W41097  13.773  41.023  13.063
68783W        W41098  35.457   2.447   3.172
68784W        W41099  37.838  19.199  11.047
68785W        W41100  36.999  35.405   4.601
68786W        W41101  29.973  40.379   4.800
68787W        W41102  16.642  43.020   2.668
68788W        W41103  25.628  37.976  11.869
68789W        W41104  34.562  18.274  10.982
68790W        W41105   9.342  13.612  12.927
68791W        W41106   2.750  11.369  11.049
68792W        W41107  22.740  27.142  11.024
68793W        W41108  27.956  11.350  11.486
68794W        W41109  23.549  34.891  11.896
68795W        W41110   5.864  21.112   3.233
68796W        W41111  39.479  25.047  14.791
68797W        W41112   6.389  14.273  12.929
68798W        W41113  41.031  41.507   0.270
68799W        W41114  24.208  28.531   1.743
68800W        W41115   9.318   4.773  13.494
68801W        W41116  41.826  26.502   2.701
68802W        W41117  14.671  22.239   3.320
68803W        W41118  34.900  43.878   3.717
68804W        W41119  19.543  19.180   1.241
68805W        W41120   5.786  37.572   1.763
68806W        W41121  36.857  43.371   1.793
68807W        W41122  14.696  39.016   4.781
68808W        W41123  40.332  16.285  14.795
68809W        W41124   9.746  39.520   0.447
68810W        W41125  31.410  34.049  10.945
68811W        W41126  44.908   4.231  13.003
68812W        W41127   5.734  20.194   2.721
68813W        W41128  44.975  34.387  13.327
68814W        W41129  28.156   2.314  14.337
68815W        W41130  24.221   6.758   3.742
68816W        W41131  16.302  22.519  11.961
68817W        W41132  36.921  42.815   3.758
68818W        W41133  35.954  12.157   3.831
68819W        W41134   2.799  32.493   1.741
68820W        W41135  39.500  35.529  11.580
68821W        W41136  16.247   5.784  11.385
68822W        W41137  40.054   6.228   2.298
68823W        W41138  38.443  28.089  13.546
68824W        W41139   4.356  25.213  10.426
68825W        W41140  21.695  13.623   1.212
68826W        W41141   3.448  37.493   5.234
68827W        W41142  41.465  15.720   0.243
68828W        W41143   4.868   9.736   4.219
68829W        W41144   2.349  30.040   4.193
68830W        W41145   9.796  31.024   1.743
68831W        W41146  40.831  40.821   3.773
68832W        W41147  29.474  33.568  11.044
68833W        W41148   9.662  11.634   4.241
68834W        W41149  31.117  42.832   2.391
68835W        W41150  35.055  36.386   2.826
68836W        W41151  19.231  22.116   3.146
68837W        W41152  28.552   5.304   0.849
68838W        W41153  17.202  20.638  11.032
68839W        W41154  43.813  15.311   2.189
68840W        W41155   1.238  27.542   0.849
68841W        W41156   2.383   6.425  11.588
68842W        W41157  21.059   7.367  11.387
68843W        W41158  31.483   2.836   3.658
68844W        W41159  29.545  27.586  13.498
68845W        W41160  29.136  42.447   1.935
68846W        W41161  19.146  38.538   3.770
68847W        W41162   7.406  23.112  14.340
68848W        W41163  36.882  19.727   1.245
68849W        W41164   4.899   4.268  10.145
68850W        W41165  17.258  22.061  13.905
68851W        W41166  35.003  23.196  11.518
68852W        W41167   7.266  32.028   2.379
68853W        W41168  44.365  37.395   0.268
68854W        W41169  12.758  33.509   0.892
68855W        W41170  42.319   3.729  12.049
68856W        W41171   1.352  23.077   0.337
68857W        W41172  35.541  24.975   2.790
68858W        W41173  21.191  11.662  11.412
68859W        W41174  26.473   4.371   0.362
68860W        W41175  15.285  41.822   3.368
68861W        W41176  24.096  26.638  14.380
68862W        W41177  25.568  44.392   4.781
68863W        W41178  40.797  31.590  12.044
68864W        W41179  39.411  13.218   3.378
68865W        W41180  41.528  18.585   2.857
68866W        W41181  15.249  26.001  11.872
68867W        W41182  24.072  34.382  10.629
68868W        W41183  34.083  22.578  14.786
68869W        W41184   1.404   0.742  14.841
68870W        W41185   5.209  40.981  11.888
68871W        W41186   1.736   7.708  11.984
68872W        W41187   1.455  14.762  14.306
68873W        W41188  17.656  24.987  14.861
68874W        W41189   4.795  43.306  10.937
68875W        W41190  31.457  37.917  14.279
68876W        W41191  15.188  14.137  12.081
68877W        W41192  10.723  44.844  11.407
68878W        W41193  33.496  15.320  13.364
68879W        W41194   5.790  32.619   1.917
68880W        W41195  23.190   7.860  11.542
68881W        W41196  18.649  10.348  12.925
68882W        W41197  23.076   0.477  12.567
68883W        W41198  42.816  34.545  10.482
68884W        W41199  19.240  22.088  11.428
68885W        W41200  21.602  28.039  11.997
68886W        W41201   3.908   9.336  14.375
68887W        W41202  41.482  27.059   2.680
68888W        W41203   2.296  40.952  14.285
68889W        W41204  13.602  32.104  12.500
68890W        W41205  23.563  14.784  10.980
68891W        W41206  31.024  37.377  14.859
68892W        W41207  11.644  12.189  11.021
68893W        W41208  17.556  14.630   2.241
68894W        W41209  13.123  22.679  14.288
68895W        W41210  10.165   4.413  11.097
68896W        W41211  44.968  26.505  14.426
68897W        W41212  12.233  18.722   5.783
68898W        W41213  25.163   9.833   3.246
68899W        W41214  28.529  24.975   0.478
68900W        W41215  38.819   2.735   3.285
68901W        W41216   9.319  25.206  10.451
68902W        W41217  30.150  39.326   2.294
68903W        W41218  37.431  27.505   3.367
68904W        W41219  11.359  21.659   1.861
68905W        W41220  44.919  18.170   4.197
68906W        W41221  38.527  24.984   1.853
68907W        W41222  20.594   8.221  11.401
68908W        W41223  23.217  34.475   2.693
68909W        W41224  11.727  40.798   4.199
68910W        W41225  39.405  10.338  13.479
68911W        W41226  20.252   1.736  12.903
68912W        W41227   9.379   0.975  10.544
68913W        W41228  12.341  12.823   3.845
68914W        W41229  30.415   0.454  10.978
68915W        W41230  38.836   8.160  13.986
68916W        W41231  38.528  15.155   3.384
68917W        W41232   6.376  21.053   3.225
68918W        W41233  42.017  32.046   0.873
68919W        W41234  23.003   8.341  12.555
68920W        W41235  16.237  33.001  12.523
68921W        W41236  11.335   3.723   3.371
68922W        W41237  41.362  34.116  12.454
68923W        W41238  26.181   8.852  14.027
68924W        W41239  42.876  35.885   4.260
68925W        W41240  35.427  15.117  11.435
68926W        W41241  41.862  27.684   2.759
68927W        W41242  20.651  23.092   1.283
68928W        W41243  34.106  24.085   0.747
68929W        W41244   5.207  42.020  11.426
68930W        W41245  19.082  17.289  12.532
68931W        W41246  13.645  28.498   1.450
68932W        W41247  44.818  20.690   0.950
68933W        W41248  36.484  30.512  13.951
68934W        W41249   0.904  44.842  12.943
68935W        W41250  11.818   8.180  10.615
68936W        W41251  32.460  40.873  11.015
68937W        W41252  41.813  43.329  12.847
68938W        W41253  27.180  27.605  11.545
68939W        W41254  21.070  33.434   2.817
68940W        W41255   2.465  10.772   0.867
68941W        W41256  13.176  11.259   3.205
68942W        W41257  34.452  43.310  11.036
68943W        W41258  24.992  31.143  12.008
68944W        W41259   9.810   9.324  11.985
68945W        W41260  34.992   9.204   4.712
68946W        W41261  14.334  26.155  12.045
68947W        W41262  28.666  37.869  14.980
68948W        W41263  34.426  36.870  13.941
68949W        W41264  11.369   4.887   4.791
68950W        W41265  14.693  34.082  11.871
68951W        W41266   1.964  14.158   0.755
68952W        W41267  35.439  25.012   4.669
68953W        W41268   6.278  15.603  10.563
68954W        W41269  40.509   1.943   1.929
68955W        W41270  44.481  10.862   0.727
68956W        W41271   5.932  33.921   2.370
68957W        W41272  40.000  30.143  10.473
68958W        W41273  20.112  12.794   0.450
68959W        W41274  35.389   2.874   3.697
68960W        W41275  29.064  10.647  11.578
68961W        W41276  14.737   1.827   3.187
68962W        W41277  30.602  22.187  10.021
68963W        W41278   6.917   3.910  14.285
68964W        W41279   7.246   2.729  10.423
68965W        W41280  30.972  37.337   4.279
68966W        W41281  27.576  39.411  12.034
68967W        W41282  43.354  14.285   2.708
68968W        W41283  23.699  24.171   0.398
68969W        W41284  38.874  27.120  14.355
68970W        W41285  35.037  15.316   0.330
68971W        W41286  43.408  40.376  11.597
68972W        W41287  29.992  33.452   3.326
68973W        W41288  34.899  39.336   2.736
68974W        W41289  20.245  44.889  13.062
68975W        W41290   3.771  44.787   2.698
68976W        W41291  39.885   6.724  12.913
68977W        W41292  39.513  13.725  14.347
68978W        W41293   1.387  35.873   1.405
68979W        W41294   9.215   6.867   4.312
68980W        W41295  11.663  32.591  12.385
68981W        W41296  39.424  27.965  12.521
68982W        W41297  31.914  37.459   4.783
68983W        W41298  19.710  34.863   1.257
68984W        W41299  31.474  31.416  13.875
68985W        W41300  15.711  35.929   3.780
68986W        W41301  39.904   4.330   2.309
68987W        W41302   2.925  32.079  13.880
68988W        W41303  41.924  22.522  11.082
68989W        W41304   0.906  30.548  11.916
68990W        W41305  38.928  29.059  12.343
68991W        W41306  44.329  39.842  13.792
68992W        W41307  22.699  32.065   1.289
68993W        W41308  11.333  25.658  14.895
68994W        W41309  20.255  22.629  10.923
68995W        W41310  36.468  12.349  12.999
68996W        W41311   4.366  27.006   0.917
68997W        W41312  42.292  21.210   1.724
68998W        W41313  43.512  31.965   9.975
68999W        W41314  34.547  24.537   2.264
69000W        W41315  20.607   6.246  12.430
69001W        W41316  19.120   8.813   3.709
69002W        W41317   0.398  22.061   3.190
69003W        W41318   2.813  32.004  11.122
69004W        W41319   2.360  25.522  12.460
69005W        W41320  29.077  39.441   4.350
69006W        W41321  18.056   5.754   4.198
69007W        W41322  43.981  25.007  11.523
69008W        W41323   9.769  37.930  12.509
69009W        W41324  41.458  27.651  10.904
69010W        W41325  20.091  20.728  13.326
69011W        W41326   4.943  23.709   4.292
69012W        W41327  14.771  41.970   3.267
69013W        W41328   5.427  27.482   4.762
69014W        W41329  34.871   5.211  11.423
69015W        W41330  24.498  38.530  12.016
69016W        W41331  32.892   2.886  13.050
69017W        W41332  15.642  37.977  11.017
69018W        W41333  42.804  37.073   2.355
69019W        W41334  33.603   7.331   4.646
69020W        W41335  26.702  17.187   0.881
69021W        W41336  38.527  11.737  10.951
69022W        W41337  40.428  42.016  12.091
69023W        W41338  40.851  17.586   4.801
69024W        W41339  31.031  29.577  12.529
69025W        W41340  18.563   6.270   0.732
69026W        W41341  16.203  19.694   1.384
69027W        W41342  30.130  19.212   2.826
69028W        W41343  38.504  39.978  13.459
69029W        W41344  42.328  37.847  10.599
69030W        W41345   7.279  25.639   3.811
69031W        W41346  34.947   5.433  11.938
69032W        W41347  22.096  40.442   2.687
69033W        W41348   8.813  41.804   0.832
69034W        W41349   7.881  17.097   3.275
69035W        W41350  15.822  16.108   3.758
69036W        W41351   0.388   3.391   0.936
69037W        W41352  13.161  19.064   0.277
69038W        W41353  17.158  14.733  10.497
69039W        W41354  14.201  32.415  14.863
69040W        W41355  28.955  12.281   3.819
69041W        W41356  18.114  33.417  13.399
69042W        W41357  10.215  38.830  14.346
69043W        W41358  25.177  11.293   2.273
69044W        W41359  16.724  40.541  13.501
69045W        W41360  16.235  31.969   1.860
69046W        W41361  23.701  29.048   2.700
69047W        W41362  23.617  13.230  14.436
69048W        W41363  42.875  23.992  11.982
69049W        W41364   6.216  16.806  14.798
69050W        W41365  14.268   2.958  14.944
69051W        W41366  34.991  10.190  12.906
69052W        W41367  14.801  26.169   4.686
69053W        W41368  41.332   1.397  13.848
69054W        W41369  19.666  41.402  14.852
69055W        W41370  18.120  39.432   2.242
69056W        W41371  13.766  32.457  13.533
69057W        W41372  20.615  19.543   2.392
69058W        W41373   6.832   5.364   0.862
69059W        W41374  16.706  36.481  14.882
69060W        W41375  14.756   6.810  14.508
69061W        W41376  12.730  43.288  13.454
69062W        W41377  16.093  25.180  13.310
69063W        W41378   7.742  24.226   0.421
69064W        W41379  12.828  19.129  10.972
69065W        W41380   4.441  23.612  12.915
69066W        W41381  33.106  10.879  13.967
69067W        W41382   2.262  35.366   5.582
69068W        W41383  32.014   4.703  11.993
69069W        W41384  11.293   1.849  11.950
69070W        W41385  11.140  21.640   1.331
69071W        W41386   0.957   1.851   0.408
69072W        W41387  13.711  17.612   4.240
69073W        W41388   0.984  35.049   2.376
69074W        W41389  32.397  42.965  12.510
69075W        W41390  23.735  23.617   2.786
69076W        W41391   3.947  27.574   3.263
69077W        W41392  40.020  29.583   3.857
69078W        W41393  37.567  22.515   3.709
69079W        W41394  35.466  14.745  10.604
69080W        W41395  34.928  41.493  12.989
69081W        W41396  15.328  13.806  11.051
69082W        W41397  13.774  14.811  11.457
69083W        W41398  14.717   7.346  14.838
69084W        W41399  21.672  20.260   4.318
69085W        W41400   1.819   7.193   4.211
69086W        W41401  41.882  24.157  11.582
69087W        W41402  10.280  42.866   3.173
69088W        W41403  28.950   7.744  13.022
69089W        W41404  39.326  23.684   1.869
69090W        W41405  18.610  32.450  14.463
69091W        W41406  31.411  41.843   0.860
69092W        W41407  41.474   1.906   2.376
69093W        W41408  27.962   8.865  13.801
69094W        W41409  28.026  16.311   4.631
69095W        W41410  10.707  42.010  13.952
69096W        W41411   0.268  41.018   2.747
69097W        W41412  28.004   2.852   0.297
69098W        W41413  41.956  26.561   5.177
69099W        W41414  17.147  23.988  10.459
69100W        W41415  14.206   0.358   3.364
69101W        W41416  16.125  17.670  13.841
69102W        W41417  12.346  20.096   2.394
69103W        W41418  41.873  40.950   3.311
69104W        W41419   9.848  15.220  12.040
69105W        W41420  13.649  15.793  11.491
69106W        W41421  18.141  17.636   0.856
69107W        W41422  32.489  36.994   0.451
69108W        W41423   2.287  26.023   2.216
69109W        W41424  20.238  34.107  12.901
69110W        W41425  42.379  33.921  10.920
69111W        W41426  34.443  30.977  11.389
69112W        W41427  23.155  27.619   4.342
69113W        W41428  18.267  34.595  11.431
69114W        W41429  21.028   6.885  14.418
69115W        W41430  12.832  19.283   4.631
69116W        W41431  44.813   8.160   2.676
69117W        W41432  42.425   1.447   3.822
69118W        W41433  10.147  17.266   1.414
69119W        W41434  39.029  37.360  12.552
69120W        W41435  15.107  19.686  14.443
69121W        W41436  28.167   5.716   2.404
69122W        W41437   8.185  24.047  14.911
69123W        W41438  37.570   6.307  13.009
69124W        W41439  10.653   1.435   2.288
69125W        W41440  42.903  16.230   0.272
69126W        W41441  35.007  16.144   4.290
69127W        W41442  11.712  39.489   3.183
69128W        W41443  10.363  18.661   1.378
69129W        W41444  27.948  29.931   1.322
69130W        W41445   6.753  29.511   4.304
69131W        W41446  35.589  36.861  14.875
69132W        W41447  17.558  44.806   4.309
69133W        W41448   3.790  28.502   1.858
69134W        W41449  19.671  34.532   4.781
69135W        W41450  34.473   3.449   3.176
69136W        W41451  16.783  43.385  14.389
69137W        W41452  22.669  11.659   4.774
69138W        W41453  11.763  34.518   1.931
69139W        W41454   1.755  11.247   2.674
69140W        W41455  35.979  18.169  11.522
69141W        W41456   6.382  15.741  14.869
69142W        W41457   8.249  36.018  13.794
69143W        W41458   0.764  19.737  11.891
69144W        W41459  34.550  22.224  11.912
69145W        W41460   5.340   5.408  11.591
69146W        W41461  30.638  36.088   3.643
69147W        W41462  36.487  21.030  12.429
69148W        W41463  41.393  29.560   3.204
69149W        W41464  26.585  40.485   3.235
69150W        W41465  40.882   6.820   2.837
69151W        W41466  20.593  18.120   1.340
69152W        W41467  39.423  23.074  10.410
69153W        W41468  11.746  22.583  12.078
69154W        W41469  34.041  35.372  12.062
69155W        W41470   7.361  28.612   4.605
69156W        W41471   3.226  17.571   1.740
69157W        W41472   7.819  16.182  13.887
69158W        W41473  38.880  21.595   2.268
69159W        W41474   6.342  18.267   1.760
69160W        W41475  23.052  16.145  10.911
69161W        W41476  16.244  15.742   3.749
69162W        W41477  33.455  31.101  11.603
69163W        W41478  43.927  24.046   0.745
69164W        W41479  17.792  15.795   1.440
69165W        W41480  31.072  39.439  10.589
69166W        W41481  18.186  40.503  14.444
69167W        W41482   5.317  36.055  14.878
69168W        W41483  19.187   6.210  10.626
69169W        W41484   9.716  30.599  14.813
69170W        W41485  14.289  30.629  14.889
69171W        W41486  44.954  31.607   1.392
69172W        W41487  38.063  34.607  10.547
69173W        W41488   6.209  32.602  10.621
69174W        W41489  17.582  20.669  10.994
69175W        W41490   2.256   1.414  13.798
69176W        W41491  42.872   3.760  13.998
69177W        W41492  19.768   6.368   0.747
69178W        W41493   5.247  16.315   3.323
69179W        W41494  44.937   8.781  13.058
69180W        W41495   6.855  26.657   0.903
69181W        W41496  27.577  32.110  10.577
69182W        W41497  33.495   2.829  12.046
69183W        W41498  23.624  20.221   4.779
69184W        W41499  35.897  35.107  11.901
69185W        W41500  13.800  38.069   3.713
69186W        W41501  10.185  16.704  12.443
69187W        W41502  31.109   6.350  13.388
69188W        W41503  34.112   3.896  10.513
69189W        W41504  34.993   9.871  13.476
69190W        W41505  29.006  20.177   1.253
69191W        W41506  11.789   1.382   2.310
69192W        W41507  40.340  27.141  14.764
69193W        W41508  36.969  16.074  11.569
69194W        W41509   0.947   7.382   3.678
69195W        W41510  27.955  41.998   1.360
69196W        W41511  23.184  35.040   4.835
69197W        W41512  44.403  12.623   2.382
69198W        W41513  39.530   9.174  12.934
69199W        W41514  34.567   7.806  11.867
69200W        W41515  38.871  11.151   4.343
69201W        W41516  39.874  21.647  14.888
69202W        W41517  32.125  13.280  10.947
69203W        W41518   3.445  15.800  10.060
69204W        W41519  21.189  23.087  10.910
69205W        W41520   6.819  40.527  11.921
69206W        W41521  35.375   9.680  11.561
69207W        W41522  44.319  18.173  14.379
69208W        W41523  43.346  43.431  13.518
69209W        W41524   3.847   9.680  11.082
69210W        W41525   1.748  34.035   9.471
69211W        W41526  40.359  31.079   1.872
69212W        W41527  15.172  20.563   2.730
69213W        W41528  10.303   8.833  14.461
69214W        W41529   9.284  27.114   4.301
69215W        W41530  15.100  10.720   2.887
69216W        W41531  21.614  15.282  13.812
69217W        W41532   3.287  44.489  12.488
69218W        W41533  35.089  11.644   0.788
69219W        W41534  25.474  37.563  10.614
69220W        W41535   6.332  24.197  10.499
69221W        W41536  18.281   8.361  11.425
69222W        W41537  28.015   1.941   5.178
69223W        W41538  32.110  36.049  14.309
69224W        W41539  33.593  13.181   1.259
69225W        W41540  15.118  38.035  10.547
69226W        W41541  42.319  16.782  14.368
69227W        W41542   4.883   2.904   2.378
69228W        W41543   4.442  29.018   2.802
69229W        W41544  12.154   4.769   4.634
69230W        W41545  23.502  19.164   4.275
69231W        W41546  33.520  37.064   4.785
69232W        W41547  40.414  34.039   3.215
69233W        W41548  44.396  31.137   3.836
69234W        W41549  36.058  12.344   2.215
69235W        W41550  36.062  44.454   0.354
69236W        W41551   5.216   9.337   2.292
69237W        W41552  25.617   4.412   4.186
69238W        W41553  34.383  26.052   3.726
69239W        W41554  26.065  11.803  11.574
69240W        W41555  41.419  43.914  14.378
69241W        W41556  44.433  19.542  11.947
69242W        W41557  11.738   1.955  12.999
69243W        W41558  35.576  42.975  11.513
69244W        W41559  19.567  12.695   2.386
69245W        W41560   3.327  33.495   1.261
69246W        W41561   5.388   1.793  12.416
69247W        W41562  28.652  35.476  14.884
69248W        W41563   9.236  13.731   0.745
69249W        W41564   8.845  37.503   3.849
69250W        W41565   8.832  41.370   0.323
69251W        W41566  33.034  31.962   0.737
69252W        W41567   5.290   3.715   2.753
69253W        W41568  32.607   1.301   2.251
69254W        W41569  41.806  33.459   3.263
69255W        W41570  29.595  35.986   0.965
69256W        W41571  18.628  44.991   4.786
69257W        W41572  16.601   9.759   9.667
69258W        W41573   7.835   5.234  14.969
69259W        W41574  32.568  43.394   4.287
69260W        W41575  42.454   6.276  10.591
69261W        W41576  21.710   0.804  14.909
69262W        W41577  38.374  11.252  14.312
69263W        W41578  44.419   7.319  12.856
69264W        W41579  15.823  40.817  13.815
69265W        W41580  12.810  32.636  13.933
69266W        W41581  25.656  10.247  12.978
69267W        W41582  33.476  23.109   4.686
69268W        W41583  20.565  43.490  12.835
69269W        W41584   2.452  26.162   4.323
69270W        W41585   6.683  38.052   2.901
69271W        W41586  29.475  39.486  13.448
69272W        W41587  40.974  19.042  11.013
69273W        W41588  33.891   7.803  13.339
69274W        W41589  39.346  22.742   4.280
69275W        W41590  30.431  19.094  10.484
69276W        W41591   4.431  22.132   0.326
69277W        W41592  30.442   9.790  14.457
69278W        W41593  33.049  20.104  14.836
69279W        W41594  18.640  34.427   4.298
69280W        W41595   1.461  32.984  11.904
69281W        W41596  41.299  13.178  14.961
69282W        W41597  43.310  39.533  14.986
69283W        W41598  21.021  27.149  14.369
69284W        W41599   9.171  20.217  14.936
69285W        W41600   3.426  42.433  13.334
69286W        W41601  33.594  16.211   2.896
69287W        W41602  15.306  25.623   2.351
69288W        W41603  44.497  21.191   0.738
69289W        W41604   7.386  44.355   3.648
69290W        W41605   5.818  24.105  14.942
69291W        W41606   8.253  37.346  10.583
69292W        W41607   6.825  16.275  14.397
69293W        W41608  32.074  31.600   3.233
69294W        W41609  19.668  30.139  12.400
69295W        W41610  26.154  33.973   0.336
69296W        W41611  39.019  12.823   1.813
69297W        W41612   5.743  38.960   3.366
69298W        W41613  31.026   0.334  12.011
69299W        W41614  16.611  10.301   1.425
69300W        W41615   5.796   6.918  14.414
69301W        W41616   1.810   1.264  12.375
69302W        W41617   6.233  27.644  11.952
69303W        W41618  10.707  15.652  10.609
69304W        W41619  17.113  39.357  12.556
69305W        W41620  35.571  12.677   4.271
69306W        W41621  27.668  12.186   2.687
69307W        W41622  43.450  29.574   3.294
69308W        W41623  27.977  42.500   2.326
69309W        W41624  43.997  40.848   1.284
69310W        W41625  18.201   7.842   4.607
69311W        W41626  23.158  23.724   2.288
69312W        W41627  30.974  16.796  11.547
69313W        W41628  43.495   6.836  14.485
69314W        W41629  34.411  16.601   1.270
69315W        W41630  15.128  10.656  13.871
69316W        W41631  26.497  20.557   4.310
69317W        W41632  26.619   9.866  10.541
69318W        W41633   5.382  43.405  11.413
69319W        W41634  16.199  31.552  11.502
69320W        W41635  27.591  14.163   3.737
69321W        W41636  39.993   5.743   2.764
69322W        W41637  33.555  34.586   2.690
69323W        W41638  12.689   3.264   3.215
69324W        W41639  32.083  26.106  10.418
69325W        W41640  26.647  43.910  13.351
69326W        W41641   9.647  38.886   3.648
69327W        W41642   2.867  18.138  11.019
69328W        W41643  23.520  28.564   3.280
69329W        W41644  22.546  33.073  11.442
69330W        W41645  37.363  24.566  14.397
69331W        W41646  18.582  34.382   0.811
69332W        W41647  37.552  44.979   4.147
69333W        W41648  11.684  13.194  12.970
69334W        W41649  44.493  34.467  13.816
69335W        W41650  33.380  23.566   1.760
69336W        W41651  20.595   0.292  14.988
69337W        W41652  43.963  26.672   4.184
69338W        W41653  35.494  37.416   4.697
69339W        W41654  37.959  27.117  11.524
69340W        W41655  27.669  36.427   2.258
69341W        W41656  19.650  10.757  10.536
69342W        W41657  35.058  25.086  10.921
69343W        W41658  21.756  35.374  13.397
69344W        W41659   3.713  22.509  13.485
69345W        W41660  43.433  38.347   4.336
69346W        W41661  19.741   0.811  11.487
69347W        W41662   0.890  25.008   0.322
69348W        W41663  39.447  21.734   1.294
69349W        W41664  41.032   8.306  12.478
69350W        W41665  21.712  21.646   2.743
69351W        W41666  13.745  14.756   0.789
69352W        W41667  20.703  16.154  13.940
69353W        W41668  39.523  29.544   3.249
69354W        W41669  34.986  41.021   2.266
69355W        W41670  39.432  24.639  12.973
69356W        W41671  22.193   8.877   2.285
69357W        W41672   2.865  41.404   2.316
69358W        W41673  16.091  20.078  12.386
69359W        W41674  29.534  12.647   2.298
69360W        W41675  30.122  35.947  13.336
69361W        W41676  12.179  26.951  14.849
69362W        W41677  19.706  42.313  13.338
69363W        W41678  18.622  28.073   4.651
69364W        W41679  22.641  22.521   1.318
69365W        W41680  40.940   3.391  10.986
69366W        W41681  21.130  21.150   5.195
69367W        W41682  16.309   1.424   1.336
69368W        W41683  27.002   3.278  14.870
69369W        W41684  26.575  36.988   2.900
69370W        W41685  21.263  43.350  10.948
69371W        W41686  38.542  26.037   0.267
69372W        W41687  13.276  31.939  12.359
69373W        W41688  44.993   9.321  10.909
69374W        W41689  26.071  34.000   2.771
69375W        W41690   6.336   3.900   4.153
69376W        W41691  34.468   8.825   1.298
69377W        W41692  43.450  38.992  11.395
69378W        W41693  12.308   8.772  10.584
69379W        W41694  29.986  41.336  14.796
69380W        W41695  39.878  24.537   3.729
69381W        W41696  38.438  30.509   0.765
69382W        W41697  10.345  24.084   3.178
69383W        W41698  24.016  28.521   4.716
69384W        W41699  32.037  14.098  12.070
69385W        W41700   0.938  42.985  12.465
69386W        W41701   1.327  44.423  11.611
69387W        W41702   1.786   1.305   0.778
69388W        W41703  32.553  26.638   1.444
69389W        W41704  35.860   2.790   3.737
69390W        W41705  19.734  31.127  12.971
69391W        W41706  27.035  14.818  12.541
69392W        W41707  14.247  22.731   3.185
69393W        W41708  43.400  31.423   0.941
69394W        W41709  27.526  22.712   2.195
69395W        W41710  29.009  33.382   0.795
69396W        W41711  26.989   2.725  10.981
69397W        W41712   1.824  17.269   2.182
69398W        W41713  43.328  25.187  10.617
69399W        W41714  10.248  26.640   2.317
69400W        W41715  20.671   9.164   1.769
69401W        W41716  12.357   9.693  11.990
69402W        W41717  34.474  25.972   2.795
69403W        W41718  41.414  31.036  11.094
69404W        W41719  31.003  13.845  11.008
69405W        W41720  39.927  25.646  10.044
69406W        W41721  25.183  40.526  11.383
69407W        W41722  21.126  35.468  13.816
69408W        W41723  26.098  25.205  10.955
69409W        W41724  23.071   6.211  13.439
69410W        W41725   2.902  27.083   2.338
69411W        W41726  33.941  15.264   3.360
69412W        W41727  30.977  30.020  11.956
69413W        W41728  38.444  42.834  11.928
69414W        W41729  34.046  24.583   4.785
69415W        W41730  36.915   0.866  10.937
69416W        W41731  43.444  37.899  13.441
69417W        W41732  31.013  22.649   0.483
69418W        W41733  20.765   5.707  14.972
69419W        W41734  39.524  33.625   3.789
69420W        W41735   5.815  10.707  13.407
69421W        W41736  17.120  21.648   4.721
69422W        W41737  27.181  28.159  13.844
69423W        W41738  29.035  28.553   0.794
69424W        W41739   5.817  34.865   1.216
69425W        W41740  29.510  15.122   4.597
69426W        W41741   3.885   0.417   5.234
69427W        W41742  21.541  17.105  12.980
69428W        W41743   8.716  35.438   1.288
69429W        W41744  14.597  33.996   2.279
69430W        W41745  27.595  43.401  12.506
69431W        W41746   0.276  24.231  13.978
69432W        W41747  36.950   7.885   2.297
69433W        W41748  27.960  32.413   2.772
69434W        W41749  12.220  28.557  11.523
69435W        W41750  30.437  41.880   1.364
69436W        W41751  23.077  37.039  10.983
69437W        W41752  43.438  35.888  14.415
69438W        W41753  19.281   1.797   3.194
69439W        W41754   7.875  11.797   0.910
69440W        W41755   9.833   6.224  14.484
69441W        W41756  31.455   3.371   5.158
69442W        W41757  30.000   4.297   0.291
69443W        W41758  27.097  31.470   5.742
69444W        W41759  39.836  11.714  11.866
69445W        W41760  44.385  33.086  13.408
69446W        W41761   3.350  26.158   2.739
69447W        W41762  20.555  20.643  13.025
69448W        W41763   5.762  10.804   4.743
69449W        W41764   8.898   8.882  12.051
69450W        W41765   0.776  12.156   1.311
69451W        W41766  38.852   9.310  10.512
69452W        W41767  41.469  34.054  11.972
69453W        W41768  18.777  11.865  14.362
69454W        W41769  10.682  25.570   4.217
69455W        W41770  24.699  32.542  14.401
69456W        W41771   6.749  26.581   4.644
69457W        W41772  22.099  36.560  13.842
69458W        W41773  11.728  28.507  13.482
69459W        W41774  29.100   6.884   0.741
69460W        W41775  32.909  32.108  11.577
69461W        W41776  34.453  40.870  12.539
69462W        W41777  24.647  17.103  13.011
69463W        W41778  29.992  21.125  14.944
69464W        W41779  32.909   9.265  11.093
69465W        W41780  28.175  42.350  12.081
69466W        W41781   5.249  40.014   4.753
69467W        W41782   2.915  13.344   4.165
69468W        W41783  44.008   4.744  11.035
69469W        W41784  22.607   7.887  11.998
69470W        W41785  41.524  36.487   3.251
69471W        W41786  33.955  10.144  11.510
69472W        W41787  14.101   1.974  14.367
69473W        W41788  18.700   8.331  10.555
69474W        W41789  25.665  40.539   4.752
69475W        W41790  35.417  18.678   4.150
69476W        W41791   7.755  30.459   2.348
69477W        W41792  32.931   6.247  14.821
69478W        W41793  30.127  25.685   1.767
69479W        W41794  29.983   3.795   1.766
69480W        W41795  31.899  31.591   1.814
69481W        W41796  19.139  16.568  14.995
69482W        W41797  21.052  32.093   2.782
69483W        W41798  13.762  25.153   4.213
69484W        W41799  20.731  25.538  13.799
69485W        W41800  16.657  23.669  11.533
69486W        W41801  34.528  42.841   0.825
69487W        W41802  23.579  27.596  13.880
69488W        W41803  24.061  19.201   3.195
69489W        W41804  18.779  30.573  13.476
69490W        W41805  36.067   8.337   0.777
69491W        W41806   5.837  21.152   0.395
69492W        W41807   6.321  38.335   1.925
69493W        W41808  17.210  14.711  12.857
69494W        W41809   9.188  27.634   3.251
69495W        W41810  30.437  43.014  11.399
69496W        W41811  28.083   0.744   2.224
69497W        W41812  23.670  42.882  12.420
69498W        W41813  26.570  15.133   2.883
69499W        W41814   4.262   0.767   3.791
69500W        W41815   6.885  44.402   3.691
69501W        W41816  27.468  22.042  13.024
69502W        W41817  13.113  36.999   0.345
69503W        W41818  37.385  24.214  11.886
69504W        W41819  41.921  24.230  12.991
69505W        W41820  22.142  35.996  12.984
69506W        W41821  17.100  15.252  12.039
69507W        W41822   8.373  34.004  11.092
69508W        W41823  24.506  28.039   4.697
69509W        W41824  18.155  29.590   0.966
69510W        W41825  11.694   8.847  12.422
69511W        W41826   9.776  22.127  10.970
69512W        W41827  36.953  30.527   3.808
69513W        W41828  43.915   0.456   1.735
69514W        W41829  22.677  32.408   3.629
69515W        W41830  36.522  15.135  12.460
69516W        W41831  35.014  42.849   2.711
69517W        W41832   8.292   9.347  12.958
69518W        W41833  31.432  39.453   1.718
69519W        W41834  32.942  18.116   1.221
69520W        W41835  11.339  20.595  14.031
69521W        W41836  39.508  27.684   1.309
69522W        W41837  15.180  34.973   0.285
69523W        W41838  28.055  31.979   3.727
69524W        W41839  43.348  36.406  11.955
69525W        W41840  24.506  10.334  14.768
69526W        W41841  44.380  30.468   2.901
69527W        W41842  39.836  19.133   2.720
69528W        W41843  31.048   4.734   1.365
69529W        W41844  40.843  34.434   4.634
69530W        W41845  11.361  15.628   4.241
69531W        W41846   4.311   2.365   2.316
69532W        W41847  10.735  39.467  14.853
69533W        W41848  34.919  29.144   4.646
69534W        W41849  41.949  25.008   3.323
69535W        W41850  44.399   5.413  13.364
69536W        W41851  41.985  40.055  14.486
69537W        W41852   1.810   9.154  14.992
69538W        W41853  18.162   5.816   3.316
69539W        W41854  24.989  44.929   4.217
69540W        W41855  35.540  34.489   2.702
69541W        W41856   9.252  15.745  11.445
69542W        W41857   7.796   7.257   0.842
69543W        W41858  17.171  30.439  11.031
69544W        W41859  44.468  20.046   1.930
69545W        W41860   4.705  13.117   2.217
69546W        W41861  26.568   9.336   1.735
69547W        W41862   6.293  25.077   0.461
69548W        W41863   8.795  31.518  12.046
69549W        W41864  40.505  28.525   0.372
69550W        W41865   5.326   5.385  14.319
69551W        W41866  24.039   0.774  14.015
69552W        W41867   0.767  35.104   3.327
69553W        W41868  37.516  33.455   0.961
69554W        W41869  38.991  32.899  14.933
69555W        W41870  41.003  34.032  14.339
69556W        W41871   9.882  42.501   4.735
69557W        W41872  41.961  44.487   1.739
69558W        W41873  15.629  37.953   2.899
69559W        W41874  21.106   7.266  12.025
69560W        W41875  21.596   7.410  13.890
69561W        W41876  22.503  20.083  11.915
69562W        W41877  41.922  41.863   0.738
69563W        W41878  13.651  38.885   4.834
69564W        W41879  31.135  13.789  13.506
69565W        W41880  41.325  13.658   3.746
69566W        W41881  42.957  23.571   1.707
69567W        W41882  17.066   3.954   4.350
69568W        W41883  21.634  39.878  13.328
69569W        W41884  42.806  36.430  13.338
69570W        W41885  11.761  31.577  13.867
69571W        W41886  17.617  36.428   4.147
69572W        W41887  22.069  30.590  12.955
69573W        W41888  32.526  15.611  11.593
69574W        W41889  38.443   0.385   0.946
69575W        W41890  20.088   1.929  11.392
69576W        W41891  29.170   3.221   3.856
69577W        W41892  42.003  28.058   4.762
69578W        W41893  20.619   2.776  13.916
69579W        W41894  14.225   2.750  11.023
69580W        W41895  25.212  29.448  11.972
69581W        W41896  20.761  37.515   2.195
69582W        W41897  41.449  34.978   4.628
69583W        W41898  12.795   1.958  14.305
69584W        W41899  13.750  34.960   1.900
69585W        W41900   1.420   0.442   1.245
69586W        W41901  20.572   7.838   3.657
69587W        W41902  43.769  36.436  11.018
69588W        W41903  17.277   9.266  10.587
69589W        W41904   9.246  13.143   3.296
69590W        W41905  16.276  15.121  12.924
69591W        W41906   9.743  42.515   0.787
69592W        W41907   5.907  18.259  12.470
69593W        W41908  34.481  37.063   0.338
69594W        W41909  41.010  13.741   2.896
69595W        W41910   7.733  38.380  14.911
69596W        W41911  16.107  28.015  11.128
69597W        W41912  24.193  41.844  14.875
69598W        W41913   2.929  37.409  14.300
69599W        W41914  12.659  44.881  11.094
69600W        W41915  32.530   8.174   4.193
69601W        W41916   7.341   8.779   3.253
69602W        W41917  26.168  12.124   0.760
69603W        W41918  21.662   9.239  10.961
69604W        W41919  40.883  32.539   4.186
69605W        W41920  32.134  10.288   0.356
69606W        W41921   4.870  24.584   1.409
69607W        W41922  13.666  39.835  11.445
69608W        W41923  24.094  39.836   2.250
69609W        W41924  36.883  16.186   4.303
69610W        W41925  10.285  43.288  13.805
69611W        W41926  12.296  31.452   1.791
69612W        W41927  28.149  27.136   0.772
69613W        W41928   2.845   8.337   0.910
69614W        W41929  14.619   0.345  13.972
69615W        W41930  11.861  41.365   4.684
69616W        W41931   9.197  44.822  12.072
69617W        W41932  15.244  22.654  13.378
69618W        W41933  18.770  27.638  13.919
69619W        W41934  22.522   3.334   5.297
69620W        W41935  30.454  34.415  11.024
69621W        W41936  19.179   5.432  14.939
69622W        W41937  21.232   8.757  14.852
69623W        W41938   2.375  25.639  11.464
69624W        W41939  28.453  42.352  12.417
69625W        W41940  23.505   7.752  14.291
69626W        W41941   6.829  34.047   0.416
69627W        W41942  36.009  39.939  11.577
69628W        W41943  18.725  33.541  13.482
69629W        W41944  27.184  17.178  10.542
69630W        W41945  36.969  12.669   2.221
69631W        W41946   7.354   2.821  10.894
69632W        W41947   1.829  41.378   3.682
69633W        W41948  13.241  28.562   0.307
69634W        W41949  13.261  35.400   4.207
69635W        W41950  19.743  13.811   1.303
69636W        W41951  17.245  18.259   1.906
69637W        W41952  34.889   2.876   3.828
69638W        W41953  18.783  27.670  10.970
69639W        W41954  20.189  36.362  11.612
69640W        W41955  34.942  34.017   2.870
69641W        W41956   7.191  41.449  12.878
69642W        W41957   2.753  35.398  10.408
69643W        W41958  32.952   4.821  11.426
69644W        W41959  40.410  11.128  12.350
69645W        W41960  15.138   5.824   1.282
69646W        W41961   3.739  33.434   2.208
69647W        W41962  41.795  25.570  14.013
69648W        W41963  24.073  18.756  14.989
69649W        W41964  17.241  25.996  13.342
69650W        W41965  17.746   1.767  10.931
69651W        W41966  10.655  42.480   4.711
69652W        W41967  34.056   0.759  11.520
69653W        W41968  37.499  37.074  13.998
69654W        W41969   3.406  43.890  13.793
69655W        W41970  41.865  41.848   3.678
69656W        W41971  41.929  29.960   4.745
69657W        W41972  16.192  38.877  12.566
69658W        W41973  21.559  10.319  12.343
69659W        W41974  10.801   8.173   4.340
69660W        W41975  43.019  16.103  14.278
69661W        W41976  44.003  18.652  13.353
69662W        W41977   7.773  22.665   2.742
69663W        W41978  32.935   3.906   2.694
69664W        W41979   6.738  39.449   2.820
69665W        W41980  21.730  36.397   2.821
69666W        W41981  15.808  29.603  13.464
69667W        W41982  14.729   3.862  13.012
69668W        W41983  38.367  25.553   3.348
69669W        W41984  22.095  44.288   4.331
69670W        W41985  30.606  33.122   0.922
69671W        W41986  30.495  13.796  14.778
69672W        W41987  16.311  16.207  11.522
69673W        W41988  12.265  26.623   1.760
69674W        W41989  25.616   0.468   2.796
69675W        W41990  42.458  29.019  14.916
69676W        W41991  21.744   5.733  12.825
69677W        W41992  24.552  16.802  12.985
69678W        W41993   2.918  44.968   0.936
69679W        W41994   1.764  22.007  13.930
69680W        W41995  18.147  34.026  13.402
69681W        W41996  14.302  29.658  12.565
69682W        W41997   3.854  13.192   4.193
69683W        W41998   3.249  33.015   0.922
69684W        W41999   8.747   4.934  14.335
69685W        W42000  22.016  20.085  11.857
69686W        W42001  11.167  13.639  10.512
69687W        W42002   5.828   2.395  12.949
69688W        W42003  15.204  33.489  14.482
69689W        W42004  17.593  40.045   3.160
69690W        W42005  41.881  12.167  13.893
69691W        W42006  21.244  41.000   0.252
69692W        W42007   3.268  36.394  12.004
69693W        W42008  25.110   0.369  12.909
69694W        W42009  39.494  11.634  10.529
69695W        W42010  24.708  36.513   2.795
69696W        W42011   2.863  19.227  14.402
69697W        W42012  36.574   5.261   3.223
69698W        W42013  38.399  37.980  12.054
69699W        W42014   5.391  21.653  10.439
69700W        W42015  32.918  20.752  10.607
69701W        W42016  27.194  13.127  12.504
69702W        W42017  17.155  11.802  13.428
69703W        W42018  10.638  36.031   2.672
69704W        W42019  26.624  23.580  13.810
69705W        W42020   1.245  31.090  11.467
69706W        W42021  39.001  21.692  10.461
69707W        W42022   1.898  13.713   2.819
69708W        W42023  30.470  34.004   4.231
69709W        W42024  31.136  18.696  11.127
69710W        W42025  18.105  37.574   1.835
69711W        W42026  16.173  40.939   3.789
69712W        W42027  11.732  29.140  12.871
69713W        W42028   1.819  33.876   0.458
69714W        W42029  28.445  10.760  12.053
69715W        W42030  16.642  12.330  14.474
69716W        W42031  43.944  17.252   2.190
69717W        W42032   4.434  41.487   0.309
69718W        W42033  15.297  43.462   1.320
69719W        W42034  41.410  28.125   0.482
69720W        W42035  38.375  41.902   2.259
69721W        W42036  15.150  16.138   4.603
69722W        W42037   6.273  37.941  13.936
69723W        W42038   2.413  34.955   1.878
69724W        W42039  16.809  17.091   4.710
69725W        W42040  27.628  23.216   2.252
69726W        W42041  12.158  33.080   1.249
69727W        W42042  22.101  29.987  11.562
69728W        W42043  42.859  16.725  13.002
69729W        W42044  25.998   1.483   3.285
69730W        W42045   6.213  34.025   4.722
69731W        W42046  12.735  23.021  12.428
69732W        W42047  43.281  27.557   4.121
69733W        W42048  43.286  29.036  14.302
69734W        W42049  29.486   0.856  11.992
69735W        W42050  12.829   3.867  10.909
69736W        W42051  32.628   4.719   2.876
69737W        W42052  18.645  18.568  14.391
69738W        W42053  23.497  25.124  13.397
69739W        W42054  10.302  23.033   2.802
69740W        W42055  38.485   5.769   2.373
69741W        W42056  35.469  11.812  12.969
69742W        W42057   2.342  30.648  14.855
69743W        W42058   0.780  32.923   1.850
69744W        W42059  27.077  30.646  13.962
69745W        W42060   1.473   0.963  12.993
69746W        W42061  12.836   6.241   4.787
69747W        W42062  10.367   9.320   0.849
69748W        W42063   4.223  32.458  10.466
69749W        W42064  18.197  37.357   0.960
69750W        W42065  21.520   6.234  11.040
69751W        W42066  43.316  37.985  12.908
69752W        W42067  21.196  12.247  12.455
69753W        W42068   6.297   1.480  13.879
69754W        W42069   5.351  34.023   3.708
69755W        W42070  35.430  41.520  11.383
69756W        W42071   1.254   2.472  13.041
69757W        W42072   5.768  21.569   4.188
69758W        W42073   5.195  25.650   1.448
69759W        W42074   6.737  44.465   2.809
69760W        W42075  32.624  10.835   2.803
69761W        W42076  35.081  28.975  10.596
69762W        W42077  38.361  10.355  14.828
69763W        W42078  30.559  28.502   2.807
69764W        W42079  28.510  43.481   0.756
69765W        W42080  29.004  18.578  12.980
69766W        W42081  22.597  12.767  13.985
69767W        W42082  33.624  25.658  12.433
69768W        W42083  15.632  18.615   3.764
69769W        W42084   3.884  19.619   3.161
69770W        W42085  35.106  18.706   2.666
69771W        W42086  19.725  43.925  11.980
69772W        W42087  11.867  26.670   5.175
69773W        W42088  14.154  15.269  14.032
69774W        W42089  26.595  36.490   4.215
69775W        W42090   4.782  12.620  14.848
69776W        W42091  37.539  39.978   4.318
69777W        W42092  27.463  31.559   0.375
69778W        W42093  17.114  35.096  11.031
69779W        W42094  36.961  16.315   2.890
69780W        W42095  25.207  18.198   1.736
69781W        W42096   1.825  37.866   2.262
69782W        W42097   4.255  41.844   0.942
69783W        W42098  42.281  18.624   2.747
69784W        W42099  44.391  34.040  10.938
69785W        W42100   3.725  23.594  13.989
69786W        W42101  32.988   0.989   1.364
69787W        W42102  25.083  14.804   0.729
69788W        W42103  16.278  27.940  13.362
69789W        W42104  40.039  30.013   3.773
69790W        W42105  27.128  30.081  12.552
69791W        W42106  17.706  19.282  14.911
69792W        W42107  21.251   5.797   3.736
69793W        W42108  14.793  23.492   4.745
69794W        W42109   4.210  44.941   3.749
69795W        W42110  42.908  30.500  11.413
69796W        W42111  33.626   7.275   2.756
69797W        W42112  25.682  20.145   5.757
69798W        W42113  21.258   5.906   0.442
69799W        W42114  16.197  21.644  14.920
69800W        W42115   2.469  17.736  11.001
69801W        W42116  28.486   6.295   3.774
69802W        W42117   9.269  13.173   0.887
69803W        W42118  23.194   2.878   2.323
69804W        W42119  42.841   8.735   1.835
69805W        W42120  30.414  41.947   2.384
69806W        W42121  27.653  35.959   1.407
69807W        W42122  37.969  18.260   2.377
69808W        W42123  33.109  34.405   0.452
69809W        W42124  41.945   6.345   5.254
69810W        W42125  37.046  29.961  11.392
69811W        W42126  16.225  20.572  12.872
69812W        W42127  34.871  10.827  13.438
69813W        W42128  35.453  30.946  10.942
69814W        W42129  36.571  34.377  13.940
69815W        W42130   1.810  19.236   3.206
69816W        W42131  26.193  20.178  10.890
69817W        W42132  20.244   0.874   3.650
69818W        W42133  10.300  27.995  13.973
69819W        W42134  33.099  39.930   3.223
69820W        W42135  11.251  29.462   0.330
69821W        W42136  41.978  18.237   4.701
69822W        W42137   9.798  22.126  13.367
69823W        W42138   2.383   8.278   3.260
69824W        W42139  13.672   6.920  14.493
69825W        W42140  21.092  18.219  14.776
69826W        W42141  27.026  12.682   4.191
69827W        W42142  15.175   4.393  13.926
69828W        W42143   5.411  38.413  14.026
69829W        W42144  25.159  10.244   4.824
69830W        W42145   3.791  23.039   2.301
69831W        W42146  22.185   8.891   1.923
69832W        W42147   2.803   2.430   2.406
69833W        W42148  34.447  12.149  14.790
69834W        W42149  31.517  16.674   4.204
69835W        W42150  32.390   4.330   0.772
69836W        W42151  15.794  30.483  11.055
69837W        W42152   0.957  44.930   2.675
69838W        W42153  24.036   9.740  10.539
69839W        W42154  44.393  22.741   4.690
69840W        W42155  17.085  21.235   3.321
69841W        W42156  12.122   3.260   0.288
69842W        W42157   7.241  20.740   3.171
69843W        W42158  41.298   5.928   1.876
69844W        W42159   3.245  21.192  10.548
69845W        W42160  11.803  19.114  11.997
69846W        W42161  26.693  41.437   2.792
69847W        W42162  38.512  24.995  13.793
69848W        W42163  25.547  14.659  11.611
69849W        W42164  37.076  19.727   1.841
69850W        W42165  29.640  10.173   0.964
69851W        W42166  36.503   3.419   2.295
69852W        W42167  32.059  21.570  12.892
69853W        W42168  13.742  27.092  13.957
69854W        W42169  34.588  27.082   3.351
69855W        W42170   1.299   6.406   4.344
69856W        W42171  14.683   9.354  12.397
69857W        W42172  27.998  39.430   2.200
69858W        W42173  28.499  44.391   1.932
69859W        W42174  39.955  42.867  11.005
69860W        W42175  30.643  33.570  13.520
69861W        W42176  22.226   0.767   2.345
69862W        W42177  18.598  38.381  11.117
69863W        W42178  10.690  18.287  10.141
69864W        W42179   3.240  31.075  10.895
69865W        W42180  20.087  44.759   2.342
69866W        W42181   5.276  40.490  10.506
69867W        W42182  31.517   0.868  10.964
69868W        W42183  39.880   2.891  10.625
69869W        W42184  25.070  28.082  11.092
69870W        W42185  17.275  38.405   3.738
69871W        W42186   1.876  43.847   4.334
69872W        W42187   2.783  32.015   0.822
69873W        W42188  30.087  20.074   3.805
69874W        W42189  16.680   0.361  14.384
69875W        W42190  31.051   6.253  11.918
69876W        W42191  12.805  24.041  11.524
69877W        W42192   3.391  35.479   4.816
69878W        W42193  20.760  23.046  13.019
69879W        W42194  23.707  24.999  13.978
69880W        W42195  37.889  42.960  11.560
69881W        W42196  34.064  33.538   0.902
69882W        W42197   0.761   9.787   1.403
69883W        W42198  23.725  13.652  14.363
69884W        W42199  30.544  35.473  12.896
69885W        W42200  44.480   9.370  10.980
69886W        W42201   2.273  23.212  12.414
69887W        W42202  33.125  28.961  10.925
69888W        W42203  31.488   9.236   2.342
69889W        W42204   1.970  18.682  11.431
69890W        W42205   7.228  21.089  12.856
69891W        W42206   0.316  10.786  13.865
69892W        W42207  25.051  12.237  13.036
69893W        W42208  21.118   1.293   1.841
69894W        W42209  26.638  32.920   4.735
69895W        W42210  39.484  40.464  12.887
69896W        W42211   3.299  10.374  11.005
69897W        W42212  22.185  22.233  14.331
69898W        W42213  13.253  21.174  13.531
69899W        W42214  42.335   2.405  13.862
69900W        W42215  35.903   5.758  12.017
69901W        W42216  23.619  35.538  13.852
69902W        W42217  39.013  43.008   4.813
69903W        W42218  28.109  15.740   0.281
69904W        W42219   4.221  41.803   3.341
69905W        W42220  16.706  44.258  10.957
69906W        W42221  38.335  37.342  10.907
69907W        W42222   2.318  19.232   4.149
69908W        W42223  36.495  43.510  14.393
69909W        W42224  38.430   9.326  11.951
69910W        W42225  35.420  18.257   4.624
69911W        W42226  42.444   0.483   0.813
69912W        W42227  16.650  20.719   0.467
69913W        W42228  25.967  27.087  10.999
69914W        W42229  26.533  11.717  13.039
69915W        W42230   5.350  10.157   3.325
69916W        W42231  41.819  21.532  14.931
69917W        W42232  11.654  38.040   2.352
69918W        W42233  41.940  35.498  12.486
69919W        W42234   4.415  25.045  12.525
69920W        W42235  33.051  35.975  14.335
69921W        W42236  43.390  34.894  10.046
69922W        W42237   2.345  38.940  12.969
69923W        W42238  19.741  16.201  13.805
69924W        W42239   6.235  30.160   0.732
69925W        W42240  32.472  26.957   2.870
69926W        W42241  27.605  13.625   1.450
69927W        W42242  29.101  40.452  13.023
69928W        W42243  10.697   2.421  12.044
69929W        W42244  10.278  41.817  12.451
69930W        W42245  33.504  32.948   0.806
69931W        W42246  14.690  30.439   3.821
69932W        W42247   8.893  14.711  11.406
69933W        W42248  38.875  40.540   4.771
69934W        W42249   6.783  28.019  11.405
69935W        W42250  16.679   1.753   1.743
69936W        W42251  24.687  32.631   2.376
69937W        W42252  30.549  14.635   1.703
69938W        W42253  29.979  22.093   0.923
69939W        W42254  26.088  24.646  12.535
69940W        W42255   2.911   3.256  13.034
69941W        W42256  13.309  28.553  10.907
69942W        W42257  14.664  26.592   4.696
69943W        W42258   2.407  44.427   0.347
69944W        W42259  21.572  40.377   4.334
69945W        W42260  32.981  30.650   4.746
69946W        W42261  34.896  33.123   4.644
69947W        W42262  39.065  10.347   2.205
69948W        W42263  25.507  27.171   4.774
69949W        W42264   1.837  23.007  11.466
69950W        W42265  29.633   0.328  10.055
69951W        W42266   2.466   2.846   1.269
69952W        W42267  32.998  12.319  11.561
69953W        W42268  23.691  36.521   4.225
69954W        W42269  22.111  10.275  14.891
69955W        W42270   0.910  34.408  11.473
69956W        W42271  23.062  15.757  12.911
69957W        W42272  18.067   6.416   1.840
69958W        W42273  41.921  34.521   1.795
69959W        W42274  25.197  18.646  13.333
69960W        W42275  13.232  25.703  12.410
69961W        W42276  12.202  25.479  13.456
69962W        W42277  25.609  43.335  11.449
69963W        W42278  37.951  36.034   1.821
69964W        W42279   3.247   3.368  11.925
69965W        W42280  26.568   7.910  10.158
69966W        W42281   1.307  12.310   1.913
69967W        W42282  29.635  41.397   0.432
69968W        W42283  40.338  35.054  14.489
69969W        W42284  22.221  25.218  13.794
69970W        W42285  31.022  29.975   4.816
69971W        W42286  33.938  32.429  13.483
69972W        W42287  33.975  23.577   0.937
69973W        W42288  39.956  20.634  11.996
69974W        W42289  18.780  24.092  14.971
69975W        W42290   8.406  19.736   3.853
69976W        W42291  11.348  44.776  14.988
69977W        W42292  39.964  33.506  12.576
69978W        W42293  34.005  30.618   2.757
69979W        W42294  37.424   1.302   0.309
69980W        W42295   5.416  22.660  13.057
69981W        W42296  28.534   2.831   3.162
69982W        W42297   5.204   7.755  11.002
69983W        W42298  29.654   9.740   2.328
69984W        W42299   0.784  40.026  10.588
69985W        W42300  24.212   2.343  11.919
69986W        W42301  11.350  36.093  13.385
69987W        W42302  32.984   5.763   4.786
69988W        W42303  20.065  26.597  10.155
69989W        W42304  29.987  20.656  13.526
69990W        W42305  44.498   6.293   4.622
69991W        W42306  26.115  32.528   4.317
69992W        W42307  22.584  14.211  10.090
69993W        W42308  26.672  23.009   1.291
69994W        W42309  18.687  23.665  11.489
69995W        W42310  23.085  10.647   4.659
69996W        W42311   0.819  39.392   1.796
69997W        W42312  37.396  28.625   0.418
69998W        W42313  35.988  32.408  13.046
69999W        W42314  18.183  26.070   0.379
70000W        W42315  33.911  28.014  12.496
70001W        W42316  22.157   2.765  10.513
70002W        W42317  18.780  30.923  12.419
70003W        W42318   2.303  36.859  12.367
70004W        W42319  14.678  37.409   5.201
70005W        W42320  18.215  44.392   0.478
70006W        W42321  35.534  35.032   0.375
70007W        W42322   6.823  20.545  13.327
70008W        W42323  18.262  14.159   0.755
70009W        W42324  36.095  16.742  12.470
70010W        W42325  18.615   3.343  12.966
70011W        W42326   0.910  22.063  10.503
70012W        W42327  19.135   8.880  13.844
70013W        W42328  11.283  11.210   1.935
70014W        W42329  16.111  29.126   4.724
70015W        W42330  30.451  43.918   1.356
70016W        W42331  12.234   7.739   2.330
70017W        W42332   8.756  32.563  10.541
70018W        W42333  34.899  38.070   2.320
70019W        W42334  14.304   7.310   4.278
70020W        W42335   0.861  31.140   1.814
70021W        W42336   2.952  30.457   4.247
70022W        W42337  30.592  21.051  11.865
70023W        W42338  28.590   4.790   5.293
70024W        W42339  16.675  32.992   2.732
70025W        W42340   6.863  30.603  11.519
70026W        W42341  24.010  38.468  12.500
70027W        W42342   5.748   8.714  10.563
70028W        W42343   2.805   7.173   0.405
70029W        W42344   7.830  35.437  12.454
70030W        W42345  38.413   0.862   1.280
70031W        W42346  31.477   7.359   3.869
70032W        W42347  43.455  12.126  11.394
70033W        W42348  13.343  26.558  14.470
70034W        W42349   3.712   7.667  14.368
70035W        W42350  44.279   7.334  12.373
70036W        W42351  29.949  12.741   1.831
70037W        W42352  27.512  24.223  13.968
70038W        W42353   5.280   9.279   0.358
70039W        W42354  44.303  13.790  13.856
70040W        W42355  43.820  43.971  13.926
70041W        W42356   1.294  38.438  11.575
70042W        W42357  16.130  19.074   4.677
70043W        W42358  26.644  26.022  13.535
70044W        W42359  24.555  32.593   3.207
70045W        W42360  20.224   0.414  14.326
70046W        W42361  39.870  33.046  12.031
70047W        W42362   9.162   8.768   3.857
70048W        W42363  19.091   9.887   3.238
70049W        W42364  11.187  15.139  11.593
70050W        W42365   8.719  43.432  14.879
70051W        W42366  33.608  14.748   0.340
70052W        W42367   8.749   8.225  11.963
70053W        W42368   7.286  40.505   4.753
70054W        W42369  12.320  33.025  12.868
70055W        W42370  42.820  36.050  14.989
70056W        W42371  16.597   0.820   3.724
70057W        W42372  30.471   1.868   3.645
70058W        W42373   0.439  30.620   3.318
70059W        W42374  30.019  44.346  14.921
70060W        W42375  42.463  23.082   1.317
70061W        W42376   7.766  32.114   1.346
70062W        W42377  23.596   7.809   3.152
70063W        W42378   5.248  17.085  12.904
70064W        W42379  14.230  38.349  13.881
70065W        W42380  35.458  16.129   2.724
70066W        W42381  20.097  20.245  11.566
70067W        W42382  10.678  33.071   4.764
70068W        W42383  39.974   7.377   4.175
70069W        W42384   6.854  35.928  14.511
70070W        W42385  12.723  20.094   0.294
70071W        W42386  33.981   6.348   3.800
70072W        W42387  20.040   3.859   3.248
70073W        W42388  44.297  16.649  14.867
70074W        W42389   1.478   8.737  14.513
70075W        W42390  42.891  37.496   2.758
70076W        W42391  15.214  38.332  13.829
70077W        W42392   4.848  15.717   4.761
70078W        W42393  22.712  12.193   4.624
70079W        W42394  14.751   2.245  14.493
70080W        W42395  28.024  35.939  13.855
70081W        W42396  17.278  37.051   3.272
70082W        W42397  21.057  36.463  11.072
70083W        W42398   9.285  31.929  14.859
70084W        W42399   4.739   9.387  13.857
70085W        W42400  20.149  18.694  11.530
70086W        W42401   5.693  43.803  13.332
70087W        W42402   1.748  18.216  14.908
70088W        W42403   3.741  39.533  14.762
70089W        W42404  36.447  36.012   4.247
70090W        W42405  38.917   8.211  11.912
70091W        W42406  38.367  28.931  11.013
70092W        W42407  44.322  38.426   3.217
70093W        W42408   6.359  35.923   4.621
70094W        W42409  38.436  12.673   1.281
70095W        W42410   3.895  43.887   4.649
70096W        W42411  39.951   9.732  10.453
70097W        W42412  18.075   7.821   4.149
70098W        W42413   1.749  31.910   1.410
70099W        W42414  35.428  13.629  11.986
70100W        W42415  20.694  25.166   2.309
70101W        W42416   7.876   8.834   4.693
70102W        W42417   5.882   7.397  10.472
70103W        W42418  38.047  38.506   3.764
70104W        W42419  22.655  13.342  12.398
70105W        W42420  32.392  17.638  11.002
70106W        W42421  15.779  32.414   2.318
70107W        W42422  38.493  23.010  12.894
70108W        W42423  25.103   2.255   0.784
70109W        W42424  13.292  42.911   4.760
70110W        W42425  16.730  36.387  11.083
70111W        W42426  37.010  20.646  13.354
70112W        W42427  16.693  30.061   4.630
70113W        W42428  19.224  27.528   3.333
70114W        W42429   5.865  28.012  13.341
70115W        W42430  34.474  22.225   4.813
70116W        W42431  30.625  38.848   3.781
70117W        W42432  15.229  34.096  14.399
70118W        W42433  34.001  19.142  13.432
70119W        W42434  40.798   3.733  13.878
70120W        W42435  10.201  33.965   1.820
70121W        W42436  37.475  31.405   0.373
70122W        W42437  41.001  22.637   1.701
70123W        W42438  34.864  24.725  13.323
70124W        W42439  27.604  30.070   1.376
70125W        W42440   5.398  41.913  14.854
70126W        W42441  31.496  13.631   1.694
70127W        W42442   2.415  32.088  10.150
70128W        W42443  30.048  15.712  11.543
70129W        W42444  11.803  16.684  11.104
70130W        W42445  25.014  31.123   3.830
70131W        W42446  26.688  26.558  10.415
70132W        W42447  18.152  41.412  13.442
70133W        W42448  10.313  12.356   3.635
70134W        W42449   5.366   0.394  12.946
70135W        W42450  33.475  42.887  11.059
70136W        W42451   7.833   4.793   4.824
70137W        W42452  19.617  36.530   2.674
70138W        W42453  32.927   2.929  14.888
70139W        W42454  21.129  24.635  13.384
70140W        W42455  41.014  11.191   2.898
70141W        W42456  39.341  18.703   0.832
70142W        W42457  21.244  11.851  14.822
70143W        W42458  28.172  30.934   9.929
70144W        W42459  34.593  15.266  13.947
70145W        W42460  44.274  32.421   4.794
70146W        W42461  34.028   1.879  11.009
70147W        W42462  35.078  13.797  12.005
70148W        W42463   7.715  32.137  13.018
70149W        W42464  15.239  34.933  14.003
70150W        W42465   2.365  21.245  12.388
70151W        W42466  37.029  31.451  11.054
70152W        W42467   5.197  24.546  11.054
70153W        W42468  29.530  13.633  10.979
70154W        W42469  29.996  29.171   0.257
70155W        W42470  14.714  26.150  11.528
70156W        W42471  41.836  15.170   2.687
70157W        W42472  42.299  38.422   2.273
70158W        W42473  14.257  39.906  11.005
70159W        W42474   0.431  17.068  14.432
70160W        W42475   0.491   4.277  12.551
70161W        W42476   7.783  18.161  11.594
70162W        W42477  16.769  31.510  14.016
70163W        W42478  37.507   8.172  12.397
70164W        W42479  39.920   1.423  11.436
70165W        W42480  18.144  19.691   0.321
70166W        W42481  17.152  27.499   1.441
70167W        W42482   3.921  28.077  10.410
70168W        W42483  43.428  41.535   5.272
70169W        W42484  11.196  21.192   2.772
70170W        W42485  33.013   6.682  14.022
70171W        W42486   7.331  16.575  13.986
70172W        W42487  24.620  16.747   3.770
70173W        W42488  10.654  41.917  14.313
70174W        W42489  36.586   8.703   1.406
70175W        W42490  40.380  43.811   0.767
70176W        W42491   0.912   5.861  11.570
70177W        W42492  26.104  39.476   4.248
70178W        W42493  37.567  25.155   0.767
70179W        W42494  33.497  32.995   1.345
70180W        W42495  22.187  41.798   3.201
70181W        W42496  39.451   6.847   2.761
70182W        W42497   4.272   2.761  13.048
70183W        W42498  25.592  14.769   3.289
70184W        W42499   5.299  22.180   2.287
70185W        W42500  18.647   1.282   2.263
70186W        W42501  10.695  30.975  11.528
70187W        W42502  16.123  34.097  14.864
70188W        W42503  38.061   3.326   5.233
70189W        W42504   3.216  27.610   2.288
70190W        W42505  44.417  34.569   0.266
70191W        W42506  44.420  33.577   0.849
70192W        W42507   2.803  22.586  13.409
70193W        W42508  41.001  23.172   0.330
70194W        W42509  43.791  26.989   2.870
70195W        W42510  16.085   6.318   0.793
70196W        W42511   0.927   0.284  11.461
70197W        W42512  18.130   6.802  13.894
70198W        W42513  19.753   6.295   1.903
70199W        W42514  12.197  37.048  11.487
70200W        W42515  13.304  18.573  10.406
70201W        W42516  26.053  18.160  14.878
70202W        W42517  15.262  16.151  10.529
70203W        W42518  16.241   2.787   1.930
70204W        W42519  13.600  39.855   3.704
70205W        W42520  15.151  15.754   0.797
70206W        W42521   3.739  18.243  11.995
70207W        W42522   6.890  28.034   2.271
70208W        W42523  33.025  28.448  12.370
70209W        W42524  20.545  20.216   0.412
70210W        W42525  26.952  12.187  11.865
70211W        W42526   7.173  17.075  14.829
70212W        W42527   4.440  25.566  11.874
70213W        W42528  40.015  18.281   2.743
70214W        W42529  24.158  26.552   2.743
70215W        W42530  24.991   6.798   0.439
70216W        W42531   1.447  13.130  13.837
70217W        W42532  36.355   4.893  14.897
70218W        W42533   4.845  22.694  12.886
70219W        W42534  19.677   4.861  14.813
70220W        W42535  40.025  39.030  12.361
70221W        W42536  10.772  31.527  13.402
70222W        W42537  23.576   8.663  13.836
70223W        W42538  25.145   0.862  11.536
70224W        W42539  39.858  11.127  11.059
70225W        W42540  17.071  13.340  12.427
70226W        W42541  43.352  38.397  10.464
70227W        W42542  12.201  43.436  11.115
70228W        W42543   4.926  18.648  12.382
70229W        W42544  39.845  22.631  11.016
70230W        W42545  43.500  43.379   2.746
70231W        W42546  38.998  35.413   2.178
70232W        W42547  15.805  25.187   1.441
70233W        W42548  14.831  22.557  12.069
70234W        W42549  17.199  32.550   0.381
70235W        W42550  44.937  32.936  11.074
70236W        W42551  42.416  41.328   0.850
70237W        W42552  21.086  27.182  13.509
70238W        W42553  28.496  31.528   1.336
70239W        W42554  42.922  36.061  13.509
70240W        W42555  22.244  36.973   4.186
70241W        W42556  16.268  11.274   0.355
70242W        W42557  34.400  17.576  10.945
70243W        W42558  15.293   4.944  12.534
70244W        W42559  42.983  15.138  14.500
70245W        W42560  34.510  30.493  11.048
70246W        W42561  22.694  13.288  13.417
70247W        W42562  27.446  18.083   3.307
70248W        W42563  41.312  31.944  14.365
70249W        W42564  41.512  43.942  10.541
70250W        W42565  38.047  28.605   1.322
70251W        W42566  37.520  34.081   0.810
70252W        W42567  24.481   4.853  13.399
70253W        W42568  43.996  17.778   4.624
70254W        W42569  24.606  16.655   1.304
70255W        W42570   7.286   8.405  12.949
70256W        W42571  34.980  28.026  14.411
70257W        W42572  27.554  37.053  13.026
70258W        W42573  12.343  43.422   2.834
70259W        W42574  25.629  21.170   4.836
70260W        W42575  42.919   1.774   3.191
70261W        W42576  19.051  12.760  12.868
70262W        W42577  15.706  30.154  12.887
70263W        W42578  23.178  32.104   1.360
70264W        W42579  41.806  34.546  14.887
70265W        W42580  15.203  16.742   2.818
70266W        W42581  33.028  16.795  11.867
70267W        W42582  37.463  18.597   5.314
70268W        W42583  23.120  15.650  11.577
70269W        W42584  40.416  33.908  13.449
70270W        W42585  17.666   0.276  10.938
70271W        W42586  22.602  27.447  13.428
70272W        W42587  35.858  37.992   3.327
70273W        W42588  41.948  23.708  10.024
70274W        W42589  33.945  35.864   2.724
70275W        W42590  23.680  39.998  12.369
70276W        W42591  31.917  12.199   4.730
70277W        W42592   1.803  23.153   1.805
70278W        W42593  22.077   6.843   4.768
70279W        W42594   6.211  32.011   5.217
70280W        W42595  13.322  27.688  11.109
70281W        W42596  39.484  43.004  11.907
70282W        W42597  34.042  11.212   2.699
70283W        W42598  40.316  26.983   0.929
70284W        W42599  43.496  23.187   1.412
70285W        W42600  20.234  19.565  11.394
70286W        W42601   3.918  11.183  10.414
70287W        W42602   2.362  35.913   9.568
70288W        W42603  44.838  39.969  11.083
70289W        W42604  22.712  33.086   3.823
70290W        W42605  13.341  29.648  11.949
70291W        W42606  39.425   3.454   0.846
70292W        W42607  23.181  13.606   4.235
70293W        W42608   1.437  26.610  14.848
70294W        W42609  36.533  42.466  10.449
70295W        W42610  41.972  11.132   4.693
70296W        W42611  29.620  32.460   1.785
70297W        W42612  28.572  21.041  13.816
70298W        W42613   7.318   3.358   0.780
70299W        W42614  21.055  28.961   2.199
70300W        W42615  26.493  15.095   4.627
70301W        W42616   4.775   3.278   4.350
70302W        W42617   6.689   5.812  12.488
70303W        W42618   4.900  16.663   4.728
70304W        W42619  21.564  11.640   0.475
70305W        W42620  21.539  44.384  11.565
70306W        W42621  13.784   3.458  12.968
70307W        W42622  24.050   8.306   4.786
70308W        W42623  41.386  26.500  12.397
70309W        W42624  29.575  16.248   0.332
70310W        W42625   3.725   9.840   1.816
70311W        W42626   7.365  36.474  12.507
70312W        W42627  33.997   3.920   3.368
70313W        W42628  23.996   5.797  11.402
70314W        W42629  18.572  24.078  13.498
70315W        W42630  42.831  13.808  12.869
70316W        W42631  28.006   1.448  12.021
70317W        W42632  11.723   7.233  14.462
70318W        W42633   9.889   8.381  12.476
70319W        W42634   8.324  33.024   0.279
70320W        W42635  37.572  35.865   0.781
70321W        W42636  21.690   1.973   3.161
70322W        W42637   3.442  24.974  12.516
70323W        W42638  24.056  21.750  14.855
70324W        W42639  40.818  13.742  13.434
70325W        W42640  36.962  25.163  12.859
70326W        W42641  38.922   3.383   2.222
70327W        W42642  18.571  27.163   0.913
70328W        W42643  18.240  36.006  10.449
70329W        W42644   1.854  41.426   3.228
70330W        W42645  22.207  32.521  14.951
70331W        W42646   4.393  13.133  14.458
70332W        W42647  40.901   9.164   4.782
70333W        W42648  38.034  17.075  11.408
70334W        W42649  26.585  32.465  12.488
70335W        W42650  29.164  21.185  13.368
70336W        W42651  15.119  29.946  10.045
70337W        W42652  29.064   9.702   0.813
70338W        W42653  26.170  19.584  14.923
70339W        W42654   5.730   8.680  12.384
70340W        W42655  38.423  41.910  10.547
70341W        W42656  19.556  14.815   4.139
70342W        W42657  14.706  26.173  14.874
70343W        W42658  33.109  35.050   3.847
70344W        W42659  24.492  23.066   1.750
70345W        W42660  38.833  39.879  13.898
70346W        W42661  15.282   7.194   3.825
70347W        W42662  25.080  40.500   5.260
70348W        W42663  12.737  38.921   0.313
70349W        W42664  14.719  37.464   1.726
70350W        W42665  32.557  39.861  10.531
70351W        W42666  34.864  11.823  14.465
70352W        W42667   6.677   3.718   2.800
70353W        W42668  18.572  14.275  13.886
70354W        W42669   2.762  30.490  11.422
70355W        W42670  26.503  41.400  10.934
70356W        W42671  22.142  33.427  11.936
70357W        W42672  31.583  22.622  10.940
70358W        W42673  28.490  25.572  14.018
70359W        W42674  24.603  16.121   2.414
70360W        W42675   7.699  16.314   1.709
70361W        W42676   5.928  15.670  13.949
70362W        W42677  21.054  11.762   2.389
70363W        W42678  33.462  16.785   0.472
70364W        W42679  33.081  23.229   1.694
70365W        W42680  27.678   8.720   3.675
70366W        W42681  33.001  27.109  11.019
70367W        W42682   4.390  15.752  11.033
70368W        W42683  15.709   1.958  11.957
70369W        W42684  17.186  23.053   9.998
70370W        W42685   9.712  22.553  11.957
70371W        W42686  21.722  22.235  14.945
70372W        W42687  40.310  43.410  11.490
70373W        W42688   9.205   0.868   0.755
70374W        W42689  39.902  43.831   4.179
70375W        W42690  30.587  19.764  11.901
70376W        W42691  13.138  42.522   1.375
70377W        W42692  36.038  18.106  10.552
70378W        W42693  43.874  36.902   1.267
70379W        W42694   0.840  30.634  10.080
70380W        W42695  16.105  32.020  11.993
70381W        W42696  44.401  29.000  13.838
70382W        W42697   6.305  17.218  11.895
70383W        W42698  42.460   7.862  12.066
70384W        W42699  12.795  13.677   2.824
70385W        W42700  13.666  29.935   2.315
70386W        W42701  11.254  36.580   0.345
70387W        W42702  43.830  29.048  11.924
70388W        W42703  12.781   8.314  13.927
70389W        W42704  13.130  12.818  14.979
70390W        W42705  32.512  41.908   0.469
70391W        W42706  14.248  17.202   4.819
70392W        W42707  39.892  31.982   2.415
70393W        W42708  30.063  24.709   2.269
70394W        W42709  22.167  13.181   0.894
70395W        W42710  44.999  14.153   1.345
70396W        W42711  17.176  25.084   0.733
70397W        W42712  14.192   0.988   1.358
70398W        W42713  17.607  33.058   0.777
70399W        W42714  16.261  39.528   5.756
70400W        W42715   3.332   1.877   0.856
70401W        W42716  44.354  31.897  12.980
70402W        W42717   8.859  17.690   0.919
70403W        W42718  12.702  27.463   3.745
70404W        W42719  34.056  41.853   2.374
70405W        W42720  31.418  44.486   2.821
70406W        W42721  40.320   1.423   4.222
70407W        W42722  31.083  22.249  14.367
70408W        W42723  24.210  27.510   3.737
70409W        W42724  35.856  14.672   1.420
70410W        W42725  28.606   2.290  14.514
70411W        W42726   3.731  16.124  12.415
70412W        W42727  24.188  11.200  14.995
70413W        W42728  23.592  39.466   4.181
70414W        W42729  11.858   0.747   3.315
70415W        W42730  37.578  11.347  13.064
70416W        W42731  31.923  16.158  12.989
70417W        W42732   5.779  29.030   0.879
70418W        W42733   8.758  16.589  12.073
70419W        W42734  11.724  33.509  10.965
70420W        W42735   3.786  32.959   2.278
70421W        W42736   1.250   2.406   3.674
70422W        W42737  37.042  35.998   2.862
70423W        W42738   1.855  15.763   1.713
70424W        W42739  29.995  19.072   0.797
70425W        W42740  22.553  23.512  11.928
70426W        W42741   5.242  19.535   5.095
70427W        W42742  29.528  19.629   1.766
70428W        W42743  24.176  39.478  14.991
70429W        W42744  10.180  33.511   3.862
70430W        W42745   8.344  14.106   4.744
70431W        W42746   4.320  39.984  10.587
70432W        W42747  41.982  28.665  12.078
70433W        W42748  12.220   5.233   2.838
70434W        W42749   7.286  25.667   5.172
70435W        W42750   9.677  21.559   4.141
70436W        W42751  33.431   0.337  13.435
70437W        W42752  13.325   3.895   2.307
70438W        W42753  12.856  25.511  11.453
70439W        W42754  14.834  23.193   3.247
70440W        W42755  19.609  12.341   4.737
70441W        W42756  42.311  10.306  13.037
70442W        W42757  18.727  12.621   0.805
70443W        W42758  15.745  41.011  13.033
70444W        W42759  43.383  18.784   2.663
70445W        W42760  24.523  19.222  12.389
70446W        W42761  29.593   9.216   0.864
70447W        W42762  33.877  34.607   3.245
70448W        W42763   7.394   3.233   3.677
70449W        W42764  37.449   1.877  13.433
70450W        W42765  39.480  26.164  11.103
70451W        W42766  42.455   9.256   2.845
70452W        W42767  22.222  24.568   1.231
70453W        W42768  21.733  26.985   2.396
70454W        W42769   9.242  36.052   4.788
70455W        W42770  16.656  23.113   1.298
70456W        W42771  20.031  28.586   1.772
70457W        W42772  22.674  27.598   3.331
70458W        W42773  44.475  19.735   3.637
70459W        W42774  30.575  42.022   0.321
70460W        W42775  16.209  14.718  11.920
70461W        W42776  20.153  16.198   1.293
70462W        W42777   2.741  16.319  12.475
70463W        W42778  26.199  13.644  13.489
70464W        W42779  24.161  43.473  13.490
70465W        W42780   8.337  43.386  11.505
70466W        W42781  35.429  15.107   0.745
70467W        W42782   9.299  17.185  13.872
70468W        W42783  37.410  32.933   4.711
70469W        W42784   5.426  33.086   3.652
70470W        W42785  37.572  30.521  11.426
70471W        W42786  36.022  37.057  13.911
70472W        W42787  21.725  32.016   4.267
70473W        W42788  16.244  28.627  11.552
70474W        W42789  12.797  16.093   2.225
70475W        W42790  35.588   0.452   4.618
70476W        W42791  11.182  18.701  11.020
70477W        W42792  28.619  40.305  10.459
70478W        W42793  14.634  29.965  13.322
70479W        W42794  22.581  27.590   4.322
70480W        W42795  25.702  28.574   0.308
70481W        W42796  15.190  43.310  12.889
70482W        W42797  13.845   0.493   3.640
70483W        W42798  21.210  12.636  11.902
70484W        W42799  20.073  12.779   4.242
70485W        W42800  41.343   7.416  13.807
70486W        W42801  10.753  20.205   0.764
70487W        W42802  22.736   6.247  11.001
70488W        W42803  43.797  38.888   3.287
70489W        W42804  20.062  40.436   2.726
70490W        W42805  35.484   6.230   4.807
70491W        W42806  34.560  19.685   2.722
70492W        W42807   3.292   5.852  11.599
70493W        W42808   2.945   2.730  13.863
70494W        W42809  37.947  12.286   1.210
70495W        W42810  37.469  43.373  10.937
70496W        W42811  24.169  18.185   3.312
70497W        W42812  35.982  12.751   4.294
70498W        W42813  31.464  44.001  12.476
70499W        W42814  13.208  33.977  11.547
70500W        W42815  33.428  20.128   0.741
70501W        W42816  26.126  18.780  12.548
70502W        W42817  44.932   2.807  13.468
70503W        W42818  40.412  31.913  11.560
70504W        W42819  40.932  22.119   2.760
70505W        W42820  20.572  33.924   0.398
70506W        W42821  11.222  28.599   4.760
70507W        W42822  33.469  39.868  10.026
70508W        W42823  40.822  33.519   2.843
70509W        W42824   3.828   0.829   3.214
70510W        W42825  15.086  20.737  11.949
70511W        W42826  20.701  33.955  11.576
70512W        W42827   6.318   1.743  12.510
70513W        W42828  19.719  10.697  11.596
70514W        W42829   3.915   6.706  14.025
70515W        W42830  26.596  22.606   1.874
70516W        W42831  18.157  32.578  12.363
70517W        W42832   3.410  14.118   3.685
70518W        W42833   9.724  13.131   0.810
70519W        W42834  19.755  25.072   1.440
70520W        W42835   1.861  23.698   1.880
70521W        W42836  21.225   0.432   0.770
70522W        W42837  34.603  27.619  12.009
70523W        W42838  24.583  28.604   0.882
70524W        W42839  21.109  42.832   3.236
70525W        W42840  17.780   8.864   3.696
70526W        W42841   7.755   2.902  11.038
70527W        W42842  39.523  36.448  13.926
70528W        W42843  13.675   3.254   3.358
70529W        W42844  14.136  27.074  13.867
70530W        W42845   0.759   6.270   1.694
70531W        W42846  22.538  18.732   3.291
70532W        W42847   6.381  38.011   4.190
70533W        W42848  16.206  16.284  13.510
70534W        W42849  27.049  15.589   3.759
70535W        W42850  37.849  44.956   4.221
70536W        W42851  44.871   0.271   4.634
70537W        W42852   0.289  27.127   0.802
70538W        W42853  21.022   0.987   1.387
70539W        W42854  41.043  10.807  12.407
70540W        W42855   1.791  34.867   0.306
70541W        W42856   4.327   1.821  10.536
70542W        W42857  25.218   7.319   4.751
70543W        W42858  29.465  36.876   2.849
70544W        W42859  32.885  25.129   2.872
70545W        W42860  34.909  30.643  10.917
70546W        W42861  26.052  16.663  10.449
70547W        W42862  43.307  21.197  12.894
70548W        W42863  14.791  20.558  10.995
70549W        W42864  36.020  22.597  11.074
70550W        W42865  39.004  18.638   1.910
70551W        W42866  42.967  26.568   3.286
70552W        W42867   5.334  29.442  11.922
70553W        W42868   9.333  19.616  13.470
70554W        W42869  32.109   8.751   2.237
70555W        W42870  34.119   1.944   4.737
70556W        W42871  21.746  29.067   0.908
70557W        W42872  37.907  14.201  14.990
70558W        W42873  26.155  38.848   1.387
70559W        W42874  36.537  43.467  14.887
70560W        W42875   7.200  22.547   3.811
70561W        W42876  10.648  38.006  14.368
70562W        W42877   9.712   8.750  12.428
70563W        W42878   3.215  42.519   0.400
70564W        W42879  17.083  36.084   1.704
70565W        W42880   2.393  19.638  13.891
70566W        W42881  19.055  32.624   4.781
70567W        W42882  35.475  30.153   2.254
70568W        W42883  25.708  22.600  14.405
70569W        W42884  27.996  37.907   0.831
70570W        W42885   3.862   2.377   1.732
70571W        W42886  22.096   8.737   2.687
70572W        W42887  17.237  26.492  10.489
70573W        W42888  24.094  23.106   1.935
70574W        W42889  29.496  31.151   0.851
70575W        W42890   5.374   0.823  11.442
70576W        W42891  17.191  19.574  11.871
70577W        W42892  43.510   9.190  11.931
70578W        W42893   0.927  40.312   1.400
70579W        W42894  25.477  25.061  11.489
70580W        W42895  34.379  36.918   1.747
70581W        W42896  36.550  25.477   2.811
70582W        W42897  25.194  10.737   4.292
70583W        W42898  31.497  17.068   4.275
70584W        W42899  32.437   0.927  12.830
70585W        W42900  25.507  42.492   2.227
70586W        W42901   4.920  35.050   0.329
70587W        W42902  20.643  28.146   4.654
70588W        W42903   0.879  11.862   5.267
70589W        W42904  13.767  16.255  12.549
70590W        W42905  17.750  10.635   4.277
70591W        W42906  44.269  26.048   3.271
70592W        W42907   8.764  31.074   3.146
70593W        W42908   7.266   6.855   3.320
70594W        W42909  33.381  14.815   3.214
70595W        W42910   0.443  18.782  11.604
70596W        W42911  16.763   0.458   3.354
70597W        W42912  43.931  10.148  11.106
70598W        W42913  41.389  32.954  13.993
70599W        W42914   5.330  22.559   1.794
70600W        W42915  42.014  39.895   4.233
70601W        W42916  19.215  29.658  13.474
70602W        W42917  35.405  14.672   4.742
70603W        W42918   7.751  26.658   4.129
70604W        W42919  26.064   9.876   1.345
70605W        W42920  14.336   5.858   4.272
70606W        W42921   9.825  29.529   4.354
70607W        W42922   3.319  28.099   0.324
70608W        W42923  28.998  11.340   1.730
70609W        W42924   7.697  28.043  14.842
70610W        W42925  15.147   5.394  13.063
70611W        W42926  33.033   8.295  13.353
70612W        W42927  24.589  32.086  10.045
70613W        W42928  44.380  20.084   4.149
70614W        W42929  17.152   5.307   0.428
70615W        W42930   4.368  40.028   0.472
70616W        W42931  37.411  38.996  10.488
70617W        W42932   5.865  38.851  12.846
70618W        W42933  37.556  36.843   1.238
70619W        W42934  28.525  36.018   1.719
70620W        W42935  41.982  36.412   2.333
70621W        W42936  20.729  13.300   0.280
70622W        W42937   4.708   4.404  14.361
70623W        W42938  41.995  41.961  13.459
70624W        W42939   7.379  29.153   0.377
70625W        W42940  42.863  24.722  14.862
70626W        W42941  28.040  39.962  14.380
70627W        W42942  10.776  33.576  11.020
70628W        W42943  21.740  12.199  13.853
70629W        W42944  39.030  40.498   1.715
70630W        W42945  20.556  16.284  11.373
70631W        W42946  32.116   1.264   0.936
70632W        W42947  17.134   8.311  12.939
70633W        W42948  36.514  17.745  11.032
70634W        W42949  27.541   5.216  10.064
70635W        W42950  15.725  42.880   2.224
70636W        W42951  31.906  12.790  11.077
70637W        W42952  12.221  42.862   1.325
70638W        W42953  38.936  25.216   1.833
70639W        W42954  44.921  37.471   0.778
70640W        W42955   5.900   1.952   0.914
70641W        W42956  36.080  33.621   0.253
70642W        W42957   3.910  13.115  12.509
70643W        W42958  23.190  44.776  12.519
70644W        W42959   0.864  24.021   3.859
70645W        W42960   3.345  31.909   9.947
70646W        W42961  16.803  35.394  12.917
70647W        W42962  22.061  11.143   2.324
70648W        W42963  29.491  10.675  14.421
70649W        W42964  12.691  28.976   3.385
70650W        W42965  28.122  26.569  13.048
70651W        W42966  43.422  25.021  11.987
70652W        W42967   0.880  14.712   1.449
70653W        W42968  37.575  32.964   2.874
70654W        W42969  25.641  36.568   4.155
70655W        W42970  30.921  44.953   0.958
70656W        W42971  24.516   2.791  11.512
70657W        W42972  12.619  29.075   2.892
70658W        W42973  43.326  35.920   3.638
70659W        W42974  44.355  34.974   0.752
70660W        W42975  33.995  19.267  11.949
70661W        W42976   8.189  23.227  11.430
70662W        W42977  42.939   3.933  10.619
70663W        W42978  23.068  23.136   3.695
70664W        W42979  33.384  28.013  14.936
70665W        W42980  26.461  18.736   4.219
70666W        W42981  34.082  21.147  14.372
70667W        W42982  13.612   6.804   3.869
70668W        W42983  33.956   1.958   0.450
70669W        W42984  11.257  40.386  14.305
70670W        W42985  36.091  14.284  13.922
70671W        W42986  12.707  15.328   2.312
70672W        W42987  24.034   6.867   2.212
70673W        W42988  15.101  35.105   0.812
70674W        W42989   3.945   9.361  12.392
70675W        W42990   6.188  21.229  11.121
70676W        W42991  12.355  32.464  11.052
70677W        W42992  44.989  35.441  13.398
70678W        W42993  12.251  14.157  12.833
70679W        W42994  13.119  18.581  13.496
70680W        W42995   9.381  27.687  10.513
70681W        W42996  26.995  38.035   3.386
70682W        W42997  42.802  40.977  14.401
70683W        W42998   6.411   6.181   5.221
70684W        W42999  26.155  20.555  11.502
70685W        W43000  13.744  41.333  13.428
70686W        W43001   7.723   6.296  14.384
70687W        W43002  28.632  15.126  12.943
70688W        W43003  24.142  21.074  11.600
70689W        W43004  26.632  37.402   4.160
70690W        W43005  26.583   6.214   1.794
70691W        W43006  22.240  35.874  14.513
70692W        W43007  36.397  12.618   3.325
70693W        W43008   8.263  23.992  13.013
70694W        W43009  12.342  19.154   2.228
70695W        W43010  32.399  29.992  13.468
70696W        W43011   4.738  14.204   4.611
70697W        W43012  15.771  33.098   1.731
70698W        W43013  26.641   8.350   1.711
70699W        W43014  20.088  29.939   0.835
70700W        W43015  43.408  21.106  11.522
70701W        W43016  32.635  23.115  11.606
70702W        W43017  23.994  17.087   3.330
70703W        W43018  35.063  39.362  14.419
70704W        W43019  39.980  36.409   2.257
70705W        W43020   1.900   3.886   1.336
70706W        W43021  14.336   8.273  12.832
70707W        W43022   3.268   7.229  14.964
70708W        W43023  21.177  21.585   3.689
70709W        W43024  23.094  22.063  12.048
70710W        W43025  38.837  30.153   4.332
70711W        W43026   0.966  23.022   3.373
70712W        W43027  38.387  10.230  11.060
70713W        W43028   0.296  36.956   9.556
70714W        W43029   6.200  44.938  14.854
70715W        W43030  14.657  11.804  13.457
70716W        W43031  40.367  14.125   4.792
70717W        W43032   3.261  43.858   1.775
70718W        W43033  32.416   4.882   0.420
70719W        W43034  24.217  11.674   0.478
70720W        W43035  21.172  19.682   0.414
70721W        W43036  24.013  11.189   4.150
70722W        W43037   5.933  12.318  10.561
70723W        W43038  34.428  13.297  13.887
70724W        W43039  12.722  12.321   1.373
70725W        W43040  25.164   5.252   4.259
70726W        W43041  10.825  35.388   2.848
70727W        W43042  21.042  12.794   3.635
70728W        W43043   7.739  37.041   0.822
70729W        W43044  43.891  32.049   2.400
70730W        W43045  16.114   4.329   2.357
70731W        W43046  33.596  28.935   3.769
70732W        W43047  12.191  28.458  14.021
70733W        W43048  37.945   5.373   2.310
70734W        W43049  43.383  26.071  11.583
70735W        W43050  43.966  27.172  13.395
70736W        W43051   2.780  38.838  11.435
70737W        W43052  25.703   4.319   5.623
70738W        W43053  31.014  29.441  12.914
70739W        W43054   7.743  44.361  14.457
70740W        W43055  29.001  17.090  14.835
70741W        W43056  14.722  18.688   1.287
70742W        W43057   7.246  30.158  14.780
70743W        W43058  15.130  12.286   3.693
70744W        W43059   8.674  29.465  13.339
70745W        W43060  13.758   3.444   1.848
70746W        W43061  16.722   0.972   4.259
70747W        W43062  33.979  34.382  10.587
70748W        W43063  25.196  18.062  13.541
70749W        W43064  29.448  13.729   0.287
70750W        W43065  10.810   9.238   2.854
70751W        W43066  18.763  32.421  10.985
70752W        W43067  15.236   8.200   3.725
70753W        W43068   3.848  33.025   3.166
70754W        W43069  41.479  24.143   3.763
70755W        W43070  21.205  28.541  14.291
70756W        W43071  37.042  21.757  10.597
70757W        W43072  22.739  12.794  11.083
70758W        W43073  29.963  28.457   3.239
70759W        W43074  23.057  14.235  11.381
70760W        W43075  20.575   1.885   3.796
70761W        W43076   0.438  20.171   3.350
70762W        W43077  37.020  22.048   2.680
70763W        W43078  20.051  16.185  13.374
70764W        W43079  12.717  14.611   4.285
70765W        W43080   2.885  15.612  12.065
70766W        W43081  28.935   8.830  14.879
70767W        W43082  18.765   7.301  13.360
70768W        W43083  21.715  14.793   2.883
70769W        W43084  44.840  10.672  11.128
70770W        W43085  12.231  19.244   9.998
70771W        W43086  41.814  20.140   1.755
70772W        W43087  37.564  22.738  10.574
70773W        W43088  15.626  31.949   4.175
70774W        W43089  14.158  26.610  14.801
70775W        W43090  32.890  41.430  13.004
70776W        W43091  43.835  19.540   2.825
70777W        W43092   3.348  31.918  14.428
70778W        W43093  16.237  13.229  13.449
70779W        W43094  40.846   9.254  11.576
70780W        W43095   7.365  17.141  12.973
70781W        W43096  13.608  42.509  11.931
70782W        W43097  36.975  25.189  11.578
70783W        W43098  35.561  34.002   2.900
70784W        W43099  27.495  23.539  11.465
70785W        W43100  39.452   1.257  10.410
70786W        W43101  18.069  44.438  12.875
70787W        W43102  26.566  31.094   0.956
70788W        W43103  29.027  32.994   5.578
70789W        W43104  37.965  32.890   1.802
70790W        W43105  34.910  16.266  14.422
70791W        W43106  39.431  17.228   0.902
70792W        W43107   9.326  44.493  11.516
70793W        W43108  33.121  43.810  10.597
70794W        W43109  44.392  43.351   3.704
70795W        W43110  17.701  39.060   3.715
70796W        W43111  17.702   0.473  12.477
70797W        W43112  36.591   4.906   1.916
70798W        W43113  23.689   7.290   2.403
70799W        W43114  32.896  23.674   1.447
70800W        W43115   7.298  42.449   2.891
70801W        W43116  21.731  13.298   4.333
70802W        W43117  29.085  21.519   4.630
70803W        W43118  39.503  35.033   4.315
70804W        W43119  30.554  18.606   3.776
70805W        W43120  15.180  15.109  14.363
70806W        W43121  32.613  42.449  13.024
70807W        W43122   7.371  15.220  12.858
70808W        W43123  20.176   5.285  14.382
70809W        W43124   1.972  42.933  11.029
70810W        W43125  37.975  14.261   2.371
70811W        W43126   7.720  29.136   3.313
70812W        W43127  34.927  10.826   2.371
70813W        W43128  12.795  34.101   4.120
70814W        W43129  31.047  31.135   4.639
70815W        W43130  30.136  43.927   4.267
70816W        W43131   1.329  28.113  13.976
70817W        W43132  37.962  10.702  12.908
70818W        W43133  33.441  42.408   4.733
70819W        W43134  20.272  22.513  10.143
70820W        W43135  20.168  28.636   2.738
70821W        W43136  21.095  14.646   3.228
70822W        W43137  19.642  32.936  11.899
70823W        W43138  36.872  18.079   2.734
70824W        W43139   3.769  10.709  13.472
70825W        W43140   2.886  20.263  12.524
70826W        W43141  14.644  35.591  12.849
70827W        W43142  18.702  26.200  13.450
70828W        W43143  35.899  37.854  13.480
70829W        W43144  29.616   5.847  10.483
70830W        W43145  27.947  23.516  14.346
70831W        W43146   0.360  31.143   2.381
70832W        W43147  42.380   5.752   0.408
70833W        W43148  24.556   0.916   0.810
70834W        W43149  33.589  36.876  14.958
70835W        W43150   8.221   2.253  12.454
70836W        W43151  34.870  17.664  10.463
70837W        W43152  16.694  19.723  13.530
70838W        W43153  33.577  24.661   2.245
70839W        W43154   1.261  42.013   4.681
70840W        W43155  37.044  43.016  14.414
70841W        W43156  33.529  28.654  10.561
70842W        W43157  20.719   2.841   1.270
70843W        W43158   5.795   3.757  10.900
70844W        W43159   2.780   9.720  12.960
70845W        W43160   8.173  10.235  12.546
70846W        W43161  41.475  24.689   0.733
70847W        W43162   1.323  35.379   3.268
70848W        W43163  22.539  27.477   2.895
70849W        W43164  28.675   5.699   1.856
70850W        W43165  42.330  39.836  11.579
70851W        W43166  10.159   5.807   1.769
70852W        W43167  20.270  36.000  10.997
70853W        W43168  19.216  43.977   2.814
70854W        W43169  33.890   9.172  13.546
70855W        W43170   7.907  42.932   1.372
70856W        W43171   0.900   3.341  11.529
70857W        W43172  11.794  35.978  12.030
70858W        W43173  42.004   7.235   4.248
70859W        W43174  44.932   9.654   4.322
70860W        W43175  35.949  37.420   3.149
70861W        W43176  36.357  25.969   1.785
70862W        W43177  21.659  15.215   3.345
70863W        W43178  31.523  19.763   1.754
70864W        W43179  28.649   6.248   1.926
70865W        W43180  18.230  28.933   1.895
70866W        W43181   5.834  37.545  14.288
70867W        W43182  44.855   8.900   2.402
70868W        W43183  11.196  24.193   0.770
70869W        W43184  39.060  17.640   4.277
70870W        W43185  19.174  40.832   1.379
70871W        W43186  17.698  27.959  10.984
70872W        W43187  11.699  34.421  11.901
70873W        W43188   0.762  28.072  14.440
70874W        W43189  29.950  34.473  13.044
70875W        W43190  12.705  41.867  12.540
70876W        W43191  41.295  17.595  11.379
70877W        W43192  37.954  44.411  10.635
70878W        W43193  13.769  20.172   0.270
70879W        W43194  36.475  21.180   2.225
70880W        W43195   0.295  21.156   0.364
70881W        W43196   7.171  42.355  10.965
70882W        W43197  30.604  29.066  12.969
70883W        W43198  44.277  39.419   1.377
70884W        W43199  44.892  44.438  11.934
70885W        W43200  25.097  19.726   4.659
70886W        W43201  18.273  31.011   1.752
70887W        W43202  10.857  41.364  13.813
70888W        W43203  23.090  19.716  11.521
70889W        W43204  25.663  33.622   4.166
70890W        W43205  40.412  15.250   0.434
70891W        W43206  12.328  26.173  11.094
70892W        W43207  39.507  30.060  12.062
70893W        W43208  20.598  13.612  12.379
70894W        W43209  13.235  35.041  13.543
70895W        W43210   9.227  34.401   1.225
70896W        W43211   9.357  27.509  11.927
70897W        W43212   5.782   7.879  10.444
70898W        W43213  38.965   8.193   1.321
70899W        W43214  38.460  29.012  13.033
70900W        W43215  26.486  33.003   0.852
70901W        W43216  40.457  15.582   2.199
70902W        W43217  17.225  15.258   2.392
70903W        W43218  11.739   8.840   4.692
70904W        W43219  11.739  40.891   3.729
70905W        W43220  34.406  26.566   1.243
70906W        W43221  21.051  22.149   4.727
70907W        W43222  10.661   1.443  13.499
70908W        W43223   0.784   9.182  12.461
70909W        W43224  25.986  25.040  14.801
70910W        W43225  22.182  41.412  12.491
70911W        W43226  36.568   0.921  10.972
70912W        W43227   5.372  25.618  14.433
70913W        W43228  37.017   4.395   2.314
70914W        W43229  36.888  18.262  11.902
70915W        W43230   6.740   2.459  14.511
70916W        W43231  12.218  25.992   0.275
70917W        W43232  19.206  17.771   4.767
70918W        W43233  43.510   2.871   3.374
70919W        W43234   4.853   0.778   0.332
70920W        W43235  11.809  19.759  12.490
70921W        W43236   0.286  26.108   3.191
70922W        W43237  13.811  42.848   3.666
70923W        W43238  22.719  15.324  14.888
70924W        W43239  34.393  39.056   1.229
70925W        W43240  23.086  39.321   0.861
70926W        W43241  31.636  18.168   1.210
70927W        W43242  32.610  42.932  14.351
70928W        W43243  14.660   8.253   3.258
70929W        W43244  28.172   9.877  11.091
70930W        W43245   0.434  20.151  12.580
70931W        W43246  42.320  27.659  11.396
70932W        W43247  35.444  44.958  13.545
70933W        W43248  42.285  18.645   1.858
70934W        W43249   3.318   0.333   3.200
70935W        W43250   7.392  36.964  12.877
70936W        W43251   6.798  42.381   2.881
70937W        W43252  30.145  28.555  11.561
70938W        W43253  41.423  14.698   1.249
70939W        W43254   6.722  22.027   3.656
70940W        W43255  22.693  41.943   2.681
70941W        W43256  44.903  38.034   4.323
70942W        W43257   6.351  14.288   1.396
70943W        W43258  44.370  24.087   1.873
70944W        W43259  21.562  12.698  13.410
70945W        W43260  19.240  44.935  14.904
70946W        W43261  44.949   3.819  13.809
70947W        W43262   5.331  37.530   3.727
70948W        W43263   8.711   4.229   1.413
70949W        W43264  15.670  38.830   3.697
70950W        W43265  36.514  43.404   3.727
70951W        W43266  32.535  15.218  14.976
70952W        W43267  23.594  15.757   2.796
70953W        W43268  30.968  13.786   1.369
70954W        W43269  23.116  37.849  14.371
70955W        W43270  16.659   8.382  14.761
70956W        W43271  42.502  20.271  14.981
70957W        W43272  37.938  20.640   1.838
70958W        W43273   3.259  15.102  14.768
70959W        W43274  27.069  24.033   0.927
70960W        W43275  40.410  19.541   4.282
70961W        W43276   4.395  34.069   1.766
70962W        W43277   1.760  42.917  10.532
70963W        W43278   0.451  28.115   3.371
70964W        W43279  35.599   1.972  11.884
70965W        W43280  25.150  30.614   1.888
70966W        W43281  42.500  20.196   0.829
70967W        W43282  26.201  24.646   1.355
70968W        W43283   3.363  37.440   4.724
70969W        W43284  15.130   5.267   0.296
70970W        W43285  26.627  29.987   4.160
70971W        W43286  41.321  23.013   0.460
70972W        W43287  12.798  39.449  10.461
70973W        W43288  29.625  18.704   2.789
70974W        W43289  22.695  28.547   3.742
70975W        W43290   9.193  31.498  13.854
70976W        W43291  42.999   7.832  11.859
70977W        W43292  29.093  29.494  11.908
70978W        W43293   8.676  15.671  13.010
70979W        W43294  40.347  17.620   1.868
70980W        W43295  15.285  42.012   1.397
70981W        W43296  23.161  17.206   0.805
70982W        W43297   9.274   1.478   0.482
70983W        W43298  19.758  26.519   1.840
70984W        W43299  17.640   2.762  10.619
70985W        W43300   4.939  35.387   1.849
70986W        W43301  28.965  31.504   2.334
70987W        W43302  37.486   7.911   0.754
70988W        W43303   7.237  37.904  14.319
70989W        W43304  42.318  35.958  14.983
70990W        W43305   9.667  20.728  12.396
70991W        W43306  11.677   5.733   4.354
70992W        W43307   3.224  28.651   0.855
70993W        W43308  20.075   9.264  12.069
70994W        W43309  26.016   9.818  13.872
70995W        W43310  15.225  37.548   5.092
70996W        W43311  15.226  16.803   4.241
70997W        W43312  41.985  19.089   3.346
70998W        W43313  30.539  20.758  12.032
70999W        W43314  20.123  42.292   1.449
71000W        W43315  11.652  13.836   0.344
71001W        W43316  22.632  39.481   1.929
71002W        W43317  33.895  42.889   2.803
71003W        W43318  38.065  42.373  11.611
71004W        W43319  28.030  35.497   4.260
71005W        W43320  22.252  25.128   2.268
71006W        W43321  25.981   2.879   4.764
71007W        W43322  25.984  31.401   0.420
71008W        W43323   6.379  32.443  10.954
71009W        W43324  39.011   5.393   4.822
71010W        W43325  15.703  18.563   0.947
71011W        W43326  33.130  12.798  11.403
71012W        W43327  12.179   4.918  13.489
71013W        W43328  16.586  13.277  14.852
71014W        W43329  35.037  21.663  12.931
71015W        W43330  35.514  43.278  11.456
71016W        W43331  12.304  29.516  10.581
71017W        W43332  35.006  13.762  12.565
71018W        W43333   8.371   5.755   2.852
71019W        W43334  38.335   2.803   4.237
71020W        W43335  36.039  33.916   2.709
71021W        W43336   7.699  44.422   3.812
71022W        W43337  10.334  40.371   4.655
71023W        W43338  16.641  13.791   1.426
71024W        W43339  37.875   6.310  10.426
71025W        W43340  22.241  12.252   1.441
71026W        W43341  37.419  28.152  10.461
71027W        W43342  19.266  17.697  13.327
71028W        W43343   2.344  15.254   3.663
71029W        W43344  29.955   8.244   0.293
71030W        W43345  44.409  34.052  12.002
71031W        W43346  31.056   2.439  14.807
71032W        W43347   0.300   5.872  12.827
71033W        W43348   0.335  33.116   0.795
71034W        W43349   5.867  38.517   3.850
71035W        W43350  41.833   5.734   3.222
71036W        W43351   4.320  19.729   1.763
71037W        W43352   2.272  36.969   2.667
71038W        W43353  11.661   0.821   4.330
71039W        W43354   0.839  28.454  14.352
71040W        W43355  10.185   1.345   2.293
71041W        W43356   2.401  27.632  14.392
71042W        W43357   0.849  12.646  11.468
71043W        W43358  41.798  10.333  11.598
71044W        W43359  40.956  43.483   0.917
71045W        W43360  12.816  42.378  12.545
71046W        W43361  42.501  40.025   3.220
71047W        W43362  44.821  44.360   0.365
71048W        W43363  39.863  11.821  11.484
71049W        W43364  33.906   0.970  13.008
71050W        W43365  21.252  21.707  13.314
71051W        W43366  12.262  15.599  10.561
71052W        W43367  32.037  30.573   2.833
71053W        W43368  24.501  10.663  12.365
71054W        W43369  28.950  30.523  14.312
71055W        W43370  13.774  35.390   0.333
71056W        W43371  33.944  36.382  11.071
71057W        W43372  24.556  29.543   2.403
71058W        W43373  25.172   1.807   1.369
71059W        W43374   1.893  16.659   2.224
71060W        W43375  17.115  27.063  11.475
71061W        W43376  20.241  35.525  13.482
71062W        W43377   5.429  22.609  11.940
71063W        W43378  23.233  40.859  13.996
71064W        W43379  15.244  22.656  10.421
71065W        W43380  41.845  25.672   1.723
71066W        W43381  22.064  38.935  11.888
71067W        W43382  27.964  24.184   4.145
71068W        W43383  32.478   3.755  14.890
71069W        W43384   0.865  10.174  14.413
71070W        W43385  19.180  26.615   2.290
71071W        W43386   8.733  29.020   0.767
71072W        W43387   7.905  17.234  14.851
71073W        W43388  15.236   6.708  14.279
71074W        W43389  38.990  17.765   1.831
71075W        W43390  20.056  21.530  10.644
71076W        W43391   6.261  21.694   4.250
71077W        W43392   9.377  32.442   0.388
71078W        W43393  34.921  43.374  13.364
71079W        W43394  40.036   4.247  13.502
71080W        W43395  34.567  34.544  10.634
71081W        W43396   5.788  22.196  13.413
71082W        W43397  35.980  21.711  11.955
71083W        W43398  22.245  20.246   9.953
71084W        W43399   8.691  16.619   1.265
71085W        W43400  33.616  15.745  14.966
71086W        W43401  25.101   3.329   1.232
71087W        W43402  17.221  36.378   0.885
71088W        W43403  33.531  31.959  10.472
71089W        W43404  17.180  40.854   3.290
71090W        W43405  43.978  43.513   2.183
71091W        W43406  34.934  17.091  13.548
71092W        W43407  23.079  37.374   2.713
71093W        W43408  42.967  37.438  12.937
71094W        W43409   0.797  28.185   3.833
71095W        W43410  22.101  29.632   3.708
71096W        W43411  11.642  10.801   1.340
71097W        W43412  12.212   6.198   2.796
71098W        W43413  11.158  25.128   2.836
71099W        W43414  17.773   4.243  14.374
71100W        W43415  11.204   2.953   1.930
71101W        W43416  39.964  39.875   2.876
71102W        W43417  41.318   1.773   3.736
71103W        W43418  36.514  35.939   1.766
71104W        W43419   0.312  24.135   4.198
71105W        W43420  28.468  15.143  10.465
71106W        W43421  21.018  23.574  12.058
71107W        W43422  13.660  35.579   1.221
71108W        W43423   4.884  28.011  14.946
71109W        W43424  24.607  34.437  13.435
71110W        W43425  12.791  25.522   3.673
71111W        W43426  32.546  14.712   1.369
71112W        W43427  41.881  23.586  11.440
71113W        W43428  21.739  12.219   4.130
71114W        W43429  33.461  25.983   2.777
71115W        W43430   3.864   7.414   4.750
71116W        W43431  27.123  41.328  11.084
71117W        W43432   6.789  32.909   0.962
71118W        W43433   0.756  20.622  14.486
71119W        W43434  32.428  33.904  12.044
71120W        W43435   4.925  10.255   3.273
71121W        W43436  42.847  21.244   3.385
71122W        W43437  43.374  28.990  11.492
71123W        W43438  18.622   8.307   2.765
71124W        W43439   2.334  38.827   0.908
71125W        W43440  21.148   0.750   2.318
71126W        W43441  15.189  44.894  13.832
71127W        W43442  40.514   3.281   3.298
71128W        W43443  14.630  40.918   3.386
71129W        W43444  10.196  29.149   9.990
71130W        W43445  36.525   6.347  10.129
71131W        W43446  16.653   6.836   1.867
71132W        W43447   3.302   2.281  12.546
71133W        W43448  20.149   6.795  10.406
71134W        W43449  33.988   2.848   0.822
71135W        W43450  19.580   3.368   1.313
71136W        W43451  17.738  31.025  12.887
71137W        W43452  38.470  21.553  13.996
71138W        W43453  20.648  35.544   2.192
71139W        W43454   7.768  14.227   3.206
71140W        W43455  30.420  15.646  14.338
71141W        W43456  39.904  34.014   2.711
71142W        W43457  26.091  33.595   3.312
71143W        W43458  26.688   6.374  10.952
71144W        W43459  32.509  41.421  10.635
71145W        W43460  39.405   4.906  14.904
71146W        W43461   6.360  30.587   2.217
71147W        W43462  10.334   3.248   0.799
71148W        W43463  39.060  13.181   1.418
71149W        W43464  38.034  34.586   1.255
71150W        W43465   2.788  43.360  14.446
71151W        W43466  20.080  11.644  12.369
71152W        W43467   1.767  42.388   0.429
71153W        W43468  10.741  33.466  14.424
71154W        W43469  26.067   8.894  14.842
71155W        W43470  37.984   3.720  10.406
71156W        W43471  19.669   0.305   4.820
71157W        W43472  12.237  39.548   2.897
71158W        W43473  26.617  23.691   2.748
71159W        W43474   5.356  26.499   2.863
71160W        W43475   6.881  14.199   3.352
71161W        W43476  41.471  17.120  14.897
71162W        W43477  24.109  10.177   4.702
71163W        W43478   4.758   8.355  12.377
71164W        W43479  21.645  37.407   4.319
71165W        W43480   1.815  36.871  12.568
71166W        W43481  33.074  41.951   3.301
71167W        W43482  34.946   9.870  14.879
71168W        W43483  31.125   9.320  14.782
71169W        W43484  37.462  20.104   1.779
71170W        W43485  18.074   9.393   4.677
71171W        W43486   5.752  36.043   2.293
71172W        W43487  30.015  17.659  14.510
71173W        W43488  19.116  44.319   0.874
71174W        W43489  15.207  36.444  13.838
71175W        W43490   5.919  36.438   1.931
71176W        W43491  33.488   8.306   2.183
71177W        W43492   9.744   4.431   3.709
71178W        W43493  10.697  20.577   3.254
71179W        W43494  12.259  44.474   1.788
71180W        W43495  30.634  42.975   5.202
71181W        W43496  28.647   6.412  10.060
71182W        W43497  34.072  20.177   0.809
71183W        W43498  25.099  35.552   2.391
71184W        W43499  14.210  13.344   1.843
71185W        W43500   3.767  11.840  12.001
71186W        W43501   5.261  12.270   3.335
71187W        W43502  37.435  26.531   2.771
71188W        W43503  23.079   4.826   2.293
71189W        W43504  35.036  27.659   2.207
71190W        W43505  11.739  25.968   3.366
71191W        W43506   6.764  37.036   4.304
71192W        W43507  43.863  22.021   2.784
71193W        W43508  17.234   1.960   0.480
71194W        W43509  26.556   3.395   2.280
71195W        W43510  15.715  34.470  12.426
71196W        W43511   2.408  21.545  12.532
71197W        W43512  24.494  28.096  12.049
71198W        W43513  26.099  19.734   4.154
71199W        W43514  12.275   5.865   0.295
71200W        W43515  20.578   6.310  12.951
71201W        W43516  31.152  43.018  11.888
71202W        W43517  23.141  30.100   2.902
71203W        W43518  18.579   4.246   0.277
71204W        W43519  21.031  35.921   0.880
71205W        W43520  24.003   9.159  11.926
71206W        W43521  32.131  10.223   1.389
71207W        W43522  35.427  20.177   3.261
71208W        W43523   0.882  38.938  10.604
71209W        W43524  37.426  17.131   0.255
71210W        W43525  25.087  38.345   2.377
71211W        W43526  35.925  31.585   3.355
71212W        W43527  22.691   2.465   4.168
71213W        W43528   1.829  32.980  11.381
71214W        W43529   7.337   0.470  14.018
71215W        W43530  22.198  25.622  10.971
71216W        W43531   4.890  26.567   4.690
71217W        W43532   2.238  21.564   3.646
71218W        W43533  19.768  20.538   3.862
71219W        W43534  30.019  36.855  12.980
71220W        W43535  44.306  14.299  11.450
71221W        W43536  21.662  35.896   1.306
71222W        W43537  43.894  33.875   2.767
71223W        W43538  19.750  36.932   0.484
71224W        W43539  17.081   6.238   1.820
71225W        W43540  17.129  33.979   3.201
71226W        W43541  28.618   1.774  13.368
71227W        W43542  30.096  16.635  12.344
71228W        W43543  33.960  14.745  14.823
71229W        W43544  22.233  18.071  14.283
71230W        W43545   4.334  18.274   1.282
71231W        W43546  20.667  40.887   3.267
71232W        W43547  32.076  13.690   1.866
71233W        W43548  11.640   0.949  11.509
71234W        W43549  39.367  23.016   3.228
71235W        W43550  23.091  32.545  13.948
71236W        W43551  21.203  39.034   5.128
71237W        W43552   7.221   7.274  11.524
71238W        W43553  38.929   8.313  14.775
71239W        W43554  38.380  21.104   0.255
71240W        W43555   9.775   0.283   3.702
71241W        W43556  12.290  41.983   4.722
71242W        W43557   5.711  41.803   3.827
71243W        W43558  25.541  42.841  12.842
71244W        W43559  33.618  32.584  10.410
71245W        W43560  25.639  42.496  11.407
71246W        W43561   6.873  18.573   3.753
71247W        W43562  18.693   7.386   4.612
71248W        W43563  37.027  26.659   1.826
71249W        W43564  28.130  17.777  14.494
71250W        W43565  15.264  28.126  11.923
71251W        W43566  26.565  33.079  13.020
71252W        W43567  42.334  15.132   3.837
71253W        W43568   0.835  36.050   1.746
71254W        W43569  29.077  34.906  12.371
71255W        W43570  26.623  28.554   0.791
71256W        W43571   2.901  19.717   3.814
71257W        W43572  33.506   2.404  12.368
71258W        W43573  28.931  39.859  10.502
71259W        W43574  36.894  35.086  10.924
71260W        W43575  30.597  35.529  10.896
71261W        W43576   0.810   3.325   0.303
71262W        W43577   0.434  37.968  10.494
71263W        W43578  13.741  17.185  10.543
71264W        W43579  30.542  26.490   1.717
71265W        W43580   1.277  39.476  14.007
71266W        W43581  39.465  25.566   2.764
71267W        W43582  25.071  22.671  11.577
71268W        W43583   9.346  20.676  10.529
71269W        W43584   9.814  13.120  13.953
71270W        W43585  13.180  17.747   1.340
71271W        W43586  14.148  37.944  13.421
71272W        W43587  24.602  33.072  13.838
71273W        W43588   1.482   6.800   1.217
71274W        W43589   0.488   6.915  12.560
71275W        W43590  31.077   4.255  14.933
71276W        W43591  16.085  25.671  12.533
71277W        W43592  19.720  43.769  12.510
71278W        W43593  19.541  26.466  12.946
71279W        W43594  44.002   1.467  13.956
71280W        W43595   2.252  22.193  11.019
71281W        W43596   7.730  24.494   3.230
71282W        W43597   5.407  18.281  14.979
71283W        W43598  31.557  12.232   1.254
71284W        W43599   4.775  25.700   1.339
71285W        W43600  18.232  44.853  12.889
71286W        W43601   1.337  37.083   2.192
71287W        W43602  24.605   6.311   4.795
71288W        W43603  33.441  42.426  11.878
71289W        W43604   8.372   7.321  14.828
71290W        W43605  43.915  42.290  12.031
71291W        W43606  17.286  18.632  12.830
71292W        W43607  39.396  17.761   3.649
71293W        W43608  27.048  21.060   0.788
71294W        W43609  33.451  36.509   4.762
71295W        W43610  24.220   1.793  10.145
71296W        W43611  29.501  27.101   3.667
71297W        W43612  25.003  20.737  12.915
71298W        W43613  21.203   2.760  14.857
71299W        W43614  20.122  35.011   2.668
71300W        W43615  15.604   2.293  12.020
71301W        W43616  31.916   9.774   1.438
71302W        W43617   0.861   6.346  12.385
71303W        W43618   5.439  38.410  12.359
71304W        W43619  28.053  21.116   3.807
71305W        W43620  29.951  39.385   1.258
71306W        W43621  26.958  28.464  13.014
71307W        W43622  14.188  19.764  12.877
71308W        W43623  42.357  26.490  12.985
71309W        W43624  12.637   5.848   2.697
71310W        W43625  23.552   2.930   4.216
71311W        W43626  22.153  21.058  11.507
71312W        W43627   8.381   1.848   3.255
71313W        W43628   6.844  40.833   1.365
71314W        W43629  19.179   9.180  14.441
71315W        W43630   2.374  23.234  14.335
71316W        W43631  29.572  35.574   3.313
71317W        W43632  37.008  38.852   4.649
71318W        W43633  32.908  13.658   1.227
71319W        W43634  16.710   9.157   5.800
71320W        W43635  11.354  23.229   4.189
71321W        W43636  17.195  42.334   3.682
71322W        W43637  14.726  29.021   4.612
71323W        W43638   1.733  35.541   5.292
71324W        W43639  13.316   3.840   0.958
71325W        W43640  19.603  35.090  11.462
71326W        W43641  12.168  42.939  11.075
71327W        W43642  25.082  19.551   3.262
71328W        W43643  31.122  19.728   3.638
71329W        W43644  15.760  25.195  10.108
71330W        W43645  32.982  31.564   2.664
71331W        W43646   5.265  17.161   3.670
71332W        W43647  30.438   6.830  12.025
71333W        W43648  27.144   6.812  11.096
71334W        W43649   3.784  40.487   3.685
71335W        W43650  39.895  34.965   4.163
71336W        W43651  23.580  36.549   4.746
71337W        W43652   2.353   3.332   3.698
71338W        W43653   8.746  37.021  11.060
71339W        W43654  16.293  38.977  10.558
71340W        W43655  27.942  20.631   1.926
71341W        W43656  39.974  41.871   3.164
71342W        W43657   9.808  32.914  12.524
71343W        W43658   3.804  35.594  13.015
71344W        W43659  33.928  12.168  11.567
71345W        W43660  29.458   5.724  10.920
71346W        W43661  28.579  40.918   3.275
71347W        W43662  21.127  41.392   3.200
71348W        W43663  14.215  21.601   0.250
71349W        W43664  44.473  44.294   2.254
71350W        W43665  21.219  11.796   3.350
71351W        W43666   3.259  18.108   1.748
71352W        W43667  27.993  29.498   0.852
71353W        W43668  41.850  23.589   1.333
71354W        W43669  25.659  32.063  11.491
71355W        W43670  14.649   1.413   4.800
71356W        W43671  19.658  33.957   4.234
71357W        W43672   2.738  34.382  12.531
71358W        W43673   1.383  40.364  14.414
71359W        W43674   4.261  42.379   0.895
71360W        W43675  37.384  36.365   2.314
71361W        W43676  26.035  14.694   4.207
71362W        W43677  40.936  31.448   2.312
71363W        W43678   2.950  34.087   0.432
71364W        W43679   9.251  37.017  11.899
71365W        W43680  38.365  32.036  11.065
71366W        W43681  22.512  32.446  14.316
71367W        W43682  32.593  36.479  11.993
71368W        W43683  14.203  21.723   3.849
71369W        W43684  39.383  21.043   4.637
71370W        W43685  11.205  25.053   2.347
71371W        W43686  38.534   7.239  10.909
71372W        W43687   7.879  42.865  13.839
71373W        W43688  29.424  24.549  10.466
71374W        W43689  30.571  44.484   3.187
71375W        W43690   8.287  23.054  12.572
71376W        W43691  17.717  30.102   2.847
71377W        W43692   4.858   6.352   4.742
71378W        W43693  37.834  25.175   4.246
71379W        W43694  16.143  17.195   2.389
71380W        W43695   9.275   2.276  10.487
71381W        W43696   8.797   0.367  13.019
71382W        W43697  44.759  35.939   3.752
71383W        W43698  17.581   0.950  14.770
71384W        W43699  26.655  27.953   2.850
71385W        W43700   2.906  20.667   4.723
71386W        W43701  43.353  18.736   4.655
71387W        W43702  38.903  35.451  13.394
71388W        W43703  21.519  39.366   1.311
71389W        W43704   5.262  18.173   4.288
71390W        W43705   1.277  16.572  13.317
71391W        W43706  44.277  32.531   2.743
71392W        W43707   5.320   4.251  13.860
71393W        W43708  42.315   1.470   2.403
71394W        W43709  44.970  29.590  13.881
71395W        W43710  41.800  15.721   3.244
71396W        W43711  38.019   6.285   3.728
71397W        W43712  11.218  35.939  13.955
71398W        W43713  23.042  41.036  14.998
71399W        W43714  15.628   0.340  10.038
71400W        W43715  11.227   0.900   2.663
71401W        W43716  12.157  13.811  11.920
71402W        W43717  34.903  20.638   3.859
71403W        W43718   5.260   7.261   2.886
71404W        W43719  42.945   9.745  14.409
71405W        W43720   4.830  20.103  11.945
71406W        W43721  22.693  42.443  14.949
71407W        W43722  32.901   3.741   4.656
71408W        W43723  28.583   3.936   1.247
71409W        W43724  13.137  31.092  13.425
71410W        W43725  36.882  35.596  10.537
71411W        W43726  16.107  14.106   2.243
71412W        W43727  40.378  12.359  11.984
71413W        W43728  13.770  20.092   4.301
71414W        W43729  37.832  13.110  10.440
71415W        W43730  17.128  35.407   2.361
71416W        W43731  31.565  16.792   2.276
71417W        W43732  40.458  28.479  14.023
71418W        W43733  28.941  41.434   3.348
71419W        W43734  40.548  12.167  11.466
71420W        W43735  21.695  17.778  11.606
71421W        W43736  15.637   8.264  13.797
71422W        W43737  27.621  16.231  10.551
71423W        W43738  32.435   0.968  10.467
71424W        W43739  28.096   4.714   4.777
71425W        W43740   3.753  12.150  14.345
71426W        W43741  33.962  40.378  13.422
71427W        W43742   1.818   7.876   1.845
71428W        W43743  23.154  34.495   4.221
71429W        W43744  10.649  39.010  14.476
71430W        W43745  30.634  37.528  12.358
71431W        W43746  17.582   8.289   3.222
71432W        W43747  19.083  38.548   1.827
71433W        W43748  44.822   1.283  13.428
71434W        W43749  32.084   2.326   5.228
71435W        W43750  15.717   2.937   0.854
71436W        W43751  29.580  31.014   1.435
71437W        W43752  35.985   4.800   3.675
71438W        W43753  16.279   9.236  13.948
71439W        W43754  35.595   3.727  10.442
71440W        W43755   3.725  30.034  14.395
71441W        W43756  30.963  26.615   0.305
71442W        W43757  28.583  23.232  13.883
71443W        W43758   6.760  22.524   3.635
71444W        W43759  26.662   7.270  12.865
71445W        W43760   3.767  12.261  12.466
71446W        W43761  22.576  25.584   2.884
71447W        W43762  17.560  31.919  14.973
71448W        W43763  11.693  17.603  14.398
71449W        W43764   7.728  26.103  14.961
71450W        W43765  19.564  35.103   3.824
71451W        W43766  42.997  23.643  14.941
71452W        W43767  24.684  21.633  11.962
71453W        W43768  16.092  43.008   0.306
71454W        W43769  26.965  10.211  12.850
71455W        W43770  34.445  30.567  14.304
71456W        W43771  40.948  11.808   3.748
71457W        W43772  38.066  40.307  11.891
71458W        W43773   4.769  23.235   0.887
71459W        W43774   1.781  11.856   3.172
71460W        W43775  19.063  21.019  14.960
71461W        W43776  19.572  35.970   0.965
71462W        W43777  27.627  20.585   1.821
71463W        W43778   4.883  35.967   0.330
71464W        W43779  30.019  31.143   3.680
71465W        W43780   7.376  41.894  12.346
71466W        W43781  31.932  25.968   2.391
71467W        W43782  44.356   9.176   0.312
71468W        W43783  31.644  37.953   0.924
71469W        W43784  36.546   4.358  13.315
71470W        W43785  24.519  34.062   1.278
71471W        W43786   3.756  16.628   2.878
71472W        W43787   6.225  37.507  12.473
71473W        W43788  35.416  42.426   4.122
71474W        W43789   7.314  43.320  12.501
71475W        W43790  24.723   3.244  11.917
71476W        W43791   5.419   8.284   4.608
71477W        W43792  37.005   9.828  11.466
71478W        W43793  30.000  13.649  14.856
71479W        W43794  42.899  44.319   3.361
71480W        W43795  36.488  22.664  11.944
71481W        W43796   6.360   1.458  12.575
71482W        W43797   4.436   5.393  14.866
71483W        W43798  17.240  34.945  14.809
71484W        W43799  20.733  10.726  14.363
71485W        W43800  32.088   6.364  13.980
71486W        W43801  19.109   1.370  12.885
71487W        W43802  11.229  18.732  14.376
71488W        W43803  17.137  31.970  13.307
71489W        W43804   9.814  19.069  10.908
71490W        W43805  24.143  20.211  11.460
71491W        W43806  12.215  37.426   0.744
71492W        W43807  11.668   9.329   3.322
71493W        W43808  15.807  44.880  14.374
71494W        W43809  41.484  38.327  11.015
71495W        W43810   6.252   7.751  10.587
71496W        W43811  32.046  31.898   0.813
71497W        W43812   6.414  25.098   2.763
71498W        W43813  29.931  23.601  11.909
71499W        W43814  31.496  33.404   0.917
71500W        W43815  44.337  30.438  11.481
71501W        W43816  22.651  22.136  11.575
71502W        W43817   6.831   1.285  10.410
71503W        W43818  15.268  34.490  11.492
71504W        W43819  10.303  17.635  12.060
71505W        W43820   3.395   1.745  12.364
71506W        W43821  42.809  30.119   1.895
71507W        W43822  20.206  39.017  14.326
71508W        W43823  13.600  40.870   2.256
71509W        W43824  15.300  38.934  11.473
71510W        W43825  11.680  27.472  14.439
71511W        W43826  25.029  37.871  12.408
71512W        W43827   0.827  31.930   4.621
71513W        W43828   0.268   1.410   0.288
71514W        W43829  18.185  33.956   3.194
71515W        W43830  26.101  16.091  14.805
71516W        W43831  44.314  19.716   2.886
71517W        W43832   8.283  39.361  14.840
71518W        W43833  16.706  25.079  12.915
71519W        W43834  22.578  32.102  10.625
71520W        W43835  41.344  15.200  11.075
71521W        W43836  16.091  40.048  10.443
71522W        W43837  26.524  25.201   0.800
71523W        W43838  29.936  13.751  10.588
71524W        W43839  35.861  32.541   3.207
71525W        W43840  31.098   7.740  12.510
71526W        W43841  11.792  24.121  11.460
71527W        W43842  13.275   4.239  12.966
71528W        W43843   0.778  37.573   1.374
71529W        W43844  39.941  14.279   0.901
71530W        W43845   6.313  22.230   3.187
71531W        W43846  29.068   6.195   5.249
71532W        W43847   2.744  21.218   4.780
71533W        W43848  34.448  25.104   3.823
71534W        W43849   1.368  31.100   3.269
71535W        W43850  32.140   8.711   2.679
71536W        W43851   2.428  14.195  12.901
71537W        W43852  28.129   7.395   4.816
71538W        W43853  43.899  23.225   4.649
71539W        W43854  37.868   9.718   2.789
71540W        W43855  20.176  37.921   4.233
71541W        W43856  29.141  21.742   1.752
71542W        W43857  14.129  40.518  14.985
71543W        W43858  43.780  40.325  12.044
71544W        W43859  41.328  41.412  12.889
71545W        W43860  24.672  25.963  12.833
71546W        W43861   6.210   6.739  10.436
71547W        W43862   2.882  12.239   2.894
71548W        W43863   3.298  28.484  14.356
71549W        W43864  18.608  43.005  14.462
71550W        W43865  16.313   7.300  13.001
71551W        W43866   3.383  27.179   1.286
71552W        W43867   0.333  37.524   0.782
71553W        W43868  24.660  43.968   4.283
71554W        W43869  16.296  42.842  13.816
71555W        W43870   0.877  16.667   3.807
71556W        W43871  25.018  38.523  13.479
71557W        W43872  14.686  44.452   0.885
71558W        W43873   3.221  23.517  11.902
71559W        W43874  35.045   7.868  11.594
71560W        W43875  36.857  43.825  11.546
71561W        W43876  22.211   4.314  13.538
71562W        W43877   1.751  32.966   1.915
71563W        W43878  15.232  30.629   2.893
71564W        W43879  23.662   9.833   3.210
71565W        W43880  35.429  23.138  11.534
71566W        W43881   6.914  21.126  10.451
71567W        W43882  43.454  23.516  13.336
71568W        W43883  11.174  10.844  14.277
71569W        W43884  23.579   8.771  14.775
71570W        W43885   4.806   0.888   4.186
71571W        W43886  16.771  37.986  12.094
71572W        W43887  26.113   7.843   3.346
71573W        W43888  28.018  40.356  10.138
71574W        W43889  22.081  36.570   2.745
71575W        W43890  38.512  30.073   2.285
71576W        W43891  32.130  33.084   2.782
71577W        W43892  25.994  44.313   3.147
71578W        W43893  15.266  41.424  10.479
71579W        W43894  25.210  42.823  14.452
71580W        W43895  21.038  38.055  12.004
71581W        W43896  14.300   6.791  12.546
71582W        W43897  23.611  39.499   3.763
71583W        W43898   5.383   1.372  12.020
71584W        W43899  25.620  21.744   3.699
71585W        W43900  27.015   0.986  14.295
71586W        W43901  34.008  20.635   0.889
71587W        W43902  28.126  32.025   5.246
71588W        W43903  36.549  25.007  13.471
71589W        W43904  35.505  16.288  12.002
71590W        W43905  24.229  18.595  14.448
71591W        W43906  28.570  25.061   3.238
71592W        W43907  11.691   8.204   2.893
71593W        W43908  40.837  28.995  12.452
71594W        W43909  10.295  11.662  12.885
71595W        W43910  44.480  11.153  14.900
71596W        W43911  22.051  37.040  14.340
71597W        W43912  11.265   9.677  12.930
71598W        W43913  14.776  29.979  10.523
71599W        W43914  17.796  19.063  14.358
71600W        W43915   1.928   5.840   2.752
71601W        W43916  35.403  15.682   4.828
71602W        W43917  30.010  23.100   0.396
71603W        W43918  19.615  38.562   9.480
71604W        W43919  41.955   8.827   3.326
71605W        W43920   9.842  38.369  11.094
71606W        W43921  32.046  33.935   2.773
71607W        W43922   2.876  38.563  10.473
71608W        W43923  22.056  13.640   2.204
71609W        W43924  22.093  21.061   3.864
71610W        W43925   6.416  22.659  12.989
71611W        W43926  23.730  34.968   3.297
71612W        W43927  14.737   1.242  12.394
71613W        W43928   8.206   3.342  14.398
71614W        W43929   2.951  40.842  14.892
71615W        W43930   2.387  21.144   4.239
71616W        W43931  39.321  39.515   4.118
71617W        W43932  28.024  29.990  10.475
71618W        W43933  32.009   5.303   1.849
71619W        W43934   5.287  21.158  12.524
71620W        W43935  27.113  37.873  11.397
71621W        W43936  17.118  32.610   0.895
71622W        W43937  40.807   4.868   4.609
71623W        W43938   3.781  29.656  11.569
71624W        W43939  24.981  12.641   4.807
71625W        W43940  36.886  14.338  10.909
71626W        W43941   5.805  10.790  11.118
71627W        W43942  40.923   7.839  13.811
71628W        W43943  37.531  29.562  13.322
71629W        W43944  31.990  41.803  10.515
71630W        W43945   4.328  32.568  13.872
71631W        W43946   7.858  10.229   9.974
71632W        W43947  33.454  39.497  14.997
71633W        W43948   5.705  25.082  12.463
71634W        W43949   7.769  37.579   3.792
71635W        W43950  26.533  34.484  11.571
71636W        W43951  38.044  43.000   3.729
71637W        W43952  34.497  44.486  13.029
71638W        W43953  40.025   3.380  13.840
71639W        W43954  44.964  21.526  11.475
71640W        W43955   4.295  24.568  12.878
71641W        W43956  19.655  24.596  13.404
71642W        W43957  20.245  30.100   2.680
71643W        W43958  19.611  18.123  11.098
71644W        W43959  29.967  39.966  12.432
71645W        W43960  35.864   2.894  10.930
71646W        W43961  22.073  16.790   2.841
71647W        W43962  25.503   2.441  12.853
71648W        W43963   6.211  21.567  10.910
71649W        W43964   7.666  25.020   3.333
71650W        W43965  26.491  27.078  13.949
71651W        W43966  38.065  22.030   3.675
71652W        W43967  37.517  13.130  10.420
71653W        W43968  28.143  23.529   2.237
71654W        W43969  15.128   5.743   4.167
71655W        W43970  43.400  20.270  13.345
71656W        W43971  40.856  32.466  10.430
71657W        W43972  12.716  14.653   0.920
71658W        W43973   7.791  23.635  10.971
71659W        W43974  25.025  12.773  12.353
71660W        W43975  39.485  30.595  12.871
71661W        W43976  40.356  21.033  10.502
71662W        W43977  43.393   0.920  12.861
71663W        W43978   4.922  33.590  13.431
71664W        W43979  13.623  32.594   2.883
71665W        W43980  22.056   3.719   4.255
71666W        W43981   2.775  15.267  10.637
71667W        W43982  39.409  10.352  14.843
71668W        W43983   8.172  13.677   2.201
71669W        W43984  15.590  11.135  13.497
71670W        W43985  26.124  35.429  11.413
71671W        W43986  13.608  25.985  14.427
71672W        W43987  14.334  19.676  14.375
71673W        W43988  36.007  44.000  10.950
71674W        W43989  16.145   0.445   1.845
71675W        W43990  36.864  19.767   4.607
71676W        W43991  15.610  37.571  11.087
71677W        W43992   7.211  27.476  12.479
71678W        W43993   8.838  17.590  11.612
71679W        W43994  16.207  17.099   4.655
71680W        W43995  28.648  33.995   0.863
71681W        W43996  33.410  42.941   0.910
71682W        W43997  25.003  42.017  10.992
71683W        W43998  24.601  12.230  14.509
71684W        W43999   3.318  39.397  12.983
71685W        W44000   8.359  34.523  12.052
71686W        W44001  43.935  10.743   1.385
71687W        W44002  18.584  10.301  10.506
71688W        W44003  43.315  32.474   2.824
71689W        W44004  17.234  26.170   3.782
71690W        W44005  18.745  35.019  13.381
71691W        W44006  33.956   8.290   1.234
71692W        W44007  15.765  23.045   1.238
71693W        W44008   2.301  22.035   3.750
71694W        W44009  28.523  23.051   2.250
71695W        W44010   9.151  41.347   5.235
71696W        W44011  33.548   8.774  11.401
71697W        W44012  10.713  19.623  13.793
71698W        W44013   3.750  41.390  13.813
71699W        W44014   6.421  30.156  13.836
71700W        W44015  12.616  31.016   1.270
71701W        W44016  30.139  13.778  12.080
71702W        W44017   0.772  27.683   3.286
71703W        W44018  36.943  31.123  11.017
71704W        W44019  43.797  20.179   1.237
71705W        W44020  40.423  32.603   2.411
71706W        W44021  25.630  34.096  13.055
71707W        W44022  32.396  23.511   0.371
71708W        W44023  18.640  36.886  12.365
71709W        W44024   0.480   4.270   1.819
71710W        W44025  35.581   4.784  13.884
71711W        W44026   1.977  33.550   1.230
71712W        W44027  32.573  39.446   3.320
71713W        W44028   3.840  41.344  10.970
71714W        W44029  35.407  41.516  12.043
71715W        W44030  18.158   7.244  13.321
71716W        W44031  13.140  19.562   4.756
71717W        W44032  38.337  33.051   0.405
71718W        W44033  39.936  40.916   1.352
71719W        W44034  14.269   6.305   3.301
71720W        W44035  33.982   9.693  13.474
71721W        W44036  42.775  32.468  11.496
71722W        W44037  11.328  40.948   0.916
71723W        W44038   6.187   1.859   4.626
71724W        W44039  25.999  21.540   4.151
71725W        W44040  28.503   8.809   3.306
71726W        W44041  10.226  34.007  12.500
71727W        W44042  27.589   4.773   1.893
71728W        W44043   7.801  19.606  10.918
71729W        W44044  42.284  22.241  13.002
71730W        W44045  41.860   3.419  14.809
71731W        W44046  38.899  35.549  13.834
71732W        W44047  28.460  10.234   2.737
71733W        W44048  39.944  42.876  11.997
71734W        W44049  15.798  42.387  13.973
71735W        W44050  40.457   8.669  12.350
71736W        W44051  35.879  34.028   4.207
71737W        W44052  32.393   9.715  12.854
71738W        W44053   5.313  30.623   1.223
71739W        W44054  20.156  37.381   4.287
71740W        W44055  17.555   7.796   2.853
71741W        W44056  27.986  38.325   3.634
71742W        W44057  32.112  15.793  14.445
71743W        W44058  40.855  23.013  13.369
71744W        W44059  44.995  22.604   1.897
71745W        W44060  35.958  23.995  11.934
71746W        W44061   4.832   0.473  10.587
71747W        W44062  36.445  26.663   9.930
71748W        W44063   0.355  11.863  11.867
71749W        W44064  39.376   9.292   1.439
71750W        W44065  24.083   9.240  10.968
71751W        W44066  42.403  31.493  11.564
71752W        W44067  39.526  31.090   3.226
71753W        W44068   7.822   8.730   5.257
71754W        W44069  31.415  43.404  10.520
71755W        W44070  44.786  37.534  10.460
71756W        W44071  26.472  35.549  13.987
71757W        W44072  34.448  19.621   3.177
71758W        W44073   8.309  29.962  11.548
71759W        W44074  19.217  30.492   0.942
71760W        W44075  43.885  18.607   4.752
71761W        W44076   9.878  37.839   0.727
71762W        W44077  19.594  22.680  11.516
71763W        W44078   1.763   8.213  12.070
71764W        W44079   5.839  36.441  11.127
71765W        W44080  17.204  28.998  12.512
71766W        W44081  32.068  21.544   0.466
71767W        W44082  28.473  42.363   0.806
71768W        W44083  32.894  20.626   0.848
71769W        W44084  18.554   4.402  13.911
71770W        W44085  43.861   7.734  13.851
71771W        W44086   9.707  21.718  12.046
71772W        W44087  36.429  16.704   0.467
71773W        W44088  26.026  28.086   2.676
71774W        W44089  11.705  43.928  11.906
71775W        W44090  42.475  34.045  12.390
71776W        W44091   5.733  31.959   4.834
71777W        W44092  30.156  10.290   3.718
71778W        W44093  19.670   1.384   1.324
71779W        W44094  22.511  37.074  13.855
71780W        W44095  29.982  40.357   0.254
71781W        W44096  30.037  27.992  13.837
71782W        W44097   0.358  10.354  13.506
71783W        W44098  35.066  28.020  10.438
71784W        W44099   1.300  31.565  14.017
71785W        W44100   1.894  21.072  10.498
71786W        W44101   7.292  22.704  11.993
71787W        W44102  41.820  43.876   0.809
71788W        W44103  13.680  43.516  11.021
71789W        W44104  38.895  22.017  11.433
71790W        W44105  20.568  15.799  11.484
71791W        W44106  42.960  32.593  14.964
71792W        W44107  40.443  14.329  10.965
71793W        W44108   1.446  22.739  14.863
71794W        W44109  42.969  37.034  12.391
71795W        W44110  23.604  22.229   3.652
71796W        W44111   0.335  32.102   1.731
71797W        W44112  43.918  23.631  11.584
71798W        W44113  14.686  11.799  11.994
71799W        W44114  16.640   8.857   4.268
71800W        W44115  34.965  32.095   2.827
71801W        W44116  34.411   4.385  14.403
71802W        W44117   8.666  39.017  11.040
71803W        W44118   7.805   1.431   0.351
71804W        W44119  29.521   3.400  10.427
71805W        W44120  31.530  14.161   2.884
71806W        W44121  18.595  25.523  10.409
71807W        W44122  23.195  13.827   1.309
71808W        W44123  43.942   8.229   4.726
71809W        W44124  35.065  28.940  11.917
71810W        W44125  17.657  40.383   0.456
71811W        W44126  29.143  15.642   1.826
71812W        W44127   4.337  25.617  12.552
71813W        W44128  44.324  40.420   1.739
71814W        W44129  21.724  44.346  13.310
71815W        W44130  36.897  22.626   1.853
71816W        W44131  29.973  31.589   2.747
71817W        W44132  11.729   7.186   0.398
71818W        W44133  13.254  14.337  12.026
71819W        W44134   1.437  17.677  10.501
71820W        W44135  35.919  17.091   2.222
71821W        W44136  23.491   0.859  13.025
71822W        W44137  33.962   2.803   1.333
71823W        W44138  43.478  20.668   2.696
71824W        W44139   0.479  43.396   0.276
71825W        W44140   0.742   0.816   0.759
71826W        W44141  22.010   7.741   1.419
71827W        W44142  43.900  38.923  11.066
71828W        W44143  16.299  27.043   3.688
71829W        W44144  37.456  33.971  14.877
71830W        W44145  36.443  22.526  13.522
71831W        W44146  30.950  19.606   0.891
71832W        W44147  30.021  28.107   3.804
71833W        W44148  11.257  40.950   3.152
71834W        W44149  32.625  11.840   2.692
71835W        W44150  27.602  44.420   2.719
71836W        W44151  43.765  15.247   4.343
71837W        W44152  24.629  39.491   0.384
71838W        W44153  11.272  32.565  11.976
71839W        W44154  18.722  21.217  11.580
71840W        W44155  26.049   9.813  13.317
71841W        W44156  39.992   3.335   1.891
71842W        W44157  20.105  27.103  14.024
71843W        W44158  21.126  14.695   4.232
71844W        W44159  11.800  35.026  10.601
71845W        W44160  36.977  36.576  10.583
71846W        W44161  28.548  12.784   0.384
71847W        W44162  35.914   8.848  11.450
71848W        W44163  41.353  44.815   1.825
71849W        W44164  38.875   6.819  11.113
71850W        W44165  29.154  33.555  12.871
71851W        W44166  43.003  18.262   2.804
71852W        W44167  25.187  13.667  14.347
71853W        W44168  10.750  38.424   2.852
71854W        W44169  20.125  33.924   0.941
71855W        W44170  13.695  14.611   1.846
71856W        W44171  32.988   8.165  11.588
71857W        W44172  18.600  35.402   1.736
71858W        W44173  32.009  34.594  13.519
71859W        W44174  15.257  44.341  12.930
71860W        W44175  31.898  17.168   2.261
71861W        W44176  18.051   0.963  11.495
71862W        W44177  13.654  31.474   2.376
71863W        W44178  11.216  24.688  12.018
71864W        W44179  29.986   6.320   4.265
71865W        W44180   6.768  22.603  13.983
71866W        W44181  27.149  43.480   1.723
71867W        W44182  26.008  37.848   2.685
71868W        W44183  18.067  17.148  11.418
71869W        W44184  38.524  42.422   0.475
71870W        W44185  18.760  29.533   3.320
71871W        W44186  21.262  18.713  13.036
71872W        W44187  37.946  23.591   5.261
71873W        W44188  15.815  18.212   9.991
71874W        W44189  14.825  31.410  13.414
71875W        W44190  15.324  40.799   1.441
71876W        W44191  30.549  37.879   0.270
71877W        W44192   1.392  28.457  11.994
71878W        W44193  31.911  23.695  12.339
71879W        W44194  38.005  37.382  11.542
71880W        W44195  32.586  26.574   3.814
71881W        W44196  34.885  18.258   4.314
71882W        W44197  10.840  11.280   2.851
71883W        W44198   4.741   8.749   1.769
71884W        W44199  13.842  12.617  10.541
71885W        W44200  31.023  21.698   0.334
71886W        W44201  13.671  40.949   0.288
71887W        W44202  25.174  20.656   3.238
71888W        W44203  20.065  15.604   2.362
71889W        W44204  29.920   2.400   0.736
71890W        W44205  14.211  26.986  11.471
71891W        W44206   5.915  31.972  12.580
71892W        W44207  10.266  22.596   2.339
71893W        W44208  31.124   5.856  14.460
71894W        W44209  24.230  18.693   2.273
71895W        W44210  22.006   9.340   4.162
71896W        W44211  36.356  40.997   3.247
71897W        W44212   3.900  23.202  14.969
71898W        W44213  36.507  30.509   4.629
71899W        W44214  20.186   4.786   1.874
71900W        W44215  16.224   0.406  12.869
71901W        W44216  34.462   8.888   1.910
71902W        W44217  29.640  39.530   1.907
71903W        W44218   6.233   3.825   0.419
71904W        W44219   0.977   7.667  12.938
71905W        W44220  43.394  19.128   4.283
71906W        W44221  11.815   7.758   4.287
71907W        W44222  13.697  39.981   4.676
71908W        W44223  14.275   5.263  11.571
71909W        W44224  41.487  23.574  12.517
71910W        W44225  28.009  34.111   3.832
71911W        W44226  11.186  26.599   1.834
71912W        W44227  34.534  26.985   2.392
71913W        W44228  11.821  29.471  11.869
71914W        W44229  18.604   7.331  14.895
71915W        W44230   4.698  21.684   0.266
71916W        W44231  36.066  24.688   4.253
71917W        W44232  40.021  34.477  10.980
71918W        W44233  41.522  33.478  13.877
71919W        W44234   7.878   8.264  13.487
71920W        W44235  13.341  34.596  12.345
71921W        W44236  38.503  21.241   1.291
71922W        W44237   5.756  25.976  11.425
71923W        W44238  18.621  29.077   0.338
71924W        W44239  26.046   8.696   1.363
71925W        W44240  24.197  26.037  11.015
71926W        W44241  13.305  14.325   0.791
71927W        W44242  10.314  33.440   0.797
71928W        W44243   2.964  44.282   4.655
71929W        W44244  24.006  43.329  11.486
71930W        W44245  41.981   3.447  12.889
71931W        W44246  43.286  21.088   2.818
71932W        W44247  41.044  37.580  12.876
71933W        W44248  40.810  11.655   0.392
71934W        W44249  29.532  15.805   4.327
71935W        W44250  35.424  25.606   1.452
71936W        W44251  36.035  40.039  14.288
71937W        W44252   4.841  25.684  12.505
71938W        W44253  43.975  37.892  14.416
71939W        W44254  19.104  33.016   0.320
71940W        W44255  38.379  24.587  13.055
71941W        W44256   8.693   8.324  12.869
71942W        W44257  14.102  15.181   2.895
71943W        W44258  12.744  12.611   2.689
71944W        W44259  15.132   4.812   2.335
71945W        W44260  32.986  20.127  12.523
71946W        W44261  19.564  28.577   0.325
71947W        W44262  33.989  40.849  10.563
71948W        W44263   5.785  38.419  11.049
71949W        W44264  17.773  14.164  14.306
71950W        W44265  19.116  35.077  13.355
71951W        W44266  11.254  43.906   4.232
71952W        W44267   2.437   2.373  11.519
71953W        W44268  26.007  13.754  12.520
71954W        W44269   5.285  36.079   2.346
71955W        W44270   0.333  35.452   0.840
71956W        W44271  28.471  14.321  10.611
71957W        W44272   2.951   1.824   2.840
71958W        W44273   9.793  14.617   3.639
71959W        W44274  14.800  37.404   3.672
71960W        W44275  33.071   4.368  13.910
71961W        W44276  21.608  16.166   2.734
71962W        W44277  24.654  38.415  12.523
71963W        W44278  38.548  26.045  14.008
71964W        W44279  16.279  41.802  13.807
71965W        W44280   3.795   2.953   2.303
71966W        W44281  32.556  14.729  12.901
71967W        W44282  19.045  38.895   4.683
71968W        W44283   9.854  40.987  14.815
71969W        W44284  28.535  12.803   1.881
71970W        W44285  30.113   9.649   3.638
71971W        W44286  19.689  26.684  14.297
71972W        W44287  21.246  30.082  13.898
71973W        W44288   7.671  40.856   3.705
71974W        W44289   9.735   6.706  11.972
71975W        W44290  36.881  30.557   1.273
71976W        W44291   8.900  10.331  14.425
71977W        W44292  41.500  36.584   5.255
71978W        W44293   5.425  24.589   0.409
71979W        W44294  14.638  43.856  14.457
71980W        W44295   2.273  20.146   4.125
71981W        W44296   9.647  11.859  14.959
71982W        W44297  41.016  31.946  10.099
71983W        W44298  12.281  22.538  10.533
71984W        W44299  10.237   3.331  14.326
71985W        W44300  30.912  20.114   3.218
71986W        W44301   9.294   7.743   1.356
71987W        W44302  34.089  41.023  13.003
71988W        W44303  18.268  30.658   2.407
71989W        W44304  39.486  26.082   5.642
71990W        W44305   5.249   7.251  13.045
71991W        W44306  38.487   6.867  14.976
71992W        W44307  17.646  18.576  12.518
71993W        W44308  29.660  14.136  11.539
71994W        W44309  19.137   5.804   3.863
71995W        W44310  30.976  41.867  10.959
71996W        W44311  21.106  36.405  12.366
71997W        W44312   3.858  23.115  11.394
71998W        W44313   6.187  17.722   1.813
71999W        W44314  12.286  43.838   3.859
72000W        W44315  40.328  26.633   0.290
72001W        W44316  25.507   0.319   4.144
72002W        W44317  23.517  10.672   1.718
72003W        W44318  37.474  12.718   3.199
72004W        W44319  41.795   8.393  12.914
72005W        W44320  14.727  33.469  11.109
72006W        W44321  37.446   7.693   4.144
72007W        W44322  20.740   5.373  10.636
72008W        W44323  18.097  11.285  12.030
72009W        W44324  44.349  19.192  13.817
72010W        W44325  40.407  27.476   0.271
72011W        W44326  11.730  37.007   0.423
72012W        W44327  24.092  42.798  10.458
72013W        W44328  25.699  18.654  13.025
72014W        W44329  43.847  21.611  11.986
72015W        W44330   7.902   5.211   3.676
72016W        W44331  35.558   8.758   5.127
72017W        W44332  37.447  39.468   1.324
72018W        W44333   0.964  12.254  14.817
72019W        W44334  38.472  23.051   3.270
72020W        W44335  19.065  13.812   3.166
72021W        W44336   6.192  24.681   1.848
72022W        W44337  16.313  23.617   2.395
72023W        W44338  39.970  17.170  11.066
72024W        W44339   1.767   6.686   0.953
72025W        W44340  26.687   7.252   4.623
72026W        W44341  14.228   5.761  10.919
72027W        W44342  43.294   2.921   0.768
72028W        W44343  34.978   7.238   1.867
72029W        W44344   9.245  35.549   4.782
72030W        W44345  13.803   8.354  12.825
72031W        W44346   8.832  43.307  10.442
72032W        W44347  35.856   0.851  11.934
72033W        W44348   0.892   9.737  10.536
72034W        W44349  42.509  36.491  10.433
72035W        W44350  34.107  41.390  14.421
72036W        W44351  40.929  42.931  10.445
72037W        W44352  12.707  43.426  11.882
72038W        W44353  23.711  19.534   4.799
72039W        W44354   5.695  33.420  13.544
72040W        W44355  33.006  13.311   3.189
72041W        W44356  19.186  17.093  10.544
72042W        W44357  18.169  11.785   3.667
72043W        W44358  27.182  23.075   4.230
72044W        W44359  11.623  28.679   1.813
72045W        W44360  30.468  23.617   3.824
72046W        W44361  41.011  36.060  12.947
72047W        W44362  25.971  35.023   0.940
72048W        W44363  23.217  11.198  11.118
72049W        W44364  25.683  12.131  10.919
72050W        W44365  21.196  17.632   2.219
72051W        W44366  12.209  14.304   3.663
72052W        W44367   7.359  24.522  13.523
72053W        W44368  28.441  38.505   0.731
72054W        W44369  15.169   3.415  12.486
72055W        W44370   6.182  26.625  14.290
72056W        W44371  16.760   7.331  12.981
72057W        W44372  39.484  32.014   9.958
72058W        W44373  11.802  25.605   0.790
72059W        W44374  38.829  40.891  11.079
72060W        W44375   5.374   5.430   1.367
72061W        W44376  41.878  43.491   0.293
72062W        W44377   5.804   2.887  14.022
72063W        W44378  36.387  40.413   2.277
72064W        W44379  16.104  35.033   2.791
72065W        W44380  11.705  17.778   2.830
72066W        W44381   6.783  34.506  12.498
72067W        W44382  27.197  23.219  14.403
72068W        W44383  26.182   3.738  13.845
72069W        W44384   2.398  44.491   2.842
72070W        W44385  38.403   8.230   2.180
72071W        W44386  35.591  11.643   2.690
72072W        W44387  43.923  13.263  12.450
72073W        W44388  30.584  22.132   4.182
72074W        W44389  20.214  13.685  12.092
72075W        W44390   8.788  16.095   4.298
72076W        W44391   0.774  37.568  10.461
72077W        W44392   3.344  35.496   0.334
72078W        W44393  32.551   5.203   4.176
72079W        W44394  27.520  44.365  12.888
72080W        W44395  30.926  23.008   0.472
72081W        W44396  42.853  32.940   1.869
72082W        W44397  17.064   2.917  12.575
72083W        W44398  17.726  19.615  10.507
72084W        W44399   3.298  19.616   0.271
72085W        W44400  13.211  14.227  12.861
72086W        W44401  21.691  23.678  13.420
72087W        W44402   6.910  20.134   3.316
72088W        W44403  17.120  17.079  10.452
72089W        W44404   0.841  14.758   0.811
72090W        W44405  19.280  28.154   3.342
72091W        W44406  12.817  38.463   4.199
72092W        W44407  22.665   1.926  12.466
72093W        W44408  27.130   2.299   0.966
72094W        W44409  15.807  40.381  11.576
72095W        W44410  33.995  36.892  12.544
72096W        W44411  43.894  40.882  10.459
72097W        W44412  33.399   0.405  10.927
72098W        W44413   0.423  11.634   0.424
72099W        W44414  38.060  36.843   3.242
72100W        W44415  15.209  36.373  14.980
72101W        W44416  28.033  38.895   3.826
72102W        W44417   3.814  25.190  11.053
72103W        W44418   5.814  35.961  14.800
72104W        W44419  26.080  14.144  11.026
72105W        W44420  33.403  42.448   0.917
72106W        W44421  18.117  36.868  12.853
72107W        W44422  26.056  19.630  12.830
72108W        W44423  37.954  44.823   4.672
72109W        W44424   4.853  28.466   2.695
72110W        W44425  24.489  16.623  14.902
72111W        W44426  10.225  26.159   0.764
72112W        W44427  25.007  33.495   5.176
72113W        W44428  22.653  41.962  10.459
72114W        W44429  30.444   8.368  14.980
72115W        W44430   7.855   6.209   5.315
72116W        W44431  30.911   5.908  10.541
72117W        W44432   6.368   5.832  11.924
72118W        W44433  35.928  29.465  13.899
72119W        W44434  14.652   5.833   0.740
72120W        W44435  19.655  29.174   1.816
72121W        W44436  15.198  21.662  14.309
72122W        W44437   4.308  18.105   4.336
72123W        W44438   0.839  19.718   3.249
72124W        W44439  35.435   1.257  13.360
72125W        W44440   6.333   2.278  10.489
72126W        W44441   3.356  33.096  10.930
72127W        W44442  13.322   1.295  11.091
72128W        W44443  33.432  24.486  13.903
72129W        W44444  42.374  34.928  14.022
72130W        W44445  16.144  19.712   2.678
72131W        W44446  26.188  19.075  13.008
72132W        W44447  30.109  42.443  12.524
72133W        W44448  29.572  24.494  13.848
72134W        W44449   9.867  41.507   2.884
72135W        W44450   8.203   3.387   3.156
72136W        W44451  27.511  33.624  11.549
72137W        W44452  21.158  15.320   4.634
72138W        W44453  15.266  43.809  14.839
72139W        W44454   2.910  13.212   0.364
72140W        W44455  14.603  36.095   2.351
72141W        W44456  37.547  10.204  14.958
72142W        W44457   6.687   8.216   2.375
72143W        W44458  23.591  18.198   9.954
72144W        W44459   4.897  42.459  13.478
72145W        W44460  37.562  39.936   3.796
72146W        W44461   5.225  18.263   1.446
72147W        W44462  16.088  43.474   4.644
72148W        W44463  17.210   2.751  14.945
72149W        W44464  17.305  24.050  13.993
72150W        W44465  20.589  32.397  14.888
72151W        W44466  20.070  24.535  14.875
72152W        W44467  43.947  38.922  11.981
72153W        W44468  14.643   0.859  13.950
72154W        W44469  22.559  19.104   9.535
72155W        W44470  38.456   5.423   3.735
72156W        W44471  29.168  23.035   1.320
72157W        W44472  28.621   1.943   3.344
72158W        W44473  18.572  21.722   1.904
72159W        W44474   8.804  43.365   1.821
72160W        W44475   6.278  24.997   4.630
72161W        W44476  17.798   2.312  14.826
72162W        W44477   2.921  34.431  11.993
72163W        W44478  11.342  35.928  12.025
72164W        W44479  26.130  16.722  13.791
72165W        W44480   6.302   1.384  13.506
72166W        W44481  39.906  34.965   4.704
72167W        W44482  15.284  17.800   0.863
72168W        W44483  15.176   1.477   4.716
72169W        W44484  38.065  24.653  12.945
72170W        W44485  38.502  38.888  11.908
72171W        W44486  13.681  35.951   4.679
72172W        W44487  41.979   0.254   2.810
72173W        W44488  10.639  27.536  14.489
72174W        W44489  41.332  10.686   1.232
72175W        W44490   6.847  26.998  14.030
72176W        W44491  22.132   7.400   2.817
72177W        W44492  19.770  19.063  11.038
72178W        W44493  31.901  11.244   0.916
72179W        W44494  35.502  16.744  13.957
72180W        W44495  31.979  40.401  13.307
72181W        W44496  12.757  35.925   2.194
72182W        W44497  36.980   5.248  12.444
72183W        W44498  32.598   9.685   4.188
72184W        W44499  33.387  23.080  11.067
72185W        W44500  11.159  31.998   0.954
72186W        W44501  19.667  41.814   1.772
72187W        W44502  40.955  12.299  12.365
72188W        W44503  40.939   7.211  14.391
72189W        W44504  25.624  24.228   4.124
72190W        W44505   7.249  38.478  10.984
72191W        W44506  36.949  38.007   0.428
72192W        W44507  44.941  33.432  14.907
72193W        W44508  16.309  26.983   3.205
72194W        W44509   9.722  18.558  11.446
72195W        W44510   5.227   2.805  11.595
72196W        W44511   3.259  33.986  11.379
72197W        W44512  22.536  22.078  13.054
72198W        W44513  14.299   4.852   4.796
72199W        W44514  26.078  14.133   0.251
72200W        W44515   5.816  39.390   2.187
72201W        W44516   8.396   2.412  11.952
72202W        W44517   9.663  40.888  11.439
72203W        W44518  42.009  30.113   0.376
72204W        W44519  33.580   3.359  12.865
72205W        W44520  19.562  14.775  10.934
72206W        W44521  17.147   4.852   2.235
72207W        W44522  33.489  11.174   4.743
72208W        W44523  11.194   4.234  11.006
72209W        W44524   5.735  36.444   2.697
72210W        W44525   5.860  19.043  13.019
72211W        W44526  15.587  18.146  12.427
72212W        W44527   9.394  20.054   0.958
72213W        W44528  17.216  17.105  14.447
72214W        W44529  15.228  32.053  11.595
72215W        W44530  10.726   7.744  14.957
72216W        W44531  12.287  22.644  13.982
72217W        W44532   8.191  17.743  11.542
72218W        W44533  34.058  17.171  10.454
72219W        W44534  15.618  30.434  12.964
72220W        W44535  29.489  21.059  13.011
72221W        W44536  31.550  27.062  11.426
72222W        W44537   3.812   4.301   1.233
72223W        W44538  12.703   0.334   0.483
72224W        W44539  39.030  44.443  14.769
72225W        W44540  19.537  37.574   0.821
72226W        W44541  14.691  42.861   0.759
72227W        W44542  26.207  25.082   4.216
72228W        W44543  43.806  44.370   2.294
72229W        W44544   6.237  10.239  13.924
72230W        W44545   9.219  24.544  14.030
72231W        W44546  23.128  34.404  11.594
72232W        W44547  32.955  42.369  11.912
72233W        W44548  11.174  25.988   4.834
72234W        W44549  18.780   8.717  12.942
72235W        W44550  34.056  36.081  13.981
72236W        W44551  18.678   7.684   4.699
72237W        W44552  19.215  25.020  12.985
72238W        W44553  12.337  24.079   0.263
72239W        W44554  29.431  13.127   3.173
72240W        W44555  32.069  16.248   1.242
72241W        W44556  35.032  26.145  11.569
72242W        W44557   7.822  10.808   4.836
72243W        W44558   1.352  24.545  13.976
72244W        W44559  37.952   2.929  12.896
72245W        W44560  39.929  43.980  13.024
72246W        W44561  20.204  41.802   1.734
72247W        W44562  12.731   2.844  12.908
72248W        W44563  14.145  14.597   3.725
72249W        W44564  35.088  16.711  11.556
72250W        W44565  19.161  16.625  13.365
72251W        W44566  14.284  38.884  11.560
72252W        W44567  32.396  43.339  12.456
72253W        W44568  43.999  19.587  10.923
72254W        W44569  22.692  14.752   4.703
72255W        W44570  31.635  27.174  10.580
72256W        W44571  15.699   9.194  10.530
72257W        W44572  43.327  38.942  12.054
72258W        W44573  28.670  16.097   2.732
72259W        W44574  36.374   4.874  11.530
72260W        W44575  43.320  23.722  14.461
72261W        W44576  29.585  19.581  14.874
72262W        W44577   8.347  21.735   0.776
72263W        W44578   5.257   4.330  10.920
72264W        W44579  39.505  11.804  11.526
72265W        W44580  19.087  23.596   1.210
72266W        W44581  30.432   0.487   1.237
72267W        W44582  44.316  10.274   0.470
72268W        W44583   5.921  37.366   4.762
72269W        W44584  30.024  26.022  11.056
72270W        W44585  23.241  23.110  14.863
72271W        W44586  33.123  19.614  13.823
72272W        W44587  20.085   4.766  10.430
72273W        W44588  20.649  19.220  11.484
72274W        W44589   1.478  14.815   1.732
72275W        W44590  10.799  17.743  10.001
72276W        W44591  25.199  29.931   3.325
72277W        W44592  37.409   4.874  12.960
72278W        W44593  27.470  36.477   0.835
72279W        W44594  14.804  21.246   0.968
72280W        W44595  13.729  32.519   4.204
72281W        W44596   9.703   1.453   3.254
72282W        W44597   9.284  12.739  14.879
72283W        W44598  10.140  42.464   0.810
72284W        W44599  44.354  40.470   3.265
72285W        W44600  26.550  15.659   0.842
72286W        W44601  42.470  31.601  11.007
72287W        W44602  12.249  42.360  11.938
72288W        W44603  27.136  34.504  12.361
72289W        W44604  27.654   3.899  10.004
72290W        W44605  41.403   5.423   0.385
72291W        W44606  31.129  22.624   3.162
72292W        W44607  32.017  38.463  12.914
72293W        W44608  27.049  11.687   3.751
72294W        W44609  10.730  13.710   0.309
72295W        W44610   5.841  29.564   2.878
72296W        W44611   2.288  18.645  11.394
72297W        W44612  34.593  22.129   2.297
72298W        W44613  17.661   7.387   0.271
72299W        W44614  23.573  22.631  13.502
72300W        W44615  14.189  20.742  11.029
72301W        W44616  43.788  14.681   2.254
72302W        W44617  29.669  35.036  11.507
72303W        W44618  17.761  11.177   5.685
72304W        W44619  42.782  20.047   1.373
72305W        W44620  17.119  30.098  13.542
72306W        W44621  28.979  28.653   1.236
72307W        W44622  20.216  22.056   4.764
72308W        W44623  21.564  44.796  10.519
72309W        W44624  30.604  25.658  12.462
72310W        W44625   8.820  11.342   1.891
72311W        W44626  14.621  23.232   2.207
72312W        W44627  34.869  27.556   0.766
72313W        W44628  10.301  42.938  11.045
72314W        W44629  10.843  36.588   4.810
72315W        W44630  41.497  18.163   4.597
72316W        W44631  39.339   5.692   2.765
72317W        W44632  13.842  10.703  12.499
72318W        W44633  28.622  29.597   3.770
72319W        W44634  12.251  14.643   1.792
72320W        W44635  32.133  16.720   1.719
72321W        W44636   1.975  12.808  10.495
72322W        W44637  21.134  29.129  14.918
72323W        W44638  30.935  31.511   3.738
72324W        W44639  16.759   5.299  10.917
72325W        W44640   9.812   8.797   2.724
72326W        W44641  16.753  35.893   4.728
72327W        W44642  28.003   4.716  11.453
72328W        W44643  25.193  43.349   4.802
72329W        W44644  23.726  27.620   4.828
72330W        W44645  35.893  44.286   1.869
72331W        W44646  35.858  19.084  11.883
72332W        W44647   2.879  28.023  11.435
72333W        W44648  26.963  13.282   2.771
72334W        W44649  11.703  13.303  10.965
72335W        W44650   1.480  15.597  14.896
72336W        W44651  39.455  37.528   4.765
72337W        W44652   8.191  30.996   2.814
72338W        W44653  23.032  13.782   2.853
72339W        W44654  27.558   4.412   0.346
72340W        W44655  25.078   1.940   3.248
72341W        W44656  21.620  12.328  10.486
72342W        W44657  25.576  43.964   4.313
72343W        W44658   6.197  22.614   3.771
72344W        W44659  19.618  42.786  14.413
72345W        W44660  35.857  32.038   2.363
72346W        W44661  40.508  14.313  13.393
72347W        W44662  28.600   4.804  13.898
72348W        W44663  37.842   1.266  10.504
72349W        W44664   9.296  22.186  13.937
72350W        W44665  34.889  43.992  13.824
72351W        W44666   7.842  40.548   3.700
72352W        W44667  31.036  23.530  11.587
72353W        W44668  32.504  42.946   1.825
72354W        W44669  38.516   2.289  11.608
72355W        W44670  34.988   7.172   1.263
72356W        W44671   2.761  12.204  13.420
72357W        W44672  30.415  10.771   1.276
72358W        W44673   2.803   0.956   2.860
72359W        W44674  15.206  10.328  14.902
72360W        W44675  30.599  42.967   2.254
72361W        W44676  14.310  28.444  12.995
72362W        W44677  25.498  25.609   1.443
72363W        W44678  40.921  38.450   3.331
72364W        W44679  31.144  28.005   1.740
72365W        W44680  11.219  32.567   0.870
72366W        W44681  32.391  10.163  12.537
72367W        W44682  14.314   9.656  10.406
72368W        W44683   2.437   0.920   1.426
72369W        W44684  19.639   0.320   1.841
72370W        W44685  15.124  25.127   0.923
72371W        W44686  26.958  37.361  12.532
72372W        W44687  17.631  33.933  10.419
72373W        W44688   6.805  30.597   2.711
72374W        W44689  39.406  36.566   2.682
72375W        W44690  25.639  13.813  14.319
72376W        W44691  34.402  40.977   2.267
72377W        W44692  18.598  24.592   3.149
72378W        W44693  38.379  31.053  14.351
72379W        W44694  33.963  44.836  14.353
72380W        W44695  12.625  42.783  11.935
72381W        W44696  32.454  33.585   1.826
72382W        W44697  37.536  40.449  12.342
72383W        W44698  13.115   0.801  10.557
72384W        W44699  20.734   6.732  11.910
72385W        W44700  17.238   6.879  12.951
72386W        W44701   8.659  43.845   4.287
72387W        W44702  18.079   5.835  10.418
72388W        W44703  26.162  13.276   4.204
72389W        W44704   9.644  28.459  12.541
72390W        W44705  15.306   5.827  13.529
72391W        W44706  31.067  20.251   1.450
72392W        W44707  21.214  17.772  12.055
72393W        W44708  39.343  22.095  11.437
72394W        W44709   5.832  22.061   2.732
72395W        W44710  30.060  35.917  11.905
72396W        W44711  12.324  38.960  11.500
72397W        W44712  35.906  38.930  12.829
72398W        W44713   9.853  44.785  11.885
72399W        W44714   7.804  21.020  14.374
72400W        W44715  17.122  29.661  12.969
72401W        W44716  22.121  23.598   4.614
72402W        W44717  23.497   8.266  11.486
72403W        W44718  20.267  35.457  14.019
72404W        W44719  32.057  24.628  14.867
72405W        W44720  11.690  21.231  12.468
72406W        W44721  23.222  21.711   3.835
72407W        W44722  36.035  13.667   0.784
72408W        W44723  33.570  15.635  13.051
72409W        W44724  23.030  27.093   2.801
72410W        W44725  19.618  15.765   1.293
72411W        W44726  34.572   5.209   1.827
72412W        W44727  18.115  34.541  12.971
72413W        W44728  38.417  10.330  12.481
72414W        W44729   2.819  12.747  14.281
72415W        W44730  40.958  38.986  10.492
72416W        W44731  16.122  15.106  10.463
72417W        W44732  35.536  16.249   3.304
72418W        W44733  29.995  19.145   2.354
72419W        W44734  28.129  42.319   2.868
72420W        W44735  26.041   0.460   2.882
72421W        W44736  22.624  21.529  10.584
72422W        W44737  17.680  36.976  10.447
72423W        W44738  30.615  22.235   0.746
72424W        W44739  26.173   9.798  13.013
72425W        W44740   2.407  35.064   2.720
72426W        W44741  25.172  29.629   4.759
72427W        W44742  20.555  29.543   3.692
72428W        W44743  17.094   0.341  14.878
72429W        W44744  24.082  40.339  14.940
72430W        W44745  16.240  21.196   2.294
72431W        W44746  36.852  10.343  10.415
72432W        W44747  10.192  17.633  12.539
72433W        W44748  34.914   6.692  14.839
72434W        W44749  34.948  24.578  12.449
72435W        W44750  28.035  14.752   1.749
72436W        W44751  34.390  30.004   1.278
72437W        W44752   2.321  44.441  13.821
72438W        W44753  37.360   7.307  14.407
72439W        W44754  23.011   0.752   9.933
72440W        W44755  14.604   2.335   2.409
72441W        W44756   4.702  15.253   4.213
72442W        W44757  40.335  41.371  14.938
72443W        W44758  32.528  28.649   1.418
72444W        W44759   3.373   2.291   5.194
72445W        W44760  38.013  20.710  14.373
72446W        W44761  28.127  23.642  12.974
72447W        W44762   9.850  35.481  13.793
72448W        W44763  17.602   1.906  13.440
72449W        W44764  22.636   5.288  10.887
72450W        W44765   7.786  38.332  10.891
72451W        W44766   8.799  40.388  13.844
72452W        W44767  10.660  42.844  11.116
72453W        W44768  18.732  26.616   3.171
72454W        W44769  25.075  34.518   4.605
72455W        W44770  14.258   5.932   0.914
72456W        W44771  25.123  29.565   0.433
72457W        W44772  36.478  39.048  12.973
72458W        W44773  28.437  44.860  10.527
72459W        W44774   0.256  12.856   4.815
72460W        W44775  23.037  23.556   0.268
72461W        W44776   2.732  41.512   1.873
72462W        W44777  11.839  24.535  11.065
72463W        W44778  42.303  38.968  12.457
72464W        W44779  22.723   9.748  12.490
72465W        W44780  28.182  11.682  10.442
72466W        W44781  23.655  23.021  14.486
72467W        W44782  21.073  12.818   0.745
72468W        W44783  44.417   2.921  13.482
72469W        W44784  11.326   9.211  13.437
72470W        W44785  26.618  24.508   2.397
72471W        W44786   6.867   3.884   1.212
72472W        W44787   1.889  35.026  12.517
72473W        W44788  30.574  28.661  12.369
72474W        W44789  20.049  39.978  13.795
72475W        W44790  40.323  31.077   1.387
72476W        W44791  31.944   6.183   3.369
72477W        W44792   1.376  23.652  13.407
72478W        W44793  26.126  25.475   0.250
72479W        W44794  23.715  42.344  13.390
72480W        W44795  26.578  42.871   0.333
72481W        W44796  38.519  17.100   1.354
72482W        W44797  18.726  29.060   5.109
72483W        W44798  26.516  15.630  12.848
72484W        W44799   3.415  17.630   0.283
72485W        W44800  40.001   4.276  11.069
72486W        W44801  34.022  44.400  10.049
72487W        W44802  28.182  27.984   1.738
72488W        W44803  17.098  14.686  13.837
72489W        W44804  32.582  43.012  13.906
72490W        W44805  43.867  21.170  13.895
72491W        W44806  14.323   7.317   0.309
72492W        W44807  26.491   3.712   4.698
72493W        W44808  41.814  37.432  12.004
72494W        W44809  15.655   5.274  12.843
72495W        W44810  16.650  30.118  14.306
72496W        W44811  41.952  24.091   0.266
72497W        W44812  36.917  19.603   4.145
72498W        W44813  37.345  22.103  14.496
72499W        W44814  24.225  44.332  10.492
72500W        W44815  34.113  14.613  14.470
72501W        W44816   2.436  19.100  11.568
72502W        W44817  21.107  27.983  14.906
72503W        W44818   1.475  29.133  12.344
72504W        W44819  37.449   2.380  13.434
72505W        W44820  22.999  17.164   3.744
72506W        W44821  24.561  24.580   4.241
72507W        W44822   3.270  31.550  10.978
72508W        W44823  11.247  33.893  11.084
72509W        W44824   2.816   8.404   4.183
72510W        W44825  15.751  18.784  11.881
72511W        W44826  41.018  42.388  12.849
72512W        W44827  18.731  15.793  14.468
72513W        W44828  37.837  41.338  12.465
72514W        W44829  15.763   8.731  11.527
72515W        W44830  36.392  36.445  12.875
72516W        W44831  30.923  41.335  11.383
72517W        W44832  30.917  44.426  13.512
72518W        W44833  36.583  19.754   5.287
72519W        W44834  37.553  27.109   1.295
72520W        W44835  37.440  29.015  11.079
72521W        W44836   2.401   7.365   1.336
72522W        W44837   5.904  44.403   4.831
72523W        W44838  27.055  26.972   2.270
72524W        W44839  35.579  12.123  10.601
72525W        W44840  33.562   7.223  12.362
72526W        W44841   5.400  29.153  11.612
72527W        W44842  32.140  32.563   1.217
72528W        W44843  40.517  26.492  14.000
72529W        W44844  28.482  13.807   2.402
72530W        W44845  14.258  23.130  13.927
72531W        W44846  36.553  39.999  14.914
72532W        W44847  38.066   6.768  13.309
72533W        W44848   0.795  24.566   3.381
72534W        W44849  13.276  12.694   2.892
72535W        W44850  16.619   2.829  13.975
72536W        W44851  20.723  25.061   1.303
72537W        W44852  15.147  10.178   1.756
72538W        W44853   3.215  35.061   4.605
72539W        W44854  14.791   0.766   4.814
72540W        W44855  10.810  33.494  13.917
72541W        W44856  42.929  41.890   2.880
72542W        W44857  41.899  42.455  10.620
72543W        W44858  35.897  25.218  11.579
72544W        W44859  33.459  31.564   4.192
72545W        W44860  12.806  14.673  11.583
72546W        W44861  11.839  30.496   3.658
72547W        W44862  22.500  26.695   4.150
72548W        W44863  22.564  29.557  12.500
72549W        W44864   6.219  34.565   1.726
72550W        W44865   5.197  26.023   2.819
72551W        W44866  38.534   6.687  10.946
72552W        W44867  11.230  38.003  14.464
72553W        W44868   4.307  26.027  11.992
72554W        W44869  14.139  42.010   1.879
72555W        W44870  26.674  35.423   0.459
72556W        W44871  23.654  37.380  11.871
72557W        W44872  40.873  23.162   1.881
72558W        W44873  38.398  27.078   4.216
72559W        W44874   7.790   5.794   2.317
72560W        W44875  28.070   1.241  14.315
72561W        W44876  28.543   8.842  10.979
72562W        W44877  36.528  22.526   9.929
72563W        W44878  40.918  32.897  11.955
72564W        W44879  43.315  33.986   3.653
72565W        W44880  33.891  33.429  12.861
72566W        W44881  40.937   7.789  12.083
72567W        W44882  18.605  21.749   3.281
72568W        W44883  29.540   6.385   3.308
72569W        W44884  31.624   9.760  11.036
72570W        W44885   6.327  34.945   0.817
72571W        W44886  22.699  38.358   2.694
72572W        W44887  44.872  41.978  10.484
72573W        W44888  18.221   7.709  10.979
72574W        W44889   5.347  15.175   1.445
72575W        W44890   4.834  23.204  10.602
72576W        W44891  23.146  30.593   0.799
72577W        W44892  10.242  15.324  11.867
72578W        W44893  31.439  15.578   2.365
72579W        W44894  21.164  25.993   2.223
72580W        W44895  20.656  42.363  13.369
72581W        W44896  24.644  12.251   3.168
72582W        W44897  30.969   1.454  13.999
72583W        W44898  44.500   3.374  14.463
72584W        W44899  14.598  40.377  12.514
72585W        W44900  34.046  18.726  12.450
72586W        W44901  41.902  36.379  14.453
72587W        W44902  38.329  40.342   0.784
72588W        W44903  22.743  11.625  11.110
72589W        W44904  42.842  27.671   0.406
72590W        W44905  31.138  23.651   1.730
72591W        W44906   3.758  12.798  13.825
72592W        W44907  21.628   2.350   0.815
72593W        W44908  20.092  21.621   4.283
72594W        W44909  13.623  33.493   4.618
72595W        W44910  28.078  25.697   4.175
72596W        W44911  32.589   3.258   1.216
72597W        W44912  10.656  33.409   1.216
72598W        W44913  26.205  33.403  14.814
72599W        W44914  38.474  36.368   2.371
72600W        W44915   9.662   1.826   2.747
72601W        W44916  14.611   9.298  13.037
72602W        W44917  24.697   7.323  10.558
72603W        W44918  15.295  41.022  13.959
72604W        W44919  34.977  22.630   5.143
72605W        W44920  24.676  44.965   3.752
72606W        W44921  17.724   7.339  13.381
72607W        W44922  31.139  31.506  14.954
72608W        W44923  44.300  18.764   3.857
72609W        W44924  35.454   9.672  12.405
72610W        W44925   9.712  27.524   0.947
72611W        W44926  44.404  37.573  11.125
72612W        W44927  40.013   7.312  13.943
72613W        W44928  14.319  13.147  13.006
72614W        W44929  30.455  43.405   2.827
72615W        W44930  38.436  19.156   2.337
72616W        W44931  37.961   2.327   0.804
72617W        W44932  36.855  41.888   4.235
72618W        W44933  43.335  28.968  11.033
72619W        W44934  37.369   3.317  12.991
72620W        W44935   1.471   4.335   4.190
72621W        W44936  42.487  27.533   0.824
72622W        W44937  20.627  40.895   1.278
72623W        W44938  43.888  41.967   1.823
72624W        W44939   7.810  23.128  11.603
72625W        W44940  30.478  34.442  14.450
72626W        W44941   6.217   3.264  11.391
72627W        W44942  36.081  34.408   4.281
72628W        W44943  30.990  11.778   1.397
72629W        W44944  24.038  17.282  14.322
72630W        W44945  35.028  32.449  12.849
72631W        W44946  28.129  21.608  14.839
72632W        W44947   1.337   3.418   3.652
72633W        W44948  44.341  20.077   3.639
72634W        W44949  41.826  41.343  10.517
72635W        W44950  27.474  36.407   4.169
72636W        W44951  17.204   5.723  11.557
72637W        W44952  19.216  22.684   2.384
72638W        W44953  14.272  11.149   0.320
72639W        W44954  30.448   4.799  11.577
72640W        W44955   4.378  29.588   3.360
72641W        W44956  42.002  30.081  12.866
72642W        W44957  23.231  10.725   1.446
72643W        W44958   6.201  17.581   0.851
72644W        W44959  18.223   1.788  14.464
72645W        W44960   6.309   0.423  10.446
72646W        W44961  31.557   6.425  13.474
72647W        W44962   6.397  28.589  10.475
72648W        W44963  18.110  12.768  12.396
72649W        W44964  39.006  20.563   4.758
72650W        W44965  24.591  23.178   3.790
72651W        W44966  20.671  10.755  12.947
72652W        W44967  11.326  30.616  11.878
72653W        W44968  14.222  35.387   3.151
72654W        W44969  17.644  39.846  13.909
72655W        W44970   1.811  27.622   2.204
72656W        W44971   4.408  28.532   3.287
72657W        W44972  42.010  22.502   4.814
72658W        W44973  30.098   0.880   1.841
72659W        W44974  33.512  27.028   1.333
72660W        W44975  21.597  10.688   1.253
72661W        W44976  35.527  23.514  10.922
72662W        W44977  20.731  30.137   2.742
72663W        W44978   1.468  35.958  13.484
72664W        W44979  41.325   5.852  14.494
72665W        W44980  19.063  37.027   0.317
72666W        W44981  42.352   5.921  13.979
72667W        W44982  30.124  40.876  11.523
72668W        W44983  35.499  42.003  10.441
72669W        W44984  31.942  43.324   2.272
72670W        W44985  17.221  12.692   3.302
72671W        W44986   9.747  14.602  12.071
72672W        W44987  23.620  43.490   2.722
72673W        W44988  17.191  40.353  11.886
72674W        W44989  23.602  18.255  10.907
72675W        W44990  28.135   2.356   0.300
72676W        W44991  24.055   1.945  11.003
72677W        W44992   2.453   9.790   3.708
72678W        W44993  19.736  28.938   3.258
72679W        W44994  41.497  36.947   0.791
72680W        W44995  23.000  34.497  12.536
72681W        W44996  36.447  18.105  14.919
72682W        W44997  31.537  22.070   1.407
72683W        W44998  31.505  23.603  10.627
72684W        W44999   1.854  28.013   1.720
72685W        W45000   9.242  20.092  13.809
72686W        W45001  36.910   6.685  12.823
72687W        W45002  34.499   3.763   1.745
72688W        W45003  17.269   7.849   4.807
72689W        W45004  20.653   8.190  10.110
72690W        W45005  17.272   0.965  13.540
72691W        W45006  31.411   2.724   4.747
72692W        W45007   0.964  43.337   0.809
72693W        W45008  16.306   2.408   1.255
72694W        W45009  43.404  28.652   3.332
72695W        W45010   2.237   3.747   2.665
72696W        W45011  41.494  29.130  11.472
72697W        W45012  15.642   5.416  13.941
72698W        W45013  36.446  37.952  13.439
72699W        W45014  38.435  38.825   0.445
72700W        W45015  42.902  38.413  13.984
72701W        W45016  13.137  37.963  11.877
72702W        W45017  43.949  27.529  14.828
72703W        W45018  17.613  34.464  14.001
72704W        W45019   4.911  39.841   2.204
72705W        W45020   3.867  15.308   3.370
72706W        W45021   9.315  39.878   0.316
72707W        W45022  28.042   6.354   3.658
72708W        W45023  37.350  38.835   2.767
72709W        W45024  19.211  43.314   0.729
72710W        W45025  15.766  39.464   0.886
72711W        W45026  27.685  16.752   4.207
72712W        W45027   9.184   4.336   0.266
72713W        W45028  11.733  17.299  11.513
72714W        W45029  41.399  19.649  13.404
72715W        W45030  36.364  18.127  12.352
72716W        W45031  43.917  16.269   2.888
72717W        W45032  15.688  16.152   3.337
72718W        W45033   0.867  10.690  12.095
72719W        W45034  21.736  41.942  13.052
72720W        W45035  36.444  37.476   4.806
72721W        W45036  16.658  12.188   0.881
72722W        W45037  38.377  36.911  14.301
72723W        W45038   8.719  22.251  13.015
72724W        W45039   4.205  27.665   2.389
72725W        W45040  17.147  36.016  11.535
72726W        W45041  28.070  32.097  13.883
72727W        W45042  34.111  10.164   0.314
72728W        W45043  24.126  35.362   1.907
72729W        W45044  29.605  13.243  13.330
72730W        W45045  35.464   3.906   4.636
72731W        W45046   6.348  18.733   2.690
72732W        W45047  13.337  27.634  13.808
72733W        W45048  28.619  30.142   0.916
72734W        W45049  24.054   8.172   4.182
72735W        W45050  14.335  30.131   2.226
72736W        W45051  19.165  25.060   2.385
72737W        W45052  19.745  14.142   0.851
72738W        W45053  36.887   1.851   3.735
72739W        W45054  37.349   1.359  13.532
72740W        W45055  28.170  11.296  10.567
72741W        W45056  43.304  15.818  14.403
72742W        W45057   5.797  17.737  11.867
72743W        W45058  11.700  31.477   1.243
72744W        W45059  42.912   8.709   4.653
72745W        W45060  27.044   7.412  12.868
72746W        W45061   3.751  44.418   3.851
72747W        W45062   8.293  42.004   3.235
72748W        W45063  23.646  42.316   3.343
72749W        W45064   9.229  36.421  14.979
72750W        W45065   2.261  14.332   3.194
72751W        W45066   8.720  42.022   4.771
72752W        W45067  27.638  33.050   4.224
72753W        W45068  14.317   5.222  13.963
72754W        W45069  24.999  36.354  11.021
72755W        W45070  37.896  41.529  11.595
72756W        W45071   8.822  34.086  14.761
72757W        W45072  27.148  14.302   2.832
72758W        W45073  27.086  14.820  10.511
72759W        W45074  18.617  17.173   0.453
72760W        W45075  16.150  27.607  10.099
72761W        W45076  19.180   1.319   3.203
72762W        W45077  31.021  40.037  10.498
72763W        W45078  24.700  11.700  10.917
72764W        W45079  11.206   6.221   4.201
72765W        W45080  12.618  11.343  11.445
72766W        W45081   3.220  14.258   4.216
72767W        W45082  39.875  29.580  12.341
72768W        W45083  23.104  31.096  10.952
72769W        W45084  12.185  32.121  14.442
72770W        W45085  16.110  10.792  10.542
72771W        W45086  41.032  18.185   1.425
72772W        W45087  25.635   4.871   3.702
72773W        W45088  26.074  22.599   3.323
72774W        W45089  33.014  33.069   0.335
72775W        W45090   7.852  13.645   0.784
72776W        W45091   6.906   9.370  14.022
72777W        W45092  34.049  37.563  11.972
72778W        W45093   4.737  39.929   1.433
72779W        W45094   2.350   5.317  11.907
72780W        W45095  24.975  41.970  11.488
72781W        W45096  33.018  21.084  13.348
72782W        W45097  13.349  44.420   0.887
72783W        W45098  19.677  38.877  10.914
72784W        W45099  36.098  26.498  14.776
72785W        W45100  26.133  31.990   5.803
72786W        W45101  31.972  10.233   2.879
72787W        W45102   3.909  40.817  12.550
72788W        W45103  34.454  29.151  12.925
72789W        W45104  27.029  15.781  13.454
72790W        W45105  14.213  18.686  14.875
72791W        W45106  16.112  37.561   1.341
72792W        W45107  34.521  15.590  12.896
72793W        W45108  29.651  43.016   4.768
72794W        W45109  33.567  14.685  11.555
72795W        W45110  17.275  13.639  13.957
72796W        W45111  35.374  21.259   3.688
72797W        W45112  39.987   2.876   3.147
72798W        W45113  24.540  29.952  13.405
72799W        W45114  37.426  22.564   0.310
72800W        W45115   1.440   9.691  12.409
72801W        W45116  38.866   0.943  10.070
72802W        W45117  16.752  13.826  12.476
72803W        W45118  34.528  28.676  13.887
72804W        W45119  29.048  28.970  10.604
72805W        W45120  44.932  35.543  14.933
72806W        W45121  33.544  31.096   3.371
72807W        W45122  14.822  13.273  14.324
72808W        W45123  22.612  22.068   4.800
72809W        W45124  30.103   7.356   3.630
72810W        W45125  28.982  44.438   2.842
72811W        W45126  10.275   5.901  14.759
72812W        W45127   7.359  27.461   1.781
72813W        W45128  38.016  23.138  10.910
72814W        W45129   8.294  11.300   0.950
72815W        W45130  13.152  28.983  14.804
72816W        W45131   3.311  24.023  11.082
72817W        W45132  38.496   1.327   3.153
72818W        W45133  32.928   0.273   2.407
72819W        W45134  36.484  36.573  14.958
72820W        W45135  23.719  15.269   0.265
72821W        W45136   4.852  18.101   4.746
72822W        W45137  31.913  24.506  14.466
72823W        W45138  36.584  15.126  14.306
72824W        W45139  18.674  10.241   2.727
72825W        W45140  41.010  40.004  14.837
72826W        W45141   1.408  36.871  12.908
72827W        W45142  14.339  19.733   3.263
72828W        W45143  24.615   2.852   1.913
72829W        W45144  37.054  16.230  13.388
72830W        W45145  31.974  17.064  11.129
72831W        W45146  26.060  38.907  14.381
72832W        W45147  17.573  23.728  10.437
72833W        W45148   0.397  38.398   0.733
72834W        W45149  34.369  36.591  14.783
72835W        W45150  26.618  37.894  12.571
72836W        W45151   0.483  42.947   2.193
72837W        W45152  44.267  17.159  14.425
72838W        W45153  37.038   9.291   3.211
72839W        W45154  39.902   1.447  14.993
72840W        W45155   2.870  12.656   2.874
72841W        W45156  37.485   5.247   1.859
72842W        W45157  42.886  24.070   0.309
72843W        W45158  42.966  36.898   4.204
72844W        W45159   0.832   8.781   3.682
72845W        W45160  30.425   4.771   2.208
72846W        W45161  33.914  23.066  12.933
72847W        W45162  21.627  18.122   4.135
72848W        W45163   8.364   7.372  14.377
72849W        W45164   8.344  32.614  10.485
72850W        W45165   1.323  24.994   3.276
72851W        W45166  29.147  19.137   3.152
72852W        W45167  29.629  23.547   5.136
72853W        W45168   1.781  17.781  12.483
72854W        W45169  41.392  15.584  12.487
72855W        W45170  18.751  15.149  13.972
72856W        W45171  36.048  24.691  11.432
72857W        W45172  19.633  36.928  13.352
72858W        W45173  11.372   4.741  12.075
72859W        W45174   0.327  24.708   1.258
72860W        W45175  40.501  16.317   0.757
72861W        W45176  43.317  25.030  13.040
72862W        W45177  35.517   5.423   4.789
72863W        W45178  13.625  38.389   3.254
72864W        W45179  40.330  44.977   0.827
72865W        W45180  21.527   2.403  13.795
72866W        W45181  22.730  24.524   3.853
72867W        W45182  25.699  15.646  12.354
72868W        W45183  40.053  35.425   3.739
72869W        W45184  24.104  35.604  14.823
72870W        W45185  43.901  33.508   2.720
72871W        W45186   4.776   5.777   3.326
72872W        W45187  13.656  44.782  13.049
72873W        W45188   1.302  32.490  14.824
72874W        W45189  37.061   9.287  12.000
72875W        W45190  40.945   7.306  14.815
72876W        W45191  20.255  16.787   1.799
72877W        W45192  14.266  43.322   5.269
72878W        W45193  34.400  27.193   4.736
72879W        W45194  15.140  29.450   0.922
72880W        W45195   8.161  15.627   0.922
72881W        W45196  25.120  31.636  14.431
72882W        W45197  12.294   9.724   1.748
72883W        W45198  37.534  44.819   0.927
72884W        W45199  12.757  14.319   1.816
72885W        W45200  41.357  13.720   2.179
72886W        W45201   6.382  40.966  12.535
72887W        W45202   9.791  12.655  12.447
72888W        W45203  41.889  19.101   0.403
72889W        W45204  10.272  31.466  10.909
72890W        W45205  13.773   1.758   4.301
72891W        W45206   4.877  13.282  12.444
72892W        W45207  24.706  36.532  14.901
72893W        W45208  29.029  20.726  13.958
72894W        W45209  30.100   2.230  10.623
72895W        W45210   1.759  41.469   2.252
72896W        W45211   0.955  43.458   3.753
72897W        W45212  38.995  12.218  14.342
72898W        W45213  26.593  34.119  12.090
72899W        W45214  21.053  40.363   3.862
72900W        W45215  17.082   4.359  13.424
72901W        W45216  26.006   1.828   2.880
72902W        W45217   0.439   5.204  13.440
72903W        W45218  24.053   8.846   4.755
72904W        W45219  39.009  17.650   2.226
72905W        W45220  10.237  30.598   0.468
72906W        W45221  15.196  15.285   3.767
72907W        W45222  21.667  22.096   2.878
72908W        W45223  15.170  33.624   1.797
72909W        W45224  37.996  26.544   0.373
72910W        W45225  41.918  40.504  13.336
72911W        W45226   0.945   8.867  10.135
72912W        W45227  10.769   3.302   2.877
72913W        W45228  36.939   1.878   3.311
72914W        W45229  27.057  33.421  13.403
72915W        W45230  25.080  36.556   3.790
72916W        W45231  44.269   9.367   0.886
72917W        W45232  24.196  39.863   4.324
72918W        W45233  34.554  24.119   4.283
72919W        W45234  24.684  36.080  13.370
72920W        W45235  22.681  16.794  10.440
72921W        W45236  25.194  36.361   2.870
72922W        W45237   5.428  28.543  14.360
72923W        W45238  44.921   0.892  12.892
72924W        W45239  32.519  29.538  14.333
72925W        W45240  32.518   4.711   0.811
72926W        W45241   5.439  34.911   0.834
72927W        W45242  35.498  33.552   1.319
72928W        W45243  15.122  34.875   2.749
72929W        W45244  19.648  32.564   2.856
72930W        W45245   3.254  23.553  12.361
72931W        W45246   2.838  25.967  10.585
72932W        W45247  28.166  30.009   2.847
72933W        W45248   7.183  19.044   0.852
72934W        W45249  19.189  36.083   1.210
72935W        W45250  21.589  43.403  10.460
72936W        W45251  24.170  31.942   4.275
72937W        W45252   4.380  26.485  11.035
72938W        W45253  19.144  42.439  13.804
72939W        W45254  14.288  28.470  12.002
72940W        W45255  20.548  12.211  13.028
72941W        W45256  24.099  32.406   4.778
72942W        W45257   0.984  40.380   2.361
72943W        W45258  15.100  39.989  14.316
72944W        W45259  43.779  10.815   3.758
72945W        W45260   5.787  17.681  13.970
72946W        W45261   6.726  42.860  14.968
72947W        W45262  10.217  12.164  14.491
72948W        W45263   6.332   6.790   0.756
72949W        W45264   7.324  42.830  10.992
72950W        W45265  21.645   7.801   1.898
72951W        W45266  12.120  22.149  12.362
72952W        W45267  39.008  33.958   2.775
72953W        W45268  13.178   9.154   2.252
72954W        W45269  23.078   0.352   4.715
72955W        W45270  34.504  30.518   3.383
72956W        W45271  43.770  31.613  12.885
72957W        W45272  10.184  20.105  11.867
72958W        W45273  35.024  14.213  13.473
72959W        W45274   0.450  27.020  10.993
72960W        W45275  27.517  30.971   1.905
72961W        W45276   8.194  18.059   3.296
72962W        W45277  27.991  34.869  10.997
72963W        W45278  19.774  28.997  11.901
72964W        W45279  16.648  31.942   2.707
72965W        W45280  23.733   7.897   1.931
72966W        W45281   0.478  24.001   2.238
72967W        W45282  20.532  11.748  12.346
72968W        W45283  13.639  39.868   3.382
72969W        W45284  11.622   7.742  14.493
72970W        W45285  44.901  13.735   3.783
72971W        W45286  42.512  22.550  11.497
72972W        W45287  16.127  33.554  10.634
72973W        W45288   3.321  28.056   1.347
72974W        W45289  10.289   5.789   4.783
72975W        W45290   9.324  13.183  11.520
72976W        W45291   9.342   2.308   3.239
72977W        W45292   1.850   8.702  11.060
72978W        W45293  12.642  10.843  13.860
72979W        W45294  35.394   7.775   3.197
72980W        W45295  38.998  40.988  13.014
72981W        W45296  44.792  42.795   1.308
72982W        W45297  30.151  13.617  14.381
72983W        W45298  18.289  24.051  12.057
72984W        W45299  34.370  17.072   4.191
72985W        W45300  44.977  37.020  10.468
72986W        W45301   2.333  42.833  13.325
72987W        W45302   3.784   5.803  10.527
72988W        W45303  26.034  35.442   1.873
72989W        W45304   8.857  39.947  13.439
72990W        W45305  18.574  40.028  11.392
72991W        W45306   4.225   0.342  14.964
72992W        W45307  29.481  44.802   0.300
72993W        W45308  34.374   4.780  11.532
72994W        W45309  43.943  39.526  10.462
72995W        W45310  15.797   7.211  12.523
72996W        W45311  14.276  11.777  11.593
72997W        W45312  44.756  33.968   0.377
72998W        W45313  25.179  44.843  13.468
72999W        W45314  40.375   8.384   3.671
73000W        W45315  17.729  28.170  12.481
73001W        W45316  37.935  26.087   0.943
73002W        W45317  25.088  40.504   3.301
73003W        W45318  19.602   2.447  10.943
73004W        W45319  41.830  32.941  13.034
73005W        W45320  12.645  37.398  12.376
73006W        W45321  18.751  15.701   5.086
73007W        W45322  14.309   0.472  11.509
73008W        W45323  40.491  25.470  12.062
73009W        W45324  34.100  43.920  12.484
73010W        W45325   4.371  34.985  12.073
73011W        W45326  22.508  25.549  14.463
73012W        W45327  31.921  17.686   0.924
73013W        W45328  10.310  13.660  14.781
73014W        W45329   2.395  10.196   3.381
73015W        W45330  25.147  37.528   5.198
73016W        W45331  42.341   7.253  13.036
73017W        W45332   5.415  14.130  11.554
73018W        W45333  31.071  35.460   2.760
73019W        W45334  22.730  28.137   0.355
73020W        W45335   6.302   8.666  11.101
73021W        W45336  26.509   2.433   1.308
73022W        W45337   5.343  43.826   4.128
73023W        W45338  35.478   5.340  13.417
73024W        W45339  44.882  36.470   4.177
73025W        W45340  37.408  24.502   2.417
73026W        W45341  14.168  22.710   0.382
73027W        W45342   2.949  38.890   0.441
73028W        W45343   9.391  26.685  14.319
73029W        W45344  31.054  12.849  10.579
73030W        W45345  21.197  33.995   1.927
73031W        W45346  26.610  18.547   5.253
73032W        W45347  35.434  13.690   1.226
73033W        W45348  41.324   4.327  10.923
73034W        W45349  16.631  28.050   2.241
73035W        W45350  16.103  29.526  12.565
73036W        W45351  27.598  11.318   0.281
73037W        W45352  32.409  28.047  11.075
73038W        W45353  24.018  23.020   3.841
73039W        W45354  36.928  36.936  10.536
73040W        W45355  42.858  29.132  11.410
73041W        W45356  38.406   1.455   4.825
73042W        W45357  24.524  42.419   1.223
73043W        W45358  13.253   5.752  14.867
73044W        W45359  20.251   2.961   1.740
73045W        W45360  27.619  19.625  12.557
73046W        W45361  20.218  44.871  13.486
73047W        W45362  26.161  26.700  13.809
73048W        W45363  11.297   5.327   1.886
73049W        W45364  15.243  20.265  11.612
73050W        W45365  25.106  36.912  14.431
73051W        W45366  42.391  17.295   0.777
73052W        W45367  27.556  24.485  11.538
73053W        W45368  19.593  28.160   1.718
73054W        W45369  44.769  34.497   2.295
73055W        W45370  41.421  16.581   4.192
73056W        W45371   7.868  43.343  11.946
73057W        W45372  12.717  39.475  12.364
73058W        W45373  43.314  16.724   1.778
73059W        W45374   2.939  35.585  11.463
73060W        W45375  38.864  34.485   1.892
73061W        W45376  20.602   7.417   0.839
73062W        W45377  27.484  16.159   2.284
73063W        W45378  10.668  42.892  12.536
73064W        W45379   4.292  29.651  14.905
73065W        W45380  21.701  39.412  14.427
73066W        W45381  26.997  39.894  12.490
73067W        W45382  41.831   5.374  11.112
73068W        W45383  22.703   7.707  14.351
73069W        W45384   9.684  20.228  10.951
73070W        W45385   0.850   2.238  11.996
73071W        W45386  24.018  20.671   2.707
73072W        W45387   9.242   3.945  13.329
73073W        W45388  18.154  14.153   2.225
73074W        W45389  29.968  12.294   3.201
73075W        W45390  25.210  15.327   4.197
73076W        W45391   3.793  42.943   9.928
73077W        W45392  21.181  17.278   1.783
73078W        W45393   4.343   4.830  14.995
73079W        W45394  11.192  33.473  14.424
73080W        W45395   3.825   4.883   3.208
73081W        W45396  14.647  15.272  11.890
73082W        W45397  42.973  12.799  10.469
73083W        W45398  40.839  30.463   1.823
73084W        W45399  19.673   1.785  13.460
73085W        W45400  42.296  15.134   2.810
73086W        W45401  39.934  39.890  10.408
73087W        W45402   5.695  32.470   4.625
73088W        W45403  23.161   4.444  10.972
73089W        W45404  40.456  19.060  12.474
73090W        W45405  36.495  41.365  13.539
73091W        W45406   6.347  39.537  14.950
73092W        W45407  24.193  31.487  14.930
73093W        W45408  23.600  26.026  12.868
73094W        W45409  23.115  41.919  12.066
73095W        W45410  16.806  21.186   4.347
73096W        W45411  21.627  18.264   4.742
73097W        W45412   9.643  14.594   0.443
73098W        W45413  42.390  30.039   1.764
73099W        W45414  13.660  28.145   0.760
73100W        W45415  32.494   7.303  12.576
73101W        W45416  35.966  32.102   2.832
73102W        W45417  37.444  25.143   2.743
73103W        W45418  40.845  41.844   4.698
73104W        W45419   9.752  19.261   3.665
73105W        W45420  44.886   6.248   4.810
73106W        W45421  33.986   9.661  12.027
73107W        W45422   2.744  26.979   3.662
73108W        W45423  34.442  36.585   1.781
73109W        W45424   2.287  27.535   4.677
73110W        W45425  25.551  10.714  11.505
73111W        W45426  33.998  13.655  13.888
73112W        W45427   4.371   1.253   4.790
73113W        W45428  27.674  40.942   2.751
73114W        W45429  27.664  26.542  13.015
73115W        W45430  29.065  43.369  10.584
73116W        W45431  20.749   1.747  11.017
73117W        W45432  27.060  31.421  11.575
73118W        W45433  38.571  20.086   4.827
73119W        W45434  21.729  24.524  12.527
73120W        W45435  43.304  36.996  14.339
73121W        W45436  21.632  21.076  10.123
73122W        W45437  28.437  33.601  10.982
73123W        W45438  32.558  24.164   4.828
73124W        W45439  27.546  13.607  13.919
73125W        W45440  40.799  29.637   1.379
73126W        W45441  28.600  15.606   4.803
73127W        W45442  10.257  35.904   0.894
73128W        W45443  44.825  38.822  13.369
73129W        W45444   0.466   1.258  13.984
73130W        W45445  10.362  33.963   0.344
73131W        W45446  17.193  25.598   2.205
73132W        W45447  28.069  39.403   4.154
73133W        W45448  19.581   8.657   4.705
73134W        W45449  36.988  33.495  11.371
73135W        W45450   1.297  44.772   3.245
73136W        W45451  38.051  31.577   3.739
73137W        W45452  32.979   6.392   1.721
73138W        W45453  27.486  25.531   1.707
73139W        W45454  27.197  28.959  11.550
73140W        W45455   8.201   8.671   0.804
73141W        W45456  21.753  38.833  12.934
73142W        W45457  19.576  22.046   0.768
73143W        W45458   6.738  15.595  13.413
73144W        W45459  11.245   2.774  11.420
73145W        W45460  31.929  33.011  14.821
73146W        W45461  14.244  29.096   2.897
73147W        W45462  43.307  36.411   2.303
73148W        W45463   8.666  20.228  12.997
73149W        W45464   0.374  15.775  12.495
73150W        W45465  37.413  41.488   1.303
73151W        W45466  18.720  17.147   1.811
73152W        W45467  27.530   6.222   0.733
73153W        W45468  26.026   2.764   3.238
73154W        W45469  28.578   1.326   1.868
73155W        W45470  38.017  42.001   3.788
73156W        W45471  35.599  27.088  14.326
73157W        W45472  19.668  19.604  13.384
73158W        W45473  36.991  36.079   0.949
73159W        W45474  36.575  33.448   0.295
73160W        W45475  22.562  36.463   2.727
73161W        W45476   5.423  19.219  13.804
73162W        W45477  16.164   8.399   2.667
73163W        W45478  18.677  43.921   3.663
73164W        W45479   1.327  25.685   4.237
73165W        W45480  27.499   8.807  10.606
73166W        W45481  35.089  29.054  14.976
73167W        W45482  44.947  40.908   4.634
73168W        W45483   3.248  33.054   4.691
73169W        W45484  40.311   8.225   4.345
73170W        W45485  10.284   4.256   2.792
73171W        W45486  22.603  39.443  13.811
73172W        W45487  22.118  29.471   1.869
73173W        W45488  28.955  37.030   0.274
73174W        W45489  30.023  27.630   4.323
73175W        W45490  21.021   7.824  10.490
73176W        W45491  44.767  38.879  13.842
73177W        W45492  16.654  41.406  13.434
73178W        W45493   2.328  43.332   0.901
73179W        W45494   2.336  31.405  14.782
73180W        W45495  37.888  13.789   0.835
73181W        W45496  40.002  19.236   0.886
73182W        W45497   4.426  24.166   1.229
73183W        W45498  27.009  40.974  11.091
73184W        W45499   0.431   5.329  13.050
73185W        W45500  21.520  41.840  10.961
73186W        W45501  29.114  25.002  12.931
73187W        W45502  25.470  15.260   0.919
73188W        W45503   8.231  26.199  13.987
73189W        W45504  41.344  26.130  13.541
73190W        W45505  27.997  36.879  13.501
73191W        W45506   1.443   3.289  11.485
73192W        W45507  13.247  18.069  14.954
73193W        W45508  42.988   7.874   0.890
73194W        W45509  24.076  16.721  13.058
73195W        W45510  42.031  42.891  14.784
73196W        W45511   1.296   2.235  11.451
73197W        W45512  25.134  35.513  10.601
73198W        W45513  35.035   3.297  13.995
73199W        W45514   6.217  38.982  11.493
73200W        W45515  36.016   9.376  14.343
73201W        W45516  35.533  11.643  12.047
73202W        W45517  30.454  41.947   3.220
73203W        W45518  25.558  28.183   0.351
73204W        W45519  13.332   7.359  13.969
73205W        W45520  16.764  14.323  11.473
73206W        W45521   5.882  32.558  12.830
73207W        W45522  42.841  20.561  14.472
73208W        W45523  25.610   8.770  10.467
73209W        W45524  13.137  31.490   3.273
73210W        W45525  32.110  14.217   4.192
73211W        W45526  14.232   9.825   0.854
73212W        W45527  22.209   6.871   2.806
73213W        W45528  40.847  28.554   3.794
73214W        W45529  32.540  40.534   0.462
73215W        W45530  42.881  41.032   0.312
73216W        W45531  38.905  37.427   0.746
73217W        W45532  31.412   1.369  12.404
73218W        W45533   2.468  30.138  13.349
73219W        W45534  17.763  18.770   1.859
73220W        W45535  39.447  14.599   0.419
73221W        W45536  44.336  42.032  13.817
73222W        W45537  28.942  33.616   1.886
73223W        W45538  23.614   1.283   4.744
73224W        W45539   9.284  29.465  14.013
73225W        W45540  21.193  25.487   3.696
73226W        W45541  40.365  10.869   1.772
73227W        W45542  32.917   7.282   1.932
73228W        W45543  44.369   8.879  13.798
73229W        W45544   1.367  23.562   1.921
73230W        W45545  26.180  16.086   1.344
73231W        W45546  16.137   7.213   3.332
73232W        W45547  21.096  29.590   4.647
73233W        W45548  34.891  23.736   3.640
73234W        W45549  21.120  37.999   1.909
73235W        W45550   0.861   8.871   3.246
73236W        W45551   9.676  27.020   1.389
73237W        W45552   8.819   2.284  10.430
73238W        W45553  44.283  35.377   3.214
73239W        W45554  41.980  21.688   2.306
73240W        W45555  21.748  39.491  10.636
73241W        W45556  39.026  18.630   4.769
73242W        W45557  42.949  19.549   0.878
73243W        W45558  24.143   3.385   2.273
73244W        W45559  15.255  36.420   0.902
73245W        W45560  29.469  28.506   4.706
73246W        W45561  29.055  14.679  11.441
73247W        W45562   8.874  40.417  11.869
73248W        W45563  27.566   4.302  10.930
73249W        W45564  18.725  43.798   0.913
73250W        W45565   6.717  27.118   2.260
73251W        W45566  27.588  18.099   4.186
73252W        W45567  29.923  41.794   3.733
73253W        W45568   4.222  28.543  13.410
73254W        W45569  10.363  26.144  14.283
73255W        W45570  30.580  19.704  13.353
73256W        W45571  19.101  24.998  14.797
73257W        W45572  17.733  26.673   2.327
73258W        W45573   8.382  10.776   3.634
73259W        W45574  38.032  24.059  14.793
73260W        W45575  23.550   4.811   1.800
73261W        W45576   5.694  10.801  11.561
73262W        W45577  18.286  38.455  13.499
73263W        W45578  42.304  43.301   1.709
73264W        W45579  36.947   1.967  12.519
73265W        W45580  21.713  10.636  14.789
73266W        W45581  29.631   8.366  14.324
73267W        W45582  25.535  22.065   4.139
73268W        W45583  29.535  44.864  12.825
73269W        W45584  30.970  13.747  12.346
73270W        W45585   8.318   4.214  14.394
73271W        W45586  36.072  28.124  13.479
73272W        W45587  10.363  37.984   2.281
73273W        W45588  39.499  36.922  14.915
73274W        W45589  12.163  35.404  10.971
73275W        W45590  44.006  17.165  13.434
73276W        W45591  34.070  16.634  13.371
73277W        W45592  37.062  34.471   0.395
73278W        W45593   6.229  19.148   2.700
73279W        W45594   8.814  30.560  13.019
73280W        W45595  25.175  28.524  11.967
73281W        W45596  35.045  17.660   1.295
73282W        W45597   6.882  11.266   0.855
73283W        W45598   2.757  21.593   4.684
73284W        W45599  43.809  17.583   1.426
73285W        W45600  44.893   1.345   1.868
73286W        W45601   6.785   1.914  14.808
73287W        W45602   9.753  12.769  10.452
73288W        W45603  14.670  32.420  10.523
73289W        W45604  29.943  30.536  14.786
73290W        W45605  33.030  43.293   2.794
73291W        W45606  22.247  12.720  14.314
73292W        W45607  36.547  28.153   3.173
73293W        W45608  35.444   4.219  12.404
73294W        W45609   0.469  21.133   2.320
73295W        W45610  33.895  42.456   0.888
73296W        W45611   4.871   6.268  13.023
73297W        W45612  41.868  17.065  12.356
73298W        W45613  37.404  13.151   1.391
73299W        W45614  24.166  22.009   4.760
73300W        W45615  17.705  38.544   5.309
73301W        W45616   7.232  20.255  10.989
73302W        W45617   9.856  39.963   1.301
73303W        W45618  13.264  44.771  13.945
73304W        W45619   7.223  12.210  14.923
73305W        W45620  20.654  11.134  14.762
73306W        W45621  13.803  40.404  12.990
73307W        W45622  38.341  40.368  11.961
73308W        W45623  32.525  25.145  12.966
73309W        W45624  41.424   4.763  12.526
73310W        W45625   3.245   8.201   4.620
73311W        W45626  16.648  40.926  10.529
73312W        W45627  40.845  21.173  11.908
73313W        W45628   2.360  21.728   0.791
73314W        W45629   7.811  40.814  13.989
73315W        W45630  18.267  39.931   2.267
73316W        W45631  31.488  44.400   0.814
73317W        W45632  13.792  25.981   3.170
73318W        W45633  16.587  41.905  13.453
73319W        W45634  16.571  36.442  10.538
73320W        W45635   0.401  29.107  12.348
73321W        W45636  24.710  44.903   4.789
73322W        W45637   9.808   4.752   2.239
73323W        W45638  37.923  13.685   3.632
73324W        W45639  13.668  44.270  14.475
73325W        W45640  28.528  22.132   3.648
73326W        W45641  24.114  15.303  14.935
73327W        W45642  22.742  15.690   4.252
73328W        W45643  32.547  18.749  12.518
73329W        W45644  17.261  21.656   2.802
73330W        W45645  14.625  17.602  14.932
73331W        W45646  24.999   4.251  13.402
73332W        W45647  32.920  34.524   4.833
73333W        W45648  28.105  43.867  14.011
73334W        W45649  22.580  43.992   4.153
73335W        W45650  20.728   4.934  11.899
73336W        W45651  40.311  32.502  10.991
73337W        W45652  22.613  19.119  10.142
73338W        W45653  33.504   4.797  14.963
73339W        W45654  19.680  40.016  11.047
73340W        W45655   9.335  27.661   1.382
73341W        W45656  44.342  40.938  12.556
73342W        W45657   1.957  26.978  11.573
73343W        W45658  39.390   4.911  11.519
73344W        W45659  37.973  21.229  13.477
73345W        W45660  36.419  27.070   2.816
73346W        W45661  37.567  33.576  12.856
73347W        W45662  30.130  22.610  13.025
73348W        W45663  40.495   7.911   4.154
73349W        W45664   3.449  31.616   0.957
73350W        W45665  41.332  42.841   3.814
73351W        W45666  36.416  32.924  13.800
73352W        W45667   3.404  32.893  13.901
73353W        W45668  43.493  29.097   4.636
73354W        W45669  35.104  28.488  13.504
73355W        W45670   6.371  44.993  10.973
73356W        W45671   4.745  36.013  10.148
73357W        W45672  43.891   2.829   0.763
73358W        W45673  25.510  40.543   3.688
73359W        W45674  24.161  18.190   0.850
73360W        W45675  37.081  34.975   4.127
73361W        W45676  41.856   2.853   1.876
73362W        W45677  37.935  37.564   3.796
73363W        W45678  25.070  29.574  14.778
73364W        W45679  15.149   9.299   3.328
73365W        W45680  16.622   2.402  14.009
73366W        W45681  35.362  14.829   0.410
73367W        W45682  32.088  28.019  10.569
73368W        W45683  36.437  15.581  11.528
73369W        W45684  17.102  42.397  12.833
73370W        W45685  28.573   2.252  12.476
73371W        W45686  36.903  36.056  14.917
73372W        W45687  25.531  21.521  14.291
73373W        W45688  13.606   2.372  12.473
73374W        W45689  15.224   2.779  12.522
73375W        W45690  15.287   7.782   3.263
73376W        W45691   7.330  41.349  12.577
73377W        W45692  23.047   3.242   1.716
73378W        W45693  22.673  13.319   2.179
73379W        W45694  41.461   5.421   4.754
73380W        W45695  20.231  27.107   0.855
73381W        W45696  19.734  17.791  14.374
73382W        W45697  17.239  14.820   4.158
73383W        W45698  41.863  27.481  14.029
73384W        W45699  42.415  36.857   3.232
73385W        W45700  11.793  18.601   3.373
73386W        W45701  40.309   6.254   0.776
73387W        W45702  36.979   0.347  13.429
73388W        W45703   4.737  44.773   1.224
73389W        W45704  25.593  14.810  12.573
73390W        W45705  27.183  31.997   3.725
73391W        W45706  24.710   7.879  13.982
73392W        W45707  22.502  18.581   0.805
73393W        W45708  36.846   0.360   1.344
73394W        W45709  19.198  10.304   2.183
73395W        W45710  34.536   9.150  11.476
73396W        W45711  10.736  29.534  13.990
73397W        W45712  41.523  35.462  13.461
73398W        W45713  26.033   3.432   3.203
73399W        W45714  14.098   6.280   4.682
73400W        W45715  17.072  30.085  11.013
73401W        W45716  26.679   2.926   1.423
73402W        W45717  21.055  39.007  12.849
73403W        W45718  28.528  27.050   4.692
73404W        W45719   4.745   3.854  14.274
73405W        W45720  22.235  13.246  11.874
73406W        W45721   6.428   7.758   5.125
73407W        W45722  40.406  32.544   3.632
73408W        W45723  34.899   7.731   4.232
73409W        W45724  13.241  16.082  14.791
73410W        W45725  21.514   3.732  13.372
73411W        W45726  21.727  19.260  11.415
73412W        W45727  20.609  19.121   1.834
73413W        W45728   9.372  12.324  11.394
73414W        W45729  28.111  23.564  14.816
73415W        W45730  23.009  37.075  12.498
73416W        W45731  17.299  37.472   1.712
73417W        W45732   3.751  29.086  14.460
73418W        W45733  31.094  34.406   2.900
73419W        W45734  39.343  41.460   2.853
73420W        W45735  40.862  32.424  11.907
73421W        W45736  18.729   7.329  14.395
73422W        W45737  28.088  11.635   1.301
73423W        W45738   6.803   8.256   3.199
73424W        W45739  28.650  13.223   4.809
73425W        W45740  25.540  19.227   2.713
73426W        W45741  33.450  43.337  12.525
73427W        W45742  24.532  35.070   2.701
73428W        W45743   6.864  11.716   4.758
73429W        W45744   9.321  26.702  14.017
73430W        W45745  25.106  28.680   4.777
73431W        W45746  14.715  39.963   1.756
73432W        W45747   9.305  31.495   2.304
73433W        W45748  44.400  29.017   1.311
73434W        W45749  34.482   1.472   0.297
73435W        W45750  38.875  22.200  13.030
73436W        W45751  32.029  32.567   3.281
73437W        W45752  36.065  14.600  11.514
73438W        W45753   4.298  16.696   2.227
73439W        W45754  44.467  36.928  13.486
73440W        W45755   9.387  39.470  13.971
73441W        W45756  36.939  13.763   2.178
73442W        W45757  35.431  39.494  11.915
73443W        W45758  26.014  14.121   5.259
73444W        W45759  28.009   0.880  12.504
73445W        W45760  36.514  41.519   2.689
73446W        W45761  39.058  16.677   3.359
73447W        W45762  28.958  13.633  12.548
73448W        W45763   9.887  29.514   0.335
73449W        W45764   3.896  41.494   4.297
73450W        W45765  43.908  28.956   2.186
73451W        W45766  37.984  12.144   2.781
73452W        W45767  10.362  26.078   3.355
73453W        W45768  39.855   8.697  12.419
73454W        W45769  17.716  10.821  14.986
73455W        W45770  22.999  33.019  12.950
73456W        W45771  20.081  10.144   3.187
73457W        W45772  15.656   6.854   3.712
73458W        W45773   9.684  14.104   0.388
73459W        W45774  26.544  36.842   1.856
73460W        W45775  39.393  23.124   1.298
73461W        W45776   1.367   7.734  12.906
73462W        W45777  35.037  12.626  14.869
73463W        W45778  19.767   2.760  13.416
73464W        W45779  39.365  25.577  13.812
73465W        W45780   7.307  31.581   0.780
73466W        W45781  41.937  13.310   4.207
73467W        W45782   7.347  31.564  12.399
73468W        W45783  27.647  38.406   2.411
73469W        W45784  42.498   0.327  11.100
73470W        W45785  10.728   3.762   2.389
73471W        W45786  17.139   1.766   5.255
73472W        W45787   3.350  41.297  11.119
73473W        W45788  21.703  18.569  13.809
73474W        W45789  43.395   8.260  10.910
73475W        W45790  41.322  14.675  10.605
73476W        W45791   8.682  27.168  14.844
73477W        W45792  32.408  32.993  12.381
73478W        W45793  30.947  41.844  13.813
73479W        W45794   7.336  33.531  12.881
73480W        W45795  44.418  44.900   2.712
73481W        W45796   0.918  17.738   0.913
73482W        W45797  24.175   9.702  12.006
73483W        W45798  20.191   5.439   1.350
73484W        W45799  42.490  32.431   3.666
73485W        W45800  31.041  26.662   2.724
73486W        W45801  15.739  34.936   0.920
73487W        W45802  22.151  28.517  11.101
73488W        W45803  28.016  27.491   2.793
73489W        W45804  11.179  37.391  11.533
73490W        W45805  13.159  21.574   3.645
73491W        W45806   0.950  21.246  10.477
73492W        W45807  31.951  16.269   2.265
73493W        W45808  41.918  32.088  13.044
73494W        W45809   1.343  19.701  12.567
73495W        W45810  24.220  31.597  12.476
73496W        W45811  16.104  17.227  14.390
73497W        W45812  30.053  20.623  11.921
73498W        W45813  12.138  27.636  12.947
73499W        W45814  43.955  26.128   2.306
73500W        W45815  35.574   4.256   1.283
73501W        W45816  26.160  39.423  10.911
73502W        W45817  16.666  32.480   1.378
73503W        W45818  22.221  36.089  11.496
73504W        W45819  23.122   8.892  11.932
73505W        W45820  18.757   3.909   2.392
73506W        W45821  38.902  12.286   4.303
73507W        W45822  10.268  27.957  13.512
73508W        W45823  41.034  40.017   2.760
73509W        W45824   6.831  17.179  10.992
73510W        W45825  15.173  35.358  13.342
73511W        W45826  36.349  33.908   1.890
73512W        W45827  31.448  18.270  11.974
73513W        W45828  36.004  18.139   0.373
73514W        W45829  31.925  44.998   1.804
73515W        W45830  20.097  18.224  13.002
73516W        W45831   6.897  11.754  11.487
73517W        W45832   7.868   2.343  11.447
73518W        W45833   2.394  30.136  14.476
73519W        W45834  24.554  14.609  12.836
73520W        W45835  10.683  16.662  11.462
73521W        W45836   3.867  33.464   4.348
73522W        W45837  16.649  35.067  11.485
73523W        W45838  18.167  27.521   2.257
73524W        W45839  19.760  30.977  14.911
73525W        W45840  31.463  34.611   4.726
73526W        W45841  35.470  36.965  13.057
73527W        W45842   4.798   2.935  13.917
73528W        W45843   4.232  32.435   3.217
73529W        W45844  42.346  29.171   4.811
73530W        W45845   6.882  14.813   3.797
73531W        W45846  32.587  27.622   2.365
73532W        W45847  12.236  39.873   4.754
73533W        W45848  32.082  20.622  14.021
73534W        W45849  30.516  15.328   0.256
73535W        W45850  29.652  34.594   2.200
73536W        W45851   7.272  20.150   2.265
73537W        W45852  32.595  11.758   4.231
73538W        W45853  37.481  36.445  14.346
73539W        W45854  27.961   2.771   1.882
73540W        W45855  40.831  36.907  11.377
73541W        W45856   2.833   6.284  11.431
73542W        W45857  23.223  30.480  11.012
73543W        W45858  28.986   8.317  12.022
73544W        W45859   7.302  37.950  10.996
73545W        W45860  17.069  36.569   4.773
73546W        W45861  13.811  12.180   0.803
73547W        W45862   7.405   1.748  10.638
73548W        W45863  44.820  19.042   1.385
73549W        W45864   0.833  33.934   4.623
73550W        W45865  12.283  15.170   4.795
73551W        W45866  31.610  26.059  13.850
73552W        W45867  39.554  29.501   4.770
73553W        W45868  37.945   8.746  13.907
73554W        W45869  24.988   1.415   0.872
73555W        W45870  28.594  16.272   1.309
73556W        W45871   5.886  35.430   2.355
73557W        W45872  35.067  10.806  10.529
73558W        W45873  19.707  37.386  12.046
73559W        W45874   0.757  16.087  14.448
73560W        W45875  10.209  30.540   4.603
73561W        W45876  15.194  31.117  12.966
73562W        W45877  15.681  33.037  11.499
73563W        W45878  39.427  42.975   4.200
73564W        W45879   9.830  27.510   2.214
73565W        W45880  12.299  21.185  10.505
73566W        W45881  41.987   6.259   0.859
73567W        W45882  36.921  41.950  11.870
73568W        W45883  20.537   3.457   1.809
73569W        W45884  22.210  20.215   5.226
73570W        W45885   3.812  16.256  13.422
73571W        W45886  29.650  34.571  14.813
73572W        W45887  19.259  11.679   4.177
73573W        W45888  23.731  34.379   1.257
73574W        W45889  43.017  43.351   4.765
73575W        W45890  40.971   2.357  11.125
73576W        W45891  34.465  23.500  12.001
73577W        W45892  20.131  40.446  10.089
73578W        W45893  43.396  16.080   0.772
73579W        W45894  28.526  29.523   1.723
73580W        W45895  26.036  24.512   4.694
73581W        W45896  16.306   4.367  14.804
73582W        W45897  44.276  38.006  12.022
73583W        W45898  40.801   6.405  12.839
73584W        W45899  38.017   0.331  14.326
73585W        W45900  18.066   2.954   2.886
73586W        W45901  32.537  39.461   0.963
73587W        W45902  32.890  10.367   4.140
73588W        W45903  24.190  44.772  11.396
73589W        W45904  44.974  14.304  11.034
73590W        W45905  27.520  19.567   1.898
73591W        W45906  23.014   1.454   3.818
73592W        W45907  38.354  44.839   0.391
73593W        W45908  24.495  42.437   2.762
73594W        W45909  28.583  14.749  11.534
73595W        W45910  26.512  14.599   3.730
73596W        W45911   4.372   9.305   2.230
73597W        W45912  40.911  33.027  11.393
73598W        W45913   9.748  37.416   4.252
73599W        W45914  23.145  12.147  14.891
73600W        W45915  26.562  34.959   5.085
73601W        W45916   2.453   0.799  11.553
73602W        W45917  23.136  27.689  13.961
73603W        W45918  30.561  40.920  12.850
73604W        W45919  29.944  41.435  13.454
73605W        W45920  38.367  19.633   4.238
73606W        W45921   8.840  24.512  12.095
73607W        W45922   8.397  24.487   0.429
73608W        W45923  10.177   3.231   2.776
73609W        W45924   3.793   9.881   3.724
73610W        W45925  19.693   8.743   5.786
73611W        W45926  24.136  25.025  13.329
73612W        W45927   3.354  21.156   3.732
73613W        W45928  40.831  29.116  11.981
73614W        W45929  28.443  35.581  13.808
73615W        W45930  14.156  22.594  13.515
73616W        W45931  30.605   6.359  10.599
73617W        W45932  25.584  15.700  11.006
73618W        W45933  30.659   4.843   4.300
73619W        W45934   3.799  40.938  14.476
73620W        W45935  30.599   6.882  11.454
73621W        W45936   5.217   3.772   0.880
73622W        W45937   5.811  13.766  11.528
73623W        W45938  21.028  16.629  12.025
73624W        W45939  32.004  28.167  12.937
73625W        W45940   6.235  22.143  11.612
73626W        W45941  17.171   9.169   0.320
73627W        W45942  34.965  35.878  12.366
73628W        W45943   0.942  15.282   0.254
73629W        W45944  11.290  41.329  11.051
73630W        W45945  26.487  42.005   1.360
73631W        W45946  32.402  21.194   0.332
73632W        W45947  11.275  41.957   3.863
73633W        W45948   9.259  15.625   5.224
73634W        W45949  30.962  32.575   0.411
73635W        W45950  11.298  25.618  13.490
73636W        W45951   1.943   7.187   1.294
73637W        W45952   1.384  23.675   4.805
73638W        W45953  36.531   2.745   1.706
73639W        W45954  27.636  37.873  11.571
73640W        W45955   0.308  11.342   4.313
73641W        W45956  26.107  31.613   0.943
73642W        W45957  21.243  33.524  12.437
73643W        W45958   4.738  34.458   0.914
73644W        W45959  23.083   5.230  12.093
73645W        W45960  27.118  12.668  11.428
73646W        W45961   1.340  31.903   0.382
73647W        W45962  23.694  16.634   3.269
73648W        W45963   6.399  20.613  14.338
73649W        W45964  25.657  23.125   2.801
73650W        W45965  26.102  15.596   4.190
73651W        W45966  25.579  35.554   0.847
73652W        W45967  37.897  42.418  13.477
73653W        W45968   2.801  33.611   3.214
73654W        W45969  39.518  28.505  14.433
73655W        W45970  25.997  12.653  10.435
73656W        W45971   0.394  39.032   1.877
73657W        W45972   7.894   1.274  12.002
73658W        W45973  19.146  18.613   1.401
73659W        W45974   5.225  31.146  14.490
73660W        W45975  20.561  42.372  11.915
73661W        W45976  26.516  23.696  14.940
73662W        W45977  40.996  10.677  13.951
73663W        W45978  35.909   6.241   1.411
73664W        W45979  26.024  13.621   4.619
73665W        W45980  28.474  28.525   1.255
73666W        W45981   4.803  40.955   1.779
73667W        W45982  10.170   5.317   1.370
73668W        W45983  20.079  36.580   2.299
73669W        W45984   3.902   4.373  12.828
73670W        W45985  24.521   9.691   1.880
73671W        W45986   8.234  37.376   4.812
73672W        W45987  33.085  20.042  14.409
73673W        W45988  32.098  10.719  14.382
73674W        W45989  25.693  25.513   3.244
73675W        W45990  32.998  13.192   3.789
73676W        W45991  36.531  39.916   0.265
73677W        W45992  38.036  27.466   1.346
73678W        W45993  16.599  26.508  14.973
73679W        W45994  35.506   8.703   4.250
73680W        W45995  32.577   8.874  12.933
73681W        W45996   3.837  14.748  14.909
73682W        W45997  19.147  40.316   1.818
73683W        W45998  37.859  29.584   2.216
73684W        W45999   0.773  23.082   4.681
73685W        W46000  36.513  23.083   3.310
73686W        W46001  43.880  31.050   2.303
73687W        W46002  26.681   8.779  12.036
73688W        W46003   9.378   6.843   3.198
73689W        W46004   3.215  38.852  12.028
73690W        W46005   9.844  24.484  13.932
73691W        W46006  35.551  34.563   3.234
73692W        W46007   7.293  24.546   2.737
73693W        W46008   6.366  11.215  12.501
73694W        W46009  32.125  25.018   3.854
73695W        W46010  25.178  12.245  10.538
73696W        W46011   4.807  34.588  13.947
73697W        W46012  11.859   0.476   0.910
73698W        W46013  36.551  35.927   3.649
73699W        W46014  12.686  39.053  14.878
73700W        W46015   8.771  15.673  13.946
73701W        W46016   1.938  28.106   2.193
73702W        W46017  29.960  13.250   2.402
73703W        W46018  41.430  27.088  12.849
73704W        W46019  42.996  34.878   4.336
73705W        W46020  29.559   0.796  12.383
73706W        W46021   4.935  42.840  13.872
73707W        W46022   2.439  24.645  14.873
73708W        W46023  39.486   1.476   1.754
73709W        W46024  20.140   9.820  12.020
73710W        W46025  19.079  24.168  14.450
73711W        W46026  14.319  16.631  10.451
73712W        W46027  31.467  16.312   0.345
73713W        W46028  40.000  27.691   2.239
73714W        W46029  23.080   1.266   1.819
73715W        W46030  23.693   6.295   2.232
73716W        W46031  38.058  43.988  13.799
73717W        W46032  20.762   8.338   4.724
73718W        W46033   3.789  37.517   0.458
73719W        W46034  10.797  27.601  14.914
73720W        W46035   7.816  37.949   3.162
73721W        W46036  35.455  10.679  12.344
73722W        W46037   9.229  14.664   3.344
73723W        W46038  39.390  17.100   2.760
73724W        W46039  32.506   9.240   0.777
73725W        W46040   3.755   6.412  13.046
73726W        W46041  20.179   9.305   5.236
73727W        W46042  20.635  22.070   0.430
73728W        W46043  30.936  35.375   1.357
73729W        W46044   3.357  29.625   4.320
73730W        W46045  22.116  42.409   3.692
73731W        W46046  36.958  44.876  12.028
73732W        W46047  35.084   7.724   3.221
73733W        W46048  18.738  43.328  13.903
73734W        W46049   2.238  40.939  14.856
73735W        W46050  19.752   5.910  13.319
73736W        W46051  14.180  43.844   3.691
73737W        W46052  39.433  16.250   3.375
73738W        W46053   9.661  23.003  13.891
73739W        W46054  29.089  28.994  12.427
73740W        W46055  27.547   1.862   1.302
73741W        W46056  34.420   9.241   1.932
73742W        W46057  34.088  24.978  11.527
73743W        W46058  25.566  27.972  13.336
73744W        W46059  34.045   2.402   3.852
73745W        W46060  25.143  40.017   2.251
73746W        W46061  44.313  17.227  10.938
73747W        W46062  32.128  43.765   1.794
73748W        W46063  39.325   7.292  10.605
73749W        W46064  24.519  41.408  14.865
73750W        W46065  17.629  44.787   1.420
73751W        W46066  12.154  19.219   3.657
73752W        W46067  10.713   0.891   0.896
73753W        W46068  38.941  14.791  13.004
73754W        W46069  43.480  25.563  13.425
73755W        W46070   2.867   1.301  12.926
73756W        W46071   4.438  30.121   1.720
73757W        W46072   7.182   5.361   0.336
73758W        W46073   0.282   5.820   2.296
73759W        W46074  10.834   6.242   0.919
73760W        W46075  33.953  34.501  12.904
73761W        W46076  18.728  43.767  11.421
73762W        W46077   5.805  40.822   4.626
73763W        W46078  27.522  14.193   0.742
73764W        W46079  38.332   5.378  13.387
73765W        W46080  21.754  20.595   2.413
73766W        W46081  35.520  39.029  11.935
73767W        W46082   0.370  25.994   0.272
73768W        W46083   5.217   1.881  13.498
73769W        W46084  10.142  22.219   2.269
73770W        W46085  17.081   8.674   9.938
73771W        W46086  21.533  34.440   0.774
73772W        W46087  26.136  36.399  11.518
73773W        W46088  26.046  28.123  12.339
73774W        W46089  20.260  22.633  12.528
73775W        W46090  32.003  11.862  11.043
73776W        W46091  27.676  33.968  10.457
73777W        W46092  42.861  44.762  13.339
73778W        W46093  11.839  37.081   4.319
73779W        W46094   6.729  44.825   0.801
73780W        W46095   7.227  32.135   3.861
73781W        W46096  13.816  28.511   3.837
73782W        W46097  20.644  43.306   1.772
73783W        W46098   0.385  36.920   2.282
73784W        W46099   2.265  33.999   3.201
73785W        W46100  33.410  16.705   1.768
73786W        W46101  38.513  10.647   1.293
73787W        W46102   2.789  36.473  11.447
73788W        W46103  11.723  15.144  12.430
73789W        W46104  44.385  17.574  13.893
73790W        W46105  30.942  30.635   1.395
73791W        W46106   0.328  12.775   2.854
73792W        W46107  14.225  12.341  12.578
73793W        W46108  24.562   9.295   2.308
73794W        W46109  17.273  29.436   0.943
73795W        W46110  22.197  27.130   0.244
73796W        W46111  19.573  16.803  13.475
73797W        W46112  12.184  13.126  12.093
73798W        W46113  28.046  27.567  10.618
73799W        W46114  28.615  23.106  14.439
73800W        W46115   1.396  28.140  10.597
73801W        W46116  21.113  35.412   4.176
73802W        W46117  24.593  19.232   4.126
73803W        W46118  21.206   8.244  14.498
73804W        W46119  44.400  40.512   4.702
73805W        W46120  35.077  32.537  10.643
73806W        W46121   2.923   9.344   4.834
73807W        W46122  26.534   3.861   3.652
73808W        W46123   5.405  12.698  12.916
73809W        W46124  23.500   1.799   2.666
73810W        W46125   0.427  18.748  13.909
73811W        W46126   3.267  30.019  10.436
73812W        W46127  19.217  15.656   3.670
73813W        W46128   5.839  18.665   3.237
73814W        W46129  44.456   5.728  10.010
73815W        W46130  44.862  23.061   4.190
73816W        W46131  33.121  29.425  10.469
73817W        W46132  44.884  27.112  11.430
73818W        W46133  35.434   4.924   3.327
73819W        W46134  26.038  22.695  14.452
73820W        W46135   9.828  21.223  12.483
73821W        W46136  13.709  15.740  13.423
73822W        W46137  42.285  23.002   4.641
73823W        W46138  33.950  18.574  13.323
73824W        W46139   0.774  19.659  14.916
73825W        W46140  31.456  18.291  14.494
73826W        W46141  13.332  16.695  11.038
73827W        W46142  33.881  13.640   4.758
73828W        W46143   1.940  30.433  14.806
73829W        W46144  17.793  44.448  14.975
73830W        W46145   8.860   7.827   0.299
73831W        W46146   6.219  11.736  14.301
73832W        W46147  40.979  16.714  14.904
73833W        W46148  20.657   3.807  11.607
73834W        W46149   6.379  27.958   4.194
73835W        W46150   4.444  33.954  13.492
73836W        W46151  10.688  28.563  11.896
73837W        W46152  38.453  35.431   0.429
73838W        W46153  38.544  19.204   3.320
73839W        W46154  29.004  12.635  14.498
73840W        W46155  36.002   1.293   1.924
73841W        W46156  20.161  17.765  11.478
73842W        W46157  32.442  30.998   1.871
73843W        W46158  29.978  13.720  13.830
73844W        W46159  27.634   3.756  11.507
73845W        W46160  32.928   1.295   1.222
73846W        W46161  10.366   0.856   0.905
73847W        W46162  38.421  34.866   4.725
73848W        W46163  20.618   2.271   2.221
73849W        W46164  29.927  22.548  12.343
73850W        W46165  42.328  31.904   4.652
73851W        W46166  24.507  19.260  14.955
73852W        W46167  25.701  21.638   4.783
73853W        W46168   0.435  34.041   3.336
73854W        W46169  21.639  27.626  13.858
73855W        W46170  34.966  36.471  14.988
73856W        W46171  30.924  33.029   0.931
73857W        W46172  44.504  10.276  10.105
73858W        W46173  37.503  38.329  12.492
73859W        W46174  10.657   3.776   4.138
73860W        W46175  11.776  28.930   4.714
73861W        W46176  34.495   4.280   3.359
73862W        W46177  17.234  14.693   1.446
73863W        W46178  24.984  13.186   3.803
73864W        W46179   3.731   1.323  13.883
73865W        W46180   7.226  36.507   4.177
73866W        W46181  15.223  14.259   0.775
73867W        W46182  17.697  30.913   9.641
73868W        W46183  12.646  19.743   4.689
73869W        W46184  42.830  11.856   0.356
73870W        W46185  27.099  42.897   9.956
73871W        W46186  16.737  19.550   0.359
73872W        W46187  32.422  44.968  14.796
73873W        W46188  25.016  41.343   3.290
73874W        W46189  12.772  34.589   3.263
73875W        W46190  41.443  12.787   4.614
73876W        W46191  40.350  15.084  11.051
73877W        W46192  17.231  13.276  12.061
73878W        W46193   2.426  41.445   2.402
73879W        W46194   4.741  29.039   0.330
73880W        W46195  20.239   4.806  11.869
73881W        W46196  24.176   7.213   2.768
73882W        W46197  14.762  41.537   3.302
73883W        W46198   0.396  24.481  13.876
73884W        W46199  13.652  39.901  12.053
73885W        W46200  25.204  21.664   1.817
73886W        W46201  29.540   5.724   2.725
73887W        W46202  32.606  29.479   4.805
73888W        W46203  25.173  41.339   1.762
73889W        W46204   1.407  24.652   2.750
73890W        W46205  37.504  33.470   4.232
73891W        W46206  31.541  25.183  12.895
73892W        W46207  37.955  35.980  13.394
73893W        W46208  31.427  21.148  11.447
73894W        W46209  19.762  27.483  11.064
73895W        W46210  29.475  19.639   0.833
73896W        W46211   7.754  43.326   3.356
73897W        W46212   4.852  19.184  11.415
73898W        W46213  39.415  13.783  11.988
73899W        W46214  14.173  10.792  14.857
73900W        W46215  34.981  39.550  13.509
73901W        W46216  36.854  18.589  12.574
73902W        W46217   6.779  18.060  14.888
73903W        W46218  21.577   0.778   2.254
73904W        W46219  19.244   6.386   2.205
73905W        W46220  29.606   0.765   2.792
73906W        W46221   0.746  15.589   1.839
73907W        W46222  31.552  14.337  13.893
73908W        W46223  23.030  32.911  12.495
73909W        W46224  20.185   2.802  11.558
73910W        W46225  33.875  15.282   1.830
73911W        W46226  15.159  44.258  13.482
73912W        W46227  39.327  26.667  10.920
73913W        W46228  40.383   7.176  14.360
73914W        W46229   1.902  31.574   3.632
73915W        W46230  14.327   9.363   0.374
73916W        W46231  29.934  39.855  14.922
73917W        W46232  40.851  19.139  10.499
73918W        W46233   9.647   8.856   4.290
73919W        W46234  20.680  23.074  13.330
73920W        W46235  22.740  22.713   4.113
73921W        W46236  18.600  35.933   2.760
73922W        W46237  44.427  39.936   0.276
73923W        W46238  17.189  20.167   1.732
73924W        W46239   1.862   9.200   4.759
73925W        W46240  21.056   1.360   3.231
73926W        W46241   9.737   0.968   3.221
73927W        W46242  43.352   8.729  14.445
73928W        W46243  24.046  12.188  12.980
73929W        W46244  20.159  35.949   1.841
73930W        W46245  33.117  11.344   1.840
73931W        W46246  24.613  12.129   0.856
73932W        W46247   6.225  21.568   0.344
73933W        W46248  33.099   8.286   3.344
73934W        W46249   5.439  17.124   0.899
73935W        W46250  19.194  28.000  10.543
73936W        W46251  21.604  24.108   0.918
73937W        W46252  24.682  26.102   1.232
73938W        W46253  15.203  44.810  11.098
73939W        W46254  25.703  28.580   3.682
73940W        W46255  36.896  12.286   1.705
73941W        W46256  13.705  13.648  10.548
73942W        W46257   2.829  40.878  11.576
73943W        W46258  27.197  21.216   3.742
73944W        W46259  23.039  30.544  10.497
73945W        W46260  40.392   2.899  14.784
73946W        W46261   0.759  40.385  14.021
73947W        W46262  23.642  12.844  12.997
73948W        W46263   7.411  21.563  13.052
73949W        W46264   5.193  27.669   2.297
73950W        W46265  15.644  13.214   2.411
73951W        W46266  15.721  23.529  13.045
73952W        W46267  11.711  28.595  13.913
73953W        W46268  42.880  22.031  14.486
73954W        W46269  43.010  10.737  13.882
73955W        W46270  32.057  39.343  13.906
73956W        W46271  33.492   2.435  11.522
73957W        W46272   1.482  34.912   3.639
73958W        W46273  43.830  33.398   1.774
73959W        W46274  23.668   9.695  14.818
73960W        W46275  14.112   3.220   4.781
73961W        W46276  28.950   1.248  12.881
73962W        W46277  22.063  30.487  11.442
73963W        W46278   7.220  25.508   2.236
73964W        W46279   9.844   5.266   4.337
73965W        W46280  36.088  43.325   4.738
73966W        W46281   3.232  38.020   2.691
73967W        W46282  31.107   2.440   3.800
73968W        W46283   8.836  12.137   1.922
73969W        W46284   3.883  12.156  12.030
73970W        W46285   9.236   7.711   4.236
73971W        W46286  41.403  15.139  13.976
73972W        W46287  39.049  37.966   3.248
73973W        W46288  17.613  18.056   1.407
73974W        W46289  11.726  20.700   0.734
73975W        W46290  31.906  25.178  13.892
73976W        W46291   7.753  12.215   1.875
73977W        W46292  30.932   7.327  13.867
73978W        W46293   4.762  36.975   1.741
73979W        W46294  41.956  24.165   1.446
73980W        W46295  44.282   4.787   4.284
73981W        W46296  10.711  16.229  11.960
73982W        W46297  17.207   2.826  10.612
73983W        W46298   6.409  21.147  11.497
73984W        W46299  27.457  14.615   3.234
73985W        W46300  35.032  23.106  13.375
73986W        W46301   5.432  37.904   0.951
73987W        W46302   9.786  26.489   5.227
73988W        W46303   4.749  31.453   1.278
73989W        W46304   5.722  23.634  14.474
73990W        W46305  17.284  38.035  14.898
73991W        W46306  11.232  39.480   3.751
73992W        W46307  27.477  30.030  11.125
73993W        W46308  18.732  28.946   1.742
73994W        W46309  17.216  29.656   5.161
73995W        W46310  34.497  32.133  11.606
73996W        W46311  40.940  40.820   0.874
73997W        W46312  28.480  22.732  13.823
73998W        W46313  15.636  10.804  14.816
73999W        W46314  14.688  10.671  14.350
74000W        W46315  32.009  16.182   3.160
74001W        W46316   1.437  31.985  13.477
74002W        W46317  43.841  38.909  12.555
74003W        W46318   8.321  20.164  10.592
74004W        W46319  29.546  16.302  13.362
74005W        W46320  44.982   8.363  13.951
74006W        W46321  30.635  34.059   3.638
74007W        W46322  35.932  24.174   4.213
74008W        W46323   8.869  30.097   1.739
74009W        W46324  21.700  14.720  10.458
74010W        W46325  10.669  20.051   1.766
74011W        W46326  22.509  30.939   3.665
74012W        W46327  25.639   3.266  13.971
74013W        W46328  33.535  36.357   4.143
74014W        W46329  36.923  33.004   1.754
74015W        W46330  19.560  29.173   1.253
74016W        W46331  44.437  10.218  14.781
74017W        W46332  22.617  13.666   4.811
74018W        W46333  11.727   9.158   0.483
74019W        W46334  24.709  19.706   0.829
74020W        W46335  15.253  14.294  13.448
74021W        W46336  21.548  44.842   3.824
74022W        W46337  39.058  31.095   4.630
74023W        W46338  43.471  41.530  11.121
74024W        W46339  23.601  39.905   0.841
74025W        W46340  21.748  28.556  12.066
74026W        W46341  30.114  18.756  12.014
74027W        W46342  21.244  35.540  14.777
74028W        W46343  38.546  17.761  12.864
74029W        W46344  30.444  11.144   1.779
74030W        W46345  44.474  41.956   2.770
74031W        W46346  18.786  42.367  13.425
74032W        W46347  25.526   4.870  10.056
74033W        W46348  14.103  27.676  12.499
74034W        W46349   1.936  30.483   2.280
74035W        W46350   6.226  41.353  14.307
74036W        W46351  23.612  35.011   1.350
74037W        W46352  15.295  36.055   1.429
74038W        W46353  42.425  44.762  13.843
74039W        W46354  32.553  16.782  11.456
74040W        W46355   7.376  11.228   2.387
74041W        W46356  40.963   3.360   1.803
74042W        W46357  20.687  14.589   4.715
74043W        W46358  32.977  43.292  10.509
74044W        W46359  40.453  39.015   0.790
74045W        W46360  12.854  17.760   1.912
74046W        W46361  37.529  16.283   4.607
74047W        W46362  27.075  40.841  14.942
74048W        W46363   4.794   7.701  11.900
74049W        W46364   7.190  21.598   0.329
74050W        W46365  28.585   1.281  14.407
74051W        W46366  35.892  14.740   5.148
74052W        W46367   3.851   7.340  13.419
74053W        W46368  26.494  27.988  11.898
74054W        W46369  24.717  25.216   4.600
74055W        W46370  43.948  36.550   3.693
74056W        W46371  22.584  10.802   1.862
74057W        W46372  33.515  33.034   3.790
74058W        W46373  34.912  13.655   3.323
74059W        W46374  21.078  25.004  13.977
74060W        W46375   6.325  18.771  14.504
74061W        W46376  10.356  12.639   4.827
74062W        W46377  20.529  33.880   4.294
74063W        W46378  37.415  24.555   2.896
74064W        W46379  13.673   0.310   3.218
74065W        W46380  26.518  42.918   0.907
74066W        W46381  25.711  21.682  14.977
74067W        W46382  32.629   8.348  13.824
74068W        W46383  32.050   0.494  14.834
74069W        W46384  25.489   9.294  13.841
74070W        W46385  13.303  14.728  10.554
74071W        W46386   8.778  42.423  11.004
74072W        W46387  44.860   1.964   2.890
74073W        W46388  23.198   1.976   4.119
74074W        W46389  31.111  38.858   5.313
74075W        W46390  28.674  13.130  10.440
74076W        W46391  23.605  40.007   0.444
74077W        W46392   1.971   3.433  14.858
74078W        W46393   7.841   2.270   0.745
74079W        W46394   7.208   2.310  10.594
74080W        W46395  16.713   3.245  12.405
74081W        W46396  36.524  37.065   0.800
74082W        W46397   6.368  40.445  14.029
74083W        W46398  19.048  24.679   0.367
74084W        W46399  30.147   3.777   2.777
74085W        W46400  42.472  11.326   3.348
74086W        W46401  29.108  32.536   5.158
74087W        W46402  31.562  27.123  14.806
74088W        W46403  17.700  37.844  14.516
74089W        W46404  16.081  33.588   9.975
74090W        W46405  42.989  13.297   3.278
74091W        W46406  42.520  34.393  13.926
74092W        W46407  34.874  12.215  12.057
74093W        W46408  38.868  23.692   1.309
74094W        W46409   2.829  24.492  14.991
74095W        W46410  11.271  31.474   3.783
74096W        W46411  16.271  23.111   2.669
74097W        W46412  39.317  39.974   1.429
74098W        W46413  14.310   8.191  14.412
74099W        W46414  34.112  21.543   1.421
74100W        W46415  10.377  10.145   0.340
74101W        W46416   8.277  42.030  10.432
74102W        W46417   7.174  12.295   4.662
74103W        W46418  29.131  33.581   3.303
74104W        W46419  11.715  39.489  13.847
74105W        W46420  18.583  37.854   0.256
74106W        W46421  24.565   5.828   1.851
74107W        W46422  43.449  12.613   0.889
74108W        W46423   7.698  20.185  10.920
74109W        W46424  24.125  44.996  12.386
74110W        W46425  30.512  14.223   1.276
74111W        W46426  26.640  11.671  14.372
74112W        W46427  25.652  27.450   3.329
74113W        W46428   9.254   0.876  14.804
74114W        W46429   9.711  31.132   4.242
74115W        W46430  11.333  30.553  11.112
74116W        W46431  13.779   1.270   1.237
74117W        W46432   4.411  11.308   0.255
74118W        W46433  25.552  32.554   3.227
74119W        W46434   8.167  18.633   2.351
74120W        W46435  21.060  41.303   2.728
74121W        W46436  27.578  33.410   4.681
74122W        W46437  43.008  40.489   1.920
74123W        W46438   2.390  33.391  10.950
74124W        W46439  25.652   1.469  11.469
74125W        W46440  30.934  44.494   2.878
74126W        W46441  16.747  30.951   3.860
74127W        W46442  26.490   4.287   0.889
74128W        W46443  16.741  21.585  12.957
74129W        W46444  28.032   4.785  10.959
74130W        W46445   7.869  20.210  14.882
74131W        W46446  39.834  25.143   5.104
74132W        W46447   1.470  34.569   1.228
74133W        W46448  42.973  31.029  12.425
74134W        W46449  11.762  20.082  12.943
74135W        W46450  33.565  34.018  11.881
74136W        W46451  22.728   1.961  13.318
74137W        W46452  22.239  15.596   4.224
74138W        W46453  39.858  20.656   3.774
74139W        W46454  10.870  22.661  14.849
74140W        W46455  25.618   0.939   2.396
74141W        W46456  31.943  16.696   2.196
74142W        W46457  19.627  24.008  13.499
74143W        W46458  10.254  23.036   0.799
74144W        W46459  18.202  20.750   3.234
74145W        W46460  18.617  38.553   0.829
74146W        W46461  23.230   1.875   3.798
74147W        W46462  35.543   0.286  10.587
74148W        W46463  29.117  23.110  10.973
74149W        W46464  20.034  42.443  10.998
74150W        W46465  37.515  42.313   0.416
74151W        W46466   8.858  39.933   0.472
74152W        W46467  38.891  38.911   3.275
74153W        W46468  26.613  17.706   0.945
74154W        W46469  19.703   0.841   4.144
74155W        W46470  43.379  25.155   5.203
74156W        W46471  10.689  17.122   4.726
74157W        W46472  28.096  36.019   0.323
74158W        W46473   9.337   9.689  13.471
74159W        W46474  40.946   2.761  11.902
74160W        W46475   1.940   5.417   1.343
74161W        W46476  38.035  17.750  14.841
74162W        W46477   1.421  36.482   2.847
74163W        W46478  15.323   3.343  11.491
74164W        W46479  35.401  32.626   2.731
74165W        W46480   4.375  43.961  12.578
74166W        W46481   6.214  35.372   4.345
74167W        W46482  15.818  17.247   3.762
74168W        W46483  36.056  10.288   0.744
74169W        W46484   9.303  25.099   0.451
74170W        W46485  11.232  10.870   0.890
74171W        W46486  18.561  35.485  11.940
74172W        W46487  16.730  18.070  11.418
74173W        W46488  21.631  26.157   2.267
74174W        W46489  16.217  10.709  12.495
74175W        W46490  35.021  26.639   0.888
74176W        W46491  18.122  17.084  11.126
74177W        W46492  12.631  16.096  13.383
74178W        W46493  42.827   7.854  12.881
74179W        W46494  38.971   5.436   1.273
74180W        W46495  13.842  24.038   3.152
74181W        W46496  31.991  41.398  12.015
74182W        W46497   0.493  13.154   0.754
74183W        W46498  22.547  26.652  10.491
74184W        W46499   8.390  31.554   4.204
74185W        W46500  35.002  26.483  12.942
74186W        W46501  23.044   6.688  13.426
74187W        W46502  37.959  21.111  10.422
74188W        W46503  39.890  23.595  10.464
74189W        W46504  27.565   0.494  12.428
74190W        W46505  10.703   4.390   2.293
74191W        W46506  34.886  38.536  10.483
74192W        W46507  17.306  39.555   1.278
74193W        W46508  37.396  11.780   1.240
74194W        W46509  44.006   6.699   1.869
74195W        W46510   8.218  13.668   4.602
74196W        W46511  36.544  44.924  12.997
74197W        W46512  41.385  25.116   5.219
74198W        W46513   7.356   4.926  10.896
74199W        W46514  32.514  17.205  11.434
74200W        W46515  43.421   0.848  14.760
74201W        W46516  32.014  30.451  13.356
74202W        W46517  33.090  34.449   1.367
74203W        W46518   4.720  14.655   1.222
74204W        W46519   6.412   0.910   0.771
74205W        W46520  11.771  14.193  12.855
74206W        W46521   1.478  21.078   2.255
74207W        W46522  27.953   9.755  11.400
74208W        W46523  26.975  20.149   4.166
74209W        W46524   2.322  40.328  10.951
74210W        W46525  31.603   2.865   3.193
74211W        W46526   6.829  26.099   2.284
74212W        W46527   7.904  30.962   2.209
74213W        W46528  43.418  16.769  12.965
74214W        W46529   9.717   7.823  11.434
74215W        W46530  41.375  33.024   4.176
74216W        W46531   3.817  12.172  13.342
74217W        W46532  32.112  29.175   0.359
74218W        W46533  30.510  43.380  12.823
74219W        W46534  17.266  30.486  13.821
74220W        W46535  42.464  27.959  12.848
74221W        W46536  17.748  31.465  12.962
74222W        W46537  37.066  39.472   1.229
74223W        W46538  19.598  14.194   0.383
74224W        W46539  36.996   8.211   1.212
74225W        W46540  41.030  14.688  12.440
74226W        W46541  11.184   4.206   3.850
74227W        W46542   6.908  11.303  10.584
74228W        W46543  41.304  29.066   1.224
74229W        W46544  27.968  25.025   4.196
74230W        W46545  35.905   2.274   0.352
74231W        W46546   7.678   0.744  10.959
74232W        W46547   9.890  38.538   4.615
74233W        W46548  25.206  20.764   2.184
74234W        W46549  15.695  28.017  13.396
74235W        W46550  20.700  37.846   3.699
74236W        W46551  28.587  18.790  12.431
74237W        W46552   1.827  11.326  12.340
74238W        W46553   0.837  13.241  14.306
74239W        W46554  40.843   8.846  12.445
74240W        W46555  38.986  28.627  14.933
74241W        W46556  25.604  11.631  11.494
74242W        W46557  30.984  28.495  12.391
74243W        W46558  16.103   0.396   4.716
74244W        W46559  16.103  42.422  14.986
74245W        W46560  27.096  17.078  12.060
74246W        W46561  18.592  31.490   4.345
74247W        W46562  36.018  30.977   1.348
74248W        W46563  37.960  43.850  10.544
74249W        W46564  17.177  27.132  13.917
74250W        W46565  32.447  30.062  13.795
74251W        W46566  15.086  36.968   4.826
74252W        W46567  24.687  25.490   4.293
74253W        W46568  43.809  25.001   0.328
74254W        W46569   9.682  38.060  12.941
74255W        W46570   4.877  42.419   4.225
74256W        W46571  37.982  38.063  10.937
74257W        W46572  16.794   7.771   1.821
74258W        W46573  23.102   5.747   2.671
74259W        W46574   3.736  36.515  13.850
74260W        W46575  20.703  21.066  12.393
74261W        W46576   6.402   6.706   0.433
74262W        W46577  23.080  16.143  13.920
74263W        W46578  24.998  24.120   3.292
74264W        W46579  24.174  42.483   1.730
74265W        W46580  26.619  29.502   1.854
74266W        W46581  14.830   9.338   3.150
74267W        W46582  38.869  44.496  13.867
74268W        W46583  21.165  27.081  13.918
74269W        W46584  21.666  10.362  13.547
74270W        W46585  35.525  36.891   4.352
74271W        W46586  39.919  32.503   4.710
74272W        W46587  25.653  31.021  11.512
74273W        W46588  14.172   7.296  13.846
74274W        W46589  21.189  27.537   1.721
74275W        W46590  15.716   1.472   0.329
74276W        W46591  23.692  40.887   4.209
74277W        W46592   0.876  20.612  10.596
74278W        W46593  11.720   3.955  10.628
74279W        W46594  14.629  20.178  10.429
74280W        W46595  44.289   0.386  10.070
74281W        W46596  23.615  11.199   1.722
74282W        W46597  20.064  17.710  12.063
74283W        W46598   7.703  38.047  13.856
74284W        W46599   0.298  37.864   2.262
74285W        W46600  29.652  40.811  12.853
74286W        W46601  31.599   9.196  14.350
74287W        W46602  17.065  27.516  10.981
74288W        W46603  33.044  14.225   3.709
74289W        W46604  11.363  23.076  10.975
74290W        W46605  35.899  29.619  10.411
74291W        W46606  40.493   4.251   4.622
74292W        W46607  24.648  23.654  14.982
74293W        W46608  40.856  19.684  12.863
74294W        W46609  25.666  21.664  10.921
74295W        W46610  29.979  30.124   2.203
74296W        W46611  39.499  13.160  12.938
74297W        W46612   4.834  32.963  14.485
74298W        W46613   0.486  24.100  13.413
74299W        W46614   8.397  32.025  12.341
74300W        W46615  27.448  18.571  14.024
74301W        W46616  40.426  16.804  10.554
74302W        W46617   8.182  19.051   4.287
74303W        W46618   2.879   6.836  10.497
74304W        W46619  18.664  22.595   3.273
74305W        W46620  39.018   8.302   0.731
74306W        W46621  29.109  20.149   0.401
74307W        W46622   3.833  32.430   4.805
74308W        W46623   0.850  15.309   2.675
74309W        W46624  17.191  44.951  12.474
74310W        W46625  27.461  26.027  12.436
74311W        W46626  31.648  25.140  11.950
74312W        W46627   7.377  24.615   4.120
74313W        W46628  12.292  10.161  11.385
74314W        W46629  13.275  44.997  13.544
74315W        W46630  30.616   8.348   4.682
74316W        W46631  19.715  35.050   3.323
74317W        W46632  43.011  33.552  11.000
74318W        W46633  26.601  13.712  14.816
74319W        W46634  22.525  29.988   1.334
74320W        W46635  29.057  21.560   2.218
74321W        W46636  33.463  10.687  12.927
74322W        W46637   6.267   7.747  12.531
74323W        W46638   1.287  19.259   4.181
74324W        W46639  40.941  42.900   4.130
74325W        W46640  37.495   9.837  13.418
74326W        W46641  37.872   2.325  10.476
74327W        W46642   4.731  16.230  14.385
74328W        W46643  43.370  14.243  13.918
74329W        W46644   0.361  34.056   1.711
74330W        W46645  39.482  28.641   0.478
74331W        W46646  41.846  32.514   1.841
74332W        W46647  19.234  15.725   2.405
74333W        W46648   3.300  19.648   1.255
74334W        W46649  29.113   0.750   2.251
74335W        W46650  15.105   4.813  13.324
74336W        W46651  40.485  35.100  12.496
74337W        W46652  10.358  42.782   0.838
74338W        W46653  17.716   6.192  10.969
74339W        W46654  20.239  20.040   0.344
74340W        W46655  20.074  18.089  13.892
74341W        W46656  31.600   0.977  14.870
74342W        W46657  16.765  33.415   3.754
74343W        W46658   4.706  33.002   2.900
74344W        W46659  41.043  15.134   4.616
74345W        W46660  11.645  32.559   3.153
74346W        W46661  27.482  24.126   1.271
74347W        W46662  42.887  30.003  12.525
74348W        W46663  26.672  16.656   4.235
74349W        W46664  33.931  36.350  13.432
74350W        W46665  30.595  24.151   3.666
74351W        W46666  41.293  41.985  13.482
74352W        W46667   7.857  14.748   4.237
74353W        W46668   3.928  22.722  14.325
74354W        W46669  34.606  31.497  11.925
74355W        W46670  35.601  36.530  11.873
74356W        W46671  37.517  28.457   3.228
74357W        W46672  37.440  37.512   3.824
74358W        W46673  41.976  33.121   4.290
74359W        W46674  15.090  31.413  14.835
74360W        W46675  28.929   2.960  11.017
74361W        W46676   6.820  27.554   4.644
74362W        W46677  19.260  34.582   0.820
74363W        W46678  31.949  33.874   4.719
74364W        W46679  38.933  24.646   3.819
74365W        W46680   0.765   0.944   5.279
74366W        W46681  28.617  33.502   3.325
74367W        W46682  36.389  33.541  11.494
74368W        W46683   1.749  14.775   1.400
74369W        W46684  35.393  41.034   3.153
74370W        W46685  36.024  18.686   4.226
74371W        W46686  42.977  17.291   4.660
74372W        W46687   3.417  11.822  11.119
74373W        W46688  38.538  28.144  12.392
74374W        W46689   3.901   0.963   0.345
74375W        W46690  21.512  22.191  10.613
74376W        W46691  42.956  28.434  11.879
74377W        W46692  35.390   9.659   3.751
74378W        W46693  18.733  12.303   3.707
74379W        W46694  18.295  38.343   0.248
74380W        W46695   2.723  10.160   0.403
74381W        W46696  44.276  34.070  10.618
74382W        W46697  32.472  31.033   4.236
74383W        W46698  40.914  29.593  11.033
74384W        W46699  29.093   9.272  14.988
74385W        W46700   0.351  12.750   0.786
74386W        W46701  34.480  40.050   1.934
74387W        W46702  44.829  42.318   1.328
74388W        W46703  38.382   4.804  14.485
74389W        W46704  39.850   0.460  12.456
74390W        W46705  14.741  23.720  11.067
74391W        W46706  19.559  17.077  13.990
74392W        W46707  21.754  13.210  13.406
74393W        W46708  40.898   6.192  10.553
74394W        W46709  18.244  10.656  11.058
74395W        W46710  42.466  29.060   2.296
74396W        W46711  43.275  34.056   0.475
74397W        W46712  28.577  36.531   4.212
74398W        W46713   4.741  39.367   1.444
74399W        W46714   3.355  43.299  14.809
74400W        W46715  43.376  14.150  13.485
74401W        W46716  26.129  37.482   2.239
74402W        W46717  40.055  19.051  14.890
74403W        W46718  11.370  10.755   1.921
74404W        W46719  35.998   5.290   3.147
74405W        W46720   9.221  24.707   1.797
74406W        W46721  32.028  25.120  10.937
74407W        W46722  11.759   2.413   3.328
74408W        W46723  24.192  32.911  14.821
74409W        W46724  28.178  10.688  10.134
74410W        W46725  37.428  11.818  12.926
74411W        W46726  43.803  40.955  14.382
74412W        W46727  23.650  38.837  14.314
74413W        W46728  43.830  35.530  13.790
74414W        W46729  36.974   9.659  11.881
74415W        W46730  43.798  23.227  12.348
74416W        W46731  39.462  16.211   0.270
74417W        W46732  16.700   4.336  14.355
74418W        W46733  31.123  27.125  12.468
74419W        W46734  28.545  17.684   1.785
74420W        W46735   0.469  36.440   5.138
74421W        W46736  19.596  25.640   4.825
74422W        W46737   7.863  23.021   4.636
74423W        W46738  37.537  37.942   4.141
74424W        W46739  41.513  27.512   1.809
74425W        W46740  34.085   4.376   0.755
74426W        W46741   4.816  13.845  10.502
74427W        W46742  38.012  30.648   1.765
74428W        W46743  25.013  10.152  11.879
74429W        W46744  11.161   9.288  11.092
74430W        W46745  38.399  14.651  14.336
74431W        W46746  20.263  40.895   9.507
74432W        W46747  13.711  40.855   3.720
74433W        W46748  44.275  30.959  14.785
74434W        W46749  30.019  27.971  10.560
74435W        W46750  42.021  36.047   0.348
74436W        W46751  26.522  17.259   3.243
74437W        W46752   7.892   2.873  13.336
74438W        W46753  29.536  42.939   3.341
74439W        W46754  33.556  27.495   2.223
74440W        W46755   7.670   9.824  13.545
74441W        W46756   9.317  11.283   0.757
74442W        W46757   7.678  34.368   2.214
74443W        W46758   8.293  31.928  12.885
74444W        W46759  18.731   4.829  14.783
74445W        W46760  10.778   2.955  14.290
74446W        W46761  38.915  26.546  12.485
74447W        W46762  27.180  29.176   3.250
74448W        W46763  18.167  43.780   0.399
74449W        W46764  16.098  41.294   3.253
74450W        W46765  35.069   5.368   4.219
74451W        W46766  20.059   8.802  12.461
74452W        W46767  18.638   5.739  10.597
74453W        W46768  15.222   4.845  14.802
74454W        W46769  19.679  19.223  11.898
74455W        W46770   8.308  38.819   4.817
74456W        W46771  23.147  10.842  13.522
74457W        W46772   7.846  28.479   3.177
74458W        W46773   2.321  29.918   3.189
74459W        W46774  38.931  36.919  11.390
74460W        W46775  34.087  10.375   3.305
74461W        W46776  10.849  14.743  13.359
74462W        W46777  25.475  23.096   3.706
74463W        W46778  13.304  13.677   1.838
74464W        W46779  30.010  25.135   4.739
74465W        W46780  14.127  17.667  10.960
74466W        W46781  43.283  40.308   4.202
74467W        W46782  17.645  42.427   4.113
74468W        W46783   8.775  16.762  12.489
74469W        W46784   1.884  15.724   0.344
74470W        W46785  35.068  32.936   3.223
74471W        W46786  39.401  12.683  12.468
74472W        W46787  21.724  31.593   3.724
74473W        W46788  16.623  14.727   3.177
74474W        W46789   6.782   7.233   4.667
74475W        W46790  21.656   0.769   4.823
74476W        W46791  20.639  25.472  11.556
74477W        W46792  18.139   4.351  13.809
74478W        W46793   6.194  20.739   4.743
74479W        W46794  43.828  41.822  14.819
74480W        W46795  36.987  14.315  12.952
74481W        W46796  29.490  17.610   4.807
74482W        W46797   4.846  42.828  13.505
74483W        W46798   5.807   6.875  13.345
74484W        W46799  31.966  36.520   3.732
74485W        W46800   5.428  44.836  13.490
74486W        W46801  42.804  37.438  10.448
74487W        W46802  40.017  20.756  13.492
74488W        W46803   2.398   5.767   4.638
74489W        W46804   2.751  37.552  11.400
74490W        W46805  16.242  12.787   4.179
74491W        W46806   1.810  28.636  11.482
74492W        W46807  25.701  42.806  14.369
74493W        W46808  15.202  30.975   0.461
74494W        W46809  38.929  44.259   0.389
74495W        W46810  10.211   9.261   2.831
74496W        W46811  12.783  39.430  12.904
74497W        W46812  12.187  32.989   0.353
74498W        W46813   8.279  30.139  14.341
74499W        W46814  33.410  31.047   4.816
74500W        W46815  21.064  43.014   2.402
74501W        W46816  41.498   3.237  10.577
74502W        W46817   6.777  40.896  12.916
74503W        W46818  12.250  42.360   4.352
74504W        W46819  33.490   7.818  14.311
74505W        W46820  34.427  31.469  12.447
74506W        W46821  35.045   7.326   4.750
74507W        W46822   1.952  43.948   0.328
74508W        W46823   8.790   6.186   4.332
74509W        W46824  25.017  30.158  10.540
74510W        W46825  43.485   7.684  14.406
74511W        W46826  37.407   1.874  14.003
74512W        W46827  23.711  12.283  13.491
74513W        W46828  14.311   1.476  14.778
74514W        W46829  12.349  38.877  11.112
74515W        W46830   2.952   9.278  13.416
74516W        W46831  22.722  42.453  13.945
74517W        W46832  29.656  17.725  13.546
74518W        W46833   2.963   0.979  11.045
74519W        W46834  38.403  20.558   3.278
74520W        W46835  22.685  42.803   3.232
74521W        W46836  28.049  43.887   2.833
74522W        W46837  38.891   5.235   1.856
74523W        W46838  27.640  18.054  10.594
74524W        W46839  29.979   5.775   3.371
74525W        W46840   0.853  36.981  12.908
74526W        W46841  16.610   7.263   2.714
74527W        W46842   3.320   3.813  11.955
74528W        W46843  27.523  25.087  11.121
74529W        W46844  36.085   2.758  11.490
74530W        W46845  26.589  29.127  14.471
74531W        W46846  16.206  43.446  13.036
74532W        W46847  30.616  22.570  14.292
74533W        W46848   4.337  26.115  14.424
74534W        W46849  39.960  41.827   0.847
74535W        W46850  22.204  42.511  10.458
74536W        W46851  12.333  21.644  11.956
74537W        W46852  25.117   4.905   9.969
74538W        W46853  17.674  35.530  14.323
74539W        W46854   7.789  20.216   2.393
74540W        W46855  11.754  37.937  13.935
74541W        W46856  26.653  27.531   4.225
74542W        W46857   1.907  13.676  13.368
74543W        W46858   2.915  28.484   1.933
74544W        W46859  36.857  30.945  11.395
74545W        W46860  21.243   6.196   4.633
74546W        W46861  25.132  38.507  13.873
74547W        W46862   1.305  38.844  13.423
74548W        W46863  27.137  30.948   3.259
74549W        W46864  27.498   0.920  12.461
74550W        W46865  28.608  24.001  13.857
74551W        W46866  38.868  30.078  10.117
74552W        W46867  36.461  34.018   0.478
74553W        W46868  11.797  42.298   3.644
74554W        W46869  20.029  30.587   0.366
74555W        W46870  42.776   1.903  14.017
74556W        W46871  30.932  33.881   2.776
74557W        W46872  43.866  34.079  14.848
74558W        W46873  17.690  44.782  14.913
74559W        W46874  34.389   4.204   3.857
74560W        W46875   4.412  44.935  10.623
74561W        W46876  21.578  44.973   1.736
74562W        W46877   4.769  13.316   0.782
74563W        W46878  34.493  30.029  11.525
74564W        W46879  25.517  40.448  10.451
74565W        W46880  41.322  33.565  10.422
74566W        W46881  13.602   2.823   3.220
74567W        W46882  32.598  11.697   0.818
74568W        W46883   0.474  19.670  14.462
74569W        W46884  13.835  40.989  11.412
74570W        W46885  23.552   2.459   1.240
74571W        W46886   0.756  42.516   4.307
74572W        W46887  11.247  22.152   2.828
74573W        W46888  27.166   2.858   2.800
74574W        W46889  13.307  28.122  14.983
74575W        W46890  42.932  12.292   1.861
74576W        W46891  17.658  13.243   2.819
74577W        W46892  42.395  22.517  14.382
74578W        W46893  10.658  33.480   2.690
74579W        W46894  33.444  15.705  10.423
74580W        W46895  25.648  23.695  13.945
74581W        W46896  14.311   1.862   0.337
74582W        W46897  35.462  23.655  13.917
74583W        W46898  31.949   1.287  13.059
74584W        W46899  21.524  10.714   2.794
74585W        W46900  14.688  42.304  10.960
74586W        W46901   9.269  26.980  13.487
74587W        W46902   5.207  12.817  14.868
74588W        W46903   2.371  43.914  14.864
74589W        W46904  17.763   6.896   1.790
74590W        W46905   6.257  35.876  14.364
74591W        W46906  26.143  35.417   2.868
74592W        W46907  40.991   5.315   1.716
74593W        W46908  41.976  15.623   2.764
74594W        W46909  16.307  40.361  12.965
74595W        W46910  44.260   0.865   3.385
74596W        W46911  36.942  28.626  12.385
74597W        W46912  26.474  38.064   5.268
74598W        W46913  17.170  33.073   1.778
74599W        W46914   3.375  39.367  13.979
74600W        W46915  17.287   4.353   2.186
74601W        W46916   0.966  32.417   2.722
74602W        W46917  36.965  20.061  12.514
74603W        W46918  43.778  31.058  12.555
74604W        W46919   9.682   8.710  11.932
74605W        W46920  42.914  20.210   1.798
74606W        W46921  11.736  40.353   2.888
74607W        W46922  44.300  36.917   3.269
74608W        W46923  24.121  12.123  11.374
74609W        W46924  23.600   3.434   3.853
74610W        W46925   5.828  30.495  11.025
74611W        W46926  23.999  18.220  14.385
74612W        W46927  16.172  41.309  13.546
74613W        W46928  24.048   7.764  11.909
74614W        W46929  20.661  23.007  10.415
74615W        W46930  42.358  38.564   2.748
74616W        W46931   7.869   7.713   0.733
74617W        W46932  16.131  17.299  12.875
74618W        W46933  29.065  25.671  14.948
74619W        W46934  29.580  25.173  10.640
74620W        W46935  25.135  27.110   3.871
74621W        W46936  18.174  39.896   9.921
74622W        W46937  15.178  35.922  12.518
74623W        W46938  41.802   9.721   0.903
74624W        W46939  39.469  11.285   3.641
74625W        W46940  34.372  34.932  11.111
74626W        W46941   6.316   9.331   4.645
74627W        W46942  44.377  17.195  11.975
74628W        W46943  27.466  31.607   2.779
74629W        W46944  18.066  34.602  14.831
74630W        W46945  19.565  34.467  11.590
74631W        W46946   3.935   4.285  14.825
74632W        W46947  21.567  12.833   3.864
74633W        W46948   7.335  36.966  12.460
74634W        W46949  28.500   3.794  14.444
74635W        W46950  37.475  14.279   1.882
74636W        W46951  17.617  29.035  12.854
74637W        W46952  11.750   3.943  12.095
74638W        W46953  20.256   1.909  11.995
74639W        W46954  19.554  33.524  13.042
74640W        W46955  34.463   1.848   4.209
74641W        W46956  38.471  41.310  10.493
74642W        W46957  26.473  15.316   3.717
74643W        W46958   3.313  32.027   4.209
74644W        W46959  25.589  35.038  13.805
74645W        W46960  41.904  30.416  13.042
74646W        W46961  21.053  42.903   1.224
74647W        W46962   9.202  30.131  13.384
74648W        W46963  14.248   6.371   4.157
74649W        W46964  37.963   0.488  14.026
74650W        W46965  10.862  27.457   0.925
74651W        W46966   1.854  34.577   3.781
74652W        W46967   1.751  11.834  10.077
74653W        W46968  24.515  19.217  12.860
74654W        W46969  14.129  14.307   1.238
74655W        W46970  32.991  21.679   3.332
74656W        W46971  23.519  11.664  10.905
74657W        W46972   0.422  31.627  14.968
74658W        W46973  16.302  20.550   2.198
74659W        W46974   0.381  10.873   4.800
74660W        W46975  42.334  13.301  13.325
74661W        W46976  34.888   3.755  11.981
74662W        W46977  10.782   1.919  14.362
74663W        W46978  17.217  39.516   0.287
74664W        W46979  44.411  27.177   4.321
74665W        W46980   4.804  19.594   1.787
74666W        W46981  20.161  41.468  14.348
74667W        W46982  29.922  26.515  10.607
74668W        W46983  44.955   3.851  11.418
74669W        W46984  28.498  28.525  10.970
74670W        W46985  12.351  35.465  10.546
74671W        W46986  14.122  19.745  13.499
74672W        W46987   8.699  27.083  11.448
74673W        W46988  39.032   6.400   4.263
74674W        W46989  24.674  43.956  14.823
74675W        W46990  37.395  40.892   3.295
74676W        W46991  30.027   0.361   2.233
74677W        W46992  23.720  21.192   2.195
74678W        W46993  23.204  15.677  14.834
74679W        W46994  13.320  17.682  14.812
74680W        W46995  41.455  11.214  13.469
74681W        W46996   2.276  18.688   0.728
74682W        W46997   3.327  27.055  11.909
74683W        W46998  19.638  11.335  13.903
74684W        W46999   1.443  16.247  10.607
74685W        W47000  32.441  13.684  10.641
74686W        W47001  21.641  43.897  13.334
74687W        W47002  35.395  32.511  11.862
74688W        W47003  44.804  33.576   3.164
74689W        W47004  41.822  18.187  10.152
74690W        W47005  15.578  21.690  14.351
74691W        W47006   0.743  27.067  12.552
74692W        W47007   5.736   2.789  12.453
74693W        W47008  19.660  13.611  11.994
74694W        W47009  13.758  20.552   1.920
74695W        W47010   5.308   2.226  14.782
74696W        W47011  18.629  41.451   2.695
74697W        W47012  19.652  20.701  11.536
74698W        W47013  38.967  30.638   9.931
74699W        W47014  44.773  11.650   4.697
74700W        W47015  19.738  44.344   2.237
74701W        W47016  40.913  35.515  12.007
74702W        W47017   9.661   9.361  10.568
74703W        W47018  30.539   8.172   2.705
74704W        W47019   5.352  21.715   3.821
74705W        W47020  44.964   1.779   2.323
74706W        W47021  36.907  28.972  12.955
74707W        W47022   0.921  25.126  10.943
74708W        W47023  42.281  27.642  14.855
74709W        W47024  34.006  21.674   2.385
74710W        W47025   9.869   4.229  11.080
74711W        W47026  36.930  35.089   1.869
74712W        W47027   2.432  19.282   1.907
74713W        W47028  31.079  12.725   0.910
74714W        W47029  27.593  35.439  13.445
74715W        W47030  40.976  36.500  12.918
74716W        W47031  12.256  25.659  14.825
74717W        W47032   0.925  29.571   0.472
74718W        W47033  33.005   3.870   1.889
74719W        W47034  18.223  42.450   2.806
74720W        W47035  18.714  29.924   9.960
74721W        W47036   1.270   3.214   2.206
74722W        W47037   6.253  20.623   2.836
74723W        W47038   0.969   5.844   0.284
74724W        W47039   9.163  17.652  10.089
74725W        W47040  24.013  17.109  10.957
74726W        W47041  19.247   5.932  12.370
74727W        W47042  14.809  44.820   4.653
74728W        W47043   7.185  24.722  12.903
74729W        W47044  31.002  41.835  13.403
74730W        W47045   0.890   3.760  13.803
74731W        W47046  44.463  42.952   3.360
74732W        W47047  33.020  26.207  13.982
74733W        W47048  20.531  21.630   2.246
74734W        W47049  36.941  40.046   3.314
74735W        W47050  33.062  33.479  12.956
74736W        W47051  32.008  17.143  13.956
74737W        W47052  44.331   3.402   2.684
74738W        W47053  28.578  13.783  14.289
74739W        W47054   5.800  21.130   0.838
74740W        W47055  22.534  44.761   0.456
74741W        W47056  15.088  19.691  14.857
74742W        W47057  21.514  12.629   4.242
74743W        W47058  34.070  21.177  12.885
74744W        W47059  44.911  14.332   1.934
74745W        W47060  16.198  39.358   1.889
74746W        W47061  43.767  44.891   4.801
74747W        W47062  42.840   4.376   3.172
74748W        W47063   6.188  37.370   2.716
74749W        W47064  24.047  40.438  11.914
74750W        W47065  36.515  41.927   4.252
74751W        W47066  26.605  42.829   2.742
74752W        W47067  36.499  32.070   3.281
74753W        W47068  11.633  33.565   3.221
74754W        W47069  18.159  39.401   0.825
74755W        W47070   2.284  29.138   0.933
74756W        W47071  17.595   2.312  11.109
74757W        W47072  28.968  38.434  10.996
74758W        W47073  31.460   9.887   1.238
74759W        W47074  28.975  13.641  14.468
74760W        W47075   2.337  25.965   3.342
74761W        W47076  21.601  39.909   4.257
74762W        W47077  10.713  29.535   4.699
74763W        W47078  10.333  28.605   0.805
74764W        W47079  37.856  38.893  12.376
74765W        W47080  21.130  40.839  13.977
74766W        W47081  40.804  30.513  12.555
74767W        W47082   4.804  13.210   3.692
74768W        W47083  36.859  10.310   3.635
74769W        W47084  36.485  15.220  14.024
74770W        W47085  15.714  37.871  13.923
74771W        W47086  34.946  41.875  13.443
74772W        W47087  24.707  44.753  10.435
74773W        W47088  22.006  32.069  11.009
74774W        W47089   5.723   7.685   0.426
74775W        W47090   4.434  42.368  13.412
74776W        W47091   7.210   5.333   4.308
74777W        W47092   6.420  20.227  11.428
74778W        W47093  42.028  23.678   3.718
74779W        W47094  41.503  12.316   2.838
74780W        W47095  13.702  18.128  13.389
74781W        W47096  14.606   4.781  10.500
74782W        W47097  40.021  44.778   1.923
74783W        W47098  11.247   9.361  11.589
74784W        W47099  36.582  25.962   2.227
74785W        W47100  21.120   0.391  13.044
74786W        W47101  18.580  31.475   1.707
74787W        W47102   1.256  44.266   2.265
74788W        W47103  23.081  29.476  12.470
74789W        W47104  15.322  34.441  12.498
74790W        W47105  10.671  19.710   4.717
74791W        W47106  36.526  30.484   3.235
74792W        W47107  43.910   8.888  15.000
74793W        W47108  20.604  31.403  10.451
74794W        W47109  13.273  25.183   2.295
74795W        W47110  33.066  33.597   3.329
74796W        W47111   5.821  29.612   1.803
74797W        W47112   6.869  41.527   0.926
74798W        W47113  32.019   3.268  12.000
74799W        W47114  23.043  12.116  11.419
74800W        W47115  16.786  41.450   4.754
74801W        W47116  36.590  18.599  12.006
74802W        W47117  34.407  34.577   4.791
74803W        W47118  24.086  30.079  11.488
74804W        W47119  11.304   8.211  10.623
74805W        W47120  19.730   6.902  13.947
74806W        W47121  25.669  22.211   2.781
74807W        W47122  42.031  21.745   3.337
74808W        W47123  43.273  43.953  11.411
74809W        W47124  40.944  39.893  11.427
74810W        W47125   8.786  34.927  11.437
74811W        W47126  40.481  34.908  11.374
74812W        W47127  36.562  35.394  14.469
74813W        W47128  29.644  13.142  14.813
74814W        W47129  17.216  35.915  13.038
74815W        W47130  29.050  12.128   2.224
74816W        W47131  27.179   6.739  10.426
74817W        W47132  23.088   3.443  11.399
74818W        W47133  32.551  32.494   1.292
74819W        W47134  33.889   6.704  13.042
74820W        W47135  36.089  32.452  14.767
74821W        W47136   3.925  12.703   1.350
74822W        W47137   2.833  37.536   4.247
74823W        W47138  12.187   8.174  11.074
74824W        W47139  28.549  15.706  12.868
74825W        W47140  36.921  31.622   1.778
74826W        W47141   7.192  24.006  13.361
74827W        W47142   6.906  31.621   2.366
74828W        W47143  20.674  11.835   1.729
74829W        W47144   2.805  11.785   4.207
74830W        W47145  24.664  38.040  10.505
74831W        W47146   2.837  32.937  11.066
74832W        W47147  29.146   4.301   0.251
74833W        W47148   9.395   0.478   3.218
74834W        W47149   2.725   0.907   3.800
74835W        W47150  32.897  25.582   2.237
74836W        W47151  17.223  18.558  11.609
74837W        W47152  33.606   0.336   3.684
74838W        W47153  30.568  31.589  13.019
74839W        W47154  30.653  14.123  13.452
74840W        W47155   7.897  28.560  11.948
74841W        W47156  24.117  18.172  13.403
74842W        W47157  25.164   3.812   4.314
74843W        W47158  22.566   9.706   4.606
74844W        W47159  14.219  13.821  10.527
74845W        W47160   1.822  16.315   1.905
74846W        W47161  19.756  10.366   1.694
74847W        W47162  42.331  19.601   1.707
74848W        W47163  36.560  31.575  13.865
74849W        W47164  20.627  44.906   3.679
74850W        W47165  18.595   8.852  13.809
74851W        W47166   5.734  32.499  11.466
74852W        W47167   7.284  23.211   3.860
74853W        W47168  23.719  10.697  12.964
74854W        W47169  10.378  26.700   2.844
74855W        W47170  14.706  23.493   0.371
74856W        W47171   9.837  16.676  14.838
74857W        W47172  28.623  18.230   0.760
74858W        W47173  14.697  35.073   4.670
74859W        W47174  11.358  11.233  11.897
74860W        W47175   2.329  17.663  11.917
74861W        W47176  24.156   1.285   1.445
74862W        W47177  19.680  40.409   1.394
74863W        W47178  33.462  18.253  11.531
74864W        W47179  34.464  22.705   2.823
74865W        W47180  41.927  14.251  11.381
74866W        W47181   5.795   3.881  12.498
74867W        W47182  14.100  19.585   0.462
74868W        W47183  23.641   3.761   0.782
74869W        W47184  11.669  38.459  12.418
74870W        W47185  25.062  24.589  14.909
74871W        W47186  20.555  37.561   4.181
74872W        W47187   2.902  20.742   2.314
74873W        W47188  22.639  30.496   5.286
74874W        W47189  38.428   3.408  12.421
74875W        W47190  26.551   2.846  12.921
74876W        W47191  17.227  43.863   3.249
74877W        W47192   5.340  25.534   0.905
74878W        W47193   2.403  22.012   4.161
74879W        W47194   4.873  26.683  10.415
74880W        W47195  11.151  34.496  10.486
74881W        W47196  35.855  32.923   2.245
74882W        W47197   7.250  37.537  14.024
74883W        W47198  32.987  28.573   1.804
74884W        W47199  40.381  41.322  11.027
74885W        W47200  33.405  21.697   4.661
74886W        W47201   9.863  10.641   2.796
74887W        W47202   8.798  30.656   0.856
74888W        W47203  42.294  12.330  10.570
74889W        W47204  26.490  31.402  14.860
74890W        W47205   0.963  39.350   2.804
74891W        W47206  44.266  21.710  14.758
74892W        W47207  15.766   0.306  12.032
74893W        W47208   9.185  35.500   2.754
74894W        W47209   9.835  18.233   2.201
74895W        W47210  30.627   8.855  11.520
74896W        W47211  23.000  39.438  12.943
74897W        W47212  44.987  42.440   3.330
74898W        W47213  19.605  35.467   0.479
74899W        W47214  10.352  33.496   4.713
74900W        W47215  32.985  20.549  12.424
74901W        W47216  33.960  26.667   1.402
74902W        W47217  15.752   5.745   1.408
74903W        W47218  30.969  14.153   0.794
74904W        W47219   7.676  24.099   0.832
74905W        W47220  40.035  33.560  11.424
74906W        W47221  21.139  11.317   1.793
74907W        W47222  17.111  41.976   0.372
74908W        W47223   4.916  21.149   0.392
74909W        W47224  23.556  23.582  12.362
74910W        W47225   9.346  43.436  11.951
74911W        W47226  36.503   7.731  11.444
74912W        W47227  23.238  11.248  11.954
74913W        W47228  23.082   4.851  13.350
74914W        W47229  11.306  16.181  14.279
74915W        W47230  23.013  28.945  11.524
74916W        W47231  28.547   6.764   2.373
74917W        W47232  28.620   4.732   2.672
74918W        W47233  32.101   2.730  13.868
74919W        W47234  36.499  29.533  10.547
74920W        W47235  37.416  11.862   4.637
74921W        W47236  29.100  11.798   4.349
74922W        W47237  43.800  31.962   4.281
74923W        W47238  44.470   5.848   0.424
74924W        W47239  12.687  17.567  13.866
74925W        W47240  42.441  30.075  12.567
74926W        W47241  43.362  11.316  14.011
74927W        W47242  24.993  33.399   2.326
74928W        W47243  13.801  23.713  14.368
74929W        W47244  43.972  13.159   0.290
74930W        W47245   4.880  11.266   5.273
74931W        W47246  12.292  43.938   2.891
74932W        W47247  43.916   5.295   2.394
74933W        W47248   7.413  11.729   4.821
74934W        W47249  29.926  10.331  12.070
74935W        W47250  25.110   1.734  14.469
74936W        W47251   8.216  22.614   2.901
74937W        W47252  13.122  44.467  13.003
74938W        W47253  11.178  31.603   1.357
74939W        W47254  10.862  33.973   4.159
74940W        W47255  31.470  26.599   0.812
74941W        W47256  14.735   3.340   2.784
74942W        W47257  23.142  32.618  13.362
74943W        W47258  32.446  32.045   5.254
74944W        W47259  16.314   1.454  11.876
74945W        W47260  39.366  19.121   1.821
74946W        W47261   1.954  21.222  11.532
74947W        W47262  30.423   3.834   2.858
74948W        W47263  14.193  26.481   5.094
74949W        W47264  20.765  25.577   3.175
74950W        W47265  14.311   4.392   4.698
74951W        W47266  40.410  16.226  14.277
74952W        W47267  12.647  42.316  14.019
74953W        W47268  43.817  40.970   3.231
74954W        W47269  12.273  24.054   4.123
74955W        W47270  19.151  12.216  14.951
74956W        W47271  15.308   1.819   4.623
74957W        W47272  44.502  34.920   2.187
74958W        W47273  42.329  33.989  12.078
74959W        W47274  28.448  36.413   2.282
74960W        W47275  28.615  10.842  12.362
74961W        W47276  44.755  28.974   0.392
74962W        W47277  29.670  15.752   4.775
74963W        W47278   4.733  34.482  14.853
74964W        W47279  30.951  13.754  11.431
74965W        W47280   1.753  23.728  11.061
74966W        W47281  14.746  28.541   1.222
74967W        W47282  27.077  25.104   2.774
74968W        W47283   7.811   7.726   3.335
74969W        W47284   5.755  43.403  12.488
74970W        W47285  11.358  13.737  14.493
74971W        W47286   6.426  23.072  11.075
74972W        W47287   6.331  41.918  12.372
74973W        W47288  36.518  15.236  10.983
74974W        W47289  43.913  19.264   4.246
74975W        W47290  24.193  28.637   3.307
74976W        W47291  32.621  11.673  12.394
74977W        W47292  21.213  13.148  13.461
74978W        W47293  28.081  44.314  12.376
74979W        W47294  11.215   4.250   2.379
74980W        W47295  15.582  22.567   3.657
74981W        W47296   7.289   6.816  12.864
74982W        W47297   5.760   3.844   3.183
74983W        W47298  11.691  44.958   2.271
74984W        W47299  30.471  42.514   3.348
74985W        W47300  31.025  30.071   1.696
74986W        W47301  40.367   4.899  10.034
74987W        W47302  35.888  15.695  13.048
74988W        W47303  23.541  23.019   1.789
74989W        W47304   5.352  42.791  13.472
74990W        W47305  42.984   0.978  10.440
74991W        W47306   3.435  30.544   1.847
74992W        W47307  43.453  38.038   3.824
74993W        W47308  30.594   7.376   1.291
74994W        W47309  33.432  11.266  12.065
74995W        W47310  32.017   0.863   2.312
74996W        W47311  10.753  36.867   1.323
74997W        W47312  35.946   7.232  12.032
74998W        W47313   1.289  13.289   1.719
74999W        W47314  42.984  30.059  14.452
75000W        W47315  11.715  12.795  12.887
75001W        W47316   3.945  28.125   1.285
75002W        W47317  31.002  20.112  11.458
75003W        W47318  15.241   0.485   0.947
75004W        W47319  34.427  43.514   2.887
75005W        W47320  35.582  33.610  12.537
75006W        W47321   4.309  22.598  12.068
75007W        W47322  19.544   6.766  13.448
75008W        W47323   8.745  34.508  10.598
75009W        W47324  16.215  37.007  12.033
75010W        W47325  12.840   2.373  13.355
75011W        W47326  39.944  41.911  10.406
75012W        W47327  31.069  21.147  11.957
75013W        W47328  42.967  20.725  10.547
75014W        W47329  34.980  18.569  13.972
75015W        W47330   0.926  18.128  10.140
75016W        W47331  40.355  25.132  14.330
75017W        W47332  11.793  28.652   2.676
75018W        W47333  30.649  37.933  14.840
75019W        W47334  20.216   3.343   3.287
75020W        W47335  32.928   5.716  14.326
75021W        W47336  43.433  14.680  14.443
75022W        W47337  10.362  31.556  13.992
75023W        W47338  38.903   5.315  11.060
75024W        W47339   0.486  40.529  12.030
75025W        W47340  19.585  39.412   3.290
75026W        W47341  36.982  37.494   0.851
75027W        W47342  43.784  26.191  12.902
75028W        W47343  29.009  30.522   3.848
75029W        W47344  41.330   0.952   2.817
75030W        W47345  14.711   0.285  11.886
75031W        W47346  28.528  36.018   3.327
75032W        W47347  37.977  19.084  11.879
75033W        W47348  39.385  23.009   5.806
75034W        W47349  31.931  40.341  14.295
75035W        W47350  37.896  27.599  11.393
75036W        W47351  40.309  29.662   2.306
75037W        W47352   4.895  40.429  11.432
75038W        W47353  25.190   5.705  12.089
75039W        W47354   4.791  44.886  12.016
75040W        W47355  16.164  10.368  13.405
75041W        W47356  17.175   6.367  13.926
75042W        W47357  31.562  32.920   4.659
75043W        W47358  27.149   9.858  11.565
75044W        W47359  11.634  10.740  12.838
75045W        W47360  24.716   7.875   4.262
75046W        W47361  18.631  41.536   2.340
75047W        W47362   6.751  13.728   0.261
75048W        W47363   5.814  31.989   2.400
75049W        W47364  17.187  21.539   0.460
75050W        W47365  10.721  34.369  12.447
75051W        W47366  39.900   3.912  13.960
75052W        W47367  22.623  32.400  10.984
75053W        W47368  16.767  11.693  13.883
75054W        W47369  42.472  13.794   1.298
75055W        W47370  22.619   6.838  14.482
75056W        W47371  20.709  22.611   2.680
75057W        W47372  15.729  20.580   0.467
75058W        W47373  37.426  30.084   4.270
75059W        W47374  44.362  10.246  11.543
75060W        W47375  23.027  33.974  12.928
75061W        W47376  27.961  14.176  10.511
75062W        W47377  32.476  32.466  10.447
75063W        W47378  32.114  15.180  13.520
75064W        W47379  29.518   6.300  12.998
75065W        W47380   6.401  33.908  12.476
75066W        W47381  43.773  24.644  12.467
75067W        W47382   4.449  17.304   2.750
75068W        W47383  11.188  43.849   1.325
75069W        W47384  19.640  27.641   2.753
75070W        W47385  24.586   0.894   1.386
75071W        W47386  14.134  30.936   0.863
75072W        W47387  16.614  41.405  11.457
75073W        W47388  44.356  36.874  10.430
75074W        W47389  28.519  28.488  13.031
75075W        W47390  43.865  43.351  13.875
75076W        W47391  17.784  25.579  11.875
75077W        W47392  34.521  22.702   0.348
75078W        W47393   3.417   2.368   3.733
75079W        W47394   7.232  14.162   0.809
75080W        W47395   0.402  25.006  11.857
75081W        W47396  18.207  26.076   2.216
75082W        W47397  37.875   8.721   5.209
75083W        W47398  11.807   6.204   5.160
75084W        W47399  29.093   4.706   2.272
75085W        W47400  36.943   1.391   4.832
75086W        W47401  31.530  32.093   2.387
75087W        W47402  35.854  40.420  14.381
75088W        W47403  32.566  19.248  13.319
75089W        W47404   1.347  36.937  11.536
75090W        W47405  41.377  17.158  13.307
75091W        W47406  36.936  31.937   0.753
75092W        W47407   1.408  27.157  13.933
75093W        W47408  27.513  29.046  14.309
75094W        W47409  19.214  22.668  12.824
75095W        W47410  25.518  43.925   2.270
75096W        W47411  26.554  14.635   4.253
75097W        W47412  26.470  31.018   1.215
75098W        W47413  16.636  37.489  12.021
75099W        W47414  32.073  11.169  12.992
75100W        W47415  27.993  44.804   4.297
75101W        W47416   1.830  39.030  14.950
75102W        W47417  42.968  23.622   2.717
75103W        W47418  38.543  19.596   4.716
75104W        W47419  38.411  36.426   1.812
75105W        W47420  44.361  18.722  13.533
75106W        W47421  26.535  11.814  11.087
75107W        W47422   6.325   5.896  13.513
75108W        W47423  29.176  26.576   3.662
75109W        W47424  16.750  19.618  11.025
75110W        W47425  35.572  11.358  14.478
75111W        W47426  16.273  11.251  13.973
75112W        W47427  41.966  14.806  13.039
75113W        W47428   7.666  16.212   0.324
75114W        W47429  38.004   8.884   3.862
75115W        W47430  12.658  32.111   1.847
75116W        W47431  19.607  38.328   3.734
75117W        W47432  39.943  35.082  11.963
75118W        W47433  24.680  25.147   3.716
75119W        W47434  24.576  23.043  10.978
75120W        W47435  30.656  41.412  12.918
75121W        W47436  33.890  24.190  14.356
75122W        W47437  24.008  30.952  12.937
75123W        W47438   5.217  40.492  12.449
75124W        W47439  21.638  22.593  14.028
75125W        W47440  35.506  44.867   1.713
75126W        W47441  13.118  20.084   4.265
75127W        W47442  21.567   1.817  11.472
75128W        W47443  13.302  41.493   5.230
75129W        W47444   8.182  24.023  10.488
75130W        W47445   2.411  31.905  10.588
75131W        W47446   9.353  32.390   3.690
75132W        W47447  15.772  19.594   2.781
75133W        W47448  29.602  21.139  10.158
75134W        W47449  12.834   3.235   0.353
75135W        W47450   5.911  23.049   0.956
75136W        W47451  25.680   2.411  13.973
75137W        W47452  13.143  24.596   2.324
75138W        W47453  27.664  19.141  11.928
75139W        W47454  34.483   7.392   4.798
75140W        W47455  10.276  34.084   3.261
75141W        W47456   6.420  32.598   2.795
75142W        W47457  22.193  29.653  11.430
75143W        W47458  36.893  28.157   0.900
75144W        W47459  32.541  37.522  10.498
75145W        W47460  19.639  25.620   1.273
75146W        W47461  36.880  42.821  14.872
75147W        W47462  34.492  37.543   3.653
75148W        W47463   1.892   1.762   4.223
75149W        W47464  28.563  29.172   4.664
75150W        W47465  21.668  32.946   1.413
75151W        W47466  24.504  17.612  11.038
75152W        W47467  40.537  22.016  12.547
75153W        W47468  36.579  35.492  10.413
75154W        W47469   8.210  21.164  12.970
75155W        W47470  13.125   5.304  14.821
75156W        W47471  27.556   2.906   9.923
75157W        W47472   9.166  15.274  14.412
75158W        W47473  43.949  22.532  13.438
75159W        W47474  35.975  44.776  12.483
75160W        W47475  20.553  12.272  14.023
75161W        W47476  17.079  21.743   1.246
75162W        W47477  20.040   3.331  14.011
75163W        W47478  41.985  11.147  10.965
75164W        W47479  37.438  42.299   3.815
75165W        W47480   0.277  38.491  11.123
75166W        W47481  29.053  32.096  13.910
75167W        W47482  37.356  15.170  12.369
75168W        W47483   1.383   1.898  13.545
75169W        W47484  11.241  24.026   3.304
75170W        W47485   7.871  44.296  12.505
75171W        W47486  40.873   8.895   1.840
75172W        W47487  19.232   1.318   4.737
75173W        W47488  20.113  33.058  11.970
75174W        W47489  43.009   8.203   4.619
75175W        W47490  27.967  31.001  13.443
75176W        W47491  38.571  42.002  13.809
75177W        W47492  38.982  30.632  13.530
75178W        W47493  16.301   4.391  11.390
75179W        W47494  11.707  33.048  12.871
75180W        W47495  37.921  29.972  14.995
75181W        W47496  31.043  25.557  14.847
75182W        W47497  20.537   5.926  14.496
75183W        W47498   2.820  20.050  10.469
75184W        W47499  10.254  43.383  11.944
75185W        W47500   2.881  36.851  12.490
75186W        W47501   7.256  41.514  14.907
75187W        W47502  29.568  11.727  10.527
75188W        W47503  24.174  37.490   3.225
75189W        W47504  40.984  16.655  14.459
75190W        W47505   7.374  18.279  12.567
75191W        W47506  32.097  25.054  10.614
75192W        W47507   9.648  10.692   1.906
75193W        W47508   2.885  39.471  11.882
75194W        W47509  37.918  29.467   2.699
75195W        W47510  44.279  14.743  14.505
75196W        W47511  39.041  12.315   1.387
75197W        W47512  42.477  11.295   0.904
75198W        W47513  24.688   0.447   3.837
75199W        W47514   1.823  19.741  14.886
75200W        W47515   4.364  23.098  10.552
75201W        W47516   5.221  30.976  12.038
75202W        W47517  16.802  25.056  14.968
75203W        W47518  38.540  22.605  14.852
75204W        W47519  36.520   6.307   2.396
75205W        W47520  20.635   0.958  11.017
75206W        W47521  43.382  18.766  11.859
75207W        W47522   7.672  31.513   4.624
75208W        W47523  13.674  20.078   1.888
75209W        W47524  38.984  21.739   4.167
75210W        W47525  38.978  43.941  10.056
75211W        W47526   1.914  36.532   2.899
75212W        W47527  12.680  42.889  11.510
75213W        W47528  31.500  32.416  13.531
75214W        W47529  36.442  23.028   1.335
75215W        W47530  29.027  25.491   2.834
75216W        W47531  30.067  36.077  14.787
75217W        W47532   1.816  11.363   2.201
75218W        W47533  32.924  21.694  13.514
75219W        W47534  35.855  32.111   1.934
75220W        W47535   5.836  43.476   2.310
75221W        W47536  29.083   9.348  12.074
75222W        W47537  33.982  20.187   1.259
75223W        W47538  11.806  26.166  13.498
75224W        W47539   5.414   7.412   1.225
75225W        W47540  23.583  39.859  10.894
75226W        W47541  24.722  16.604   0.869
75227W        W47542   0.825  21.201   1.223
75228W        W47543  25.163  14.646  13.986
75229W        W47544  24.572   9.690  12.093
75230W        W47545  40.928  35.069   3.756
75231W        W47546  27.973  33.596  13.383
75232W        W47547  44.889  40.802  11.563
75233W        W47548  18.632  30.648  11.963
75234W        W47549  21.017  26.532  12.076
75235W        W47550  14.741  41.398   1.311
75236W        W47551  37.338  44.836   1.708
75237W        W47552  43.801  31.920   3.673
75238W        W47553  35.023  34.003  13.315
75239W        W47554   3.409   7.862  12.055
75240W        W47555  28.152  19.731   3.156
75241W        W47556   6.420   0.864   5.280
75242W        W47557   5.875  14.182   4.233
75243W        W47558   2.388  42.964   5.180
75244W        W47559  20.616  12.220   3.658
75245W        W47560  20.735  35.492   1.707
75246W        W47561  17.292   9.706   5.773
75247W        W47562  43.469  26.987  12.016
75248W        W47563   6.775   2.860  14.764
75249W        W47564   0.947   6.321   0.884
75250W        W47565  14.761  22.627   1.793
75251W        W47566  33.115   0.392   1.394
75252W        W47567  32.064  20.039   5.249
75253W        W47568  18.073  30.127   4.718
75254W        W47569  30.523  31.521  11.993
75255W        W47570  27.532  22.594   3.217
75256W        W47571  15.702   4.769   4.696
75257W        W47572   4.371  44.852  14.428
75258W        W47573  37.502  32.138   0.300
75259W        W47574  11.151  16.265   1.267
75260W        W47575  20.127  15.294   4.253
75261W        W47576  16.184   4.814   4.118
75262W        W47577   3.821  33.890   1.316
75263W        W47578  30.456  12.192   4.600
75264W        W47579  39.363  27.165   3.855
75265W        W47580  15.270  23.525  11.004
75266W        W47581  25.180  26.521   2.330
75267W        W47582  32.970   0.767  11.861
75268W        W47583  13.691  17.147   2.860
75269W        W47584  27.104  42.392   3.856
75270W        W47585  40.931  41.473   1.315
75271W        W47586  30.577  40.449   0.787
75272W        W47587  18.225  37.929  13.307
75273W        W47588  40.036  22.047   2.307
75274W        W47589  42.515  26.506  11.913
75275W        W47590  23.514   2.846  13.435
75276W        W47591  20.567  10.255   2.194
75277W        W47592   9.237  29.526   2.328
75278W        W47593  34.510  16.077  11.561
75279W        W47594  10.846   7.360   1.388
75280W        W47595  42.796  29.002  10.964
75281W        W47596  20.129  37.038  10.542
75282W        W47597  12.285  20.051   4.231
75283W        W47598  35.934  28.551   4.743
75284W        W47599  41.387  38.443   2.334
75285W        W47600  23.162  41.409   0.260
75286W        W47601  16.142  32.472   0.727
75287W        W47602  19.059  12.838  12.355
75288W        W47603  34.982  19.172  13.922
75289W        W47604  16.809  17.787   1.337
75290W        W47605  27.570  15.298  10.612
75291W        W47606  24.488  27.659  13.482
75292W        W47607  21.173   7.374   5.097
75293W        W47608   2.351  39.895  11.911
75294W        W47609  42.834   2.953  12.965
75295W        W47610  19.233   4.738   1.715
75296W        W47611  20.643  26.138   3.701
75297W        W47612  39.557  40.379  11.866
75298W        W47613  12.288  17.234  12.523
75299W        W47614  12.668  19.282   1.743
75300W        W47615  35.955   2.469   0.876
75301W        W47616  32.059  18.056   0.917
75302W        W47617  37.451  43.990   0.956
75303W        W47618  39.931  16.703  14.439
75304W        W47619  11.171  39.066   0.778
75305W        W47620  11.632  29.148   4.129
75306W        W47621  21.187  13.322  14.931
75307W        W47622  31.083   2.359  11.577
75308W        W47623  37.898  13.650   0.253
75309W        W47624   8.716  28.673  13.358
75310W        W47625  25.998  18.733  12.925
75311W        W47626  30.501  41.029  14.008
75312W        W47627  22.530   2.955  11.085
75313W        W47628  33.935  22.139  10.430
75314W        W47629  30.499  31.116   1.736
75315W        W47630  37.383  32.934  10.990
75316W        W47631  24.533  26.588   4.265
75317W        W47632  20.109   9.197  13.937
75318W        W47633   0.841   5.735  13.003
75319W        W47634  25.553   9.671   4.812
75320W        W47635   5.419  22.123  13.041
75321W        W47636  23.712  41.301   0.461
75322W        W47637  33.083  28.487   0.864
75323W        W47638  37.024  31.998   0.347
75324W        W47639  40.880  13.149   2.191
75325W        W47640  17.104  17.252  12.906
75326W        W47641  30.647  35.586  13.887
75327W        W47642  18.545  33.544   0.883
75328W        W47643  28.938  26.190  11.555
75329W        W47644  28.052  37.031   0.790
75330W        W47645   1.297  31.444   1.751
75331W        W47646  14.800  18.567   2.338
75332W        W47647  37.871  24.094   5.674
75333W        W47648   6.205  26.075  10.132
75334W        W47649  16.126   1.775   4.258
75335W        W47650  37.905   9.357   1.830
75336W        W47651  14.697  44.287   4.281
75337W        W47652  39.351  26.523  14.882
75338W        W47653   5.397  27.544   4.150
75339W        W47654   1.836   3.891  10.937
75340W        W47655   2.786  33.588   1.299
75341W        W47656   2.398   2.867  10.500
75342W        W47657  10.683  24.980   1.772
75343W        W47658  27.165  15.191   1.707
75344W        W47659  27.965  30.999   1.298
75345W        W47660  16.715  17.781   4.247
75346W        W47661   8.173  37.398   5.205
75347W        W47662  41.918   0.944  10.018
75348W        W47663   3.351  12.146   4.702
75349W        W47664  13.168  20.624  13.911
75350W        W47665  40.484  30.481   1.331
75351W        W47666   0.827  27.121  11.876
75352W        W47667  16.195  34.452  11.998
75353W        W47668  13.660  16.678   2.864
75354W        W47669  38.913  10.166   4.754
75355W        W47670  39.370  14.616  10.432
75356W        W47671  43.495  10.347  10.084
75357W        W47672  24.603  24.496   2.684
75358W        W47673   3.844  27.643  13.018
75359W        W47674  31.584  36.548   2.215
75360W        W47675   2.768   2.824  12.426
75361W        W47676  34.409  22.639  13.309
75362W        W47677  12.697   5.225  13.448
75363W        W47678   4.314   5.422   3.179
75364W        W47679   2.861  36.864   1.360
75365W        W47680   3.443  37.390  12.850
75366W        W47681   3.822  15.639  14.893
75367W        W47682  22.009  18.181   1.382
75368W        W47683  43.846  30.535   3.371
75369W        W47684  10.751  15.682  11.038
75370W        W47685  29.100  15.285   0.792
75371W        W47686  29.012  41.445   1.776
75372W        W47687  19.733  39.516   1.709
75373W        W47688  36.013   3.888   4.258
75374W        W47689  18.599  17.756   0.289
75375W        W47690  35.508  26.072  12.353
75376W        W47691  25.474  41.510  13.412
75377W        W47692  44.844   4.805   3.288
75378W        W47693  19.242  44.260   2.190
75379W        W47694  39.315  23.548   3.635
75380W        W47695  40.825  35.505  12.485
75381W        W47696  11.325  44.866   0.919
75382W        W47697  10.718  22.194   4.706
75383W        W47698  11.328   3.283   2.719
75384W        W47699  18.294  15.308  11.908
75385W        W47700  34.985  20.242  10.499
75386W        W47701  22.561   4.441  13.479
75387W        W47702  22.733  42.409   1.803
75388W        W47703  27.539  42.336  11.483
75389W        W47704  14.245  38.443  12.043
75390W        W47705  16.641  12.267  12.398
75391W        W47706  19.268  18.227  13.458
75392W        W47707  13.113  35.969   3.214
75393W        W47708  44.872  25.585   1.793
75394W        W47709  23.210   5.866   1.254
75395W        W47710  11.841  25.628  11.586
75396W        W47711  19.761  15.692   2.412
75397W        W47712  10.872   8.267  13.529
75398W        W47713   8.358  14.244  13.369
75399W        W47714  34.430  44.440   2.338
75400W        W47715   8.685  39.425   1.921
75401W        W47716   8.338   7.732   4.682
75402W        W47717  21.122  27.482   4.728
75403W        W47718   0.916  10.699  13.400
75404W        W47719  13.624  33.566   4.121
75405W        W47720  11.742  11.178   3.758
75406W        W47721  10.769  17.273   1.258
75407W        W47722  23.566  44.441   0.279
75408W        W47723  25.121  25.710  13.339
75409W        W47724  28.593  14.604   4.176
75410W        W47725  36.549  29.563   3.146
75411W        W47726  16.191  44.271   2.327
75412W        W47727  21.514  30.939   1.864
75413W        W47728  34.907  31.141   1.250
75414W        W47729  39.983  32.574  11.113
75415W        W47730  14.756  23.520   3.779
75416W        W47731  39.507  35.425   0.394
75417W        W47732  34.571  26.614  13.959
75418W        W47733  11.155  41.318   4.247
75419W        W47734  14.655  22.548  11.393
75420W        W47735  25.991  21.076  10.610
75421W        W47736  21.213  38.528   1.729
75422W        W47737  40.471  10.174   0.437
75423W        W47738  42.345  34.471   1.327
75424W        W47739  38.910   1.396   3.789
75425W        W47740  44.280  15.813   4.685
75426W        W47741  10.659  11.661   1.337
75427W        W47742  43.357  29.506   2.866
75428W        W47743  28.958  44.999   4.654
75429W        W47744   9.322   5.917  11.585
75430W        W47745   0.986  36.544  11.091
75431W        W47746  26.565  34.564   5.246
75432W        W47747  42.979   2.763  11.499
75433W        W47748  34.974  41.534  14.995
75434W        W47749  12.268   6.277  11.043
75435W        W47750  33.021   1.476   2.781
75436W        W47751  31.025  12.833  13.941
75437W        W47752  35.081  36.584   1.222
75438W        W47753   8.702  33.116  14.977
75439W        W47754  10.182  16.731   3.212
75440W        W47755  17.620  38.404   3.649
75441W        W47756  15.114  33.954  14.786
75442W        W47757  27.619  10.766  10.506
75443W        W47758  43.465   7.699   4.679
75444W        W47759  38.478  40.967   4.638
75445W        W47760  24.038  15.105  10.929
75446W        W47761   4.892  40.460  13.820
75447W        W47762  31.005  41.403  13.878
75448W        W47763  15.115   6.264  11.997
75449W        W47764  41.446  17.145  11.489
75450W        W47765  39.971   7.308  14.943
75451W        W47766  31.136  28.669  10.435
75452W        W47767  16.731  10.665   9.608
75453W        W47768  22.065   7.879   1.899
75454W        W47769  12.761   0.799   3.330
75455W        W47770  15.232  16.758   0.254
75456W        W47771  38.849  17.065   1.361
75457W        W47772  11.372  38.837   1.756
75458W        W47773  31.442  34.964   4.620
75459W        W47774  43.883  10.815   2.187
75460W        W47775  15.729  30.427  13.838
75461W        W47776   4.399  20.260  13.331
75462W        W47777  20.274  36.516  10.557
75463W        W47778  37.572  37.484  10.894
75464W        W47779  12.657  32.411  12.410
75465W        W47780  23.097  35.429   1.349
75466W        W47781  18.201  40.339  13.967
75467W        W47782  38.482   9.744   1.921
75468W        W47783  24.539  34.478   4.330
75469W        W47784  28.645  12.621  10.469
75470W        W47785  22.192  40.305   1.221
75471W        W47786  39.831  29.601   4.670
75472W        W47787   3.421  16.642   1.854
75473W        W47788   5.423  17.619   4.285
75474W        W47789   5.335  38.427   0.823
75475W        W47790  36.463   3.930  14.832
75476W        W47791  25.157  10.166   2.730
75477W        W47792  32.037  32.588   0.916
75478W        W47793  17.141   0.787   2.689
75479W        W47794  43.303  34.449  12.905
75480W        W47795  11.788  11.705   4.744
75481W        W47796  28.522   8.246   3.285
75482W        W47797  22.062   0.340  12.408
75483W        W47798  39.013  29.936   1.909
75484W        W47799  19.210   2.957   4.743
75485W        W47800  16.640   9.758   1.749
75486W        W47801  28.599  30.149  13.929
75487W        W47802   5.707   6.912   2.230
75488W        W47803  25.491   6.719  13.001
75489W        W47804  33.422  41.960  14.341
75490W        W47805  19.753  34.999  13.537
75491W        W47806  37.396  10.188  14.512
75492W        W47807   9.183  28.546  13.329
75493W        W47808  26.476   8.198  11.600
75494W        W47809  21.224  40.519  11.472
75495W        W47810   0.326  13.218  11.477
75496W        W47811  38.021   4.445  12.573
75497W        W47812  31.969  17.292  13.357
75498W        W47813  30.632  32.435   3.766
75499W        W47814  31.570  42.802   4.262
75500W        W47815  29.465  27.951   0.925
75501W        W47816  35.447  40.481  14.387
75502W        W47817  18.252  10.809  12.976
75503W        W47818  16.138  34.407  11.514
75504W        W47819  19.114  43.402   4.249
75505W        W47820  23.228  24.683   2.858
75506W        W47821  17.234   9.709  11.895
75507W        W47822  33.607  29.062  13.416
75508W        W47823  11.154  34.550  12.934
75509W        W47824  34.420  10.190   2.783
75510W        W47825  42.394  16.796  12.915
75511W        W47826  10.200  10.641   4.180
75512W        W47827   4.329  21.553   1.903
75513W        W47828   0.258  20.045  10.451
75514W        W47829  28.184  23.643   4.829
75515W        W47830  30.022  14.675   0.924
75516W        W47831   8.823  15.740   1.841
75517W        W47832  13.599  43.452  11.434
75518W        W47833  43.515  18.764  13.355
75519W        W47834  23.695  21.027   1.819
75520W        W47835   2.800  10.361   0.888
75521W        W47836  20.189  40.878  10.513
75522W        W47837  42.848   1.365  12.842
75523W        W47838   9.669  26.042   2.808
75524W        W47839  16.634   5.326   4.628
75525W        W47840  10.259   1.963   2.240
75526W        W47841  22.222  16.256   3.759
75527W        W47842  12.154  22.025  10.545
75528W        W47843   8.837  28.564  11.985
75529W        W47844  10.874  30.609   4.351
75530W        W47845  42.885   7.280   0.910
75531W        W47846  29.014  22.724  11.921
75532W        W47847  36.875  44.373  13.032
75533W        W47848  44.885  17.697   0.341
75534W        W47849  16.113  27.651  13.432
75535W        W47850  26.017  42.874  14.768
75536W        W47851  41.790  35.860  14.007
75537W        W47852   5.927   0.876   4.613
75538W        W47853  20.075  40.868   2.202
75539W        W47854  37.341  31.931   2.260
75540W        W47855  32.020   1.254   4.297
75541W        W47856  19.149  14.652   0.373
75542W        W47857  23.185  10.373   4.776
75543W        W47858  29.024  32.485  10.424
75544W        W47859  39.032  18.227  12.020
75545W        W47860  22.613  29.157   4.343
75546W        W47861  20.157  39.907  10.958
75547W        W47862   4.909  38.406  14.800
75548W        W47863  43.810  23.545   3.659
75549W        W47864  14.762  26.461   1.286
75550W        W47865  22.633   1.917  11.881
75551W        W47866  21.728  16.297  13.539
75552W        W47867   3.271  30.111   3.357
75553W        W47868  36.490  38.459   0.958
75554W        W47869  16.180  11.765  12.867
75555W        W47870  42.900  28.995   2.287
75556W        W47871  33.056  36.898   3.713
75557W        W47872  12.763  44.432   0.389
75558W        W47873  40.367  35.408  13.363
75559W        W47874  35.478  40.832   4.293
75560W        W47875  17.651  11.662  14.834
75561W        W47876  15.599  32.618  10.613
75562W        W47877  19.574  19.173   2.869
75563W        W47878   2.396  16.758  12.368
75564W        W47879   8.794   7.776  11.080
75565W        W47880   5.897  15.603  14.988
75566W        W47881  16.602   2.243   4.674
75567W        W47882  26.184  32.541  14.354
75568W        W47883  29.155   2.777  11.549
75569W        W47884  36.952   2.893   1.712
75570W        W47885  17.743  27.572   4.199
75571W        W47886  18.119  13.233  14.869
75572W        W47887  40.544   6.210  12.552
75573W        W47888   2.920  34.421  14.797
75574W        W47889  37.039  32.116  12.922
75575W        W47890   7.834  26.121   1.325
75576W        W47891  42.449  41.525   3.704
75577W        W47892  13.681  24.095  13.860
75578W        W47893  43.906  30.158  14.386
75579W        W47894   7.885   5.822   0.433
75580W        W47895  16.268  25.482  14.939
75581W        W47896   9.159  19.082  14.376
75582W        W47897   8.672  39.418   4.728
75583W        W47898   4.840  10.362   5.230
75584W        W47899  41.524  20.579   4.197
75585W        W47900  10.304  25.565   1.860
75586W        W47901   1.852  23.012  11.108
75587W        W47902  31.550  18.774   3.158
75588W        W47903  38.997  13.272   5.242
75589W        W47904   6.888  37.959  14.883
75590W        W47905  33.875  12.818  11.381
75591W        W47906   4.817   6.823   4.654
75592W        W47907  20.085  37.430  12.522
75593W        W47908  21.564  30.988  12.911
75594W        W47909  38.440  31.133   3.808
75595W        W47910  19.672  44.945   2.897
75596W        W47911  32.915  39.864   4.708
75597W        W47912  17.575  23.998  13.537
75598W        W47913  11.326  29.508  10.623
75599W        W47914  37.838  27.094   1.215
75600W        W47915  31.533  20.133  13.319
75601W        W47916  28.520   5.242  13.022
75602W        W47917  21.138  37.439  14.818
75603W        W47918  23.582   3.432  13.545
75604W        W47919  11.292  31.545  12.535
75605W        W47920   3.837  30.474  10.986
75606W        W47921  28.595  44.915  11.410
75607W        W47922  13.835  30.009   0.411
75608W        W47923   5.414  27.083  14.828
75609W        W47924  41.505  42.006  12.924
75610W        W47925   2.836   8.830  12.477
75611W        W47926   9.261  25.628  11.093
75612W        W47927  38.857   6.744  14.303
75613W        W47928  11.849  19.705  11.419
75614W        W47929  16.591  31.050   2.729
75615W        W47930  41.007  43.996  10.469
75616W        W47931  19.207  27.690  13.518
75617W        W47932   5.871   1.731  12.000
75618W        W47933  36.024  25.713   4.160
75619W        W47934  11.355  11.332   4.324
75620W        W47935  11.144  18.766   1.856
75621W        W47936  17.623   3.237  14.407
75622W        W47937  37.414  12.165  14.431
75623W        W47938  38.442  23.628   5.158
75624W        W47939  18.725  34.391  14.335
75625W        W47940  27.000  39.043  11.044
75626W        W47941  42.017  11.305   3.212
75627W        W47942  18.694   8.856  12.345
75628W        W47943  17.604  21.041   4.767
75629W        W47944  19.614  42.438  11.425
75630W        W47945  35.538  24.671  12.021
75631W        W47946   2.416   8.795  12.551
75632W        W47947  24.099  44.926   2.228
75633W        W47948  26.977  32.024   0.838
75634W        W47949   8.171   9.297   2.899
75635W        W47950   7.666  31.481   0.457
75636W        W47951   7.414  37.520  11.417
75637W        W47952  40.325  34.070  14.916
75638W        W47953  20.151   3.794   2.858
75639W        W47954  29.625   9.745  14.875
75640W        W47955  22.629  24.614  10.092
75641W        W47956  14.763   7.373   3.652
75642W        W47957  32.937   8.234   0.294
75643W        W47958  28.975  43.848   0.462
75644W        W47959   7.740  16.587  12.053
75645W        W47960  28.493  10.650  14.509
75646W        W47961  31.963  37.076  14.883
75647W        W47962  15.141   3.940  14.340
75648W        W47963  31.469   1.965  13.816
75649W        W47964  23.602   4.311  11.934
75650W        W47965   1.408  24.079  14.797
75651W        W47966  37.349   7.188   1.903
75652W        W47967  34.895   7.287   2.678
75653W        W47968   0.290  36.449  10.544
75654W        W47969  16.143  43.839   4.273
75655W        W47970   4.322  11.722   2.664
75656W        W47971  22.566   3.386  11.609
75657W        W47972  29.076  31.452   3.734
75658W        W47973  25.507  37.460  14.853
75659W        W47974  26.078  11.278  13.394
75660W        W47975  31.001   0.273   3.858
75661W        W47976  23.163  16.099  10.463
75662W        W47977  25.039  22.195  10.958
75663W        W47978  17.782  15.670  12.517
75664W        W47979   3.299  20.208   3.845
75665W        W47980  10.354  43.289   2.667
75666W        W47981  31.468   8.860  13.025
75667W        W47982  40.873  22.540   4.755
75668W        W47983  37.547  16.811   2.206
75669W        W47984  27.016   7.321  13.847
75670W        W47985   2.852  23.216  11.600
75671W        W47986  40.853   7.798  13.042
75672W        W47987  16.804  30.918  11.551
75673W        W47988  28.105  44.903   2.227
75674W        W47989  25.095  11.808   4.346
75675W        W47990   1.786   0.429   0.813
75676W        W47991  15.093  10.325  12.828
75677W        W47992  15.238  18.618  11.016
75678W        W47993   8.273  24.093   2.862
75679W        W47994  30.442  34.932   4.352
75680W        W47995  11.799  27.158   1.266
75681W        W47996   4.287  11.317   1.307
75682W        W47997  25.195  43.351   2.708
75683W        W47998  12.310  12.307  10.501
75684W        W47999  44.913  15.756   0.947
75685W        W48000  16.261  13.684  10.438
75686W        W48001  35.053  30.004  11.988
75687W        W48002  13.845  42.953   0.750
75688W        W48003  44.977  41.462   1.385
75689W        W48004  11.799  16.109  11.595
75690W        W48005  37.882  20.124   2.217
75691W        W48006  24.096  11.225  11.587
75692W        W48007  34.570  40.801   1.385
75693W        W48008   5.806  22.016   0.810
75694W        W48009  38.824   9.179   0.387
75695W        W48010  25.569  41.303  11.108
75696W        W48011   7.196   8.695   2.394
75697W        W48012  32.634  31.130   0.332
75698W        W48013  11.290  38.361  10.461
75699W        W48014  42.016  39.369  14.376
75700W        W48015  11.640  35.415   0.939
75701W        W48016  24.544  28.022   1.265
75702W        W48017   2.803   7.770   2.223
75703W        W48018  28.567  17.162   4.216
75704W        W48019   4.208  31.010   2.212
75705W        W48020  21.651  25.214   0.477
75706W        W48021  12.728  21.604   3.733
75707W        W48022  28.586   1.442   1.351
75708W        W48023   7.272   0.885  13.968
75709W        W48024  40.502   7.793  13.830
75710W        W48025  43.288  32.927  14.462
75711W        W48026  23.578  20.583   2.375
75712W        W48027  16.262  28.169  14.483
75713W        W48028  17.213  28.523  14.863
75714W        W48029  11.293  14.794  14.364
75715W        W48030  21.579  35.395  10.428
75716W        W48031  29.115  38.473   1.926
75717W        W48032  31.562  43.478   0.321
75718W        W48033  11.176   4.753  11.409
75719W        W48034  13.325  17.669  11.961
75720W        W48035  26.097  28.982   3.250
75721W        W48036  36.921  38.838   0.873
75722W        W48037  21.615   2.852  13.532
75723W        W48038   1.842   3.721   0.948
75724W        W48039  22.528  29.932   3.258
75725W        W48040  23.554  16.115  14.026
75726W        W48041   8.729  20.722   3.862
75727W        W48042   0.986  10.722   1.279
75728W        W48043  29.534   2.879   2.712
75729W        W48044   8.331  38.960   0.759
75730W        W48045  40.529  28.135  11.907
75731W        W48046  31.932  30.541  12.366
75732W        W48047  41.887   5.790   4.689
75733W        W48048  18.228  18.714  13.029
75734W        W48049  13.840  26.068   0.919
75735W        W48050   7.410  16.260  14.409
75736W        W48051   4.277  36.037  14.799
75737W        W48052   2.814  25.144  13.955
75738W        W48053  38.399  26.541   5.142
75739W        W48054   4.209  16.781  12.377
75740W        W48055  26.156   9.207  14.828
75741W        W48056  41.938  32.022   1.231
75742W        W48057  29.497  35.094  12.906
75743W        W48058  31.632   8.835   2.775
75744W        W48059  25.499  31.146  13.403
75745W        W48060  18.748  34.584   1.366
75746W        W48061  35.036  25.470  14.293
75747W        W48062  18.271  24.062   4.148
75748W        W48063  17.701   3.457  13.879
75749W        W48064  29.530  43.402  11.052
75750W        W48065  29.502   3.219   0.951
75751W        W48066  24.198  30.990   0.805
75752W        W48067  18.669  34.941   2.701
75753W        W48068  41.434   3.426   2.814
75754W        W48069  24.090  35.041   3.254
75755W        W48070  39.925  39.556  14.851
75756W        W48071  29.488  10.300   1.728
75757W        W48072  15.597  12.180   1.901
75758W        W48073  36.940  30.637  12.943
75759W        W48074  28.536  42.401   3.765
75760W        W48075  40.511  35.459  12.986
75761W        W48076  13.325  38.379   1.414
75762W        W48077  38.009  42.526  14.965
75763W        W48078  10.233  21.578  12.877
75764W        W48079  12.138  31.511  13.049
75765W        W48080  16.099  28.584   3.310
75766W        W48081  11.735  42.441   4.723
75767W        W48082  44.910  22.092  14.394
75768W        W48083   4.720  41.294  12.095
75769W        W48084  22.619  17.767  11.561
75770W        W48085  18.771  39.353  13.315
75771W        W48086  15.085   0.880   4.231
75772W        W48087  32.624  26.982   4.248
75773W        W48088  17.689  37.430   2.795
75774W        W48089  28.525  28.150   1.358
75775W        W48090  33.483   6.873   1.888
75776W        W48091   8.768  13.667   1.438
75777W        W48092  24.227  14.663   4.222
75778W        W48093  33.484   1.303   3.168
75779W        W48094  23.521  20.732   3.683
75780W        W48095  35.466   8.209   3.382
75781W        W48096  44.320   9.784   3.345
75782W        W48097   4.869   6.351   1.726
75783W        W48098  38.963   5.431  14.856
75784W        W48099  13.839  29.161  11.412
75785W        W48100  31.079  17.796  13.018
75786W        W48101   7.227  30.416  12.064
75787W        W48102  24.624  32.555  13.013
75788W        W48103   8.186  33.063  13.518
75789W        W48104  15.677  38.874   2.357
75790W        W48105  35.593  23.678  11.917
75791W        W48106  17.609  31.933   4.220
75792W        W48107  30.932  42.997  10.586
75793W        W48108   4.416  10.857  10.466
75794W        W48109  36.903   3.452   0.886
75795W        W48110  17.264  19.188   2.264
75796W        W48111  20.079  36.374  14.399
75797W        W48112   4.205  29.525   3.858
75798W        W48113  17.566   1.443   4.225
75799W        W48114   6.273  28.130  11.858
75800W        W48115   1.356  28.568  12.355
75801W        W48116  38.547  23.505   2.254
75802W        W48117  30.534  34.921   4.837
75803W        W48118  42.006  39.824   0.283
75804W        W48119  44.423   6.305   1.372
75805W        W48120  37.364  29.538   1.445
75806W        W48121  42.436  24.144  11.578
75807W        W48122   7.835  44.002  14.929
75808W        W48123  31.544  16.751   0.376
75809W        W48124  25.983  15.229  11.883
75810W        W48125  40.422  41.033  14.929
75811W        W48126  24.169   9.353   1.255
75812W        W48127  15.292   3.802  13.398
75813W        W48128  16.135  31.943   0.435
75814W        W48129  42.338  18.773   0.444
75815W        W48130  43.471  21.037  14.400
75816W        W48131  32.090  36.580  12.955
75817W        W48132  24.122  35.021   2.196
75818W        W48133  32.543  15.236   2.737
75819W        W48134  40.465  42.817   0.932
75820W        W48135  26.610  34.378  14.358
75821W        W48136   8.263  15.308   1.758
75822W        W48137  11.803  14.729  14.358
75823W        W48138  34.380  34.925  13.489
75824W        W48139  42.804  11.621  12.998
75825W        W48140  18.723  36.062   1.740
75826W        W48141  11.361  36.559   2.293
75827W        W48142  29.122  16.242   2.208
75828W        W48143  32.501  32.957   0.368
75829W        W48144  19.582   8.379  14.010
75830W        W48145   4.800  41.849  12.491
75831W        W48146  11.652  33.565   0.896
75832W        W48147  33.399  20.560  10.590
75833W        W48148  19.215  25.519   3.655
75834W        W48149  35.380  21.662  12.945
75835W        W48150  40.509   1.910   4.173
75836W        W48151  24.608   5.397   4.220
75837W        W48152  42.371  31.152   4.613
75838W        W48153   1.275  24.593   3.826
75839W        W48154   8.183  13.142   2.309
75840W        W48155  27.664  39.384   0.391
75841W        W48156   7.413  40.814   2.268
75842W        W48157  33.616  12.185   1.796
75843W        W48158   6.797   2.744  10.625
75844W        W48159  23.226  36.454  13.889
75845W        W48160   6.721   8.745  12.449
75846W        W48161  18.750  43.506   0.247
75847W        W48162  39.328  33.544   4.709
75848W        W48163   2.424  41.351  13.062
75849W        W48164  17.231   7.749   4.156
75850W        W48165  36.893  14.160  13.860
75851W        W48166  22.562   7.417   1.699
75852W        W48167  39.015  26.079   0.411
75853W        W48168  22.731   4.807  13.975
75854W        W48169  31.583  15.764  10.983
75855W        W48170  41.929  16.074  14.413
75856W        W48171   0.759  33.451  14.497
75857W        W48172   8.174  44.443  13.432
75858W        W48173  22.680  27.179  11.490
75859W        W48174  28.979  30.570  13.320
75860W        W48175  30.425   3.366  14.805
75861W        W48176  23.688  24.062  12.454
75862W        W48177  25.477  26.645  13.932
75863W        W48178  19.590  44.789  13.939
75864W        W48179  39.015  43.834   1.400
75865W        W48180   7.285  17.182  13.830
75866W        W48181  28.185  33.410   0.773
75867W        W48182   3.359   4.857   5.144
75868W        W48183  13.301  19.724   1.935
75869W        W48184   2.259   9.347  10.406
75870W        W48185  32.633   8.860   5.100
75871W        W48186  14.147  12.311  14.011
75872W        W48187  41.478  36.934   2.713
75873W        W48188   7.791  12.208  11.481
75874W        W48189  42.395  15.144  12.091
75875W        W48190   1.419  32.601   2.875
75876W        W48191  17.287  27.576  11.474
75877W        W48192  25.600  24.599  13.926
75878W        W48193  22.218  28.173   4.194
75879W        W48194   9.273   0.866  14.427
75880W        W48195  44.803  12.137  12.474
75881W        W48196  37.438   4.431   2.261
75882W        W48197  12.641  22.534  13.960
75883W        W48198  21.589   3.335  14.833
75884W        W48199  28.463  17.090  13.972
75885W        W48200  27.144  24.658  10.546
75886W        W48201  15.710  19.143  11.082
75887W        W48202  33.568  17.283   3.851
75888W        W48203  15.636   9.325   3.843
75889W        W48204  35.595   9.799   1.885
75890W        W48205   0.463  13.791   3.385
75891W        W48206   1.742  32.964  11.879
75892W        W48207   4.407  39.858   4.137
75893W        W48208  29.063  14.114   1.262
75894W        W48209  28.985   6.337  13.460
75895W        W48210  43.459   9.244   4.637
75896W        W48211  25.679  24.582  12.854
75897W        W48212   2.906  37.367   1.229
75898W        W48213  12.722  25.102  11.070
75899W        W48214  30.998  14.619   2.779
75900W        W48215   7.297  35.486  13.344
75901W        W48216  16.661   1.778  12.381
75902W        W48217  32.525  42.887  10.472
75903W        W48218  32.398  14.602   4.342
75904W        W48219   2.359   8.205   2.796
75905W        W48220  19.710  41.484  12.454
75906W        W48221   9.752  33.887   1.900
75907W        W48222  36.507  42.954   4.212
75908W        W48223   1.450  37.431  11.478
75909W        W48224  25.485  28.185   1.842
75910W        W48225   0.284   7.730   2.296
75911W        W48226   3.232  23.649  14.939
75912W        W48227  32.936  29.463   4.808
75913W        W48228  25.136  23.193   4.653
75914W        W48229  10.845  20.705   2.798
75915W        W48230  40.819  19.078   2.677
75916W        W48231  37.868  37.970  11.980
75917W        W48232   2.432   6.257   3.335
75918W        W48233  32.022  42.924   5.226
75919W        W48234   5.913  33.083   4.299
75920W        W48235  25.648  41.962  13.039
75921W        W48236  44.464  17.686   0.774
75922W        W48237  24.100   5.357   3.272
75923W        W48238  27.095  37.375   1.711
75924W        W48239   4.741  31.931   0.909
75925W        W48240  21.242   5.834   1.441
75926W        W48241  13.219  16.669  14.769
75927W        W48242  42.425  19.760  13.954
75928W        W48243  41.809   8.831  12.982
75929W        W48244  18.770  31.571   4.621
75930W        W48245  15.751  29.048   3.248
75931W        W48246  40.313   7.340  14.928
75932W        W48247  37.057  32.942   0.353
75933W        W48248  21.702  10.241   3.856
75934W        W48249  44.286  32.946   0.440
75935W        W48250  44.887  28.175   3.241
75936W        W48251  33.429  30.590   3.804
75937W        W48252   4.773  15.586   0.309
75938W        W48253  12.823  34.047  13.429
75939W        W48254  23.709  34.059  11.421
75940W        W48255  34.059  15.743   2.294
75941W        W48256  39.050  24.551  13.006
75942W        W48257  30.929  17.759   1.240
75943W        W48258  24.044   3.216  10.149
75944W        W48259  14.158   1.828  13.324
75945W        W48260  26.998  40.328  12.574
75946W        W48261   5.743  18.604  14.909
75947W        W48262   2.956  23.604   2.336
75948W        W48263  34.072  35.059  13.358
75949W        W48264  37.385  33.894   0.249
75950W        W48265  39.456   5.355   0.834
75951W        W48266   7.778  29.945   4.802
75952W        W48267  41.967  25.648   3.371
75953W        W48268  38.472  28.604   4.185
75954W        W48269  43.953  18.672   2.392
75955W        W48270  10.253  33.938   2.870
75956W        W48271  24.525  14.619   1.356
75957W        W48272  41.473  25.189   0.750
75958W        W48273   5.230  28.001   1.415
75959W        W48274   0.844  16.578  10.494
75960W        W48275  22.660  27.967  14.890
75961W        W48276   5.735  18.550   2.386
75962W        W48277  39.401  26.039  11.463
75963W        W48278  33.433  15.240  14.969
75964W        W48279  40.966  11.180  10.458
75965W        W48280  11.305  39.532   0.750
75966W        W48281   0.941  36.919   5.297
75967W        W48282  24.693   3.826   4.736
75968W        W48283   8.235   8.797  12.434
75969W        W48284  23.630   7.397  10.556
75970W        W48285  44.379   3.306  12.880
75971W        W48286   1.965   8.215  11.606
75972W        W48287  37.425   5.235  13.519
75973W        W48288   0.773  17.676   1.769
75974W        W48289   1.275  35.100   0.790
75975W        W48290   9.858  11.753  14.349
75976W        W48291   4.869   0.340   2.894
75977W        W48292  19.691  41.960  14.818
75978W        W48293   5.301  17.559   2.810
75979W        W48294   4.348  38.498   0.793
75980W        W48295   7.774  27.139  12.564
75981W        W48296  37.066  29.669  11.452
75982W        W48297  29.009  37.576  13.470
75983W        W48298  42.899   2.248   3.165
75984W        W48299  36.428  44.461  12.851
75985W        W48300  25.671  36.052  12.056
75986W        W48301  36.558  33.535   1.387
75987W        W48302   7.879  25.633  14.371
75988W        W48303  31.918  41.920   1.809
75989W        W48304   7.334  10.703  13.904
75990W        W48305  24.057   3.873   2.795
75991W        W48306   3.931  41.491   0.772
75992W        W48307  25.633  26.676   1.265
75993W        W48308  24.987   7.213  12.359
75994W        W48309  37.898   0.944  14.788
75995W        W48310  18.767  35.978   9.993
75996W        W48311  43.922  29.057  10.908
75997W        W48312  10.252  40.991  11.406
75998W        W48313  20.109  35.591   2.203
75999W        W48314   3.799  18.651  12.438
76000W        W48315  24.613   4.756   1.879
76001W        W48316  23.238  42.974  12.500
76002W        W48317  37.879  39.990  11.455
76003W        W48318   9.244  40.310  10.564
76004W        W48319  32.488   3.782   1.446
76005W        W48320  13.237   6.228   1.405
76006W        W48321  22.010  12.292  13.064
76007W        W48322  30.460  16.240   0.447
76008W        W48323  14.245   7.693   2.303
76009W        W48324   2.754  43.391  13.462
76010W        W48325  41.517   3.293  13.545
76011W        W48326  12.840  27.044  14.948
76012W        W48327  18.715  30.004   2.817
76013W        W48328   7.270  33.544  12.560
76014W        W48329  12.657  20.199  12.376
76015W        W48330  34.489  44.774  11.522
76016W        W48331  21.561   2.260  14.282
76017W        W48332  33.883  15.806   4.681
76018W        W48333  33.993  38.489  14.899
76019W        W48334  34.458  27.146   1.435
76020W        W48335  29.642  36.497   3.159
76021W        W48336   6.366  11.762   4.142
76022W        W48337  42.799  43.342   1.711
76023W        W48338  19.569  24.604   4.162
76024W        W48339  42.434  17.563  13.052
76025W        W48340  24.657  39.854  10.888
76026W        W48341  16.280  19.544   3.237
76027W        W48342  13.120  29.595   2.693
76028W        W48343  34.591  21.132   2.202
76029W        W48344  14.153  10.355   3.290
76030W        W48345  43.296  37.506   0.418
76031W        W48346  21.537  30.019   3.635
76032W        W48347  27.104  42.350  13.441
76033W        W48348   0.303  33.081   4.137
76034W        W48349  16.675  37.012   1.894
76035W        W48350   6.278  44.010   1.444
76036W        W48351  18.204  19.621  13.960
76037W        W48352  44.931  20.631   3.266
76038W        W48353   5.691  26.980   3.230
76039W        W48354  21.128   7.709   0.950
76040W        W48355  23.172  23.700   3.223
76041W        W48356  38.540  18.288   2.410
76042W        W48357  11.758  11.743  10.422
76043W        W48358  34.910  26.051   3.862
76044W        W48359  20.615  16.233   0.908
76045W        W48360  41.392  31.521   4.696
76046W        W48361  17.608   7.389  12.579
76047W        W48362  33.017  26.523   0.940
76048W        W48363  22.213   9.745  12.431
76049W        W48364  28.556   1.346  11.949
76050W        W48365  13.140  22.237  11.075
76051W        W48366  17.755  23.105  13.931
76052W        W48367  36.517  26.007  10.508
76053W        W48368  43.916  25.151  12.071
76054W        W48369   6.349   4.939  13.898
76055W        W48370  11.355  11.686   0.380
76056W        W48371  28.630  16.700   2.297
76057W        W48372  22.505  42.349   0.772
76058W        W48373   5.827  38.823   0.278
76059W        W48374  10.242  13.199  14.298
76060W        W48375   6.867  16.809  13.360
76061W        W48376  25.486  25.655  13.340
76062W        W48377   2.324  41.913  13.519
76063W        W48378  41.007  17.564   2.674
76064W        W48379   3.374  42.869   2.882
76065W        W48380  39.010  11.341  13.446
76066W        W48381  39.032  24.114  12.349
76067W        W48382  35.916  33.538   1.774
76068W        W48383   6.374  35.947   2.750
76069W        W48384  28.959  16.610   0.762
76070W        W48385  20.598  42.512   1.312
76071W        W48386  27.511  43.867  10.583
76072W        W48387  25.110  16.692   4.763
76073W        W48388   9.885  11.722  11.119
76074W        W48389  34.937  39.066   3.356
76075W        W48390  31.135  17.065   2.264
76076W        W48391  34.004  22.590  12.055
76077W        W48392  32.037  41.443  13.415
76078W        W48393  14.177  15.190   3.720
76079W        W48394  19.166   2.958  11.543
76080W        W48395  15.654  36.001  12.942
76081W        W48396   6.840  29.542   3.719
76082W        W48397   2.736   2.844   4.615
76083W        W48398  27.148  34.114   0.451
76084W        W48399  29.508  24.090   1.425
76085W        W48400  19.764  13.810  11.395
76086W        W48401  26.086   8.767   3.840
76087W        W48402   0.483   4.763   2.285
76088W        W48403  42.818  33.563  14.868
76089W        W48404  35.548   3.851  14.886
76090W        W48405  38.822  31.936   4.613
76091W        W48406  44.465  21.571   4.228
76092W        W48407   5.312  21.554   4.210
76093W        W48408  42.026  25.167   0.463
76094W        W48409  40.443  18.093   0.774
76095W        W48410  34.973  16.263  12.973
76096W        W48411   2.460  13.287  12.470
76097W        W48412  20.632  36.428  14.509
76098W        W48413  33.626  30.489   0.318
76099W        W48414  24.220   3.746  11.418
76100W        W48415  18.611   7.776   3.370
76101W        W48416  18.653  41.363  11.960
76102W        W48417  18.240  12.240  11.903
76103W        W48418  23.030  44.283   3.188
76104W        W48419  20.099  19.164  10.988
76105W        W48420  21.574   0.931   4.176
76106W        W48421  11.145  25.153  12.360
76107W        W48422  22.649  37.514   5.171
76108W        W48423  17.300  34.106  12.094
76109W        W48424  41.031  43.274  13.908
76110W        W48425  29.617  31.088  12.495
76111W        W48426  33.916   6.248   0.841
76112W        W48427   7.816  35.934  10.155
76113W        W48428  18.636  14.646  10.511
76114W        W48429  36.049  31.427   1.718
76115W        W48430  16.222  11.128   4.661
76116W        W48431  16.112  17.593  12.459
76117W        W48432   7.355   5.784  14.311
76118W        W48433  28.033   8.901  13.362
76119W        W48434  25.488  31.004   0.897
76120W        W48435  39.531  42.377   3.356
76121W        W48436  34.473   0.778  11.549
76122W        W48437  43.010   0.385  10.423
76123W        W48438  31.474   1.832  14.847
76124W        W48439  39.411  36.476  11.090
76125W        W48440  14.661  29.061   1.370
76126W        W48441   0.746  35.424  11.080
76127W        W48442  35.526   3.459   2.204
76128W        W48443  17.772  23.692   4.730
76129W        W48444  28.580  34.935   0.413
76130W        W48445  21.740  40.308   4.777
76131W        W48446  24.021  17.667   3.308
76132W        W48447   3.232  33.613  13.976
76133W        W48448  41.953  39.937   3.746
76134W        W48449  23.500  33.479   0.323
76135W        W48450  32.977  41.394   4.732
76136W        W48451  18.778  43.304   1.407
76137W        W48452  26.134  16.204  14.361
76138W        W48453   1.387  39.316   0.401
76139W        W48454  44.915  30.097   2.397
76140W        W48455  21.512   3.932   4.772
76141W        W48456  32.980  16.580   2.306
76142W        W48457  35.430  13.222  11.436
76143W        W48458   1.891  17.777   0.734
76144W        W48459  44.291  21.068  12.060
76145W        W48460  37.344  23.036   2.845
76146W        W48461  31.505  28.520  10.418
76147W        W48462   0.303  27.029   1.707
76148W        W48463  26.604  18.111  12.492
76149W        W48464  40.918  12.187  10.626
76150W        W48465  22.220   4.222  14.308
76151W        W48466   6.793  29.501  13.946
76152W        W48467   0.903   6.230  12.906
76153W        W48468  27.000  42.961  13.877
76154W        W48469  15.096  24.488   4.682
76155W        W48470  29.096  44.302   0.793
76156W        W48471  30.143  38.822   0.872
76157W        W48472  16.187  36.060   5.093
76158W        W48473  19.772   0.290   1.217
76159W        W48474  31.904  34.589  10.049
76160W        W48475  27.177  11.364  13.983
76161W        W48476  20.698  40.933  12.460
76162W        W48477  13.620  19.771  11.377
76163W        W48478  26.185  22.250   1.850
76164W        W48479  38.831  23.103  11.047
76165W        W48480   1.398  31.535   0.411
76166W        W48481   5.386  40.852   1.377
76167W        W48482  13.207  34.948  12.064
76168W        W48483   4.774   3.756   1.705
76169W        W48484   7.905   9.266   0.823
76170W        W48485   6.818   8.165  14.956
76171W        W48486  36.908   1.308  12.525
76172W        W48487  27.194   1.363   4.126
76173W        W48488  42.021  38.063   2.270
76174W        W48489  26.986   3.748   0.899
76175W        W48490  30.947  44.472   1.911
76176W        W48491  29.669  26.956  13.020
76177W        W48492  14.749  24.060  11.990
76178W        W48493  44.899  19.595  14.333
76179W        W48494  32.425  26.108   0.255
76180W        W48495  32.567  39.533  14.954
76181W        W48496   9.663  30.990   4.672
76182W        W48497  31.646  17.801  12.439
76183W        W48498   2.859   4.283   0.290
76184W        W48499   2.298  36.558  13.837
76185W        W48500   7.718  10.384  11.547
76186W        W48501  11.790   9.369   0.927
76187W        W48502  40.008  23.180   1.766
76188W        W48503  19.150  35.537   2.251
76189W        W48504  36.071   9.218  14.775
76190W        W48505  10.652  24.507  13.355
76191W        W48506  25.584  27.615  12.831
76192W        W48507   5.697  18.565  12.864
76193W        W48508  34.403  35.383   0.396
76194W        W48509  27.586  22.536   4.297
76195W        W48510   6.859   1.389   0.821
76196W        W48511  26.103  41.957  12.917
76197W        W48512  32.056  28.474   5.226
76198W        W48513  16.706   9.814   4.805
76199W        W48514  44.341   6.274  11.915
76200W        W48515  17.599   6.412   3.167
76201W        W48516  23.501  12.812  14.799
76202W        W48517   3.284  34.016  14.785
76203W        W48518  33.902  31.413  10.407
76204W        W48519  33.568   7.730   0.728
76205W        W48520  16.230  25.481   0.349
76206W        W48521  25.115   0.494  13.414
76207W        W48522  22.066  26.646   3.369
76208W        W48523  25.078   3.234  12.880
76209W        W48524  28.958  19.057   0.454
76210W        W48525  42.324   1.457  14.865
76211W        W48526  16.135   0.432   3.238
76212W        W48527  17.770  13.699   4.223
76213W        W48528  34.115   3.335  10.512
76214W        W48529  40.306   3.790   3.841
76215W        W48530  30.955  15.794   0.334
76216W        W48531  27.045  32.626  13.493
76217W        W48532  35.084  31.466  13.046
76218W        W48533  16.236   3.732   1.430
76219W        W48534  23.632  14.591  13.397
76220W        W48535  21.096   0.425  11.994
76221W        W48536   5.310   3.225  11.976
76222W        W48537  11.184   5.343  14.464
76223W        W48538   3.949   4.707  14.450
76224W        W48539  22.163  28.644   2.308
76225W        W48540  15.720  25.633   0.436
76226W        W48541  30.601  30.633   4.740
76227W        W48542  12.255  21.102   5.224
76228W        W48543  13.756   3.261   4.762
76229W        W48544  14.827  42.512   0.455
76230W        W48545  23.514  21.128  13.469
76231W        W48546  20.701  26.029   2.768
76232W        W48547  10.281  35.893   1.925
76233W        W48548  15.598  28.579   9.563
76234W        W48549  17.698  41.351   3.265
76235W        W48550  43.307  23.709  10.082
76236W        W48551  44.438  21.103  12.494
76237W        W48552   0.830  14.635  12.891
76238W        W48553  20.222   5.387  13.990
76239W        W48554  28.633  33.441   3.713
76240W        W48555  12.834  14.315  10.968
76241W        W48556  35.033  17.204   4.226
76242W        W48557  20.618  17.574  14.463
76243W        W48558   5.209  34.480  10.467
76244W        W48559  21.197   7.718   4.828
76245W        W48560  33.424  13.621   9.926
76246W        W48561   2.393  25.592   4.255
76247W        W48562  17.160  23.735   0.796
76248W        W48563  43.483  39.448   4.232
76249W        W48564  33.887  36.536   3.242
76250W        W48565  31.931  37.341   2.390
76251W        W48566  38.554  15.124   2.718
76252W        W48567   7.819  37.541   0.785
76253W        W48568  27.648  17.661   4.821
76254W        W48569  19.544   9.356  14.381
76255W        W48570  11.628  42.839  11.599
76256W        W48571   5.869   2.851   3.365
76257W        W48572  40.387  16.268  13.991
76258W        W48573  15.665   0.821   2.780
76259W        W48574  35.543   7.251   2.271
76260W        W48575  38.926  17.779   3.639
76261W        W48576  36.068  24.213   0.790
76262W        W48577  15.213  43.411  13.491
76263W        W48578   6.903  38.417   2.682
76264W        W48579  33.528  33.125  12.837
76265W        W48580   2.826   1.277  11.510
76266W        W48581  10.338  36.466   3.755
76267W        W48582  26.049  11.854  11.941
76268W        W48583  41.406  33.513   0.800
76269W        W48584  21.538   0.316   2.777
76270W        W48585  20.646  10.242   5.257
76271W        W48586  41.360   7.180   4.727
76272W        W48587  25.989  34.906   1.406
76273W        W48588  34.922  22.215   2.183
76274W        W48589  28.552  28.051   0.926
76275W        W48590  22.729  33.131  10.472
76276W        W48591  11.844   3.811   0.257
76277W        W48592  29.631  42.282  11.093
76278W        W48593   3.375   0.250   2.194
76279W        W48594   8.827  31.002   3.840
76280W        W48595  25.478   1.311  10.541
76281W        W48596   3.427  42.972   2.328
76282W        W48597  39.421  11.633   0.943
76283W        W48598  21.610  24.148   2.713
76284W        W48599  34.416  29.448  10.590
76285W        W48600  39.989  29.508   3.280
76286W        W48601  37.050   5.732  13.934
76287W        W48602  12.176  29.104   3.152
76288W        W48603  20.133  22.721  11.874
76289W        W48604  26.564   5.736   4.807
76290W        W48605  40.310  21.700  13.958
76291W        W48606  24.061  29.093  12.574
76292W        W48607  20.703  20.212  10.567
76293W        W48608  32.396  30.016  12.068
76294W        W48609  33.973  23.216   0.265
76295W        W48610  20.678   5.747   4.704
76296W        W48611  18.293  44.924  13.830
76297W        W48612  26.560  15.110   2.343
76298W        W48613  15.647   0.958   4.188
76299W        W48614  24.634  29.066  11.599
76300W        W48615   5.362   0.862  12.357
76301W        W48616  42.373  16.230   3.762
76302W        W48617  18.274  17.259   3.780
76303W        W48618  38.823  40.350   0.829
76304W        W48619  28.507  36.474  11.957
76305W        W48620  25.190  32.398   1.753
76306W        W48621  25.159  30.481  13.830
76307W        W48622  19.105  42.966  10.478
76308W        W48623   3.815  28.091  10.032
76309W        W48624  36.530  24.089   0.783
76310W        W48625  25.204  27.641   4.265
76311W        W48626  25.100  12.812  14.010
76312W        W48627  30.614  31.416  11.394
76313W        W48628  26.589  32.073  14.499
76314W        W48629  40.881   9.281   3.742
76315W        W48630  42.026   5.756  14.898
76316W        W48631  29.522   9.757  13.331
76317W        W48632  41.343  29.986  10.979
76318W        W48633  34.966  30.030  12.412
76319W        W48634  44.331  36.973   3.774
76320W        W48635  17.691  40.894  10.095
76321W        W48636  41.389  32.391   4.180
76322W        W48637  40.455  15.812  12.854
76323W        W48638  33.926  17.100   4.160
76324W        W48639  41.857  22.171  11.077
76325W        W48640   6.331  35.533  13.791
76326W        W48641  19.104  21.153   1.339
76327W        W48642  15.154  13.311   1.418
76328W        W48643  41.299  15.143  12.961
76329W        W48644  30.537   3.221   2.332
76330W        W48645  43.425  25.058  13.881
76331W        W48646   1.766  16.621  11.954
76332W        W48647  25.675   4.224  14.840
76333W        W48648  34.553   5.321   3.684
76334W        W48649   3.352  19.236   4.196
76335W        W48650   1.239  40.814   2.254
76336W        W48651  44.967  32.587  14.394
76337W        W48652   3.721  11.296   3.748
76338W        W48653  38.453  37.832   4.611
76339W        W48654  22.654  32.903  10.983
76340W        W48655  11.629  14.217  10.148
76341W        W48656   1.436  37.872  12.921
76342W        W48657  39.400  30.071  11.556
76343W        W48658  40.413  31.446  12.857
76344W        W48659  24.568  22.116   1.796
76345W        W48660   6.701   2.348  13.342
76346W        W48661   9.682   7.820  14.778
76347W        W48662  26.954   9.762  12.928
76348W        W48663  18.569  16.190  12.900
76349W        W48664  39.942  35.399   1.225
76350W        W48665  29.964  28.969  14.961
76351W        W48666   1.857  18.123   2.681
76352W        W48667   2.311   7.815   4.218
76353W        W48668  41.317  31.981   4.161
76354W        W48669  39.828  18.105   4.730
76355W        W48670  12.841  37.840   2.214
76356W        W48671  40.851  14.275  11.577
76357W        W48672   3.711  21.723   0.872
76358W        W48673  19.604  38.501  10.024
76359W        W48674  12.250  42.850  12.975
76360W        W48675  12.360   0.834   0.937
76361W        W48676  32.520  44.395   1.699
76362W        W48677  20.751  20.574  12.563
76363W        W48678  22.668  41.500  12.467
76364W        W48679  10.176  31.996  14.944
76365W        W48680  32.603  14.226   1.227
76366W        W48681   3.948   5.690  11.514
76367W        W48682  24.611  41.463   4.290
76368W        W48683   3.218   5.796  12.037
76369W        W48684  34.885  17.600   3.828
76370W        W48685   0.964  12.805   4.178
76371W        W48686  16.128  12.669  13.046
76372W        W48687  41.347   0.326  12.399
76373W        W48688  25.543  40.445  14.461
76374W        W48689  20.545  13.221  12.010
76375W        W48690   6.703  44.376  11.505
76376W        W48691   8.876  41.993   2.713
76377W        W48692  44.444   8.755  11.469
76378W        W48693  25.003  34.891   1.368
76379W        W48694  42.358  17.067   4.120
76380W        W48695  20.613   8.193  14.817
76381W        W48696   5.263  24.590  11.983
76382W        W48697   2.304  24.670  11.875
76383W        W48698  43.003  17.749  13.360
76384W        W48699  13.605   6.895   1.821
76385W        W48700  25.137  36.049  12.926
76386W        W48701  23.550  34.884   0.390
76387W        W48702  42.871  17.669  14.466
76388W        W48703  44.754  28.066   4.220
76389W        W48704  43.477   4.901   1.351
76390W        W48705   9.855  10.195  11.976
76391W        W48706  39.927   6.699  11.020
76392W        W48707  32.467  17.778  10.466
76393W        W48708  42.910  19.202  11.472
76394W        W48709  25.155  14.203   3.249
76395W        W48710  16.725  11.354  10.408
76396W        W48711  29.063  25.570   1.382
76397W        W48712  21.025  43.409  14.923
76398W        W48713  34.041   8.163  11.431
76399W        W48714  34.968  32.885  11.427
76400W        W48715  23.180  38.529   1.398
76401W        W48716  27.641   1.416   0.765
76402W        W48717  25.989  44.426   0.785
76403W        W48718  15.656  24.203   3.347
76404W        W48719  22.659  43.869   3.635
76405W        W48720  43.479  36.099  11.892
76406W        W48721  25.640  22.128   3.834
76407W        W48722  14.328  22.604  11.927
76408W        W48723  27.074  42.804  13.340
76409W        W48724  18.269  40.510   4.714
76410W        W48725  15.676   5.307  14.816
76411W        W48726   6.753  28.603  12.524
76412W        W48727  36.528  29.064  12.083
76413W        W48728  16.607   8.770  13.548
76414W        W48729  28.095  28.031   2.298
76415W        W48730  20.182  28.958  12.492
76416W        W48731  16.208  36.466  10.973
76417W        W48732  19.746  37.968  13.878
76418W        W48733  31.535  38.386   4.154
76419W        W48734  37.051   4.841   0.460
76420W        W48735  33.483  44.872  11.486
76421W        W48736  15.764   0.865   5.174
76422W        W48737  44.362   7.282  10.958
76423W        W48738  28.940   4.362   1.737
76424W        W48739  18.076  16.106   4.132
76425W        W48740  30.549  29.571   2.814
76426W        W48741  35.537   8.404   4.127
76427W        W48742  22.631   7.757  12.515
76428W        W48743  35.066  36.954   0.346
76429W        W48744  40.870  24.686   1.794
76430W        W48745  12.223  32.525   0.406
76431W        W48746  37.519  20.634   1.211
76432W        W48747   1.818  26.166   0.377
76433W        W48748  39.417  35.060   3.166
76434W        W48749  40.504   7.361   3.348
76435W        W48750  25.685  23.640   3.711
76436W        W48751  40.832  14.764  13.840
76437W        W48752  13.214  24.540  11.914
76438W        W48753  10.227  36.915   2.865
76439W        W48754  43.955  32.938   2.236
76440W        W48755   2.733  23.714  12.862
76441W        W48756  10.167  39.046   2.332
76442W        W48757  16.138   4.922   2.374
76443W        W48758  16.661  23.603   2.237
76444W        W48759  18.678  22.162  12.401
76445W        W48760  29.602   9.708   4.762
76446W        W48761  22.688   9.155  11.000
76447W        W48762  25.040   4.218  10.443
76448W        W48763  15.682  18.740  11.496
76449W        W48764   0.489  35.403  14.856
76450W        W48765  25.672  10.816   4.274
76451W        W48766  34.415  44.407   2.678
76452W        W48767  18.756   6.247  12.398
76453W        W48768   2.960   0.388  14.778
76454W        W48769  19.703  27.068   2.830
76455W        W48770  36.455   6.721  13.008
76456W        W48771   3.425  19.612  11.590
76457W        W48772  31.997  12.361   0.937
76458W        W48773  30.962  32.003   4.733
76459W        W48774  40.358   5.411  10.404
76460W        W48775   0.910  23.079  14.839
76461W        W48776  44.930   8.314   1.451
76462W        W48777  15.104   3.450  11.899
76463W        W48778  43.938  12.301   0.908
76464W        W48779  11.779  15.615   0.251
76465W        W48780  21.111  24.503   0.282
76466W        W48781  36.356  40.411  12.430
76467W        W48782  27.566  25.623   1.280
76468W        W48783  44.427  25.019  12.532
76469W        W48784  38.365  12.810   4.170
76470W        W48785  20.042  38.031   1.818
76471W        W48786  27.462  38.070  13.451
76472W        W48787  25.573   8.391  11.535
76473W        W48788  19.190  22.028  13.913
76474W        W48789  35.088  34.009   0.742
76475W        W48790  33.012  27.981  11.436
76476W        W48791  44.776  37.529  14.447
76477W        W48792  39.426  28.509   3.182
76478W        W48793  31.134  10.761   0.931
76479W        W48794   8.294  20.147   1.244
76480W        W48795   7.894  26.182  14.469
76481W        W48796   8.752   0.265   0.900
76482W        W48797  23.693  37.031  14.391
76483W        W48798  38.046  42.997   2.352
76484W        W48799   8.667  16.712  11.033
76485W        W48800  10.214  27.194   4.799
76486W        W48801  17.782   0.951   4.831
76487W        W48802  17.074  38.861   2.400
76488W        W48803  31.034  24.530   1.890
76489W        W48804  29.134  37.948  14.945
76490W        W48805  10.232   9.803   2.199
76491W        W48806  23.578  39.397   0.833
76492W        W48807  42.031  31.025   2.194
76493W        W48808  29.925  12.727  14.912
76494W        W48809  14.821  18.720  13.519
76495W        W48810   1.878  20.616  12.476
76496W        W48811  21.620  34.528  10.542
76497W        W48812  19.680  33.438   2.797
76498W        W48813  30.607  33.530  11.081
76499W        W48814   9.769   9.380   4.655
76500W        W48815  36.071   7.183  11.075
76501W        W48816  41.330   1.309   2.244
76502W        W48817   0.419   4.755   0.281
76503W        W48818  42.446  20.585   2.180
76504W        W48819  10.220  19.281  11.929
76505W        W48820   3.400  30.608  11.476
76506W        W48821   1.829  44.496   2.868
76507W        W48822  27.685  21.089  14.479
76508W        W48823  27.545  40.367  14.806
76509W        W48824  22.508  15.288   3.715
76510W        W48825  27.668   6.726   4.130
76511W        W48826  23.188  41.786   1.238
76512W        W48827  29.975  27.556  13.049
76513W        W48828  36.418  36.934   2.733
76514W        W48829  42.828  26.044   2.764
76515W        W48830   7.694   2.317   2.787
76516W        W48831  30.163  24.634   1.359
76517W        W48832  34.931  15.623  13.908
76518W        W48833   3.343  13.137   0.481
76519W        W48834  40.343  27.954  10.601
76520W        W48835   3.774  20.163  13.388
76521W        W48836  41.507  22.246  14.775
76522W        W48837  34.400  19.681  11.886
76523W        W48838  35.889  38.992  12.436
76524W        W48839  21.558   2.292   2.339
76525W        W48840  33.451  20.067  13.828
76526W        W48841  36.093  30.121   4.634
76527W        W48842  29.148  34.021   4.629
76528W        W48843  26.469  22.740   2.726
76529W        W48844  34.120   1.853   1.324
76530W        W48845  28.499  19.554   1.441
76531W        W48846  32.970  17.242   1.313
76532W        W48847  24.724   3.430  12.341
76533W        W48848  17.628  22.740   4.238
76534W        W48849  37.441  40.333   3.172
76535W        W48850  34.429  22.590   1.359
76536W        W48851  41.945  43.499   4.198
76537W        W48852  25.150  33.560  13.064
76538W        W48853   7.364  20.170  14.509
76539W        W48854  38.520  35.006   0.288
76540W        W48855  43.934   3.303   1.369
76541W        W48856  40.898  33.537   0.375
76542W        W48857  28.032  41.330  11.398
76543W        W48858  30.628  29.033  11.435
76544W        W48859  15.726  34.997   2.765
76545W        W48860  44.371  11.735   4.831
76546W        W48861  12.853  44.441  10.975
76547W        W48862   6.751   3.263   2.838
76548W        W48863  23.208  31.997   0.448
76549W        W48864  26.462  43.859   1.225
76550W        W48865  25.587  43.774  13.380
76551W        W48866  21.028  17.125  13.906
76552W        W48867  26.576  14.752  12.884
76553W        W48868   0.442  28.116  12.400
76554W        W48869  43.807  39.394  11.902
76555W        W48870  14.814   3.443  14.981
76556W        W48871   5.203  39.841  13.972
76557W        W48872  23.177  16.764  12.486
76558W        W48873   3.812  25.118   1.259
76559W        W48874  36.071   0.285  14.958
76560W        W48875  30.916  25.001   3.703
76561W        W48876  11.693   5.408   4.670
76562W        W48877  16.699   3.778   2.411
76563W        W48878  40.806  37.344  10.595
76564W        W48879  17.170   0.827  14.510
76565W        W48880  38.821  12.258   0.462
76566W        W48881  15.598  35.365   0.270
76567W        W48882  23.131   7.771  12.074
76568W        W48883  38.446   5.719   1.801
76569W        W48884   1.750  18.228  12.498
76570W        W48885  31.003  25.054   2.367
76571W        W48886  40.942  33.923   1.429
76572W        W48887  16.251  17.579   2.318
76573W        W48888   3.344   9.840   3.847
76574W        W48889  32.030  18.154   1.694
76575W        W48890   6.278  10.249   5.112
76576W        W48891  36.390  29.170   5.122
76577W        W48892  29.639  35.450  12.857
76578W        W48893   6.837  18.651  10.890
76579W        W48894  40.880   6.789  12.388
76580W        W48895  35.532  21.201   2.761
76581W        W48896  27.578  10.832   1.390
76582W        W48897  31.052  31.959   1.851
76583W        W48898  35.416  15.758  12.880
76584W        W48899  21.205  39.327   0.806
76585W        W48900  24.491   8.397  12.979
76586W        W48901  18.708  25.162  13.367
76587W        W48902  36.538  18.242   4.253
76588W        W48903  19.580   2.237  13.865
76589W        W48904  40.485  19.182  14.396
76590W        W48905  29.952  16.219   3.644
76591W        W48906  28.444   2.312  14.974
76592W        W48907  32.451  44.463   3.663
76593W        W48908  10.161  24.112   0.357
76594W        W48909  13.290  34.889   1.843
76595W        W48910  28.130  24.163  13.373
76596W        W48911  10.745  42.011  13.457
76597W        W48912   9.189  27.966  13.927
76598W        W48913  18.150  12.204   0.925
76599W        W48914   9.731   1.974   1.228
76600W        W48915   2.896  42.986   2.351
76601W        W48916  18.285  19.765  11.541
76602W        W48917  40.046  38.841  11.037
76603W        W48918  11.820  39.404   0.842
76604W        W48919  40.380  41.985  11.393
76605W        W48920  13.251  13.614  13.846
76606W        W48921  38.000  15.593  12.342
76607W        W48922  14.596  44.972  14.927
76608W        W48923  13.314  33.049  10.894
76609W        W48924  39.349  30.570   3.356
76610W        W48925  17.284  37.950  13.443
76611W        W48926  44.994   1.799  13.541
76612W        W48927   9.755  25.045   1.753
76613W        W48928   3.830  15.750  10.932
76614W        W48929  18.653   3.423  13.887
76615W        W48930  36.529  14.129  13.335
76616W        W48931  27.056  11.828  14.379
76617W        W48932  30.050   6.221  11.940
76618W        W48933   6.718  16.288   1.352
76619W        W48934  25.626  18.193   2.369
76620W        W48935  10.679  26.194   0.811
76621W        W48936  41.004   5.251  10.567
76622W        W48937  36.872   8.696  12.410
76623W        W48938  39.474   7.905  13.963
76624W        W48939   9.316  31.491  12.501
76625W        W48940  34.053  28.185  14.288
76626W        W48941  35.549  20.154  14.000
76627W        W48942  40.305  21.076  13.852
76628W        W48943   8.385  19.249  14.832
76629W        W48944   4.335  41.838  11.001
76630W        W48945   3.836  39.034   0.773
76631W        W48946  13.293  16.280   0.410
76632W        W48947  40.903  21.538  14.005
76633W        W48948  44.831  41.027   1.325
76634W        W48949   8.736   2.437  13.892
76635W        W48950  35.987  44.771  14.368
76636W        W48951  40.323  33.998   4.767
76637W        W48952  28.933  16.265   1.738
76638W        W48953   4.933  25.664  14.394
76639W        W48954  42.386  15.778   4.190
76640W        W48955  44.860  15.630  14.905
76641W        W48956  17.212  19.226   1.267
76642W        W48957  31.912   1.737   1.767
76643W        W48958  17.150  16.727   4.240
76644W        W48959  44.300  14.671  12.501
76645W        W48960  14.657  34.505  11.580
76646W        W48961   6.809  41.421  11.048
76647W        W48962   8.879  28.090   2.743
76648W        W48963   9.312  23.005  13.859
76649W        W48964  22.178  17.682   3.824
76650W        W48965   5.748  31.617   1.895
76651W        W48966  30.498   9.291   2.358
76652W        W48967  42.373   8.728   3.825
76653W        W48968  11.652  30.974  12.514
76654W        W48969  24.106  36.886  12.520
76655W        W48970  38.057  15.320   3.368
76656W        W48971  23.587  15.647  10.465
76657W        W48972  17.709  28.662   5.309
76658W        W48973   0.381   1.263  11.440
76659W        W48974  20.677  18.190   3.336
76660W        W48975  43.497  24.720  11.524
76661W        W48976  42.799  11.317   3.834
76662W        W48977   9.380   7.739   0.914
76663W        W48978  39.031  26.505  13.864
76664W        W48979  19.619   7.803   1.887
76665W        W48980   5.895  33.471  10.560
76666W        W48981  40.419  14.678   0.437
76667W        W48982  20.108  24.602  12.478
76668W        W48983  20.722  24.501   0.961
76669W        W48984  37.840   1.260   2.766
76670W        W48985   9.198  40.433  14.343
76671W        W48986  25.504  35.939  11.516
76672W        W48987  32.922  21.683  12.030
76673W        W48988  36.083  42.493   3.151
76674W        W48989  10.817   9.719   2.243
76675W        W48990  10.767  11.647  14.995
76676W        W48991  11.140  38.495  12.402
76677W        W48992  21.202  18.584  12.045
76678W        W48993  27.685  22.025  11.567
76679W        W48994  24.095  21.237   1.920
76680W        W48995  26.118  42.830   2.862
76681W        W48996  11.716  13.175   1.805
76682W        W48997  26.475   2.445  14.988
76683W        W48998   1.405  18.699   4.304
76684W        W48999  43.417  33.102  10.508
76685W        W49000  15.165  35.889   2.746
76686W        W49001  33.453   2.900  14.805
76687W        W49002  37.440  33.124  13.378
76688W        W49003  16.246  41.442   0.901
76689W        W49004  22.622  22.597   5.237
76690W        W49005  30.571   7.709   4.619
76691W        W49006   9.721  35.089   2.804
76692W        W49007  21.561   3.343  11.013
76693W        W49008  25.191  41.964  13.968
76694W        W49009   4.891  24.187  13.424
76695W        W49010  13.291  25.096  10.149
76696W        W49011   2.325  26.062  14.782
76697W        W49012   6.716   4.384   0.352
76698W        W49013  32.096  10.720   3.367
76699W        W49014  15.267  25.118   4.271
76700W        W49015   5.212  34.396  12.937
76701W        W49016  34.384  40.442  12.377
76702W        W49017   0.872  15.649   0.385
76703W        W49018   2.239  39.406   4.726
76704W        W49019  10.803  21.211  13.424
76705W        W49020  20.045  34.114   0.384
76706W        W49021   9.320  32.422  12.880
76707W        W49022  24.068  39.842  10.986
76708W        W49023  29.936  12.847  10.463
76709W        W49024  39.534  31.910  12.041
76710W        W49025  42.959  19.539  13.329
76711W        W49026   1.398  18.216  11.856
76712W        W49027  23.227  31.540   1.240
76713W        W49028  26.621  11.839  13.833
76714W        W49029  11.270  28.676  12.840
76715W        W49030  25.184   9.361   4.829
76716W        W49031  14.833  32.622   3.651
76717W        W49032  10.766  25.027   3.355
76718W        W49033  12.794  44.375  14.282
76719W        W49034  22.122  33.455  14.956
76720W        W49035  21.590   2.226  12.467
76721W        W49036  38.483  40.054   4.637
76722W        W49037  39.825   4.438   3.151
76723W        W49038  31.634  16.238  12.405
76724W        W49039  34.920  37.012   2.378
76725W        W49040  33.938  31.610   3.353
76726W        W49041  17.152   5.221  13.450
76727W        W49042  36.949  20.233   3.203
76728W        W49043  28.586  12.318   0.350
76729W        W49044   7.683  20.522   1.880
76730W        W49045  14.158  20.646   3.870
76731W        W49046   7.709  40.827   1.300
76732W        W49047   4.450  40.376  11.103
76733W        W49048  29.627  25.707  11.394
76734W        W49049  29.978  39.318  12.373
76735W        W49050  14.722  21.661  13.355
76736W        W49051  37.967  24.514   3.239
76737W        W49052  44.455  19.267  11.415
76738W        W49053  36.369  12.654   3.694
76739W        W49054  37.400   9.770   3.740
76740W        W49055  30.613  28.931  12.489
76741W        W49056  43.496  11.706  12.889
76742W        W49057  18.264  20.237   2.687
76743W        W49058  27.133  11.373  10.987
76744W        W49059  39.456   8.394  12.423
76745W        W49060  21.065  36.088   1.215
76746W        W49061   4.320  11.784  13.454
76747W        W49062  31.488  35.909  11.483
76748W        W49063  41.840  40.798   3.658
76749W        W49064   5.257  18.741   0.349
76750W        W49065  25.045  34.497  12.080
76751W        W49066  23.630  27.585  11.959
76752W        W49067   8.700   1.747  10.140
76753W        W49068  29.176  11.714   1.393
76754W        W49069   9.310  32.053  11.051
76755W        W49070  23.106  15.582  14.504
76756W        W49071  22.732  31.051   0.292
76757W        W49072  16.719  22.714  12.986
76758W        W49073  29.144  40.531   2.340
76759W        W49074  29.574  16.134  12.958
76760W        W49075  27.949   5.271   3.364
76761W        W49076  41.996  40.401  14.282
76762W        W49077  32.999  26.173   0.339
76763W        W49078  30.951  23.716   3.642
76764W        W49079   0.841  19.551  13.834
76765W        W49080   9.698  17.755  11.927
76766W        W49081   2.461  32.544  12.451
76767W        W49082  41.928  32.069   9.948
76768W        W49083  23.685   4.827  10.558
76769W        W49084  12.626  39.446  13.408
76770W        W49085  11.684  14.321   2.866
76771W        W49086  25.970   8.348   3.795
76772W        W49087  35.062   2.869  14.982
76773W        W49088  34.494  44.883  13.520
76774W        W49089  24.982  20.749   1.791
76775W        W49090  22.996   5.428  13.316
76776W        W49091  14.291   9.814  12.434
76777W        W49092  22.526  17.250  12.921
76778W        W49093  41.955  17.768   2.824
76779W        W49094  39.374  31.978  12.928
76780W        W49095  40.406  39.896   3.650
76781W        W49096  41.370  21.602  13.348
76782W        W49097  25.088   2.429  14.010
76783W        W49098  16.316  36.450  11.988
76784W        W49099  29.526   0.938  13.888
76785W        W49100  23.552  24.594  12.499
76786W        W49101  16.693  30.582   9.553
76787W        W49102   6.233  15.732   0.898
76788W        W49103   3.713  42.825  12.404
76789W        W49104  35.545  11.850  14.291
76790W        W49105  29.964  34.511  10.440
76791W        W49106  31.912  13.205   3.791
76792W        W49107  19.081  32.119  14.988
76793W        W49108   8.794   7.204   0.407
76794W        W49109  26.559  30.414  12.459
76795W        W49110  36.591  14.810  14.850
76796W        W49111   4.727  26.104  14.910
76797W        W49112  38.874  14.331   1.332
76798W        W49113  12.737  43.313  13.864
76799W        W49114  43.370  28.996   2.870
76800W        W49115  27.168  35.432   1.297
76801W        W49116  34.045  11.283  10.957
76802W        W49117  29.574  11.724  11.911
76803W        W49118  13.118  18.061   4.721
76804W        W49119  13.179  43.885   2.292
76805W        W49120  43.386   4.940  13.478
76806W        W49121  39.027  40.802   2.400
76807W        W49122  33.040  31.077  13.351
76808W        W49123  12.163  35.889  12.391
76809W        W49124  44.007  32.402  14.472
76810W        W49125  14.831  10.877   3.372
76811W        W49126  41.042   5.900   2.675
76812W        W49127  32.614  40.546  11.032
76813W        W49128   8.172  25.197  13.848
76814W        W49129  39.880  33.493   4.706
76815W        W49130  31.050  38.384   2.791
76816W        W49131  13.738  37.405   3.781
76817W        W49132  44.314  36.580   1.907
76818W        W49133  21.574  41.858  14.324
76819W        W49134   7.304  16.803  13.348
76820W        W49135  39.862  34.487  12.900
76821W        W49136   7.693  40.019   4.204
76822W        W49137   8.182  30.973   4.764
76823W        W49138   3.919  33.559  11.976
76824W        W49139  13.744  19.597   4.237
76825W        W49140   9.383   7.196   3.658
76826W        W49141  23.039   8.745  12.875
76827W        W49142  26.482  32.423   1.385
76828W        W49143   6.741   3.931  10.578
76829W        W49144  36.998  17.711   1.867
76830W        W49145  29.476  30.052   4.291
76831W        W49146  39.969  19.752   2.213
76832W        W49147  18.193   3.319  14.008
76833W        W49148  30.020  39.488  10.958
76834W        W49149  28.581  22.143   0.802
76835W        W49150  33.425   4.316   1.325
76836W        W49151  41.538   4.230   0.803
76837W        W49152   7.864  29.497  10.891
76838W        W49153  19.539  13.246   4.195
76839W        W49154  10.676   7.850  11.963
76840W        W49155  29.952  16.763  10.580
76841W        W49156  10.203   8.321  11.394
76842W        W49157  34.395   5.290  11.511
76843W        W49158  36.465   4.210   2.688
76844W        W49159  22.529   3.228  10.013
76845W        W49160  27.975  43.978   1.333
76846W        W49161  25.550  13.679   2.285
76847W        W49162  13.618  36.401  10.893
76848W        W49163   6.240  29.428  13.322
76849W        W49164  24.674   0.451   4.170
76850W        W49165  28.121  21.175  13.523
76851W        W49166  26.593  33.528  10.510
76852W        W49167  38.946  41.493   5.135
76853W        W49168   7.911  35.932   0.767
76854W        W49169  10.348  10.669  12.406
76855W        W49170  15.230  17.636  12.993
76856W        W49171  14.621   6.353   2.234
76857W        W49172  34.574  18.751   4.704
76858W        W49173  28.474  40.443   3.290
76859W        W49174  24.127   3.820   1.776
76860W        W49175  40.030   4.883   2.183
76861W        W49176  44.843  13.709  14.781
76862W        W49177  42.923  18.637  13.847
76863W        W49178  16.657  31.481  14.950
76864W        W49179  11.191  25.507   1.700
76865W        W49180   4.335  12.201  12.019
76866W        W49181  39.933   3.310  13.357
76867W        W49182  42.988  10.160   0.480
76868W        W49183  40.429  33.107   2.665
76869W        W49184  23.990  13.308  12.350
76870W        W49185   6.834  17.725  12.961
76871W        W49186  21.541   3.790   4.164
76872W        W49187   7.331  31.132   4.772
76873W        W49188  28.641  20.172  11.988
76874W        W49189  11.805  41.523   0.441
76875W        W49190  31.626  25.486  13.341
76876W        W49191  15.612   9.744   2.282
76877W        W49192   6.226  28.595   4.349
76878W        W49193  20.596  36.963   4.117
76879W        W49194  42.794  15.756  12.848
76880W        W49195  27.006   3.844   4.288
76881W        W49196   7.369  17.672   2.225
76882W        W49197  19.683  15.233  12.856
76883W        W49198   4.702  28.169  11.125
76884W        W49199  38.857  23.210   1.275
76885W        W49200   6.301  23.186   1.297
76886W        W49201   2.794  41.831   3.766
76887W        W49202  19.172  31.133  10.947
76888W        W49203  28.136  27.453  13.474
76889W        W49204  16.097  22.667   1.317
76890W        W49205  16.784  40.495   0.848
76891W        W49206  44.796  12.165  10.061
76892W        W49207  24.139  29.924   3.327
76893W        W49208  43.914   0.763  14.334
76894W        W49209  23.693  23.610   0.477
76895W        W49210  22.622  18.141  12.848
76896W        W49211  26.044  32.565  12.987
76897W        W49212  24.021   6.275  11.502
76898W        W49213  34.891  11.228   0.769
76899W        W49214  34.565  17.684  12.027
76900W        W49215  44.369  38.950   1.377
76901W        W49216  40.410  17.259   5.088
76902W        W49217  35.561  19.267   1.729
76903W        W49218  12.308  24.127   1.934
76904W        W49219  24.004  16.111   4.760
76905W        W49220  41.464   9.794  14.424
76906W        W49221  34.418  27.454   0.467
76907W        W49222   3.811  34.514  11.374
76908W        W49223  22.542  36.533   4.635
76909W        W49224   0.295  36.512   0.917
76910W        W49225  41.483   4.728  10.541
76911W        W49226  21.230  10.148   0.759
76912W        W49227  14.124   4.205  12.349
76913W        W49228  33.555  33.041  11.513
76914W        W49229  19.281  28.465   0.439
76915W        W49230   1.847  21.694   1.252
76916W        W49231  37.060   9.314  10.496
76917W        W49232  17.272  32.401   4.810
76918W        W49233  23.541  22.023   1.217
76919W        W49234  43.999  13.267  14.942
76920W        W49235  14.270   1.759   0.862
76921W        W49236   3.906  38.848   3.185
76922W        W49237  38.853  31.431   3.772
76923W        W49238  37.460  12.747   3.638
76924W        W49239  15.622  28.959   4.269
76925W        W49240  12.786  10.220  10.613
76926W        W49241  20.057  39.478  14.916
76927W        W49242   9.277  41.299   3.707
76928W        W49243  40.977  38.838   0.251
76929W        W49244   5.912  18.277   2.307
76930W        W49245  34.614  31.011   2.701
76931W        W49246  41.426  23.145   1.392
76932W        W49247  39.920  22.598  13.365
76933W        W49248  12.620  39.540   0.757
76934W        W49249  39.557  17.585   3.379
76935W        W49250  39.951  28.503   1.433
76936W        W49251  28.140  12.283  14.971
76937W        W49252  42.866  12.853  10.988
76938W        W49253   8.689  15.131  10.426
76939W        W49254  40.492  37.949   2.852
76940W        W49255  26.197   6.372   0.816
76941W        W49256  28.552   0.966   4.137
76942W        W49257  40.547   0.470   3.264
76943W        W49258  22.743  11.346   1.391
76944W        W49259  13.757  18.725  12.954
76945W        W49260  19.692   1.763  12.844
76946W        W49261  18.738  35.528   4.288
76947W        W49262  15.321  43.765   4.354
76948W        W49263  27.156  13.841   2.806
76949W        W49264  13.253  34.876   3.364
76950W        W49265  29.927  27.643  14.987
76951W        W49266   4.396  15.756   2.864
76952W        W49267  12.355  20.526  14.278
76953W        W49268  11.166  10.750   2.765
76954W        W49269   0.300   2.773  13.519
76955W        W49270  10.783  24.174   1.314
76956W        W49271  31.991  25.089  14.434
76957W        W49272  14.265  31.934   2.669
76958W        W49273  44.459   7.859   4.123
76959W        W49274   3.951  30.602  10.537
76960W        W49275   1.470  38.519   1.225
76961W        W49276   9.166  33.383  14.312
76962W        W49277  21.150  12.120   2.895
76963W        W49278  36.935  26.504   4.293
76964W        W49279  38.524  16.079   2.726
76965W        W49280   8.808  44.837   3.232
76966W        W49281   9.804  26.577  13.034
76967W        W49282  35.963   3.425   3.782
76968W        W49283  18.239  25.105   3.741
76969W        W49284  23.682  44.437  12.051
76970W        W49285  24.995  15.767   2.727
76971W        W49286  31.014  16.135  10.542
76972W        W49287  13.731   8.706   2.857
76973W        W49288  27.588  28.008  10.544
76974W        W49289  40.862  10.871   1.291
76975W        W49290  27.082   7.231  12.084
76976W        W49291  36.476  12.687  12.558
76977W        W49292  23.490  16.294   2.715
76978W        W49293  13.229  39.911  14.761
76979W        W49294  25.484  40.832   3.705
76980W        W49295  29.071  27.656  12.358
76981W        W49296  42.373  18.673   4.288
76982W        W49297  39.477  40.932  10.572
76983W        W49298  20.661  18.743  14.299
76984W        W49299   6.887  17.796  14.761
76985W        W49300  30.636  36.371  13.422
76986W        W49301  22.674   0.959   5.109
76987W        W49302  39.899  12.136   2.387
76988W        W49303  20.038  32.453   3.646
76989W        W49304   7.306   4.729   3.843
76990W        W49305  30.124  41.971  12.973
76991W        W49306  25.973   5.439   3.658
76992W        W49307  37.489  27.964  12.474
76993W        W49308   4.245  31.022   2.670
76994W        W49309  20.731   7.853  10.564
76995W        W49310   8.662  42.384   0.744
76996W        W49311   4.352  36.490  11.084
76997W        W49312  38.939  36.358   2.720
76998W        W49313   1.867  27.666   1.852
76999W        W49314  25.087  26.481   3.743
77000W        W49315   1.426  25.500  14.773
77001W        W49316   5.885  34.513   1.711
77002W        W49317   0.883  37.957   1.281
77003W        W49318  35.928  14.748   3.815
77004W        W49319  20.556  29.124   2.371
77005W        W49320  10.797  26.569  10.907
77006W        W49321   3.825  22.505   2.329
77007W        W49322  19.047   2.253  11.040
77008W        W49323  38.057  15.089   2.665
77009W        W49324   8.244  36.390   3.745
77010W        W49325  42.862  17.247  10.908
77011W        W49326  31.573  20.127   4.650
77012W        W49327  30.922   5.365   4.354
77013W        W49328  25.061  17.709   3.648
77014W        W49329   6.198  12.771  11.112
77015W        W49330  27.183  38.966  10.032
77016W        W49331  35.970   9.351  11.949
77017W        W49332   6.356  32.602   1.308
77018W        W49333  41.952  37.510   1.329
77019W        W49334  20.092  39.444   1.712
77020W        W49335  38.985  40.899   4.784
77021W        W49336  20.212  36.913   0.262
77022W        W49337  19.258  13.661   3.716
77023W        W49338   8.670  21.576  13.046
77024W        W49339  29.514   7.785   1.428
77025W        W49340  23.536   9.212   0.932
77026W        W49341   2.749  22.111   3.256
77027W        W49342  20.154   1.400  13.019
77028W        W49343  29.607  16.165   2.872
77029W        W49344  17.731  16.779  10.534
77030W        W49345  10.871  25.709  14.793
77031W        W49346  25.541  19.643  13.517
77032W        W49347  22.515   4.830   4.128
77033W        W49348  27.134  23.011  11.895
77034W        W49349  43.851  37.545  10.036
77035W        W49350  43.785   4.877  12.443
77036W        W49351   4.942  22.103   1.421
77037W        W49352  10.870   7.227   0.929
77038W        W49353  14.697  18.570   4.162
77039W        W49354  33.912  16.571   2.182
77040W        W49355  23.193  37.561   1.721
77041W        W49356  42.943  29.020   1.324
77042W        W49357  15.625   4.275  11.031
77043W        W49358   6.760  30.141   1.249
77044W        W49359  15.639  20.652  10.913
77045W        W49360  29.937  34.608   3.867
77046W        W49361  16.721  41.906   0.767
77047W        W49362  27.620  36.521   3.249
77048W        W49363  19.086  33.073  12.073
77049W        W49364  32.622  10.183   4.609
77050W        W49365  35.872  38.381  14.351
77051W        W49366   3.793  27.461  11.529
77052W        W49367  18.690  42.389  11.007
77053W        W49368  32.909  40.928  12.005
77054W        W49369  27.098   6.863  13.993
77055W        W49370  35.862  43.875   4.246
77056W        W49371  26.002  16.226  14.007
77057W        W49372  24.490   1.385  11.394
77058W        W49373  44.833  24.072  11.376
77059W        W49374  31.468  24.723   4.622
77060W        W49375  20.124  36.067  11.584
77061W        W49376  16.289  10.240  11.014
77062W        W49377  20.238   3.802  13.540
77063W        W49378  20.167   8.784   9.653
77064W        W49379   8.385  27.156   0.734
77065W        W49380   5.378  20.149   2.294
77066W        W49381  31.085  43.014   1.930
77067W        W49382  40.994  15.615   0.271
77068W        W49383  13.317  27.684   4.254
77069W        W49384   0.473  40.391   1.417
77070W        W49385  30.419  38.066  12.440
77071W        W49386  22.080  16.260   4.680
77072W        W49387  18.085  30.426   4.610
77073W        W49388  36.374  20.570   2.681
77074W        W49389  12.651  33.563   3.801
77075W        W49390   9.310  38.520  14.515
77076W        W49391   1.273  34.452  13.436
77077W        W49392  17.762  20.678  14.944
77078W        W49393   7.218  18.280  10.617
77079W        W49394  41.975  38.432   2.381
77080W        W49395  20.541  11.789   2.383
77081W        W49396  33.987  22.095   3.238
77082W        W49397  23.059   3.954  11.479
77083W        W49398  33.553   2.415  13.938
77084W        W49399  40.993  11.791  14.506
77085W        W49400  35.094   7.865  13.402
77086W        W49401  27.660   2.937  10.622
77087W        W49402  26.959  37.471   0.254
77088W        W49403  17.794  36.440  13.805
77089W        W49404  28.038  14.157  12.025
77090W        W49405  36.995  25.195   0.418
77091W        W49406   9.266  28.625   4.680
77092W        W49407   7.706  37.079   0.427
77093W        W49408  37.348   6.887   4.320
77094W        W49409  29.032  43.505   4.786
77095W        W49410  12.258  35.980   1.771
77096W        W49411   8.213  23.709  10.429
77097W        W49412  41.956  39.825   4.731
77098W        W49413   4.211  15.308  10.913
77099W        W49414   4.443   2.416  12.503
77100W        W49415  14.593   4.252  12.011
77101W        W49416  43.770  14.664   1.420
77102W        W49417  10.278   0.811   2.861
77103W        W49418  26.532   2.776   0.309
77104W        W49419  22.176  42.495   2.840
77105W        W49420  17.610   4.416  13.811
77106W        W49421  36.849  28.047  13.009
77107W        W49422   1.300  43.774   0.886
77108W        W49423  14.633   5.392   3.217
77109W        W49424  23.642  34.026  14.304
77110W        W49425  40.968  26.485  14.342
77111W        W49426   3.244  14.183  11.106
77112W        W49427   5.380  12.186   4.307
77113W        W49428  28.095  26.043   3.157
77114W        W49429  15.718  33.544   2.221
77115W        W49430   8.774  25.065   1.871
77116W        W49431   8.794  32.527  14.447
77117W        W49432  42.483  42.403  12.072
77118W        W49433  36.978  31.421   4.175
77119W        W49434   1.480  41.967   3.755
77120W        W49435  28.991  21.120   0.298
77121W        W49436  30.083  14.325  13.810
77122W        W49437  38.905  27.653  14.347
77123W        W49438  44.263   8.226  12.355
77124W        W49439  14.595   0.809   2.401
77125W        W49440  43.476   7.785   1.724
77126W        W49441  32.891  25.558  12.901
77127W        W49442  32.422  43.822  13.508
77128W        W49443   6.748   3.302   3.159
77129W        W49444  15.800  28.435   0.384
77130W        W49445  14.744  13.796  11.087
77131W        W49446  21.571  17.151   1.889
77132W        W49447  41.902  35.930   1.450
77133W        W49448  16.606  26.557   4.305
77134W        W49449  21.560  34.606   1.779
77135W        W49450  33.469   2.728   1.792
77136W        W49451  40.035  24.011   5.167
77137W        W49452  32.635  15.631   0.932
77138W        W49453  42.948  32.078  11.554
77139W        W49454  14.301  36.862   3.351
77140W        W49455   2.282  24.565  13.902
77141W        W49456   9.799  16.112   4.354
77142W        W49457  35.978  16.649   0.480
77143W        W49458  21.570  28.501  11.000
77144W        W49459  24.713  13.330   1.294
77145W        W49460  23.042  27.957   1.368
77146W        W49461   8.705   5.302   1.356
77147W        W49462  20.048  23.231  12.939
77148W        W49463  39.443  24.561  11.941
77149W        W49464  29.028  36.011  12.912
77150W        W49465  32.025   1.380   3.295
77151W        W49466  17.149  32.035  14.859
77152W        W49467  21.156   4.881   2.264
77153W        W49468   8.770   6.223   0.413
77154W        W49469  40.871  36.898  12.938
77155W        W49470   9.823  37.501   0.740
77156W        W49471  32.140  42.402   2.869
77157W        W49472  25.538  14.133   5.081
77158W        W49473  12.192   8.286   1.781
77159W        W49474  42.813  16.596  10.938
77160W        W49475   4.246   8.779   3.861
77161W        W49476  29.013  23.600   0.943
77162W        W49477  23.700  40.946   0.894
77163W        W49478  37.069   5.755   4.778
77164W        W49479   5.330  39.950  12.566
77165W        W49480   5.779   5.412   3.650
77166W        W49481  32.397   7.795   0.747
77167W        W49482  10.802   7.282  12.044
77168W        W49483  17.222  42.835  13.422
77169W        W49484   3.414  41.891  10.481
77170W        W49485  36.456  17.228   0.766
77171W        W49486   4.334   4.928   1.418
77172W        W49487  10.688  26.992   3.765
77173W        W49488  28.451  29.079   4.303
77174W        W49489  37.394  15.641  10.424
77175W        W49490  33.430  12.830   1.756
77176W        W49491  41.944  22.082  11.989
77177W        W49492   5.312  16.807  14.510
77178W        W49493  11.317  32.559  11.094
77179W        W49494  21.030  16.775  10.997
77180W        W49495   5.218  39.338  11.504
77181W        W49496  44.268  41.299   9.987
77182W        W49497  42.992  15.130  13.448
77183W        W49498  31.576  38.912  12.050
77184W        W49499  29.640  33.006   5.286
77185W        W49500  24.693   6.302  12.049
77186W        W49501  17.721  41.318   5.706
77187W        W49502   6.384  33.094   3.853
77188W        W49503  33.511  38.893  12.942
77189W        W49504   9.326  44.455   2.304
77190W        W49505  43.006   5.902   4.654
77191W        W49506  30.624  42.460   3.861
77192W        W49507  24.060  33.612  13.883
77193W        W49508   6.695   0.900   3.671
77194W        W49509  17.557  10.293   9.486
77195W        W49510  28.056  19.103  12.991
77196W        W49511   3.758   6.848   3.348
77197W        W49512   1.790  14.320  10.469
77198W        W49513  28.045  30.978   0.864
77199W        W49514   8.844  37.888  12.944
77200W        W49515  44.932  17.300   0.400
77201W        W49516  19.084  32.409  12.471
77202W        W49517  11.208  41.892  14.843
77203W        W49518  17.241  37.514   4.196
77204W        W49519  24.029  10.198  14.919
77205W        W49520   0.779  39.957  10.941
77206W        W49521  29.584  36.465   4.129
77207W        W49522  10.299  31.487  14.972
77208W        W49523  39.945   6.725  11.612
77209W        W49524  28.126   6.757   3.830
77210W        W49525  30.930  42.413   2.276
77211W        W49526  28.479  24.089   3.664
77212W        W49527   0.311  29.977  13.980
77213W        W49528   4.918   0.957   5.214
77214W        W49529  31.497  33.979  12.420
77215W        W49530  19.681  23.199  12.840
77216W        W49531  33.001  30.644  12.507
77217W        W49532  25.510   8.399  14.795
77218W        W49533  15.309  38.361  11.097
77219W        W49534  29.020  30.654   4.698
77220W        W49535  38.873  34.977   4.812
77221W        W49536  26.634   9.660  11.603
77222W        W49537  10.312  18.180   4.268
77223W        W49538  42.364  11.683  10.427
77224W        W49539  23.139  28.535   3.299
77225W        W49540  41.509  44.813   4.267
77226W        W49541  20.136  31.558  12.487
77227W        W49542  19.078  30.464  12.836
77228W        W49543  31.975  29.614  12.992
77229W        W49544  31.123  40.848  14.815
77230W        W49545  10.738  10.739  12.905
77231W        W49546  22.605  17.592   2.683
77232W        W49547  15.303  28.473   3.813
77233W        W49548  32.997  15.296  13.058
77234W        W49549  20.671  35.541  10.457
77235W        W49550  33.623  42.411  14.432
77236W        W49551   6.284  27.535  10.570
77237W        W49552  35.472   3.335  12.837
77238W        W49553  23.734  23.225   0.876
77239W        W49554  25.663   1.834   1.713
77240W        W49555  32.523  26.469   0.275
77241W        W49556  15.290  11.773  12.430
77242W        W49557   9.827  22.698  11.078
77243W        W49558  27.582  14.340   1.238
77244W        W49559   1.383  11.206   1.401
77245W        W49560  21.601  17.158   0.827
77246W        W49561  18.228   9.318   3.771
77247W        W49562  22.115  15.765   0.910
77248W        W49563  23.521   4.755   3.350
77249W        W49564  39.325   8.752  13.354
77250W        W49565  18.262  11.147   3.798
77251W        W49566  13.814   8.851   0.900
77252W        W49567   7.236   4.742   2.752
77253W        W49568  43.458  37.039  12.021
77254W        W49569  42.971   7.378  14.343
77255W        W49570  18.260  24.675  13.470
77256W        W49571  27.959  23.156  13.975
77257W        W49572  12.276  36.456  10.533
77258W        W49573   0.853  35.388  10.114
77259W        W49574  25.137  35.568   3.713
77260W        W49575   8.869  10.269   0.438
77261W        W49576  37.979  22.007   0.471
77262W        W49577   6.216  26.194   1.831
77263W        W49578   2.340  30.064   2.408
77264W        W49579   6.751  13.686   0.806
77265W        W49580  20.245  20.673  11.956
77266W        W49581  32.978   0.857  13.970
77267W        W49582   0.470  43.494   3.869
77268W        W49583  18.221  18.579  12.521
77269W        W49584  26.022  43.847   4.738
77270W        W49585  41.400  26.113   1.898
77271W        W49586  26.639  22.714  13.793
77272W        W49587  23.622  42.445   3.767
77273W        W49588  16.102   2.403   4.805
77274W        W49589  35.360  31.608   1.342
77275W        W49590   9.805  35.930  14.413
77276W        W49591  17.741  38.361   9.518
77277W        W49592  33.038  37.367   4.245
77278W        W49593  32.514   1.390   3.783
77279W        W49594  14.720  16.120  14.791
77280W        W49595  43.816   8.882   2.278
77281W        W49596  20.726  14.699  13.888
77282W        W49597  36.079  23.174  12.010
77283W        W49598  12.682  21.544  14.967
77284W        W49599  33.934  30.161  13.458
77285W        W49600  19.561  26.683  13.443
77286W        W49601  25.059  11.346  13.043
77287W        W49602  41.467  11.722   0.412
77288W        W49603  40.402   9.664   1.402
77289W        W49604  21.684   7.233   0.881
77290W        W49605  19.197  28.475   4.656
77291W        W49606  31.079   4.276   3.707
77292W        W49607  27.045  15.089  10.958
77293W        W49608   1.251  29.560   1.857
77294W        W49609   7.232  25.693  11.428
77295W        W49610  34.954   4.780  10.418
77296W        W49611   0.294  28.569   3.685
77297W        W49612  13.233  12.135  12.340
77298W        W49613   8.246  13.131   0.370
77299W        W49614   8.748  40.818  11.527
77300W        W49615  18.195  43.980   2.745
77301W        W49616  31.572  39.369  13.517
77302W        W49617   9.875  41.932   3.645
77303W        W49618  26.509   9.846  13.456
77304W        W49619  35.440   3.345   3.225
77305W        W49620   7.694  37.448   1.774
77306W        W49621  19.143  42.392   3.294
77307W        W49622  22.153  16.318   2.305
77308W        W49623   2.238   1.482   4.813
77309W        W49624  18.275  41.038  14.311
77310W        W49625  42.823  33.464  10.539
77311W        W49626  18.176  11.257   4.769
77312W        W49627  14.185  14.729   0.910
77313W        W49628  31.576  37.484   0.736
77314W        W49629   2.891   3.455  13.352
77315W        W49630  27.190  38.354  13.415
77316W        W49631   0.429   6.916  12.876
77317W        W49632  40.001  39.451  13.044
77318W        W49633  27.949  22.618   1.428
77319W        W49634   9.251   1.733   1.875
77320W        W49635  16.769  25.483  11.400
77321W        W49636   4.936  28.029   3.817
77322W        W49637  21.659  30.429   0.387
77323W        W49638  31.645  25.557   3.213
77324W        W49639  34.422   5.324  10.644
77325W        W49640  15.763  34.505   0.313
77326W        W49641  15.247  23.068  14.812
77327W        W49642  37.363  25.064   3.356
77328W        W49643  26.110  25.123   2.212
77329W        W49644   4.736  23.057   2.411
77330W        W49645  34.448  18.790   4.180
77331W        W49646  12.142  34.014  12.344
77332W        W49647  39.398  21.591   2.202
77333W        W49648   7.673  16.157   3.829
77334W        W49649  15.103   3.760   2.228
77335W        W49650  43.328   4.250   4.712
77336W        W49651  17.578  27.503   4.803
77337W        W49652  15.089  28.543   5.108
77338W        W49653  21.091  31.038  14.314
77339W        W49654  37.505   5.854   4.192
77340W        W49655  15.647  18.739  13.538
77341W        W49656   4.423  44.007  12.917
77342W        W49657   5.718  19.248  12.547
77343W        W49658   4.262  19.774   2.320
77344W        W49659  33.423  34.872  13.933
77345W        W49660   7.818  43.424   1.696
77346W        W49661  31.516  10.206  12.014
77347W        W49662  36.455  14.609   0.439
77348W        W49663  28.463  11.372   4.277
77349W        W49664  14.816  43.890   0.256
77350W        W49665  30.056   2.725   4.773
77351W        W49666  35.905  35.543   4.608
77352W        W49667  25.055  22.684   1.880
77353W        W49668  41.528  24.048  13.966
77354W        W49669  20.069  42.965  12.342
77355W        W49670  38.948  16.240  13.344
77356W        W49671  20.576  32.569   1.377
77357W        W49672  17.082  31.525  11.404
77358W        W49673  32.591   8.250   3.845
77359W        W49674  32.962  11.771  11.494
77360W        W49675  19.049  31.412   0.243
77361W        W49676  38.964   9.310   2.788
77362W        W49677  16.766  21.655   0.877
77363W        W49678  37.474  20.697  13.873
77364W        W49679  33.048  20.630   0.301
77365W        W49680  18.555  22.096   1.356
77366W        W49681  24.707   0.300  10.893
77367W        W49682  11.297   6.785   2.271
77368W        W49683  30.559  31.555   1.225
77369W        W49684   0.385  38.337  12.889
77370W        W49685  21.200  25.052  14.410
77371W        W49686   2.953  39.959   2.873
77372W        W49687  34.443  31.062   4.782
77373W        W49688  25.682  18.101   1.743
77374W        W49689   5.257  23.056   1.355
77375W        W49690  32.079  38.958  13.514
77376W        W49691  11.286  39.052  13.463
77377W        W49692  42.411  30.072  14.383
77378W        W49693   8.848  33.082  10.423
77379W        W49694  15.649  21.661  10.422
77380W        W49695  21.607  20.547  13.997
77381W        W49696  13.623   5.859  12.079
77382W        W49697  24.673   8.664  11.568
77383W        W49698  40.345  26.168   4.732
77384W        W49699  38.016  44.792  11.855
77385W        W49700  30.646  35.007   1.275
77386W        W49701   9.867  19.760   0.460
77387W        W49702   3.738   3.853  13.349
77388W        W49703  37.522  10.875   3.272
77389W        W49704   6.308  30.031  12.057
77390W        W49705  42.471  13.760   2.269
77391W        W49706  12.673  15.305  12.454
77392W        W49707   4.300  44.444  10.146
77393W        W49708   0.755  20.235   2.360
77394W        W49709  27.671  18.238   2.294
77395W        W49710  19.149  10.239  12.837
77396W        W49711   1.912  26.069  11.394
77397W        W49712  14.733  21.053  12.378
77398W        W49713   9.887  24.694   4.134
77399W        W49714   1.337  43.784   0.446
77400W        W49715  30.961  10.723  13.471
77401W        W49716  28.587  12.278  12.845
77402W        W49717  40.507   0.885   0.429
77403W        W49718  17.710  25.196   3.734
77404W        W49719  22.095  33.066  12.979
77405W        W49720  42.497  35.996   4.753
77406W        W49721  20.030   0.326   2.724
77407W        W49722  37.522  11.800  12.537
77408W        W49723   9.769  34.418   3.636
77409W        W49724   3.953  39.008  14.021
77410W        W49725  23.545  37.903  12.347
77411W        W49726  21.114   0.983  11.114
77412W        W49727  31.558  10.269  13.827
77413W        W49728  26.131   7.277  13.965
77414W        W49729  23.228  36.985   1.894
77415W        W49730   0.832  11.850   1.849
77416W        W49731  33.066  33.054   4.141
77417W        W49732  25.110  35.945   3.809
77418W        W49733  20.193  37.402   2.839
77419W        W49734  42.332   8.734   4.715
77420W        W49735  39.960  30.928  11.063
77421W        W49736  36.852  34.023  12.433
77422W        W49737  14.737  38.928   0.448
77423W        W49738   5.425  22.144   3.790
77424W        W49739  17.073  41.012   3.658
77425W        W49740  42.397  21.213  12.406
77426W        W49741   6.386  35.933   2.305
77427W        W49742  42.415  40.517  11.576
77428W        W49743  17.279  14.759  14.995
77429W        W49744  14.321  34.019   1.436
77430W        W49745   1.401  37.846  10.960
77431W        W49746  26.654  17.294   2.310
77432W        W49747  20.641  15.263  14.303
77433W        W49748  34.973   6.221   1.736
77434W        W49749   8.331  10.878  12.451
77435W        W49750  34.086  44.346   0.745
77436W        W49751  32.569  30.451  13.996
77437W        W49752  25.690  22.515  14.971
77438W        W49753  22.023  27.657   4.267
77439W        W49754  18.152  10.807  13.450
77440W        W49755  36.507   3.279   0.770
77441W        W49756  24.634  13.725   4.786
77442W        W49757  39.517  10.847   3.868
77443W        W49758   8.688  24.108   3.208
77444W        W49759  26.551  17.186   4.339
77445W        W49760  43.990  11.342   3.206
77446W        W49761  24.557  30.617  12.004
77447W        W49762  30.932   9.778  12.066
77448W        W49763  37.981  39.049  14.366
77449W        W49764  22.057  28.503  11.869
77450W        W49765  11.214   5.900   4.187
77451W        W49766   7.838  31.140   4.325
77452W        W49767  26.041  23.215   0.480
77453W        W49768   7.242  16.085  12.932
77454W        W49769  25.636   4.290  13.416
77455W        W49770  14.272  12.638  12.935
77456W        W49771  36.506  26.031  12.391
77457W        W49772  29.948  29.509  13.018
77458W        W49773  16.700  26.106   4.751
77459W        W49774  37.008  24.098   9.942
77460W        W49775  18.554  32.020  14.285
77461W        W49776  21.134  42.520  14.015
77462W        W49777  17.170  21.522   4.233
77463W        W49778   6.834   6.235  11.408
77464W        W49779   3.362  22.194  12.386
77465W        W49780  14.269  37.503  14.429
77466W        W49781   8.306   3.311   4.202
77467W        W49782   6.405  11.674   9.972
77468W        W49783   7.773  41.362   4.736
77469W        W49784  10.354   4.928  12.824
77470W        W49785  21.678   2.887   4.165
77471W        W49786  27.054  15.198   0.402
77472W        W49787  19.087  44.931   4.284
77473W        W49788  25.516  25.000  14.911
77474W        W49789   0.871  24.541   1.731
77475W        W49790  38.880  35.105   1.212
77476W        W49791  42.840  39.869  13.858
77477W        W49792  23.089  28.092  14.282
77478W        W49793  27.959   6.314   5.637
77479W        W49794  21.031  33.005   2.752
77480W        W49795  31.066  12.215   0.255
77481W        W49796   4.704  28.159  10.449
77482W        W49797  34.118   9.229   3.811
77483W        W49798  37.945  14.599   1.375
77484W        W49799  14.595  14.283   4.638
77485W        W49800  24.626  26.653  11.114
77486W        W49801   9.852  21.047   4.819
77487W        W49802  20.723  20.072   3.791
77488W        W49803  37.899  14.270  11.999
77489W        W49804  41.030   1.904   3.352
77490W        W49805  36.400  33.592  10.432
77491W        W49806  42.785  23.104   0.862
77492W        W49807  21.646   1.259  13.034
77493W        W49808  30.520   7.901  14.420
77494W        W49809   5.732  21.125   2.807
77495W        W49810  39.974  25.477  11.397
77496W        W49811  32.408  19.072   2.810
77497W        W49812  19.149  29.015   3.219
77498W        W49813  36.075  33.975   3.777
77499W        W49814  37.036   6.886  13.400
77500W        W49815  39.933   4.375  12.867
77501W        W49816  34.025  19.129  12.879
77502W        W49817   2.466  39.427  14.433
77503W        W49818  11.840  42.411   0.793
77504W        W49819  28.486  41.024   4.250
77505W        W49820   5.375  10.660   0.862
77506W        W49821  44.916  24.110   2.874
77507W        W49822  35.433   1.439  13.047
77508W        W49823  25.670   6.362   0.847
77509W        W49824  12.316   8.231   0.304
77510W        W49825  11.206  11.820   1.388
77511W        W49826  14.633  18.142  12.994
77512W        W49827  33.530  12.764  12.835
77513W        W49828   9.675  38.048   3.264
77514W        W49829  29.030   2.780   0.948
77515W        W49830  37.842  25.562  11.932
77516W        W49831  31.133  42.858   0.244
77517W        W49832  30.452  13.744   3.207
77518W        W49833  40.827  38.854  11.419
77519W        W49834  38.351  14.198   3.375
77520W        W49835  34.080  38.057  14.895
77521W        W49836  32.476  25.507  13.057
77522W        W49837  41.508  32.477  10.545
77523W        W49838  41.794  29.510  11.990
77524W        W49839  39.397  20.663  12.545
77525W        W49840  20.708  34.429  11.937
77526W        W49841  20.710  32.404  13.423
77527W        W49842  27.121   8.796  10.538
77528W        W49843   4.823  36.535   0.459
77529W        W49844  28.442   0.778  14.371
77530W        W49845  34.932   6.806  11.524
77531W        W49846   9.814  16.633   4.696
77532W        W49847  13.348   2.464  12.086
77533W        W49848   7.675  42.856   0.951
77534W        W49849  16.744  41.957   3.764
77535W        W49850  41.436   1.836  12.381
77536W        W49851  10.361  37.054  13.383
77537W        W49852  31.074  43.959   1.836
77538W        W49853  32.550  41.498   2.776
77539W        W49854   2.387  39.983  11.534
77540W        W49855  28.115  40.526   3.377
77541W        W49856   2.801  12.286   2.334
77542W        W49857   3.436  38.958  13.360
77543W        W49858  16.792  25.138   4.709
77544W        W49859   7.327  24.085   4.184
77545W        W49860  22.040   0.422   0.433
77546W        W49861  35.585  12.137  14.867
77547W        W49862  15.700  14.142  13.963
77548W        W49863  36.571  21.092  13.939
77549W        W49864   2.884  39.516  12.850
77550W        W49865   3.285  27.615  10.558
77551W        W49866  11.817   5.246   3.715
77552W        W49867  21.714  28.069   2.727
77553W        W49868  37.967  37.945  14.964
77554W        W49869   2.414  43.384  13.470
77555W        W49870   5.849  38.469   0.261
77556W        W49871  18.229  25.614  11.013
77557W        W49872  10.340  11.779   2.385
77558W        W49873  31.970   1.309  13.501
77559W        W49874  37.066  33.997   2.885
77560W        W49875  22.164  34.506  14.918
77561W        W49876  28.023  33.920   4.734
77562W        W49877  13.347  22.540   3.727
77563W        W49878  10.383  25.047   3.806
77564W        W49879   8.334   9.197  14.488
77565W        W49880  37.860  26.129  10.987
77566W        W49881  37.962   3.458  11.600
77567W        W49882  44.899  14.183  10.641
77568W        W49883  27.059   1.760  14.010
77569W        W49884   3.241  14.618   2.684
77570W        W49885  36.432  26.052   0.467
77571W        W49886  12.764  17.187  10.012
77572W        W49887  23.713  34.612  14.404
77573W        W49888  41.333  16.317   3.670
77574W        W49889  32.086  15.740   0.924
77575W        W49890  17.295   9.273  13.038
77576W        W49891  13.343  30.422   2.413
77577W        W49892   6.920  12.230   2.410
77578W        W49893  21.718  23.998   2.341
77579W        W49894  38.467   0.275  11.388
77580W        W49895  44.479   6.235   3.708
77581W        W49896  27.112   0.368   0.375
77582W        W49897  28.096   7.732  14.450
77583W        W49898  32.135  42.778   0.255
77584W        W49899  41.933  33.474   4.819
77585W        W49900  34.389   9.335  13.439
77586W        W49901  29.027  23.667  14.288
77587W        W49902  32.912  34.878  12.053
77588W        W49903  18.060  12.186   4.305
77589W        W49904  24.190  30.635  10.095
77590W        W49905   7.734  11.839  12.951
77591W        W49906  39.540   0.794  11.374
77592W        W49907  42.910  24.993   0.474
77593W        W49908  36.421   6.421  12.987
77594W        W49909  11.196  16.134  11.532
77595W        W49910  25.611  41.917   4.261
77596W        W49911  17.126  31.517  11.890
77597W        W49912  34.015  27.170   1.816
77598W        W49913  11.281  23.705  10.972
77599W        W49914  29.600  25.579   3.648
77600W        W49915   9.285  36.491  12.075
77601W        W49916  36.858  31.413   2.375
77602W        W49917  13.844  28.161  13.032
77603W        W49918  22.197  26.573  10.967
77604W        W49919  44.832  43.281   3.294
77605W        W49920  12.798   1.970  11.980
77606W        W49921  37.465   2.908  14.817
77607W        W49922  11.149   9.750   4.645
77608W        W49923  23.181  33.477   0.298
77609W        W49924  21.584  25.123   5.149
77610W        W49925  26.673  17.152  12.874
77611W        W49926  24.672  24.046   3.821
77612W        W49927   6.817   7.873  12.503
77613W        W49928  33.085  43.459   0.808
77614W        W49929   4.884  41.809  14.897
77615W        W49930   8.339  44.879  14.949
77616W        W49931   3.348  28.587   1.327
77617W        W49932   1.764  18.714  10.475
77618W        W49933   4.750  12.842   2.897
77619W        W49934   3.250  33.058  14.798
77620W        W49935  11.154  42.374   3.657
77621W        W49936  43.370  37.881  13.977
77622W        W49937  44.374  10.645  12.997
77623W        W49938  43.020  27.683   3.339
77624W        W49939  38.525  10.686  13.810
77625W        W49940   5.198  20.575   0.244
77626W        W49941  34.032   5.926   1.931
77627W        W49942  20.082  36.537  13.925
77628W        W49943   6.384  10.690   0.445
77629W        W49944   9.335  33.479   4.736
77630W        W49945  18.647   3.869   4.673
77631W        W49946  28.521   9.771  14.307
77632W        W49947  23.205   0.801  11.058
77633W        W49948  42.325  36.482   4.262
77634W        W49949  44.788  44.434  11.430
77635W        W49950  22.041   5.252   1.439
77636W        W49951  14.630  11.269  10.600
77637W        W49952  19.222  43.298  12.923
77638W        W49953  37.840  24.221   2.760
77639W        W49954  40.423   5.436   4.837
77640W        W49955  24.975  26.138   3.251
77641W        W49956  17.566  38.066  12.500
77642W        W49957  37.893   9.675  11.448
77643W        W49958   0.914  16.093  10.502
77644W        W49959  36.538  37.026  10.578
77645W        W49960  29.153   8.736  14.026
77646W        W49961  19.158   7.250  14.951
77647W        W49962  23.704  44.468  11.017
77648W        W49963  37.340  20.071  13.459
77649W        W49964  17.115  28.945  12.058
77650W        W49965  10.696  43.417   0.889
77651W        W49966  21.758   8.758   4.291
77652W        W49967  20.639  35.902  10.442
77653W        W49968  24.565  43.794  12.884
77654W        W49969  20.532  19.164  14.980
77655W        W49970  27.575  41.442   0.814
77656W        W49971  19.124   8.748   3.266
77657W        W49972  26.012  40.424   3.863
77658W        W49973  10.743  25.590   1.249
77659W        W49974  21.691  18.698  11.907
77660W        W49975   7.788  19.263   4.198
77661W        W49976  18.060  42.983  12.825
77662W        W49977   2.229  12.652  12.840
77663W        W49978  26.120  17.183  11.915
77664W        W49979  36.467  40.040  10.981
77665W        W49980  27.140  10.716  14.337
77666W        W49981  33.477  23.177   1.309
77667W        W49982  31.035  12.659  14.828
77668W        W49983  42.795  38.978   2.773
77669W        W49984  40.397  27.562   0.799
77670W        W49985  19.179  33.515   3.335
77671W        W49986   8.395   6.892   1.366
77672W        W49987  30.088  14.652   3.741
77673W        W49988   7.839   5.238  11.061
77674W        W49989  42.814  14.192   4.703
77675W        W49990  34.373  41.799   0.453
77676W        W49991   0.410   0.895   0.842
77677W        W49992  21.246  24.556   3.798
77678W        W49993   8.809   9.713  13.839
77679W        W49994  29.952  32.425  10.996
77680W        W49995  15.247  17.737   2.665
77681W        W49996  42.476  32.502  13.353
77682W        W49997   5.245  34.452   4.178
77683W        W49998  35.534  35.928   0.937
77684W        W49999   2.424  24.160  12.831
77685W        W50000  13.763  35.015  11.936
77686W        W50001  23.510  18.058  11.394
77687W        W50002  30.626  37.057   4.258
77688W        W50003   4.779  21.620  12.935
77689W        W50004   1.306  20.160  10.988
77690W        W50005  40.940  43.479  10.470
77691W        W50006  11.231  20.047  10.531
77692W        W50007  11.746  17.221  10.993
77693W        W50008  36.034  36.038  12.978
77694W        W50009  13.299  38.994   0.392
77695W        W50010  35.981  33.428   3.815
77696W        W50011   6.273  28.462   1.442
77697W        W50012  12.621  39.945  12.353
77698W        W50013  38.479  31.944   0.385
77699W        W50014  36.567   9.663  14.866
77700W        W50015  20.235  16.287   3.828
77701W        W50016  38.364   2.346  13.036
77702W        W50017  38.864  39.483   2.691
77703W        W50018  25.550  26.151  11.566
77704W        W50019   5.902  14.247  10.478
77705W        W50020   3.853   3.448   5.283
77706W        W50021  33.929  36.434   0.436
77707W        W50022  16.810  31.648  11.877
77708W        W50023  22.099  44.382   4.810
77709W        W50024  33.618  33.882  12.944
77710W        W50025  25.524  37.837   0.736
77711W        W50026  24.555  22.621  11.471
77712W        W50027   7.259   0.834  14.965
77713W        W50028   0.864  15.165  13.044
77714W        W50029  20.654  16.287  13.469
77715W        W50030  19.057  17.102  13.855
77716W        W50031  21.596  26.161  14.988
77717W        W50032  32.100  36.918   2.893
77718W        W50033  19.542   1.910   1.440
77719W        W50034   6.900   4.396  14.988
77720W        W50035  15.294  22.662   1.319
77721W        W50036   9.208   8.246   2.682
77722W        W50037  11.724  41.318   3.787
77723W        W50038   4.392  35.524  12.344
77724W        W50039  12.294  18.594   3.811
77725W        W50040  42.921  32.124  13.369
77726W        W50041  38.957  22.084   2.846
77727W        W50042  28.598  17.654   1.244
77728W        W50043  32.066  10.658  13.878
77729W        W50044  40.487  25.469  10.583
77730W        W50045   9.225  36.446  10.580
77731W        W50046  28.010   6.781   2.215
77732W        W50047  29.520  35.521  10.436
77733W        W50048  41.475   5.233   1.357
77734W        W50049  37.384  26.106  10.910
77735W        W50050  11.692  27.554  13.908
77736W        W50051  35.000   0.250   2.201
77737W        W50052  42.832   2.959   0.812
77738W        W50053  42.460  12.134   2.707
77739W        W50054  30.911  44.285   0.742
77740W        W50055  37.582  30.966  13.932
77741W        W50056   8.774  12.192  13.355
77742W        W50057  44.954  14.829  11.537
77743W        W50058  22.224  17.638  11.940
77744W        W50059  14.712   2.850  10.625
77745W        W50060  19.274  23.719  14.817
77746W        W50061  17.246  21.739  14.418
77747W        W50062   9.185  23.988  14.932
77748W        W50063  17.681  25.090  12.509
77749W        W50064  36.427  14.220  10.407
77750W        W50065   9.377  35.460  14.010
77751W        W50066  32.620   2.776  10.928
77752W        W50067  31.055   2.760   1.727
77753W        W50068  31.993  35.580   0.393
77754W        W50069  16.719  29.431  10.601
77755W        W50070  29.513  16.699  13.403
77756W        W50071  31.926  39.868   0.395
77757W        W50072  21.154  38.056  14.999
77758W        W50073  40.350  36.042  14.395
77759W        W50074  18.666   6.753  13.026
77760W        W50075  44.899   0.434   2.766
77761W        W50076   7.231  27.571  11.018
77762W        W50077  31.614  16.090  14.834
77763W        W50078  25.518   7.180   4.308
77764W        W50079  14.100  43.998  14.301
77765W        W50080  39.868  19.740   1.325
77766W        W50081   9.672  39.813  10.549
77767W        W50082   1.469  22.641  14.496
77768W        W50083  39.065  37.480   1.863
77769W        W50084  15.763   3.924  12.487
77770W        W50085  28.187  20.671  14.316
77771W        W50086  43.300  43.845   2.696
77772W        W50087  22.078  26.474  12.415
77773W        W50088   3.421  29.517   0.849
77774W        W50089  41.962  25.078  10.140
77775W        W50090  30.530  42.414   2.817
77776W        W50091  18.150  22.701   0.865
77777W        W50092  12.246  25.640  11.546
77778W        W50093   6.831  22.007  13.922
77779W        W50094  31.960  43.811  13.794
77780W        W50095  36.911  42.777   2.753
77781W        W50096   5.351  35.600  11.463
77782W        W50097  41.867  35.422  13.402
77783W        W50098   1.244  18.691   0.411
77784W        W50099   7.893  17.687   3.644
77785W        W50100  44.364  32.015  13.430
77786W        W50101  19.179  22.673  11.866
77787W        W50102  24.056   9.714  14.346
77788W        W50103   4.703  36.507  11.112
77789W        W50104  19.250  29.139   4.721
77790W        W50105   5.258  27.682  13.994
77791W        W50106  24.216  27.021  11.606
77792W        W50107  38.509  36.911  13.369
77793W        W50108   4.707  14.806   1.842
77794W        W50109  20.143  22.549   5.291
77795W        W50110  42.912  18.286   4.136
77796W        W50111  25.534  27.979  10.920
77797W        W50112  37.939  16.156   1.314
77798W        W50113  21.058  25.660  11.027
77799W        W50114   0.945  11.346   2.672
77800W        W50115  17.615  14.225  11.106
77801W        W50116  37.553  21.149   4.644
77802W        W50117  31.422  17.238  10.492
77803W        W50118  13.802  43.018   4.272
77804W        W50119  19.098  15.709   1.821
77805W        W50120  35.913  32.891   2.791
77806W        W50121  14.138  35.577   1.913
77807W        W50122  40.910  34.952  13.937
77808W        W50123   2.252  21.252   3.169
77809W        W50124   8.262   3.814   1.784
77810W        W50125   3.921  33.003   4.740
77811W        W50126  25.676   1.368   3.688
77812W        W50127  10.292  14.642   0.284
77813W        W50128  11.764   4.772  11.528
77814W        W50129  27.061  21.561   4.807
77815W        W50130  39.321  21.524   0.287
77816W        W50131  25.039   8.388  10.454
77817W        W50132  29.056  32.074  10.153
77818W        W50133  18.762   8.700   3.683
77819W        W50134  44.817   1.831   3.840
77820W        W50135  15.295  36.007  10.923
77821W        W50136   5.418  28.980   0.824
77822W        W50137  16.603  16.072  14.331
77823W        W50138  24.518  25.548   3.201
77824W        W50139  37.401   2.946  14.013
77825W        W50140  40.958   1.477  13.827
77826W        W50141  26.201   6.776   1.767
77827W        W50142  36.902  35.007   0.934
77828W        W50143  18.056  22.645  10.440
77829W        W50144  38.361  17.114   1.731
77830W        W50145  14.131  35.376  11.513
77831W        W50146  13.107  34.978  11.587
77832W        W50147  34.475  30.596  10.495
77833W        W50148  13.189   5.748  11.510
77834W        W50149  29.007   8.399  13.429
77835W        W50150   9.365   4.264  14.957
77836W        W50151   9.265  12.653  13.924
77837W        W50152  16.644  42.502   1.870
77838W        W50153  43.874  14.107   1.421
77839W        W50154  22.697  10.877  13.330
77840W        W50155  26.466  31.469   1.704
77841W        W50156  43.302  22.100  12.009
77842W        W50157  36.016  38.027   1.762
77843W        W50158   9.667  41.536  14.469
77844W        W50159  30.105  35.589   2.245
77845W        W50160   0.265   2.939   1.882
77846W        W50161   9.325  37.999  13.408
77847W        W50162  29.956  27.555   1.701
77848W        W50163  43.331  35.089   2.737
77849W        W50164   7.781  36.001   2.250
77850W        W50165   1.289   2.251  12.350
77851W        W50166   8.689  27.991  11.546
77852W        W50167   0.783  41.520  12.088
77853W        W50168  13.191  32.627  12.382
77854W        W50169  27.682  24.187   2.854
77855W        W50170  21.233   4.364  11.931
77856W        W50171  36.867  23.987   0.471
77857W        W50172  25.477  38.373   4.167
77858W        W50173  17.648  20.076   3.810
77859W        W50174   7.775  40.416   0.409
77860W        W50175   2.954  44.941   1.388
77861W        W50176  44.873  26.996   4.604
77862W        W50177   4.750  33.441   1.274
77863W        W50178  28.130   3.407   0.889
77864W        W50179  42.868  12.199  11.072
77865W        W50180  25.169  14.825   3.250
77866W        W50181  33.392  42.448   1.795
77867W        W50182   0.885  18.167   3.661
77868W        W50183  23.624  23.725   4.170
77869W        W50184  22.505  28.484  11.935
77870W        W50185   8.783  36.892   4.198
77871W        W50186  19.598  31.611  10.435
77872W        W50187  14.599  37.426   1.396
77873W        W50188  16.178  32.042  13.500
77874W        W50189  28.553  28.557   2.747
77875W        W50190  30.485   2.756  13.908
77876W        W50191   7.831   6.791  11.467
77877W        W50192  41.439  18.104  13.358
77878W        W50193   0.383  18.184   3.307
77879W        W50194  15.184  22.195  11.919
77880W        W50195  32.424   6.284   0.410
77881W        W50196  27.680  14.611  10.947
77882W        W50197  24.623  15.109   1.283
77883W        W50198  16.583  21.557   4.788
77884W        W50199  14.105  41.811   0.375
77885W        W50200  29.547  39.524  14.939
77886W        W50201  10.757   7.695  13.023
77887W        W50202  11.643   9.394  11.524
77888W        W50203  27.522  13.766  11.880
77889W        W50204  40.530  16.098  12.860
77890W        W50205  17.652  38.941   2.356
77891W        W50206  13.831  26.689  12.493
77892W        W50207   2.838  37.578  14.857
77893W        W50208  21.648   7.898   4.723
77894W        W50209  42.384  16.624   2.368
77895W        W50210  37.842  28.946  11.126
77896W        W50211  29.429  19.138   1.279
77897W        W50212   0.854  10.836   0.428
77898W        W50213  18.167  22.047  11.444
77899W        W50214  31.153  29.118   4.234
77900W        W50215   5.299  24.519   2.888
77901W        W50216  42.449  32.607   2.215
77902W        W50217  32.088  11.155  12.500
77903W        W50218  24.538  31.101  10.500
77904W        W50219   3.894  38.985   1.419
77905W        W50220   5.315  37.874   2.729
77906W        W50221  30.478  33.584   3.334
77907W        W50222  34.587  24.204   4.778
77908W        W50223  42.458  24.485  12.561
77909W        W50224   7.687   8.662  11.050
77910W        W50225  43.313   2.947   2.685
77911W        W50226   1.299  31.444  14.425
77912W        W50227  15.680  43.899  13.996
77913W        W50228  22.675  26.978   4.224
77914W        W50229  34.970   2.844   1.350
77915W        W50230  27.065  43.823  14.391
77916W        W50231  19.625  44.852   1.918
77917W        W50232  23.548  14.666   3.745
77918W        W50233   8.268  15.793   4.715
77919W        W50234  38.933  27.474  14.824
77920W        W50235  20.173  26.060  14.816
77921W        W50236   4.211  34.457  11.979
77922W        W50237  26.072  20.218   2.721
77923W        W50238  37.561  40.456   4.242
77924W        W50239  29.559   1.419  10.633
77925W        W50240  37.495  17.672  11.965
77926W        W50241  39.921   1.787   3.832
77927W        W50242  22.724  19.643   0.462
77928W        W50243  36.061   2.812  13.331
77929W        W50244  17.663  31.603  14.323
77930W        W50245  16.218  44.849   1.435
77931W        W50246  30.969  25.170   3.352
77932W        W50247  36.862  26.013  10.599
77933W        W50248  17.188  30.567   5.592
77934W        W50249  41.318  10.292  12.042
77935W        W50250  38.534  43.002  10.949
77936W        W50251  25.204  44.801  11.871
77937W        W50252  25.542  11.288   3.363
77938W        W50253  38.329  22.093  12.522
77939W        W50254  15.203  27.489   0.744
77940W        W50255  41.452  40.425  14.955
77941W        W50256   8.813  18.152   9.929
77942W        W50257  30.587  22.622  13.944
77943W        W50258  21.127  17.119  12.018
77944W        W50259  17.287  41.853  12.018
77945W        W50260  40.547  29.468  11.937
77946W        W50261  36.098  25.095   0.320
77947W        W50262   9.178  29.622   2.716
77948W        W50263  44.922   8.752   1.791
77949W        W50264  38.061   9.287   2.294
77950W        W50265   6.921   2.945  13.867
77951W        W50266  27.477   7.244   0.340
77952W        W50267  27.673  31.548   1.360
77953W        W50268   0.388   2.257  10.416
77954W        W50269   4.260  36.441   4.748
77955W        W50270  26.576   7.326   0.793
77956W        W50271  32.586  35.576   1.287
77957W        W50272  39.335   9.889  10.573
77958W        W50273   4.236  38.895   2.186
77959W        W50274   3.722  16.622   1.779
77960W        W50275  22.017  34.427   2.283
77961W        W50276   5.823  13.727  12.011
77962W        W50277  18.181  34.912  11.460
77963W        W50278  26.043  26.026   1.224
77964W        W50279  34.502  12.166   2.381
77965W        W50280   6.737   5.208   3.670
77966W        W50281  14.711  36.983  14.940
77967W        W50282  44.362   7.370   2.726
77968W        W50283  34.922   1.964   5.300
77969W        W50284  20.547  41.994   0.471
77970W        W50285  17.094   6.321   5.263
77971W        W50286   6.318  40.913   4.251
77972W        W50287  40.367  22.176   2.662
77973W        W50288  13.620  18.567  11.041
77974W        W50289  30.129   9.253   3.741
77975W        W50290  30.948  12.743   0.474
77976W        W50291   5.349  12.200  12.035
77977W        W50292  14.663  42.465  12.969
77978W        W50293  25.069  36.417  13.825
77979W        W50294  22.165   4.819   2.839
77980W        W50295  15.301  12.740   4.293
77981W        W50296  31.606   9.160  13.441
77982W        W50297  17.774   1.865   4.654
77983W        W50298  18.626  42.359   4.267
77984W        W50299   3.288  30.160   1.898
77985W        W50300  22.193  29.116   0.739
77986W        W50301  26.076  34.102  14.878
77987W        W50302   4.229  19.558   1.280
77988W        W50303  25.527  31.463   3.198
77989W        W50304   0.856  24.983   2.664
77990W        W50305  31.980  35.514  12.539
77991W        W50306  24.480   3.749  12.573
77992W        W50307  29.022  12.291   2.708
77993W        W50308  10.249  24.058   0.799
77994W        W50309  31.643  42.851  11.923
77995W        W50310   2.870  30.035  13.987
77996W        W50311  14.657   5.312   3.755
77997W        W50312   1.866  31.624  12.934
77998W        W50313  14.727  28.974   3.669
77999W        W50314   4.794   2.840  10.645
78000W        W50315  29.664  11.826   4.226
78001W        W50316   3.889  44.350   1.216
78002W        W50317   0.860  36.967   4.303
78003W        W50318  36.560  39.033   3.866
78004W        W50319   5.746  26.579   5.275
78005W        W50320  30.454  15.271   1.278
78006W        W50321  14.660  15.306   2.419
78007W        W50322  20.702  32.578   2.833
78008W        W50323  39.442  30.966   1.414
78009W        W50324  22.670  14.727   2.790
78010W        W50325  12.748  16.184  14.873
78011W        W50326  29.982   7.694   3.753
78012W        W50327  26.463  19.177  14.377
78013W        W50328  24.565  26.560   1.325
78014W        W50329  14.198  25.157   3.338
78015W        W50330  17.208   0.759  10.588
78016W        W50331   6.293   1.869   0.387
78017W        W50332  15.093  10.808   3.278
78018W        W50333  40.885   3.392  12.396
78019W        W50334   4.734  30.156  14.325
78020W        W50335  21.036   5.256  13.030
78021W        W50336  10.699  11.133   0.420
78022W        W50337   7.808   8.685   1.882
78023W        W50338  25.063  42.903  14.788
78024W        W50339  23.640  15.792  13.980
78025W        W50340   4.406  37.442   4.302
78026W        W50341  33.385  18.710   0.785
78027W        W50342  11.699  31.944   2.181
78028W        W50343   2.293  38.363  12.837
78029W        W50344  16.249   3.386  12.503
78030W        W50345  43.771  29.455   1.784
78031W        W50346  37.400  12.121  12.508
78032W        W50347  30.582  22.245  13.486
78033W        W50348  34.871  38.507  14.929
78034W        W50349  39.317  26.466  14.328
78035W        W50350   8.344   6.336  14.390
78036W        W50351  11.799  44.281   3.236
78037W        W50352  31.446  33.878  11.438
78038W        W50353  32.932  31.958   3.694
78039W        W50354  29.975   3.818  13.366
78040W        W50355  19.709   6.810   0.841
78041W        W50356  16.676  37.335   3.755
78042W        W50357  38.023  29.017  11.397
78043W        W50358  19.680  14.319  14.015
78044W        W50359  22.121  20.122  12.954
78045W        W50360  43.860  22.628  11.928
78046W        W50361  19.745  12.203  14.017
78047W        W50362  12.674   6.804  14.378
78048W        W50363  34.961  23.049   1.384
78049W        W50364  14.163  14.216  11.102
78050W        W50365   1.920   2.841   4.117
78051W        W50366  26.510  14.615  13.491
78052W        W50367  31.129  24.544  10.422
78053W        W50368   0.944  31.457   0.729
78054W        W50369   2.241  24.579   1.733
78055W        W50370   4.852  11.143  11.421
78056W        W50371  43.823  40.513   1.219
78057W        W50372  40.509  26.617   4.694
78058W        W50373  22.561  35.996  12.001
78059W        W50374  42.319  35.931   1.699
78060W        W50375   6.397  42.390  12.901
78061W        W50376  43.905  11.748  13.967
78062W        W50377  33.559  34.005   2.289
78063W        W50378  11.675  33.985   1.222
78064W        W50379  16.129  36.530   0.285
78065W        W50380  35.095  39.991   3.690
78066W        W50381   2.813  32.579   2.834
78067W        W50382  25.557   3.445   1.741
78068W        W50383   5.761  18.258  13.010
78069W        W50384  16.812  26.170  12.375
78070W        W50385  33.901  15.601  11.514
78071W        W50386  39.455  15.215   1.409
78072W        W50387   3.310  30.118   1.428
78073W        W50388  31.078  10.687   4.354
78074W        W50389  29.603   0.307  12.408
78075W        W50390  20.737  23.528   4.760
78076W        W50391  11.840  30.604  14.956
78077W        W50392  15.621  43.988  14.876
78078W        W50393  14.723   6.913   1.862
78079W        W50394  35.985   5.261   0.418
78080W        W50395   7.330   8.785  14.922
78081W        W50396   5.207  38.929  12.969
78082W        W50397  13.119   4.901  13.031
78083W        W50398   0.262   8.842   0.965
78084W        W50399  41.025   3.265   2.342
78085W        W50400  35.887  10.824   0.325
78086W        W50401  18.097  26.471   2.209
78087W        W50402  41.823   4.765  13.348
78088W        W50403   0.281  29.453  14.008
78089W        W50404   5.331  43.330  14.009
78090W        W50405   6.363  41.955   0.866
78091W        W50406  14.592   7.258   2.674
78092W        W50407  15.689  31.012  10.470
78093W        W50408  12.330  39.402  10.534
78094W        W50409  24.686  27.485   2.307
78095W        W50410  11.808  26.121   1.213
78096W        W50411  44.445  27.680  13.969
78097W        W50412  40.872  19.649  13.469
78098W        W50413  15.822   5.818  13.877
78099W        W50414  24.035  23.002  13.896
78100W        W50415   5.732  42.490  12.937
78101W        W50416   8.681  15.107  12.373
78102W        W50417  19.051   4.738  14.301
78103W        W50418  38.960  32.088  13.532
78104W        W50419  33.878  42.283   4.349
78105W        W50420   0.886  35.094  12.414
78106W        W50421  35.915  23.560   3.852
78107W        W50422  36.405   1.892  11.123
78108W        W50423  33.519  14.144   3.359
78109W        W50424  14.659  31.470   4.181
78110W        W50425  31.065  20.087  14.899
78111W        W50426  26.155  33.925   3.804
78112W        W50427   5.406   6.687   0.918
78113W        W50428  10.792  34.077   1.347
78114W        W50429  39.045  11.819   4.238
78115W        W50430  40.983  44.792  14.886
78116W        W50431  42.381   1.469   4.738
78117W        W50432  42.775  28.521   0.322
78118W        W50433  42.020  38.852   4.165
78119W        W50434  22.045  41.868  12.934
78120W        W50435  34.002  41.039   3.836
78121W        W50436  23.147  32.517  11.566
78122W        W50437  36.011  39.393   4.205
78123W        W50438   1.407  21.626   2.249
78124W        W50439  26.975  37.350   1.404
78125W        W50440  43.896  10.837  14.876
78126W        W50441  25.999  31.998   3.776
78127W        W50442  36.412  23.688   3.786
78128W        W50443  31.981  42.490  10.610
78129W        W50444  32.462  23.108  13.913
78130W        W50445  23.616   2.413   2.729
78131W        W50446  36.452  17.265   2.338
78132W        W50447   5.707   9.253   4.344
78133W        W50448  37.371   4.737  14.006
78134W        W50449   9.296  33.067  10.553
78135W        W50450   7.194  22.043   2.880
78136W        W50451  15.096  30.141   1.394
78137W        W50452  35.087   1.245   2.752
78138W        W50453  11.780  12.300   0.903
78139W        W50454  13.130  17.122   1.857
78140W        W50455  40.519  44.983  10.450
78141W        W50456   8.850   1.258   4.760
78142W        W50457  26.050  13.245  10.997
78143W        W50458  44.821  38.490  12.471
78144W        W50459  34.597  17.088   3.748
78145W        W50460   7.841   8.174  12.838
78146W        W50461  37.521  21.536   3.750
78147W        W50462  37.500  35.017   1.834
78148W        W50463  18.232  32.966  10.585
78149W        W50464  40.908  17.146   1.800
78150W        W50465  40.486  40.352   2.185
78151W        W50466  25.579  16.219   2.863
78152W        W50467  41.407  26.192   2.183
78153W        W50468  12.836   5.399  12.554
78154W        W50469   5.882   3.396   0.825
78155W        W50470  24.716  30.622   2.406
78156W        W50471  36.054  13.747   0.385
78157W        W50472   7.900  27.985  14.487
78158W        W50473  30.425  22.185  13.976
78159W        W50474  12.627  21.542   4.249
78160W        W50475  30.016  44.921   2.236
78161W        W50476   4.911  19.576  14.395
78162W        W50477  24.155  29.584  13.876
78163W        W50478  23.732  41.805   4.827
78164W        W50479  26.027  29.497   3.856
78165W        W50480  30.542  11.685  12.536
78166W        W50481   5.841  44.876   3.228
78167W        W50482  39.326  39.987  14.937
78168W        W50483  43.432  23.493   1.801
78169W        W50484  18.756  29.651   4.301
78170W        W50485  42.893   8.824   3.358
78171W        W50486  34.941   4.417  10.915
78172W        W50487  26.152   6.725   5.603
78173W        W50488  18.774  14.283   2.687
78174W        W50489  41.536   9.362   4.153
78175W        W50490  19.768  12.278  12.396
78176W        W50491  42.354   6.764  12.397
78177W        W50492  31.569  42.288   0.351
78178W        W50493   7.734  40.917  13.500
78179W        W50494  25.059  27.689  13.014
78180W        W50495  39.982  26.997  14.902
78181W        W50496  19.065   8.771  13.530
78182W        W50497  38.530  21.173   4.349
78183W        W50498  21.607   6.407  13.503
78184W        W50499  21.040  37.549   2.679
78185W        W50500  41.405   2.409   0.475
78186W        W50501   2.419  30.485  13.811
78187W        W50502  20.702  44.378  11.119
78188W        W50503  17.794  17.190   2.887
78189W        W50504  44.864  10.263   4.354
78190W        W50505  32.514   2.854  14.840
78191W        W50506  15.276  17.282  14.426
78192W        W50507  20.180  31.921  14.349
78193W        W50508  24.007   4.419   2.293
78194W        W50509  13.648  20.632  12.017
78195W        W50510   7.723  42.971   1.845
78196W        W50511  14.124   2.448   2.312
78197W        W50512   4.798  28.573  14.357
78198W        W50513   3.409   2.757  13.362
78199W        W50514  28.578  23.089  12.545
78200W        W50515  15.124   0.946  13.881
78201W        W50516  13.758  24.495   1.710
78202W        W50517  39.436   3.244  12.868
78203W        W50518  33.393  39.936  12.472
78204W        W50519  27.660  34.974  13.935
78205W        W50520   7.373  22.116  12.355
78206W        W50521  40.365  20.676   2.669
78207W        W50522  42.504   6.760  10.500
78208W        W50523  22.640  40.322  12.570
78209W        W50524  13.154  25.194  13.946
78210W        W50525  31.086  39.898  12.874
78211W        W50526   5.717  41.940  12.891
78212W        W50527  35.376  28.477  11.089
78213W        W50528   5.796   0.337   2.801
78214W        W50529  29.530  10.696   1.818
78215W        W50530  35.402  17.110  13.367
78216W        W50531  41.418  12.266  12.839
78217W        W50532  14.631  19.108   4.682
78218W        W50533  42.794  11.289   0.857
78219W        W50534  22.163   9.167   0.242
78220W        W50535  33.455  13.212   2.818
78221W        W50536   5.267  33.050   2.221
78222W        W50537  40.054   3.713  13.530
78223W        W50538  14.135  20.243  13.544
78224W        W50539  31.048  17.207   1.358
78225W        W50540  30.945  18.590  14.380
78226W        W50541  34.533  21.524   1.258
78227W        W50542  38.380  18.768  10.603
78228W        W50543  43.403  28.161  14.020
78229W        W50544   7.403  43.934   2.740
78230W        W50545  33.478   3.730  14.890
78231W        W50546  37.430  36.545   2.836
78232W        W50547  26.987  39.883   1.277
78233W        W50548  27.464  20.126  11.897
78234W        W50549  36.875   9.826  13.942
78235W        W50550  28.135   0.958  13.859
78236W        W50551  29.440  41.330   4.287
78237W        W50552  40.362  33.921   1.903
78238W        W50553   0.819  15.159   4.819
78239W        W50554  17.132   2.392  12.851
78240W        W50555  44.940  27.135   0.339
78241W        W50556  28.981  24.636  11.121
78242W        W50557  23.640  23.202   3.205
78243W        W50558   0.273  30.937  13.454
78244W        W50559  18.108  14.267   3.163
78245W        W50560  15.770   0.372  11.476
78246W        W50561  33.511   9.182  13.509
78247W        W50562  37.953  12.250  13.390
78248W        W50563  29.137  19.131  13.948
78249W        W50564  36.541  11.172   0.897
78250W        W50565  39.359   0.276   1.450
78251W        W50566  10.250   8.684   1.247
78252W        W50567  33.045  40.961   3.294
78253W        W50568  36.845  29.638  14.808
78254W        W50569   6.397  33.482  11.498
78255W        W50570  30.050  42.489  14.778
78256W        W50571  33.598  12.160   9.996
78257W        W50572  33.532  10.197  11.380
78258W        W50573   3.845  30.933  12.352
78259W        W50574   1.889  15.164   1.437
78260W        W50575  32.585  30.584  10.526
78261W        W50576  32.103  41.969  13.344
78262W        W50577  36.387  37.898  12.906
78263W        W50578  36.070  27.094   3.726
78264W        W50579  20.591  36.094   3.783
78265W        W50580  27.993   7.911  12.394
78266W        W50581  43.321  22.535   3.356
78267W        W50582   2.753  21.651   1.409
78268W        W50583   3.846  12.204   2.822
78269W        W50584  42.493  33.978  14.404
78270W        W50585  25.069  19.235  14.889
78271W        W50586  30.034  16.301   2.275
78272W        W50587  15.700   7.869  10.411
78273W        W50588   9.175  35.090   3.702
78274W        W50589  11.364   5.844  12.514
78275W        W50590  34.584  19.632   2.352
78276W        W50591  30.479  39.893   2.888
78277W        W50592  13.238  33.532  13.061
78278W        W50593  15.276   5.809  12.450
78279W        W50594  43.978   7.281   0.915
78280W        W50595  20.629  41.335   4.120
78281W        W50596  12.182  16.727  10.501
78282W        W50597  39.897   3.278  11.491
78283W        W50598  31.082  10.802  10.439
78284W        W50599  16.301  23.157   4.221
78285W        W50600   1.939   7.232  14.838
78286W        W50601  17.609  25.018   2.888
78287W        W50602  11.353  43.331   3.249
78288W        W50603  35.912   6.871   2.344
78289W        W50604  33.061  24.568   1.696
78290W        W50605  33.119  12.850   1.918
78291W        W50606  16.770  15.662   3.865
78292W        W50607   0.490  18.050  13.380
78293W        W50608  41.992  21.517   3.727
78294W        W50609  23.141  34.451   0.750
78295W        W50610  14.771  19.571   5.300
78296W        W50611  18.098   3.913  13.797
78297W        W50612  26.044   9.342  10.645
78298W        W50613  12.132  19.256   0.849
78299W        W50614  10.261  43.404   3.789
78300W        W50615  21.168   8.187   0.964
78301W        W50616   0.912  12.782   0.462
78302W        W50617  18.776   9.778   2.180
78303W        W50618  32.118  30.016   2.335
78304W        W50619  27.551  13.269  13.821
78305W        W50620  42.981  16.765  11.923
78306W        W50621   0.808  13.846  13.810
78307W        W50622   0.480  20.259   4.275
78308W        W50623  21.228  21.517   5.141
78309W        W50624  42.389  44.320  10.919
78310W        W50625  39.916   7.672  14.306
78311W        W50626   3.800  41.015  10.591
78312W        W50627  34.520   9.673  11.895
78313W        W50628   9.394  25.099  13.384
78314W        W50629  26.036  19.119   3.742
78315W        W50630  24.502  38.395   3.854
78316W        W50631  30.418  11.347   0.742
78317W        W50632  44.433  11.808  12.856
78318W        W50633  22.071   5.322   0.874
78319W        W50634  37.841  24.638  13.441
78320W        W50635  33.418  36.065   1.319
78321W        W50636  11.800  32.959  13.998
78322W        W50637  40.524  12.157   1.242
78323W        W50638   6.288  42.028  12.080
78324W        W50639  30.954  10.351   4.670
78325W        W50640  34.451   6.795  14.348
78326W        W50641  15.660  18.223   3.681
78327W        W50642   2.865  24.169   0.926
78328W        W50643  16.730   2.842   0.840
78329W        W50644  17.802  42.461   3.787
78330W        W50645   2.464  37.075   3.243
78331W        W50646  11.851  19.667   3.731
78332W        W50647  43.932  39.541   1.781
78333W        W50648  42.347  20.561  10.959
78334W        W50649  29.483  40.994   1.310
78335W        W50650  29.667  13.777   2.854
78336W        W50651   2.399  27.989   4.261
78337W        W50652   3.381  34.396   2.755
78338W        W50653  14.166  23.515   0.370
78339W        W50654  16.641   8.711   0.801
78340W        W50655  43.321  35.583  12.913
78341W        W50656   1.322  38.872  12.032
78342W        W50657  15.136   2.294  14.349
78343W        W50658  37.498  37.418  13.818
78344W        W50659  26.131  16.797  12.962
78345W        W50660   4.870   5.203   4.638
78346W        W50661  41.852  16.714   2.842
78347W        W50662   2.814  35.390   4.259
78348W        W50663  26.621  38.929  14.439
78349W        W50664   0.865  18.198   1.794
78350W        W50665  17.182  22.027  12.353
78351W        W50666   0.387  39.906   1.288
78352W        W50667   9.262  17.624   1.414
78353W        W50668  15.700  33.469  13.986
78354W        W50669  42.843  27.681  11.023
78355W        W50670  15.096  34.976   1.339
78356W        W50671  13.838  29.585  11.457
78357W        W50672  44.446  13.153  12.506
78358W        W50673  28.989  43.976  14.858
78359W        W50674   3.715  17.732   0.273
78360W        W50675  35.491  35.917  11.070
78361W        W50676  41.901  36.352   0.958
78362W        W50677  11.335   5.920  14.799
78363W        W50678  43.020  12.729   3.702
78364W        W50679   2.264  11.827   1.272
78365W        W50680  23.610   4.410   0.913
78366W        W50681  16.118   9.180  14.957
78367W        W50682  11.770  19.097   0.448
78368W        W50683  44.263  43.324  11.089
78369W        W50684  38.846   0.817  11.126
78370W        W50685  27.468  12.165  14.024
78371W        W50686   7.703  23.647   2.837
78372W        W50687   0.315  36.070   9.471
78373W        W50688  32.115  13.185   3.173
78374W        W50689  28.996   4.941  13.975
78375W        W50690  23.015  30.009  11.583
78376W        W50691  17.681  32.024   0.475
78377W        W50692   1.403   8.798   2.302
78378W        W50693  16.623  31.120  11.030
78379W        W50694  30.621  19.643  13.924
78380W        W50695  12.298   3.860   2.680
78381W        W50696  10.341   6.901   3.146
78382W        W50697  33.032  11.191  11.040
78383W        W50698  44.998   4.408  13.330
78384W        W50699  28.619  31.592  13.403
78385W        W50700  16.612  24.588  10.532
78386W        W50701  44.430  31.503  13.036
78387W        W50702   2.237  12.195  12.875
78388W        W50703   8.673   3.378  13.518
78389W        W50704  33.961  25.087   4.791
78390W        W50705  41.458  30.919  13.924
78391W        W50706  28.555  26.175  10.500
78392W        W50707  29.048   1.771   0.477
78393W        W50708  11.276  15.249   0.391
78394W        W50709  43.802  14.318   0.749
78395W        W50710  21.572  12.828  10.924
78396W        W50711  20.189  32.596  12.454
78397W        W50712  34.582  24.563  12.410
78398W        W50713  24.655   9.778   3.247
78399W        W50714  15.219  12.773   4.725
78400W        W50715  39.331  33.079   1.311
78401W        W50716  41.397  31.978   4.694
78402W        W50717   4.702  11.655  11.431
78403W        W50718  31.009   0.431   3.168
78404W        W50719  10.635  14.267   4.323
78405W        W50720  36.476  16.098  14.493
78406W        W50721  30.607  15.234   2.770
78407W        W50722  43.830  10.704  10.465
78408W        W50723  25.002  10.299  12.987
78409W        W50724  25.105  23.690  12.353
78410W        W50725  31.523   8.281  11.129
78411W        W50726   6.353  35.408   0.790
78412W        W50727   0.867  36.392   3.214
78413W        W50728  44.812  44.964  14.461
78414W        W50729  34.471  20.525   2.793
78415W        W50730  34.440  15.790   1.449
78416W        W50731   6.844  29.575  11.583
78417W        W50732   3.843   1.740   3.168
78418W        W50733  10.650  26.140  11.093
78419W        W50734  39.060  21.513  10.909
78420W        W50735  29.147  30.440  12.007
78421W        W50736  21.557   6.857  13.373
78422W        W50737  28.146  35.402  10.982
78423W        W50738  18.675  22.511   0.406
78424W        W50739  24.115  24.117  13.025
78425W        W50740  37.998  12.277   4.600
78426W        W50741  28.442  26.522  10.099
78427W        W50742  25.029  16.200  14.399
78428W        W50743  35.014   1.895   1.437
78429W        W50744  24.023   4.772   1.436
78430W        W50745  28.674  29.992  13.459
78431W        W50746  26.099  17.226   0.742
78432W        W50747  13.625   4.446  11.057
78433W        W50748  12.833  36.513   1.856
78434W        W50749   4.809  30.984   4.130
78435W        W50750  38.987  32.129  11.558
78436W        W50751  28.079  37.560   4.708
78437W        W50752  40.015  32.512  14.770
78438W        W50753  44.877   3.878  11.083
78439W        W50754  26.043  27.141  10.544
78440W        W50755  27.064  17.755   4.268
78441W        W50756  34.093   3.941  12.076
78442W        W50757  31.059  38.867   9.939
78443W        W50758  17.230  16.704   2.222
78444W        W50759  39.314  15.699  14.467
78445W        W50760  38.876  10.219  10.617
78446W        W50761  43.442  37.580   3.823
78447W        W50762  15.657  29.635   1.273
78448W        W50763  32.541  29.970  12.986
78449W        W50764  17.255  20.115   1.374
78450W        W50765  26.081  44.351  12.950
78451W        W50766   0.409  20.266   1.334
78452W        W50767  26.968   1.268   3.187
78453W        W50768  36.854  17.066   0.343
78454W        W50769  38.543  39.856  14.953
78455W        W50770  27.517  21.049  12.456
78456W        W50771  40.987  35.377   2.289
78457W        W50772  35.074  31.117  13.045
78458W        W50773  27.458  28.531  11.452
78459W        W50774  16.684  25.032   3.762
78460W        W50775   8.823   0.826  11.861
78461W        W50776   8.692  32.500   2.226
78462W        W50777  14.094  14.165  14.479
78463W        W50778   1.319  10.690  13.058
78464W        W50779  40.445  25.188   4.720
78465W        W50780  24.630   8.779  10.920
78466W        W50781  30.974  33.990   3.366
78467W        W50782  26.037  43.975   2.817
78468W        W50783  28.128  42.434   3.244
78469W        W50784  34.035   8.260  10.544
78470W        W50785  12.822  11.264   0.733
78471W        W50786  31.970  28.445   4.629
78472W        W50787  23.697  42.859  13.902
78473W        W50788  20.253  21.589  12.992
78474W        W50789  34.563  42.471  10.492
78475W        W50790  42.332  16.275  13.483
78476W        W50791  26.498  38.416   3.757
78477W        W50792  34.982   0.787   4.794
78478W        W50793  35.893   5.749  14.948
78479W        W50794   7.243  26.184   0.320
78480W        W50795  16.290  26.475   0.940
78481W        W50796  36.976  11.331  10.408
78482W        W50797  41.390   5.334  10.641
78483W        W50798  30.110  12.777  13.855
78484W        W50799  24.582   4.911  14.880
78485W        W50800  21.680  31.496   2.209
78486W        W50801  35.103  23.496   1.756
78487W        W50802   5.345  25.482  12.918
78488W        W50803  36.873  42.868  12.889
78489W        W50804  12.775  18.750  11.598
78490W        W50805  13.645  19.243  10.929
78491W        W50806  23.657  34.479   2.201
78492W        W50807  32.592  15.628  12.545
78493W        W50808  17.645  39.314  13.909
78494W        W50809  42.435  27.529   1.772
78495W        W50810  27.178  43.286  11.392
78496W        W50811  44.337  37.048   1.337
78497W        W50812  39.056  10.157   4.279
78498W        W50813   4.215   7.706  11.987
78499W        W50814  21.633  29.055   2.766
78500W        W50815  18.175  11.844   0.756
78501W        W50816  17.723  20.133   0.476
78502W        W50817  37.384   8.802   5.306
78503W        W50818  27.085  12.339  14.933
78504W        W50819  21.538  21.539   4.613
78505W        W50820   0.492   5.360  10.554
78506W        W50821   3.769   5.310  12.368
78507W        W50822  24.633  38.070  13.504
78508W        W50823  10.228   3.781  12.394
78509W        W50824  11.246  32.094  12.942
78510W        W50825   4.369  30.528  14.505
78511W        W50826  15.219   8.831   1.296
78512W        W50827  25.662  25.572  12.079
78513W        W50828  36.954   3.789   2.409
78514W        W50829  29.143  15.636   4.181
78515W        W50830   2.233  23.096   1.820
78516W        W50831  10.313  36.531  12.890
78517W        W50832  15.657   5.360   0.270
78518W        W50833  43.300  15.256   3.713
78519W        W50834  27.622  30.996   3.336
78520W        W50835  15.191  21.715   1.804
78521W        W50836  10.143  41.936  13.497
78522W        W50837   7.191  33.580   0.318
78523W        W50838  30.138  14.134   1.912
78524W        W50839  16.207   7.252  11.399
78525W        W50840  40.798  28.063   4.145
78526W        W50841  10.326  20.110  14.990
78527W        W50842  14.793  22.101   1.385
78528W        W50843   8.659  20.748  12.850
78529W        W50844  19.761  41.413   1.875
78530W        W50845  18.686   2.886  11.003
78531W        W50846  26.123  15.325   3.774
78532W        W50847  27.118  38.932  12.824
78533W        W50848  36.020   9.785  11.863
78534W        W50849   0.926  19.245   0.291
78535W        W50850  16.719   3.918  14.464
78536W        W50851  10.840   5.250   1.323
78537W        W50852  36.980  31.941  12.415
78538W        W50853  34.581   7.192  12.092
78539W        W50854  15.097  43.363   3.686
78540W        W50855  41.536  41.813   0.475
78541W        W50856   1.388   0.763   1.753
78542W        W50857  32.067   3.754   4.325
78543W        W50858  42.848  18.693   0.787
78544W        W50859  43.966   0.296  11.452
78545W        W50860  13.320  23.241   0.410
78546W        W50861  34.920  41.860  11.995
78547W        W50862  18.571   3.241  11.444
78548W        W50863  16.185  19.178  12.395
78549W        W50864  42.837   6.338   0.463
78550W        W50865  12.139  21.254  12.899
78551W        W50866   6.292  30.532   4.121
78552W        W50867  36.913   4.877   2.208
78553W        W50868  44.291  34.899   4.263
78554W        W50869   1.890  19.536  13.807
78555W        W50870  29.171   9.183   3.195
78556W        W50871   3.433  14.108   2.814
78557W        W50872  21.084  10.327   1.821
78558W        W50873   1.845  11.162  14.276
78559W        W50874  20.706  28.109   1.904
78560W        W50875   2.888   4.714  11.475
78561W        W50876  18.593  27.171  12.486
78562W        W50877  27.616   5.273  13.062
78563W        W50878  43.434  39.526  12.340
78564W        W50879  42.828  27.582  14.973
78565W        W50880  36.875  27.589  14.494
78566W        W50881  28.001  14.291  10.026
78567W        W50882  12.225  32.894  12.042
78568W        W50883  11.142   6.401  12.428
78569W        W50884  15.229   1.862   4.316
78570W        W50885  43.433  14.097   1.892
78571W        W50886  28.051   2.885  10.627
78572W        W50887   1.375  11.811   2.774
78573W        W50888  14.697  35.058   0.870
78574W        W50889  36.937   0.766   2.344
78575W        W50890  10.227  44.820   2.248
78576W        W50891  39.453  33.121   0.295
78577W        W50892  11.337   6.773   4.313
78578W        W50893  26.673  28.570   4.151
78579W        W50894  20.543  39.061   2.763
78580W        W50895  30.467  21.203   0.883
78581W        W50896   4.213  14.295  13.873
78582W        W50897  29.595  40.907   3.334
78583W        W50898  10.811  36.525  14.972
78584W        W50899   3.398   2.445   1.712
78585W        W50900  32.900   8.306  13.808
78586W        W50901  22.170  17.287   1.764
78587W        W50902  23.021  10.255   0.891
78588W        W50903   1.880  24.100   0.960
78589W        W50904  43.385  24.664  13.387
78590W        W50905  35.368  43.337  13.320
78591W        W50906  12.851  13.676  11.877
78592W        W50907  22.104  39.534   1.916
78593W        W50908  12.732  38.061  10.466
78594W        W50909   4.847  20.613  12.395
78595W        W50910  39.508  24.013   3.186
78596W        W50911  13.827  35.487   4.298
78597W        W50912  22.217  17.745  14.448
78598W        W50913   4.755   6.325  11.561
78599W        W50914  23.529   8.387   0.278
78600W        W50915  26.591  30.920   2.241
78601W        W50916   7.714   5.823  11.029
78602W        W50917  35.980  41.029   3.335
78603W        W50918  14.112  41.870   2.787
78604W        W50919  24.557  31.972   3.861
78605W        W50920  34.007  27.548   0.922
78606W        W50921   8.847  42.953  13.542
78607W        W50922  26.014   6.305  12.096
78608W        W50923  21.642  15.295  14.801
78609W        W50924   3.456  11.834  14.915
78610W        W50925   9.696  22.668  13.488
78611W        W50926   2.458  10.638   2.812
78612W        W50927  34.929   2.783  12.932
78613W        W50928  16.311  11.773   1.346
78614W        W50929  37.841  25.626  14.774
78615W        W50930   7.217   7.403  14.766
78616W        W50931  12.355   9.844   0.392
78617W        W50932   2.424  10.186   9.958
78618W        W50933  24.546   1.379   2.221
78619W        W50934  25.626   3.729   2.233
78620W        W50935  20.225   5.783  11.905
78621W        W50936  26.114   2.389  14.909
78622W        W50937  18.123   7.195  11.055
78623W        W50938   5.703   8.868   4.823
78624W        W50939  11.843  21.690  11.418
78625W        W50940   7.903  26.530   3.765
78626W        W50941   5.361   6.244  13.383
78627W        W50942  28.025  25.210   0.318
78628W        W50943  30.647  24.597   0.474
78629W        W50944  25.607  10.260   3.175
78630W        W50945  19.737   4.223  13.005
78631W        W50946  40.843  19.670  10.640
78632W        W50947  43.432  29.576  12.376
78633W        W50948  34.414  23.550   0.391
78634W        W50949  44.826   4.898  12.082
78635W        W50950  34.549   8.220  14.369
78636W        W50951  11.853   3.780   2.340
78637W        W50952  16.208  40.520  14.901
78638W        W50953  28.631  24.509   0.379
78639W        W50954  28.035  40.051  12.373
78640W        W50955  26.671  39.833  12.493
78641W        W50956   4.929  40.019   3.829
78642W        W50957  34.993  35.089  14.491
78643W        W50958  15.120  37.465  13.022
78644W        W50959  31.458   4.724  12.518
78645W        W50960  21.542  20.220   1.855
78646W        W50961  43.275  41.304  12.388
78647W        W50962  25.085  15.672   4.278
78648W        W50963  35.094   4.743   4.616
78649W        W50964  27.018  42.326  13.945
78650W        W50965   0.946  28.666   2.803
78651W        W50966  38.370  31.006  11.436
78652W        W50967  12.821   1.385  11.873
78653W        W50968  41.315   6.347  14.900
78654W        W50969   7.776   9.820  10.945
78655W        W50970  38.868  31.924  14.012
78656W        W50971   0.978   9.665  14.956
78657W        W50972  31.439   7.782   4.621
78658W        W50973  22.653  35.579  14.404
78659W        W50974  29.526  36.026   2.888
78660W        W50975   1.240  33.509   5.684
78661W        W50976  22.032  10.187  12.988
78662W        W50977  19.703  25.011  11.053
78663W        W50978  28.159   1.767   4.761
78664W        W50979  42.028  33.072  14.466
78665W        W50980   0.340  18.110  11.578
78666W        W50981  20.166   5.907  10.418
78667W        W50982   0.757   0.829   4.320
78668W        W50983  24.039  17.602  13.425
78669W        W50984  44.756  31.941  10.954
78670W        W50985  14.821  34.608  10.063
78671W        W50986  30.412  34.050  11.593
78672W        W50987  16.613   8.174  14.496
78673W        W50988   6.249  36.524   1.396
78674W        W50989  37.944  36.535  13.010
78675W        W50990  38.927  23.198   3.674
78676W        W50991  18.740   8.309   4.175
78677W        W50992  35.403   5.380  12.482
78678W        W50993   6.685  22.534  14.287
78679W        W50994  18.714  16.098  13.414
78680W        W50995  18.215   5.256  11.955
78681W        W50996  17.267  16.185  14.289
78682W        W50997  35.886  39.015   0.853
78683W        W50998  29.636   4.835   4.300
78684W        W50999  21.117  28.983  12.514
78685W        W51000   2.330  26.604  13.371
78686W        W51001  34.486   9.198   4.252
78687W        W51002   9.198   1.395  14.485
78688W        W51003  25.670  41.035   4.793
78689W        W51004  37.951   4.893  12.022
78690W        W51005  44.757  11.857  12.825
78691W        W51006  22.058  25.978   1.409
78692W        W51007  36.949  39.483   1.829
78693W        W51008  26.604   6.729   4.707
78694W        W51009  10.723  37.440   3.170
78695W        W51010  39.011  29.654  12.352
78696W        W51011  18.289  22.061   2.699
78697W        W51012  19.739  23.537   2.699
78698W        W51013  43.412  43.779   4.780
78699W        W51014  38.833  25.671  14.883
78700W        W51015  28.638  43.314   4.671
78701W        W51016   4.828  29.502  14.514
78702W        W51017  41.327  16.793   0.751
78703W        W51018  40.969   6.735  11.572
78704W        W51019  29.464  42.925   0.274
78705W        W51020  43.403  40.370   2.751
78706W        W51021  39.009  13.257  14.462
78707W        W51022  22.519  14.620   1.419
78708W        W51023  43.787  12.628  14.436
78709W        W51024  37.430   1.771   3.251
78710W        W51025  21.042   4.265   4.127
78711W        W51026  42.445  27.463  12.889
78712W        W51027  26.684  39.439   4.154
78713W        W51028  19.680  22.616   0.300
78714W        W51029   9.274   8.857   9.931
78715W        W51030  26.030  26.111  10.472
78716W        W51031  29.988  26.988   0.364
78717W        W51032   8.844  38.937   2.792
78718W        W51033  11.220   1.369   3.247
78719W        W51034   5.704  28.625  11.580
78720W        W51035  18.258   9.381  10.505
78721W        W51036  34.967   1.928  14.419
78722W        W51037  29.032   1.905  10.633
78723W        W51038  10.320  37.976   2.731
78724W        W51039  26.032   9.818   3.649
78725W        W51040  25.074   0.985   4.273
78726W        W51041  16.183   5.381  12.567
78727W        W51042   1.323  15.088   2.231
78728W        W51043  25.148  26.048  12.471
78729W        W51044  13.249  26.957  11.049
78730W        W51045   1.922  17.718   0.282
78731W        W51046   9.226  44.893  11.402
78732W        W51047  25.616  42.947  11.416
78733W        W51048  31.018  33.075  14.463
78734W        W51049   8.254  41.377   0.892
78735W        W51050  31.448  14.311  11.403
78736W        W51051   6.360   2.893   1.320
78737W        W51052  35.405  12.748   2.228
78738W        W51053  16.273  20.557   0.918
78739W        W51054   0.948  23.099  13.536
78740W        W51055   0.788  17.724  12.372
78741W        W51056  18.079   6.281  10.946
78742W        W51057  39.865  38.481   4.701
78743W        W51058  36.389  27.481  10.968
78744W        W51059   9.152  43.008  13.931
78745W        W51060   6.305  21.208   2.665
78746W        W51061   8.654  36.460   2.823
78747W        W51062  37.549   8.791   4.607
78748W        W51063  14.262   3.380  12.459
78749W        W51064   6.400  34.963   3.805
78750W        W51065  19.687  21.659   0.895
78751W        W51066  28.501  35.438  13.011
78752W        W51067  18.078  38.533  10.006
78753W        W51068  10.304  22.536   1.308
78754W        W51069  43.922  15.272  13.904
78755W        W51070  44.786  43.931  10.424
78756W        W51071  30.595  14.667  11.986
78757W        W51072  34.550  29.655   4.201
78758W        W51073   9.279  25.605  11.942
78759W        W51074   3.787  25.195  13.941
78760W        W51075  10.206  34.484  11.907
78761W        W51076  16.272  28.583   1.927
78762W        W51077  32.534  18.136   9.993
78763W        W51078  43.811  21.208   3.333
78764W        W51079  39.462  12.201  14.832
78765W        W51080  32.637  24.630  14.458
78766W        W51081   2.235  17.566   4.213
78767W        W51082  44.479  16.118  13.009
78768W        W51083  38.471  44.767   3.348
78769W        W51084  42.904  29.593  12.446
78770W        W51085  26.701   0.986   4.195
78771W        W51086   7.895  39.922  11.957
78772W        W51087  38.870  10.634  12.348
78773W        W51088  21.091   3.280  14.906
78774W        W51089  13.802  13.237   3.809
78775W        W51090  17.739  41.484  11.446
78776W        W51091   7.388  22.635  14.822
78777W        W51092  13.648  20.535  12.907
78778W        W51093  13.182  22.640  13.361
78779W        W51094   4.791  42.282   2.864
78780W        W51095  35.091   4.879  13.808
78781W        W51096  18.177  39.838  13.444
78782W        W51097   2.840  21.706   1.765
78783W        W51098   8.775  38.393   2.743
78784W        W51099  12.333  34.542   4.675
78785W        W51100   0.902  21.223   4.759
78786W        W51101   9.170  14.232   0.284
78787W        W51102   2.262   1.483   3.714
78788W        W51103  13.197  13.176   3.736
78789W        W51104  15.229  20.170   4.203
78790W        W51105   2.454   2.436  10.907
78791W        W51106  18.281  10.215  11.088
78792W        W51107  10.867  11.129   1.719
78793W        W51108  29.502  10.797   4.308
78794W        W51109  40.371  11.804   0.916
78795W        W51110   3.459  13.304  13.481
78796W        W51111  30.501   0.758   0.468
78797W        W51112  24.058  16.702   1.451
78798W        W51113   6.917  26.671   3.730
78799W        W51114  15.754  44.410   5.181
78800W        W51115  36.401  28.623  13.869
78801W        W51116  16.295  38.032   1.827
78802W        W51117  25.155  34.042  14.901
78803W        W51118   4.940   2.842  11.871
78804W        W51119  41.312  36.902   2.293
78805W        W51120  17.630  20.083  12.032
78806W        W51121  14.617  29.642  10.894
78807W        W51122  16.696  30.525   4.290
78808W        W51123  16.150  25.164  14.429
78809W        W51124  24.055  22.646  14.327
78810W        W51125  22.200  31.913  14.336
78811W        W51126   2.437  28.121  11.895
78812W        W51127  15.801  11.197   0.778
78813W        W51128   1.944  15.625  14.800
78814W        W51129  33.385   3.717  12.421
78815W        W51130  12.228  27.046  11.442
78816W        W51131   3.272  33.915  10.422
78817W        W51132  10.691  17.719   1.374
78818W        W51133  19.596  42.469   2.726
78819W        W51134  18.090  19.180  13.431
78820W        W51135   7.304  17.732  14.018
78821W        W51136  32.609  32.574   2.851
78822W        W51137  20.234  31.153  12.409
78823W        W51138  22.199  21.194  11.029
78824W        W51139  10.742  24.154   2.899
78825W        W51140   5.330   5.320  13.042
78826W        W51141  38.845  19.268   5.132
78827W        W51142   1.458  11.686   9.939
78828W        W51143   6.217  36.964  13.968
78829W        W51144  21.648  31.952   3.354
78830W        W51145   3.460   4.860   2.666
78831W        W51146  36.560  14.602   4.284
78832W        W51147   9.252  33.933  11.901
78833W        W51148  19.615  27.535   1.354
78834W        W51149  42.353  33.406   0.845
78835W        W51150  37.349  24.048   0.365
78836W        W51151  42.415  29.050  10.893
78837W        W51152  20.137  33.567  10.417
78838W        W51153  26.029  16.584  12.033
78839W        W51154  38.396  30.061   4.245
78840W        W51155   2.841  35.914  14.031
78841W        W51156  27.452  23.007  12.571
78842W        W51157  27.631   1.772   0.892
78843W        W51158  42.888   6.316  12.998
78844W        W51159  17.588  27.449   9.596
78845W        W51160  28.053  38.546   4.113
78846W        W51161  20.634  19.223   3.732
78847W        W51162  42.513  14.764   2.286
78848W        W51163  33.946   8.871  13.814
78849W        W51164  32.430  19.045   2.237
78850W        W51165  28.063  34.920  12.497
78851W        W51166  20.654   9.332  14.384
78852W        W51167   3.436   5.252  13.807
78853W        W51168   9.857  16.169   3.843
78854W        W51169   8.831  23.018   2.730
78855W        W51170   1.819  15.714   1.254
78856W        W51171  15.702  31.983  13.016
78857W        W51172   5.714  16.214   0.909
78858W        W51173  31.427  43.421   1.211
78859W        W51174  22.070  41.954  13.368
78860W        W51175  28.451  11.865   2.351
78861W        W51176  36.095   8.183  11.914
78862W        W51177   2.818  41.384  12.855
78863W        W51178   4.272  43.384   3.798
78864W        W51179  28.022  29.504  13.057
78865W        W51180  37.370  29.643  12.038
78866W        W51181   7.402   9.686   3.242
78867W        W51182   0.461  35.519  10.458
78868W        W51183   0.897  34.873   1.428
78869W        W51184  41.007  18.086  11.588
78870W        W51185  22.526   3.927   4.715
78871W        W51186   9.255  23.215  11.608
78872W        W51187   6.358  13.194  11.503
78873W        W51188  41.974  28.140   5.322
78874W        W51189  13.637  17.129  13.535
78875W        W51190  15.597  39.380   2.294
78876W        W51191  16.813  43.503  13.946
78877W        W51192  40.446   0.798  12.377
78878W        W51193  38.364  38.553  11.060
78879W        W51194   4.773  44.951   2.679
78880W        W51195  34.577  21.542  12.381
78881W        W51196  25.587   5.243  10.923
78882W        W51197   2.305  16.171   1.356
78883W        W51198  23.034  42.321  14.491
78884W        W51199  34.966   7.299   0.266
78885W        W51200  24.159  27.193   4.127
78886W        W51201  15.212  32.929  11.032
78887W        W51202  37.972  33.008  14.951
78888W        W51203  36.862  25.048   0.881
78889W        W51204   2.329  29.038   0.333
78890W        W51205  20.555   0.962   4.808
78891W        W51206  33.087  23.550  12.002
78892W        W51207  38.010  34.030  12.977
78893W        W51208  37.503   5.907   3.696
78894W        W51209   1.272  15.241  10.931
78895W        W51210  25.696  41.431  14.383
78896W        W51211  41.393   1.887  11.011
78897W        W51212  17.265  12.817   4.700
78898W        W51213   9.837   7.280   3.305
78899W        W51214  37.502  26.181   3.777
78900W        W51215  17.727  13.756  13.936
78901W        W51216  34.875  24.198   1.272
78902W        W51217  35.438  33.030   1.212
78903W        W51218  17.214  41.453  11.603
78904W        W51219   8.678  35.458   3.337
78905W        W51220  24.089  41.472  14.879
78906W        W51221  15.590   3.292   0.878
78907W        W51222  22.640   4.924   1.279
78908W        W51223  33.059   9.757   0.432
78909W        W51224  19.754  39.481   2.760
78910W        W51225   8.170  27.096  10.628
78911W        W51226  33.953  34.552   4.737
78912W        W51227  23.505  33.411   3.646
78913W        W51228   2.424  40.376  14.501
78914W        W51229  40.405  31.048   4.601
78915W        W51230  23.522  36.404   0.265
78916W        W51231  17.243  20.039  13.019
78917W        W51232  27.090  21.537   0.854
78918W        W51233   6.838  23.212  12.352
78919W        W51234  36.994  14.823   0.286
78920W        W51235  19.168  30.067   0.449
78921W        W51236   7.254  31.013   0.401
78922W        W51237  19.216  41.859  10.513
78923W        W51238  37.869  37.961   2.212
78924W        W51239  12.230  34.480  11.933
78925W        W51240  14.693  36.912   0.930
78926W        W51241  18.781  25.586  13.805
78927W        W51242   0.839  34.580   3.213
78928W        W51243   1.251  39.504  12.950
78929W        W51244  42.354  31.030  12.348
78930W        W51245  29.982  39.458  13.965
78931W        W51246  23.078  43.401   4.801
78932W        W51247  12.279   7.339   2.398
78933W        W51248  20.719  39.851  13.313
78934W        W51249   1.432  23.205  12.853
78935W        W51250  19.705   5.925  12.062
78936W        W51251   8.402  16.184  14.460
78937W        W51252  22.055  11.813   0.257
78938W        W51253  35.041  10.318   0.337
78939W        W51254  38.026   8.289  10.635
78940W        W51255   9.302  23.205  14.998
78941W        W51256  31.603  16.643   4.764
78942W        W51257  16.649  17.090   2.209
78943W        W51258  43.426  11.175   0.959
78944W        W51259  24.041  27.947  11.899
78945W        W51260   8.704  41.328  11.913
78946W        W51261   2.725   4.241  14.469
78947W        W51262   4.208  27.585  12.502
78948W        W51263  25.010   0.281   1.793
78949W        W51264  12.650  12.308  13.816
78950W        W51265  22.173   0.872   1.297
78951W        W51266   6.345   2.454   2.184
78952W        W51267  43.427  31.965   3.645
78953W        W51268  12.266  44.361  13.977
78954W        W51269  21.138   9.720  10.044
78955W        W51270  22.672  27.677  14.282
78956W        W51271  39.551  13.253  12.483
78957W        W51272   9.649  22.108   3.314
78958W        W51273  10.873  30.654  13.909
78959W        W51274  16.577   5.334   1.406
78960W        W51275  10.870  15.286  12.378
78961W        W51276  39.367  44.259   0.419
78962W        W51277  32.471  32.601   4.831
78963W        W51278  19.646  17.188   0.294
78964W        W51279  17.640  25.703  14.282
78965W        W51280  13.784  32.049  14.383
78966W        W51281  44.293  11.629  11.073
78967W        W51282  40.425  18.754   9.962
78968W        W51283  32.536  17.179   4.330
78969W        W51284  28.047  33.512   4.811
78970W        W51285  15.584  23.148   3.684
78971W        W51286   5.734  25.058   2.260
78972W        W51287  14.814   6.241   0.438
78973W        W51288  27.643  43.990   4.711
78974W        W51289  40.907  12.632   0.338
78975W        W51290  37.443  17.221   2.287
78976W        W51291  34.043   8.823  10.465
78977W        W51292  27.984  32.594  12.526
78978W        W51293  35.975  10.216  11.404
78979W        W51294  28.515  17.075   0.963
78980W        W51295  34.074  25.006  10.990
78981W        W51296   2.769  18.739  13.877
78982W        W51297  30.130  13.223  13.528
78983W        W51298  34.864   7.378  10.408
78984W        W51299  12.769  20.265   3.312
78985W        W51300  28.644  28.458   2.359
78986W        W51301  33.061   3.418  12.027
78987W        W51302  31.904  10.223   0.876
78988W        W51303   5.898  23.566   4.126
78989W        W51304  21.097  39.910   1.244
78990W        W51305  11.810  36.405   1.720
78991W        W51306  22.190  20.682  12.986
78992W        W51307  37.535  42.950  11.911
78993W        W51308  18.171  26.465   3.289
78994W        W51309  34.909  20.172   2.684
78995W        W51310  29.155  32.461   4.700
78996W        W51311  19.563  30.589  13.986
78997W        W51312  27.629  19.647   0.269
78998W        W51313  31.472  12.128  10.645
78999W        W51314  29.059  32.973   4.328
79000W        W51315  12.167  15.740  11.111
79001W        W51316  32.940  36.555   2.262
79002W        W51317   1.793  30.573  10.989
79003W        W51318  32.596  33.409   3.300
79004W        W51319  24.133  34.581  11.868
79005W        W51320   0.791  37.582   1.777
79006W        W51321  32.951  31.610  12.430
79007W        W51322  28.667   4.238   1.277
79008W        W51323  44.332  26.113   4.752
79009W        W51324  20.200  19.167   1.751
79010W        W51325  42.923  12.736   0.465
79011W        W51326  27.178  36.879  12.470
79012W        W51327  35.022  37.452   2.744
79013W        W51328   5.760  36.455  11.877
79014W        W51329  32.552  37.447   3.145
79015W        W51330  39.431  35.400  14.962
79016W        W51331  17.763  31.412  11.961
79017W        W51332   0.970   4.273  14.795
79018W        W51333  31.592  20.164  10.429
79019W        W51334  30.976  29.008   9.995
79020W        W51335  38.911  38.376   2.227
79021W        W51336   2.470  42.991  12.530
79022W        W51337   9.360   8.657   4.321
79023W        W51338   1.766  23.182  13.502
79024W        W51339   2.945  32.516   4.223
79025W        W51340  12.747  19.742   1.732
79026W        W51341  21.709   5.361  13.334
79027W        W51342  12.643  26.547  11.566
79028W        W51343  42.892  15.317   0.736
79029W        W51344  17.662  32.997  14.418
79030W        W51345   4.751  12.269  10.937
79031W        W51346  31.447  13.701   1.419
79032W        W51347  42.316   3.395  12.467
79033W        W51348  16.643  43.922   1.885
79034W        W51349  21.186   9.254   3.338
79035W        W51350   5.711  24.217   2.232
79036W        W51351  32.626   2.931  12.466
79037W        W51352  40.454  28.493  11.045
79038W        W51353  36.435  13.691  12.543
79039W        W51354  23.686  15.141  14.300
79040W        W51355   7.772  39.050   4.710
79041W        W51356  39.922  40.358  11.004
79042W        W51357  36.010  38.570   2.374
79043W        W51358  17.603  41.471   1.757
79044W        W51359  26.657  30.940  14.981
79045W        W51360  35.595  43.507   0.309
79046W        W51361   3.775  30.564   4.160
79047W        W51362  13.840  34.095  13.432
79048W        W51363  14.187  34.970   2.757
79049W        W51364  25.031  28.134   5.185
79050W        W51365  10.666  39.326   0.331
79051W        W51366  17.169  29.559   4.240
79052W        W51367   4.284  25.991   3.342
79053W        W51368  32.920   5.218  13.850
79054W        W51369  28.988  13.236   4.223
79055W        W51370  32.951  26.656   2.694
79056W        W51371  25.615  26.095  13.451
79057W        W51372  16.113  31.487  14.791
79058W        W51373  38.044  11.697   2.365
79059W        W51374  34.555  29.531  13.439
79060W        W51375  14.166  10.267  13.062
79061W        W51376  13.791  16.074  11.110
79062W        W51377  29.509  20.647  11.404
79063W        W51378   5.396   8.780   3.796
79064W        W51379  34.004   1.797   0.813
79065W        W51380   8.213  12.243   3.723
79066W        W51381  27.594  42.806   0.730
79067W        W51382   2.233  22.503   2.327
79068W        W51383  32.395  43.490   4.597
79069W        W51384  10.767  18.159   5.153
79070W        W51385  20.649  31.480   3.637
79071W        W51386  36.466   9.877  11.063
79072W        W51387   8.358   7.829   1.394
79073W        W51388  38.425  12.182  12.864
79074W        W51389   3.723   8.225   2.316
79075W        W51390  21.082  43.988  12.834
79076W        W51391  10.725  42.372  11.094
79077W        W51392  16.280  14.815   3.652
79078W        W51393  43.955  36.538  12.980
79079W        W51394  16.790   4.219  13.945
79080W        W51395  41.030  28.101  11.094
79081W        W51396  42.504   3.356   4.837
79082W        W51397  34.486   4.401   0.344
79083W        W51398  22.111   5.813   4.304
79084W        W51399   5.757  27.165  14.473
79085W        W51400  11.213  13.134   2.883
79086W        W51401  10.242  19.562   3.861
79087W        W51402   7.227  37.517   0.737
79088W        W51403  42.800  29.081   0.794
79089W        W51404  15.299  24.058   1.367
79090W        W51405  17.735  36.412  12.082
79091W        W51406  13.152  16.731   5.290
79092W        W51407  17.687  41.932   2.703
79093W        W51408  16.759  22.157  11.505
79094W        W51409  22.243  27.070   1.334
79095W        W51410  13.254  42.881   2.839
79096W        W51411  29.116   5.293   3.280
79097W        W51412  41.835  27.529  11.378
79098W        W51413  30.154  44.473  11.863
79099W        W51414  17.112  19.225   1.701
79100W        W51415  26.164  34.089  11.412
79101W        W51416  26.526   1.938  10.053
79102W        W51417  23.064  16.153  12.559
79103W        W51418   3.770  28.974   4.778
79104W        W51419   0.968  14.323  13.993
79105W        W51420   5.438  28.982   1.310
79106W        W51421  19.207   6.289   0.312
79107W        W51422   4.752  27.107   3.836
79108W        W51423  15.316  17.153   0.262
79109W        W51424  34.373  22.653  11.409
79110W        W51425  21.178  27.498  11.014
79111W        W51426   5.438  24.538   2.391
79112W        W51427   0.267  13.685   2.243
79113W        W51428  11.260  12.322  13.358
79114W        W51429  32.521  42.317   4.825
79115W        W51430  40.413  44.421   3.385
79116W        W51431  39.547  18.753  11.970
79117W        W51432  13.671  37.079   4.724
79118W        W51433  41.337  19.150   4.609
79119W        W51434  28.672  24.097  10.530
79120W        W51435   7.727  21.548   1.294
79121W        W51436  39.418   1.288   1.393
79122W        W51437  15.268   3.294  13.904
79123W        W51438  37.926  19.626   4.732
79124W        W51439  38.991  23.119   2.823
79125W        W51440  30.023  23.562  13.368
79126W        W51441   0.783  20.242   3.303
79127W        W51442  33.053   5.281   4.835
79128W        W51443  20.653  15.328   0.810
79129W        W51444   1.908  30.141  13.027
79130W        W51445  12.307  34.589   1.899
79131W        W51446   4.237  18.107  11.510
79132W        W51447  19.153  39.451  12.881
79133W        W51448  29.599  24.628   4.627
79134W        W51449  13.224  14.725  14.795
79135W        W51450  22.555  30.455  11.549
79136W        W51451  26.488  31.405  12.824
79137W        W51452   0.324  11.214   3.253
79138W        W51453  10.316  16.099   2.400
79139W        W51454  39.326  15.637   0.367
79140W        W51455  42.904  13.224   5.183
79141W        W51456  44.973  26.106   2.390
79142W        W51457  29.641  24.149  12.868
79143W        W51458  29.451  34.568   4.154
79144W        W51459  20.761  38.477  11.877
79145W        W51460   4.432  34.033   4.212
79146W        W51461  40.007  12.730  12.915
79147W        W51462  35.856   1.417  12.939
79148W        W51463  34.569  21.712   1.920
79149W        W51464  22.599  21.181  14.831
79150W        W51465  37.436   3.892  11.535
79151W        W51466  18.116  18.202   3.646
79152W        W51467  42.474   3.797  14.322
79153W        W51468  31.008  33.972  10.412
79154W        W51469  12.337  37.844   4.150
79155W        W51470   6.253  14.657  13.513
79156W        W51471  37.910  35.016  10.447
79157W        W51472  21.735  17.168  11.865
79158W        W51473   4.737   3.759  11.936
79159W        W51474  35.070  17.158  10.062
79160W        W51475  18.101  43.300   2.337
79161W        W51476  34.899  12.348   0.857
79162W        W51477   7.345   0.447  14.505
79163W        W51478  34.611   7.762  12.892
79164W        W51479  44.488  33.479   4.759
79165W        W51480  11.855  25.985   4.700
79166W        W51481  35.945  12.349  14.434
79167W        W51482  13.641  38.871  13.032
79168W        W51483  34.381  31.490   4.632
79169W        W51484  12.252  16.113   0.423
79170W        W51485  13.618  12.633  12.859
79171W        W51486  16.754  28.605  10.159
79172W        W51487  28.149   4.415  10.624
79173W        W51488  41.478  19.705   1.910
79174W        W51489  14.667  39.932  12.909
79175W        W51490  12.319  24.155   4.780
79176W        W51491  18.782  14.335  10.538
79177W        W51492  14.590  18.094   9.971
79178W        W51493  17.221  35.408  14.000
79179W        W51494  18.546  13.786  14.846
79180W        W51495  33.399  11.147   2.664
79181W        W51496  21.738  13.267   3.352
79182W        W51497  20.603   4.225   2.328
79183W        W51498  42.433  38.851   2.731
79184W        W51499   7.288  26.100  14.339
79185W        W51500  44.485  33.620  13.384
79186W        W51501  14.257  13.349  10.553
79187W        W51502  20.108  33.624  10.888
79188W        W51503  43.014  38.919  12.060
79189W        W51504  33.597  41.513  11.869
79190W        W51505   5.248  34.532   1.797
79191W        W51506  41.334   7.873   3.693
79192W        W51507  37.972  17.074   0.339
79193W        W51508  37.852  16.572  12.369
79194W        W51509  41.011  12.166  11.536
79195W        W51510  18.230  14.098   0.286
79196W        W51511  44.455  25.572   2.758
79197W        W51512  20.271  28.979  14.311
79198W        W51513  13.326  34.949  13.809
79199W        W51514   8.192  38.472   1.234
79200W        W51515  19.175  24.088  11.100
79201W        W51516   3.413  28.039   4.616
79202W        W51517   2.364  39.827   1.834
79203W        W51518  44.452   5.322  13.924
79204W        W51519  42.022   4.768  12.858
79205W        W51520   0.326  14.144   2.335
79206W        W51521  41.816   1.766  11.924
79207W        W51522  42.001  34.512  12.466
79208W        W51523  31.494  25.121   3.843
79209W        W51524  42.940   5.209   1.877
79210W        W51525  21.025   0.327   0.396
79211W        W51526  20.736  34.465   3.373
79212W        W51527  15.127  31.936  11.927
79213W        W51528   6.268  14.730   1.279
79214W        W51529  13.678  38.828   2.194
79215W        W51530  32.581  36.867   2.794
79216W        W51531   5.933  16.590  10.521
79217W        W51532  21.744  38.877   0.789
79218W        W51533  10.654  33.442   1.751
79219W        W51534   8.840  37.834   1.727
79220W        W51535  38.408  34.993   3.750
79221W        W51536  41.362  43.316   3.241
79222W        W51537  14.200  31.407   4.805
79223W        W51538  24.080  26.025   4.802
79224W        W51539  18.102  40.003  10.921
79225W        W51540  33.586  42.031  14.883
79226W        W51541  44.941  40.412  11.033
79227W        W51542  24.082  26.149  12.909
79228W        W51543  32.105  21.078   0.740
79229W        W51544   3.730   0.899   2.768
79230W        W51545  12.782  36.414   0.331
79231W        W51546  10.169  38.448   1.776
79232W        W51547  21.747  43.304  12.385
79233W        W51548  14.249  29.563   3.822
79234W        W51549   6.908  35.464  14.770
79235W        W51550  24.104  31.405   0.296
79236W        W51551  15.652  13.153  13.952
79237W        W51552   1.973   1.301  14.771
79238W        W51553  39.412  39.892   0.770
79239W        W51554  35.475  43.986   0.832
79240W        W51555  25.971  40.044  12.033
79241W        W51556   1.827   9.875  13.899
79242W        W51557  44.007   6.737   4.660
79243W        W51558  40.823  31.961  10.555
79244W        W51559  15.748  20.196  13.385
79245W        W51560  30.945   4.249   0.295
79246W        W51561  26.519  14.820  10.907
79247W        W51562  19.704  43.816   0.315
79248W        W51563  15.306  22.588   2.210
79249W        W51564  36.373  34.019  13.821
79250W        W51565  33.502   6.823  11.493
79251W        W51566  20.705  34.978   0.478
79252W        W51567  16.806  29.608  11.531
79253W        W51568  15.633   6.211   4.306
79254W        W51569  16.221  41.991   2.898
79255W        W51570  22.601  16.096  14.390
79256W        W51571   1.747  43.466  12.408
79257W        W51572   2.462   5.200  10.573
79258W        W51573  37.369  26.149   2.664
79259W        W51574   0.840   7.686   1.241
79260W        W51575  11.369  36.522   1.932
79261W        W51576  13.199  15.129   1.705
79262W        W51577  22.084   3.254  12.341
79263W        W51578  38.380  13.841  11.920
79264W        W51579  11.341  16.299   0.950
79265W        W51580  14.330  40.486   1.264
79266W        W51581  38.849  28.440  13.828
79267W        W51582  23.718  32.920  11.923
79268W        W51583   2.421   8.269   0.802
79269W        W51584  36.984  14.793   2.860
79270W        W51585   6.344  28.581   2.195
79271W        W51586  27.499  20.069   1.355
79272W        W51587  26.058  13.196   2.362
79273W        W51588  11.345   3.419   0.873
79274W        W51589  36.359  14.240  12.542
79275W        W51590  12.833  38.951   4.837
79276W        W51591  35.993  38.342  12.937
79277W        W51592  16.610  23.228   4.798
79278W        W51593  29.580   7.325   0.368
79279W        W51594  30.635  32.530   4.188
79280W        W51595   6.729  19.689   0.254
79281W        W51596   7.253  28.998  12.573
79282W        W51597   3.847  21.697  14.978
79283W        W51598   7.708   0.417   2.264
79284W        W51599  33.097   5.817   0.255
79285W        W51600  19.656  44.455   0.789
79286W        W51601   6.305  22.159  13.813
79287W        W51602  29.973  38.904  11.111
79288W        W51603   1.824  18.071  10.440
79289W        W51604   8.396  23.006   4.761
79290W        W51605  16.638   8.269  13.985
79291W        W51606  15.814  24.012   0.736
79292W        W51607  24.190   2.808  10.579
79293W        W51608  14.708  21.158   3.692
79294W        W51609  27.453   6.878   1.229
79295W        W51610  33.007  25.099   5.214
79296W        W51611  13.673  13.201   3.331
79297W        W51612   8.745  17.293   4.771
79298W        W51613  29.589   1.914  10.907
79299W        W51614  44.780  42.827   2.700
79300W        W51615   0.763  25.637   2.405
79301W        W51616   6.259  38.343   0.298
79302W        W51617  32.109  39.847  10.434
79303W        W51618   4.837  27.648   4.202
79304W        W51619  28.950   2.275   2.880
79305W        W51620  16.712  18.751   2.407
79306W        W51621   4.364  26.015   0.322
79307W        W51622   1.314   9.733  14.485
79308W        W51623  27.459  30.038  13.049
79309W        W51624  15.695  38.864   2.690
79310W        W51625  40.837  23.999   1.299
79311W        W51626  16.663  15.136  11.456
79312W        W51627  25.680  43.404  13.416
79313W        W51628  22.013  26.529  12.998
79314W        W51629  33.479  18.746   2.209
79315W        W51630  38.879  35.075   2.861
79316W        W51631  20.065   4.820  14.007
79317W        W51632  27.588  43.513   2.883
79318W        W51633   6.277   4.350   0.950
79319W        W51634  23.628  10.836   0.378
79320W        W51635  28.442  33.006   0.403
79321W        W51636  40.312  19.613   9.938
79322W        W51637  25.188  19.776   5.083
79323W        W51638  37.494   6.732  14.342
79324W        W51639  28.032  36.093  12.985
79325W        W51640  23.520   3.887   3.192
79326W        W51641  31.493  13.183  12.019
79327W        W51642  30.552   6.409  12.834
79328W        W51643  20.246  26.966   4.674
79329W        W51644  10.735  27.183   0.256
79330W        W51645  19.589  22.099  14.275
79331W        W51646  36.048  42.817   0.773
79332W        W51647   6.424  42.477  12.433
79333W        W51648   6.314  19.082   1.789
79334W        W51649  36.895  11.855   0.887
79335W        W51650   1.383  40.323   0.391
79336W        W51651  15.326   7.724   4.261
79337W        W51652  10.188  16.574  13.483
79338W        W51653  43.799  31.581  11.509
79339W        W51654  37.924   0.449   3.384
79340W        W51655  38.429   6.697   0.333
79341W        W51656   6.696  11.229  11.093
79342W        W51657   9.266  26.696  14.966
79343W        W51658   4.726  27.649   2.821
79344W        W51659  25.697  26.203  14.948
79345W        W51660  24.016   7.364   0.842
79346W        W51661  34.532  18.738  11.451
79347W        W51662  22.108  43.353   2.845
79348W        W51663  22.677   0.931   4.665
79349W        W51664  33.000  33.405   2.318
79350W        W51665  37.360  21.727  10.518
79351W        W51666  33.061  33.940  13.337
79352W        W51667  29.994  32.612   0.382
79353W        W51668  27.041  41.859   1.450
79354W        W51669   3.288   3.886   1.279
79355W        W51670   5.325   8.284  14.290
79356W        W51671  37.503  21.225  12.944
79357W        W51672  27.617   4.787  14.973
79358W        W51673  44.839  38.870  14.809
79359W        W51674  27.658  35.037  14.442
79360W        W51675   4.854  37.997   1.866
79361W        W51676   1.796  40.025  11.441
79362W        W51677  36.882  17.644  11.085
79363W        W51678  23.032  21.722   5.183
79364W        W51679  42.367   2.472   3.203
79365W        W51680  29.541   1.778   3.307
79366W        W51681  36.924  36.446   4.328
79367W        W51682  16.186   1.743  14.408
79368W        W51683  13.118  40.541   4.187
79369W        W51684  35.563  17.150  14.025
79370W        W51685  11.850  20.664  13.950
79371W        W51686   5.290  10.244   0.905
79372W        W51687  14.661  44.397  13.948
79373W        W51688  42.401  30.439   2.393
79374W        W51689  43.302  16.176  14.442
79375W        W51690  11.811  12.147   1.719
79376W        W51691  44.357  26.642   3.729
79377W        W51692  10.367  39.814  10.442
79378W        W51693  10.286  43.775   2.757
79379W        W51694   0.789  21.523   0.386
79380W        W51695  43.935  32.599  12.040
79381W        W51696  30.106   8.308   1.873
79382W        W51697  16.581  16.278  13.817
79383W        W51698  32.394  29.072  11.978
79384W        W51699  44.757   8.674  14.826
79385W        W51700   2.381  29.633  14.320
79386W        W51701  10.217  13.606  13.058
79387W        W51702  37.868  26.042   4.219
79388W        W51703  23.050  38.893   2.666
79389W        W51704  16.730  15.133   4.165
79390W        W51705  27.022  28.568  10.921
79391W        W51706  16.086  10.725  13.389
79392W        W51707  24.170   3.793   3.175
79393W        W51708   3.365  14.712   2.234
79394W        W51709  30.564   2.312   4.722
79395W        W51710  33.470  34.431   3.176
79396W        W51711  36.938  41.994   1.717
79397W        W51712  15.625  20.663  12.003
79398W        W51713  31.983  18.621  14.860
79399W        W51714  35.877  18.646  13.397
79400W        W51715  10.279  42.519  10.066
79401W        W51716  30.003  14.223   4.220
79402W        W51717  12.844   8.218   1.321
79403W        W51718  42.437  37.563   3.160
79404W        W51719  26.594  28.515  11.863
79405W        W51720   4.879  13.736  12.988
79406W        W51721  22.564  39.423  12.946
79407W        W51722  41.419  24.180   1.769
79408W        W51723  29.647  32.413   2.765
79409W        W51724  40.340  33.074   4.347
79410W        W51725   3.791   1.241   3.267
79411W        W51726  20.548  32.395   4.189
79412W        W51727  18.245  43.506   3.196
79413W        W51728  14.227   0.286  13.437
79414W        W51729   9.671   8.216  14.466
79415W        W51730  25.508   5.318   4.244
79416W        W51731   0.764  41.465   1.926
79417W        W51732   2.849  31.406   4.136
79418W        W51733  19.664  18.687  14.275
79419W        W51734  26.974  22.251   1.405
79420W        W51735  37.895  35.446   1.291
79421W        W51736  13.219  33.026  10.442
79422W        W51737  14.762  35.060   0.320
79423W        W51738  44.876  30.552  11.416
79424W        W51739   2.241  23.498  10.441
79425W        W51740  37.000  10.380  13.364
79426W        W51741  38.369  27.613  12.027
79427W        W51742  32.568  32.482  12.457
79428W        W51743  18.162  44.282  10.427
79429W        W51744  28.020  22.193   2.844
79430W        W51745   7.791  12.188  13.996
79431W        W51746  27.499   1.372   1.820
79432W        W51747  40.994  33.984  13.441
79433W        W51748  39.538  15.717  13.817
79434W        W51749   1.472   9.848  13.801
79435W        W51750  44.924   3.743   1.891
79436W        W51751  29.452  28.459   2.341
79437W        W51752  29.001   9.821   2.741
79438W        W51753  29.598  40.437   1.249
79439W        W51754  19.092  27.071   1.791
79440W        W51755  19.583  38.428  11.044
79441W        W51756  17.173  20.565  14.983
79442W        W51757  17.197  38.955  11.976
79443W        W51758  36.586  30.999   2.373
79444W        W51759  35.003  25.061  11.486
79445W        W51760  44.781   2.915  12.850
79446W        W51761   1.357   5.886  13.332
79447W        W51762  16.312  35.058  10.915
79448W        W51763  16.187  41.972  10.604
79449W        W51764  37.342  32.594   3.841
79450W        W51765  43.000  30.653   1.210
79451W        W51766  21.607  27.137  11.097
79452W        W51767  16.612  14.826   1.695
79453W        W51768  30.412   9.221  11.015
79454W        W51769  44.877  11.320  14.816
79455W        W51770  40.851  43.312  10.909
79456W        W51771  23.656  43.791  13.799
79457W        W51772   1.883  28.503   2.224
79458W        W51773  28.132  34.109   4.179
79459W        W51774  23.159   6.681   4.302
79460W        W51775  31.060  42.463   0.385
79461W        W51776  16.571  35.901   0.425
79462W        W51777  13.680  12.748   2.308
79463W        W51778  30.592   8.226   3.841
79464W        W51779  44.004  17.740  11.966
79465W        W51780  37.398  32.968   4.167
79466W        W51781   9.232  18.604   0.869
79467W        W51782  35.399  11.148  11.598
79468W        W51783  26.661  10.676  11.606
79469W        W51784  39.871  38.429   0.468
79470W        W51785  36.524  12.338  11.997
79471W        W51786  38.491   4.363   2.832
79472W        W51787   2.725   0.938   1.350
79473W        W51788  13.198  14.663  11.046
79474W        W51789  11.666   8.686   0.383
79475W        W51790   9.680  44.343  13.481
79476W        W51791   8.674  29.427  14.765
79477W        W51792  36.377  36.454   3.653
79478W        W51793  27.119  39.951  13.481
79479W        W51794  17.801  43.322   2.220
79480W        W51795  20.137  25.059   5.266
79481W        W51796  36.055   2.934  11.917
79482W        W51797  22.018  19.569   2.238
79483W        W51798   2.256  16.106   1.884
79484W        W51799  18.576  34.067   2.838
79485W        W51800   3.232  43.766  10.985
79486W        W51801  42.813  11.645   2.377
79487W        W51802  41.473  38.520   3.244
79488W        W51803   3.829   7.861   4.667
79489W        W51804  18.701  39.828   3.360
79490W        W51805  21.743  11.192  13.541
79491W        W51806  39.424  39.840   1.816
79492W        W51807  14.132  15.109  10.511
79493W        W51808  37.582   3.780   4.171
79494W        W51809  43.881   5.368  11.414
79495W        W51810   6.684  38.910  11.024
79496W        W51811  10.830  30.113  14.452
79497W        W51812  17.116   6.405  14.361
79498W        W51813   7.746   1.878   1.352
79499W        W51814  37.903  17.120  12.961
79500W        W51815   6.819  38.015  12.429
79501W        W51816  19.694  38.334  11.582
79502W        W51817  36.902   4.263  13.813
79503W        W51818  36.347  23.516  14.377
79504W        W51819   7.177   5.836   1.879
79505W        W51820  11.833  30.929  14.327
79506W        W51821  30.938  31.456  13.034
79507W        W51822  12.315  19.562   1.748
79508W        W51823  20.192   8.662  12.888
79509W        W51824  26.011  24.519  13.455
79510W        W51825   6.854  36.466   2.357
79511W        W51826  36.869  33.539  14.327
79512W        W51827  18.572  37.451  12.385
79513W        W51828  24.689   6.903  13.861
79514W        W51829  34.095  15.734  14.488
79515W        W51830  40.803  34.107   0.242
79516W        W51831  28.942   1.840  13.400
79517W        W51832  29.642  44.848   3.319
79518W        W51833  31.925  14.246  14.948
79519W        W51834  31.969  33.454   4.809
79520W        W51835  30.086  33.395   3.795
79521W        W51836  25.682   5.882   3.255
79522W        W51837  44.974   0.782   0.471
79523W        W51838  22.111   7.318   1.768
79524W        W51839  26.072  24.637  14.509
79525W        W51840   8.342  20.184  13.963
79526W        W51841  18.208  10.748   0.366
79527W        W51842   9.729  42.311   2.274
79528W        W51843  25.991   9.254  13.426
79529W        W51844  20.629  42.427   0.749
79530W        W51845  44.413  10.151   0.919
79531W        W51846  44.923   7.285  10.907
79532W        W51847  16.631  39.486  12.061
79533W        W51848  14.254   6.334  13.838
79534W        W51849  25.541   4.267  13.964
79535W        W51850  24.528   1.973   3.630
79536W        W51851  38.417  39.384  13.337
79537W        W51852  38.908  36.456  10.510
79538W        W51853   3.794   8.719   3.785
79539W        W51854   7.219  41.871  11.024
79540W        W51855   8.233   7.869  12.537
79541W        W51856  18.263  28.470   1.833
79542W        W51857  32.961  41.920   1.267
79543W        W51858  11.855  43.961  13.867
79544W        W51859  17.228  31.983   3.766
79545W        W51860   0.751  44.373   1.935
79546W        W51861  16.658   4.753   3.805
79547W        W51862  38.849  20.762  10.436
79548W        W51863  31.597   6.681  13.982
79549W        W51864  12.261   5.365  14.479
79550W        W51865  14.647  13.671   1.875
79551W        W51866   1.401   7.864   2.892
79552W        W51867  44.302  33.506  11.025
79553W        W51868   0.895  20.249  11.533
79554W        W51869  34.013   6.860  12.464
79555W        W51870  22.639  26.701   0.318
79556W        W51871  20.051  41.537  11.518
79557W        W51872  38.385  30.477   4.182
79558W        W51873   4.273  15.150   4.680
79559W        W51874  32.971  36.891  13.998
79560W        W51875  34.071  11.628   0.949
79561W        W51876  33.405  11.278   1.401
79562W        W51877  24.598  24.164   0.775
79563W        W51878  28.602  39.966  14.348
79564W        W51879  34.957   4.212  10.536
79565W        W51880  17.558   5.287  13.992
79566W        W51881  39.409  17.742  10.475
79567W        W51882   8.663  18.167  11.443
79568W        W51883   3.375   6.326  11.588
79569W        W51884  42.815  24.062  10.486
79570W        W51885  18.593  28.125  10.439
79571W        W51886  34.021   2.225  14.352
79572W        W51887  29.450  29.617  11.543
79573W        W51888  19.651   4.889   3.344
79574W        W51889   8.269  26.072  11.558
79575W        W51890  32.486  29.982   2.755
79576W        W51891  43.480  18.664   2.229
79577W        W51892  32.052  29.169   1.808
79578W        W51893  29.038  18.631  13.810
79579W        W51894  18.732   8.690   4.149
79580W        W51895  32.526  33.621   1.361
79581W        W51896  13.724  44.849  14.404
79582W        W51897  42.290  20.573   0.752
79583W        W51898  14.225  20.715   0.431
79584W        W51899  10.241  35.090   0.284
79585W        W51900   5.299  26.126  10.638
79586W        W51901   9.692   9.247   1.811
79587W        W51902   2.272  25.214   9.999
79588W        W51903  30.597  30.577  13.349
79589W        W51904  44.996  23.727  11.913
79590W        W51905  22.519   1.477   4.600
79591W        W51906  40.333  40.520   2.858
79592W        W51907  27.118   9.679   4.219
79593W        W51908  28.459  15.762  10.494
79594W        W51909   4.299  10.305  14.346
79595W        W51910  12.638  30.155   4.190
79596W        W51911  43.900  26.470  14.368
79597W        W51912  44.477  10.303  13.959
79598W        W51913  20.162  27.965  11.941
79599W        W51914  16.148  26.520   0.285
79600W        W51915  19.082  27.500   0.853
79601W        W51916  33.070  14.600   3.854
79602W        W51917  10.809  44.495  11.441
79603W        W51918  26.182  31.054   0.430
79604W        W51919  15.179  19.697  13.858
79605W        W51920  38.835  25.692   3.274
79606W        W51921  44.456  41.366   0.265
79607W        W51922  33.530   4.249   3.239
79608W        W51923   3.221  27.530  11.484
79609W        W51924  23.123  43.486  13.430
79610W        W51925  24.222  22.667  14.874
79611W        W51926  25.148  19.541  12.917
79612W        W51927  32.068  23.570   4.196
79613W        W51928  38.369  37.400   2.696
79614W        W51929  23.544  42.836   1.390
79615W        W51930   8.309  29.096   2.244
79616W        W51931  40.387  29.977   0.897
79617W        W51932  15.688   1.258   3.221
79618W        W51933   8.235  32.918  11.916
79619W        W51934  15.646  28.435  13.451
79620W        W51935  42.326  25.490   4.750
79621W        W51936  44.357  18.725   0.326
79622W        W51937  12.123  24.148  12.497
79623W        W51938  42.912   2.759  14.004
79624W        W51939  16.173   3.395  11.589
79625W        W51940  41.868  43.392   2.370
79626W        W51941   7.857  31.940   1.883
79627W        W51942  19.148   7.334   5.151
79628W        W51943  28.184  18.275  11.424
79629W        W51944  30.153  21.749  11.410
79630W        W51945  19.146  28.662  13.481
79631W        W51946  37.524   3.900  13.941
79632W        W51947  39.347  41.444   0.283
79633W        W51948   9.193  42.964   3.331
79634W        W51949  36.868  30.602   1.931
79635W        W51950  11.832  25.558   0.402
79636W        W51951   3.924  39.957   4.161
79637W        W51952  39.028  37.440  13.951
79638W        W51953  43.507  21.659   0.819
79639W        W51954   5.283  16.159   0.282
79640W        W51955  39.917  31.458  14.914
79641W        W51956  39.512  32.963   3.327
79642W        W51957   3.737  16.634   3.188
79643W        W51958  43.302  28.955   0.367
79644W        W51959   9.873   3.758   4.286
79645W        W51960  29.656  15.247   2.384
79646W        W51961   3.714  44.766   4.230
79647W        W51962  39.000  28.577   1.263
79648W        W51963  30.489  32.053  12.886
79649W        W51964  35.063  40.797   0.425
79650W        W51965  12.844  26.979   5.171
79651W        W51966  38.397   4.353   1.229
79652W        W51967  29.470  23.123   2.863
79653W        W51968  37.456   1.962   2.216
79654W        W51969   9.303  25.006   4.771
79655W        W51970  40.347  17.667  10.642
79656W        W51971  23.526  44.969  12.567
79657W        W51972  36.576  23.060  11.990
79658W        W51973  30.522  31.449  14.849
79659W        W51974  42.296  10.824   3.357
79660W        W51975   1.795   2.465   0.883
79661W        W51976  38.503  34.471  14.973
79662W        W51977  40.878   8.279  11.078
79663W        W51978  18.267  11.792   0.449
79664W        W51979  16.207  41.838   3.629
79665W        W51980  41.457  27.981  14.807
79666W        W51981  23.084   2.836   2.783
79667W        W51982  15.588  26.966   0.459
79668W        W51983  24.073  15.709  14.436
79669W        W51984  33.607  34.424  14.809
79670W        W51985   2.833  43.351   3.174
79671W        W51986  27.584   7.358  14.475
79672W        W51987   8.279  22.690   0.323
79673W        W51988  25.657  44.901   3.343
79674W        W51989   1.368  29.462   1.248
79675W        W51990  26.983  14.248  11.973
79676W        W51991   2.840  17.611  13.386
79677W        W51992  21.195  21.687   0.773
79678W        W51993  26.637   1.760   3.286
79679W        W51994  11.372  39.857  12.882
79680W        W51995  17.609   1.837   3.729
79681W        W51996  14.823  29.004   1.806
79682W        W51997  30.082  40.460  12.881
79683W        W51998  11.354   7.853   3.795
79684W        W51999   1.801   1.444  11.858
79685W        W52000  14.692  38.001   4.213
79686W        W52001  38.359  35.364   0.863
79687W        W52002   3.337  41.456  11.477
79688W        W52003  18.293  30.612  11.557
79689W        W52004   5.431  11.152   1.427
79690W        W52005  18.568  15.585  14.882
79691W        W52006   3.272  42.410  12.886
79692W        W52007  27.513   8.177   1.837
79693W        W52008  20.587   7.734   2.820
79694W        W52009  20.215  14.253  14.790
79695W        W52010  27.943  16.201   9.923
79696W        W52011  31.623  21.737  12.516
79697W        W52012   3.460  13.219   5.256
79698W        W52013   0.887  23.061  11.416
79699W        W52014   5.752  31.487  12.985
79700W        W52015  32.969  32.930   0.895
79701W        W52016  44.452  37.447   1.370
79702W        W52017  31.433  14.627  14.837
79703W        W52018  42.403  16.729   4.697
79704W        W52019   0.867  44.931   3.811
79705W        W52020  42.487  35.497  11.102
79706W        W52021  30.952  37.936   3.332
79707W        W52022  31.006  19.736   4.157
79708W        W52023  18.713  11.297   3.195
79709W        W52024  33.415  42.468   2.821
79710W        W52025  13.276  18.703  10.085
79711W        W52026  41.525  11.212   3.240
79712W        W52027  36.373  25.162  11.856
79713W        W52028  33.007   0.438  13.044
79714W        W52029  18.744  22.523  12.965
79715W        W52030  38.026  17.161  12.411
79716W        W52031   7.243  16.677  11.119
79717W        W52032  23.694  33.890  10.531
79718W        W52033  41.027  44.275  11.387
79719W        W52034  30.156  35.882   4.351
79720W        W52035  40.397  11.736   4.334
79721W        W52036  38.431  34.506   4.624
79722W        W52037  29.087  17.120   0.426
79723W        W52038  35.495  10.716   0.939
79724W        W52039  33.913  14.100   3.745
79725W        W52040  39.893  27.493  10.531
79726W        W52041  36.358  27.043   0.809
79727W        W52042  11.721  19.713   1.851
79728W        W52043  44.903   4.924  14.394
79729W        W52044  39.007  44.931  11.602
79730W        W52045   9.287  23.508   2.664
79731W        W52046  31.136  10.856   1.794
79732W        W52047  14.161  16.624  11.082
79733W        W52048  14.255  44.807  10.508
79734W        W52049   8.194  20.148   3.293
79735W        W52050   8.400  31.457   0.434
79736W        W52051  26.561  43.417  11.994
79737W        W52052  40.895  39.848  11.953
79738W        W52053  29.084  13.751   4.242
79739W        W52054  21.714  22.050  11.896
79740W        W52055  39.049   5.893   1.330
79741W        W52056   2.778  37.019   3.242
79742W        W52057  26.962  28.675  13.338
79743W        W52058  34.375  40.838   4.832
79744W        W52059   7.725  29.582   1.215
79745W        W52060  15.622  31.552   0.281
79746W        W52061   0.754  30.022  10.411
79747W        W52062  14.835   4.925  13.512
79748W        W52063  29.598  44.358   4.239
79749W        W52064   3.791  39.850   2.702
79750W        W52065   1.464  34.585  14.014
79751W        W52066  30.926  13.140  12.998
79752W        W52067  30.449  16.180   1.277
79753W        W52068  25.477  35.434   3.737
79754W        W52069  37.075  42.519  14.380
79755W        W52070  12.708  16.773   4.239
79756W        W52071   9.871  42.886   1.894
79757W        W52072  25.073  35.465  10.939
79758W        W52073  40.547  26.679  11.491
79759W        W52074  14.160   3.406  10.955
79760W        W52075   5.234  43.325   2.355
79761W        W52076  20.108  14.242  10.980
79762W        W52077  21.718   2.229  14.876
79763W        W52078  30.477   1.924   4.317
79764W        W52079  20.050   7.730   0.860
79765W        W52080  25.675  29.641   4.235
79766W        W52081  42.818  16.256   1.424
79767W        W52082  26.617  36.369  13.797
79768W        W52083  18.562  36.429   4.226
79769W        W52084  44.849   8.202  10.590
79770W        W52085  29.050   6.315   3.809
79771W        W52086   6.822   9.150   3.207
79772W        W52087   6.841  14.235   1.794
79773W        W52088   5.712  39.518  10.553
79774W        W52089  38.520  21.209   1.804
79775W        W52090   4.704  40.427  14.866
79776W        W52091  18.150  20.038  11.002
79777W        W52092  19.738  26.958  14.421
79778W        W52093  31.585   8.187   2.729
79779W        W52094   7.876   9.174  10.932
79780W        W52095  36.426  32.393  12.501
79781W        W52096   0.364  30.000  14.382
79782W        W52097  24.045  24.518   2.183
79783W        W52098   3.435   0.428  14.330
79784W        W52099   4.721  20.751   2.321
79785W        W52100  44.869  13.241  13.426
79786W        W52101   1.240  19.176  11.404
79787W        W52102  37.055   0.418   0.848
79788W        W52103  36.572  31.963   2.867
79789W        W52104  33.117  17.684  13.042
79790W        W52105   0.287  32.084  14.823
79791W        W52106  38.516  43.918   2.667
79792W        W52107  15.751  16.102  12.021
79793W        W52108  43.835  43.007  13.947
79794W        W52109  12.145  34.879  11.945
79795W        W52110  43.393  39.976   4.233
79796W        W52111   9.267  32.928  11.498
79797W        W52112   4.829  38.324   3.335
79798W        W52113  16.766   2.762   2.385
79799W        W52114   1.951  13.754   4.273
79800W        W52115   4.288  44.786   3.264
79801W        W52116  26.099  29.562   4.253
79802W        W52117  20.270   7.857   1.889
79803W        W52118  31.034  29.452   4.612
79804W        W52119  16.619  25.987  11.543
79805W        W52120  42.833  37.456   1.413
79806W        W52121  11.851  15.793  12.055
79807W        W52122   5.386   5.694   2.339
79808W        W52123  19.156  44.287   9.931
79809W        W52124   9.336   5.400   3.722
79810W        W52125  24.161   6.784  13.416
79811W        W52126   1.477  10.655  13.874
79812W        W52127  20.189  40.505   4.662
79813W        W52128  34.605   7.862  11.019
79814W        W52129  38.967  18.224  14.964
79815W        W52130  11.624  30.604   0.740
79816W        W52131  20.731  22.067  13.816
79817W        W52132  37.990   6.802  12.452
79818W        W52133  29.117  29.080  11.946
79819W        W52134  12.258  42.418  13.419
79820W        W52135   3.435  40.414   1.387
79821W        W52136   7.252  33.032  11.412
79822W        W52137  43.799  16.647   1.867
79823W        W52138  28.929  41.819   2.802
79824W        W52139  20.747  38.535  11.547
79825W        W52140  40.855   1.889   0.375
79826W        W52141  17.174  42.021   0.960
79827W        W52142   1.345   6.880  11.059
79828W        W52143  25.066  26.978  14.330
79829W        W52144  16.713  13.688   2.665
79830W        W52145   9.240  13.821   2.778
79831W        W52146  37.484  18.067  10.446
79832W        W52147  43.466  33.425  10.096
79833W        W52148  35.108   4.786  14.982
79834W        W52149   4.898  18.284   1.741
79835W        W52150  35.542  10.714   1.888
79836W        W52151  40.366  25.052   0.430
79837W        W52152   8.671  41.005  14.826
79838W        W52153   4.291  13.755   2.735
79839W        W52154   1.937  33.943   4.130
79840W        W52155   0.790  43.281   0.481
79841W        W52156  34.604  38.541  14.407
79842W        W52157  42.482  33.111   0.834
79843W        W52158  31.582  11.179   1.418
79844W        W52159   8.349  21.549   1.821
79845W        W52160  28.449  44.966  12.423
79846W        W52161  16.156  13.244   0.410
79847W        W52162  25.499  31.487  14.899
79848W        W52163  41.463  16.114  14.293
79849W        W52164  15.291  36.909  11.112
79850W        W52165  19.083  38.376   5.642
79851W        W52166  30.116   1.285  13.045
79852W        W52167  10.866   7.736  11.593
79853W        W52168  23.548  40.523  11.435
79854W        W52169  14.696  21.625  12.085
79855W        W52170   1.793   1.267   3.155
79856W        W52171   6.210  42.924  10.138
79857W        W52172   1.927  27.618  11.955
79858W        W52173  15.186  40.846   3.646
79859W        W52174  23.229  36.071   2.683
79860W        W52175  31.583  18.599  11.929
79861W        W52176  41.833  29.103  14.916
79862W        W52177  44.824  38.049   3.167
79863W        W52178  14.709  37.508  14.312
79864W        W52179  29.974   0.842  12.065
79865W        W52180  31.465  14.722   1.869
79866W        W52181  33.901  42.924   1.338
79867W        W52182   2.833  35.870  13.388
79868W        W52183  27.135  34.961  14.497
79869W        W52184  37.947  30.056   2.812
79870W        W52185   0.742  24.623  11.953
79871W        W52186  29.009  40.827  13.482
79872W        W52187  36.513  42.498   4.599
79873W        W52188  43.363  43.812  10.610
79874W        W52189  16.179  22.716  11.009
79875W        W52190  10.676  35.396  12.909
79876W        W52191  40.826   8.341   0.308
79877W        W52192  17.278  38.488   3.342
79878W        W52193  28.111  40.016  11.503
79879W        W52194   7.171   4.395  14.895
79880W        W52195  36.384   9.675   3.736
79881W        W52196  34.467   2.341  12.825
79882W        W52197  42.442  30.081  15.000
79883W        W52198   4.297  21.688  11.599
79884W        W52199   5.913  28.176  14.401
79885W        W52200  11.236  11.152  13.993
79886W        W52201   2.446  41.861  10.592
79887W        W52202   0.858  40.394  13.059
79888W        W52203  12.347  21.676  13.965
79889W        W52204  10.296   8.214   4.706
79890W        W52205  23.103  27.194  10.512
79891W        W52206  34.950   7.841   2.820
79892W        W52207  44.887  16.306   0.937
79893W        W52208   8.790  35.483  13.875
79894W        W52209  25.673  44.886   4.729
79895W        W52210  29.641  36.401  11.448
79896W        W52211  22.560  39.023   1.695
79897W        W52212  42.481  10.735  10.619
79898W        W52213  10.258  32.946  14.280
79899W        W52214  33.525  18.678   3.704
79900W        W52215  22.635  18.717   5.278
79901W        W52216  40.323  32.069   1.337
79902W        W52217  17.569  21.220  13.902
79903W        W52218  44.480  32.050   3.709
79904W        W52219  17.219  22.103   2.210
79905W        W52220  27.030  35.475   2.183
79906W        W52221  40.528  34.438   2.260
79907W        W52222  14.757  42.892   3.665
79908W        W52223  13.191  21.656  11.502
79909W        W52224  38.433  36.097   2.356
79910W        W52225  33.511  26.199   2.260
79911W        W52226  27.564   9.662  11.498
79912W        W52227   0.341  10.675  12.850
79913W        W52228  12.745  31.513   4.602
79914W        W52229  38.943  30.615   3.689
79915W        W52230   9.743  25.700   3.218
79916W        W52231  10.255  14.830   1.838
79917W        W52232  11.142  11.219   3.323
79918W        W52233   0.314  44.423   2.663
79919W        W52234  20.621  31.572  12.864
79920W        W52235  21.065  43.305   4.688
79921W        W52236  32.940  15.691  10.456
79922W        W52237  13.309  37.575   1.255
79923W        W52238  18.251  43.771   3.274
79924W        W52239   4.252  12.130   0.903
79925W        W52240   0.795  17.772   3.868
79926W        W52241  11.856  24.061  10.093
79927W        W52242  22.715  36.966   1.782
79928W        W52243  37.872  39.041   4.646
79929W        W52244  28.601  40.418   0.267
79930W        W52245  35.963  33.431  12.476
79931W        W52246  22.716  11.278   3.662
79932W        W52247   0.369  18.150  11.929
79933W        W52248  17.219  32.618   2.266
79934W        W52249  15.291  10.262  13.404
79935W        W52250  38.006  40.502  11.444
79936W        W52251  15.732  42.901   4.649
79937W        W52252  26.179   3.227   5.158
79938W        W52253  28.930  28.509   3.738
79939W        W52254   1.236  15.270  11.561
79940W        W52255  12.215  43.960  14.850
79941W        W52256  17.206  22.503   0.405
79942W        W52257  11.231  44.855  12.827
79943W        W52258  32.473  15.203   3.754
79944W        W52259   9.726   3.781  10.475
79945W        W52260  44.336  35.467  13.323
79946W        W52261  34.937  27.106  13.354
79947W        W52262   2.794  21.152   3.802
79948W        W52263   1.237  21.736   3.642
79949W        W52264  34.905  35.906  14.987
79950W        W52265  10.188  30.109   3.244
79951W        W52266  12.633  22.244   1.275
79952W        W52267  40.884   8.308  13.443
79953W        W52268  25.126  16.121  13.991
79954W        W52269  32.121  17.068  11.451
79955W        W52270  23.030   5.831  14.951
79956W        W52271   8.773  31.981  13.952
79957W        W52272  22.017   1.788  14.809
79958W        W52273  21.603   4.935  12.083
79959W        W52274  25.061   9.689  13.401
79960W        W52275  23.229   6.232  13.796
79961W        W52276  25.552   6.354   0.439
79962W        W52277   6.420  20.197   1.398
79963W        W52278  29.080  38.965   0.464
79964W        W52279   3.857   5.224   1.818
79965W        W52280   9.392  20.664  11.404
79966W        W52281  23.540  28.099  13.335
79967W        W52282  10.685  30.513   0.484
79968W        W52283  14.738  11.203   2.238
79969W        W52284   9.255   6.848   1.416
79970W        W52285  12.133  37.436   0.387
79971W        W52286  25.065  11.639   1.290
79972W        W52287  14.637  32.522   1.408
79973W        W52288  10.863  37.564   4.162
79974W        W52289   2.888   4.226   4.205
79975W        W52290   1.471   9.722   3.681
79976W        W52291  37.973   5.744   3.845
79977W        W52292   9.843   1.876   0.903
79978W        W52293  29.471  30.467  12.476
79979W        W52294  26.683  11.332  11.069
79980W        W52295   3.882  27.509   0.260
79981W        W52296  28.510  36.927  13.982
79982W        W52297   9.676  11.236   4.700
79983W        W52298   4.893   0.399   0.476
79984W        W52299  30.646  37.531  13.047
79985W        W52300  12.817  14.237   4.236
79986W        W52301   2.415  23.629   2.767
79987W        W52302   9.762  23.131  13.541
79988W        W52303   0.250  16.787   4.227
79989W        W52304   1.817  10.141   0.348
79990W        W52305   8.705  14.247   1.769
79991W        W52306  37.471   3.718  13.332
79992W        W52307  24.694   4.362   4.255
79993W        W52308  35.928  12.307  12.399
79994W        W52309  39.456  38.909   4.799
79995W        W52310  25.021  11.139   4.235
79996W        W52311  25.185  30.101  14.478
79997W        W52312  36.892  37.902   3.296
79998W        W52313  41.436  23.534   4.664
79999W        W52314  35.105  36.951  11.029
80000W        W52315  19.083  10.363   0.434
80001W        W52316   9.710  32.511   1.366
80002W        W52317  34.872   4.869  11.027
80003W        W52318  29.936  22.612  10.921
80004W        W52319   1.299  35.398  13.490
80005W        W52320  33.096  42.972  10.528
80006W        W52321  22.081  22.643  12.870
80007W        W52322  20.211   8.321   4.349
80008W        W52323  15.710  25.101   1.916
80009W        W52324  41.358   4.751  14.927
80010W        W52325  41.351  13.743  13.945
80011W        W52326   7.822  23.238   0.953
80012W        W52327  27.195   3.446  14.450
80013W        W52328   8.357  33.067   1.302
80014W        W52329   8.373  23.057  10.425
80015W        W52330   6.769  43.919   0.281
80016W        W52331  16.605  33.086  14.972
80017W        W52332   8.863  41.525  13.847
80018W        W52333  27.636   3.929   3.205
80019W        W52334   8.355  22.543  14.877
80020W        W52335  29.061  36.957   3.703
80021W        W52336  29.588  18.684  14.006
80022W        W52337  28.080  30.917   3.831
80023W        W52338  42.507   0.823  10.925
80024W        W52339  12.171  24.724  14.852
80025W        W52340  39.481  11.831  13.037
80026W        W52341  17.640   6.886  14.829
80027W        W52342  40.995  38.973   3.832
80028W        W52343  28.654  16.153  12.491
80029W        W52344  26.578  29.096  11.126
80030W        W52345  20.263  44.485   3.763
80031W        W52346  26.055  31.942   9.955
80032W        W52347   8.850  34.563   1.275
80033W        W52348   8.819  16.658  10.510
80034W        W52349  25.657   1.854  12.973
80035W        W52350  19.676  12.200  13.012
80036W        W52351   1.927  38.971  10.964
80037W        W52352  35.520  36.924   3.299
80038W        W52353  24.171  31.492  10.968
80039W        W52354  17.203  37.382  11.093
80040W        W52355   8.828   9.864  12.385
80041W        W52356  16.082  40.527   4.661
80042W        W52357  33.987  39.416   4.299
80043W        W52358  37.440  41.407   1.760
80044W        W52359  21.251  24.613  14.359
80045W        W52360  21.097  13.692  13.814
80046W        W52361  21.542  28.505  12.439
80047W        W52362  10.794  12.310  11.471
80048W        W52363   5.217  35.965  12.545
80049W        W52364   5.246  29.097  13.913
80050W        W52365  38.530  12.801   3.739
80051W        W52366  41.827   5.920   4.149
80052W        W52367   1.383  33.017   3.663
80053W        W52368  26.085  23.231  11.074
80054W        W52369  32.631  12.773   4.768
80055W        W52370   4.806  31.086  12.888
80056W        W52371  26.627  16.288  14.892
80057W        W52372  12.225  31.497   4.262
80058W        W52373  43.355   2.397  11.459
80059W        W52374  22.693  43.452  13.493
80060W        W52375   8.197  15.104  12.993
80061W        W52376  26.168   6.303  14.898
80062W        W52377  22.510  12.161  12.521
80063W        W52378  22.012  18.175   2.240
80064W        W52379   1.736  12.839  11.923
80065W        W52380  31.589  31.040   0.372
80066W        W52381  44.454  44.965  14.434
80067W        W52382  12.125  19.714   3.696
80068W        W52383  37.899   8.660  13.541
80069W        W52384   2.430  44.754  14.321
80070W        W52385  30.112  18.567  12.939
80071W        W52386   8.232  11.752   3.210
80072W        W52387   3.431  28.546   3.647
80073W        W52388  22.102  15.786   1.834
80074W        W52389  42.786   3.847   0.930
80075W        W52390  14.255  22.747  14.426
80076W        W52391   6.427  14.094  10.637
80077W        W52392  10.213  24.498  11.606
80078W        W52393   0.332  25.549   2.247
80079W        W52394  42.783  28.661   2.781
80080W        W52395  18.619  24.516  12.021
80081W        W52396  39.019  32.487   2.273
80082W        W52397   1.294  41.486   0.309
80083W        W52398  25.506  18.061   0.295
80084W        W52399  34.983  28.543  13.833
80085W        W52400  44.994  31.640  11.954
80086W        W52401   1.479  12.730   4.630
80087W        W52402  32.094  40.351   5.222
80088W        W52403   6.371  11.358   0.357
80089W        W52404  19.103  41.466   4.286
80090W        W52405  43.412  11.164  12.455
80091W        W52406  38.485  39.500  11.945
80092W        W52407  33.482  10.335   0.732
80093W        W52408  39.015   4.908   3.256
80094W        W52409  33.383  16.739   2.273
80095W        W52410  15.814  31.589  12.920
80096W        W52411  24.114   7.831   4.666
80097W        W52412  16.789  22.159   3.210
80098W        W52413  13.601  25.218   2.753
80099W        W52414  20.743   0.759  10.454
80100W        W52415   9.239  25.630   2.255
80101W        W52416  33.434  10.279  12.570
80102W        W52417  27.025  34.976   3.288
80103W        W52418  36.391  33.446   5.310
80104W        W52419  19.215  10.641  14.950
80105W        W52420  36.982   3.217   1.791
80106W        W52421  32.959   3.740   0.751
80107W        W52422  27.574   6.827   0.852
80108W        W52423  37.907  31.912   2.250
80109W        W52424  11.237  28.068   3.771
80110W        W52425   3.221   5.319  10.455
80111W        W52426  12.745  22.009  14.947
80112W        W52427  32.128   9.796  13.436
80113W        W52428  12.613  38.522   3.845
80114W        W52429  10.783  16.218  13.904
80115W        W52430  22.703   7.781   4.236
80116W        W52431  33.489  44.998  14.979
80117W        W52432  38.839  40.875  13.916
80118W        W52433   3.899  13.745   2.839
80119W        W52434   4.734  15.692  14.031
80120W        W52435   7.375  14.101  12.061
80121W        W52436   2.316  40.359  12.985
80122W        W52437  32.397  33.994  14.794
80123W        W52438  27.610  30.002   3.281
80124W        W52439  19.596  20.080  13.896
80125W        W52440  19.144  25.533  12.368
80126W        W52441  28.006  42.827  13.492
80127W        W52442  35.540  18.170   3.680
80128W        W52443  26.120  27.508  14.802
80129W        W52444  44.995  10.359   4.802
80130W        W52445   4.823  20.660  14.384
80131W        W52446  10.239  22.145   3.194
80132W        W52447  31.964  40.851  10.513
80133W        W52448   0.369  43.401  11.508
80134W        W52449  14.246  18.235   0.964
80135W        W52450  33.584  42.985  13.059
80136W        W52451  23.593   1.960  14.784
80137W        W52452  37.378   7.809  11.042
80138W        W52453  12.711  26.490   4.779
80139W        W52454  42.511  11.645   3.175
80140W        W52455  29.668  43.293  11.867
80141W        W52456   3.422   1.467   3.742
80142W        W52457  10.190   2.247  13.817
80143W        W52458  25.091  24.113   1.401
80144W        W52459  18.565  29.172  10.017
80145W        W52460   9.181  35.935  10.636
80146W        W52461  19.077  40.352  13.485
80147W        W52462   1.739  34.977  11.973
80148W        W52463  13.668  30.609   1.373
80149W        W52464  31.074   2.760  12.450
80150W        W52465   2.283  20.221   0.268
80151W        W52466  38.538  17.260  14.374
80152W        W52467  23.705   9.868  13.324
80153W        W52468  14.608  33.057  11.421
80154W        W52469   9.165  14.824   0.783
80155W        W52470  30.038  36.984  11.417
80156W        W52471  11.727  35.491  11.083
80157W        W52472  40.419   8.826   1.439
80158W        W52473  27.090  33.478   2.246
80159W        W52474   9.368  34.493  13.017
80160W        W52475  31.901  13.191   2.838
80161W        W52476  34.455   7.861  12.470
80162W        W52477  34.985  33.987   4.651
80163W        W52478  33.927  13.286  13.986
80164W        W52479  36.483   0.858   1.716
80165W        W52480  18.599  34.543   2.714
80166W        W52481  20.198  28.038   1.809
80167W        W52482  10.745  37.428  14.324
80168W        W52483  39.901  26.988  12.926
80169W        W52484  33.021  13.747  11.395
80170W        W52485   5.725  24.517  13.367
80171W        W52486   8.726  17.658   3.216
80172W        W52487  33.552  11.801   4.752
80173W        W52488   1.242  33.037  13.381
80174W        W52489   3.333  16.790  10.991
80175W        W52490   3.401   9.313   2.200
80176W        W52491   5.320  36.424   2.183
80177W        W52492  26.098  39.903  10.436
80178W        W52493  29.574  34.396   2.821
80179W        W52494  27.157  32.522   9.922
80180W        W52495  35.890   6.343   3.276
80181W        W52496  33.064  10.363  12.995
80182W        W52497   8.742  43.986   2.685
80183W        W52498  31.984   6.325   1.337
80184W        W52499  32.487  28.499  14.296
80185W        W52500   7.344   3.226   4.277
80186W        W52501  41.036   3.713   0.254
80187W        W52502  11.831  29.124  14.446
80188W        W52503  26.030   4.707   5.117
80189W        W52504  28.974  31.552  10.470
80190W        W52505   7.314   6.851  13.415
80191W        W52506  20.166  14.291   2.853
80192W        W52507  27.619   7.360  14.996
80193W        W52508  36.088  26.158  12.449
80194W        W52509   3.423  15.213  14.467
80195W        W52510  35.538   0.472  11.529
80196W        W52511  23.678  36.844   4.633
80197W        W52512  29.050  30.957   1.399
80198W        W52513  33.940  29.611  13.976
80199W        W52514  15.162  17.156   3.685
80200W        W52515  20.707  23.605  12.964
80201W        W52516  44.409  30.057   0.295
80202W        W52517  19.693  21.227  11.591
80203W        W52518  37.369  23.617  11.444
80204W        W52519  27.130  32.089  14.778
80205W        W52520   1.958  44.815   1.364
80206W        W52521  12.746  22.022   4.724
80207W        W52522   1.409  16.277   0.389
80208W        W52523  24.226  11.789   2.325
80209W        W52524   3.412  38.992   0.242
80210W        W52525   6.261  32.128   3.710
80211W        W52526  12.297  37.431  10.897
80212W        W52527   4.234  31.632  13.367
80213W        W52528  31.509  32.636  12.577
80214W        W52529  44.397  33.990   1.761
80215W        W52530  31.966  35.423   0.833
80216W        W52531  19.127   7.181  13.477
80217W        W52532  18.103  12.139   0.481
80218W        W52533  41.538  22.202   4.294
80219W        W52534  36.548  22.163  13.966
80220W        W52535   5.750  30.543   3.294
80221W        W52536  31.470  21.540   0.295
80222W        W52537  31.930   9.696   1.784
80223W        W52538  38.843   6.710  14.965
80224W        W52539  32.390  10.785  10.454
80225W        W52540   0.916  33.080  13.540
80226W        W52541  27.473  11.141  11.998
80227W        W52542  13.261  41.292   0.759
80228W        W52543   7.718  23.600   3.807
80229W        W52544  10.258  29.929   4.266
80230W        W52545  33.525  39.034   0.891
80231W        W52546   4.778   8.175   3.281
80232W        W52547  27.048  33.430   1.891
80233W        W52548  38.038   9.349  11.019
80234W        W52549  18.620   0.442  11.947
80235W        W52550  28.047  18.623  11.528
80236W        W52551  43.794  39.032  10.039
80237W        W52552  41.886  37.874   1.271
80238W        W52553  25.520  15.149   0.273
80239W        W52554   0.490   2.902   3.683
80240W        W52555  38.972  23.723   9.676
80241W        W52556  35.992   2.465  13.485
80242W        W52557   4.449  37.996  13.892
80243W        W52558  44.814  13.295  12.476
80244W        W52559   1.405   4.803  13.925
80245W        W52560   5.902  19.252  14.278
80246W        W52561  42.334  33.032  10.997
80247W        W52562  28.002  23.662   4.189
80248W        W52563  12.320   9.829  14.970
80249W        W52564  41.431  32.525   1.705
80250W        W52565   8.719  28.640   3.171
80251W        W52566  24.581   1.397  11.126
80252W        W52567  43.788  32.451  11.027
80253W        W52568  16.777  26.703   0.337
80254W        W52569   1.411  28.450  14.996
80255W        W52570  38.397  11.819  14.478
80256W        W52571   0.347  43.980   2.715
80257W        W52572  23.173  16.593   4.354
80258W        W52573  28.538  19.121   0.898
80259W        W52574  38.907  15.192   3.205
80260W        W52575  14.795   4.715  12.518
80261W        W52576  20.030   4.314  14.031
80262W        W52577  33.046   3.754  11.993
80263W        W52578  25.970  22.679   0.798
80264W        W52579  19.612   3.855  10.946
80265W        W52580  39.404  36.900   2.315
80266W        W52581  44.354  15.610   5.138
80267W        W52582  35.600  26.672   3.368
80268W        W52583   7.340  26.061   0.755
80269W        W52584  10.765  21.041  11.588
80270W        W52585  28.480   5.800  13.818
80271W        W52586  18.113  38.483  12.526
80272W        W52587  32.086  43.806   3.234
80273W        W52588  16.099   7.289   4.784
80274W        W52589  36.006  35.079   0.931
80275W        W52590  44.841  42.952  13.030
80276W        W52591  43.489  11.799  12.054
80277W        W52592  25.060  10.199   0.469
80278W        W52593   6.417  35.062  12.570
80279W        W52594   7.224  18.078   2.855
80280W        W52595  23.230  12.283  10.622
80281W        W52596   0.870  44.796  14.784
80282W        W52597  20.158  13.233   1.446
80283W        W52598  12.323   2.817   2.274
80284W        W52599  27.190   8.692   1.425
80285W        W52600  41.505  16.113   2.769
80286W        W52601  35.099  24.185   5.104
80287W        W52602  20.656  43.915  11.019
80288W        W52603  29.931  13.839  11.563
80289W        W52604  41.809  29.922   4.152
80290W        W52605  34.492  10.685   3.837
80291W        W52606  21.255  44.484  12.912
80292W        W52607   0.434  19.134   4.767
80293W        W52608  19.758  33.508  14.445
80294W        W52609  17.061  11.811   2.718
80295W        W52610  32.536   9.167  11.987
80296W        W52611  35.978  30.083  13.338
80297W        W52612   8.397   4.398   4.814
80298W        W52613  33.070   2.395   1.437
80299W        W52614  40.516  33.424  12.341
80300W        W52615   3.797  34.016   2.406
80301W        W52616  33.595  41.341  11.029
80302W        W52617  13.128   8.837   4.724
80303W        W52618  36.437   5.402  14.932
80304W        W52619  37.844  33.961   4.243
80305W        W52620   2.938  10.358  13.991
80306W        W52621  37.855  33.506  12.549
80307W        W52622  18.103  38.820   4.213
80308W        W52623   0.812  32.030   4.308
80309W        W52624  39.454  38.037   4.720
80310W        W52625  25.479  23.705   2.821
80311W        W52626  35.080   8.836   2.879
80312W        W52627  30.118   4.414   3.201
80313W        W52628  38.353  41.840  13.062
80314W        W52629  21.647  41.347   2.308
80315W        W52630  14.712  41.915  13.366
80316W        W52631   7.779  42.465   0.334
80317W        W52632  14.140  21.128  12.533
80318W        W52633  25.168   5.905  11.461
80319W        W52634  21.620  23.519   0.961
80320W        W52635  42.959  35.510   1.882
80321W        W52636   2.282  19.673  14.317
80322W        W52637  44.965  35.005   1.309
80323W        W52638  36.879  39.458  13.997
80324W        W52639  37.840   5.378  10.540
80325W        W52640  43.977  44.833   1.713
80326W        W52641  41.990  41.858  10.985
80327W        W52642  12.840  42.917  12.420
80328W        W52643  25.194  31.985  12.979
80329W        W52644   2.381   3.935   0.400
80330W        W52645  10.166  43.468   4.759
80331W        W52646   2.278  32.606   4.691
80332W        W52647   2.745  38.400  13.965
80333W        W52648  26.090   3.219  10.429
80334W        W52649  44.902  18.118   2.761
80335W        W52650  43.493  29.056   1.423
80336W        W52651  31.635   8.255   4.305
80337W        W52652  42.989  40.010   4.653
80338W        W52653  35.007  29.133  13.797
80339W        W52654  14.274   4.382   0.759
80340W        W52655  20.603  38.046   3.184
80341W        W52656  16.253  25.551   4.294
80342W        W52657   1.402  10.234   2.672
80343W        W52658   3.779  42.906   0.914
80344W        W52659   8.754  37.453   4.625
80345W        W52660   3.276  18.716   3.794
80346W        W52661  21.017  37.852  12.427
80347W        W52662  26.981  31.067   0.806
80348W        W52663  40.485  28.977   2.391
80349W        W52664   2.739  35.856   3.734
80350W        W52665  42.914  24.559  14.478
80351W        W52666  13.275  39.457   2.889
80352W        W52667  16.769  36.389   2.780
80353W        W52668  34.590   6.858   1.258
80354W        W52669  32.113  27.113   1.793
80355W        W52670  34.958  34.051  11.412
80356W        W52671  25.570  13.710   2.882
80357W        W52672  34.438  37.525  10.024
80358W        W52673  20.691  42.360   1.910
80359W        W52674   6.840   4.295   2.857
80360W        W52675  25.490  19.113  13.477
80361W        W52676  11.637  17.679   3.790
80362W        W52677  30.161  27.054  11.926
80363W        W52678  38.901  11.146  14.301
80364W        W52679  32.985   1.753   0.338
80365W        W52680  31.642  18.744   1.856
80366W        W52681  23.070   9.198   3.839
80367W        W52682   9.166   8.380   2.276
80368W        W52683  22.664  29.635  13.465
80369W        W52684  43.379  35.061   2.385
80370W        W52685   1.254  12.229   0.457
80371W        W52686  13.320  19.663  10.950
80372W        W52687  37.965  21.609  14.995
80373W        W52688   9.343  39.998  14.496
80374W        W52689  14.622  30.449  12.393
80375W        W52690  29.465  27.554  14.388
80376W        W52691   2.271   1.250  14.823
80377W        W52692  37.578  39.887  11.033
80378W        W52693   2.736  16.086   4.711
80379W        W52694  35.554  36.884  14.009
80380W        W52695  23.689  37.864  11.986
80381W        W52696  31.930  24.617   0.966
80382W        W52697  11.820  26.516   3.774
80383W        W52698  41.855  15.627  14.454
80384W        W52699  10.188   5.689   1.394
80385W        W52700  40.047  24.637  11.374
80386W        W52701  42.346  18.749   2.350
80387W        W52702  35.506  10.187  13.474
80388W        W52703   8.214  21.223  13.863
80389W        W52704   0.742  30.990   3.177
80390W        W52705  19.540   8.334   1.835
80391W        W52706  32.012  34.438   4.666
80392W        W52707  17.093  18.623   2.708
80393W        W52708  35.876  21.164  13.492
80394W        W52709  14.634  44.474  10.093
80395W        W52710   0.852  44.324  12.454
80396W        W52711  21.616  20.643   5.198
80397W        W52712  34.484   7.263   4.205
80398W        W52713   7.381  32.445  10.481
80399W        W52714  34.543  15.600   3.655
80400W        W52715   8.657  43.782  11.454
80401W        W52716  33.479  36.021   0.776
80402W        W52717   7.414  30.989  14.819
80403W        W52718  27.000  16.611  12.891
80404W        W52719  35.359  29.525   4.252
80405W        W52720  35.570  10.720   4.732
80406W        W52721  16.092   7.264   2.727
80407W        W52722  17.192   1.330   0.392
80408W        W52723  43.309   7.355  10.974
80409W        W52724  22.027  15.117   2.362
80410W        W52725  35.858  18.740   1.843
80411W        W52726  17.226  10.139   3.208
80412W        W52727  26.011  10.666  13.408
80413W        W52728  24.008  38.883  10.429
80414W        W52729  40.848  25.670  14.957
80415W        W52730  22.689  25.008  10.616
80416W        W52731   6.248  10.369   1.320
80417W        W52732  32.025   2.423   2.218
80418W        W52733  11.862  23.500   1.821
80419W        W52734  14.100   3.788   4.304
80420W        W52735  30.431  25.985  11.861
80421W        W52736  21.518  42.873   4.178
80422W        W52737  10.871  40.392  14.858
80423W        W52738  41.294   4.370  14.355
80424W        W52739  23.134   7.204   2.362
80425W        W52740  23.650  44.269   1.807
80426W        W52741  28.552  35.506  10.589
80427W        W52742  29.110  15.588   0.831
80428W        W52743   3.799  20.215  10.414
80429W        W52744  41.017   0.763  12.537
80430W        W52745  33.887  27.517   1.826
80431W        W52746  35.434  31.465   2.274
80432W        W52747  10.809  36.382   2.794
80433W        W52748  44.911  16.237  12.997
80434W        W52749  12.176  13.128   4.640
80435W        W52750   0.321  24.045   0.482
80436W        W52751   4.903  13.715  11.533
80437W        W52752  33.097   9.718   4.675
80438W        W52753   5.279   2.400   4.820
80439W        W52754  21.530   8.191   0.351
80440W        W52755  37.366  21.629  11.466
80441W        W52756  41.828   4.838  12.041
80442W        W52757  38.373  18.634  13.461
80443W        W52758  25.681  25.710  12.994
80444W        W52759  11.644  42.939   1.860
80445W        W52760  29.427  22.080   0.906
80446W        W52761  11.708   1.447   2.900
80447W        W52762  29.059  36.928   2.753
80448W        W52763  23.194  12.140  13.389
80449W        W52764  23.139  41.414  14.790
80450W        W52765  35.402  42.424   0.385
80451W        W52766  29.531  42.364   4.705
80452W        W52767  38.492  21.081   0.755
80453W        W52768  13.624  13.256  12.375
80454W        W52769   5.245  23.003  11.416
80455W        W52770  40.972   0.764   3.802
80456W        W52771  16.707   0.348  13.815
80457W        W52772  29.023  35.557   2.716
80458W        W52773  19.092  36.471   3.370
80459W        W52774  36.891   2.735   4.272
80460W        W52775  34.076   9.156   0.950
80461W        W52776  18.749  44.828   4.189
80462W        W52777  36.009   2.910  12.391
80463W        W52778  31.518  27.575   4.346
80464W        W52779  22.552   0.838   0.356
80465W        W52780  30.476   4.393  11.434
80466W        W52781  14.238  31.492   3.168
80467W        W52782  38.344  42.438  10.625
80468W        W52783   0.274  34.000   9.981
80469W        W52784  29.112  32.459   9.638
80470W        W52785   2.337   2.955   0.886
80471W        W52786  20.582   2.263   2.796
80472W        W52787  34.576  20.143  14.815
80473W        W52788  38.416  38.864   4.151
80474W        W52789  10.879  43.936   3.270
80475W        W52790  40.940   8.268  11.915
80476W        W52791   5.885  13.705   0.424
80477W        W52792  29.026   3.715   4.212
80478W        W52793  20.053   8.814   0.929
80479W        W52794  21.532  18.054  14.354
80480W        W52795  16.074  38.534   4.639
80481W        W52796  14.285  19.103   0.329
80482W        W52797  41.291  32.634   4.614
80483W        W52798  17.696  41.448   5.245
80484W        W52799  42.360  11.255  12.905
80485W        W52800  30.130  38.402   4.832
80486W        W52801   0.250  17.266  10.959
80487W        W52802  29.010  44.909  11.531
80488W        W52803  44.309  36.992   4.142
80489W        W52804  16.656  22.677   0.271
80490W        W52805  28.528  11.731   2.865
80491W        W52806   7.733  29.986   3.278
80492W        W52807   5.753  19.282  11.476
80493W        W52808  19.247  35.021  12.038
80494W        W52809   1.788  37.582   0.822
80495W        W52810  26.644  19.733   1.431
80496W        W52811  24.548  24.692  14.347
80497W        W52812  18.754   2.442  14.322
80498W        W52813  12.612  19.652  14.880
80499W        W52814   8.177  20.205   3.673
80500W        W52815  22.586   5.430   3.775
80501W        W52816  23.525  42.511  14.824
80502W        W52817  31.097  20.710   4.795
80503W        W52818  38.958  27.156  13.448
80504W        W52819   8.194  11.160   3.345
80505W        W52820  34.939  10.660  11.954
80506W        W52821   7.721  42.890  10.575
80507W        W52822   8.343   4.896  11.523
80508W        W52823  20.541   0.252   0.734
80509W        W52824   2.810  26.072   0.885
80510W        W52825  39.337  31.083   0.729
80511W        W52826   0.366   3.921   4.115
80512W        W52827   5.699   2.382  12.038
80513W        W52828  12.821  37.862  11.937
80514W        W52829  21.080  16.274  11.593
80515W        W52830  14.622  16.677   3.701
80516W        W52831  25.990  25.587   2.382
80517W        W52832  17.725  40.529   5.590
80518W        W52833  10.354  11.827  14.399
80519W        W52834  13.343  29.109   0.944
80520W        W52835   4.943  22.525   3.651
80521W        W52836  41.956  17.731  12.941
80522W        W52837  12.654  36.968   2.386
80523W        W52838   0.412  41.836  14.903
80524W        W52839   3.344  22.627  14.882
80525W        W52840  28.580  25.549  11.992
80526W        W52841  21.732  27.567  11.418
80527W        W52842   4.753  21.676   1.354
80528W        W52843  27.162  37.433   4.730
80529W        W52844  38.367  32.903   2.189
80530W        W52845  37.996  26.010   9.553
80531W        W52846  41.815  38.031  13.522
80532W        W52847  25.580  16.181   1.272
80533W        W52848   3.767  34.103   1.750
80534W        W52849  15.083  38.054  10.898
80535W        W52850   0.459   7.785   4.669
80536W        W52851   6.365  12.220   2.366
80537W        W52852  39.492  42.976  12.829
80538W        W52853  14.122  44.418   4.738
80539W        W52854   6.740  27.527  12.494
80540W        W52855  11.178  34.993  11.992
80541W        W52856  40.030  16.198  12.353
80542W        W52857  37.922  14.150   1.821
80543W        W52858   1.763  17.100  14.959
80544W        W52859  39.986  39.515  11.371
80545W        W52860  41.987  32.541  12.843
80546W        W52861  11.848  41.496  12.437
80547W        W52862  16.253  21.215   0.861
80548W        W52863  40.915  17.190   0.815
80549W        W52864  28.965  33.033   2.216
80550W        W52865   9.885   2.946  14.368
80551W        W52866  28.439  19.538   3.287
80552W        W52867  16.782  31.634   5.269
80553W        W52868  38.526  38.460   4.274
80554W        W52869  21.252  38.510   1.228
80555W        W52870   8.369  42.939   1.336
80556W        W52871  30.024  18.065   4.790
80557W        W52872  42.300  13.311   4.826
80558W        W52873  34.456  29.102  12.462
80559W        W52874  25.007  38.428   4.682
80560W        W52875   3.301  32.033   2.273
80561W        W52876  44.442  32.414   4.300
80562W        W52877  37.890  18.151   1.721
80563W        W52878  16.742  30.642  13.850
80564W        W52879  27.535  30.043   3.853
80565W        W52880  38.471  27.071   9.656
80566W        W52881  33.952  26.675  10.618
80567W        W52882  42.398  18.560  11.119
80568W        W52883  21.164  19.547   4.822
80569W        W52884  39.057   9.750   3.665
80570W        W52885  15.274  39.963   0.745
80571W        W52886  18.691   6.241  11.488
80572W        W52887   6.292  22.588   3.185
80573W        W52888  16.178  28.958   2.679
80574W        W52889  17.708  22.676   0.878
80575W        W52890  22.152  41.007  12.396
80576W        W52891  41.331  37.050  13.471
80577W        W52892  40.377   9.252   3.145
80578W        W52893   0.376  37.908  14.817
80579W        W52894  35.400  17.772   2.212
80580W        W52895  37.866   8.748  12.978
80581W        W52896  13.745  27.169   1.819
80582W        W52897   7.246  35.975  13.817
80583W        W52898  14.652  23.612  10.414
80584W        W52899  28.033  12.701  12.494
80585W        W52900  21.593  41.989  14.930
80586W        W52901   8.731   0.836   1.306
80587W        W52902   9.659  32.633  11.387
80588W        W52903  24.718  43.864  11.116
80589W        W52904  16.778   8.699  11.490
80590W        W52905  27.456  39.036   2.397
80591W        W52906  21.614  15.220  11.383
80592W        W52907  16.796  15.084   0.958
80593W        W52908  24.704  29.496   4.272
80594W        W52909  18.737  17.783  10.444
80595W        W52910  27.081  42.411  10.474
80596W        W52911  15.702   8.717  12.920
80597W        W52912  44.372  26.579   1.705
80598W        W52913  13.625  16.181  13.843
80599W        W52914  19.558  39.515  13.411
80600W        W52915  21.518  29.466  11.916
80601W        W52916  43.776  43.908  11.440
80602W        W52917  40.996  18.657  14.454
80603W        W52918  18.674  17.146  13.973
80604W        W52919  24.651  13.789   4.278
80605W        W52920  32.985   5.388   2.891
80606W        W52921   9.151  37.404  14.347
80607W        W52922  34.940  29.478   1.311
80608W        W52923  14.219  44.816  14.767
80609W        W52924  19.556  13.644   3.182
80610W        W52925   9.295   7.729   3.216
80611W        W52926  23.593   6.765   1.362
80612W        W52927  21.103   8.312  10.446
80613W        W52928  31.940  43.402  12.841
80614W        W52929  29.526  12.207  12.068
80615W        W52930  27.944   7.324   2.898
80616W        W52931   0.961  19.142   1.426
80617W        W52932  13.139  21.580  13.529
80618W        W52933  43.406  28.484   4.238
80619W        W52934  25.692  39.526   4.821
80620W        W52935   7.179   0.760   0.385
80621W        W52936  11.645  12.233   3.645
80622W        W52937  23.651  20.103  10.623
80623W        W52938  18.658   8.740  11.446
80624W        W52939   8.798  41.884  10.502
80625W        W52940  24.132  44.426  13.830
80626W        W52941  28.963  13.756  10.488
80627W        W52942  27.130  36.492  14.432
80628W        W52943  37.501  40.967   2.334
80629W        W52944   3.340  44.488  14.852
80630W        W52945   8.794   7.285  13.026
80631W        W52946   3.236  13.293  14.369
80632W        W52947   6.338   6.238   4.626
80633W        W52948   8.727  23.063   3.831
80634W        W52949  36.489   2.798   4.132
80635W        W52950  37.853  11.197   1.929
80636W        W52951  31.531   3.361   0.824
80637W        W52952   5.246   3.408   1.218
80638W        W52953  19.219  26.007  14.883
80639W        W52954  17.596  28.522  13.527
80640W        W52955  11.201  22.130  14.306
80641W        W52956   0.925  21.653   3.356
80642W        W52957  12.754  24.716   2.293
80643W        W52958  17.246  23.015   2.738
80644W        W52959  42.899  15.302  14.974
80645W        W52960   2.738  27.188   0.437
80646W        W52961   4.915  37.931  10.465
80647W        W52962   8.773  12.834  10.596
80648W        W52963  35.510  27.628  14.423
80649W        W52964  35.368  14.170   1.894
80650W        W52965  15.588  34.575   1.768
80651W        W52966  37.891   0.823   3.218
80652W        W52967  15.743  26.206   0.342
80653W        W52968  15.099   1.307  10.546
80654W        W52969  14.666  18.703  13.816
80655W        W52970  30.147  37.002   4.828
80656W        W52971  19.656  34.081  14.316
80657W        W52972   1.246   1.434   0.293
80658W        W52973   0.354  25.517   1.872
80659W        W52974  16.111   8.696  12.857
80660W        W52975   8.677  37.957   0.304
80661W        W52976  40.955  42.782   1.802
80662W        W52977   0.798  11.801  13.034
80663W        W52978  23.511   0.816   4.607
80664W        W52979  43.806   3.823  10.578
80665W        W52980  10.844   4.913  14.013
80666W        W52981  27.643   1.360   4.310
80667W        W52982  21.039  25.140  10.043
80668W        W52983  41.877  24.097  10.603
80669W        W52984  31.046  42.288   3.743
80670W        W52985   0.331  14.244  13.915
80671W        W52986   4.365   4.721  12.901
80672W        W52987  44.858  11.231   4.255
80673W        W52988   3.275   2.895  14.470
80674W        W52989  13.620  26.666   0.415
80675W        W52990  17.563  16.108  14.792
80676W        W52991  21.244  34.435   2.209
80677W        W52992  30.562  33.957   1.814
80678W        W52993  19.280  19.739  13.451
80679W        W52994   8.698  20.076   5.235
80680W        W52995  26.168  33.932   4.316
80681W        W52996  30.088  42.312   1.885
80682W        W52997  25.101  18.648  13.891
80683W        W52998   6.394  11.209  11.942
80684W        W52999   0.888  11.711  10.535
80685W        W53000   4.749  36.898  11.562
80686W        W53001  24.198  24.507   4.340
80687W        W53002  19.745  10.730   5.636
80688W        W53003  27.182  22.093   4.210
80689W        W53004  35.491  22.661   3.707
80690W        W53005  12.630  38.373  11.887
80691W        W53006   8.890  23.105   4.739
80692W        W53007  15.724  34.880   1.787
80693W        W53008  37.984   2.293  14.809
80694W        W53009  23.170   4.838   4.727
80695W        W53010  30.022  35.994   4.808
80696W        W53011  40.426  26.138  14.285
80697W        W53012  34.376  18.240   4.189
80698W        W53013  21.608   2.376  12.070
80699W        W53014   0.806  27.117  11.600
80700W        W53015  29.060   8.873   2.333
80701W        W53016  24.492  43.910  13.797
80702W        W53017  29.174  29.500   2.777
80703W        W53018   5.436   7.817   0.940
80704W        W53019  41.428  39.322  11.110
80705W        W53020  20.686  17.562   0.856
80706W        W53021   8.355  44.308   2.372
80707W        W53022  40.857   2.471   1.366
80708W        W53023  44.355  25.205   0.904
80709W        W53024  28.161  15.166   0.406
80710W        W53025  11.177  20.560   0.879
80711W        W53026  35.446  24.111   0.457
80712W        W53027  37.428  13.802   4.210
80713W        W53028  39.519  17.635   1.279
80714W        W53029  40.348  17.680   4.761
80715W        W53030   9.200  25.675   3.643
80716W        W53031  39.552  15.179  11.465
80717W        W53032  24.173  30.428  11.912
80718W        W53033  31.146   9.759   0.852
80719W        W53034  29.625  37.479  13.499
80720W        W53035  21.154   3.313   0.351
80721W        W53036   8.744   8.292   4.630
80722W        W53037   5.715  28.598   2.700
80723W        W53038   7.687   1.791   3.827
80724W        W53039   4.892  17.292  10.939
80725W        W53040  20.096  16.649  14.339
80726W        W53041  14.244  39.836  12.009
80727W        W53042   6.769  15.746  12.047
80728W        W53043  35.025   1.478  12.936
80729W        W53044  25.500  28.973  12.573
80730W        W53045  33.397  16.782   3.299
80731W        W53046  26.050  32.054   2.886
80732W        W53047   7.837   0.802   1.791
80733W        W53048  31.408   8.743  11.510
80734W        W53049  33.483  28.544  11.601
80735W        W53050  33.978   4.278   4.316
80736W        W53051  16.265  29.618   4.749
80737W        W53052   1.322  36.097   0.816
80738W        W53053  21.048   3.888   2.801
80739W        W53054   2.373  15.588  14.370
80740W        W53055  29.637  14.184  10.440
80741W        W53056  17.183  26.980   2.344
80742W        W53057   1.838   2.268  10.950
80743W        W53058   3.924  42.489  11.919
80744W        W53059  34.091  28.161  10.444
80745W        W53060  20.578  35.065  13.372
80746W        W53061  11.666  44.932  12.964
80747W        W53062  22.607  21.518   3.209
80748W        W53063  25.522   6.797   4.269
80749W        W53064  20.059  43.922  14.833
80750W        W53065  31.094  25.995   4.195
80751W        W53066  38.882   1.377   1.904
80752W        W53067  14.623  29.445  13.842
80753W        W53068   7.737  24.998   0.801
80754W        W53069  11.743  30.599   2.405
80755W        W53070  28.002   7.286   1.888
80756W        W53071  28.116  29.633  13.483
80757W        W53072  12.131   5.270   2.178
80758W        W53073  23.044   2.846  13.377
80759W        W53074   7.199  23.219  11.956
80760W        W53075  11.347   4.930  12.578
80761W        W53076  29.110  44.402   2.414
80762W        W53077  24.219  34.435   1.280
80763W        W53078  43.285   9.316   1.430
80764W        W53079   3.349  23.175   2.718
80765W        W53080   9.710  28.011  14.920
80766W        W53081  18.588  12.617   1.807
80767W        W53082  24.688  13.603   0.926
80768W        W53083  44.863  41.371  11.504
80769W        W53084  44.295  29.487   1.380
80770W        W53085  44.969  35.553  11.044
80771W        W53086  12.226  29.117   2.408
80772W        W53087   3.918   0.925  10.515
80773W        W53088  40.500   2.300  11.979
80774W        W53089  28.013   6.212  12.079
80775W        W53090  40.448  12.632  12.837
80776W        W53091  15.635   3.833   3.167
80777W        W53092  15.726  39.442  10.915
80778W        W53093  16.812  15.694   4.211
80779W        W53094  40.030  34.878   0.262
80780W        W53095  41.009  31.024  12.453
80781W        W53096  19.546   9.356   1.215
80782W        W53097  39.025  21.534   0.839
80783W        W53098  42.860  37.451   0.765
80784W        W53099   5.863  24.628  12.531
80785W        W53100  17.072  17.295   0.784
80786W        W53101  42.817   3.356   2.831
80787W        W53102  16.151  13.653   3.377
80788W        W53103  13.345  22.203   1.380
80789W        W53104  31.453  29.995   1.920
80790W        W53105  16.202  16.134   0.459
80791W        W53106  35.109   8.283   4.175
80792W        W53107  43.284   1.959   0.250
80793W        W53108   6.311   5.209  11.519
80794W        W53109  25.091  43.800   2.412
80795W        W53110   9.763  24.559  13.440
80796W        W53111  23.031  10.650  14.943
80797W        W53112  22.999  33.031   0.732
80798W        W53113  38.028  28.006   0.368
80799W        W53114  29.171  22.060  12.022
80800W        W53115  22.174   7.858  13.363
80801W        W53116  34.501  40.035   4.757
80802W        W53117  43.412   5.276   0.291
80803W        W53118  12.318  10.841   4.206
80804W        W53119  27.960  37.520   1.707
80805W        W53120  25.162  12.734  12.840
80806W        W53121  18.664  23.016  13.036
80807W        W53122  37.422   6.698  11.436
80808W        W53123  33.508  19.653   3.240
80809W        W53124  31.917  35.089   3.270
80810W        W53125  26.663  44.929   1.776
80811W        W53126   7.324   4.838   3.205
80812W        W53127  26.107  43.407  13.542
80813W        W53128   8.761  44.913  14.930
80814W        W53129  43.821  13.153   4.710
80815W        W53130  39.816  24.558  10.461
80816W        W53131  40.952  34.570  12.849
80817W        W53132  16.187  14.153  13.872
80818W        W53133  35.889  43.972  14.902
80819W        W53134  41.017  18.072   2.251
80820W        W53135   2.753  23.561   4.698
80821W        W53136  29.167   7.379   3.687
80822W        W53137  38.437  36.372   4.280
80823W        W53138  29.124  35.899   1.708
80824W        W53139   0.941  35.999  11.518
80825W        W53140  35.090  42.371   2.739
80826W        W53141  28.510  42.436   4.134
80827W        W53142  12.292  40.368  11.520
80828W        W53143  27.159   9.326  13.037
80829W        W53144   4.904  34.566   4.182
80830W        W53145   5.428  20.685   4.242
80831W        W53146  11.682  27.457  12.014
80832W        W53147  32.539  37.993  12.060
80833W        W53148   5.297   6.208  11.042
80834W        W53149  41.917  19.580   4.147
80835W        W53150   7.313  16.218  12.371
80836W        W53151  11.133  30.968  10.918
80837W        W53152  24.087  34.607   3.299
80838W        W53153   4.447   7.734  12.475
80839W        W53154  12.210  32.397   2.705
80840W        W53155  16.602   5.711   0.814
80841W        W53156  32.427   5.414   3.830
80842W        W53157  25.680  33.921   0.909
80843W        W53158  19.105  16.206   2.324
80844W        W53159   1.255  43.328  11.487
80845W        W53160  41.928   4.772  14.468
80846W        W53161  16.643  29.017  11.520
80847W        W53162  37.472  27.537   1.893
80848W        W53163  21.674  27.157   4.829
80849W        W53164  12.351  12.772   1.806
80850W        W53165   8.745  11.733   3.174
80851W        W53166   1.329   9.374  12.026
80852W        W53167  11.704   9.888  11.917
80853W        W53168  29.149  24.993  10.585
80854W        W53169  26.524  38.897   2.410
80855W        W53170  16.763   9.249   4.799
80856W        W53171  23.677  43.426   2.411
80857W        W53172  24.118  33.558   9.994
80858W        W53173  42.784  34.597   3.212
80859W        W53174  36.050  14.138   1.334
80860W        W53175  39.393  34.536  13.957
80861W        W53176  41.871  24.102   1.758
80862W        W53177   9.303  18.592  11.447
80863W        W53178  11.666  42.016   0.776
80864W        W53179  10.814  10.777  12.546
80865W        W53180  31.022   1.931  10.500
80866W        W53181  29.936  28.668   4.664
80867W        W53182  25.562  30.493   1.432
80868W        W53183  43.440  20.681   1.852
80869W        W53184  13.221  19.253  13.973
80870W        W53185  31.502   3.267  12.925
80871W        W53186  24.138  43.823  12.437
80872W        W53187  40.498   6.208  14.809
80873W        W53188   2.893  21.757  11.546
80874W        W53189  36.401   9.249   1.374
80875W        W53190  41.458  28.570  14.486
80876W        W53191   1.394  35.028   4.190
80877W        W53192  12.337   3.332   3.257
80878W        W53193  29.968  19.064  13.061
80879W        W53194   1.824  41.009   0.775
80880W        W53195  20.140  10.786  12.825
80881W        W53196  33.397  41.514  13.056
80882W        W53197  25.712  22.245   2.245
80883W        W53198   9.187  41.425  11.426
80884W        W53199  14.323  10.676  13.922
80885W        W53200  15.100   1.794   1.213
80886W        W53201   7.359  23.583   3.862
80887W        W53202  18.666  33.389   3.154
80888W        W53203  29.095   4.242   3.162
80889W        W53204   7.736  29.587  11.892
80890W        W53205   7.217  28.662  12.351
80891W        W53206  12.317  32.901  13.543
80892W        W53207  40.354  24.670  13.889
80893W        W53208  32.456  26.085  14.423
80894W        W53209  18.681  11.198   2.787
80895W        W53210  41.451   2.733  12.089
80896W        W53211  18.705  25.585  13.019
80897W        W53212   7.342  20.176  14.967
80898W        W53213   7.247  22.743  13.868
80899W        W53214  17.268  23.684   3.743
80900W        W53215  40.354  29.585  10.578
80901W        W53216  38.952  39.486   1.313
80902W        W53217  11.169  11.330  10.610
80903W        W53218  31.588  25.547   1.451
80904W        W53219   7.240  30.479   3.675
80905W        W53220  14.812   2.303   4.208
80906W        W53221  28.519  20.167  11.487
80907W        W53222  10.704  26.553  10.620
80908W        W53223  13.125  19.074   4.787
80909W        W53224  42.526  30.568  14.784
80910W        W53225  19.197  39.832  14.836
80911W        W53226  40.435   3.255   2.187
80912W        W53227  10.333   4.870   4.766
80913W        W53228   1.415  28.005   3.647
80914W        W53229  39.873  25.537   4.125
80915W        W53230  42.477  37.057  11.033
80916W        W53231  27.115  31.987   4.316
80917W        W53232  43.393   5.391  12.090
80918W        W53233   2.366   5.211   1.834
80919W        W53234  37.411  39.391  13.792
80920W        W53235   2.759   8.364  13.830
80921W        W53236  32.060   9.649   2.343
80922W        W53237   0.405  20.685  10.585
80923W        W53238  30.912  30.972   4.149
80924W        W53239  29.991  14.335  11.092
80925W        W53240  16.185  39.827  12.913
80926W        W53241  28.184  44.274   0.421
80927W        W53242  18.573  20.087   0.827
80928W        W53243  17.278  15.615   3.690
80929W        W53244  10.247  13.331   1.732
80930W        W53245  11.673   2.778  10.417
80931W        W53246  17.757  32.934   3.328
80932W        W53247  16.757   8.828   2.816
80933W        W53248  18.122  10.833   4.667
80934W        W53249  14.756  13.232   0.482
80935W        W53250  29.634   3.924   0.274
80936W        W53251  13.268  27.469   1.847
80937W        W53252  28.002  42.517  14.012
80938W        W53253   2.782  40.316   3.639
80939W        W53254  28.594   3.394   0.753
80940W        W53255  30.497   4.933  12.515
80941W        W53256  32.105  30.479  10.524
80942W        W53257   4.422  28.061   4.609
80943W        W53258  35.493  43.403   3.835
80944W        W53259  39.507   1.803   4.778
80945W        W53260  39.360  29.582  13.926
80946W        W53261  24.116  12.163   2.804
80947W        W53262  39.418  28.001  10.446
80948W        W53263  10.219  13.269  14.018
80949W        W53264  10.685  39.415   4.782
80950W        W53265   8.198  20.182   2.188
80951W        W53266  26.147  43.019   1.827
80952W        W53267  39.411  25.565  11.612
80953W        W53268  18.761  25.533  12.579
80954W        W53269  37.004  22.676   4.113
80955W        W53270  23.691  29.434   4.257
80956W        W53271  17.075   4.217  14.439
80957W        W53272   2.812  22.021  14.850
80958W        W53273  39.818  11.262   4.184
80959W        W53274  23.667  34.980  11.519
80960W        W53275  20.083  26.204  13.799
80961W        W53276  11.631  15.636  14.929
80962W        W53277  38.834  11.177  12.992
80963W        W53278   1.389  13.762   2.245
80964W        W53279  26.553  16.781   3.669
80965W        W53280  19.562   0.800  10.453
80966W        W53281  10.249   4.865  13.544
80967W        W53282  38.399   6.767   2.338
80968W        W53283   5.246   6.757  11.478
80969W        W53284   9.382  16.804  13.823
80970W        W53285   5.711   9.249   2.419
80971W        W53286  14.218  31.134   3.774
80972W        W53287  30.073  25.136   2.200
80973W        W53288  30.010  22.123  11.401
80974W        W53289  37.013  24.547   1.735
80975W        W53290  18.151  31.996   1.733
80976W        W53291   0.469  31.591   3.648
80977W        W53292  34.405   9.316  14.353
80978W        W53293  35.897  27.582  14.378
80979W        W53294  42.881  38.539   2.739
80980W        W53295   9.364   9.669  12.538
80981W        W53296  22.702  32.097  14.363
80982W        W53297   1.318   2.368  10.907
80983W        W53298  28.083  31.031  12.840
80984W        W53299   9.800  21.577  11.375
80985W        W53300   3.818  30.551   2.332
80986W        W53301   9.257  38.979  14.401
80987W        W53302  27.557  24.153  12.034
80988W        W53303   8.793  33.997  10.447
80989W        W53304  35.530   2.435   1.798
80990W        W53305  11.129  22.625  10.642
80991W        W53306  28.116   4.280  14.515
80992W        W53307  43.339  36.914   1.718
80993W        W53308  10.808  43.431  11.031
80994W        W53309  43.854  22.997   4.308
80995W        W53310  13.316  35.889   4.699
80996W        W53311  35.439  35.984  13.991
80997W        W53312  29.963  29.582  14.805
80998W        W53313  10.780  40.427  11.582
80999W        W53314  38.958  44.992  11.127
81000W        W53315  35.406  17.555   3.183
81001W        W53316  14.646  40.507  10.467
81002W        W53317   8.665  42.424   1.246
81003W        W53318  29.512  44.881  12.018
81004W        W53319  28.512  28.522  13.356
81005W        W53320  19.623  37.896   0.909
81006W        W53321   7.762  32.563   3.662
81007W        W53322  42.366   6.202  12.993
81008W        W53323   5.763  18.675  10.568
81009W        W53324   6.902  39.387   0.265
81010W        W53325  37.560  33.583   3.293
81011W        W53326  30.068  19.572  10.604
81012W        W53327  42.938  12.344   4.305
81013W        W53328  40.373   3.749   3.230
81014W        W53329  17.098  30.616   2.412
81015W        W53330  39.430  15.217  12.082
81016W        W53331  35.489  37.970   0.252
81017W        W53332   4.899   1.471  11.564
81018W        W53333  36.037   3.440  12.037
81019W        W53334  19.615  24.022  13.054
81020W        W53335   3.263   7.324   4.165
81021W        W53336  14.644  44.978   0.796
81022W        W53337  18.722  18.179  13.392
81023W        W53338   1.283  34.914   1.426
81024W        W53339   4.346  23.220   2.369
81025W        W53340  33.592   3.431  11.950
81026W        W53341  12.771  44.971   0.820
81027W        W53342  42.356   1.960   2.831
81028W        W53343  36.509  13.256   9.975
81029W        W53344  21.160  37.966  13.492
81030W        W53345  26.694  27.683  13.989
81031W        W53346  14.765  38.028   1.788
81032W        W53347   5.867  40.031  12.908
81033W        W53348  29.463  10.156  11.071
81034W        W53349   5.782  20.257   3.696
81035W        W53350   2.425  28.145   5.308
81036W        W53351  37.895   2.751  13.478
81037W        W53352   7.845   5.804  13.928
81038W        W53353  25.154  43.298   2.256
81039W        W53354  20.599  29.105   0.370
81040W        W53355  40.014  30.143   4.807
81041W        W53356   4.791  42.957  12.973
81042W        W53357  27.647   0.458   3.301
81043W        W53358   8.245  29.080  13.501
81044W        W53359   1.873  44.325   1.818
81045W        W53360  44.397  21.637  10.902
81046W        W53361  29.079  29.498  12.967
81047W        W53362  31.587  27.478   0.826
81048W        W53363  15.201  25.677  13.812
81049W        W53364   2.849  30.101   4.130
81050W        W53365  16.701  39.908   2.737
81051W        W53366  22.578  28.934   0.861
81052W        W53367  25.567  22.163  14.927
81053W        W53368  32.568  25.011  11.878
81054W        W53369  13.736  16.217  11.602
81055W        W53370  29.958  43.355   0.326
81056W        W53371  15.810  21.735  11.050
81057W        W53372  40.367  43.280   2.780
81058W        W53373  15.582  44.457  13.802
81059W        W53374   8.175  32.907   2.873
81060W        W53375  40.850  39.315  14.975
81061W        W53376  37.346  30.508   1.237
81062W        W53377  39.397  17.652  10.888
81063W        W53378   2.262   4.711   5.228
81064W        W53379  17.632  10.835  13.402
81065W        W53380  19.215  22.143  13.478
81066W        W53381   8.350  18.553  13.371
81067W        W53382  11.218  13.211  10.621
81068W        W53383  24.719  43.385   4.306
81069W        W53384  27.154  40.487  11.990
81070W        W53385  11.214  34.082   4.277
81071W        W53386  40.538  23.546   0.826
81072W        W53387  25.129   5.332  13.480
81073W        W53388  14.700   9.227  14.476
81074W        W53389   5.755  39.923   4.238
81075W        W53390  25.017  30.604   3.706
81076W        W53391  38.912  33.001  11.013
81077W        W53392   2.237  35.425  10.919
81078W        W53393  27.453  27.454   1.281
81079W        W53394  26.058  11.172   3.706
81080W        W53395   1.753  20.170  14.904
81081W        W53396  23.713  19.284   9.988
81082W        W53397  13.694  15.723  10.644
81083W        W53398  10.230   7.825   4.793
81084W        W53399  14.826  29.504  14.482
81085W        W53400  25.690  25.678  14.002
81086W        W53401  26.526  44.435   1.386
81087W        W53402  44.504  30.085   2.873
81088W        W53403  31.583   0.440  10.525
81089W        W53404   8.307  32.600   4.129
81090W        W53405  35.439  34.481  14.887
81091W        W53406  14.117  33.598  14.877
81092W        W53407  24.649  36.480   1.704
81093W        W53408  26.649   0.493   0.756
81094W        W53409   9.352  36.578  11.078
81095W        W53410   6.323  13.709  10.973
81096W        W53411  12.270  21.119   0.927
81097W        W53412   4.344  14.107   2.845
81098W        W53413   6.768  29.545  13.326
81099W        W53414  25.182   7.334   4.129
81100W        W53415  41.006   1.858   4.640
81101W        W53416  39.409  40.393   0.276
81102W        W53417  37.445  29.567   4.192
81103W        W53418   2.294   3.396   3.289
81104W        W53419  13.604   9.786   4.165
81105W        W53420   2.886  12.349  14.300
81106W        W53421  23.002   5.369  12.961
81107W        W53422  22.722  19.182  12.406
81108W        W53423  15.582   7.778   0.370
81109W        W53424   1.731  20.639   2.269
81110W        W53425   7.842   0.418  13.983
81111W        W53426  23.097  29.041   2.839
81112W        W53427  20.274   7.684   3.717
81113W        W53428  44.871  31.503  13.345
81114W        W53429  42.812  14.659   4.750
81115W        W53430  33.541  29.502   2.413
81116W        W53431  28.040  25.122  14.876
81117W        W53432   8.708  18.672  12.552
81118W        W53433  34.115   5.277   3.839
81119W        W53434  44.423   0.834   2.692
81120W        W53435  42.936  27.100   4.312
81121W        W53436  33.887   3.778  12.357
81122W        W53437  42.520  22.108   4.763
81123W        W53438  39.538  23.691   3.165
81124W        W53439  29.074  18.555  13.346
81125W        W53440   7.368  22.222  11.434
81126W        W53441  21.542  16.073  12.896
81127W        W53442  42.502  31.451  11.887
81128W        W53443   1.773  29.131   3.309
81129W        W53444  28.178  38.826  11.552
81130W        W53445  26.695  42.489  13.962
81131W        W53446  12.353  41.905   2.223
81132W        W53447  31.484  13.251   1.214
81133W        W53448  33.398  16.609   3.766
81134W        W53449  26.518  38.885   1.377
81135W        W53450  18.103  26.154   4.161
81136W        W53451  17.070  21.217   0.863
81137W        W53452  20.112  21.129   0.390
81138W        W53453  35.927  22.642   0.771
81139W        W53454   5.825  43.413  14.296
81140W        W53455  10.150  26.683  11.485
81141W        W53456   4.886  36.527   2.262
81142W        W53457   4.355   1.376   2.841
81143W        W53458  18.697  28.168   3.806
81144W        W53459  30.092  30.594   2.232
81145W        W53460  40.442  23.667   1.286
81146W        W53461  18.263  36.040  12.352
81147W        W53462   2.280  27.989  14.849
81148W        W53463  22.721  37.851  10.456
81149W        W53464   8.746  32.105  14.923
81150W        W53465  28.147  24.210   4.715
81151W        W53466  19.184  16.232  10.543
81152W        W53467  39.847  22.664   4.142
81153W        W53468   8.383  36.063  12.878
81154W        W53469  13.337  34.477   3.310
81155W        W53470  18.618   3.760   4.215
81156W        W53471   0.974  41.519  10.530
81157W        W53472  32.436  27.451  11.574
81158W        W53473  18.138   9.694  14.511
81159W        W53474  11.215  41.410  10.609
81160W        W53475  42.454  40.805  12.574
81161W        W53476  38.455  31.429  12.912
81162W        W53477   4.370  16.576  13.955
81163W        W53478  23.176  11.257  14.353
81164W        W53479  22.039  43.924   4.606
81165W        W53480  27.550  27.081   1.872
81166W        W53481  18.104  11.815  14.472
81167W        W53482  17.700  11.633  12.998
81168W        W53483  37.398   2.397   2.196
81169W        W53484  44.824  20.237  11.016
81170W        W53485  12.290  16.106  14.337
81171W        W53486  24.050  37.925  10.480
81172W        W53487  14.231  26.460   3.765
81173W        W53488  11.131  33.530   0.883
81174W        W53489   8.745  22.115   1.389
81175W        W53490  18.116   1.465  11.864
81176W        W53491  36.087  37.487  12.858
81177W        W53492  18.285  16.084   1.792
81178W        W53493  10.851  22.120   4.269
81179W        W53494  10.191  16.765  11.957
81180W        W53495  14.276  39.411   0.769
81181W        W53496  13.299  10.235  12.993
81182W        W53497  21.205  15.148  12.876
81183W        W53498  35.876  17.098  12.992
81184W        W53499   9.333  31.967  11.427
81185W        W53500  33.991   5.239  11.084
81186W        W53501  16.282  41.791   4.655
81187W        W53502  34.438  32.136  12.857
81188W        W53503  26.489  33.033   5.220
81189W        W53504  34.033  21.057   4.765
81190W        W53505  42.371  28.668  12.979
81191W        W53506  27.570  42.895  13.824
81192W        W53507  29.986   7.666  10.929
81193W        W53508   0.984   4.247   2.253
81194W        W53509  37.523  44.981   3.779
81195W        W53510  23.034  24.083  13.399
81196W        W53511  26.968   0.771  11.061
81197W        W53512   0.944  33.565   5.611
81198W        W53513  41.426  28.081  12.468
81199W        W53514  34.972  25.999   2.669
81200W        W53515  43.469   3.413  11.097
81201W        W53516  33.078  41.945  13.909
81202W        W53517  22.150  17.667  10.908
81203W        W53518  35.109  39.016  11.578
81204W        W53519  44.815  11.830  14.992
81205W        W53520  26.207   6.395   4.767
81206W        W53521  14.654  44.777   0.270
81207W        W53522  37.472  17.167  14.331
81208W        W53523  31.433  17.558  10.457
81209W        W53524   7.817   2.291   2.390
81210W        W53525   5.918  28.125   2.411
81211W        W53526  12.620  33.036  10.904
81212W        W53527  34.930   2.231  14.317
81213W        W53528  17.673  35.471  12.353
81214W        W53529  42.011   2.302   1.878
81215W        W53530  10.266   2.264  11.104
81216W        W53531   3.356  44.938   0.478
81217W        W53532  17.599  12.289   2.683
81218W        W53533  33.384   6.755  10.120
81219W        W53534  28.563  12.836   4.259
81220W        W53535  19.691  23.024  12.003
81221W        W53536   2.425   9.805  14.959
81222W        W53537   3.346  30.929  11.394
81223W        W53538  33.394   5.903   0.910
81224W        W53539  27.639  43.320   4.315
81225W        W53540  10.352  32.018  11.022
81226W        W53541   5.266   5.703   3.855
81227W        W53542  12.855  36.576   1.444
81228W        W53543  35.095  26.189   3.320
81229W        W53544  18.652  10.680  13.326
81230W        W53545   2.246  11.714  10.515
81231W        W53546  11.715  25.148   5.190
81232W        W53547   4.733  11.733  12.844
81233W        W53548   4.731   3.215   3.855
81234W        W53549  35.507  36.351   1.717
81235W        W53550   2.456  37.409  13.458
81236W        W53551  25.535  27.646   2.404
81237W        W53552  19.139   2.777  10.548
81238W        W53553  27.102  23.679  13.321
81239W        W53554  27.009  31.095  11.499
81240W        W53555   6.238   4.913   4.127
81241W        W53556  39.365  20.614   1.886
81242W        W53557  15.761  33.452   4.824
81243W        W53558  41.841  18.099  10.645
81244W        W53559  35.878  32.495   4.725
81245W        W53560  22.550  24.541   2.871
81246W        W53561  19.150  11.851  11.478
81247W        W53562  20.179   7.405  10.630
81248W        W53563  33.545   8.278   0.403
81249W        W53564  18.263  31.599  11.495
81250W        W53565  19.776  21.683   2.837
81251W        W53566  22.006  27.156   1.782
81252W        W53567  16.273   4.942  12.046
81253W        W53568  31.528  13.141  10.426
81254W        W53569  32.540  19.618  11.067
81255W        W53570   7.405   8.826  11.417
81256W        W53571  15.191  19.690   4.760
81257W        W53572  10.170   9.719   3.245
81258W        W53573  14.826   0.825   3.646
81259W        W53574   3.234  25.069   4.742
81260W        W53575  21.743  21.083   4.644
81261W        W53576  34.492  26.180   1.833
81262W        W53577  31.405  22.179   0.879
81263W        W53578  19.257   7.199   1.387
81264W        W53579  14.131  24.207  13.064
81265W        W53580  29.645  16.810   4.643
81266W        W53581  22.621  36.971   3.807
81267W        W53582  39.504   5.821  12.552
81268W        W53583   9.197   2.281   2.724
81269W        W53584   5.775  12.659  12.041
81270W        W53585  18.672  42.786   3.328
81271W        W53586  39.319  34.020  10.977
81272W        W53587  27.942  23.496  10.465
81273W        W53588  20.242  26.511   2.319
81274W        W53589  42.307  22.058   0.851
81275W        W53590  11.768  44.869   2.689
81276W        W53591  32.060   4.371   9.972
81277W        W53592  24.519  15.323   0.951
81278W        W53593  25.043  20.154  12.383
81279W        W53594  36.048  39.871  12.516
81280W        W53595  15.193  12.743   1.698
81281W        W53596  19.256  24.585  14.974
81282W        W53597  29.933  28.146  13.056
81283W        W53598  30.016  36.088  10.491
81284W        W53599  40.838  36.390  11.044
81285W        W53600   0.259   9.824   4.267
81286W        W53601  34.890   0.980   2.263
81287W        W53602  41.022  15.687  13.402
81288W        W53603  10.819  37.509   0.397
81289W        W53604  10.632  34.055   2.687
81290W        W53605  11.206  12.274  10.431
81291W        W53606   7.833  36.078   4.189
81292W        W53607  14.105  31.098   3.168
81293W        W53608  12.841  15.245   3.664
81294W        W53609  20.205  13.712   3.730
81295W        W53610  18.131  16.704   3.771
81296W        W53611  24.096  11.211   3.777
81297W        W53612  31.402  21.176  10.936
81298W        W53613  21.578  25.128  13.892
81299W        W53614  22.706   8.284  11.519
81300W        W53615  41.361  43.400  11.877
81301W        W53616  41.499  22.677   2.394
81302W        W53617  21.093  24.092  13.417
81303W        W53618  19.772   8.692   9.964
81304W        W53619   4.703  13.306   1.443
81305W        W53620  37.570   8.803   1.853
81306W        W53621  40.022  40.342   2.255
81307W        W53622  17.604   6.846   1.219
81308W        W53623  12.148   6.686   0.283
81309W        W53624  15.294  25.995  13.905
81310W        W53625   6.736  36.382  10.564
81311W        W53626  11.312  18.085   4.296
81312W        W53627  30.415  20.044   2.298
81313W        W53628  10.268  42.423  12.420
81314W        W53629  19.662  28.141  11.402
81315W        W53630  39.560   7.859  14.924
81316W        W53631  33.024  42.468  12.982
81317W        W53632  21.179  42.912  13.976
81318W        W53633  34.978   9.184   0.381
81319W        W53634  13.829   8.169   0.438
81320W        W53635  22.180  42.489   1.246
81321W        W53636  25.702  43.414  12.067
81322W        W53637   4.842   7.209  10.595
81323W        W53638  41.347  42.836  12.513
81324W        W53639  43.477   3.231   2.269
81325W        W53640  32.977  27.187  12.013
81326W        W53641  24.180  33.427   2.254
81327W        W53642  31.446  16.095   0.856
81328W        W53643  18.267   7.674  12.565
81329W        W53644   6.333  19.726   4.727
81330W        W53645  33.544   0.797   3.806
81331W        W53646   2.803  29.029  14.416
81332W        W53647   5.439  23.557  13.958
81333W        W53648  38.538   2.760  14.981
81334W        W53649  11.127   3.287   4.263
81335W        W53650  40.409  30.504  11.611
81336W        W53651  19.770  22.151  10.639
81337W        W53652  40.537  14.667  12.094
81338W        W53653  16.788  41.005   1.846
81339W        W53654  31.136  35.069   3.705
81340W        W53655  22.666   8.384  12.825
81341W        W53656  33.617  36.953   3.785
81342W        W53657  18.246  19.742   3.196
81343W        W53658  13.756  23.606   0.324
81344W        W53659  14.288   1.437   0.263
81345W        W53660  13.213  32.448   3.248
81346W        W53661  12.124  37.559   3.862
81347W        W53662  37.491   2.365   0.872
81348W        W53663  16.766  10.261   2.303
81349W        W53664  21.512  40.312  13.030
81350W        W53665  12.661   7.678   3.213
81351W        W53666   3.419  40.370  12.907
81352W        W53667  17.273  23.694   4.137
81353W        W53668   8.695  26.553  12.075
81354W        W53669   0.392   2.814  12.012
81355W        W53670  24.653  15.170   3.231
81356W        W53671  20.601  11.753   0.942
81357W        W53672  40.509  40.397  11.515
81358W        W53673  27.448  32.124   3.280
81359W        W53674  11.703   0.392  12.851
81360W        W53675  23.537   9.276   0.461
81361W        W53676  25.702  34.380   4.604
81362W        W53677  40.924  21.587   1.806
81363W        W53678   6.325  37.878  14.362
81364W        W53679  19.043  44.427   4.115
81365W        W53680  41.315  29.621   0.807
81366W        W53681   3.862   3.851   3.734
81367W        W53682   6.224  37.468   0.774
81368W        W53683  29.669  12.695  12.825
81369W        W53684  40.905  40.806  13.049
81370W        W53685  43.366  13.760  12.402
81371W        W53686  43.304  24.028   1.861
81372W        W53687   3.432  21.645  12.565
81373W        W53688   6.746  24.179  11.496
81374W        W53689  33.547  11.765   4.214
81375W        W53690   8.809  10.321  11.022
81376W        W53691   2.912  18.548   3.254
81377W        W53692  43.823  35.042  13.027
81378W        W53693   7.359  22.662   1.241
81379W        W53694  40.498  26.005  10.914
81380W        W53695  42.480  42.521   4.831
81381W        W53696  26.492   0.936  10.942
81382W        W53697   9.197  28.594   2.347
81383W        W53698   1.292  28.956   2.670
81384W        W53699  24.644  20.697   0.809
81385W        W53700   7.238   9.783   0.928
81386W        W53701   1.865  21.661   1.791
81387W        W53702  20.650  12.740  10.933
81388W        W53703  27.023  44.905  14.980
81389W        W53704  15.605  25.216   4.277
81390W        W53705  25.070   5.721   1.377
81391W        W53706  41.794  25.044   4.245
81392W        W53707  16.707  28.100  14.838
81393W        W53708   8.714   7.907   5.082
81394W        W53709  26.602  23.698   0.899
81395W        W53710  28.034  23.729   1.303
81396W        W53711  24.986  30.136   2.414
81397W        W53712  34.023   7.767  11.486
81398W        W53713   9.295  27.047  10.923
81399W        W53714  16.227  23.594  13.515
81400W        W53715   5.248  15.315   3.866
81401W        W53716  24.973  25.193   4.138
81402W        W53717  34.077   5.841   4.674
81403W        W53718  44.973  11.803  10.154
81404W        W53719  24.987  12.343  11.473
81405W        W53720  22.585  25.549  12.993
81406W        W53721  28.052   2.337   1.422
81407W        W53722  17.108  26.501  12.089
81408W        W53723  33.621  38.896  10.405
81409W        W53724  23.168  20.641   4.605
81410W        W53725  21.568  19.123  13.370
81411W        W53726  23.565  39.048   1.235
81412W        W53727  29.554   6.717   1.417
81413W        W53728   9.696  38.994  13.464
81414W        W53729  25.095  31.619   0.365
81415W        W53730  43.444  12.284  12.425
81416W        W53731  21.107   0.421   2.700
81417W        W53732   7.800  34.383   0.448
81418W        W53733  34.870  29.563   0.962
81419W        W53734   4.345  27.946  12.024
81420W        W53735  19.253   0.865  14.897
81421W        W53736  15.637  30.982  13.531
81422W        W53737  37.862  28.058  14.459
81423W        W53738  19.252   3.941  10.624
81424W        W53739  34.403  33.432  10.549
81425W        W53740  40.931   2.924   0.357
81426W        W53741  43.326  16.797   0.921
81427W        W53742   0.344  44.392   3.344
81428W        W53743  15.181  22.199  12.556
81429W        W53744  44.800  26.574  11.603
81430W        W53745  27.679  25.067  11.384
81431W        W53746  13.169  27.062   0.480
81432W        W53747  35.378   1.422   2.873
81433W        W53748   4.261   7.183  14.829
81434W        W53749  11.760  32.519   2.814
81435W        W53750  14.113   4.824   4.344
81436W        W53751  39.504  35.079   3.808
81437W        W53752   1.249  28.090   4.812
81438W        W53753  43.373  22.176   3.774
81439W        W53754  38.068   2.413   4.122
81440W        W53755   7.668   7.307  11.069
81441W        W53756  22.179  42.916   3.645
81442W        W53757  35.001   7.304  10.121
81443W        W53758  12.668  23.586   3.698
81444W        W53759   0.248  30.636  12.421
81445W        W53760   6.862  32.938  10.490
81446W        W53761  17.656  28.097   2.331
81447W        W53762  12.135   0.427  12.434
81448W        W53763  21.111  44.765  11.594
81449W        W53764  42.396   2.227   4.704
81450W        W53765  30.923   6.916   0.362
81451W        W53766  43.021  33.500   3.333
81452W        W53767  19.567  21.105   3.682
81453W        W53768  29.984  23.145  14.289
81454W        W53769   3.735  44.472  14.896
81455W        W53770  42.337   4.251  13.511
81456W        W53771  24.985  25.188   1.364
81457W        W53772  25.690  30.119   0.365
81458W        W53773  26.600  23.538   0.461
81459W        W53774  41.296  35.369   1.775
81460W        W53775  16.138  23.193   4.696
81461W        W53776   7.216  40.823  11.971
81462W        W53777   1.851  36.589   5.791
81463W        W53778  39.064  43.001  11.454
81464W        W53779  25.133   4.933   9.441
81465W        W53780  16.163   1.341   0.825
81466W        W53781  21.593  20.543   0.829
81467W        W53782  23.571  22.679   0.803
81468W        W53783  21.036   3.287   3.785
81469W        W53784   7.833  35.456  14.408
81470W        W53785  28.056  12.360   0.928
81471W        W53786  35.979  14.635  13.912
81472W        W53787  38.967  35.874   4.709
81473W        W53788   3.797  25.649   3.354
81474W        W53789  19.747  44.453   4.782
81475W        W53790  16.133  12.182   4.195
81476W        W53791  42.379  21.685   3.308
81477W        W53792  38.555  40.342   4.764
81478W        W53793  11.723  30.073   1.924
81479W        W53794   3.361  11.641  14.312
81480W        W53795  40.895  23.644  13.470
81481W        W53796  39.523  32.591  14.935
81482W        W53797  10.222  28.477  10.497
81483W        W53798  23.137  13.795  12.865
81484W        W53799  42.835  10.196  10.530
81485W        W53800   6.223  40.816   4.734
81486W        W53801  26.505   7.194  12.414
81487W        W53802  24.162  29.663   2.768
81488W        W53803   3.251  36.407  11.035
81489W        W53804  18.146  42.927   3.187
81490W        W53805  25.515  27.690  14.845
81491W        W53806  36.588  17.754   1.413
81492W        W53807   6.242   5.248   1.783
81493W        W53808  43.352  10.371  13.031
81494W        W53809  15.708  15.786  12.341
81495W        W53810  40.945  13.629  10.626
81496W        W53811  21.218  17.789  11.452
81497W        W53812  44.434  35.557  11.102
81498W        W53813  11.756  39.425  11.559
81499W        W53814   7.816  30.516   1.408
81500W        W53815  43.434  10.157  14.988
81501W        W53816   7.300  42.969  12.867
81502W        W53817  34.054  28.569  14.844
81503W        W53818  32.593   2.317  10.586
81504W        W53819  43.271  44.781  11.000
81505W        W53820   8.755  39.374   0.910
81506W        W53821   6.878   3.727  10.947
81507W        W53822  38.044  33.117   3.741
81508W        W53823  24.995   0.864   2.299
81509W        W53824  22.160  16.659   0.418
81510W        W53825  39.402  33.026   4.766
81511W        W53826  41.947  38.914  10.012
81512W        W53827  32.970  21.207   0.301
81513W        W53828  42.942  44.799  11.427
81514W        W53829  30.972  43.002   4.188
81515W        W53830  22.712  23.056  11.466
81516W        W53831   2.831  24.035  12.853
81517W        W53832  12.668  21.234  11.435
81518W        W53833  13.696  19.540  13.495
81519W        W53834  20.725  27.028  14.845
81520W        W53835  22.197  12.140   1.783
81521W        W53836   1.769  16.791  14.971
81522W        W53837  23.240  30.025  10.930
81523W        W53838  23.562   6.721  11.557
81524W        W53839   3.813  19.262  10.628
81525W        W53840  36.915  22.636  12.899
81526W        W53841  36.369  41.847  14.511
81527W        W53842  32.978  24.196   0.963
81528W        W53843   0.823  19.632   4.162
81529W        W53844   7.672  25.696   4.637
81530W        W53845  22.250  19.195   5.092
81531W        W53846  19.137  19.548  12.014
81532W        W53847  16.759  24.707  14.771
81533W        W53848  29.919  40.346   1.381
81534W        W53849  15.822  14.769  11.072
81535W        W53850  16.119  11.274   4.228
81536W        W53851  28.024  23.626  11.385
81537W        W53852  24.710   6.793   3.831
81538W        W53853  38.486  44.470   0.253
81539W        W53854  39.451   7.406   2.250
81540W        W53855  38.827  23.169   4.631
81541W        W53856  19.657  44.301  11.507
81542W        W53857  15.241   0.330   3.771
81543W        W53858  34.527  24.509   0.363
81544W        W53859  24.130  23.580  11.970
81545W        W53860  43.378   4.228  13.872
81546W        W53861  21.235  38.825  10.143
81547W        W53862  10.160  34.056   4.686
81548W        W53863   1.794  16.153  14.888
81549W        W53864  37.896  16.108   3.727
81550W        W53865  37.058  40.042   0.478
81551W        W53866  13.668  27.537  14.939
81552W        W53867  24.030   4.885  12.062
81553W        W53868  25.068  25.066  11.378
81554W        W53869   1.784  41.020  13.886
81555W        W53870   8.718   0.297   3.781
81556W        W53871  22.155   3.833   2.286
81557W        W53872  19.129  39.317  10.618
81558W        W53873  26.644  15.288  14.311
81559W        W53874   7.403  40.896   1.901
81560W        W53875  41.876  27.527  10.479
81561W        W53876  23.540  26.956  13.366
81562W        W53877  29.097   6.320   1.287
81563W        W53878  32.131  19.654  12.954
81564W        W53879  27.088  24.207   3.747
81565W        W53880   9.177   5.722  13.531
81566W        W53881  16.742   1.278   1.303
81567W        W53882  37.447  35.480  14.837
81568W        W53883   6.327  38.486   2.302
81569W        W53884   9.809  33.405   0.744
81570W        W53885  34.879  38.522  12.838
81571W        W53886  40.887  10.787  14.317
81572W        W53887   1.904  38.503  11.464
81573W        W53888  39.526   3.750   4.256
81574W        W53889  11.867  18.784  10.554
81575W        W53890   3.293   0.898   3.762
81576W        W53891  35.058  39.532  13.910
81577W        W53892  43.920   8.682   3.730
81578W        W53893  26.636   3.765   3.292
81579W        W53894  37.025   7.296  12.954
81580W        W53895   5.808  23.173   2.770
81581W        W53896  34.455  37.544   4.832
81582W        W53897   7.223  33.399  10.973
81583W        W53898  43.357  42.329  12.953
81584W        W53899  19.726  37.497  11.391
81585W        W53900   3.926  43.476   1.815
81586W        W53901  19.763  36.467  10.596
81587W        W53902  37.581  10.283   3.841
81588W        W53903  16.773  26.993   0.844
81589W        W53904  31.402   0.279   0.268
81590W        W53905  14.770  38.931  13.982
81591W        W53906  24.111  30.625   0.936
81592W        W53907  25.113   3.844  14.386
81593W        W53908   9.248  17.169   0.267
81594W        W53909  43.794  23.008  11.011
81595W        W53910  29.926   6.264  13.462
81596W        W53911  22.045  13.176  12.901
81597W        W53912  16.175  33.996  14.503
81598W        W53913   8.366  17.128   1.391
81599W        W53914  41.972   4.214  11.106
81600W        W53915  14.595  17.695  12.837
81601W        W53916   3.303   5.853  14.514
81602W        W53917   7.400   3.932   0.927
81603W        W53918  20.584  17.297  13.343
81604W        W53919  30.549  27.457  13.335
81605W        W53920  29.111  21.729  14.792
81606W        W53921  25.609  34.524   9.973
81607W        W53922   2.257  33.499  12.490
81608W        W53923   0.447  21.540   2.842
81609W        W53924  40.526  44.458  11.438
81610W        W53925  31.550  38.041  13.409
81611W        W53926  25.185  39.414   4.188
81612W        W53927  31.133  28.546   0.471
81613W        W53928  33.569   0.765   4.775
81614W        W53929  23.045  10.839   3.812
81615W        W53930  30.502  40.515  11.528
81616W        W53931  12.717  24.576  11.033
81617W        W53932  36.369   8.710  14.976
81618W        W53933  29.573  40.384   3.360
81619W        W53934  21.641   0.952  11.504
81620W        W53935  32.094  32.485   4.247
81621W        W53936  31.456   6.697  11.039
81622W        W53937  44.493  31.644   4.780
81623W        W53938  28.539  13.626   0.279
81624W        W53939  27.023  13.680   0.327
81625W        W53940  35.901  35.002   2.181
81626W        W53941  26.463   9.199   5.277
81627W        W53942  41.533  27.126   1.273
81628W        W53943  44.279   2.257   0.332
81629W        W53944  29.035  38.912   4.651
81630W        W53945  19.595   7.669  12.073
81631W        W53946  13.109   9.329  11.449
81632W        W53947  40.539  33.115   4.804
81633W        W53948  22.562   9.769  11.610
81634W        W53949  19.586   8.696   0.298
81635W        W53950   0.366   4.776   1.740
81636W        W53951  42.848  10.283   4.306
81637W        W53952   2.239  39.556  10.930
81638W        W53953  19.161  24.219  11.922
81639W        W53954  28.100  20.101   0.333
81640W        W53955  10.315  19.536  14.324
81641W        W53956  28.651  36.030  12.500
81642W        W53957   3.336  33.610   0.852
81643W        W53958  22.176   8.887   4.203
81644W        W53959  15.172  35.386  11.387
81645W        W53960  40.455  11.652   4.731
81646W        W53961  35.864  18.081   0.901
81647W        W53962  26.611  23.013  10.993
81648W        W53963  34.019   6.293   4.650
81649W        W53964  43.896   5.379   4.198
81650W        W53965  26.077  43.866  11.002
81651W        W53966   4.916  13.657  11.997
81652W        W53967  39.455  20.631   2.325
81653W        W53968  34.911  22.568   3.662
81654W        W53969  38.953  43.942   3.755
81655W        W53970  18.669   7.737   0.956
81656W        W53971  17.633  15.275  14.470
81657W        W53972   5.926   7.406  11.105
81658W        W53973   7.219  11.802  14.970
81659W        W53974   8.842  32.081   2.669
81660W        W53975  10.277  32.928  14.004
81661W        W53976   6.885   3.749  14.869
81662W        W53977  22.722  34.045   4.174
81663W        W53978  16.715   8.818  14.302
81664W        W53979  32.079  15.657   3.818
81665W        W53980  11.849  14.149   1.236
81666W        W53981  44.261  15.109  14.941
81667W        W53982   9.737  42.432  12.838
81668W        W53983  41.416  11.191   3.793
81669W        W53984  30.435  24.047  11.594
81670W        W53985  38.021  39.458   4.835
81671W        W53986   1.860  30.535   4.332
81672W        W53987  39.495  40.927  14.782
81673W        W53988  37.468   6.347   2.238
81674W        W53989  41.496  35.868   3.772
81675W        W53990  20.547  18.233   0.737
81676W        W53991  33.935  18.621   2.305
81677W        W53992  11.743  20.693  14.496
81678W        W53993  31.626  26.055   3.762
81679W        W53994  44.495  35.539  14.466
81680W        W53995  40.054  22.711   1.232
81681W        W53996  36.542  18.573  12.879
81682W        W53997   5.829  31.988  11.001
81683W        W53998  38.851   9.803   4.309
81684W        W53999  20.099   1.435   1.858
81685W        W54000  29.569  17.199   2.393
81686W        W54001  38.047  33.606  14.980
81687W        W54002   2.453   9.165   1.898
81688W        W54003  23.034  20.526   9.979
81689W        W54004  27.611   8.213  11.922
81690W        W54005   6.255  30.449   3.792
81691W        W54006   7.397  23.494  14.898
81692W        W54007  29.150  23.238  14.299
81693W        W54008  26.671   7.818   3.207
81694W        W54009   5.325  43.853   1.877
81695W        W54010  13.795   0.911  11.378
81696W        W54011  36.884  38.880  11.909
81697W        W54012  10.214  42.903   2.759
81698W        W54013   9.350   0.474   1.435
81699W        W54014   3.858  18.224  13.528
81700W        W54015   7.230   8.767  13.437
81701W        W54016  16.675  14.772   0.935
81702W        W54017  16.665  41.824  12.548
81703W        W54018  37.962  22.174   2.729
81704W        W54019   3.899   6.360  12.375
81705W        W54020  15.300  35.443   4.715
81706W        W54021  17.297  44.287  13.365
81707W        W54022  24.061  10.219   2.708
81708W        W54023  21.207   3.287   1.894
81709W        W54024  28.043  21.543   1.827
81710W        W54025  18.118  35.379   3.646
81711W        W54026   7.361  26.644  14.964
81712W        W54027  31.407   6.770  11.467
81713W        W54028  28.984   8.368   4.346
81714W        W54029   9.805  16.113   1.792
81715W        W54030  24.678   4.862  13.960
81716W        W54031  16.171  29.994   4.823
81717W        W54032  32.613  32.561  13.833
81718W        W54033  37.373  13.683   4.644
81719W        W54034   3.754  27.994  10.937
81720W        W54035  24.690  12.694  12.499
81721W        W54036   6.722   0.394  12.040
81722W        W54037   5.755   1.406   4.704
81723W        W54038  18.056   7.905   2.371
81724W        W54039  13.341  18.127   2.381
81725W        W54040  42.289  30.559  13.020
81726W        W54041   8.288  40.448   2.706
81727W        W54042   6.275  33.024  11.999
81728W        W54043  12.243  24.680  12.569
81729W        W54044  40.474  31.520  14.786
81730W        W54045   9.270   2.409   3.676
81731W        W54046   1.835  34.094  12.376
81732W        W54047  38.569  30.612  10.532
81733W        W54048   0.457  43.920   3.276
81734W        W54049  36.483  42.392   2.321
81735W        W54050  29.536  22.107   3.838
81736W        W54051  37.510   5.842   0.418
81737W        W54052  13.830  23.059   4.343
81738W        W54053   4.802  28.951   0.739
81739W        W54054  31.952  43.389   1.267
81740W        W54055  24.594  38.942   4.699
81741W        W54056  11.659  14.789   2.696
81742W        W54057  35.896  20.636  14.022
81743W        W54058  25.580  32.404   5.185
81744W        W54059  20.592   9.855   9.509
81745W        W54060  35.975  22.221  13.413
81746W        W54061  32.631  36.073  11.496
81747W        W54062  36.348  14.334   3.736
81748W        W54063  12.769  44.796   2.288
81749W        W54064  29.589  43.807   0.440
81750W        W54065  39.967  10.338  14.473
81751W        W54066  42.883  24.143   5.157
81752W        W54067  10.835  37.365  14.861
81753W        W54068  23.733  35.416   1.870
81754W        W54069   0.302  13.812  12.005
81755W        W54070  35.515  31.972  12.353
81756W        W54071   5.211   5.425  14.982
81757W        W54072  24.109  37.951   0.277
81758W        W54073  43.886  27.179  12.376
81759W        W54074  10.161   8.273   3.243
81760W        W54075  14.662  14.677  10.411
81761W        W54076  19.163  14.289   1.821
81762W        W54077   1.734  31.556  10.544
81763W        W54078  37.433  28.031  13.955
81764W        W54079  37.341  39.409   1.716
81765W        W54080   9.717   5.852  13.508
81766W        W54081  42.295   9.168  13.879
81767W        W54082  27.590  25.136  13.354
81768W        W54083  26.620  22.544  14.440
81769W        W54084  27.495  38.029   4.641
81770W        W54085  44.956  13.344  13.028
81771W        W54086   5.400   5.245   4.319
81772W        W54087  43.478  27.009  13.430
81773W        W54088   3.390  34.027   0.886
81774W        W54089  38.486  22.694   2.900
81775W        W54090  28.018  10.311   3.365
81776W        W54091   3.888   7.415   2.684
81777W        W54092  23.623  33.456  12.995
81778W        W54093  10.726   9.840   4.197
81779W        W54094  21.060  14.328  11.532
81780W        W54095  34.974  43.945  11.515
81781W        W54096   0.798  34.538   4.165
81782W        W54097  10.210  23.167   3.862
81783W        W54098  28.173  28.657  13.372
81784W        W54099   7.780   2.943  14.447
81785W        W54100  27.672  15.243  11.999
81786W        W54101  34.527   8.768  14.835
81787W        W54102  12.683  20.197   2.713
81788W        W54103  20.758  28.476   3.169
81789W        W54104   5.852  33.616   1.824
81790W        W54105  31.982  31.408  13.034
81791W        W54106  13.117  28.142  10.430
81792W        W54107   5.811  30.152   0.411
81793W        W54108  18.261  29.002  12.549
81794W        W54109  13.347  29.146   4.716
81795W        W54110   8.291  24.659  14.316
81796W        W54111  28.455  34.547  11.966
81797W        W54112  38.509  23.211  12.508
81798W        W54113  19.208   0.449  11.525
81799W        W54114  26.676  39.543   0.943
81800W        W54115  33.494  21.054   4.154
81801W        W54116   7.354  29.498  13.310
81802W        W54117  23.109  43.357   3.170
81803W        W54118  42.382  42.865  11.881
81804W        W54119   8.187  32.549  12.911
81805W        W54120  31.616  34.488  13.955
81806W        W54121  18.203  28.443  10.025
81807W        W54122  11.237  37.511   2.375
81808W        W54123  44.904  19.202   4.194
81809W        W54124  24.157   0.743   0.420
81810W        W54125  32.997  41.000   2.750
81811W        W54126  30.982  36.451   2.667
81812W        W54127  14.609  16.133  11.499
81813W        W54128  39.364   4.741  12.957
81814W        W54129   6.801   5.890  10.521
81815W        W54130   7.367  33.893  12.924
81816W        W54131  32.510  37.897  14.785
81817W        W54132  14.800  33.401   4.647
81818W        W54133  17.616  18.745  11.384
81819W        W54134   7.910  26.104   0.436
81820W        W54135  23.552  32.005  13.961
81821W        W54136   4.366  33.998   0.462
81822W        W54137   9.679  42.315  10.948
81823W        W54138  10.791  16.136   2.841
81824W        W54139   7.389  30.032  12.949
81825W        W54140  40.358  29.111  11.867
81826W        W54141  21.073  19.583   1.351
81827W        W54142   7.273  29.489   0.818
81828W        W54143  38.397   4.873   4.261
81829W        W54144  42.007  17.764   2.324
81830W        W54145  21.754  35.037   3.258
81831W        W54146   6.741  25.668  13.941
81832W        W54147  20.573  42.468   2.674
81833W        W54148  31.495   7.897   0.270
81834W        W54149  28.605  41.512   0.341
81835W        W54150  23.132  26.176   1.810
81836W        W54151  31.941   2.804  14.879
81837W        W54152  25.126  20.104  11.888
81838W        W54153  37.528  12.170   4.153
81839W        W54154  42.932  33.131  10.101
81840W        W54155   0.985   4.909   0.925
81841W        W54156  27.125  26.017  10.411
81842W        W54157  13.167  24.723   4.666
81843W        W54158  36.419  40.445  12.094
81844W        W54159  28.077  17.667   3.755
81845W        W54160  25.530  28.640   3.166
81846W        W54161  32.925  26.046  12.538
81847W        W54162  16.644  39.948  10.113
81848W        W54163  37.366  34.871  11.077
81849W        W54164  29.506  16.130   0.796
81850W        W54165  19.679  12.229   3.776
81851W        W54166  10.636   0.809  13.027
81852W        W54167  19.068   6.425   0.863
81853W        W54168  25.089  44.797  11.422
81854W        W54169  32.968  15.694  12.486
81855W        W54170  39.525  23.579   2.222
81856W        W54171  31.109   5.351  14.318
81857W        W54172  23.697  31.471   3.632
81858W        W54173  30.612   9.279  14.304
81859W        W54174  22.049  37.537   2.280
81860W        W54175  19.779   9.295   3.779
81861W        W54176  37.474  22.249  12.033
81862W        W54177  21.635  18.218  10.606
81863W        W54178  22.035  25.693   0.385
81864W        W54179   7.827  30.565   2.762
81865W        W54180   0.492  36.079   9.926
81866W        W54181  32.953  42.460   0.835
81867W        W54182  32.998  20.122   3.734
81868W        W54183   9.372  35.941  11.497
81869W        W54184  28.638  18.262   1.445
81870W        W54185  41.319  35.006  12.004
81871W        W54186  14.675  15.813   4.207
81872W        W54187  14.094  26.566  10.565
81873W        W54188  42.853  22.625   1.322
81874W        W54189  16.588  25.981  14.916
81875W        W54190  14.758  33.387  14.843
81876W        W54191  22.084  43.019  14.515
81877W        W54192  31.450  24.080   0.838
81878W        W54193   3.234  43.304  14.424
81879W        W54194   1.337   7.278  12.908
81880W        W54195   3.800  16.083   4.240
81881W        W54196  31.487  10.157   3.812
81882W        W54197   5.249  38.849  10.450
81883W        W54198  15.626  10.667  12.398
81884W        W54199  33.563  22.033  14.347
81885W        W54200  35.960  40.880  11.957
81886W        W54201  11.793   4.296  14.402
81887W        W54202  16.693  34.588  11.981
81888W        W54203   2.898  32.927  13.999
81889W        W54204  22.670  24.030  13.919
81890W        W54205  27.501   2.340   4.661
81891W        W54206   6.741  33.393  10.930
81892W        W54207   8.206  35.030   0.738
81893W        W54208  38.437  16.107  12.872
81894W        W54209   1.889  35.979  12.398
81895W        W54210  27.485  10.215  11.568
81896W        W54211  21.661  28.185   3.748
81897W        W54212  40.019  32.487   3.200
81898W        W54213  22.578  33.586  13.855
81899W        W54214   4.756  39.817  14.942
81900W        W54215  44.421  15.322  11.505
81901W        W54216  17.642   1.819  13.901
81902W        W54217  30.534  43.875   4.769
81903W        W54218  33.562  36.052  14.824
81904W        W54219  23.614   3.437  13.893
81905W        W54220  18.653  12.776   3.763
81906W        W54221  11.839  39.400   2.782
81907W        W54222   9.235   8.743  12.023
81908W        W54223  35.578  38.332   3.226
81909W        W54224  21.689   4.223   0.379
81910W        W54225  22.020   8.243  13.844
81911W        W54226  30.656  36.453  14.963
81912W        W54227   0.380   2.846   2.243
81913W        W54228   4.791  38.482   4.817
81914W        W54229   7.311   4.361   3.290
81915W        W54230  11.682  41.830  13.333
81916W        W54231  42.856  25.024   0.901
81917W        W54232  29.656  11.249  14.310
81918W        W54233   5.781  23.166  14.870
81919W        W54234  27.673  29.645   0.392
81920W        W54235  21.729   8.838  10.624
81921W        W54236  19.598  13.766  12.384
81922W        W54237  44.448  30.101   3.377
81923W        W54238  43.818  44.821  14.972
81924W        W54239  42.793  33.948   1.793
81925W        W54240  13.628   1.807  13.827
81926W        W54241  20.097  36.409  12.914
81927W        W54242  13.793  39.345   0.822
81928W        W54243  23.589  20.648  11.590
81929W        W54244  14.719   1.973   4.123
81930W        W54245  35.604   6.265  10.896
81931W        W54246  20.705  39.527  13.469
81932W        W54247   4.794  21.118   4.200
81933W        W54248  42.950  10.780   3.156
81934W        W54249   3.393   9.167  13.814
81935W        W54250   3.937   3.880  10.573
81936W        W54251  35.438  10.315  14.027
81937W        W54252   8.256   2.344  11.417
81938W        W54253  14.292   0.956   2.330
81939W        W54254  43.777   5.211  13.477
81940W        W54255   2.250  15.098   0.860
81941W        W54256  29.516  28.592   0.286
81942W        W54257  14.289  21.078   0.358
81943W        W54258  18.547  39.938   2.693
81944W        W54259   1.918  36.918   1.424
81945W        W54260  20.274  22.699   3.727
81946W        W54261  44.278   6.349  12.916
81947W        W54262  21.756  38.987   4.346
81948W        W54263  38.053  11.189   2.324
81949W        W54264  19.281  40.855   3.694
81950W        W54265  42.940  26.154  13.060
81951W        W54266   1.850   3.765   0.392
81952W        W54267  44.947  20.719   2.867
81953W        W54268  20.271  22.631  14.852
81954W        W54269  14.261  29.506  12.057
81955W        W54270  18.064  32.515   4.211
81956W        W54271  21.144  14.187  10.021
81957W        W54272  27.188  13.684  11.875
81958W        W54273  37.990  19.746   4.189
81959W        W54274  25.657   2.449   1.760
81960W        W54275  28.160   0.898   4.724
81961W        W54276  42.833  41.941   5.089
81962W        W54277  22.530  10.846  10.584
81963W        W54278  24.539  10.701   3.366
81964W        W54279   3.740  25.671  13.955
81965W        W54280  19.085  14.638  13.833
81966W        W54281  22.100   6.782  10.530
81967W        W54282   0.260  13.726  14.768
81968W        W54283   7.845   1.471   2.682
81969W        W54284  19.626  24.511   3.198
81970W        W54285  38.346  20.740  14.833
81971W        W54286  16.731  22.109  11.047
81972W        W54287  19.763  29.622  11.391
81973W        W54288  41.825  29.163  10.547
81974W        W54289  34.990  26.613   3.277
81975W        W54290  39.949  36.375   3.288
81976W        W54291   6.915  28.515  11.485
81977W        W54292   6.261  20.044   0.939
81978W        W54293  13.839  25.213   0.334
81979W        W54294   8.280   1.458   4.146
81980W        W54295  34.459   8.263  14.892
81981W        W54296  17.566  43.957  12.955
81982W        W54297  37.437  10.173  11.536
81983W        W54298   3.750  26.659   4.691
81984W        W54299  31.562  16.594  10.612
81985W        W54300  41.801  36.010  14.921
81986W        W54301  32.561   1.350  12.028
81987W        W54302  34.981  28.573   3.711
81988W        W54303   9.256  31.403   4.179
81989W        W54304   9.844   6.421  13.998
81990W        W54305  31.527  33.003   0.855
81991W        W54306  13.821  41.030   1.290
81992W        W54307  19.044  20.242   0.424
81993W        W54308   3.891  33.475  13.464
81994W        W54309   4.700   1.904   5.270
81995W        W54310   1.736  15.610   4.713
81996W        W54311  29.169  41.832   3.305
81997W        W54312   2.246  19.188   3.746
81998W        W54313  15.824  35.001   1.434
81999W        W54314  27.570   8.256  13.039
82000W        W54315  32.464  19.688  11.450
82001W        W54316  34.389   4.875  10.541
82002W        W54317  22.040   1.313   4.672
82003W        W54318  40.538  41.460  11.578
82004W        W54319  25.979  12.821   0.845
82005W        W54320  18.709  17.255   5.172
82006W        W54321  22.654  42.290  14.441
82007W        W54322  43.389  21.259  11.027
82008W        W54323  29.572  14.614  11.094
82009W        W54324  25.689  10.299  11.863
82010W        W54325  34.930  11.222  14.877
82011W        W54326   3.252  19.681  10.633
82012W        W54327  16.184  38.873  11.894
82013W        W54328   6.852  14.144  13.936
82014W        W54329   3.455  17.640   3.671
82015W        W54330  13.288  43.387  11.601
82016W        W54331  22.588  31.407  14.944
82017W        W54332  14.329  34.490  13.879
82018W        W54333  41.031  30.471  11.532
82019W        W54334   9.265  31.457   0.841
82020W        W54335  36.922   1.801  14.963
82021W        W54336  38.077   4.931  13.417
82022W        W54337  19.173  20.639   1.257
82023W        W54338  33.498  12.811  13.994
82024W        W54339  27.129  22.721   2.395
82025W        W54340  28.049  38.065  11.985
82026W        W54341  44.003  40.531   1.705
82027W        W54342  40.907  20.089   0.250
82028W        W54343  27.175   1.827  13.312
82029W        W54344  16.167  33.122   2.782
82030W        W54345  43.020  10.847   0.898
82031W        W54346  13.346  15.269   3.788
82032W        W54347  37.026  26.677  13.812
82033W        W54348  40.025  44.833  13.927
82034W        W54349  26.000  12.257   1.450
82035W        W54350  40.409   6.780  14.863
82036W        W54351  25.142  15.290  12.090
82037W        W54352  17.626   0.274   0.904
82038W        W54353  33.466  33.595  12.448
82039W        W54354  40.858  25.158  12.496
82040W        W54355  16.201  20.047  13.951
82041W        W54356  15.249  18.145   2.757
82042W        W54357  35.945  28.583   2.709
82043W        W54358  38.534  32.006  12.965
82044W        W54359  38.978  29.483  13.936
82045W        W54360  33.390  20.086   2.866
82046W        W54361  19.188  38.877   1.785
82047W        W54362  28.112  17.684  14.855
82048W        W54363  22.530  24.542  13.482
82049W        W54364  23.174   0.821  13.990
82050W        W54365  17.557  26.051  14.874
82051W        W54366   1.285  34.952   2.399
82052W        W54367  44.920   1.855   0.404
82053W        W54368  34.434  17.203   2.755
82054W        W54369  33.610  29.468   4.599
82055W        W54370   6.893  17.766   4.160
82056W        W54371  37.025   2.950   4.826
82057W        W54372  32.486   3.390  11.863
82058W        W54373  33.484  30.504  12.952
82059W        W54374  24.493  12.194  13.329
82060W        W54375  25.699  42.867   3.248
82061W        W54376  34.977   8.251  14.345
82062W        W54377   1.750  41.933  14.326
82063W        W54378  32.019  38.456  13.933
82064W        W54379  10.707   2.344  12.490
82065W        W54380   7.785  42.329  14.780
82066W        W54381   3.846  34.916  12.519
82067W        W54382  36.080  23.490   4.711
82068W        W54383  38.439  31.411   1.906
82069W        W54384   1.269  23.571   4.284
82070W        W54385  38.847   1.731  14.958
82071W        W54386  35.419   5.910  11.949
82072W        W54387   4.267   7.862   1.235
82073W        W54388   6.262  27.157   3.219
82074W        W54389  39.860  38.550   3.342
82075W        W54390  42.800  41.402   3.734
82076W        W54391  25.123  29.164  12.380
82077W        W54392  13.775  42.369  14.328
82078W        W54393  15.796  26.061  14.794
82079W        W54394  14.153  11.284  13.504
82080W        W54395   5.313  29.465   1.817
82081W        W54396  22.165   7.839   4.178
82082W        W54397  27.654  12.677   0.304
82083W        W54398   2.826  30.625   3.766
82084W        W54399   0.977  15.621  14.357
82085W        W54400  14.330  33.879  11.560
82086W        W54401   3.252  36.066   0.310
82087W        W54402  33.074  16.673   1.423
82088W        W54403  24.568   7.715   0.374
82089W        W54404  16.231  19.698  12.878
82090W        W54405  14.202  41.857   0.907
82091W        W54406   2.767   1.790  11.966
82092W        W54407  23.149  16.164   4.166
82093W        W54408  16.106  20.038  13.037
82094W        W54409  25.711  40.898   1.914
82095W        W54410  22.704   8.290  14.386
82096W        W54411  39.943   3.867   4.669
82097W        W54412  33.904   0.934  10.953
82098W        W54413   5.776  41.948   3.368
82099W        W54414  39.939  21.126  12.576
82100W        W54415  14.686  22.656   1.265
82101W        W54416  27.603  43.889   0.353
82102W        W54417  36.020   9.759  11.533
82103W        W54418  27.189  24.566   0.896
82104W        W54419  34.109  40.828  11.600
82105W        W54420  18.698  38.493   4.719
82106W        W54421   9.290  14.270   2.878
82107W        W54422  12.203  14.318   0.754
82108W        W54423  26.013  25.500  14.869
82109W        W54424  22.564  38.424   4.242
82110W        W54425  18.092  35.103  13.441
82111W        W54426  17.207  35.434  12.514
82112W        W54427  32.921   6.756  14.378
82113W        W54428  33.515  40.378   2.234
82114W        W54429  37.930   0.976  10.548
82115W        W54430  19.063  26.152  14.465
82116W        W54431  25.207   5.719   1.704
82117W        W54432  35.024  14.736   3.812
82118W        W54433   1.918   3.909  11.933
82119W        W54434  34.942  28.619  11.896
82120W        W54435   7.387  39.543   0.737
82121W        W54436  16.072  11.854   2.889
82122W        W54437  43.403   2.336   1.817
82123W        W54438  26.598  10.872   3.238
82124W        W54439  40.007   6.872  14.819
82125W        W54440  38.975  15.684   4.216
82126W        W54441  28.154   1.467  10.021
82127W        W54442  44.263  26.616  13.063
82128W        W54443  19.058   5.856  10.430
82129W        W54444  38.040  30.659   4.181
82130W        W54445  32.424  41.020   4.792
82131W        W54446  43.503  21.740   2.387
82132W        W54447  44.833  44.272   2.692
82133W        W54448  11.357   8.346   0.256
82134W        W54449  24.553  39.477  12.833
82135W        W54450  13.749  34.406   4.344
82136W        W54451  27.120  28.125   0.880
82137W        W54452  36.920  33.388   2.820
82138W        W54453  26.637  42.947   4.607
82139W        W54454  26.512   7.834   0.935
82140W        W54455  37.020   9.358  12.967
82141W        W54456  22.040  41.942   4.739
82142W        W54457  19.227  23.648  14.282
82143W        W54458  16.675  23.086  14.850
82144W        W54459  41.417  17.232  10.596
82145W        W54460  13.136  25.200   4.787
82146W        W54461  28.957  17.084  13.042
82147W        W54462  27.521  37.851   3.283
82148W        W54463  41.999   0.831  10.472
82149W        W54464  41.488   3.720   4.162
82150W        W54465  18.667  25.166  11.493
82151W        W54466   9.170  11.854  10.082
82152W        W54467   8.748  12.770   0.357
82153W        W54468  14.207  18.606  13.458
82154W        W54469   0.947  30.458   3.717
82155W        W54470  19.115  15.106  13.862
82156W        W54471  36.902  31.063   0.827
82157W        W54472  15.610  41.525   2.688
82158W        W54473  23.159  26.642  13.020
82159W        W54474   6.752  33.464   1.862
82160W        W54475  20.618  33.613  13.061
82161W        W54476  37.076  16.690  10.469
82162W        W54477  21.728   5.270   3.181
82163W        W54478  14.142  32.424   2.278
82164W        W54479   2.468  41.028  10.440
82165W        W54480  28.661  14.717  10.456
82166W        W54481  15.771  24.481  12.041
82167W        W54482  12.231  12.824  14.819
82168W        W54483  39.429  37.911  14.412
82169W        W54484  22.101  13.796  14.373
82170W        W54485  32.930  18.605   1.431
82171W        W54486  43.897  17.780  12.368
82172W        W54487  11.250  32.449   1.402
82173W        W54488  44.323  23.165   1.354
82174W        W54489  37.848  11.857  10.069
82175W        W54490  18.550   6.894  13.533
82176W        W54491  26.696  29.168   4.344
82177W        W54492  11.630   8.276  11.898
82178W        W54493  12.668  12.762   1.716
82179W        W54494   3.782  21.650  10.984
82180W        W54495  13.738  12.791  13.515
82181W        W54496  21.678  17.607   2.207
82182W        W54497  10.867  10.760   0.835
82183W        W54498  44.988  33.039  15.000
82184W        W54499  20.193   1.355  11.469
82185W        W54500  38.342  22.186   4.634
82186W        W54501   7.242  15.681   0.452
82187W        W54502   3.747   4.918   2.250
82188W        W54503  33.910  15.738   0.806
82189W        W54504   0.814  12.168  11.896
82190W        W54505   5.236  33.612   0.899
82191W        W54506  24.070   0.824   4.776
82192W        W54507  41.871  13.328  14.353
82193W        W54508   8.195   5.289   3.851
82194W        W54509  17.246  13.794   2.243
82195W        W54510  25.574  10.259  14.844
82196W        W54511  17.601   5.384  14.332
82197W        W54512   4.708  34.482   3.198
82198W        W54513  20.753  15.189   3.241
82199W        W54514  42.843   2.774   3.823
82200W        W54515   1.460  38.379  13.336
82201W        W54516  18.645  26.490  14.866
82202W        W54517  11.176  24.085  10.524
82203W        W54518   9.709  35.587  13.537
82204W        W54519   5.868  33.513  14.002
82205W        W54520  27.009  10.341  14.798
82206W        W54521  14.621  23.156   0.318
82207W        W54522  30.957  19.771   1.309
82208W        W54523  14.810  23.013   2.805
82209W        W54524  38.992  27.110   4.631
82210W        W54525  20.068  23.213   4.612
82211W        W54526  44.431  44.280  12.992
82212W        W54527  21.554  10.378  10.470
82213W        W54528  24.638  14.149  11.534
82214W        W54529   2.882  41.933  11.877
82215W        W54530  32.598  17.282   2.188
82216W        W54531  19.139  34.524   1.270
82217W        W54532  32.464  12.165   0.302
82218W        W54533  26.698  19.276  13.525
82219W        W54534  27.104  21.706   0.459
82220W        W54535   5.795   4.372  12.380
82221W        W54536   9.757   5.862  14.819
82222W        W54537  26.205  33.570   1.930
82223W        W54538  19.559  15.191  13.353
82224W        W54539  41.807  26.481   4.818
82225W        W54540  38.820  40.857  12.399
82226W        W54541  15.083  12.134  10.992
82227W        W54542   8.723  10.633  11.559
82228W        W54543  31.118  12.219   4.776
82229W        W54544  36.455  10.175   2.313
82230W        W54545   9.321   7.352  10.890
82231W        W54546  17.696  30.098  13.985
82232W        W54547  14.750  16.622   4.307
82233W        W54548  20.599  19.587   4.329
82234W        W54549  39.968  11.757  13.801
82235W        W54550  37.077   4.221  12.368
82236W        W54551  38.046   8.703  11.550
82237W        W54552  30.618  34.421  11.933
82238W        W54553  26.064   2.816  12.041
82239W        W54554  11.712  24.030  11.047
82240W        W54555  41.377  12.793  13.948
82241W        W54556   6.844  41.438   4.175
82242W        W54557  17.284  18.790  12.030
82243W        W54558   4.716  42.961  14.767
82244W        W54559  21.259  20.597  11.052
82245W        W54560  29.015  34.493   4.612
82246W        W54561  17.175  18.272  10.906
82247W        W54562  33.554  23.710  10.443
82248W        W54563  10.194  32.630  13.338
82249W        W54564   3.880  41.346   4.672
82250W        W54565  30.474  14.708  12.971
82251W        W54566  20.762  43.382   3.292
82252W        W54567   6.870  14.782  10.533
82253W        W54568  11.250  12.617   4.737
82254W        W54569  32.126  28.544  13.465
82255W        W54570   7.760   4.286   0.317
82256W        W54571   8.333   0.823  11.874
82257W        W54572  39.008  30.988  11.068
82258W        W54573  10.805   7.409   3.692
82259W        W54574  41.027  21.711   4.721
82260W        W54575  22.123  11.861   4.697
82261W        W54576  35.944  19.049   4.173
82262W        W54577  11.727  31.042   0.409
82263W        W54578  39.935  30.435   0.289
82264W        W54579  17.179   3.737   3.780
82265W        W54580  10.664  20.043   0.392
82266W        W54581  38.361  40.939   1.875
82267W        W54582  42.881  39.993   1.778
82268W        W54583  32.565  22.051   2.301
82269W        W54584  41.429  38.480  14.935
82270W        W54585  33.013   5.252  12.388
82271W        W54586  39.889  11.825   0.249
82272W        W54587   6.256   8.390   2.360
82273W        W54588  19.243  42.845  14.818
82274W        W54589   3.377  24.154   5.138
82275W        W54590   9.347  17.571   3.287
82276W        W54591  32.443  25.028   4.828
82277W        W54592  38.050  18.267  13.927
82278W        W54593  21.533  23.200   4.143
82279W        W54594   1.929   2.843  13.961
82280W        W54595   8.288  36.520  12.084
82281W        W54596  14.170  18.273   1.255
82282W        W54597  17.271  31.098   1.399
82283W        W54598  43.976  31.479   1.722
82284W        W54599  16.770  21.545   1.854
82285W        W54600  15.691   0.329  14.309
82286W        W54601  23.732  33.588   1.407
82287W        W54602   4.859   9.649  13.351
82288W        W54603  11.632  40.928   4.775
82289W        W54604  38.893  41.531   0.430
82290W        W54605   6.809  13.292   0.907
82291W        W54606   8.664  27.114  12.556
82292W        W54607  35.377   4.377   4.300
82293W        W54608   1.414  22.132  14.344
82294W        W54609  11.627  33.874   3.653
82295W        W54610  28.072   4.212   4.707
82296W        W54611  37.986  44.858  10.894
82297W        W54612  31.603  31.423  12.078
82298W        W54613   4.816  14.287   2.392
82299W        W54614  28.992  43.499  11.426
82300W        W54615  29.598  14.105   1.300
82301W        W54616  24.586  19.138  10.406
82302W        W54617  28.042  41.414  12.910
82303W        W54618  13.273  10.832  12.417
82304W        W54619  15.746  22.040   2.386
82305W        W54620   9.374  29.147   1.222
82306W        W54621   8.332  28.554  10.535
82307W        W54622  30.943  32.051  11.595
82308W        W54623  39.370   4.850   3.792
82309W        W54624  25.545  43.918  11.943
82310W        W54625   6.765   0.926   2.870
82311W        W54626   4.378   3.889   3.822
82312W        W54627  34.932  38.377  13.990
82313W        W54628  29.945   8.859   1.385
82314W        W54629  29.523  39.006  12.573
82315W        W54630  37.026  24.620   5.772
82316W        W54631  29.996  38.885   4.124
82317W        W54632  31.934  44.964   0.444
82318W        W54633   3.218  19.700   3.667
82319W        W54634  30.137  22.096   1.876
82320W        W54635   5.874  23.540  12.950
82321W        W54636  37.882  19.096  14.819
82322W        W54637  11.371  24.618   4.799
82323W        W54638  43.364  20.173   1.222
82324W        W54639   6.847  37.383   0.820
82325W        W54640  31.498   6.874   1.322
82326W        W54641  43.808  33.037   2.714
82327W        W54642  19.637  43.288   3.282
82328W        W54643  15.741  20.147  11.114
82329W        W54644  33.424  16.107  10.033
82330W        W54645   0.487   5.789  14.278
82331W        W54646  30.416   8.194   1.414
82332W        W54647   5.781  44.457   0.797
82333W        W54648   6.785   8.293   3.746
82334W        W54649   4.757  44.993  14.941
82335W        W54650  17.609  16.753  12.887
82336W        W54651  39.365  43.987  12.004
82337W        W54652  10.720  28.450   2.874
82338W        W54653  40.842   5.877  10.544
82339W        W54654   7.224  12.694  12.000
82340W        W54655  30.634  42.997  13.486
82341W        W54656  38.492  19.148  11.108
82342W        W54657  40.415  42.527  10.435
82343W        W54658  39.357  34.108   3.714
82344W        W54659  38.325  33.874   2.194
82345W        W54660  24.200  17.125  10.083
82346W        W54661   2.246   3.271  14.487
82347W        W54662   1.289  16.312   3.310
82348W        W54663  35.526  13.674   4.822
82349W        W54664  19.069  10.236   4.223
82350W        W54665  36.426  28.995  12.577
82351W        W54666   5.245  21.137  12.081
82352W        W54667   7.792  30.112   2.210
82353W        W54668  43.769   6.730   0.289
82354W        W54669  31.466   9.646   4.817
82355W        W54670   3.847  25.092  13.485
82356W        W54671  26.502  11.690  13.527
82357W        W54672   1.892  15.252   4.168
82358W        W54673   1.444  19.239   0.357
82359W        W54674   7.385   9.746  11.478
82360W        W54675  31.145   0.366   2.266
82361W        W54676   4.386  38.861  14.800
82362W        W54677  33.389  13.180  10.419
82363W        W54678  10.184  35.108   5.088
82364W        W54679  27.602  42.512  11.886
82365W        W54680  41.928  27.113   0.413
82366W        W54681  26.114  23.722   4.626
82367W        W54682  38.035  15.162  11.128
82368W        W54683  37.440  16.571   1.367
82369W        W54684   2.864  11.246   1.935
82370W        W54685  13.726  11.172  12.851
82371W        W54686  27.079  34.374  10.406
82372W        W54687  37.073  34.903  11.478
82373W        W54688  21.654  31.447  13.870
82374W        W54689  14.097  36.415   0.298
82375W        W54690  29.928   1.400  11.429
82376W        W54691  35.504  28.651   1.423
82377W        W54692  14.778  11.201  11.952
82378W        W54693  18.155   7.251  12.400
82379W        W54694  10.662  19.168   5.274
82380W        W54695   1.304   1.401  14.807
82381W        W54696  33.592   3.449   4.256
82382W        W54697   4.207  19.283   1.738
82383W        W54698  31.402  35.513  14.960
82384W        W54699   2.936   5.718  11.569
82385W        W54700  35.045  10.317  14.884
82386W        W54701  15.227  11.814  11.099
82387W        W54702  30.509  35.003  10.935
82388W        W54703  39.372  12.614  12.929
82389W        W54704  19.106  22.024   1.869
82390W        W54705  44.399  32.979   3.306
82391W        W54706   3.836  42.280  13.821
82392W        W54707  27.581  13.199   3.204
82393W        W54708   6.424  34.943   1.772
82394W        W54709  22.723  29.029  13.414
82395W        W54710  20.701  38.953   0.431
82396W        W54711   3.239  40.858  12.534
82397W        W54712   5.714   3.301   0.406
82398W        W54713   9.824  41.951   1.292
82399W        W54714   5.391  19.230  10.629
82400W        W54715   7.207  42.471   0.778
82401W        W54716  10.324  39.926   1.338
82402W        W54717  22.034  34.596   4.286
82403W        W54718  37.405   6.225   4.635
82404W        W54719   4.791  37.577   2.903
82405W        W54720   5.893  27.192   2.336
82406W        W54721  17.797  37.971  10.426
82407W        W54722  27.478  15.159   1.412
82408W        W54723  41.835   7.903   2.306
82409W        W54724   1.446  28.551   1.259
82410W        W54725  16.223  30.603   2.751
82411W        W54726  32.457  35.557  13.990
82412W        W54727  36.562   4.424   4.683
82413W        W54728  39.388  15.628  12.570
82414W        W54729   2.447  42.032  11.523
82415W        W54730   2.364  28.973  14.431
82416W        W54731   5.392  11.166   4.144
82417W        W54732  27.467   1.328   1.397
82418W        W54733  27.140   2.895  14.804
82419W        W54734  18.190  17.720  14.878
82420W        W54735  42.787  18.244  12.830
82421W        W54736  10.820  13.268   1.800
82422W        W54737  21.631  33.119   0.859
82423W        W54738  22.166   2.884  13.040
82424W        W54739  12.242   8.308   3.289
82425W        W54740  31.583  26.134   1.781
82426W        W54741  33.916  17.746   0.768
82427W        W54742  24.528  21.564  13.035
82428W        W54743  33.909  30.151   2.215
82429W        W54744   1.247  15.644   3.678
82430W        W54745  23.212   8.330  12.052
82431W        W54746  32.572  16.638  14.832
82432W        W54747  39.319  31.538  14.926
82433W        W54748  20.555  27.000  12.909
82434W        W54749  39.904  24.563   1.810
82435W        W54750   6.781  27.100   0.875
82436W        W54751  18.742  13.195  13.845
82437W        W54752  31.576  30.520  11.117
82438W        W54753  31.609  36.002  13.941
82439W        W54754  36.569  18.711  14.464
82440W        W54755  34.967  34.949   0.267
82441W        W54756   2.298  36.379  10.631
82442W        W54757   0.897  42.789   1.360
82443W        W54758  24.594   8.821   3.213
82444W        W54759  41.037  39.848  13.472
82445W        W54760  24.643   9.643   1.447
82446W        W54761  20.725  12.802   2.690
82447W        W54762  21.755   2.765  12.363
82448W        W54763   3.318  30.471   1.226
82449W        W54764   0.392   6.392   2.320
82450W        W54765  37.996  29.595  13.849
82451W        W54766  40.502   8.362  10.594
82452W        W54767  21.753  40.516   0.948
82453W        W54768  13.186  15.205  13.890
82454W        W54769  33.943  37.920  14.501
82455W        W54770  41.811   9.649   4.136
82456W        W54771  19.751  18.253  10.008
82457W        W54772  36.054  15.794  14.962
82458W        W54773  10.320   6.288   4.745
82459W        W54774  24.658  30.605  13.436
82460W        W54775  14.138  34.876   4.340
82461W        W54776  31.027  41.904   4.234
82462W        W54777  19.148  11.263   5.288
82463W        W54778  34.911  31.401   3.712
82464W        W54779   2.246   8.780  10.973
82465W        W54780  10.191  42.949  14.894
82466W        W54781  36.963   0.936  12.560
82467W        W54782  24.166   8.162  11.469
82468W        W54783   6.752  17.690   2.302
82469W        W54784  15.727  29.520  13.857
82470W        W54785   3.945   0.410   3.764
82471W        W54786  16.239  17.618  14.777
82472W        W54787  21.039  31.565   1.842
82473W        W54788  27.052   3.850   2.713
82474W        W54789  31.600  36.411  12.442
82475W        W54790  25.158   9.272   5.106
82476W        W54791   7.280  15.765   2.194
82477W        W54792   9.222   8.805  14.849
82478W        W54793  32.622  20.764   3.343
82479W        W54794  42.918  38.874  13.059
82480W        W54795  26.011  38.014   3.786
82481W        W54796  22.572  16.166   4.121
82482W        W54797   1.931   3.761   5.154
82483W        W54798  22.700  35.063   3.751
82484W        W54799   2.265   5.285  14.962
82485W        W54800  32.540  18.718  13.312
82486W        W54801  20.540   1.904  13.452
82487W        W54802  10.168  10.285  10.603
82488W        W54803  20.754  28.519  11.469
82489W        W54804  20.697   2.951  14.394
82490W        W54805  14.683  34.109  14.502
82491W        W54806  36.521  43.330   0.866
82492W        W54807   7.892   5.744  12.541
82493W        W54808  18.570  36.861   2.900
82494W        W54809  35.927  15.744   1.253
82495W        W54810  11.768  38.561   3.812
82496W        W54811  34.430  24.111   2.317
82497W        W54812  44.797   9.390   4.805
82498W        W54813  14.783  21.747  11.038
82499W        W54814  19.237  31.961  11.479
82500W        W54815   6.218  12.253   4.166
82501W        W54816  22.612  18.727   4.628
82502W        W54817  39.418  35.497   3.279
82503W        W54818  32.913  29.602  14.378
82504W        W54819  34.031  27.124   1.350
82505W        W54820   1.422  21.195  14.959
82506W        W54821   8.271  29.990  10.632
82507W        W54822  24.996  37.960  12.975
82508W        W54823  33.501  13.323  14.326
82509W        W54824  42.477  18.768  12.050
82510W        W54825  14.704   8.711   4.725
82511W        W54826  40.421   0.818   0.878
82512W        W54827  31.602  11.708  10.590
82513W        W54828  10.322  32.080  10.490
82514W        W54829   1.772  22.720  11.023
82515W        W54830  23.600  17.576   4.779
82516W        W54831  28.535  13.267  10.054
82517W        W54832  35.450  17.219   1.412
82518W        W54833  11.815  22.639   4.823
82519W        W54834  23.117  27.087   3.364
82520W        W54835  25.504  33.953  11.596
82521W        W54836  35.570  25.964   0.959
82522W        W54837   8.774  43.953   3.267
82523W        W54838  28.478   9.750   4.736
82524W        W54839   4.402  23.580  10.568
82525W        W54840  16.286   3.426  13.440
82526W        W54841  24.196   6.342   5.095
82527W        W54842  26.100  33.512   2.689
82528W        W54843  34.035   4.268   2.797
82529W        W54844   2.347  23.606  12.552
82530W        W54845  23.090  28.656   4.270
82531W        W54846  30.460  16.807   0.310
82532W        W54847  35.067  18.132   2.723
82533W        W54848   9.392   0.833  11.112
82534W        W54849  13.839  30.131   3.286
82535W        W54850  34.963   9.183   2.285
82536W        W54851  44.486   0.447  11.601
82537W        W54852   3.306  24.220   0.810
82538W        W54853  27.116  31.483   9.460
82539W        W54854  26.957  12.166  11.028
82540W        W54855  14.300  11.866  12.987
82541W        W54856  17.188  28.166   5.082
82542W        W54857  14.161  35.563   4.701
82543W        W54858   2.344  10.234  13.918
82544W        W54859  25.991  38.379   3.146
82545W        W54860   4.252  22.166   3.847
82546W        W54861  44.881  23.085   1.822
82547W        W54862  12.278  22.160  14.962
82548W        W54863  16.756  44.850   0.930
82549W        W54864  30.017  17.076   1.846
82550W        W54865  30.992  16.760  12.082
82551W        W54866  40.964  23.560  13.866
82552W        W54867  34.492   3.239   4.775
82553W        W54868   0.942  15.093  11.054
82554W        W54869   6.717  44.366  13.868
82555W        W54870   2.938  34.969  14.503
82556W        W54871  32.014  32.950   2.189
82557W        W54872  22.544  11.179   1.772
82558W        W54873  44.360  10.248  13.346
82559W        W54874  16.617  19.779   4.255
82560W        W54875  39.873  25.028  14.986
82561W        W54876  20.527  32.393  11.037
82562W        W54877  33.496  40.902   3.818
82563W        W54878  20.132  38.503  11.386
82564W        W54879  20.740   7.209   1.899
82565W        W54880   5.305  43.946   0.903
82566W        W54881  14.282   6.861   0.468
82567W        W54882   2.949  30.018  11.050
82568W        W54883  10.337  43.826   0.839
82569W        W54884  17.168  16.629  11.551
82570W        W54885  14.291  36.378  11.443
82571W        W54886  15.642  22.616  10.536
82572W        W54887  32.462   5.295  14.792
82573W        W54888  15.103  29.149   5.125
82574W        W54889  37.045   0.814   2.843
82575W        W54890   1.914  37.560   4.298
82576W        W54891  22.647  44.416  11.113
82577W        W54892  41.311  10.711   0.861
82578W        W54893  28.437  12.351   2.416
82579W        W54894  27.006   3.333   2.855
82580W        W54895   3.776   6.923   1.363
82581W        W54896  33.593   6.919  12.375
82582W        W54897   0.354  30.467   2.818
82583W        W54898  33.463  27.081  11.494
82584W        W54899   6.374  10.725   1.229
82585W        W54900  16.602  12.162   1.381
82586W        W54901  24.606  40.515  11.123
82587W        W54902   7.265  29.934  11.422
82588W        W54903  15.806  30.587   3.682
82589W        W54904  25.486  29.008  13.510
82590W        W54905  24.992   7.329   3.249
82591W        W54906   9.373  13.601  13.915
82592W        W54907   6.344  25.651   2.199
82593W        W54908   1.359  15.768   3.189
82594W        W54909  29.123  41.896   3.793
82595W        W54910  43.802  26.496   3.672
82596W        W54911   7.397   0.959   3.220
82597W        W54912  26.176   4.303  13.798
82598W        W54913  36.023  23.094  14.024
82599W        W54914  11.324   6.817  13.888
82600W        W54915  25.211  16.206   1.917
82601W        W54916   0.434   5.825   4.210
82602W        W54917  40.428  42.821  12.995
82603W        W54918   8.871  11.745  13.452
82604W        W54919  40.351  19.738  10.415
82605W        W54920  39.339  29.096   4.244
82606W        W54921  26.499  38.455  10.009
82607W        W54922  23.180  16.178  14.794
82608W        W54923  18.597   3.444   5.141
82609W        W54924   1.266  28.549  13.421
82610W        W54925  11.827  41.861   3.177
82611W        W54926  32.551  31.068   0.807
82612W        W54927  23.724  42.011  12.858
82613W        W54928  29.086  43.846  13.861
82614W        W54929  39.499  27.983  14.903
82615W        W54930   4.717  36.845   0.851
82616W        W54931  31.144  42.809   2.845
82617W        W54932   7.900  23.234  11.025
82618W        W54933  13.660  27.509   1.822
82619W        W54934  30.913   8.736   0.747
82620W        W54935  13.135  37.051  11.504
82621W        W54936  20.698  14.136  12.869
82622W        W54937  22.686  19.767   2.234
82623W        W54938  16.203  33.006   1.363
82624W        W54939  24.582  42.030  13.924
82625W        W54940  40.307  16.755   3.164
82626W        W54941   5.758  31.106  13.397
82627W        W54942   3.279   8.812   1.824
82628W        W54943  13.713   6.923   4.633
82629W        W54944  10.344  11.630  14.839
82630W        W54945  30.983  41.467   2.250
82631W        W54946  18.230  24.684   3.199
82632W        W54947  34.453  28.585  11.117
82633W        W54948  33.002  30.981  14.949
82634W        W54949  31.974   1.309  10.476
82635W        W54950  20.085  19.185  14.858
82636W        W54951  23.579  16.676  12.858
82637W        W54952  18.066   3.736   2.688
82638W        W54953  25.142  28.611  14.477
82639W        W54954  36.951  38.931  12.423
82640W        W54955  27.641  28.081   1.240
82641W        W54956  42.304   9.195  11.609
82642W        W54957  23.238   2.421   0.310
82643W        W54958  43.813  36.900   3.381
82644W        W54959  24.062  40.024  12.359
82645W        W54960  13.750  23.106   4.668
82646W        W54961  29.151   6.213  12.349
82647W        W54962  37.915  38.505  14.998
82648W        W54963  10.632  28.048  11.892
82649W        W54964  30.157  24.102   2.348
82650W        W54965  34.035  10.867   4.629
82651W        W54966  42.307   5.434   3.825
82652W        W54967  24.150  22.107   1.264
82653W        W54968  18.701   1.976  13.915
82654W        W54969  35.929  10.741   2.375
82655W        W54970   9.332   0.772  13.309
82656W        W54971   2.226  27.110  13.446
82657W        W54972  26.498  10.656   1.397
82658W        W54973   3.872  30.954   0.953
82659W        W54974  42.419  18.210   2.378
82660W        W54975  33.511  27.479   1.762
82661W        W54976  29.493  35.078  14.801
82662W        W54977  34.541   8.187   1.812
82663W        W54978  14.591   2.344  13.834
82664W        W54979  14.672  34.489  13.311
82665W        W54980   2.730   8.369  12.963
82666W        W54981  27.555   0.967   4.228
82667W        W54982  18.722  14.203   2.249
82668W        W54983  33.924  10.377   3.804
82669W        W54984  12.215  34.038  10.968
82670W        W54985  19.210  21.554   1.908
82671W        W54986  14.115  26.149   1.774
82672W        W54987  25.025  35.957  13.341
82673W        W54988  35.073  38.433  12.095
82674W        W54989  35.994  24.638   1.815
82675W        W54990  39.379  38.496  11.981
82676W        W54991   5.736   5.795   4.286
82677W        W54992  24.629   2.879   3.186
82678W        W54993  29.645  10.247  11.566
82679W        W54994  19.197  41.982  11.034
82680W        W54995   1.808  16.607   0.409
82681W        W54996   5.704  34.004   3.715
82682W        W54997   7.297   4.341   1.778
82683W        W54998  32.507  39.060  14.380
82684W        W54999  41.309  32.572   1.436
82685W        W55000   3.761  15.286  13.919
82686W        W55001  17.691   9.654  12.935
82687W        W55002  13.257  41.522   1.697
82688W        W55003   5.864  16.144  11.420
82689W        W55004  39.892  37.345   1.843
82690W        W55005  35.001  26.994   3.303
82691W        W55006   3.885   7.822   2.244
82692W        W55007  34.444  44.387  10.944
82693W        W55008  25.202  33.579   9.927
82694W        W55009   4.775  38.874  13.902
82695W        W55010   8.345  17.086   0.276
82696W        W55011  44.784  14.665  10.547
82697W        W55012  21.747  11.670  10.626
82698W        W55013  34.100  32.497   0.447
82699W        W55014  21.253  21.137   0.933
82700W        W55015  31.421   6.276   0.249
82701W        W55016  31.410  10.344  13.341
82702W        W55017  25.495  20.721   5.735
82703W        W55018  21.577  33.942   4.303
82704W        W55019   6.893  17.263   1.913
82705W        W55020  36.057  19.618   1.401
82706W        W55021  25.189  14.650   0.321
82707W        W55022   9.792  13.715  12.481
82708W        W55023  42.495  39.981   4.661
82709W        W55024  30.504  22.105   2.754
82710W        W55025  23.046  35.854   2.289
82711W        W55026  34.979  44.818   4.268
82712W        W55027  34.385  43.016  12.377
82713W        W55028   0.403  44.814  11.065
82714W        W55029  40.437  39.059   3.696
82715W        W55030  29.980  29.609  12.059
82716W        W55031  18.106  25.173   3.307
82717W        W55032  28.175  17.615  11.430
82718W        W55033  17.088   5.766  14.459
82719W        W55034   4.241   9.162  11.860
82720W        W55035  36.076  36.059  14.377
82721W        W55036  37.972  25.105   5.265
82722W        W55037   6.725  33.123   1.862
82723W        W55038  19.157  34.990   4.668
82724W        W55039   0.437   1.287   4.213
82725W        W55040  41.915  35.037   2.239
82726W        W55041  36.500  36.584   2.250
82727W        W55042  32.117  29.988  11.473
82728W        W55043  37.489  30.052  13.527
82729W        W55044   2.359   4.760   0.313
82730W        W55045   8.757   5.771  11.465
82731W        W55046   6.191   0.987  13.511
82732W        W55047  44.994  42.925  13.839
82733W        W55048  38.943  31.577   2.265
82734W        W55049  32.589  26.139   1.794
82735W        W55050  24.095  18.603   4.787
82736W        W55051  34.061   9.174  14.285
82737W        W55052   1.778  12.296  14.299
82738W        W55053  31.150   9.797   2.901
82739W        W55054  19.145  38.327  14.480
82740W        W55055  43.799   1.278  11.418
82741W        W55056  43.839   6.306   1.450
82742W        W55057  12.359  25.043  14.850
82743W        W55058  29.975  29.989   4.330
82744W        W55059  32.090  44.887   1.450
82745W        W55060  43.346  22.114  11.590
82746W        W55061  14.331  32.469   4.687
82747W        W55062   6.722   4.834   1.285
82748W        W55063   2.852  24.536  13.404
82749W        W55064  20.084   7.402   1.445
82750W        W55065  19.653  14.815  13.054
82751W        W55066   5.314   5.416   3.166
82752W        W55067  42.425  35.505   3.781
82753W        W55068   7.774   8.840   2.780
82754W        W55069  24.482   5.193   2.402
82755W        W55070  43.438  26.041   3.690
82756W        W55071   1.901  26.043   2.379
82757W        W55072   4.780  34.076  14.376
82758W        W55073  43.963  41.860   3.799
82759W        W55074  37.837  37.889   3.644
82760W        W55075  40.327  37.404   3.809
82761W        W55076  17.626  19.228  10.920
82762W        W55077  15.309  29.080   2.752
82763W        W55078   0.451  27.595   0.732
82764W        W55079  24.001  12.628  13.888
82765W        W55080  43.771  42.865   0.887
82766W        W55081  25.623   9.774   0.357
82767W        W55082   9.746  15.139  10.488
82768W        W55083  19.763  33.079   2.222
82769W        W55084  17.741  31.043   4.764
82770W        W55085  44.305  33.451   1.276
82771W        W55086  27.676  43.854  11.556
82772W        W55087   4.296  24.068   3.343
82773W        W55088  39.527   8.853   1.791
82774W        W55089  20.573  29.077   1.381
82775W        W55090   8.177  28.583  13.417
82776W        W55091  41.940  18.583   4.734
82777W        W55092  42.389  28.439  14.418
82778W        W55093  11.787  34.443  14.382
82779W        W55094   0.893  41.297   5.085
82780W        W55095  10.361  26.570   5.095
82781W        W55096  29.021  43.274  10.934
82782W        W55097  11.719  15.583  10.404
82783W        W55098  17.237  39.026  14.881
82784W        W55099   6.921  18.270   2.724
82785W        W55100  36.516  27.529  10.577
82786W        W55101   2.289   4.705  10.559
82787W        W55102  31.461  16.162  14.293
82788W        W55103   4.782  44.799  12.519
82789W        W55104  20.183  27.975   2.712
82790W        W55105  29.938  43.400  11.082
82791W        W55106  23.641  23.019   4.353
82792W        W55107  31.523  22.655  11.591
82793W        W55108  38.873   2.397  10.464
82794W        W55109  10.827   5.205  11.585
82795W        W55110  33.478  15.200  12.413
82796W        W55111  19.126  12.326   3.806
82797W        W55112  28.615  35.859   0.880
82798W        W55113  33.576  44.864   1.217
82799W        W55114  12.145  13.260   2.794
82800W        W55115  19.169  40.962   0.791
82801W        W55116  14.278  13.157   1.340
82802W        W55117   2.303  37.045   3.779
82803W        W55118  23.608   9.819   4.827
82804W        W55119  44.779  16.572   0.774
82805W        W55120  36.501   6.195   3.838
82806W        W55121  22.576   5.850  10.491
82807W        W55122  30.017  33.992   4.610
82808W        W55123  16.290   1.953  12.564
82809W        W55124  27.143  20.057   3.836
82810W        W55125   3.447  22.068   0.297
82811W        W55126   5.894   5.194   1.322
82812W        W55127  34.959  18.687  10.895
82813W        W55128  35.041  22.172  10.440
82814W        W55129   3.765  22.679   2.737
82815W        W55130  19.574  11.164  12.852
82816W        W55131  14.630  23.990   2.244
82817W        W55132  40.979  29.529  12.915
82818W        W55133   3.846  30.912  12.053
82819W        W55134  22.706   1.888   5.260
82820W        W55135   2.941  19.725  13.865
82821W        W55136  44.802  21.673   0.880
82822W        W55137  36.854  16.085   3.814
82823W        W55138   2.395  37.977  12.014
82824W        W55139  38.883  40.488   1.263
82825W        W55140  37.885  12.135   1.853
82826W        W55141  21.241   3.733   4.597
82827W        W55142   9.727   5.427   2.800
82828W        W55143  11.207  25.188   3.835
82829W        W55144  14.744   9.299   1.708
82830W        W55145  41.451  38.392  12.420
82831W        W55146  44.849  31.979   3.640
82832W        W55147  17.207  14.819   2.265
82833W        W55148   8.356  36.953  11.032
82834W        W55149   3.301  30.591  10.897
82835W        W55150  37.883  35.518   4.653
82836W        W55151  11.789  12.120   4.634
82837W        W55152   7.237  13.637   1.366
82838W        W55153  32.608  32.999  12.037
82839W        W55154   0.295  17.776  14.790
82840W        W55155  14.236  16.727  14.995
82841W        W55156  44.799  20.650  13.947
82842W        W55157  41.386  35.071   0.891
82843W        W55158   2.955   5.754   1.438
82844W        W55159  19.117  12.152  13.053
82845W        W55160  23.724  18.241   4.823
82846W        W55161  37.482  26.464  10.627
82847W        W55162  20.682  37.447   3.633
82848W        W55163   8.736  28.584   3.812
82849W        W55164  23.562  23.234   3.792
82850W        W55165  17.260  26.663  13.951
82851W        W55166   8.213   7.690  12.989
82852W        W55167   5.872  34.989  12.528
82853W        W55168  33.509  12.656   1.221
82854W        W55169  42.950  15.767  13.932
82855W        W55170   2.907  35.070  14.000
82856W        W55171  24.658  20.111   1.824
82857W        W55172  14.611  44.893  14.030
82858W        W55173  41.363  18.059   0.379
82859W        W55174  16.738  31.551   1.851
82860W        W55175  43.002  10.217   1.932
82861W        W55176  40.865   4.843   1.392
82862W        W55177  14.285  18.084  11.513
82863W        W55178  30.057  43.490   4.737
82864W        W55179  18.281  25.987  11.436
82865W        W55180  23.656  37.344  12.988
82866W        W55181  28.997  39.818  11.602
82867W        W55182  22.086  19.195  11.435
82868W        W55183   3.247   9.801  14.931
82869W        W55184  33.425  14.339   0.799
82870W        W55185  15.188   5.920  13.967
82871W        W55186  12.319  12.772  12.414
82872W        W55187  29.552  26.558  13.453
82873W        W55188  27.192  21.605  11.410
82874W        W55189   0.386   1.813  13.381
82875W        W55190   2.962  17.266  13.322
82876W        W55191  43.482  31.137   2.759
82877W        W55192   0.462  31.047  11.413
82878W        W55193  31.620  40.053   1.866
82879W        W55194  43.430  42.914   5.255
82880W        W55195  19.641  25.481  14.997
82881W        W55196  41.942  32.098  14.309
82882W        W55197   5.206  42.524   4.188
82883W        W55198  31.129  40.826   1.931
82884W        W55199  13.606  43.868  10.568
82885W        W55200  33.120   0.464  13.461
82886W        W55201  26.979  16.122  13.805
82887W        W55202  33.062  29.118  13.002
82888W        W55203   2.964  16.228   2.298
82889W        W55204  42.492   5.298  12.051
82890W        W55205  31.481  16.210  13.950
82891W        W55206  14.119  39.411  12.359
82892W        W55207  11.361  25.038  14.913
82893W        W55208  40.875  23.037  12.575
82894W        W55209  18.246  30.538   9.629
82895W        W55210  24.723  15.728   1.435
82896W        W55211  25.155  18.050   0.436
82897W        W55212  38.889  44.902   0.328
82898W        W55213  27.464   1.343  10.483
82899W        W55214  13.179  27.979  11.982
82900W        W55215  13.240   5.228   3.213
82901W        W55216  27.155  29.151  14.392
82902W        W55217  22.609  13.224   3.253
82903W        W55218   4.925  29.936  14.018
82904W        W55219   3.825  26.062  14.503
82905W        W55220   5.710  33.124   3.690
82906W        W55221  18.787  40.328   0.877
82907W        W55222  33.546  34.488   1.391
82908W        W55223  36.847  19.137   1.929
82909W        W55224  28.981  30.042  14.777
82910W        W55225  30.490  34.444   2.722
82911W        W55226  33.948  28.514   4.246
82912W        W55227  14.113   2.457   2.769
82913W        W55228  13.223  41.292  11.409
82914W        W55229  18.656   1.868   5.157
82915W        W55230  15.627  33.077  10.955
82916W        W55231  17.594  42.023  10.097
82917W        W55232  34.085  27.486   4.320
82918W        W55233   1.344  22.615  10.419
82919W        W55234  29.057   5.860  13.309
82920W        W55235  41.363   4.914  13.863
82921W        W55236  17.296   6.227  13.439
82922W        W55237   0.800  13.201  11.996
82923W        W55238  23.639   7.858  11.574
82924W        W55239  18.148   2.339   0.814
82925W        W55240   3.374   4.231   0.252
82926W        W55241   1.965  20.200   1.342
82927W        W55242   0.973  36.568  12.530
82928W        W55243  28.633  18.208   2.339
82929W        W55244  32.622  33.619  14.451
82930W        W55245   7.678  36.901   4.197
82931W        W55246  31.505  17.168   0.850
82932W        W55247  13.240  40.410   3.671
82933W        W55248   7.297  33.041   1.210
82934W        W55249  38.902   0.452  10.987
82935W        W55250  19.659  27.499  11.414
82936W        W55251  17.222  38.009  11.001
82937W        W55252  38.348   1.244   3.706
82938W        W55253  28.062  32.604   0.771
82939W        W55254  27.451   3.789   3.717
82940W        W55255  12.258   9.802   1.241
82941W        W55256  21.199  32.533   1.713
82942W        W55257  30.591   1.763   4.765
82943W        W55258  10.795  42.331   3.665
82944W        W55259  22.019  15.272  10.540
82945W        W55260  16.197  25.536   3.757
82946W        W55261  31.002  30.021   1.434
82947W        W55262   0.796   0.987   3.829
82948W        W55263  25.552  43.448   1.269
82949W        W55264   4.245  12.233   3.750
82950W        W55265  27.182  35.369   2.735
82951W        W55266  10.761   0.769   3.265
82952W        W55267  40.044  20.078   3.708
82953W        W55268  22.517  38.036  12.926
82954W        W55269  40.996  15.229   1.330
82955W        W55270  19.693  26.514  14.820
82956W        W55271  25.677  18.620   3.834
82957W        W55272  16.259   2.829   2.232
82958W        W55273   5.206  37.899  13.039
82959W        W55274  29.579  22.233   0.432
82960W        W55275  29.002   9.776  14.507
82961W        W55276  11.251   2.395  14.339
82962W        W55277  38.060  23.222  12.028
82963W        W55278  29.628  42.440   0.745
82964W        W55279  44.940  32.996   3.754
82965W        W55280  36.061  40.040  12.096
82966W        W55281  13.258  37.339  14.923
82967W        W55282  13.247  36.567  14.008
82968W        W55283  30.585  42.800   4.772
82969W        W55284  18.772   8.835  12.057
82970W        W55285  37.976  42.014  13.059
82971W        W55286   0.900  17.698   3.199
82972W        W55287   0.368   0.285   0.751
82973W        W55288   0.900  26.960   3.152
82974W        W55289   5.728  16.227   3.166
82975W        W55290  28.072  42.924  12.072
82976W        W55291  37.473  40.397  14.903
82977W        W55292  32.521   0.756   1.873
82978W        W55293   1.932   5.880  11.950
82979W        W55294  10.660  37.479   2.761
82980W        W55295  14.282  42.947   0.853
82981W        W55296  32.000  23.498   5.222
82982W        W55297  28.540  34.452   3.339
82983W        W55298  28.629   3.868  12.924
82984W        W55299  36.584  26.700   0.257
82985W        W55300  26.954  29.972   1.742
82986W        W55301  20.737  10.767   2.881
82987W        W55302  38.906  28.999  10.462
82988W        W55303  28.054  24.001  13.903
82989W        W55304  29.601  18.227  10.616
82990W        W55305  24.214   7.769  13.384
82991W        W55306  29.114   2.966  13.516
82992W        W55307   5.916  22.154   0.435
82993W        W55308  34.003  12.645   1.883
82994W        W55309  40.401   4.883  11.083
82995W        W55310  16.719   3.811   1.882
82996W        W55311  23.065  43.292   1.236
82997W        W55312  33.126  34.982   2.687
82998W        W55313  20.190  39.916   3.843
82999W        W55314  42.516  19.078   1.728
83000W        W55315   8.296  16.629  13.956
83001W        W55316  43.270  22.659   0.449
83002W        W55317  30.935  13.133  11.567
83003W        W55318   5.841  11.285   0.301
83004W        W55319  14.097  36.888  10.444
83005W        W55320  18.293  20.706   2.183
83006W        W55321  44.938  13.760  12.981
83007W        W55322  36.534  31.000  11.125
83008W        W55323  38.374  21.714   3.852
83009W        W55324  41.791  26.183  11.577
83010W        W55325   0.775   8.694  12.498
83011W        W55326  26.649  35.472   1.385
83012W        W55327  31.974  11.355   2.816
83013W        W55328  21.644  26.531   1.743
83014W        W55329  43.855  17.641  10.626
83015W        W55330  35.601  30.480   3.289
83016W        W55331  16.149  32.422  12.838
83017W        W55332  43.859  26.099   3.238
83018W        W55333  29.961  10.264  10.582
83019W        W55334  38.956  29.516   4.756
83020W        W55335   5.696  37.518   0.947
83021W        W55336   1.285  18.084  13.873
83022W        W55337   9.753   9.834  12.844
83023W        W55338   5.913  38.956  12.540
83024W        W55339  29.017  17.733   0.825
83025W        W55340  29.447   2.356  10.529
83026W        W55341  28.954  37.942  11.080
83027W        W55342   0.770  18.762  12.887
83028W        W55343   2.436   9.717  11.447
83029W        W55344   0.367  26.551  13.953
83030W        W55345  34.043   8.274   0.812
83031W        W55346  23.579  26.096  11.074
83032W        W55347  35.441  41.905  12.531
83033W        W55348  28.965   8.821  14.514
83034W        W55349  29.169  40.490  13.501
83035W        W55350  17.622  31.119   0.736
83036W        W55351  32.108  39.381   1.915
83037W        W55352  34.495   0.829   4.193
83038W        W55353   1.742   8.682   3.306
83039W        W55354  12.285  10.385  11.042
83040W        W55355  31.016  19.607   1.904
83041W        W55356  40.837  31.412   1.731
83042W        W55357   5.251  29.132  14.891
83043W        W55358  11.338  13.331  11.490
83044W        W55359  19.113  28.082   1.273
83045W        W55360  42.932  15.757  11.043
83046W        W55361   8.828   9.712   4.186
83047W        W55362  41.969  29.125   3.643
83048W        W55363  13.610  36.864  12.569
83049W        W55364  28.622  13.641  13.887
83050W        W55365  25.041   9.382  12.016
83051W        W55366   5.238  32.078   2.719
83052W        W55367  12.348  15.609  12.383
83053W        W55368  38.961  37.044   3.672
83054W        W55369  37.874  36.994  14.390
83055W        W55370  15.672   4.836  14.900
83056W        W55371  12.348   0.412  11.444
83057W        W55372   3.818   4.764  10.511
83058W        W55373  20.032  24.488   3.729
83059W        W55374  24.061  13.350   4.794
83060W        W55375  12.699  35.894   2.864
83061W        W55376   1.473  23.129   1.861
83062W        W55377  30.588  37.341   4.236
83063W        W55378   4.417   2.233   1.821
83064W        W55379  16.319  39.331  12.003
83065W        W55380  16.689  19.081   4.620
83066W        W55381  20.070   7.404  11.376
83067W        W55382  26.181  18.712   0.389
83068W        W55383   6.338   9.158  13.987
83069W        W55384  18.123  31.623   1.929
83070W        W55385  18.653  34.101  10.602
83071W        W55386  43.396  21.181  10.049
83072W        W55387   4.287  29.967  11.995
83073W        W55388  38.461   0.928   0.935
83074W        W55389  44.412   4.925   2.296
83075W        W55390  22.568   3.432  14.311
83076W        W55391  20.154  15.657   0.353
83077W        W55392   0.974  12.321  10.577
83078W        W55393  43.995   0.418   3.284
83079W        W55394   5.916  28.969   2.677
83080W        W55395  13.603  10.829   1.251
83081W        W55396  27.995  35.918  13.385
83082W        W55397  18.591  39.425   4.247
83083W        W55398   6.228  41.787  11.105
83084W        W55399  27.463  26.527  11.553
83085W        W55400  20.643  39.921   2.843
83086W        W55401  33.963   1.281  11.454
83087W        W55402  25.137  36.848  13.331
83088W        W55403  29.561  41.432  10.577
83089W        W55404   9.313  16.144  14.431
83090W        W55405  30.017   8.171   4.830
83091W        W55406  36.935  31.921   4.721
83092W        W55407  39.504   5.354  13.973
83093W        W55408  21.744  37.013   3.763
83094W        W55409  28.579  11.338  10.501
83095W        W55410  22.696  24.154  12.862
83096W        W55411  19.066  32.068   1.699
83097W        W55412  39.039  35.413   4.790
83098W        W55413  11.632  12.222   1.281
83099W        W55414  39.878  17.156   1.920
83100W        W55415  16.668  43.320   1.855
83101W        W55416  24.202   7.360  10.458
83102W        W55417   0.467  36.999  10.929
83103W        W55418  37.556  44.982   0.481
83104W        W55419  40.393   7.899  12.445
83105W        W55420  11.749  38.905  13.520
83106W        W55421  31.511  30.037  14.383
83107W        W55422  44.388  35.935  13.349
83108W        W55423   6.837  22.713   1.450
83109W        W55424   0.766  28.595   2.328
83110W        W55425   1.405  42.028   1.776
83111W        W55426  34.108  37.012   4.611
83112W        W55427   3.307  41.523  13.452
83113W        W55428  26.996  28.178   3.222
83114W        W55429  42.872   3.792   0.460
83115W        W55430  37.940  10.157  10.531
83116W        W55431  22.563  41.489  11.122
83117W        W55432  29.452  15.757   3.631
83118W        W55433   9.179   2.305   0.824
83119W        W55434   8.699  29.618   2.852
83120W        W55435  37.507  32.053   1.724
83121W        W55436  44.760  14.212   3.847
83122W        W55437   3.767  29.608  13.486
83123W        W55438  25.529  38.041   4.128
83124W        W55439  30.657  22.204  12.857
83125W        W55440  27.542   9.808  12.400
83126W        W55441  42.313   8.834  10.955
83127W        W55442  28.956  34.472   0.770
83128W        W55443   5.394  13.644  12.461
83129W        W55444  39.954  41.402  13.445
83130W        W55445   7.707  37.494   5.181
83131W        W55446  42.793  16.187  10.505
83132W        W55447   9.333  25.506  10.641
83133W        W55448  24.136  15.121   4.186
83134W        W55449  23.217  27.013  12.903
83135W        W55450  28.121  13.704   0.746
83136W        W55451  35.475  37.045  13.416
83137W        W55452  19.587  14.771   2.758
83138W        W55453  31.508  23.070   0.933
83139W        W55454  13.623   3.407  10.414
83140W        W55455  43.931  24.018   2.276
83141W        W55456  33.930  25.672  13.488
83142W        W55457  39.380   9.161   2.795
83143W        W55458  42.994   7.211   1.339
83144W        W55459  40.926  34.440   2.180
83145W        W55460   1.350   4.424  10.543
83146W        W55461  17.741  26.480  13.391
83147W        W55462  27.036  39.953  10.478
83148W        W55463  40.529   4.297   2.236
83149W        W55464   8.675   5.273  13.807
83150W        W55465   7.287  31.522  11.418
83151W        W55466  36.915  41.397  14.514
83152W        W55467   1.460  15.238   3.848
83153W        W55468   0.764  30.412  11.554
83154W        W55469  19.169  16.223   1.377
83155W        W55470  16.149  37.021   0.857
83156W        W55471  41.963  16.194   1.787
83157W        W55472  40.417  18.643   2.285
83158W        W55473  37.508   7.909  11.494
83159W        W55474  18.616  30.920   1.932
83160W        W55475   8.349  30.954   1.225
83161W        W55476  13.285  36.348  10.888
83162W        W55477   0.933  36.374   5.709
83163W        W55478  12.257  31.474   3.755
83164W        W55479  36.361  42.419   4.171
83165W        W55480  30.527  36.392   2.411
83166W        W55481  32.425  20.545  13.487
83167W        W55482   3.718  21.090  13.319
83168W        W55483  19.239  39.389   2.407
83169W        W55484  36.584  30.446   3.863
83170W        W55485  21.588   3.310   2.202
83171W        W55486  19.641  24.166   1.218
83172W        W55487  43.998  22.136  11.099
83173W        W55488   0.912  23.081  10.569
83174W        W55489  28.488   2.296   3.732
83175W        W55490  40.926  11.338   4.160
83176W        W55491  14.132  38.448   0.370
83177W        W55492  41.345  20.550  14.295
83178W        W55493  19.097  36.058   3.797
83179W        W55494   7.815  15.276  13.022
83180W        W55495  34.450   1.271   4.142
83181W        W55496  30.444  18.567   2.405
83182W        W55497  13.751  32.893   4.197
83183W        W55498   5.882  37.833   1.307
83184W        W55499  30.503  37.066  14.310
83185W        W55500  36.566  35.496  11.042
83186W        W55501   9.328  21.135   5.192
83187W        W55502  37.517  17.784   3.854
83188W        W55503  16.263  31.071   4.267
83189W        W55504   1.439  33.072  14.324
83190W        W55505   0.249  18.700   2.313
83191W        W55506  13.341  24.146   1.389
83192W        W55507   6.730  17.243  12.507
83193W        W55508  19.243   8.345  12.829
83194W        W55509  21.192   9.696  10.981
83195W        W55510  28.932   7.889  11.958
83196W        W55511  14.238  27.680  14.915
83197W        W55512   6.323  23.206  14.777
83198W        W55513  18.072  12.832   4.124
83199W        W55514  15.121  21.115   4.163
83200W        W55515  37.435  41.948   3.374
83201W        W55516  35.420   6.867  11.123
83202W        W55517  24.001  13.747   4.787
83203W        W55518  13.195  30.073  11.465
83204W        W55519  36.066  29.087   4.352
83205W        W55520  28.501  14.286   1.343
83206W        W55521  44.401  37.840  13.366
83207W        W55522  19.080  40.045   3.193
83208W        W55523  13.185  15.728  13.481
83209W        W55524   6.866  26.995   1.340
83210W        W55525  13.161   7.175   2.681
83211W        W55526   6.804  11.254   0.314
83212W        W55527  28.029  44.326  12.873
83213W        W55528  30.651  25.596  13.791
83214W        W55529  30.945  26.956   1.283
83215W        W55530  19.612  39.947   5.185
83216W        W55531  34.500   5.244   4.637
83217W        W55532  18.732   9.379   5.180
83218W        W55533  44.997  33.446   1.800
83219W        W55534   2.464  44.793   0.432
83220W        W55535  40.517   8.772   4.778
83221W        W55536  38.496  32.917  10.433
83222W        W55537   6.775  16.252   1.698
83223W        W55538  44.428  34.536   0.942
83224W        W55539  18.173  17.306   3.380
83225W        W55540  13.711   1.884   2.185
83226W        W55541  34.885  36.983  11.504
83227W        W55542  26.487  40.967   0.772
83228W        W55543  16.672   9.859  12.033
83229W        W55544  26.112  36.427   1.306
83230W        W55545  22.633  44.343   4.285
83231W        W55546  38.357  12.619  12.867
83232W        W55547   4.444  38.443  14.936
83233W        W55548   7.755  39.038   2.356
83234W        W55549  39.992   3.849   3.679
83235W        W55550   3.303  26.482   0.917
83236W        W55551  36.964  17.756   0.283
83237W        W55552  40.340  35.476  10.592
83238W        W55553   8.202  17.065  10.488
83239W        W55554  34.912  27.669   2.770
83240W        W55555  32.983   8.386   0.821
83241W        W55556  42.902  39.837  13.477
83242W        W55557  33.446  41.858  10.587
83243W        W55558  19.563  42.478   0.872
83244W        W55559   2.235   4.222   1.363
83245W        W55560  19.148   4.318  12.067
83246W        W55561  32.951  26.997  10.567
83247W        W55562  12.250   3.764  13.829
83248W        W55563  34.879  37.378  14.378
83249W        W55564   9.767  43.799  11.395
83250W        W55565  40.952  26.667  11.545
83251W        W55566   9.317  20.124  10.644
83252W        W55567   1.968  32.068   4.645
83253W        W55568  10.756  38.388  10.444
83254W        W55569  31.964   1.467  12.378
83255W        W55570  29.634   0.959  11.376
83256W        W55571  24.112   1.322  10.461
83257W        W55572  37.932  34.001  13.867
83258W        W55573  36.898  40.893   3.729
83259W        W55574  10.324  36.363   4.653
83260W        W55575   9.727  31.900  13.899
83261W        W55576  26.162  36.909   4.751
83262W        W55577  12.201  27.175  13.532
83263W        W55578  38.942  42.425   0.815
83264W        W55579  36.013  22.722   2.267
83265W        W55580  23.615  16.637   4.671
83266W        W55581  23.090  32.596   4.189
83267W        W55582  11.341  26.154   3.730
83268W        W55583  11.128  38.406   3.803
83269W        W55584   5.770  36.863  11.453
83270W        W55585   4.913  43.776  11.506
83271W        W55586   2.813  16.606  13.476
83272W        W55587  16.222   0.323   0.272
83273W        W55588  32.477   2.258   0.776
83274W        W55589  43.779  26.071  13.355
83275W        W55590  25.210  29.459  11.521
83276W        W55591  34.413  28.090  11.482
83277W        W55592  27.508  10.317  10.570
83278W        W55593  36.371  23.146  12.848
83279W        W55594  42.871  24.140  12.511
83280W        W55595  33.920  42.911  10.901
83281W        W55596  13.130  43.923   0.432
83282W        W55597  41.519  23.147  12.013
83283W        W55598  18.061  25.058  13.983
83284W        W55599  40.799  32.987  12.966
83285W        W55600   3.723   4.715   3.833
83286W        W55601  39.374  34.965   2.744
83287W        W55602  31.555  12.630   3.375
83288W        W55603  42.851  10.762  10.591
83289W        W55604  33.078  40.471  13.029
83290W        W55605  25.588   0.828   1.740
83291W        W55606  41.789   5.245  12.913
83292W        W55607  21.168  35.509  12.540
83293W        W55608  21.534  37.405  14.776
83294W        W55609  43.432  40.912   2.409
83295W        W55610  17.219  14.610  14.358
83296W        W55611  43.020  24.172   2.418
83297W        W55612   8.894  42.365  10.475
83298W        W55613  20.161  31.058   2.706
83299W        W55614  36.900  39.045   0.416
83300W        W55615  40.450  29.547  11.411
83301W        W55616  11.354  12.345   4.674
83302W        W55617   9.802  19.066   5.607
83303W        W55618  13.806  25.072  12.074
83304W        W55619  14.131  14.777   2.798
83305W        W55620  33.436  31.010   2.738
83306W        W55621  13.297  37.508  13.436
83307W        W55622  29.148  36.891  10.485
83308W        W55623  44.439  40.836  10.564
83309W        W55624  38.969  25.481   5.726
83310W        W55625  11.339   0.268  12.901
83311W        W55626  14.290  12.150   3.650
83312W        W55627   7.893   0.924  13.907
83313W        W55628   5.903   1.825   0.478
83314W        W55629  43.904  28.122  12.848
83315W        W55630  42.311  31.024   2.187
83316W        W55631  42.850  21.744  13.322
83317W        W55632  26.115   5.344  12.496
83318W        W55633  20.031  14.133  11.999
83319W        W55634  13.600  14.590  13.953
83320W        W55635  20.544  27.527  13.899
83321W        W55636  17.297   5.840   1.295
83322W        W55637   1.433  30.020   4.819
83323W        W55638   8.888   8.737  10.643
83324W        W55639  30.468  10.233   3.867
83325W        W55640  11.139  31.077  11.930
83326W        W55641   1.394   9.389  13.507
83327W        W55642  16.646  21.648  13.407
83328W        W55643   1.453  25.497   0.407
83329W        W55644   2.758  38.501  12.861
83330W        W55645   5.915  20.079  10.469
83331W        W55646  20.626  36.042   4.798
83332W        W55647   5.350  41.929  13.916
83333W        W55648  40.983   3.388  11.610
83334W        W55649   9.755  12.850  14.826
83335W        W55650  28.561  30.598   1.433
83336W        W55651  40.052  11.804  10.418
83337W        W55652  16.270   3.927  12.947
83338W        W55653   4.235  31.466  14.464
83339W        W55654  32.912  32.589   0.726
83340W        W55655  15.216   0.258   1.241
83341W        W55656  43.805  29.646   4.821
83342W        W55657  25.588  41.519   1.339
83343W        W55658  38.071  24.503  10.404
83344W        W55659  10.293   0.962  13.465
83345W        W55660  41.368  20.217  11.465
83346W        W55661  16.624   1.385   2.895
83347W        W55662   7.383  26.545  13.429
83348W        W55663   7.790  22.092  13.389
83349W        W55664   6.816  33.555   1.399
83350W        W55665  33.093  28.173   2.823
83351W        W55666   4.394  41.417  12.983
83352W        W55667  17.572  40.805   1.335
83353W        W55668  39.060   2.868   1.418
83354W        W55669  44.877   6.297   0.474
83355W        W55670  14.631  33.549   2.832
83356W        W55671  40.309  27.551  10.596
83357W        W55672  29.944  17.094  13.847
83358W        W55673  17.222  27.690  13.318
83359W        W55674  40.518  14.192  11.568
83360W        W55675   7.885   8.801   4.253
83361W        W55676  20.544  21.650  14.920
83362W        W55677  39.066   0.433  12.905
83363W        W55678  43.297   4.296  10.539
83364W        W55679   9.734  11.295   4.225
83365W        W55680  20.689   2.437  11.513
83366W        W55681  11.826  39.377   0.468
83367W        W55682  34.865  25.478  14.807
83368W        W55683  41.971  27.662   4.673
83369W        W55684  26.100  33.599  14.418
83370W        W55685  12.769  43.935  11.462
83371W        W55686  32.138  35.910   2.749
83372W        W55687   2.964   8.205  12.349
83373W        W55688  27.608  43.356   0.438
83374W        W55689   6.885  12.155   1.748
83375W        W55690  18.267  31.623   2.338
83376W        W55691  28.085  21.599  11.463
83377W        W55692  29.128  35.977  10.555
83378W        W55693  34.879   7.882   2.290
83379W        W55694  11.821   4.886  14.466
83380W        W55695  34.423   7.259   3.715
83381W        W55696  13.321  19.764  14.317
83382W        W55697  43.966  25.504  12.539
83383W        W55698  18.161  17.765  13.335
83384W        W55699  38.539   1.962  11.951
83385W        W55700  27.096  32.454  10.585
83386W        W55701  23.101  42.402   2.287
83387W        W55702  33.484  36.437   0.458
83388W        W55703  44.944  20.121   0.836
83389W        W55704  30.475  43.016   0.883
83390W        W55705   9.172  15.760   1.283
83391W        W55706  29.168  16.304  11.024
83392W        W55707  22.204  22.229  13.942
83393W        W55708  36.399  32.139   3.869
83394W        W55709   0.405   8.755  12.486
83395W        W55710  40.812  43.450   2.714
83396W        W55711  37.065  40.459   4.800
83397W        W55712  25.540  41.812   2.801
83398W        W55713  31.014  24.223  13.501
83399W        W55714  31.433  27.668  12.490
83400W        W55715  14.648  38.324  10.579
83401W        W55716  15.113  43.862  10.944
83402W        W55717  24.006   5.251  11.476
83403W        W55718  36.085   9.268   2.304
83404W        W55719  14.271  14.318   3.737
83405W        W55720  19.081   1.874   1.334
83406W        W55721  28.566   4.906  12.002
83407W        W55722  37.555  21.149   0.757
83408W        W55723   0.804  32.138   0.797
83409W        W55724  16.081  32.973  14.377
83410W        W55725  41.795  35.497   0.926
83411W        W55726  17.767  40.044  12.064
83412W        W55727  10.360  28.443  14.349
83413W        W55728  38.357  30.070   2.808
83414W        W55729  19.159   7.810   2.883
83415W        W55730  44.852  21.609   2.689
83416W        W55731  13.235  19.063   1.329
83417W        W55732  16.798  32.896  12.013
83418W        W55733   7.290  31.474  11.867
83419W        W55734  19.550  25.985   1.769
83420W        W55735  17.077   4.259  11.905
83421W        W55736  23.044  21.699   0.288
83422W        W55737  41.365   6.222  12.444
83423W        W55738  13.301  24.065   2.733
83424W        W55739  13.128  33.422  10.058
83425W        W55740  26.592  38.062   0.770
83426W        W55741  28.443  30.110  12.426
83427W        W55742  43.461  28.661  14.858
83428W        W55743  27.447  16.760   2.680
83429W        W55744   8.309  44.840   1.273
83430W        W55745  38.033  29.015  11.998
83431W        W55746  33.537  26.615   0.895
83432W        W55747   6.413   3.252   3.207
83433W        W55748  17.678  44.780   0.767
83434W        W55749  30.944  41.389   4.167
83435W        W55750  26.076  34.913   0.303
83436W        W55751   3.338  23.491   0.832
83437W        W55752  40.996  22.196  12.842
83438W        W55753  42.987  16.612   3.644
83439W        W55754   6.818  10.310  11.012
83440W        W55755  39.948  39.900  14.452
83441W        W55756  35.917  42.829  14.289
83442W        W55757   4.280  29.029   3.733
83443W        W55758  37.087  25.015  11.937
83444W        W55759  34.028  26.672  12.538
83445W        W55760  24.170  39.004  14.497
83446W        W55761  34.451  20.670  14.490
83447W        W55762  28.597   7.734  10.431
83448W        W55763   7.295  42.003   1.335
83449W        W55764  10.810  29.466  12.862
83450W        W55765  12.186  41.854   4.174
83451W        W55766  41.316  13.663   4.826
83452W        W55767  28.022  31.130  10.961
83453W        W55768   5.781  37.029   0.730
83454W        W55769  35.964  41.893  12.953
83455W        W55770  11.156  31.405  10.962
83456W        W55771  16.172  24.479  14.450
83457W        W55772  43.337  25.035  10.894
83458W        W55773  16.628  22.533   3.639
83459W        W55774   6.217  10.197   1.752
83460W        W55775  15.799  37.986   1.724
83461W        W55776  13.728  18.125  14.809
83462W        W55777  18.280  23.064   1.436
83463W        W55778  44.924  40.829  13.935
83464W        W55779  13.236  37.570   0.283
83465W        W55780  39.529  15.813  13.423
83466W        W55781  13.321  24.693  13.913
83467W        W55782  12.237   6.819   3.375
83468W        W55783  30.947  24.526  11.989
83469W        W55784  38.925  26.634  14.940
83470W        W55785   9.376   7.842   2.338
83471W        W55786  32.940  21.572   2.211
83472W        W55787   1.887   0.768  13.516
83473W        W55788  25.039  13.217   2.213
83474W        W55789   2.319  24.705  13.348
83475W        W55790   1.268   7.905  14.890
83476W        W55791  31.557  15.769  10.457
83477W        W55792  43.793  17.779   0.278
83478W        W55793   6.347  27.132   2.298
83479W        W55794  20.185  34.912   3.684
83480W        W55795  29.642   3.397  14.828
83481W        W55796  42.829  24.717   4.322
83482W        W55797   3.249   6.393   3.287
83483W        W55798  21.181   2.364   4.267
83484W        W55799  26.029   1.279   0.447
83485W        W55800  22.201  16.213   3.272
83486W        W55801  28.141   5.915  10.517
83487W        W55802  26.473  38.449   2.353
83488W        W55803  37.515  12.138  11.387
83489W        W55804   1.406  35.057   0.302
83490W        W55805   1.247  15.243  14.921
83491W        W55806  24.143  37.926  12.878
83492W        W55807  31.541  32.516   2.209
83493W        W55808  29.028   1.440  11.508
83494W        W55809   6.223  42.943  13.458
83495W        W55810  36.906  20.223   0.288
83496W        W55811  19.638   0.906   1.245
83497W        W55812  32.082  43.006  13.850
83498W        W55813   9.266  30.576   3.650
83499W        W55814   2.853  41.363   3.868
83500W        W55815  29.576  28.163  10.012
83501W        W55816  21.625  20.240   1.427
83502W        W55817  31.029  31.533   1.349
83503W        W55818  11.727  15.113   0.834
83504W        W55819  24.988  37.558   0.359
83505W        W55820  23.618  37.042  10.481
83506W        W55821  13.312  17.795   0.806
83507W        W55822  35.386  39.040  13.328
83508W        W55823  30.153  21.065  12.352
83509W        W55824  31.643   1.452   2.192
83510W        W55825  23.561  31.119  12.016
83511W        W55826  39.945  38.429  13.448
83512W        W55827  35.477  20.117  11.533
83513W        W55828  33.525  10.863   2.253
83514W        W55829  29.455  13.816  11.412
83515W        W55830   3.956  40.404   4.272
83516W        W55831  37.039  13.706  11.431
83517W        W55832  43.425  30.948  13.900
83518W        W55833   2.425  10.327  13.316
83519W        W55834  11.806   8.297   3.717
83520W        W55835   6.826  13.211   1.398
83521W        W55836  10.641  21.584   4.769
83522W        W55837  36.979  29.537   4.164
83523W        W55838  36.990  27.644   2.352
83524W        W55839   8.767  42.509  11.931
83525W        W55840  12.302  10.322   4.161
83526W        W55841  32.479  25.982   4.696
83527W        W55842  25.667  40.925   1.253
83528W        W55843  13.199  25.674  10.962
83529W        W55844  32.575  41.482   0.335
83530W        W55845   5.704  28.174   4.238
83531W        W55846  44.433  42.438  14.464
83532W        W55847  38.980   2.263   2.668
83533W        W55848   2.897   3.918   1.886
83534W        W55849   4.906   4.230  12.962
83535W        W55850  15.817   1.919   1.429
83536W        W55851   1.472   3.824   0.825
83537W        W55852  15.198  38.493   4.244
83538W        W55853  28.518  13.651   4.334
83539W        W55854  12.765  12.250   0.377
83540W        W55855  20.612  41.294   4.753
83541W        W55856  30.155  40.799  14.376
83542W        W55857  31.081  12.656  11.126
83543W        W55858  40.401  35.011   3.859
83544W        W55859  23.063  39.336   4.158
83545W        W55860  33.572  34.937  14.894
83546W        W55861  39.349  31.133  11.034
83547W        W55862  34.066  27.687   3.643
83548W        W55863  35.056  18.059  11.588
83549W        W55864  19.175  19.230  11.038
83550W        W55865   8.363   9.312   0.463
83551W        W55866  21.574  15.660   0.411
83552W        W55867  29.478   6.346   2.390
83553W        W55868  13.240  12.275   4.252
83554W        W55869  13.192   3.298   2.295
83555W        W55870  25.699   3.359   4.716
83556W        W55871  30.578  23.023  11.439
83557W        W55872  19.178  41.002   3.257
83558W        W55873  40.341   5.214   0.962
83559W        W55874  19.218   8.182   0.751
83560W        W55875   2.457  13.289  13.541
83561W        W55876  29.982  32.008   3.728
83562W        W55877  17.619  15.130  13.034
83563W        W55878  34.103  26.110   3.745
83564W        W55879   8.382  37.564  13.366
83565W        W55880   6.363  33.129   0.253
83566W        W55881  23.120  14.217   3.719
83567W        W55882  10.687  28.583  13.032
83568W        W55883   2.286  42.299  10.605
83569W        W55884  11.689  43.794   2.673
83570W        W55885  36.018   5.787  14.430
83571W        W55886   5.759  32.019   4.195
83572W        W55887   7.252   7.226  14.326
83573W        W55888   2.240   0.373  13.917
83574W        W55889  39.439  33.967   3.272
83575W        W55890  22.632  22.066  13.844
83576W        W55891  42.289  26.105   1.882
83577W        W55892  16.755   6.908   3.341
83578W        W55893  30.514  35.855  13.809
83579W        W55894   8.856   2.936   2.761
83580W        W55895  21.176  37.079  10.489
83581W        W55896   2.795  17.679  10.991
83582W        W55897  14.769  10.763  13.012
83583W        W55898  10.700  16.126   5.798
83584W        W55899  32.012  32.002   4.629
83585W        W55900  14.630  13.813  12.522
83586W        W55901  19.074  30.475  10.957
83587W        W55902  38.057  12.746   5.255
83588W        W55903   4.423   5.264  11.024
83589W        W55904  10.641  11.707   4.664
83590W        W55905   3.712  21.186  12.894
83591W        W55906  21.699  41.010   1.282
83592W        W55907  44.783  12.312   4.714
83593W        W55908  27.174   5.693   1.342
83594W        W55909  40.492  12.810   1.935
83595W        W55910  18.089  31.487  12.094
83596W        W55911  21.732  23.534   2.850
83597W        W55912  10.705  38.025  12.464
83598W        W55913  16.590  43.385   4.656
83599W        W55914  16.174  44.301  10.091
83600W        W55915  41.435  11.726   4.238
83601W        W55916  15.759  13.700  12.579
83602W        W55917   1.288  36.910  14.841
83603W        W55918   2.966   6.729   4.185
83604W        W55919  30.638  42.307  14.281
83605W        W55920  32.003  14.254   2.902
83606W        W55921   0.294  15.306   1.333
83607W        W55922  22.151  10.186   3.160
83608W        W55923   4.275  11.640   3.691
83609W        W55924  24.168   9.188  13.897
83610W        W55925  17.105   4.903   2.832
83611W        W55926  36.861  21.573  14.792
83612W        W55927  44.339   1.943   4.746
83613W        W55928  11.793  37.031  12.830
83614W        W55929   2.924  25.974   2.298
83615W        W55930  20.655  32.030  10.626
83616W        W55931  18.225   5.918   1.213
83617W        W55932  33.001  37.490   0.395
83618W        W55933   5.350  16.075  13.886
83619W        W55934  16.099  35.050   3.794
83620W        W55935   2.748   4.443  12.970
83621W        W55936   4.448   0.336   0.853
83622W        W55937   0.440  12.320  12.497
83623W        W55938   6.702   4.756   4.822
83624W        W55939  38.401  42.854   4.727
83625W        W55940  31.054  18.632   3.720
83626W        W55941  13.600  40.400  11.399
83627W        W55942  34.020  41.957   0.728
83628W        W55943  24.109   3.845   3.693
83629W        W55944  29.477  12.698   3.307
83630W        W55945   3.793   5.797  11.894
83631W        W55946  15.594  11.361   4.732
83632W        W55947  23.100  25.618  13.527
83633W        W55948  42.854  12.227  10.489
83634W        W55949  33.429  41.504   3.285
83635W        W55950  13.751   6.222  10.494
83636W        W55951  26.552  40.890  12.496
83637W        W55952   3.459  32.914   3.815
83638W        W55953  18.552  28.515  12.080
83639W        W55954  37.912  28.073   3.773
83640W        W55955  26.568  27.174  14.887
83641W        W55956  14.757  15.720  10.457
83642W        W55957  27.049  26.628   1.907
83643W        W55958  25.191  32.083  10.047
83644W        W55959  12.834   8.233  14.973
83645W        W55960  35.985  40.309  13.799
83646W        W55961  19.251  28.631  13.826
83647W        W55962   8.354  18.559  13.858
83648W        W55963  11.163  18.223  10.642
83649W        W55964  24.169  21.048  13.810
83650W        W55965  19.107  36.395  13.037
83651W        W55966  16.202  32.062  14.427
83652W        W55967  30.130  26.966   4.320
83653W        W55968   7.886   0.811   0.921
83654W        W55969  40.392  40.369  14.369
83655W        W55970  44.798  10.249   1.372
83656W        W55971  24.528   7.692  12.354
83657W        W55972   3.798  38.408   1.855
83658W        W55973  10.199  26.123  13.857
83659W        W55974  10.872  13.642   2.192
83660W        W55975  11.141  27.594  10.446
83661W        W55976  12.786  27.109   3.817
83662W        W55977  36.439  23.022   1.851
83663W        W55978   1.746   5.265  11.428
83664W        W55979   7.677   6.292   4.675
83665W        W55980  32.478  31.527  13.510
83666W        W55981   8.389  30.983   4.154
83667W        W55982  19.601   2.883   0.351
83668W        W55983   8.797  26.082   0.819
83669W        W55984   1.373   0.782  13.876
83670W        W55985  26.645  28.522   2.270
83671W        W55986  14.150  25.138   1.253
83672W        W55987  22.027  10.637  10.959
83673W        W55988  20.223  23.111  11.386
83674W        W55989  30.499  20.221  10.893
83675W        W55990  12.836  13.262  14.946
83676W        W55991   8.174  23.678  11.970
83677W        W55992  20.542   5.293   2.885
83678W        W55993  32.485  23.076   3.642
83679W        W55994   0.773  43.855  14.931
83680W        W55995   0.266  36.462  14.380
83681W        W55996   1.839  44.332   0.317
83682W        W55997  12.617  42.487   0.890
83683W        W55998  19.101  35.508  12.466
83684W        W55999  12.832  10.332  14.793
83685W        W56000  32.973   4.207   0.922
83686W        W56001   6.702  29.523  11.948
83687W        W56002  30.627   0.271   1.759
83688W        W56003  42.795  18.165   0.408
83689W        W56004  41.459   8.249  10.428
83690W        W56005  28.136   8.774   3.321
83691W        W56006   0.766  44.281   4.829
83692W        W56007  10.222  16.786  11.083
83693W        W56008  10.699  20.161  10.906
83694W        W56009   5.822  11.278   1.912
83695W        W56010   0.407  10.309  12.399
83696W        W56011  15.692   0.846   3.261
83697W        W56012  36.027   6.395  13.451
83698W        W56013   3.726   1.860  14.366
83699W        W56014  32.928  37.374   4.630
83700W        W56015   2.379   3.953  12.539
83701W        W56016  22.059  23.633   1.433
83702W        W56017   5.256  19.167   3.219
83703W        W56018  41.833  28.067   4.250
83704W        W56019  44.480  37.484  10.557
83705W        W56020   7.202  13.147  12.519
83706W        W56021  11.327  29.978   3.751
83707W        W56022   2.363   9.211   2.873
83708W        W56023  30.432  42.460   1.442
83709W        W56024  32.480  26.029  14.890
83710W        W56025  30.141   9.277  11.038
83711W        W56026  13.316  40.455  11.377
83712W        W56027  42.368   7.179   2.787
83713W        W56028  32.501   2.331  12.399
83714W        W56029  28.641  16.298  10.960
83715W        W56030   1.265  12.689  13.447
83716W        W56031  37.835  15.703   4.221
83717W        W56032  17.628  30.611  12.413
83718W        W56033  31.531  34.049  14.392
83719W        W56034  26.181  27.448  10.903
83720W        W56035  21.581  36.993  11.125
83721W        W56036  16.311  18.713   0.478
83722W        W56037  34.535   2.441  10.555
83723W        W56038  39.415  37.877   1.864
83724W        W56039  10.782   9.871   4.685
83725W        W56040  11.633  20.706  11.088
83726W        W56041  38.494  15.590  13.517
83727W        W56042  27.173   8.314  11.504
83728W        W56043  22.196  26.086  12.936
83729W        W56044  25.644  39.463  13.792
83730W        W56045  39.030  16.644  13.307
83731W        W56046  31.074  27.570  10.519
83732W        W56047  25.712  12.719   4.231
83733W        W56048  33.598  26.468  11.894
83734W        W56049  29.527  39.816   9.954
83735W        W56050  34.463  32.023  10.574
83736W        W56051  11.809  37.352  14.403
83737W        W56052  39.837  20.608  12.856
83738W        W56053  30.137   7.891  14.801
83739W        W56054  42.301  20.542   0.268
83740W        W56055  14.165  39.854  14.386
83741W        W56056  14.605  17.562   3.372
83742W        W56057  28.006  21.030   9.940
83743W        W56058  37.546  14.183   3.863
83744W        W56059  19.196  10.355  11.057
83745W        W56060   8.880  31.918  11.935
83746W        W56061   9.888   1.940  11.058
83747W        W56062   7.692   3.317  13.816
83748W        W56063  37.371   0.771  10.543
83749W        W56064  26.111  36.501  13.845
83750W        W56065  43.952   4.778   4.786
83751W        W56066  38.925  38.070   4.219
83752W        W56067  32.029  25.615   3.851
83753W        W56068  24.008  25.014  14.276
83754W        W56069  43.290  22.597  13.855
83755W        W56070   3.740  30.496  12.441
83756W        W56071  12.117  29.031   3.765
83757W        W56072   2.366   3.251   1.884
83758W        W56073  37.904  27.480  12.961
83759W        W56074  42.489  37.909   3.331
83760W        W56075  22.601   0.250  12.425
83761W        W56076  39.540   8.289  11.555
83762W        W56077  29.616   0.310   3.865
83763W        W56078  44.896   1.409  10.489
83764W        W56079  35.917  26.970  11.419
83765W        W56080  41.810   6.805  11.078
83766W        W56081   1.770  38.492   2.804
83767W        W56082  14.621   9.665   0.967
83768W        W56083  28.601  32.127   1.447
83769W        W56084   3.250  37.425   2.826
83770W        W56085  42.429  33.530   2.886
83771W        W56086  40.353  14.622  12.367
83772W        W56087  31.002   5.792   3.714
83773W        W56088  29.035  38.566   2.794
83774W        W56089  36.348  28.167  10.904
83775W        W56090  41.391  11.767  13.468
83776W        W56091   2.316  22.665  12.560
83777W        W56092  40.319  29.997  14.301
83778W        W56093  44.792  18.262   3.367
83779W        W56094   2.365  20.195  12.533
83780W        W56095  23.655  15.709   1.397
83781W        W56096  41.297  18.572   2.197
83782W        W56097  32.059  37.949  12.523
83783W        W56098  41.821  25.066  13.538
83784W        W56099  35.967  38.931  13.348
83785W        W56100  26.131  37.550  10.508
83786W        W56101   2.723   1.453  13.816
83787W        W56102  12.661   6.275   4.321
83788W        W56103  13.738  12.644  11.930
83789W        W56104  37.352  28.476   2.192
83790W        W56105  11.165  27.943  14.276
83791W        W56106  32.420  28.979  13.003
83792W        W56107  20.600  18.080  10.472
83793W        W56108  12.816  18.249  11.858
83794W        W56109  13.746   3.426  11.875
83795W        W56110  34.041  26.477   5.108
83796W        W56111  21.720  29.157   4.716
83797W        W56112   7.240  28.150   1.894
83798W        W56113  19.135   0.938   2.348
83799W        W56114   2.816  35.461  13.407
83800W        W56115  16.717  43.908   2.345
83801W        W56116  20.118  19.546   0.274
83802W        W56117   8.816   8.737   4.218
83803W        W56118  40.849   5.746   3.781
83804W        W56119  44.286  24.561  14.401
83805W        W56120  43.008  44.486  13.528
83806W        W56121  32.095  13.724   2.867
83807W        W56122   1.475  17.761   1.343
83808W        W56123  28.971  33.502  14.872
83809W        W56124   7.759  39.489  10.524
83810W        W56125  26.090   6.261   5.594
83811W        W56126   0.455   7.736   1.398
83812W        W56127  13.288  43.815  11.605
83813W        W56128  41.859  20.267   0.437
83814W        W56129  11.687  35.526   4.826
83815W        W56130  17.105  40.309  12.340
83816W        W56131  34.994  16.665   3.864
83817W        W56132  34.588   7.903   0.480
83818W        W56133  40.425  33.460  13.977
83819W        W56134  39.359  31.500   4.126
83820W        W56135  36.531  28.653  10.448
83821W        W56136  13.829  34.579  13.458
83822W        W56137   9.833   2.327  14.485
83823W        W56138  37.889  40.471   2.284
83824W        W56139   3.908   3.884   0.366
83825W        W56140  37.933  31.450   1.433
83826W        W56141  42.318  41.867   4.726
83827W        W56142  37.573  10.875  10.970
83828W        W56143  16.717  38.396   4.758
83829W        W56144  16.633  12.342  13.873
83830W        W56145  26.562  14.114  13.041
83831W        W56146   5.211  36.872  13.526
83832W        W56147   4.811  28.151   5.101
83833W        W56148   5.293  14.133  13.475
83834W        W56149   7.379  38.048  11.597
83835W        W56150   0.351  38.552  13.506
83836W        W56151  21.712   0.400   4.598
83837W        W56152  27.513  31.085   5.716
83838W        W56153  33.569   4.744   4.155
83839W        W56154  26.534  12.840   4.667
83840W        W56155   9.890   0.821  14.964
83841W        W56156  25.544  15.592   3.237
83842W        W56157  20.074  44.392  12.856
83843W        W56158  31.151   1.731  14.764
83844W        W56159  11.852  44.261  14.845
83845W        W56160  23.639  19.196   3.632
83846W        W56161  15.773  37.041   3.647
83847W        W56162  24.714  16.167   4.679
83848W        W56163  37.928  12.690   1.904
83849W        W56164  13.240  24.573   0.343
83850W        W56165  30.627  19.697  10.635
83851W        W56166  42.917  13.604   3.778
83852W        W56167  26.140  43.460  13.036
83853W        W56168  26.673  14.787   4.654
83854W        W56169  18.259   4.721  14.881
83855W        W56170   6.267  37.888  10.946
83856W        W56171  27.476  33.617  13.038
83857W        W56172  17.613   8.395   3.711
83858W        W56173   5.887  20.572  12.896
83859W        W56174   0.274   4.834  14.912
83860W        W56175   9.204   1.923  11.939
83861W        W56176   2.241  34.050  13.962
83862W        W56177   4.841  42.515   2.350
83863W        W56178  28.144  37.882  12.402
83864W        W56179  39.852   1.466  14.303
83865W        W56180  39.341  10.246   0.898
83866W        W56181  12.649  19.551   0.420
83867W        W56182   5.810  43.815  12.834
83868W        W56183  21.740   9.154  11.595
83869W        W56184  30.431  37.967  11.001
83870W        W56185  18.278  39.000   3.368
83871W        W56186  43.443  11.806   4.663
83872W        W56187  39.942   5.830   0.290
83873W        W56188  44.440  27.627   4.170
83874W        W56189  25.622   1.443   1.409
83875W        W56190  15.302  36.996  12.352
83876W        W56191  43.904  13.609   2.806
83877W        W56192   4.933  16.226   3.220
83878W        W56193  38.522  17.173  12.848
83879W        W56194   1.793  17.793   1.244
83880W        W56195  31.111  19.555   0.350
83881W        W56196  14.151   5.233  12.542
83882W        W56197  31.637  15.157  12.000
83883W        W56198   3.324  10.313  10.443
83884W        W56199   5.794  26.559  10.595
83885W        W56200  19.277  22.065   4.660
83886W        W56201  34.976  12.123   1.932
83887W        W56202   7.755  23.524  12.967
83888W        W56203  41.984  25.527   1.360
83889W        W56204  20.258  25.161  12.888
83890W        W56205  15.310  42.450  13.480
83891W        W56206  21.566  43.381   0.942
83892W        W56207   2.365  41.799  13.012
83893W        W56208  42.339  38.552  11.878
83894W        W56209   7.256  16.654   2.709
83895W        W56210  13.612  28.940  11.876
83896W        W56211  42.887   0.831  12.437
83897W        W56212  31.052  22.050   2.837
83898W        W56213  41.014  19.752  11.950
83899W        W56214  31.414  12.247   2.800
83900W        W56215  17.118  13.229  12.836
83901W        W56216   7.780  30.119   2.859
83902W        W56217  30.008  44.801   1.813
83903W        W56218  23.186  39.031  10.611
83904W        W56219   6.226  20.679  10.415
83905W        W56220  24.636  40.538  12.498
83906W        W56221  10.384  35.870  10.011
83907W        W56222  42.998  26.130   2.335
83908W        W56223  12.787   3.348   4.627
83909W        W56224  18.141  21.135   0.346
83910W        W56225   7.415  15.709  13.364
83911W        W56226  21.082   2.271  14.890
83912W        W56227   4.340  25.700   1.426
83913W        W56228   6.424  15.737   3.830
83914W        W56229  31.983  22.526  11.013
83915W        W56230   4.776  19.198   4.676
83916W        W56231   2.243  36.874   2.401
83917W        W56232  27.150  20.540  11.374
83918W        W56233  31.047   9.378   3.335
83919W        W56234  30.089  32.056  10.043
83920W        W56235  36.849  25.581  10.625
83921W        W56236  33.095  27.538   4.783
83922W        W56237   2.817  11.705   1.838
83923W        W56238  37.919   0.251   0.745
83924W        W56239  27.975  25.069  11.532
83925W        W56240   4.431   3.373   0.383
83926W        W56241   4.264  16.084  13.483
83927W        W56242  31.916   6.832   3.175
83928W        W56243   3.760   8.770   1.319
83929W        W56244  14.312  11.838  13.974
83930W        W56245  31.605   1.869   1.845
83931W        W56246  43.880   2.238  14.278
83932W        W56247   9.336  23.145   3.727
83933W        W56248   7.875   4.702  14.468
83934W        W56249  37.493  37.571  14.404
83935W        W56250  13.834  15.153   4.610
83936W        W56251  10.715  13.634   3.661
83937W        W56252  18.294   0.768   1.344
83938W        W56253  21.538  20.067  12.385
83939W        W56254  26.021  19.239  14.292
83940W        W56255  33.519   4.296  13.064
83941W        W56256  22.598   7.324   2.827
83942W        W56257  23.051  31.114  14.284
83943W        W56258  38.943   6.814   2.797
83944W        W56259   7.847  10.687   3.831
83945W        W56260  17.282  17.570   4.201
83946W        W56261  39.957  16.703   3.243
83947W        W56262  33.580   3.431  11.378
83948W        W56263  16.667  36.937  14.423
83949W        W56264  33.570   2.431  12.954
83950W        W56265   7.345   3.759  12.979
83951W        W56266  36.979  28.180   1.875
83952W        W56267  43.350  42.789   4.741
83953W        W56268  24.022  44.448  11.964
83954W        W56269  34.076  27.453  12.535
83955W        W56270  35.573   4.885   3.663
83956W        W56271  23.028  42.416   1.354
83957W        W56272   1.263  22.524   1.234
83958W        W56273   6.701  23.100  10.554
83959W        W56274  13.672  14.167   2.788
83960W        W56275  14.833   1.757   5.173
83961W        W56276   6.742  44.413   1.324
83962W        W56277   5.754  41.348   4.615
83963W        W56278  15.124  28.441  14.933
83964W        W56279  41.914   2.249   4.778
83965W        W56280  34.415  26.608   4.251
83966W        W56281  20.684  28.504  13.478
83967W        W56282   3.907  22.515  10.021
83968W        W56283  13.338   2.914   4.339
83969W        W56284  15.091  22.695   1.713
83970W        W56285   0.758  44.905   0.289
83971W        W56286  19.736   0.421   3.834
83972W        W56287   6.211   1.929  11.505
83973W        W56288  30.113  23.220  12.073
83974W        W56289   3.409  37.470  14.302
83975W        W56290  42.792  25.579  14.495
83976W        W56291  42.418  40.055  11.927
83977W        W56292  20.630   5.913   3.631
83978W        W56293  13.227  22.159   0.854
83979W        W56294  20.760  41.496   2.672
83980W        W56295  35.091  43.894   2.283
83981W        W56296  36.447  40.942   0.430
83982W        W56297  15.203  17.759  12.342
83983W        W56298  30.498  13.787  11.478
83984W        W56299   4.256  13.122  13.470
83985W        W56300  37.950  31.452  11.545
83986W        W56301   5.745   6.689   3.186
83987W        W56302   5.732  41.988  12.505
83988W        W56303   4.903  18.785  13.048
83989W        W56304  42.845  17.200   1.826
83990W        W56305  18.686  25.652  13.519
83991W        W56306  14.278   7.896   3.219
83992W        W56307  24.999  38.349   0.913
83993W        W56308  42.519   4.347  12.991
83994W        W56309  28.469  23.667   3.718
83995W        W56310   2.412  18.580  13.360
83996W        W56311  19.079  25.476   4.178
83997W        W56312   5.713  29.017  11.966
83998W        W56313  10.211  14.226  13.999
83999W        W56314  39.955  34.615   4.799
84000W        W56315   9.238  24.037   1.725
84001W        W56316   8.348  32.619   1.223
84002W        W56317  42.800  24.060   1.825
84003W        W56318  35.911  13.601   3.867
84004W        W56319  22.110  20.095   1.424
84005W        W56320  41.318   0.355  13.425
84006W        W56321  44.500  15.187  13.481
84007W        W56322   6.416   2.732  10.974
84008W        W56323  12.635  31.628  10.438
84009W        W56324  37.545  23.136   0.405
84010W        W56325  25.213   4.385  14.421
84011W        W56326   0.397  38.557  13.988
84012W        W56327  33.968   4.776   1.737
84013W        W56328  23.703  28.552  14.829
84014W        W56329  17.785  10.716   5.304
84015W        W56330  11.808  11.260  13.341
84016W        W56331  29.924  17.083   0.339
84017W        W56332  12.322  16.615   9.677
84018W        W56333   2.771   4.386   3.187
84019W        W56334  44.347   3.217   5.315
84020W        W56335  12.143  16.659   0.338
84021W        W56336  23.070  36.588   3.842
84022W        W56337  32.137  20.676   0.415
84023W        W56338  44.896  37.946  11.441
84024W        W56339  33.962  11.652  12.557
84025W        W56340   0.825  19.123  13.054
84026W        W56341  28.993  15.785   2.809
84027W        W56342  41.529  29.019   1.908
84028W        W56343   5.693  35.602  10.537
84029W        W56344  35.894   1.260   3.368
84030W        W56345  13.133  10.197   3.699
84031W        W56346  41.319  15.128   0.883
84032W        W56347  14.665  37.461  10.041
84033W        W56348  10.845  24.124   0.269
84034W        W56349  38.940  25.988  14.468
84035W        W56350  28.550  22.203  12.047
84036W        W56351  19.700  42.370  12.553
84037W        W56352  42.416  22.051  10.940
84038W        W56353  33.613  17.737  14.371
84039W        W56354  24.686   1.844   2.332
84040W        W56355  31.067   2.775   1.401
84041W        W56356  36.425  30.993   2.834
84042W        W56357  33.383  14.170   5.212
84043W        W56358  35.531  25.654  14.446
84044W        W56359   7.393  26.525   0.899
84045W        W56360  26.510  21.521  12.968
84046W        W56361  30.498  27.970   2.719
84047W        W56362   6.399  24.525   3.754
84048W        W56363  39.518  38.869  11.967
84049W        W56364  11.677  31.105   0.807
84050W        W56365  27.662  43.270   3.278
84051W        W56366   2.352  39.552  13.526
84052W        W56367  26.204  25.062  11.889
84053W        W56368  29.487  26.526   3.733
84054W        W56369  33.439  33.405   0.465
84055W        W56370   1.378   6.778   3.199
84056W        W56371   2.864  32.409   4.731
84057W        W56372  23.133  12.718   2.848
84058W        W56373  19.757  11.733   2.205
84059W        W56374   1.948   8.223   3.758
84060W        W56375  36.022   3.827  10.586
84061W        W56376  41.894  32.008  13.844
84062W        W56377   2.345   3.403  10.083
84063W        W56378  15.597   9.839   0.803
84064W        W56379   2.935  18.655  12.537
84065W        W56380  34.416  43.281   3.715
84066W        W56381   4.268  28.600  12.459
84067W        W56382  39.352  22.162  10.948
84068W        W56383  11.722  20.137   4.132
84069W        W56384  27.617  18.664   0.481
84070W        W56385  36.919  24.565   0.842
84071W        W56386  28.163   5.815  13.047
84072W        W56387  38.071  17.724  14.373
84073W        W56388  12.807   1.366   4.641
84074W        W56389  13.759   5.217  13.810
84075W        W56390   6.322  29.097  13.467
84076W        W56391   3.868  26.580  10.946
84077W        W56392  38.894  34.615   4.642
84078W        W56393  23.172  21.168  12.833
84079W        W56394  29.597  17.637   0.282
84080W        W56395  36.400  40.308   1.445
84081W        W56396  19.157  30.973  14.763
84082W        W56397   0.904  30.498   4.188
84083W        W56398  12.273   3.798   3.156
84084W        W56399  41.364  30.598  13.366
84085W        W56400   9.353  36.961   4.636
84086W        W56401   8.896  12.793   4.777
84087W        W56402   4.334  11.302  11.548
84088W        W56403  34.013  43.415  10.916
84089W        W56404  12.744   5.256   2.673
84090W        W56405  44.331  43.408  14.759
84091W        W56406  30.154  32.020   2.321
84092W        W56407  37.063  12.661   4.199
84093W        W56408   3.864   0.796  14.900
84094W        W56409  25.041   3.795  13.967
84095W        W56410  26.573  28.630   3.643
84096W        W56411  19.073  14.272  11.385
84097W        W56412  38.921   8.396   2.692
84098W        W56413  13.609  44.279  10.959
84099W        W56414  29.622  12.655  10.437
84100W        W56415  37.566  34.547   3.846
84101W        W56416   5.720  21.530  14.340
84102W        W56417  24.121  32.506  14.968
84103W        W56418   1.873   3.241   4.642
84104W        W56419  39.459   6.251  12.552
84105W        W56420   6.777  10.750  10.491
84106W        W56421  44.968   3.916  10.463
84107W        W56422  23.048  42.478  14.927
84108W        W56423  38.358  44.502   2.405
84109W        W56424  23.182  36.592  12.500
84110W        W56425  29.019   0.309   0.471
84111W        W56426  28.169  24.558  12.016
84112W        W56427  28.635   1.249  13.343
84113W        W56428  14.279   5.816   0.358
84114W        W56429  10.372  29.563   2.697
84115W        W56430  41.328  39.981  12.075
84116W        W56431  24.494  39.377  10.916
84117W        W56432  27.146   9.336   2.348
84118W        W56433   0.249  32.391   2.379
84119W        W56434   0.346  38.071  11.963
84120W        W56435  14.123   3.798  13.509
84121W        W56436  18.163  40.826  11.088
84122W        W56437  35.978  23.987   1.805
84123W        W56438  17.558  21.262   1.243
84124W        W56439  22.564  41.445   2.699
84125W        W56440  36.439  33.562  12.831
84126W        W56441  13.774   3.262  12.527
84127W        W56442  15.819   2.234  14.344
84128W        W56443   3.222  20.259  13.540
84129W        W56444  36.886  32.533  13.390
84130W        W56445  31.048   9.719   0.268
84131W        W56446  42.982  32.455   2.777
84132W        W56447  27.667  28.466  14.302
84133W        W56448  33.131  18.055  10.963
84134W        W56449  31.447  36.843   2.209
84135W        W56450  26.150   8.208   4.761
84136W        W56451  18.096  39.325   3.828
84137W        W56452  29.167  41.850  13.530
84138W        W56453  38.568   5.850  10.526
84139W        W56454   2.405  42.030   3.240
84140W        W56455  23.636  30.111  13.859
84141W        W56456   6.339   8.792   3.198
84142W        W56457  12.225   4.781  13.814
84143W        W56458  17.612  37.919   1.826
84144W        W56459  13.202  34.058   4.668
84145W        W56460  35.948  10.186   1.809
84146W        W56461  16.645   6.410  12.007
84147W        W56462  44.402  30.571  11.079
84148W        W56463   8.214   4.857   9.954
84149W        W56464  42.011  29.507   1.755
84150W        W56465  12.685  29.494  13.317
84151W        W56466   7.317  21.746   1.913
84152W        W56467   6.723  16.813   4.303
84153W        W56468  42.508  44.271  10.632
84154W        W56469  38.459  28.163   3.670
84155W        W56470  20.553  25.031   3.846
84156W        W56471  30.014  19.161  10.555
84157W        W56472  26.470  33.965  11.454
84158W        W56473  13.146   5.934   0.361
84159W        W56474  24.481  33.520   2.344
84160W        W56475  32.957  40.916   2.221
84161W        W56476  20.559  13.348  14.773
84162W        W56477  12.853  13.600  11.034
84163W        W56478  40.545  29.972   3.659
84164W        W56479  28.636   6.676   3.789
84165W        W56480  36.960   4.712   4.258
84166W        W56481   1.871  26.062   1.243
84167W        W56482  33.974  31.517   3.767
84168W        W56483  21.754  35.903  13.985
84169W        W56484  14.178  17.075  10.962
84170W        W56485  42.849  37.504  10.062
84171W        W56486   2.305   8.209  12.028
84172W        W56487  27.645  11.790   1.405
84173W        W56488  35.957  20.540  14.471
84174W        W56489   0.792  10.339   5.141
84175W        W56490  26.522  36.436  10.502
84176W        W56491  42.469  14.123  12.063
84177W        W56492  37.411   7.838  13.833
84178W        W56493   9.833   6.699  12.505
84179W        W56494  34.980  39.440  10.581
84180W        W56495  22.080   5.405  12.344
84181W        W56496  16.209  25.694   0.817
84182W        W56497  11.269   8.774  14.976
84183W        W56498   3.715  41.465   1.762
84184W        W56499  28.526  24.673  11.471
84185W        W56500   0.920  36.500   1.753
84186W        W56501  14.318  33.125  14.028
84187W        W56502  25.081  23.237  13.872
84188W        W56503   0.431   1.887   1.929
84189W        W56504  32.058  18.787  10.980
84190W        W56505   4.357  31.412  14.824
84191W        W56506  16.743  32.009   3.648
84192W        W56507  31.552   4.863  10.050
84193W        W56508  35.977  27.670   4.313
84194W        W56509   0.798  42.479   1.371
84195W        W56510  20.198  35.937   4.177
84196W        W56511  23.570   0.837   2.717
84197W        W56512  26.581  35.586  12.543
84198W        W56513  23.500  25.548   4.767
84199W        W56514  14.116  35.088  14.031
84200W        W56515  36.418  10.265  12.057
84201W        W56516   3.401   4.867  10.968
84202W        W56517  26.607  24.001   0.877
84203W        W56518  35.592  31.965  10.539
84204W        W56519  35.026  19.597  10.030
84205W        W56520  30.446   7.185   2.373
84206W        W56521   0.293   9.262   0.826
84207W        W56522  20.648   0.924   2.375
84208W        W56523  38.845   7.381  14.937
84209W        W56524   5.243  41.875   4.772
84210W        W56525   0.478   6.745   2.801
84211W        W56526   2.226  35.419   2.354
84212W        W56527  31.612  42.819   0.766
84213W        W56528   0.926  41.835  12.397
84214W        W56529  40.314  24.699  14.304
84215W        W56530   6.714  17.079  14.806
84216W        W56531  19.588   3.331  13.944
84217W        W56532  30.018  26.665   2.725
84218W        W56533   1.748  24.116   4.680
84219W        W56534  37.952  29.543  10.439
84220W        W56535  29.984  34.405  12.050
84221W        W56536   9.762  12.781  11.955
84222W        W56537  33.880   7.173  12.410
84223W        W56538  11.657   8.656   1.878
84224W        W56539  26.116  16.721   2.285
84225W        W56540   6.770  41.458   4.688
84226W        W56541  33.107  44.937   0.825
84227W        W56542  16.134  26.193   0.891
84228W        W56543  13.190  16.568   2.261
84229W        W56544   4.926  32.611  10.156
84230W        W56545  38.459  33.112  12.413
84231W        W56546  37.979   9.655   3.274
84232W        W56547  42.863   5.715   2.363
84233W        W56548  33.383   5.277  12.343
84234W        W56549  38.390  44.288  13.419
84235W        W56550  10.381  21.262  11.597
84236W        W56551   5.400   1.407   4.787
84237W        W56552  14.813  43.862   1.228
84238W        W56553  21.736   9.791   2.375
84239W        W56554   6.888  17.111   0.816
84240W        W56555   7.243   9.390  12.842
84241W        W56556  40.871  39.346   2.857
84242W        W56557  12.663  20.195  14.403
84243W        W56558   3.916   0.848  14.465
84244W        W56559  37.486   3.727   5.284
84245W        W56560  21.665  37.000  13.503
84246W        W56561  19.123  19.073  11.392
84247W        W56562  24.531  43.449  10.905
84248W        W56563  28.521  19.246  11.533
84249W        W56564  44.863  43.984   0.351
84250W        W56565  30.150  37.028  10.603
84251W        W56566  10.275   6.359  11.097
84252W        W56567   4.354   6.771   3.188
84253W        W56568  39.400  23.192   0.849
84254W        W56569  34.086  10.146  12.506
84255W        W56570   4.879   0.325   1.254
84256W        W56571  32.473  41.976   0.779
84257W        W56572  18.739  25.997  13.958
84258W        W56573  19.051  35.503  11.490
84259W        W56574  32.915  28.510  11.556
84260W        W56575  24.621   3.306   1.829
84261W        W56576   4.303  18.589   0.358
84262W        W56577  32.036  42.429   4.804
84263W        W56578  19.120  39.825   4.800
84264W        W56579  13.641   1.851   3.386
84265W        W56580   3.382  10.651   2.690
84266W        W56581  32.899   2.453   0.823
84267W        W56582  31.143   4.855   5.289
84268W        W56583   5.794  30.644  13.978
84269W        W56584  34.890  21.674   4.608
84270W        W56585  27.110  28.974   0.281
84271W        W56586   1.927  10.743  13.965
84272W        W56587  39.411  19.570   1.930
84273W        W56588  37.581  40.326  14.350
84274W        W56589  29.454  29.564  11.904
84275W        W56590  34.477   4.782  13.501
84276W        W56591   1.463  32.073  12.961
84277W        W56592  28.626  24.978   2.840
84278W        W56593   3.814  29.928  12.490
84279W        W56594   3.289  18.595   4.238
84280W        W56595   5.895   8.188  10.923
84281W        W56596  38.447  19.674   2.226
84282W        W56597  41.874  37.434   9.935
84283W        W56598  43.366  31.425  13.979
84284W        W56599   3.844  33.458  12.850
84285W        W56600  24.522   4.764  14.435
84286W        W56601   2.365  16.166   0.372
84287W        W56602  44.443  29.028   3.817
84288W        W56603  36.028  30.095  14.898
84289W        W56604  31.983  35.584   1.389
84290W        W56605  17.594   5.919   2.187
84291W        W56606  31.051  28.120   0.403
84292W        W56607  27.999  37.355   4.169
84293W        W56608  33.481  19.709  12.537
84294W        W56609  13.298  32.563   2.244
84295W        W56610  27.577  30.560  14.911
84296W        W56611  33.927  20.580  14.849
84297W        W56612  31.598  27.511  10.407
84298W        W56613  25.126  19.704   1.905
84299W        W56614  38.387   3.392  11.554
84300W        W56615  28.035   6.912   3.200
84301W        W56616  25.973  32.024   5.180
84302W        W56617  37.832  37.087   2.284
84303W        W56618  27.187   7.681   1.359
84304W        W56619  33.595  37.365  14.999
84305W        W56620  22.147  34.602   4.774
84306W        W56621  41.873  23.235  12.982
84307W        W56622  19.103  16.803   4.180
84308W        W56623  33.397  30.586   4.822
84309W        W56624  26.698   2.936   2.314
84310W        W56625   0.432   2.851  11.541
84311W        W56626  12.778  33.391   3.188
84312W        W56627  12.206   3.447   0.899
84313W        W56628  15.704  12.800   0.751
84314W        W56629  29.137  11.359  14.922
84315W        W56630  27.559  24.670   4.790
84316W        W56631  43.776  20.263  10.523
84317W        W56632  39.483  11.842   1.846
84318W        W56633  34.581   7.316   2.895
84319W        W56634  42.334  26.481   3.235
84320W        W56635  36.932  17.695   4.788
84321W        W56636  26.141  29.074   0.934
84322W        W56637   5.209  31.903   0.392
84323W        W56638  30.460  34.518  13.793
84324W        W56639  27.946  11.777  13.343
84325W        W56640  35.072  22.031  12.086
84326W        W56641  27.599  41.848  12.831
84327W        W56642   0.871  36.475   2.741
84328W        W56643  44.322  36.399   4.200
84329W        W56644  17.575  10.808   4.714
84330W        W56645  22.656  25.710   4.314
84331W        W56646  18.558   0.286   3.294
84332W        W56647  18.184   1.436   2.890
84333W        W56648  30.052  20.177   1.889
84334W        W56649  37.371  15.712   1.751
84335W        W56650  12.275  17.767   1.337
84336W        W56651  35.562  28.935  10.900
84337W        W56652  10.754   6.260  10.125
84338W        W56653   9.313   2.908  12.465
84339W        W56654  22.212  12.747  13.813
84340W        W56655   4.321  15.792  14.402
84341W        W56656   1.255   5.696  14.799
84342W        W56657  42.353  35.509  12.039
84343W        W56658  17.237  38.875   1.712
84344W        W56659  22.167   4.410   4.794
84345W        W56660  31.983   8.268   3.777
84346W        W56661  10.633  17.784  13.957
84347W        W56662  11.783  14.161   0.939
84348W        W56663  20.680   1.328  12.566
84349W        W56664  39.368  34.972   1.762
84350W        W56665  24.083   4.432   2.688
84351W        W56666   8.342   8.808   3.224
84352W        W56667  22.055  19.672  14.280
84353W        W56668  42.507  33.431   1.736
84354W        W56669  43.914  34.912   3.765
84355W        W56670  42.845   0.868  11.975
84356W        W56671  23.569  16.622   3.755
84357W        W56672   5.227  26.068  10.925
84358W        W56673   8.350  31.601  11.462
84359W        W56674  32.056  25.156   3.158
84360W        W56675   8.860   1.911   3.635
84361W        W56676  39.464  10.363  10.938
84362W        W56677  10.802  12.151   2.886
84363W        W56678   2.375  33.897  12.829
84364W        W56679  12.231   2.303   1.856
84365W        W56680  20.584  14.789   1.316
84366W        W56681  30.461  28.646   0.821
84367W        W56682  41.033  29.032   1.828
84368W        W56683  19.263  39.997   1.722
84369W        W56684  40.826  29.071  10.509
84370W        W56685  34.901  20.545   1.706
84371W        W56686   4.711  28.054  13.333
84372W        W56687   7.358  41.859   3.224
84373W        W56688  15.702  17.648  13.945
84374W        W56689  18.211  23.989   0.306
84375W        W56690  42.837  25.636  14.952
84376W        W56691  14.249  22.575   2.419
84377W        W56692  26.657  37.400  13.050
84378W        W56693   4.363  29.025   2.269
84379W        W56694  40.348  36.372  14.508
84380W        W56695   4.418  44.854  12.887
84381W        W56696  31.498   5.223   1.329
84382W        W56697   1.439  33.624  10.508
84383W        W56698  38.986   3.260   3.796
84384W        W56699  21.528  33.007   3.160
84385W        W56700  18.102  29.021   4.804
84386W        W56701  10.256  40.464   1.277
84387W        W56702  39.921  21.706   4.237
84388W        W56703  31.591   2.728  14.876
84389W        W56704  39.839  14.172   2.746
84390W        W56705  21.149  39.538  13.471
84391W        W56706  22.092   8.772  10.530
84392W        W56707  26.024  14.693  11.855
84393W        W56708   7.723  20.595  10.929
84394W        W56709   4.922   3.918  11.574
84395W        W56710  21.747  30.001   0.879
84396W        W56711  41.940  16.146  13.807
84397W        W56712   0.324  24.500   4.707
84398W        W56713  16.721  39.020   4.785
84399W        W56714  21.222  41.860   0.434
84400W        W56715   2.240   4.367   0.429
84401W        W56716  13.733  31.925   4.177
84402W        W56717   4.851  17.149   0.894
84403W        W56718  41.364  22.194  13.349
84404W        W56719  24.026  18.776  13.018
84405W        W56720   1.937   0.962   2.828
84406W        W56721   8.338   8.698   1.279
84407W        W56722  15.670  42.029   4.208
84408W        W56723  28.062  29.479   2.711
84409W        W56724  33.926  20.705  10.458
84410W        W56725  13.772  12.307  11.516
84411W        W56726   3.419  22.025   0.730
84412W        W56727  36.967  30.138   4.229
84413W        W56728  34.985  20.102  14.981
84414W        W56729  18.729   5.732   2.229
84415W        W56730  21.100  41.426  11.512
84416W        W56731  44.869  21.605  14.844
84417W        W56732  43.022  16.138  11.396
84418W        W56733  12.727  11.167   2.280
84419W        W56734  32.407  33.130   2.179
84420W        W56735   4.767  44.332   3.840
84421W        W56736   8.657   2.462  11.927
84422W        W56737  28.165  21.733   2.267
84423W        W56738  40.032  37.402   3.358
84424W        W56739  43.320  28.639  13.548
84425W        W56740   9.325   2.779   3.258
84426W        W56741   4.881  34.019   1.451
84427W        W56742  40.513  14.124   4.332
84428W        W56743  34.891   2.832   4.309
84429W        W56744   9.319   9.869  14.457
84430W        W56745  22.678  18.217   2.681
84431W        W56746   6.907  19.134  14.295
84432W        W56747  38.521  28.965   2.759
84433W        W56748  35.361  24.635  14.283
84434W        W56749   2.472  41.028   3.793
84435W        W56750  34.908   2.304  12.917
84436W        W56751   6.849   3.941  11.479
84437W        W56752  10.736  25.178  13.360
84438W        W56753  18.568  13.279   2.860
84439W        W56754  14.248  39.865  12.974
84440W        W56755  26.146  33.568   4.341
84441W        W56756   4.812  19.108  10.577
84442W        W56757  27.034  42.997   1.701
84443W        W56758  37.567  42.989  10.409
84444W        W56759  36.998  23.696   0.392
84445W        W56760   3.369  16.083  14.394
84446W        W56761  37.906  15.321  13.875
84447W        W56762   9.309  37.577  13.852
84448W        W56763  28.930  26.193   4.627
84449W        W56764  31.405  23.677   3.791
84450W        W56765  16.183  32.416   2.398
84451W        W56766  44.306   2.277   1.297
84452W        W56767   3.362  33.916   0.447
84453W        W56768  33.005  31.049  11.437
84454W        W56769  41.413  14.793  12.906
84455W        W56770  44.412  38.976   2.389
84456W        W56771  13.766  27.611   4.807
84457W        W56772   3.392  32.018   0.272
84458W        W56773   3.816  20.049   2.187
84459W        W56774  19.664  10.860  14.471
84460W        W56775   9.222   5.863  10.912
84461W        W56776  43.412  26.462   4.717
84462W        W56777   0.289  12.826  10.539
84463W        W56778  26.997  34.395  12.947
84464W        W56779  18.174  14.200  12.421
84465W        W56780  38.389   2.851  13.327
84466W        W56781  29.617  26.071   0.463
84467W        W56782  23.118  11.291   3.823
84468W        W56783  13.737   4.873  13.008
84469W        W56784  27.187  29.497  13.387
84470W        W56785  36.998  28.595  11.035
84471W        W56786  35.974   6.333   2.392
84472W        W56787   9.697  31.601   2.276
84473W        W56788  24.149  23.594   1.761
84474W        W56789  11.126  36.094   1.735
84475W        W56790  33.404  27.448  13.497
84476W        W56791  40.925  24.974   3.757
84477W        W56792  44.007  13.342   1.833
84478W        W56793  18.110  18.186  11.948
84479W        W56794  11.142  31.432   4.312
84480W        W56795  37.517  35.532  11.115
84481W        W56796  32.522  41.955  11.009
84482W        W56797  20.178  15.204   4.769
84483W        W56798  39.879  13.615   3.349
84484W        W56799  24.016  22.127   5.582
84485W        W56800  29.128   4.922   1.428
84486W        W56801  23.014   5.196   4.197
84487W        W56802  11.177  27.620   0.949
84488W        W56803  23.087   6.777   1.211
84489W        W56804  30.538  43.276   1.926
84490W        W56805  18.692  34.374   3.747
84491W        W56806  37.888  37.484  14.911
84492W        W56807   6.909  27.081  10.473
84493W        W56808  17.626  16.636   4.787
84494W        W56809  17.651  11.163  10.051
84495W        W56810  13.329  20.227   1.814
84496W        W56811  10.282  38.861   0.843
84497W        W56812   9.821  15.783   1.703
84498W        W56813  41.857  22.085  13.014
84499W        W56814  40.404  12.811  10.618
84500W        W56815  16.136  39.874  14.970
84501W        W56816  32.104  16.712   0.917
84502W        W56817  39.958  13.226   4.611
84503W        W56818  26.537  18.273   0.771
84504W        W56819  22.548  25.187   3.799
84505W        W56820  10.164  15.154   0.364
84506W        W56821  35.536  40.974  14.407
84507W        W56822  14.607  21.632  12.398
84508W        W56823  17.790  25.039   0.764
84509W        W56824  16.663  31.900   1.371
84510W        W56825  26.509  18.615   0.453
84511W        W56826   4.376  31.612  11.551
84512W        W56827  16.172   3.750   0.931
84513W        W56828  11.680   1.359   0.770
84514W        W56829  19.072  15.134   3.728
84515W        W56830   9.192   4.267  10.999
84516W        W56831  41.999   0.262   0.747
84517W        W56832  26.180  14.236  13.813
84518W        W56833  21.620  11.216  14.848
84519W        W56834  16.566  29.165   0.425
84520W        W56835  33.424  18.093  14.868
84521W        W56836  44.417  19.199  12.926
84522W        W56837  29.982  40.336  13.529
84523W        W56838  20.655   7.220   2.746
84524W        W56839  17.679  43.892  10.620
84525W        W56840  27.987  35.978   0.813
84526W        W56841  41.526  15.639   3.738
84527W        W56842  43.950  13.743  13.841
84528W        W56843  38.436   4.292  14.358
84529W        W56844  41.402  20.255   1.845
84530W        W56845   4.929   2.237   3.232
84531W        W56846   9.322  37.567   0.847
84532W        W56847  22.686   1.769   3.166
84533W        W56848   9.251  43.490  14.479
84534W        W56849  27.620  34.986  10.074
84535W        W56850  24.576  21.215   2.857
84536W        W56851  12.769  27.538  10.410
84537W        W56852  22.044   8.284  13.007
84538W        W56853  24.487  30.926   3.265
84539W        W56854  16.738  34.887   1.430
84540W        W56855  15.307  20.187  11.043
84541W        W56856   3.320  29.555  12.456
84542W        W56857   2.351  41.495  13.441
84543W        W56858   8.279  31.620  12.857
84544W        W56859  36.568   0.756  14.861
84545W        W56860  15.683   6.682  14.415
84546W        W56861  11.178  30.074   2.693
84547W        W56862  11.778   7.243  14.883
84548W        W56863  28.164  20.128  10.080
84549W        W56864  40.846  15.673   4.598
84550W        W56865  23.594  32.536   1.879
84551W        W56866   2.798  34.538  12.944
84552W        W56867   4.781  43.394  14.007
84553W        W56868  37.515  23.497  12.367
84554W        W56869  19.698  25.669   3.329
84555W        W56870  16.118  26.194  14.409
84556W        W56871  14.798  12.270  13.935
84557W        W56872  22.141   5.884  13.924
84558W        W56873  31.133  24.546  14.466
84559W        W56874  15.578  13.789   0.737
84560W        W56875  37.867  12.664  11.389
84561W        W56876  29.007  43.785  14.297
84562W        W56877   7.215  34.952   3.832
84563W        W56878   0.934  41.433   2.770
84564W        W56879  18.289   8.778   4.290
84565W        W56880  16.266   7.761   2.669
84566W        W56881   5.815  43.476   3.283
84567W        W56882  28.482  23.556  11.449
84568W        W56883  28.080  26.584  10.100
84569W        W56884  24.108   1.955   0.447
84570W        W56885  11.739  24.555   1.866
84571W        W56886   4.276  12.229   4.132
84572W        W56887  40.915  30.077  10.526
84573W        W56888   2.274  21.158   1.850
84574W        W56889  23.086  13.744   1.815
84575W        W56890  41.788  37.891   1.759
84576W        W56891  17.614  27.559   2.389
84577W        W56892  42.285  38.368  13.013
84578W        W56893  40.021  34.542  14.423
84579W        W56894  38.537  24.191   4.614
84580W        W56895  26.136  36.361   0.736
84581W        W56896  23.724  39.424  12.409
84582W        W56897  34.448  28.061  13.984
84583W        W56898   3.882   7.372   5.297
84584W        W56899  11.367  10.809  11.035
84585W        W56900  28.106   2.443   4.209
84586W        W56901  27.542  26.544  14.800
84587W        W56902   4.248  39.350  12.862
84588W        W56903  11.812  14.215   4.131
84589W        W56904  37.949  44.828  13.061
84590W        W56905   7.212  23.718   0.470
84591W        W56906  12.286  20.056   2.829
84592W        W56907  23.098  26.004  12.456
84593W        W56908  41.412  11.348  14.464
84594W        W56909   6.275  33.425   4.330
84595W        W56910  23.083  35.875   0.816
84596W        W56911  39.928  11.763  12.421
84597W        W56912  30.512   8.775  14.401
84598W        W56913   6.784  35.427   4.699
84599W        W56914  40.405   1.938  14.815
84600W        W56915  43.362  33.387   4.212
84601W        W56916  19.556  33.927   0.271
84602W        W56917  17.767  12.142  13.499
84603W        W56918  18.076  33.481  14.288
84604W        W56919  40.945   9.282   2.336
84605W        W56920  21.562  15.183   2.815
84606W        W56921  12.854  44.945  13.529
84607W        W56922  20.682  34.016   0.899
84608W        W56923   6.750  39.476  13.513
84609W        W56924  31.553  30.554   0.303
84610W        W56925  29.468  38.477   4.710
84611W        W56926  41.018  43.509  14.367
84612W        W56927  25.058  31.408   3.291
84613W        W56928   0.265  39.348   0.317
84614W        W56929  10.150   5.362  11.026
84615W        W56930  35.936  12.221   1.417
84616W        W56931  25.529  43.959  11.540
84617W        W56932  26.658  37.391  11.871
84618W        W56933  33.897  21.642   3.219
84619W        W56934  21.044  44.290   0.956
84620W        W56935  14.652  35.369   4.215
84621W        W56936   0.306  20.585  13.949
84622W        W56937  11.746  44.900  12.530
84623W        W56938  15.168   9.887   3.686
84624W        W56939  31.490  29.152  13.429
84625W        W56940  19.122  23.624   3.229
84626W        W56941  25.078  44.339  14.897
84627W        W56942  23.009  38.360  11.097
84628W        W56943  30.083  27.650   1.242
84629W        W56944  10.752  23.716  11.471
84630W        W56945  28.623  12.337  13.832
84631W        W56946  14.292   8.186   4.768
84632W        W56947  38.360   1.966  14.354
84633W        W56948  26.081  39.383   3.840
84634W        W56949  29.020  22.072   4.695
84635W        W56950  26.056   0.487   0.961
84636W        W56951  38.550  41.329  11.032
84637W        W56952  25.593  31.131  14.844
84638W        W56953  22.163  36.502   4.671
84639W        W56954  10.776   6.190  11.063
84640W        W56955  33.459   2.723   3.245
84641W        W56956  13.263  10.167   1.892
84642W        W56957  27.186  21.590  10.566
84643W        W56958  25.048  28.152  12.391
84644W        W56959  18.127  35.011   4.158
84645W        W56960   8.799  25.067  14.814
84646W        W56961   8.843  41.304  10.566
84647W        W56962  14.276  16.303   3.675
84648W        W56963  41.348  18.150   3.330
84649W        W56964  13.774   9.783   1.322
84650W        W56965  27.194  30.652   3.219
84651W        W56966  41.330  37.552   9.966
84652W        W56967   2.450   7.852   2.702
84653W        W56968  25.641  11.730   3.681
84654W        W56969   9.157  17.707   1.894
84655W        W56970  43.935  24.683  11.499
84656W        W56971  44.824  39.354   2.685
84657W        W56972  31.628  24.704   0.915
84658W        W56973  19.054  24.519   2.738
84659W        W56974  13.194  20.612  13.482
84660W        W56975  23.058  31.594   2.717
84661W        W56976  41.522  33.882   1.779
84662W        W56977  19.240  25.965   1.257
84663W        W56978  34.489  27.512   3.183
84664W        W56979   6.902  15.132  10.963
84665W        W56980  24.528  39.533   1.314
84666W        W56981  38.568  25.175   1.334
84667W        W56982  40.020  25.706   2.370
84668W        W56983   7.879  10.848  13.948
84669W        W56984  32.940   0.783   0.460
84670W        W56985  37.421  43.874   2.739
84671W        W56986   5.392   4.294   4.190
84672W        W56987  16.095  30.636  11.482
84673W        W56988  12.235  40.369   1.773
84674W        W56989  36.016  10.370  13.359
84675W        W56990  30.081  21.718  13.802
84676W        W56991  30.462  44.374   3.853
84677W        W56992   0.961  33.088  11.493
84678W        W56993  13.769  18.567  12.019
84679W        W56994   0.263   1.406   2.347
84680W        W56995  30.036   9.836  12.517
84681W        W56996  18.201  15.653  14.801
84682W        W56997  23.080  16.189   2.792
84683W        W56998  16.252  23.205  13.818
84684W        W56999  26.670   9.168   0.883
84685W        W57000  44.439  38.074  10.938
84686W        W57001  44.393  10.303   2.240
84687W        W57002  34.960  15.678   3.209
84688W        W57003  31.138  10.304  10.998
84689W        W57004  16.298  17.126   1.435
84690W        W57005  39.482  31.978  14.805
84691W        W57006  37.851  16.223   1.710
84692W        W57007  42.355  32.429  14.826
84693W        W57008  27.990  17.245  13.459
84694W        W57009   4.298   5.204  13.004
84695W        W57010  44.003  10.266   9.675
84696W        W57011  21.083  27.463  14.939
84697W        W57012  21.081  10.312  11.907
84698W        W57013  14.192  23.088   3.778
84699W        W57014   2.442  19.607  10.615
84700W        W57015  34.600  16.708   3.255
84701W        W57016  25.053  15.162   0.260
84702W        W57017  41.893   4.361  13.981
84703W        W57018  33.443  33.105   4.229
84704W        W57019  25.483  24.595  14.859
84705W        W57020  21.742  18.567  11.404
84706W        W57021   4.398   1.898   2.704
84707W        W57022  25.079   6.428  11.561
84708W        W57023  15.144  39.420   2.806
84709W        W57024  38.819  19.577  10.937
84710W        W57025  31.475   8.779   4.672
84711W        W57026   2.849  40.967  12.369
84712W        W57027   3.718  28.111   4.191
84713W        W57028  25.982   2.855   4.179
84714W        W57029   1.308  10.189   1.856
84715W        W57030  29.931   8.778  11.034
84716W        W57031  32.945  17.167  11.445
84717W        W57032   0.793  22.677   1.704
84718W        W57033   0.377  14.832   1.863
84719W        W57034  33.488   1.793  11.886
84720W        W57035  27.457  34.881   5.095
84721W        W57036  32.409   9.675   1.700
84722W        W57037  20.164  36.487   0.412
84723W        W57038  20.195   9.172  14.981
84724W        W57039  26.512   4.382   2.745
84725W        W57040  44.851  40.946  14.770
84726W        W57041  13.679  10.182  13.013
84727W        W57042  21.733   5.886  12.384
84728W        W57043  19.125  30.446  12.534
84729W        W57044  19.748  11.367  13.343
84730W        W57045  13.309   5.221  13.886
84731W        W57046  25.537   1.838   4.695
84732W        W57047  17.678  40.305  12.887
84733W        W57048  13.642  25.691  12.829
84734W        W57049  40.978  23.155   2.271
84735W        W57050  24.570  19.574   2.738
84736W        W57051  15.580  21.054   4.302
84737W        W57052  43.287  31.138   0.462
84738W        W57053  30.162  41.390  12.933
84739W        W57054  29.086  41.992  14.376
84740W        W57055  30.115  44.807  13.525
84741W        W57056   2.367  13.608   3.274
84742W        W57057   0.798  24.637  11.595
84743W        W57058   3.290  12.307  10.537
84744W        W57059  25.651   0.287   1.240
84745W        W57060  40.013  27.550  14.002
84746W        W57061  36.945  36.867   0.959
84747W        W57062  40.456  31.128  10.444
84748W        W57063   4.831  25.092   2.752
84749W        W57064  26.665  10.194   2.259
84750W        W57065  33.121   9.371  12.469
84751W        W57066  16.611  29.595   0.314
84752W        W57067  44.918  31.949   4.766
84753W        W57068  35.000  19.601   3.842
84754W        W57069  27.089  33.898  12.896
84755W        W57070  20.765  44.897  10.512
84756W        W57071  24.709  20.716  12.986
84757W        W57072   4.755  38.884   2.409
84758W        W57073  15.225   0.787  14.905
84759W        W57074   2.838  35.594   3.207
84760W        W57075  20.547   1.935  12.402
84761W        W57076  16.671  11.786   1.780
84762W        W57077  22.170  32.412  13.307
84763W        W57078  44.772  25.700  14.849
84764W        W57079  37.368  38.969  14.286
84765W        W57080   4.395   7.874  14.401
84766W        W57081  29.570   5.796  14.956
84767W        W57082  40.420  14.696   2.210
84768W        W57083  31.582  12.792   1.861
84769W        W57084  38.531  11.786   2.280
84770W        W57085  43.012  44.467  12.922
84771W        W57086  11.272  26.666  11.931
84772W        W57087  18.176  36.423  14.830
84773W        W57088  26.055  24.702   2.184
84774W        W57089  29.618   2.397   0.393
84775W        W57090  40.378  44.396   1.707
84776W        W57091  14.708  41.419   0.828
84777W        W57092   5.725  41.970   2.875
84778W        W57093   3.789   2.261   2.835
84779W        W57094   5.350  15.598   1.914
84780W        W57095  39.364  11.144   4.272
84781W        W57096   8.659  27.684  12.892
84782W        W57097  22.131   0.832   4.157
84783W        W57098   7.879  30.614  12.907
84784W        W57099   6.811  44.400   4.217
84785W        W57100  31.108   3.933   1.296
84786W        W57101  37.566  17.749  10.975
84787W        W57102  29.646  36.521  12.351
84788W        W57103  30.147  18.742   1.866
84789W        W57104  35.373  34.498  13.815
84790W        W57105   2.461   4.750  13.307
84791W        W57106  34.098   4.868  11.863
84792W        W57107  36.397  29.542  14.346
84793W        W57108  31.419   8.749  13.349
84794W        W57109  35.541  21.517  10.929
84795W        W57110  22.673   0.900  13.933
84796W        W57111  26.977  44.805   2.229
84797W        W57112  14.745  25.030   3.665
84798W        W57113  13.832  33.083  12.405
84799W        W57114  15.088  25.500   3.240
84800W        W57115   1.749  18.060   0.376
84801W        W57116  41.378   3.896  11.077
84802W        W57117  14.098  21.237   2.190
84803W        W57118  14.710  24.683   4.286
84804W        W57119  34.551  22.617  12.349
84805W        W57120  14.724  36.478  13.476
84806W        W57121  38.850   8.773   0.956
84807W        W57122  41.006  34.981  13.477
84808W        W57123   9.671  18.192   1.444
84809W        W57124   3.809  35.566   4.159
84810W        W57125  11.638  42.406   3.374
84811W        W57126  31.917  24.675  12.571
84812W        W57127  39.506  34.414   2.291
84813W        W57128  35.553  32.509   2.353
84814W        W57129   9.243  36.423   4.788
84815W        W57130  27.081  29.014  12.384
84816W        W57131  31.076  27.454  14.301
84817W        W57132   7.760  10.327  10.512
84818W        W57133  22.140  42.285   1.928
84819W        W57134   4.764  11.772   4.166
84820W        W57135  38.934  11.688   3.653
84821W        W57136  16.805  17.588  14.013
84822W        W57137  24.087  20.646  14.511
84823W        W57138  10.668  30.513   3.283
84824W        W57139   9.754   9.798  11.509
84825W        W57140  25.215  38.920   3.823
84826W        W57141   7.392   1.923   4.257
84827W        W57142  44.384   6.745   1.403
84828W        W57143  12.327  43.481   3.209
84829W        W57144  32.556  40.831  11.498
84830W        W57145   5.800  19.673   3.385
84831W        W57146  42.812  23.063   3.801
84832W        W57147  35.513   9.304   0.431
84833W        W57148  22.620  26.486   1.705
84834W        W57149  17.778   3.297  11.540
84835W        W57150  38.383  29.053  11.863
84836W        W57151  40.025   1.857   3.266
84837W        W57152  12.744  20.167  13.465
84838W        W57153  12.641  16.741  14.007
84839W        W57154  29.646   4.916  10.609
84840W        W57155  15.181  44.437   0.273
84841W        W57156   4.826  23.191   3.312
84842W        W57157  40.958  13.643   2.229
84843W        W57158  20.674  10.142  12.343
84844W        W57159   6.734  42.364  14.337
84845W        W57160  40.944  39.417   0.294
84846W        W57161  15.745  33.392  13.000
84847W        W57162  42.795   8.328   3.655
84848W        W57163  36.854   4.231   4.599
84849W        W57164  24.039  37.425  12.566
84850W        W57165  15.786  20.559   4.649
84851W        W57166   1.845  43.333  14.428
84852W        W57167  19.188  33.975   3.281
84853W        W57168  29.028  13.177   3.150
84854W        W57169  16.741   1.755  14.312
84855W        W57170  18.551  23.238   2.287
84856W        W57171  44.329  44.503  13.322
84857W        W57172  39.951  23.139   4.128
84858W        W57173  38.487  42.015   3.186
84859W        W57174  43.466  20.749   0.936
84860W        W57175   0.932   4.742   2.865
84861W        W57176  33.437  23.091  12.574
84862W        W57177  37.945   4.416   3.264
84863W        W57178   6.232  38.968  14.403
84864W        W57179  19.224  21.091   3.802
84865W        W57180  40.366  22.653   2.359
84866W        W57181   1.783   2.947   3.209
84867W        W57182  10.281  30.157  13.497
84868W        W57183   7.815  31.445   0.808
84869W        W57184  40.005  19.237  13.834
84870W        W57185  20.754   8.785   4.234
84871W        W57186   4.846  34.390   1.426
84872W        W57187  11.231  35.998   2.400
84873W        W57188  22.589   0.343   3.707
84874W        W57189   0.408  13.211  11.895
84875W        W57190  14.590  20.199  14.839
84876W        W57191  40.804  29.111   2.318
84877W        W57192  14.809  16.166  11.990
84878W        W57193  14.178  34.569  11.570
84879W        W57194  29.611  21.201  10.441
84880W        W57195  39.835  21.115  12.066
84881W        W57196  18.231   9.643  13.547
84882W        W57197  37.571  20.268  10.892
84883W        W57198  23.493  39.836  14.324
84884W        W57199  18.179  31.416  14.487
84885W        W57200  38.826  36.486  14.369
84886W        W57201  39.960  22.551   0.894
84887W        W57202  27.501  18.182   1.846
84888W        W57203  27.614  39.997  12.007
84889W        W57204   3.864   5.412   4.818
84890W        W57205  26.036  22.666  11.927
84891W        W57206   9.233  25.649  13.414
84892W        W57207   4.392  10.751  13.536
84893W        W57208  18.163  41.314   5.599
84894W        W57209  13.629  20.675   0.373
84895W        W57210  27.686  37.577   5.152
84896W        W57211  36.436  25.606   0.388
84897W        W57212  17.628   2.231  10.461
84898W        W57213   5.900   3.226  12.382
84899W        W57214   7.371  36.458   4.618
84900W        W57215  14.809  20.735  11.582
84901W        W57216  17.241  44.872   2.288
84902W        W57217   3.904  33.622  10.412
84903W        W57218   8.680  16.245   0.458
84904W        W57219  38.826  43.967   2.826
84905W        W57220  38.949  31.599  13.517
84906W        W57221  36.879  40.965  14.408
84907W        W57222  16.807   2.887   2.854
84908W        W57223  27.983   6.233  14.977
84909W        W57224  18.632  17.696   1.806
84910W        W57225  16.074  14.265   3.201
84911W        W57226  40.862  19.550  13.945
84912W        W57227  16.258   1.405  13.939
84913W        W57228   5.868  40.973   4.142
84914W        W57229   9.780  28.622  14.383
84915W        W57230  30.002  21.136  13.909
84916W        W57231  13.713  37.904   3.253
84917W        W57232   1.295  28.954   2.183
84918W        W57233  34.371   9.322  12.395
84919W        W57234   5.869  20.591   0.326
84920W        W57235  41.407  31.600   4.169
84921W        W57236   7.666   0.940  13.315
84922W        W57237  11.202  22.213   4.213
84923W        W57238  21.181  12.218  14.482
84924W        W57239  39.046  39.822   2.356
84925W        W57240   3.894  41.911  11.911
84926W        W57241  10.739   1.805   3.847
84927W        W57242  27.503  20.662  11.875
84928W        W57243  16.265   3.277   5.098
84929W        W57244  12.273  34.395   0.417
84930W        W57245  32.001  33.578  11.865
84931W        W57246   4.371  17.239   4.265
84932W        W57247  37.956   6.773  10.544
84933W        W57248  42.809  36.542   1.343
84934W        W57249   3.758  24.688  12.577
84935W        W57250  14.616   0.280   1.705
84936W        W57251  19.675   0.369  12.428
84937W        W57252  18.697  31.409   2.220
84938W        W57253  41.028  20.240   2.741
84939W        W57254   9.652   9.887   2.350
84940W        W57255  13.147  23.193  13.433
84941W        W57256  23.609  19.207   2.230
84942W        W57257  35.602  15.659  13.470
84943W        W57258  34.947   0.796  12.016
84944W        W57259  30.582  19.770  10.975
84945W        W57260   8.167  39.502   4.203
84946W        W57261  41.788   8.807  11.025
84947W        W57262  35.525  31.589   1.897
84948W        W57263  26.679  20.714  11.467
84949W        W57264  27.082   0.274   3.231
84950W        W57265  17.567  33.102  11.439
84951W        W57266  44.470  15.657   9.963
84952W        W57267   3.270  18.098  11.441
84953W        W57268  21.223   6.757  12.831
84954W        W57269   7.240  31.485  11.124
84955W        W57270  28.116  31.092   2.203
84956W        W57271  30.077   0.841  11.053
84957W        W57272  33.599  36.502  10.468
84958W        W57273   4.846  16.621  13.442
84959W        W57274  44.268  20.171   0.426
84960W        W57275   2.340  38.338   2.227
84961W        W57276  37.429  14.289   4.693
84962W        W57277   4.840  40.980  12.543
84963W        W57278   3.312   0.321   0.953
84964W        W57279   8.367   2.796  13.370
84965W        W57280  40.410  41.851   1.406
84966W        W57281  14.220  30.935  11.437
84967W        W57282  35.573  10.267   2.345
84968W        W57283   9.218  18.215  13.468
84969W        W57284  14.765  32.629  11.580
84970W        W57285  41.408   3.443  12.988
84971W        W57286  29.561  16.786  14.811
84972W        W57287  13.296  42.380  14.847
84973W        W57288   6.720  16.277   3.280
84974W        W57289  31.422  21.752   1.776
84975W        W57290  26.005  39.497   1.749
84976W        W57291  23.120  41.945  11.577
84977W        W57292   5.297   1.774  10.965
84978W        W57293  32.897  27.579  10.624
84979W        W57294  23.234   3.886   3.760
84980W        W57295  36.452   9.257  11.972
84981W        W57296   1.319  30.144   0.381
84982W        W57297  34.971  10.677   4.240
84983W        W57298  36.045  13.753  13.472
84984W        W57299  28.469  35.987   4.146
84985W        W57300  16.154  32.040  13.809
84986W        W57301  12.129  19.175  14.318
84987W        W57302  17.565   6.831   4.829
84988W        W57303   4.409  33.450  12.380
84989W        W57304   5.690  27.498  11.398
84990W        W57305   5.785   4.770   1.259
84991W        W57306   3.920  39.361  13.309
84992W        W57307  34.110  32.548   2.376
84993W        W57308   7.895   2.407  13.375
84994W        W57309   1.274  38.982  13.877
84995W        W57310  21.583  38.532  10.938
84996W        W57311   3.712  16.632  13.433
84997W        W57312  17.067  44.460  10.103
84998W        W57313  28.614   6.713  12.008
84999W        W57314  10.383  12.661  12.412
85000W        W57315  23.607   5.334  10.417
85001W        W57316  21.536  39.866  11.612
85002W        W57317  31.095  14.775  10.914
85003W        W57318  34.568   4.834  12.983
85004W        W57319  21.622   4.380   4.305
85005W        W57320  12.855  36.417  11.612
85006W        W57321  27.165  36.448  11.860
85007W        W57322  11.314   8.787  11.002
85008W        W57323  37.412  41.013  14.764
85009W        W57324  31.568  21.549  11.554
85010W        W57325  21.124  19.247  11.954
85011W        W57326  40.371   2.964   4.805
85012W        W57327  35.396   8.306   0.245
85013W        W57328  42.429  34.101   4.648
85014W        W57329  18.563  43.930   0.374
85015W        W57330  20.038  31.064   4.805
85016W        W57331  23.530   3.884  10.911
85017W        W57332   5.362  22.243   4.695
85018W        W57333  18.609  25.521  11.594
85019W        W57334  14.234  35.906  14.878
85020W        W57335  43.306   9.174   0.375
85021W        W57336  22.578   2.320  13.888
85022W        W57337  21.513  17.161   1.331
85023W        W57338   9.347  20.526   4.141
85024W        W57339  18.267  18.231   1.349
85025W        W57340  34.491   3.881  12.361
85026W        W57341  27.569  16.690   1.319
85027W        W57342   8.268  44.825  14.501
85028W        W57343   8.780  20.743  13.898
85029W        W57344  17.743  27.622   9.972
85030W        W57345  34.966  22.226  13.926
85031W        W57346  29.532   1.430   3.264
85032W        W57347  19.636  20.610   1.346
85033W        W57348   4.257   5.235  13.856
85034W        W57349   6.879   7.212   2.672
85035W        W57350  20.250   9.812  14.364
85036W        W57351   4.259  33.557   2.361
85037W        W57352  36.439   4.741  14.433
85038W        W57353  10.659   7.250   4.638
85039W        W57354   4.743  40.943   4.311
85040W        W57355  35.998  32.471  14.329
85041W        W57356  18.754  42.503  11.418
85042W        W57357  12.700  12.658   3.339
85043W        W57358   5.329  29.667   4.636
85044W        W57359  39.901   5.387  11.455
85045W        W57360  11.667  18.669   3.651
85046W        W57361  22.641  16.287  10.453
85047W        W57362  15.716  16.095   2.406
85048W        W57363  20.559  15.148   2.405
85049W        W57364   7.275  20.062   3.765
85050W        W57365   0.454  40.926   3.862
85051W        W57366  39.513  19.638  10.892
85052W        W57367   7.291  35.090  14.773
85053W        W57368   4.373   4.422  13.334
85054W        W57369   0.340  28.529  12.392
85055W        W57370  34.937   5.302   1.368
85056W        W57371  42.429  40.862   3.166
85057W        W57372  13.625  44.899  13.345
85058W        W57373  25.641  12.206   2.357
85059W        W57374  17.141   3.406   4.313
85060W        W57375  20.267  31.503  14.903
85061W        W57376  37.853  10.206  14.798
85062W        W57377  28.128  27.552   2.287
85063W        W57378  36.882  36.960  14.973
85064W        W57379   3.305  33.421   3.286
85065W        W57380  41.944  35.012  11.415
85066W        W57381  40.959  15.222  11.916
85067W        W57382  44.501  35.889   1.329
85068W        W57383  24.162  17.779   4.171
85069W        W57384  39.814  20.070  11.572
85070W        W57385  33.008  42.342  11.026
85071W        W57386  38.872  40.339   4.134
85072W        W57387   4.268  27.987   2.376
85073W        W57388  25.618   3.778  11.927
85074W        W57389  33.469  27.459  14.806
85075W        W57390  24.161  33.004   2.300
85076W        W57391  44.795  40.939  13.430
85077W        W57392  44.435  41.333  14.399
85078W        W57393  23.702  33.097   0.306
85079W        W57394  16.686  32.407   2.350
85080W        W57395  31.614  13.178   3.337
85081W        W57396  23.108  27.186   4.672
85082W        W57397  37.854   0.370   1.252
85083W        W57398  23.016  43.416  14.515
85084W        W57399  40.920  23.668   2.680
85085W        W57400  19.685  34.593  11.060
85086W        W57401  19.722  21.186  13.544
85087W        W57402  27.134   9.329   0.297
85088W        W57403  14.617  37.839  13.014
85089W        W57404  31.554  42.812  12.561
85090W        W57405   6.878   2.377  13.840
85091W        W57406  36.426  23.504   2.262
85092W        W57407  33.536  14.277   2.818
85093W        W57408   8.215  36.842   0.786
85094W        W57409  11.335   0.480   4.306
85095W        W57410  16.174   6.747  11.984
85096W        W57411   8.856  25.964   4.201
85097W        W57412   4.768  10.746  14.287
85098W        W57413  40.846  22.065  12.408
85099W        W57414   9.885  27.688   3.213
85100W        W57415  13.108  13.728   2.266
85101W        W57416   9.154  16.728   0.951
85102W        W57417  10.641   4.398  12.490
85103W        W57418   1.886  12.337   3.216
85104W        W57419   6.679  22.531   0.380
85105W        W57420   4.379   7.240   3.182
85106W        W57421  10.741  37.424   2.224
85107W        W57422   3.247   4.826  13.897
85108W        W57423   8.666  28.002   3.788
85109W        W57424  22.215  23.206  13.410
85110W        W57425   3.714  39.439  14.369
85111W        W57426  31.978  26.636   4.261
85112W        W57427   2.826  11.321   2.889
85113W        W57428  38.426  35.907  12.354
85114W        W57429  17.690  42.332   4.789
85115W        W57430   9.358  34.103   2.884
85116W        W57431  18.273  42.419  13.486
85117W        W57432  35.856  15.222  11.597
85118W        W57433  44.989  30.504   3.705
85119W        W57434  15.617   6.317  10.936
85120W        W57435  31.114  26.686  11.958
85121W        W57436  22.668  17.609  10.584
85122W        W57437   4.747  41.393   3.261
85123W        W57438  29.429  29.494  13.456
85124W        W57439  10.354   4.263  10.050
85125W        W57440   1.388  22.550   0.778
85126W        W57441  35.857   8.857   2.419
85127W        W57442  40.498  10.780  14.462
85128W        W57443  36.558   1.829   2.865
85129W        W57444  34.907   9.698  10.533
85130W        W57445   1.870  15.735  10.503
85131W        W57446   6.197  39.409   4.248
85132W        W57447  10.144  34.968  10.579
85133W        W57448  43.958  40.502  12.424
85134W        W57449   0.311  26.502   0.742
85135W        W57450   6.276  38.538   0.907
85136W        W57451   5.824  12.142   1.723
85137W        W57452  30.473  27.651  11.383
85138W        W57453  14.252  37.850  10.974
85139W        W57454  12.256  15.084  13.459
85140W        W57455  22.661  13.240   1.772
85141W        W57456  20.667  26.070  12.830
85142W        W57457  18.585  21.130   4.342
85143W        W57458  31.538   0.868   2.716
85144W        W57459  33.028   7.195  10.905
85145W        W57460  26.952  38.421   0.737
85146W        W57461  30.602   8.794   2.856
85147W        W57462   6.867  26.522   0.337
85148W        W57463  42.380  10.684  11.596
85149W        W57464  15.621  30.072  10.961
85150W        W57465  32.074   3.454  10.895
85151W        W57466  29.175  39.016   2.814
85152W        W57467   0.422  16.741  13.868
85153W        W57468   7.738   3.922  12.903
85154W        W57469  26.583  15.648   1.218
85155W        W57470  38.039  10.858   2.743
85156W        W57471   3.264   6.778  10.645
85157W        W57472   8.375  44.766   0.732
85158W        W57473  29.154  25.179   2.865
85159W        W57474  29.655  12.153  12.965
85160W        W57475  27.664  41.518  11.031
85161W        W57476   1.741  17.262   0.302
85162W        W57477  39.444  38.359   0.729
85163W        W57478  40.456  36.098   2.877
85164W        W57479  27.058   7.712   0.356
85165W        W57480  20.155  35.508   1.218
85166W        W57481   3.257  38.503   2.326
85167W        W57482  11.355  20.158   9.960
85168W        W57483  12.753   7.415   4.613
85169W        W57484  26.651   3.223   1.839
85170W        W57485  25.525   9.262   1.317
85171W        W57486  24.647  19.111   2.814
85172W        W57487  29.496  24.488   2.761
85173W        W57488   5.365  30.151  11.399
85174W        W57489  21.614   4.866  10.641
85175W        W57490  33.014   8.745   2.418
85176W        W57491  37.851  21.229  12.849
85177W        W57492  25.565   0.363  11.457
85178W        W57493  21.683  16.721   0.955
85179W        W57494   2.961  14.603   4.188
85180W        W57495  21.168   5.263  11.457
85181W        W57496  34.551  30.424   4.215
85182W        W57497  43.510  22.223  13.348
85183W        W57498  44.445  21.556   4.606
85184W        W57499  41.449   9.833   0.272
85185W        W57500  31.480   3.846  14.307
85186W        W57501  40.401   5.284   3.324
85187W        W57502  16.151  38.549  10.959
85188W        W57503  13.768  38.447  10.977
85189W        W57504  14.611  15.109   1.433
85190W        W57505  13.230  17.245  10.983
85191W        W57506   1.417  10.729   3.329
85192W        W57507  15.660   7.248  14.995
85193W        W57508  33.941  42.860  12.361
85194W        W57509  35.492  28.040  14.025
85195W        W57510  39.469   9.264  10.574
85196W        W57511  19.576  28.100   2.798
85197W        W57512  11.278  28.614  13.546
85198W        W57513  26.955   0.251   0.726
85199W        W57514  21.635  28.661  13.383
85200W        W57515  39.921  33.904  10.490
85201W        W57516  31.639   2.260  11.493
85202W        W57517   4.798  15.235  12.496
85203W        W57518  29.530  15.156   2.897
85204W        W57519  15.732  30.578   5.183
85205W        W57520   1.964  19.563  13.053
85206W        W57521  35.109  32.889   1.763
85207W        W57522   0.442  44.882   2.836
85208W        W57523  11.811  40.400  12.538
85209W        W57524  26.466  14.767   1.925
85210W        W57525   2.301  14.205  10.644
85211W        W57526  25.486  44.989  12.448
85212W        W57527  11.221   3.819  13.494
85213W        W57528   6.226   8.694   9.972
85214W        W57529  43.921   6.793  13.356
85215W        W57530   5.854   7.338   0.736
85216W        W57531  13.253  11.807   0.364
85217W        W57532  28.178  22.713   1.839
85218W        W57533  12.303   3.266   4.267
85219W        W57534  28.934  31.145   2.672
85220W        W57535   7.259  27.094   4.200
85221W        W57536  25.064   1.247   0.288
85222W        W57537  40.370   2.935   1.788
85223W        W57538  25.178  20.237  14.011
85224W        W57539  42.360  43.869  10.609
85225W        W57540  22.048  23.136  11.885
85226W        W57541   9.880  32.007   0.794
85227W        W57542  16.701   7.722   0.847
85228W        W57543  35.994  33.097   0.736
85229W        W57544  12.709  16.188  11.532
85230W        W57545  24.997  35.440   1.907
85231W        W57546   1.857  22.173   2.381
85232W        W57547  19.202  29.965  13.815
85233W        W57548  11.840  44.904  14.505
85234W        W57549  44.967   1.850   3.161
85235W        W57550  39.452  15.214   2.325
85236W        W57551   7.366  38.031   4.124
85237W        W57552  38.856  15.663  11.552
85238W        W57553  41.006  27.556   0.821
85239W        W57554  11.661  41.928  13.837
85240W        W57555  20.223  10.671   9.581
85241W        W57556   2.266  27.197  14.001
85242W        W57557  13.660  43.789   3.755
85243W        W57558  15.687   8.210  13.444
85244W        W57559  13.307   0.952  14.502
85245W        W57560  30.503  22.199   2.400
85246W        W57561   5.689  22.572  14.949
85247W        W57562   5.768  37.968   4.623
85248W        W57563  23.065  14.717   4.256
85249W        W57564   3.331  13.133  14.002
85250W        W57565  30.430   2.310  10.984
85251W        W57566   3.773  38.966  12.955
85252W        W57567   8.812  39.827   4.755
85253W        W57568  30.134  27.558   0.840
85254W        W57569  17.135  11.328   3.754
85255W        W57570  12.661  25.476   3.161
85256W        W57571   1.254  19.647   2.836
85257W        W57572   4.222   7.291  12.880
85258W        W57573  13.113   3.860  11.591
85259W        W57574  18.147  29.658  14.475
85260W        W57575  10.814  16.312  13.324
85261W        W57576  30.974   2.792  10.512
85262W        W57577   6.786  14.654  14.338
85263W        W57578  33.993  19.765  14.849
85264W        W57579  26.482  36.915  14.986
85265W        W57580  43.388  35.932   4.222
85266W        W57581   0.764  10.690  14.307
85267W        W57582  27.112  18.159  11.032
85268W        W57583  21.567   6.262  12.044
85269W        W57584  37.970   5.402   3.798
85270W        W57585  15.622  24.483  11.079
85271W        W57586  13.627  33.464  12.095
85272W        W57587  20.616   8.314  10.464
85273W        W57588  35.913  38.826   4.188
85274W        W57589  42.479  15.100  12.562
85275W        W57590  34.043  24.006   2.382
85276W        W57591   9.264  23.681   0.371
85277W        W57592  44.284  43.453   1.792
85278W        W57593  27.120  39.536   3.772
85279W        W57594   2.344  38.371  11.410
85280W        W57595  19.096  11.248   3.316
85281W        W57596  13.766  44.327   4.292
85282W        W57597   2.740  37.960  13.482
85283W        W57598  22.141  31.488   0.783
85284W        W57599  23.122   6.270   3.844
85285W        W57600  44.501   4.232   1.858
85286W        W57601  13.693  23.556  10.919
85287W        W57602  17.117  31.496  13.516
85288W        W57603  38.335  23.986  13.029
85289W        W57604   1.888   5.262   3.748
85290W        W57605  23.639  17.291   4.834
85291W        W57606  34.426  29.492   2.816
85292W        W57607  39.482  40.421  13.536
85293W        W57608  25.114  29.175   2.900
85294W        W57609   7.399  35.998   2.384
85295W        W57610  16.153   8.849  14.773
85296W        W57611   1.430   0.416   4.328
85297W        W57612  21.743  21.598  11.571
85298W        W57613  27.510  12.743  13.531
85299W        W57614  21.037  39.339   0.255
85300W        W57615  10.311   3.921  13.005
85301W        W57616   1.478  36.405   1.755
85302W        W57617   4.839  11.653   0.892
85303W        W57618   6.765   5.903   3.377
85304W        W57619  36.535  41.300   4.287
85305W        W57620  12.801   9.235   2.215
85306W        W57621   6.844  36.043  10.404
85307W        W57622  39.349  14.283  11.558
85308W        W57623   0.305  22.063  13.033
85309W        W57624   1.841  26.577  11.001
85310W        W57625  26.530   2.938  13.388
85311W        W57626  39.056   6.215   0.344
85312W        W57627  38.990  17.604   0.450
85313W        W57628  29.489  13.115   0.393
85314W        W57629  42.841  11.781  12.083
85315W        W57630  38.351  21.175  14.832
85316W        W57631   0.297   5.746  13.944
85317W        W57632  35.448  24.608  12.367
85318W        W57633   4.252   4.826   0.302
85319W        W57634  30.025  23.657  14.839
85320W        W57635  29.588   1.932   0.856
85321W        W57636  44.768  28.586  12.340
85322W        W57637  22.227  43.858   1.217
85323W        W57638  15.642   1.314   1.228
85324W        W57639  43.270  40.812   4.602
85325W        W57640  11.818  44.481   4.690
85326W        W57641  43.270  14.793  11.505
85327W        W57642  32.564  24.159   0.802
85328W        W57643  26.467  33.005   1.755
85329W        W57644   4.740  38.941   1.428
85330W        W57645  31.551  17.761   1.759
85331W        W57646  16.318   1.428   1.716
85332W        W57647  11.837  11.749  10.033
85333W        W57648   9.165   4.724  10.030
85334W        W57649  10.360  19.671   2.847
85335W        W57650   7.276  28.977  14.356
85336W        W57651  42.471  12.266   3.190
85337W        W57652  24.194  12.211   4.260
85338W        W57653  31.118  35.002  13.460
85339W        W57654  34.909  10.167  12.425
85340W        W57655  39.376  39.521  10.421
85341W        W57656  23.103  24.712   4.183
85342W        W57657  18.633  11.847   1.824
85343W        W57658  36.885  44.262  10.439
85344W        W57659  18.275  21.562  10.627
85345W        W57660   7.232  38.511  14.769
85346W        W57661  42.021  20.076   3.364
85347W        W57662  20.552   7.791  11.068
85348W        W57663  24.208  19.725  12.983
85349W        W57664  10.780  21.258  10.933
85350W        W57665  24.029  25.049  11.450
85351W        W57666  44.937   8.262  14.336
85352W        W57667  33.904   0.898   2.701
85353W        W57668   4.768  35.862  10.576
85354W        W57669  19.628  21.641  14.002
85355W        W57670   3.853  16.632  11.863
85356W        W57671  16.616  15.163   2.664
85357W        W57672   3.275  36.080  12.383
85358W        W57673  37.978   1.762  10.581
85359W        W57674  29.430  33.617  12.007
85360W        W57675   0.411  31.130   3.680
85361W        W57676  12.768  33.983   1.279
85362W        W57677   3.341  18.760   5.308
85363W        W57678  10.310  32.949  11.913
85364W        W57679  14.618  19.778  11.372
85365W        W57680  12.354  25.708  12.557
85366W        W57681   3.299   2.875   1.297
85367W        W57682  17.626  16.651  11.443
85368W        W57683  27.058  14.737   2.689
85369W        W57684  44.330  27.674   1.860
85370W        W57685  44.872  43.352   1.421
85371W        W57686  32.415  15.302  12.011
85372W        W57687  38.375  23.116  11.504
85373W        W57688  34.533  44.827   0.347
85374W        W57689  12.689  24.210  12.496
85375W        W57690   2.402  20.123   1.272
85376W        W57691  43.452  34.102  12.401
85377W        W57692  19.133  36.057   4.129
85378W        W57693   2.796  44.476   2.201
85379W        W57694   3.875  27.660   1.334
85380W        W57695  17.600  36.882   4.144
85381W        W57696  18.757  18.066  11.471
85382W        W57697  32.509  24.593   1.307
85383W        W57698  30.993  35.090  10.920
85384W        W57699  40.325  27.191  13.397
85385W        W57700  35.003  15.719   0.357
85386W        W57701  23.493   0.440   1.783
85387W        W57702   7.198  44.992  11.605
85388W        W57703   4.712  16.689  12.555
85389W        W57704  11.753  10.339   1.882
85390W        W57705  36.530  37.413  10.635
85391W        W57706  23.063  20.045   4.141
85392W        W57707  26.657  37.536  14.842
85393W        W57708  12.311  36.065  13.328
85394W        W57709   3.924  14.657   3.347
85395W        W57710  26.672   5.323   5.092
85396W        W57711  36.091  13.283  12.898
85397W        W57712  34.068  32.608   1.317
85398W        W57713   7.239   5.199   2.882
85399W        W57714   5.911   8.665   1.703
85400W        W57715  35.901  10.839  11.399
85401W        W57716  31.908  44.979   0.859
85402W        W57717   1.927  19.217   4.835
85403W        W57718  12.319  33.877  12.914
85404W        W57719   9.658  37.057   1.323
85405W        W57720   6.728  10.280   0.344
85406W        W57721  27.024  36.958  11.584
85407W        W57722  19.689   3.388  12.895
85408W        W57723  35.010  38.549   2.800
85409W        W57724  17.186  33.397  13.413
85410W        W57725   8.283  18.566   0.403
85411W        W57726   2.836  10.381   3.843
85412W        W57727   3.775   8.669   5.320
85413W        W57728   3.941   8.231  10.467
85414W        W57729  42.922  11.200   5.322
85415W        W57730  43.776  13.618  11.460
85416W        W57731  24.030  17.157   2.683
85417W        W57732  16.693  25.575   2.268
85418W        W57733  10.859  36.521   4.165
85419W        W57734  38.440  35.604   2.816
85420W        W57735  38.538  43.875   4.683
85421W        W57736  26.070  43.775  10.612
85422W        W57737  14.661  25.026   0.265
85423W        W57738  15.143  17.727  12.011
85424W        W57739  34.612   8.694  10.958
85425W        W57740  12.193  42.919  14.402
85426W        W57741  27.622  29.101  13.517
85427W        W57742  36.524  16.100   0.775
85428W        W57743   0.793  39.325  13.967
85429W        W57744  41.822  29.963   2.191
85430W        W57745  27.163  42.446   2.179
85431W        W57746  20.578   3.788   1.865
85432W        W57747  30.965  32.411  11.861
85433W        W57748  17.110  26.168   1.863
85434W        W57749   4.879  35.108   0.936
85435W        W57750  32.027  41.521  11.085
85436W        W57751  16.117  41.008   4.272
85437W        W57752  12.629  21.249  13.466
85438W        W57753  42.388   7.722   0.808
85439W        W57754  23.665   8.895   1.226
85440W        W57755  12.177  16.731  14.434
85441W        W57756  17.774  31.003  13.876
85442W        W57757  11.782   9.378   4.789
85443W        W57758   3.357  15.730  14.355
85444W        W57759   5.912   2.369   4.716
85445W        W57760  30.024  18.220  13.030
85446W        W57761   6.371  38.991  12.490
85447W        W57762  19.077  33.023   3.267
85448W        W57763  35.084  19.170  12.383
85449W        W57764  28.130  37.562  13.846
85450W        W57765  28.522  18.722   2.796
85451W        W57766  14.766  44.481   2.376
85452W        W57767  43.796  38.444  10.602
85453W        W57768  28.674   2.255  13.481
85454W        W57769  14.651  32.621  14.905
85455W        W57770  40.819  28.669   3.192
85456W        W57771  15.756   5.925  14.916
85457W        W57772   1.418  37.973   3.152
85458W        W57773  40.430  19.667   2.664
85459W        W57774  36.485  33.936  10.432
85460W        W57775  38.491  40.986  13.313
85461W        W57776  26.516  10.698  14.341
85462W        W57777  19.131  44.766  14.379
85463W        W57778   6.708  27.967   4.294
85464W        W57779  43.437  13.344   1.868
85465W        W57780  28.633  33.073   2.263
85466W        W57781  41.369  21.025  13.912
85467W        W57782  40.809  41.813  12.057
85468W        W57783  14.294  28.672  10.539
85469W        W57784  29.468  44.262   4.606
85470W        W57785  33.078  41.374   1.772
85471W        W57786  20.559  14.773  10.537
85472W        W57787   5.841  38.566   4.632
85473W        W57788  29.614  11.182  11.496
85474W        W57789  38.500  18.630   2.246
85475W        W57790  35.455  33.999   3.809
85476W        W57791  32.460  39.990   1.794
85477W        W57792   7.679  34.500  10.558
85478W        W57793  33.076   9.830   0.766
85479W        W57794  34.565  36.855   0.864
85480W        W57795   4.747  40.430   2.305
85481W        W57796  15.579  33.932  12.573
85482W        W57797  25.004   0.381  11.558
85483W        W57798  41.391  38.043   2.266
85484W        W57799  17.780   2.432  13.828
85485W        W57800   9.660  43.336   4.630
85486W        W57801  28.650  25.566   0.409
85487W        W57802  42.863  26.083  11.528
85488W        W57803  44.009  23.164   0.797
85489W        W57804  39.026  19.610  14.901
85490W        W57805   8.756   2.459  13.022
85491W        W57806  25.099  31.935   2.360
85492W        W57807   7.245  17.269   2.255
85493W        W57808  38.977   4.272  13.541
85494W        W57809  35.505  31.624  12.956
85495W        W57810  12.749  23.665   3.369
85496W        W57811   8.187  44.791  11.585
85497W        W57812  21.559  21.112  11.438
85498W        W57813  32.625  13.116   4.197
85499W        W57814   6.382  26.028   1.213
85500W        W57815   7.750  37.877  11.947
85501W        W57816  28.981  17.661   2.348
85502W        W57817   4.905  38.488   0.809
85503W        W57818   5.263  22.509   2.344
85504W        W57819   9.857  35.533  10.560
85505W        W57820  37.488   9.301   3.636
85506W        W57821  23.157  23.533  10.903
85507W        W57822  10.805  14.104   0.346
85508W        W57823  23.115   8.759   3.255
85509W        W57824  16.677  25.122  11.960
85510W        W57825  25.698  17.298  14.382
85511W        W57826  26.626  22.098   0.822
85512W        W57827  41.437  14.769   0.483
85513W        W57828   7.839  30.065  12.024
85514W        W57829  42.799   8.888  11.080
85515W        W57830  33.461   6.895  12.975
85516W        W57831  32.566  42.887   4.669
85517W        W57832   8.403  36.986   2.335
85518W        W57833  20.204  22.223  11.407
85519W        W57834   8.311   6.284   3.802
85520W        W57835  13.153  15.194   1.275
85521W        W57836  41.838  33.493  13.400
85522W        W57837  37.888  39.972   2.382
85523W        W57838  42.502   3.950  11.527
85524W        W57839  21.643  39.555  12.954
85525W        W57840   9.808  25.628   4.341
85526W        W57841   2.433  10.154  10.639
85527W        W57842  27.508  40.868  14.394
85528W        W57843   8.223  27.073   4.201
85529W        W57844  34.882  18.748   5.194
85530W        W57845  40.034  20.079   2.723
85531W        W57846  11.369   2.822   4.633
85532W        W57847   7.712   0.449  13.021
85533W        W57848  19.586  31.430   3.706
85534W        W57849  19.625  27.593   0.362
85535W        W57850  12.853  36.842   1.250
85536W        W57851  37.567  37.937   0.783
85537W        W57852   9.346  30.916   0.842
85538W        W57853  22.104  33.920   4.279
85539W        W57854   0.433  23.640   1.836
85540W        W57855  21.201  18.246   2.717
85541W        W57856  25.040  44.837  13.987
85542W        W57857  38.000  29.571  11.979
85543W        W57858  42.511  27.682   4.619
85544W        W57859  28.623  11.742   3.282
85545W        W57860  19.206   5.375   4.680
85546W        W57861  29.514  31.149  13.880
85547W        W57862  27.491  42.858   4.119
85548W        W57863  17.800  20.093  11.004
85549W        W57864  11.820  12.119   2.695
85550W        W57865  40.527  43.851   1.898
85551W        W57866  26.469  12.765  13.911
85552W        W57867  12.783  23.014  12.841
85553W        W57868  44.384  12.817  11.015
85554W        W57869  30.626  19.718   0.440
85555W        W57870  42.785  30.933   1.382
85556W        W57871   0.913  29.948  14.025
85557W        W57872  41.917  37.403  10.581
85558W        W57873  22.137  44.460   2.725
85559W        W57874  34.005  37.914   2.888
85560W        W57875   3.735  10.321  12.472
85561W        W57876  27.124  35.081  10.934
85562W        W57877  10.837  27.461  11.078
85563W        W57878   1.357  41.402   0.727
85564W        W57879  39.369  10.332  10.419
85565W        W57880  20.744  35.090   4.118
85566W        W57881  15.668  16.191  11.416
85567W        W57882   5.271  31.133  13.813
85568W        W57883  29.146  20.154  13.318
85569W        W57884  42.416  10.363   3.805
85570W        W57885  30.923  42.975  13.916
85571W        W57886  21.075  10.735  14.371
85572W        W57887  34.060   7.213  14.315
85573W        W57888  43.511  23.121   2.198
85574W        W57889  44.858  35.403  11.537
85575W        W57890  11.740  21.241  14.426
85576W        W57891   0.982  42.833  11.012
85577W        W57892  38.944  36.035  11.036
85578W        W57893   5.835  37.905   2.260
85579W        W57894  31.953  11.128  11.594
85580W        W57895  10.307  41.834  13.021
85581W        W57896  27.139  33.504  14.005
85582W        W57897   8.299  13.635   3.300
85583W        W57898  15.823  14.612   4.637
85584W        W57899  10.206  16.299   1.767
85585W        W57900   3.410  14.707   4.173
85586W        W57901   7.240  40.015  11.120
85587W        W57902  25.699  34.478  14.370
85588W        W57903  31.978   3.806  10.463
85589W        W57904   1.441  43.794  14.957
85590W        W57905  21.037   8.311   1.222
85591W        W57906   4.216   4.706   1.809
85592W        W57907  34.962  24.998  14.281
85593W        W57908   3.711  29.016   4.269
85594W        W57909   8.713   1.774  14.853
85595W        W57910  42.472  37.374  10.577
85596W        W57911   6.681  25.014   2.847
85597W        W57912  26.061   2.421  12.433
85598W        W57913  44.792   0.769  13.539
85599W        W57914  18.678  31.566  11.128
85600W        W57915  32.043  42.903   2.387
85601W        W57916   9.365   3.818  11.552
85602W        W57917  35.592   8.236  13.015
85603W        W57918  19.622  35.934   0.401
85604W        W57919  27.078  41.001   0.411
85605W        W57920  29.071  30.452   0.759
85606W        W57921  41.879  30.459   5.161
85607W        W57922  44.404   3.756   0.437
85608W        W57923  43.313  34.490   0.290
85609W        W57924  36.388  36.907  14.866
85610W        W57925   4.713  41.799  11.929
85611W        W57926  38.352   2.340  14.022
85612W        W57927  11.368  10.795  14.817
85613W        W57928  38.428  35.368  11.125
85614W        W57929  27.024  36.398   0.390
85615W        W57930   9.221  26.543  10.467
85616W        W57931   3.773  23.101   4.767
85617W        W57932  38.520  12.733   1.898
85618W        W57933  26.686  38.408  11.458
85619W        W57934  22.573  28.062  12.990
85620W        W57935  38.900   8.783   2.399
85621W        W57936  33.988  13.618   4.198
85622W        W57937   7.216  15.824   0.786
85623W        W57938  41.920  44.266   1.354
85624W        W57939  29.661   3.311  14.369
85625W        W57940  16.568  42.436  12.023
85626W        W57941  20.648  11.374  12.915
85627W        W57942  31.062  17.790   3.351
85628W        W57943  30.441  10.301   2.345
85629W        W57944  37.052   8.678  14.852
85630W        W57945  10.662  31.086   2.250
85631W        W57946  13.135  29.138   3.729
85632W        W57947  35.882  38.380  10.447
85633W        W57948  38.948   1.441   1.363
85634W        W57949  40.989  23.131  11.464
85635W        W57950   1.937  21.556  14.480
85636W        W57951  12.726  37.484  10.952
85637W        W57952  37.960  31.135  13.459
85638W        W57953  26.111  19.543  11.992
85639W        W57954  38.921  22.612  12.828
85640W        W57955  24.175   2.836   4.290
85641W        W57956  39.494   0.824  11.068
85642W        W57957  35.528   0.368   0.420
85643W        W57958  43.013  15.632   2.394
85644W        W57959   1.263  29.625  10.415
85645W        W57960  37.883   0.385  12.987
85646W        W57961   2.948  19.253   4.242
85647W        W57962  38.396  29.052  11.453
85648W        W57963  40.040  24.546   3.219
85649W        W57964   8.814  24.105   5.138
85650W        W57965  42.889  40.907   2.735
85651W        W57966  19.582   8.680   1.707
85652W        W57967  18.071  25.962   4.728
85653W        W57968  39.515  43.515  12.581
85654W        W57969  35.415   2.781  12.843
85655W        W57970  12.300  11.263  13.409
85656W        W57971   3.273   0.902   2.419
85657W        W57972  19.147  29.977   4.602
85658W        W57973  37.474   1.244  11.118
85659W        W57974  17.061  40.397  13.791
85660W        W57975  20.695   9.688  13.921
85661W        W57976  24.085   6.786  12.067
85662W        W57977  21.084  35.544  14.368
85663W        W57978  27.477  19.753  11.079
85664W        W57979  32.053  25.208  12.021
85665W        W57980  44.998  34.009   5.583
85666W        W57981  16.689  43.872  12.038
85667W        W57982   0.748  10.656   4.641
85668W        W57983  25.659   4.848  13.006
85669W        W57984  35.430  31.005   1.882
85670W        W57985  16.207  36.522   4.266
85671W        W57986  35.944   6.769  11.531
85672W        W57987   4.836   5.257  13.320
85673W        W57988  13.736   2.456  10.986
85674W        W57989  38.378  29.595  12.037
85675W        W57990   0.940  14.729   4.837
85676W        W57991  44.893  19.688  11.581
85677W        W57992  27.038  27.149  10.574
85678W        W57993  41.962   4.925   0.280
85679W        W57994  35.907   3.264  14.885
85680W        W57995  31.471  13.115   0.889
85681W        W57996  36.025  16.233   2.733
85682W        W57997  17.145  18.138  12.971
85683W        W57998  40.039  19.731  12.998
85684W        W57999  33.526   5.918  14.280
85685W        W58000  31.057  30.586   2.884
85686W        W58001  29.920  28.947   3.254
85687W        W58002  32.499   5.238  10.460
85688W        W58003  25.031  25.684   2.761
85689W        W58004  18.613  32.396   0.948
85690W        W58005  11.138  24.069  13.386
85691W        W58006  41.454  14.793   0.950
85692W        W58007  10.381  41.526   4.157
85693W        W58008  42.484  29.035  13.996
85694W        W58009   7.794  13.160  10.424
85695W        W58010  28.453  34.983   3.641
85696W        W58011  23.157  15.092  12.089
85697W        W58012  13.177   9.845  11.885
85698W        W58013   1.266  38.387  12.053
85699W        W58014  30.943  38.558   0.439
85700W        W58015  41.949  18.054  12.963
85701W        W58016  25.520  42.443   4.199
85702W        W58017  35.005  44.877   2.412
85703W        W58018  24.493  36.354   4.653
85704W        W58019  39.408  38.957  12.969
85705W        W58020   8.211   1.821   0.774
85706W        W58021  36.563  19.672  10.528
85707W        W58022  18.102  23.563   3.750
85708W        W58023  24.517   3.716   3.860
85709W        W58024  11.728  19.136   5.776
85710W        W58025  34.077  33.443   0.422
85711W        W58026  15.624  36.352  13.846
85712W        W58027   4.278   4.707   3.282
85713W        W58028  41.793   4.916   1.293
85714W        W58029   8.814  10.642   1.778
85715W        W58030   0.925  36.368  14.913
85716W        W58031  17.304   3.763   1.341
85717W        W58032  16.095  44.318  14.287
85718W        W58033   5.204  38.446   2.742
85719W        W58034  38.883  43.935   4.817
85720W        W58035  40.372  13.768   1.278
85721W        W58036  11.783  26.462  11.899
85722W        W58037  23.722  23.131   2.800
85723W        W58038  32.558  32.108   2.759
85724W        W58039  18.117  11.859   2.363
85725W        W58040   3.761  14.756   0.943
85726W        W58041   6.268   7.893  13.927
85727W        W58042  36.900  37.424  12.884
85728W        W58043  42.414  44.765  12.824
85729W        W58044  19.227  10.383   3.280
85730W        W58045  44.471   0.926  14.352
85731W        W58046  17.257   5.394  12.359
85732W        W58047  26.479  41.834  10.622
85733W        W58048   4.361  40.471   1.343
85734W        W58049  23.518   8.899  14.332
85735W        W58050  12.302   6.836   4.807
85736W        W58051  10.321   6.806   1.416
85737W        W58052  37.061  40.021   1.792
85738W        W58053  35.482  39.818  13.487
85739W        W58054  26.641  27.075   4.196
85740W        W58055   4.821  22.566   3.358
85741W        W58056  21.116  30.634  15.000
85742W        W58057  21.190  39.320  13.063
85743W        W58058   9.224  18.644  14.854
85744W        W58059  11.348  30.131   1.275
85745W        W58060  35.579  44.433   1.298
85746W        W58061  43.321  41.521  14.511
85747W        W58062  23.010  40.881  11.570
85748W        W58063  26.691  40.006  11.577
85749W        W58064  41.886  35.892  12.360
85750W        W58065  32.632  21.714  11.909
85751W        W58066   7.251  15.216   1.763
85752W        W58067  25.688  33.973   4.244
85753W        W58068  44.501  30.029   3.749
85754W        W58069  21.205  24.494  13.953
85755W        W58070  20.671  17.219  13.987
85756W        W58071  36.030  30.036  11.038
85757W        W58072   8.283  16.091   1.733
85758W        W58073  41.025  21.119   0.441
85759W        W58074   1.370  14.159  12.355
85760W        W58075   4.420  34.929   4.631
85761W        W58076  22.252  23.658   2.670
85762W        W58077  19.590   7.773   2.864
85763W        W58078  21.546  30.568   2.319
85764W        W58079  35.502  29.135   3.868
85765W        W58080   0.770   9.186   5.293
85766W        W58081  11.796  39.521   3.848
85767W        W58082  36.915  11.802  14.858
85768W        W58083  10.253   6.680   3.643
85769W        W58084  18.082   0.904  14.314
85770W        W58085  18.070  23.628   4.168
85771W        W58086  20.147  29.991  14.843
85772W        W58087  39.537  17.557   0.816
85773W        W58088  32.556  36.450   0.742
85774W        W58089  34.116  22.034  11.522
85775W        W58090  14.316  22.091  11.932
85776W        W58091  32.123  24.623  12.906
85777W        W58092  18.239   8.356   3.271
85778W        W58093  40.924  15.119   3.714
85779W        W58094  35.463  22.570  13.507
85780W        W58095  30.098  21.170  14.392
85781W        W58096  43.486  44.767   2.307
85782W        W58097   8.752  13.284  10.553
85783W        W58098  28.979  43.982  11.541
85784W        W58099  15.146  19.235   2.395
85785W        W58100  42.884   4.271  11.549
85786W        W58101  15.626  20.272  14.477
85787W        W58102   0.817  36.873  13.462
85788W        W58103  30.028  35.583  14.800
85789W        W58104   8.402  43.475   0.305
85790W        W58105   6.757  25.075   0.281
85791W        W58106  19.688   6.735   1.739
85792W        W58107  24.571   9.255   3.202
85793W        W58108  14.216  41.818   4.273
85794W        W58109  35.515  41.014  11.100
85795W        W58110  11.251  40.529  14.934
85796W        W58111  24.174  14.818   1.210
85797W        W58112   3.455  43.514  10.467
85798W        W58113   6.244   7.749  14.807
85799W        W58114   3.728  13.716   0.751
85800W        W58115  20.046  29.951  14.325
85801W        W58116   8.383  23.734  13.417
85802W        W58117  40.516  43.860   3.361
85803W        W58118  15.231  18.605   1.926
85804W        W58119  10.275  24.127  14.322
85805W        W58120  40.325  22.621  10.077
85806W        W58121  19.724  10.713   5.240
85807W        W58122  22.679   5.929   4.737
85808W        W58123   2.355  43.990  14.488
85809W        W58124  44.977  13.344  10.501
85810W        W58125  18.093  38.953  13.797
85811W        W58126  23.526  36.915  10.953
85812W        W58127  28.060   5.887   0.930
85813W        W58128  36.982  33.901   1.766
85814W        W58129  27.677  28.106   0.424
85815W        W58130  42.482  38.879   3.845
85816W        W58131  20.647  42.982   2.384
85817W        W58132  15.647  15.213  12.928
85818W        W58133  27.007  10.843  13.969
85819W        W58134  19.564  41.405   1.256
85820W        W58135  39.991  25.705  11.944
85821W        W58136  36.565  17.089   1.812
85822W        W58137  41.923   1.861  13.982
85823W        W58138  27.513  44.335  14.344
85824W        W58139  18.574  17.095   3.349
85825W        W58140  32.501  20.159   2.208
85826W        W58141   0.282  44.370   3.782
85827W        W58142  36.472  40.544  10.981
85828W        W58143  43.334   7.741  13.517
85829W        W58144   8.885   8.698   3.334
85830W        W58145  29.435  26.659  14.853
85831W        W58146  39.343  42.483  10.559
85832W        W58147  16.253  41.958  12.566
85833W        W58148  28.948  41.994  12.363
85834W        W58149  41.923  29.546  14.778
85835W        W58150   6.255  20.244  14.433
85836W        W58151   2.378  42.514   3.664
85837W        W58152  15.243  23.504   0.753
85838W        W58153  42.946  18.666  14.968
85839W        W58154   4.409  36.091  13.533
85840W        W58155  13.733  30.546  14.849
85841W        W58156   5.751  34.581   2.245
85842W        W58157   2.280  12.817  10.452
85843W        W58158  21.704  43.391   1.763
85844W        W58159   2.777  26.609   0.744
85845W        W58160  43.456  41.450  11.492
85846W        W58161  17.108  15.222  12.904
85847W        W58162  37.056  32.081  10.498
85848W        W58163  17.165   7.173  12.489
85849W        W58164  12.189  17.289   4.601
85850W        W58165   1.759  29.000   0.913
85851W        W58166  24.481  10.279   2.238
85852W        W58167  17.742  18.759  10.959
85853W        W58168  15.720   8.681  10.151
85854W        W58169  39.346  39.815  11.029
85855W        W58170  40.850  20.614   3.167
85856W        W58171  31.031  38.073   0.936
85857W        W58172  34.441   2.874   1.239
85858W        W58173  20.708   5.342   2.392
85859W        W58174  36.058  36.392  10.992
85860W        W58175   9.661  17.215   0.465
85861W        W58176   7.797   2.871   2.777
85862W        W58177  33.402  10.232   9.972
85863W        W58178  10.155  30.479   3.732
85864W        W58179   7.897  31.491  13.427
85865W        W58180  26.952  40.821  12.058
85866W        W58181  16.296  44.983   0.361
85867W        W58182  43.356  39.852   0.382
85868W        W58183  29.629  18.597   2.309
85869W        W58184  35.097  34.964  11.883
85870W        W58185  16.255  42.464  13.913
85871W        W58186  24.532  33.885   0.439
85872W        W58187  11.632  25.496  11.010
85873W        W58188  44.952   1.924  12.406
85874W        W58189  24.221  12.855  12.852
85875W        W58190  27.963   7.870   0.283
85876W        W58191   5.884  14.705   0.374
85877W        W58192   1.451  40.916   4.651
85878W        W58193  15.593  44.829  11.880
85879W        W58194  19.541   2.800   4.686
85880W        W58195  13.741   2.803  10.926
85881W        W58196  30.004  21.155  13.315
85882W        W58197   7.725  37.539  11.101
85883W        W58198  35.859  40.994  12.360
85884W        W58199  31.977  11.372  14.501
85885W        W58200  44.858  15.306   3.702
85886W        W58201  31.031  13.299   1.799
85887W        W58202  28.142  14.626   2.378
85888W        W58203  32.600   2.786   3.738
85889W        W58204   0.270  29.650  11.473
85890W        W58205   5.256  42.971  12.544
85891W        W58206  32.002  44.348  12.426
85892W        W58207   6.405  42.863   0.423
85893W        W58208  30.131  34.419   4.227
85894W        W58209  34.383  34.889   0.940
85895W        W58210  34.085  30.449  11.044
85896W        W58211  24.069   7.787  13.994
85897W        W58212   3.220   7.820  11.488
85898W        W58213  23.650  40.376   4.230
85899W        W58214  10.794  19.124   0.751
85900W        W58215  21.641  30.949   3.750
85901W        W58216  31.132   2.431  13.488
85902W        W58217  31.907  14.175  11.472
85903W        W58218  24.090  36.377   3.232
85904W        W58219   8.374  37.064  11.402
85905W        W58220  29.161  16.259   3.218
85906W        W58221  29.103  36.848   0.766
85907W        W58222  12.619  33.083  12.401
85908W        W58223  36.513  29.608   4.268
85909W        W58224  27.124  28.010  12.372
85910W        W58225  34.074  44.487  13.825
85911W        W58226   4.433  15.627  10.467
85912W        W58227  23.615  14.690  14.485
85913W        W58228  19.272  42.835  10.987
85914W        W58229  18.756  14.233  12.576
85915W        W58230  21.682  35.908  11.433
85916W        W58231  14.754   5.753  14.994
85917W        W58232   7.820  37.377  13.541
85918W        W58233  26.549  12.202   1.314
85919W        W58234   2.889  40.979   1.848
85920W        W58235  16.797  15.664  14.777
85921W        W58236   5.335   7.835  13.532
85922W        W58237  28.950  30.957  14.874
85923W        W58238   2.825  35.441  13.906
85924W        W58239   5.718  33.426   1.400
85925W        W58240  40.918  19.265   2.367
85926W        W58241  21.127  20.756  10.476
85927W        W58242  37.924  22.127   1.731
85928W        W58243  44.358  23.701  14.823
85929W        W58244  20.119  42.289  14.338
85930W        W58245   9.701  39.518   4.332
85931W        W58246  34.977   6.773  11.018
85932W        W58247   4.705  29.451   2.786
85933W        W58248   9.303  10.804  14.016
85934W        W58249  38.380  32.533  12.406
85935W        W58250  17.123   1.379   2.197
85936W        W58251  34.516   7.248  10.603
85937W        W58252   2.289  41.872   1.235
85938W        W58253  43.323  21.676   0.281
85939W        W58254  40.305  31.143  11.483
85940W        W58255  15.682  42.957  11.435
85941W        W58256   8.194   9.771   3.757
85942W        W58257  31.996  13.214  10.422
85943W        W58258  14.741  42.860   1.754
85944W        W58259  15.104  25.540  11.479
85945W        W58260   2.894  14.658  11.469
85946W        W58261  16.725  27.197   3.710
85947W        W58262   8.784  36.017  14.968
85948W        W58263  30.037  44.756   0.253
85949W        W58264   5.812  29.138  13.328
85950W        W58265  29.647   8.819   2.204
85951W        W58266  23.163  44.365   0.797
85952W        W58267  28.585  13.180   3.660
85953W        W58268   5.365   4.923   4.801
85954W        W58269  17.624   7.771   0.362
85955W        W58270  20.626  30.562   3.756
85956W        W58271  39.917  13.693  11.940
85957W        W58272  44.313  12.241   9.959
85958W        W58273  19.068  28.587   5.310
85959W        W58274  28.147  41.997   3.783
85960W        W58275  41.854  37.375  13.011
85961W        W58276  39.481  40.022   0.417
85962W        W58277  35.877  13.788   3.200
85963W        W58278  23.610  33.120  14.832
85964W        W58279  27.016  26.535  14.425
85965W        W58280   5.373  18.649   0.781
85966W        W58281  28.665  32.112   3.850
85967W        W58282  11.320  44.290  11.602
85968W        W58283   2.424  23.595  13.048
85969W        W58284  18.611   5.413   4.318
85970W        W58285   1.945  38.500   0.243
85971W        W58286   1.769  11.279   9.462
85972W        W58287  43.311   9.734  12.941
85973W        W58288  12.154  22.636  11.540
85974W        W58289   4.833  12.193   0.893
85975W        W58290  13.617  26.189  11.610
85976W        W58291   4.860   2.815   2.821
85977W        W58292  26.626  27.994   3.207
85978W        W58293  43.277  30.082  13.830
85979W        W58294   7.691  39.388  12.912
85980W        W58295   8.743   6.220   2.826
85981W        W58296  29.648  35.077   4.231
85982W        W58297  43.774   9.707  13.964
85983W        W58298  40.306  11.280   0.276
85984W        W58299  12.219   1.823  13.921
85985W        W58300  24.613  20.108   3.234
85986W        W58301  15.151  19.681   2.822
85987W        W58302  14.138   8.800  11.992
85988W        W58303  13.257   4.853   3.706
85989W        W58304  44.906  37.848  12.429
85990W        W58305  31.142  14.288   5.259
85991W        W58306  40.863  41.489  12.029
85992W        W58307  10.146   1.874   1.448
85993W        W58308  20.257  39.043   4.654
85994W        W58309  42.777  16.705   2.351
85995W        W58310   2.374  26.480   2.291
85996W        W58311   6.407  25.503   1.842
85997W        W58312  26.037  40.816  10.557
85998W        W58313  10.372  29.112  11.915
85999W        W58314  26.682  41.462   4.277
86000W        W58315   7.768   0.829   4.248
86001W        W58316  18.694  41.901  11.418
86002W        W58317   7.204  38.533  11.382
86003W        W58318  23.117   0.287   0.747
86004W        W58319  10.203  29.648   1.385
86005W        W58320   7.872  35.083   0.264
86006W        W58321  27.550  16.086   2.739
86007W        W58322  20.642  22.157  14.816
86008W        W58323  39.873  10.322   1.228
86009W        W58324   5.329   8.856  11.949
86010W        W58325  22.502   2.421   3.223
86011W        W58326   9.302   3.915   2.796
86012W        W58327   6.899  41.844  12.887
86013W        W58328  18.082   8.355  10.933
86014W        W58329  15.769  40.347   1.235
86015W        W58330  40.844  36.395  11.393
86016W        W58331  13.657   1.287   0.319
86017W        W58332  14.798  23.044  14.428
86018W        W58333   9.295  28.954  11.924
86019W        W58334  43.005  43.883   2.837
86020W        W58335  21.167  39.403  14.355
86021W        W58336   7.843  26.664  14.469
86022W        W58337  19.768  30.481  14.921
86023W        W58338  27.088  33.004   1.265
86024W        W58339  39.022  19.196  11.073
86025W        W58340  44.370  27.946  10.475
86026W        W58341  24.026   2.335  12.901
86027W        W58342  43.021  30.649  12.357
86028W        W58343   6.364   7.795   1.330
86029W        W58344  16.614  28.112   5.771
86030W        W58345  26.956  42.515  11.565
86031W        W58346  38.461  40.549  11.049
86032W        W58347  41.843   6.771  14.481
86033W        W58348  11.737  43.767   4.797
86034W        W58349  18.581  16.637   1.786
86035W        W58350   2.824   4.783   2.685
86036W        W58351  41.934  10.278   0.329
86037W        W58352  37.901  22.108  12.457
86038W        W58353  15.749  28.945  14.989
86039W        W58354  37.345  36.887  11.452
86040W        W58355  21.538  29.482  13.026
86041W        W58356  37.075  20.765   0.853
86042W        W58357  26.542  25.038   0.373
86043W        W58358  33.396  30.475  13.512
86044W        W58359  22.674  19.564  14.354
86045W        W58360  35.564  10.206  10.624
86046W        W58361  36.350  35.905   2.416
86047W        W58362  22.094  34.068  10.614
86048W        W58363  20.247   1.296   2.308
86049W        W58364  38.965  37.914  11.482
86050W        W58365  33.470  17.099   2.885
86051W        W58366  38.336  18.060   3.666
86052W        W58367  42.454  10.354   0.897
86053W        W58368  30.636  22.695  14.993
86054W        W58369   6.278   0.805  14.498
86055W        W58370  40.307  23.060  10.423
86056W        W58371  31.969   2.349   2.758
86057W        W58372  33.573  30.512  13.906
86058W        W58373  29.643  33.957   5.194
86059W        W58374   5.733  20.242   2.269
86060W        W58375  20.764   1.955  14.458
86061W        W58376  44.853  41.495  10.608
86062W        W58377  30.115   7.777  10.568
86063W        W58378  41.809   0.837  14.791
86064W        W58379  33.479  39.533  11.923
86065W        W58380  16.698  12.814  12.913
86066W        W58381   0.288  26.106  13.859
86067W        W58382  32.469   1.751  14.966
86068W        W58383  17.154  36.399  13.413
86069W        W58384  15.738   8.210   3.263
86070W        W58385  13.345  18.754   0.963
86071W        W58386  31.976  28.456  12.441
86072W        W58387  34.410  42.996   3.854
86073W        W58388  18.086  16.726  12.016
86074W        W58389  26.696  43.871  12.949
86075W        W58390   5.322  19.592   3.678
86076W        W58391  13.836  11.240   1.402
86077W        W58392  15.722  10.212  12.048
86078W        W58393  39.365  17.130  11.472
86079W        W58394  19.562   4.419  11.571
86080W        W58395  30.439  14.253   4.650
86081W        W58396   1.416  21.022  12.968
86082W        W58397  28.089  28.943  13.886
86083W        W58398  27.686  30.509  12.890
86084W        W58399  36.544  29.960   4.260
86085W        W58400  42.408   5.325  13.495
86086W        W58401  38.998  42.998  12.934
86087W        W58402  43.774   2.460   1.350
86088W        W58403  26.538  35.919  12.564
86089W        W58404  40.373  26.587   3.211
86090W        W58405   3.905  10.849  13.851
86091W        W58406  10.692   2.798   1.888
86092W        W58407  37.849  24.193  11.441
86093W        W58408  35.858   0.409  11.526
86094W        W58409  40.871   1.814  11.395
86095W        W58410  35.463   1.925  12.386
86096W        W58411   2.843  38.562   1.706
86097W        W58412  18.189   6.923  13.049
86098W        W58413  28.078  33.104   3.209
86099W        W58414  23.188  16.712  10.492
86100W        W58415  21.058   8.855   0.376
86101W        W58416   9.319  16.643   3.174
86102W        W58417   0.903  18.250   3.171
86103W        W58418  32.042  33.481   2.771
86104W        W58419   0.797  25.550  14.876
86105W        W58420  14.646   3.766   1.381
86106W        W58421  18.724  21.654   2.315
86107W        W58422   6.859  39.341  12.029
86108W        W58423  29.100  35.929  13.368
86109W        W58424  12.129  22.245   3.216
86110W        W58425  35.046   7.725  10.627
86111W        W58426  38.864  26.114  12.002
86112W        W58427  32.556  31.497   3.794
86113W        W58428  28.597  36.478  14.443
86114W        W58429  34.100  16.673  12.018
86115W        W58430  30.624  23.107   4.620
86116W        W58431  28.045  33.569   0.397
86117W        W58432  38.544  42.493   1.868
86118W        W58433   0.442  23.093  10.407
86119W        W58434  24.077  37.037  11.412
86120W        W58435  23.080   0.279  10.928
86121W        W58436   8.782   3.889   4.115
86122W        W58437  35.602  34.447   2.313
86123W        W58438   0.952  22.194   4.829
86124W        W58439   9.233  29.574  14.329
86125W        W58440  36.977   1.247   0.457
86126W        W58441  13.200  33.482  12.461
86127W        W58442   2.386  12.849   1.291
86128W        W58443  26.058  15.156   0.421
86129W        W58444  28.590  37.387  14.439
86130W        W58445  19.242   4.422  14.485
86131W        W58446  11.781   4.804   1.393
86132W        W58447  12.788  22.055   3.851
86133W        W58448  21.561  28.099   4.162
86134W        W58449  29.425  16.711   3.720
86135W        W58450  31.037  33.075   2.849
86136W        W58451  31.088   9.854  11.494
86137W        W58452   5.354  24.061  11.913
86138W        W58453  22.122  28.991  11.025
86139W        W58454  17.262  39.942   0.390
86140W        W58455   5.194  14.684  13.997
86141W        W58456  22.051  44.426  14.305
86142W        W58457  43.325  19.759   2.739
86143W        W58458  27.620  19.259  14.937
86144W        W58459  36.036   2.282  12.357
86145W        W58460  20.044  35.041   1.800
86146W        W58461   1.923  24.230   3.211
86147W        W58462   4.814  11.626   9.952
86148W        W58463  18.096  36.963  13.826
86149W        W58464   4.841  20.122   2.287
86150W        W58465   6.306  14.286   4.669
86151W        W58466  36.396  35.934  12.074
86152W        W58467  28.533   7.719  14.849
86153W        W58468  20.598  33.482   0.893
86154W        W58469   4.802   0.254   0.729
86155W        W58470   7.235  23.700   2.241
86156W        W58471  30.565  15.146  14.820
86157W        W58472  21.130   5.423   2.790
86158W        W58473  13.725  44.463  14.801
86159W        W58474  30.095  24.200   4.196
86160W        W58475  18.249  14.604   1.802
86161W        W58476  30.479  23.601   0.281
86162W        W58477  22.166   6.693  14.324
86163W        W58478  22.194  13.697   0.358
86164W        W58479  18.098   5.212  13.861
86165W        W58480  28.066  32.048  10.941
86166W        W58481   9.734   2.887   4.676
86167W        W58482  26.160  22.132  12.936
86168W        W58483  38.056  37.896   3.378
86169W        W58484  30.927  29.073   0.791
86170W        W58485  20.741  39.887  11.563
86171W        W58486  11.331  14.755  12.465
86172W        W58487   9.878  25.203   3.352
86173W        W58488  20.692  28.013   1.404
86174W        W58489  15.097  15.681  14.026
86175W        W58490   0.426  33.044  14.399
86176W        W58491  30.985  40.487   0.937
86177W        W58492   1.350  31.601   4.751
86178W        W58493  42.388  32.060  14.403
86179W        W58494   5.216  26.580  10.948
86180W        W58495  17.769  41.030   2.271
86181W        W58496  16.700  27.959  12.459
86182W        W58497  14.283  35.529   2.832
86183W        W58498  19.108  11.177   2.697
86184W        W58499   0.409  29.097  13.518
86185W        W58500   1.275  35.373  10.953
86186W        W58501  19.594  21.224  10.618
86187W        W58502   9.210  25.600   3.298
86188W        W58503  33.461  32.631  11.540
86189W        W58504  15.584  31.970  14.953
86190W        W58505  43.949  13.137   1.266
86191W        W58506  18.744   5.857   0.925
86192W        W58507  24.227  38.480  11.910
86193W        W58508   8.165  21.698  13.342
86194W        W58509  35.596  19.771   3.376
86195W        W58510   4.930  39.963  14.030
86196W        W58511  16.682  34.972  12.454
86197W        W58512   7.844  38.923  14.277
86198W        W58513  23.206  33.400  14.937
86199W        W58514  34.457  43.892  11.874
86200W        W58515  40.396  10.154   5.235
86201W        W58516  40.971  32.976  13.348
86202W        W58517   5.366  13.238  11.603
86203W        W58518  43.932  44.282  13.383
86204W        W58519  32.110  15.273  11.477
86205W        W58520  20.593  23.567  14.467
86206W        W58521   5.711   6.292   2.717
86207W        W58522  41.942  34.374   3.236
86208W        W58523  14.097  33.883  14.012
86209W        W58524  34.594  15.748  13.314
86210W        W58525  19.758  19.218   1.718
86211W        W58526  22.092  39.470  12.977
86212W        W58527  38.521  35.913  11.987
86213W        W58528  12.327  43.410   1.311
86214W        W58529   5.705  44.768  12.453
86215W        W58530  37.549  43.370  13.822
86216W        W58531  44.867  17.590  10.938
86217W        W58532  26.962  25.041   0.412
86218W        W58533  25.505  43.510  11.015
86219W        W58534  26.157   6.398   2.374
86220W        W58535  20.175  37.459   4.825
86221W        W58536  10.875  24.606   3.280
86222W        W58537  24.210   1.340   0.931
86223W        W58538   1.923  30.651   1.857
86224W        W58539   7.845   2.332   4.618
86225W        W58540  23.022  30.639  13.980
86226W        W58541   4.848  30.118  14.831
86227W        W58542   1.960  41.975  11.044
86228W        W58543   7.331   0.859   1.786
86229W        W58544  10.208  27.998   3.238
86230W        W58545  31.934  11.838   4.242
86231W        W58546  37.942   8.218  13.866
86232W        W58547  43.466  27.495  12.874
86233W        W58548   6.853  19.616  14.949
86234W        W58549  27.082   1.810  14.425
86235W        W58550  17.293  44.300   3.258
86236W        W58551  24.002  10.780  11.941
86237W        W58552  40.998  24.543   3.385
86238W        W58553  34.391  18.230   3.652
86239W        W58554  24.542  12.688   2.203
86240W        W58555   9.745  12.249   1.772
86241W        W58556   2.304   5.371   4.665
86242W        W58557  11.623  25.020   2.183
86243W        W58558  37.405  22.657   3.329
86244W        W58559  17.724  31.026   1.269
86245W        W58560  35.983   6.424  11.929
86246W        W58561  25.504  28.947   5.192
86247W        W58562  12.302  33.112   1.829
86248W        W58563  12.313  35.601   3.228
86249W        W58564  28.148  15.708  11.881
86250W        W58565  44.913  37.349   5.167
86251W        W58566   0.456  31.984  11.474
86252W        W58567  18.135  15.091   3.309
86253W        W58568  32.958  26.689   0.321
86254W        W58569  22.539  12.225  13.031
86255W        W58570  22.712  36.995   0.431
86256W        W58571  34.018   5.797  11.495
86257W        W58572  21.659   2.858  12.836
86258W        W58573  37.044   1.441   2.715
86259W        W58574  24.031  14.822   0.320
86260W        W58575  27.577  13.603   3.189
86261W        W58576  22.238  27.668  12.539
86262W        W58577  40.955  28.148   3.828
86263W        W58578  42.465   9.202  12.353
86264W        W58579  40.438  20.729  14.475
86265W        W58580  29.048   7.274  14.473
86266W        W58581  14.709  10.870  11.552
86267W        W58582   1.940   6.716   4.629
86268W        W58583  41.960  20.054   0.868
86269W        W58584  35.530  41.787   3.635
86270W        W58585  11.742  40.908   9.994
86271W        W58586   0.864  40.993   4.754
86272W        W58587  25.133  38.979  12.435
86273W        W58588  15.128  28.098   2.753
86274W        W58589  30.479  13.709   2.756
86275W        W58590  15.664  22.025  11.376
86276W        W58591  20.273  44.467  13.397
86277W        W58592  21.245  38.325  13.976
86278W        W58593  21.040  33.601  11.430
86279W        W58594  31.455  39.915   0.755
86280W        W58595  43.794  10.321   3.711
86281W        W58596  26.130  10.271  13.917
86282W        W58597  44.847  38.370  14.813
86283W        W58598  21.253  40.517  11.006
86284W        W58599   3.721   2.892  11.905
86285W        W58600  28.481  18.569   0.373
86286W        W58601  31.458  30.488   1.267
86287W        W58602  21.180   9.767  14.844
86288W        W58603   8.837  14.777   2.324
86289W        W58604  33.021  10.322  13.812
86290W        W58605  33.099   6.818   2.736
86291W        W58606  42.448   4.243   1.725
86292W        W58607  42.855  19.640   4.730
86293W        W58608   1.481  26.072  12.516
86294W        W58609  41.318  22.170  12.565
86295W        W58610  34.392   5.842   0.430
86296W        W58611  11.766  17.183   4.195
86297W        W58612  40.983  14.154  10.571
86298W        W58613  20.715  11.646   0.478
86299W        W58614   6.256  44.417   3.790
86300W        W58615  27.451  42.424   3.658
86301W        W58616  41.869  41.794  10.603
86302W        W58617  38.896  13.673   3.332
86303W        W58618   7.390  34.463  14.797
86304W        W58619   0.271  33.519   2.243
86305W        W58620   4.720  31.099   3.820
86306W        W58621  43.507  37.955  10.493
86307W        W58622   1.437  11.141  10.105
86308W        W58623  29.517  15.624   5.281
86309W        W58624  11.333  30.919   3.634
86310W        W58625  29.457  12.837   2.816
86311W        W58626  10.850  11.833  10.008
86312W        W58627  15.821  15.756  14.821
86313W        W58628  17.702  39.866   2.234
86314W        W58629   7.725  37.922   0.939
86315W        W58630  20.111   9.679   3.214
86316W        W58631  12.138   3.905  12.490
86317W        W58632   5.407  35.475  11.880
86318W        W58633  18.280  28.000  13.892
86319W        W58634  41.352   1.390   4.710
86320W        W58635   1.826  34.907  10.460
86321W        W58636  30.152  23.701   1.750
86322W        W58637  15.316   4.831   1.280
86323W        W58638  37.967  23.644  10.898
86324W        W58639  29.429   0.454  11.973
86325W        W58640   7.759  33.917   1.250
86326W        W58641  42.452   3.302   3.207
86327W        W58642  22.173  20.734   3.335
86328W        W58643  15.585   3.285  14.900
86329W        W58644   5.297  16.572  10.929
86330W        W58645  35.576  18.171  14.482
86331W        W58646  12.193  13.340  12.543
86332W        W58647  44.785  42.942  14.417
86333W        W58648   4.254  41.474  10.645
86334W        W58649  43.943  26.966  12.868
86335W        W58650  43.895  35.988  12.848
86336W        W58651  44.973  43.821  13.307
86337W        W58652  19.713  34.595   3.171
86338W        W58653  15.252  33.570   2.302
86339W        W58654   3.316  26.458  10.889
86340W        W58655   3.340  10.835  11.449
86341W        W58656  32.942  36.037   3.814
86342W        W58657   9.718  14.241   2.236
86343W        W58658   0.407   0.855   3.692
86344W        W58659   5.283  39.865   3.171
86345W        W58660  35.571  27.580   2.378
86346W        W58661   7.804   3.241  10.501
86347W        W58662  20.632  19.095  13.471
86348W        W58663   4.879  30.520   0.246
86349W        W58664  33.960  40.467   3.865
86350W        W58665  13.613   4.419  10.437
86351W        W58666  36.972   1.404   1.845
86352W        W58667  33.608  28.176  11.121
86353W        W58668   4.305   1.462   1.756
86354W        W58669  17.750  16.653   1.270
86355W        W58670  25.991  20.176   0.790
86356W        W58671  13.843  28.586   2.363
86357W        W58672  26.699  18.744   1.449
86358W        W58673  27.688  23.177   4.293
86359W        W58674  34.377  32.980   2.394
86360W        W58675   3.426  41.319   4.774
86361W        W58676  29.125  38.007  11.559
86362W        W58677  11.323  10.250  14.402
86363W        W58678  23.675  17.736   2.263
86364W        W58679   1.898  16.787   0.890
86365W        W58680  43.993  19.093  11.564
86366W        W58681  39.855  38.559   1.874
86367W        W58682  32.454  40.933   1.801
86368W        W58683  11.258  22.623   0.838
86369W        W58684  33.534  11.225  12.477
86370W        W58685  17.752  43.832   3.368
86371W        W58686  36.018  30.011   0.261
86372W        W58687  44.976  17.203   0.897
86373W        W58688  30.087   5.204  10.575
86374W        W58689  40.966  13.829  14.837
86375W        W58690  19.577   8.387  11.083
86376W        W58691  30.086   0.759   0.424
86377W        W58692   4.387  12.668   3.254
86378W        W58693  37.539  13.316  14.318
86379W        W58694  20.273  27.563  13.384
86380W        W58695   4.711  43.509   3.290
86381W        W58696  15.674  21.050  10.629
86382W        W58697  16.201   3.847  11.465
86383W        W58698   7.280  33.391   1.697
86384W        W58699  28.538   7.285  14.867
86385W        W58700  40.503  38.493   4.603
86386W        W58701  10.355   3.877  14.292
86387W        W58702  24.136  28.081  11.517
86388W        W58703   1.453   9.887  11.966
86389W        W58704  42.931  39.368   0.841
86390W        W58705  37.066  14.639  11.013
86391W        W58706  24.613  13.341  14.890
86392W        W58707  12.615  35.402  11.452
86393W        W58708  22.596  19.119  14.946
86394W        W58709  16.669  15.744   1.715
86395W        W58710  40.049   6.249   2.708
86396W        W58711  24.994  27.608  12.095
86397W        W58712   5.328  18.287  12.067
86398W        W58713  37.347  33.393  14.466
86399W        W58714  27.030  31.447   4.274
86400W        W58715  34.991  14.811  11.478
86401W        W58716  36.421  11.268  13.449
86402W        W58717  43.437  27.494  11.113
86403W        W58718  39.969  22.747  14.318
86404W        W58719  12.119  33.095  13.984
86405W        W58720  14.244  32.136  10.916
86406W        W58721  28.588  11.699  13.449
86407W        W58722  27.119  42.824   0.310
86408W        W58723  22.513  32.985  14.930
86409W        W58724  10.875   7.393   2.691
86410W        W58725  19.751  29.022   0.245
86411W        W58726   4.246  29.567   4.740
86412W        W58727  42.357  26.003  14.790
86413W        W58728  10.811   8.742   2.723
86414W        W58729  17.218  44.916   1.869
86415W        W58730   9.875  10.650   0.797
86416W        W58731  18.646  27.998  11.484
86417W        W58732  21.054   4.829  10.997
86418W        W58733  30.163  26.138  11.418
86419W        W58734  29.605   2.449  13.383
86420W        W58735  19.650  41.032  12.472
86421W        W58736  25.696  39.364   0.945
86422W        W58737  22.190  30.107  10.476
86423W        W58738  16.220  23.635  12.015
86424W        W58739  36.541  30.489   0.274
86425W        W58740   5.847  28.494   3.192
86426W        W58741  28.069   2.243   3.252
86427W        W58742  12.236   6.420   3.225
86428W        W58743  11.785   2.787   3.840
86429W        W58744  27.030   3.913  14.287
86430W        W58745  44.986   8.843  12.371
86431W        W58746  12.719  15.300  13.891
86432W        W58747   9.200  43.980  11.937
86433W        W58748  14.695   4.230   4.673
86434W        W58749  32.533  43.488   2.318
86435W        W58750  26.568  41.458   1.278
86436W        W58751  10.649  13.685  11.004
86437W        W58752   4.859  33.440   9.991
86438W        W58753  13.256  44.307   2.874
86439W        W58754  39.506  42.976  14.281
86440W        W58755  29.129  33.583   0.331
86441W        W58756   6.824  33.982   0.783
86442W        W58757  11.650  27.486   4.768
86443W        W58758  29.637  19.260  12.959
86444W        W58759  19.050  19.695  14.764
86445W        W58760  16.568  38.858   0.428
86446W        W58761   7.236   3.760  11.921
86447W        W58762  21.215  32.071  11.985
86448W        W58763   8.827  37.056  11.384
86449W        W58764  21.581  28.106  12.350
86450W        W58765   5.868   9.150  13.328
86451W        W58766  19.555  31.001  13.919
86452W        W58767   4.407  23.048  13.418
86453W        W58768  20.656   9.189  10.476
86454W        W58769  25.115   8.215  12.849
86455W        W58770  40.964  30.981   2.823
86456W        W58771  43.954  14.831  10.890
86457W        W58772  21.194  26.552   5.111
86458W        W58773  31.495   2.458  13.422
86459W        W58774  19.247   8.251  12.512
86460W        W58775  16.578   1.837  13.373
86461W        W58776   4.217   3.377  13.520
86462W        W58777  11.697  43.417  13.044
86463W        W58778  37.060  27.630  13.861
86464W        W58779  19.242  28.083  11.954
86465W        W58780  20.555  23.569  14.797
86466W        W58781  32.918  27.037  12.351
86467W        W58782  12.612   3.906  11.371
86468W        W58783  35.933  12.139   0.340
86469W        W58784  33.063  33.977   0.348
86470W        W58785  43.868   2.235  12.435
86471W        W58786  13.292  14.703  11.942
86472W        W58787  16.706   9.165   4.229
86473W        W58788  33.087  12.210  13.851
86474W        W58789  10.226  36.875   2.400
86475W        W58790  22.041   1.775  10.508
86476W        W58791  20.157  26.683   1.884
86477W        W58792  19.681   1.405  14.889
86478W        W58793  16.781  14.705   2.714
86479W        W58794  26.157   1.842   0.872
86480W        W58795  27.012  11.161   3.295
86481W        W58796  15.625  41.470   4.329
86482W        W58797  27.608  43.487  14.944
86483W        W58798  20.253  38.016   3.849
86484W        W58799  11.206  23.639  12.006
86485W        W58800  24.064  33.875   0.248
86486W        W58801  26.541  19.279   3.805
86487W        W58802   5.323  34.397  11.983
86488W        W58803  21.257  29.561   4.352
86489W        W58804  39.492  23.697   4.157
86490W        W58805  10.246  24.074   1.896
86491W        W58806  37.954  44.292  14.504
86492W        W58807  26.146  35.038  10.584
86493W        W58808  22.579  29.944   2.799
86494W        W58809  34.035  39.004   4.766
86495W        W58810   2.375  43.980  13.404
86496W        W58811   0.926  11.642   5.723
86497W        W58812  11.347  10.359  11.421
86498W        W58813   6.221   2.840  12.350
86499W        W58814  33.471  10.376   1.906
86500W        W58815  40.486   6.846   2.787
86501W        W58816  29.975  29.045  11.935
86502W        W58817   8.292  44.919   4.613
86503W        W58818  23.667  19.149   0.435
86504W        W58819  44.894  39.849  14.863
86505W        W58820   0.267   9.353   3.732
86506W        W58821   4.794   8.739   3.680
86507W        W58822   3.233  18.729   1.324
86508W        W58823  36.397  40.799  14.992
86509W        W58824  33.124  28.165  12.091
86510W        W58825  39.945  29.948   3.217
86511W        W58826  29.009  38.030   0.839
86512W        W58827  42.845  35.104   3.296
86513W        W58828  26.021  33.093  13.395
86514W        W58829  34.595  29.593  14.817
86515W        W58830  31.555  44.936   4.681
86516W        W58831   0.856  19.224   2.746
86517W        W58832  25.680   4.234   4.651
86518W        W58833  32.928  44.467  11.535
86519W        W58834  19.115  37.901  14.362
86520W        W58835   1.838  16.277   4.275
86521W        W58836  26.029  14.758  11.004
86522W        W58837  28.096  27.593  12.004
86523W        W58838  41.853   2.444   3.821
86524W        W58839  27.645  22.608  14.008
86525W        W58840  17.204   6.327  11.601
86526W        W58841  28.435  44.761   0.251
86527W        W58842  18.114  13.632   1.322
86528W        W58843   2.908   9.718   3.792
86529W        W58844  24.596  43.874  12.433
86530W        W58845  30.614  32.001  12.439
86531W        W58846  40.386  12.194  13.488
86532W        W58847  44.770  28.089  14.330
86533W        W58848   0.339  10.189   4.118
86534W        W58849  41.909  34.036  10.440
86535W        W58850  22.634   0.285   1.425
86536W        W58851   1.758  38.931   0.456
86537W        W58852   6.695   9.648  13.333
86538W        W58853  36.877  19.202  13.481
86539W        W58854  37.001  13.201   3.146
86540W        W58855   7.376  12.249   0.930
86541W        W58856  30.441  24.511  14.967
86542W        W58857  22.502  22.216   1.877
86543W        W58858  28.542   9.830  11.880
86544W        W58859  42.522  14.098   1.697
86545W        W58860  43.305   6.274  11.109
86546W        W58861  27.560  30.144  14.385
86547W        W58862  19.695  33.551  12.031
86548W        W58863  27.621  38.487   0.761
86549W        W58864  40.970  18.777   3.790
86550W        W58865   7.378  24.621   2.180
86551W        W58866  35.011  40.962  12.006
86552W        W58867  44.393  16.197   5.207
86553W        W58868  12.619  43.780  14.867
86554W        W58869  17.110  43.851  10.971
86555W        W58870  42.798  37.987  11.404
86556W        W58871  17.736  19.575  14.366
86557W        W58872  17.778  15.754   5.218
86558W        W58873  21.541  44.814  10.997
86559W        W58874  16.666   0.320   2.351
86560W        W58875  34.059  29.129  13.958
86561W        W58876   3.293  16.673  13.859
86562W        W58877  21.237  22.565  10.435
86563W        W58878   9.804   5.773   2.667
86564W        W58879   8.394  10.846  11.947
86565W        W58880  27.692  42.369   2.234
86566W        W58881  14.822  33.976  14.923
86567W        W58882  41.462  38.891   3.661
86568W        W58883  26.004   7.375  11.071
86569W        W58884  11.232  42.953  14.438
86570W        W58885  44.763  37.466   1.246
86571W        W58886  29.490  36.425   1.745
86572W        W58887  40.331  15.802   5.291
86573W        W58888  13.766  27.004   0.741
86574W        W58889  13.105   0.354  11.401
86575W        W58890  20.061  17.720  13.877
86576W        W58891  29.940   6.347  10.957
86577W        W58892  25.191  44.262   3.834
86578W        W58893  22.686  31.147   2.265
86579W        W58894  31.555  18.195   3.669
86580W        W58895   8.695   8.701  10.917
86581W        W58896   7.799   3.268  12.056
86582W        W58897  37.080  13.328  11.519
86583W        W58898  36.490  35.907  11.484
86584W        W58899  24.565   9.202   0.962
86585W        W58900  23.729  27.048  12.044
86586W        W58901  39.338  31.575  11.893
86587W        W58902   2.286  18.618   2.418
86588W        W58903  27.027  31.524   1.253
86589W        W58904  16.689  31.941  11.393
86590W        W58905  38.356   6.242  11.112
86591W        W58906  36.929  31.135  12.360
86592W        W58907  44.760   4.254   3.853
86593W        W58908  27.630  14.748  13.377
86594W        W58909   0.434  34.493   9.988
86595W        W58910  16.654  31.955  10.483
86596W        W58911  40.037   7.708   1.877
86597W        W58912  27.996  19.734  12.483
86598W        W58913  40.336  43.499   2.280
86599W        W58914  25.978  34.497  13.797
86600W        W58915  10.347   2.861   2.317
86601W        W58916  17.284  18.702   2.271
86602W        W58917  30.041  30.106  12.844
86603W        W58918  38.413  36.913   4.141
86604W        W58919  43.021   6.773   3.299
86605W        W58920  42.507   7.412   3.705
86606W        W58921  43.277  16.239   4.134
86607W        W58922  41.996  38.916  13.502
86608W        W58923  14.180   6.728  10.429
86609W        W58924  29.460  29.577  10.979
86610W        W58925  20.571  17.202   4.131
86611W        W58926   3.307  32.574   3.219
86612W        W58927  36.530  44.426  10.038
86613W        W58928  37.487  23.089   1.299
86614W        W58929  36.016  21.682   4.712
86615W        W58930  43.508  19.119  11.046
86616W        W58931   3.408  15.775   2.192
86617W        W58932   0.365  20.671   2.411
86618W        W58933  15.791  11.689   2.690
86619W        W58934  17.304  42.923  14.287
86620W        W58935  15.278  26.579   4.646
86621W        W58936   6.866   5.403  14.393
86622W        W58937  41.871  16.274   0.402
86623W        W58938  31.004  13.157  13.956
86624W        W58939  12.770  18.054   2.752
86625W        W58940  16.094  20.545   4.731
86626W        W58941   6.347   4.285  11.387
86627W        W58942  42.342  26.523  10.083
86628W        W58943  26.567  12.674  10.630
86629W        W58944  38.430  14.340   1.244
86630W        W58945  43.381  31.088   1.712
86631W        W58946  13.230  25.091   3.199
86632W        W58947  22.199  17.622  12.410
86633W        W58948  25.674  18.549  10.984
86634W        W58949  37.556   4.222   2.688
86635W        W58950  40.404   9.837  11.102
86636W        W58951  21.683  10.207  10.986
86637W        W58952  26.582  28.567  14.281
86638W        W58953  33.563   3.425  14.001
86639W        W58954  26.662  13.292   0.861
86640W        W58955  41.916   8.237  11.414
86641W        W58956  10.719  18.695  10.504
86642W        W58957  12.705  10.210   0.365
86643W        W58958  30.054  41.384  12.081
86644W        W58959  37.981  23.175   0.299
86645W        W58960  18.233  19.565   1.917
86646W        W58961  41.040   0.797   2.218
86647W        W58962  33.090  36.506  12.863
86648W        W58963  32.105  17.750  11.985
86649W        W58964  17.226   7.332  13.050
86650W        W58965  11.284   1.756  13.312
86651W        W58966   1.413   5.384  11.907
86652W        W58967  13.737  34.979   4.667
86653W        W58968  17.609  37.963   5.137
86654W        W58969   8.324  27.940   4.294
86655W        W58970   8.704  36.880  13.424
86656W        W58971   9.870  20.048   3.351
86657W        W58972  20.734  22.106   4.627
86658W        W58973   9.720  18.266   0.845
86659W        W58974   6.823  26.042   4.780
86660W        W58975  37.924  30.559  11.896
86661W        W58976  20.107  19.762   1.295
86662W        W58977  11.329  16.293  13.361
86663W        W58978   4.715  37.925   2.800
86664W        W58979  38.975  35.084   3.245
86665W        W58980   7.870  19.655   0.457
86666W        W58981  44.322   2.796   0.857
86667W        W58982  20.270  27.656  11.458
86668W        W58983   0.395  11.262  12.466
86669W        W58984   3.335  13.231  12.466
86670W        W58985  18.655  10.179   1.704
86671W        W58986   6.200  40.997   3.292
86672W        W58987  40.321  35.441   2.250
86673W        W58988  35.367  20.700  11.576
86674W        W58989  29.971   4.334  11.863
86675W        W58990  41.929  41.818  14.375
86676W        W58991  33.390  38.005  14.764
86677W        W58992  36.003  28.587  11.103
86678W        W58993  17.167  28.499  10.603
86679W        W58994  41.831  27.517  14.334
86680W        W58995  35.521   8.789  14.424
86681W        W58996  21.225  22.661   3.665
86682W        W58997   0.902  39.020   0.433
86683W        W58998   1.747  43.465   1.278
86684W        W58999  21.688  15.173  12.421
86685W        W59000  24.518  35.509   4.335
86686W        W59001  13.635  31.595  13.007
86687W        W59002   8.255  24.181  11.425
86688W        W59003   9.385  24.025  14.507
86689W        W59004  11.337  44.457  10.606
86690W        W59005  16.131   9.729  11.926
86691W        W59006   9.713   7.885   2.843
86692W        W59007  29.507   2.828  12.061
86693W        W59008  26.500  14.297  14.758
86694W        W59009  30.912  24.167   4.624
86695W        W59010  41.407  19.083  11.595
86696W        W59011  37.435  41.431  13.435
86697W        W59012  42.024  29.988  10.579
86698W        W59013  17.758  44.858  13.006
86699W        W59014  44.770  39.489   1.877
86700W        W59015  29.625  13.691  12.969
86701W        W59016   9.220  38.065  10.970
86702W        W59017  23.659  18.190   0.908
86703W        W59018  22.214  15.721   2.246
86704W        W59019  34.985  43.472  13.987
86705W        W59020  39.548  35.449  12.430
86706W        W59021  33.619   3.746   2.823
86707W        W59022  21.134  41.030  11.985
86708W        W59023  31.090  35.391  10.990
86709W        W59024  15.168  42.345  11.453
86710W        W59025  32.136  28.974   4.162
86711W        W59026  38.970   8.781   5.252
86712W        W59027  39.900   8.684  10.598
86713W        W59028   5.736   9.216  11.496
86714W        W59029  18.050  26.672   1.762
86715W        W59030  36.557   8.781   4.611
86716W        W59031  31.581  30.511   3.660
86717W        W59032   2.902  25.164  11.491
86718W        W59033   7.703   6.399  13.339
86719W        W59034   6.365   7.814   2.690
86720W        W59035  27.079  39.997   2.809
86721W        W59036  17.654  42.779   0.831
86722W        W59037  13.836  28.147   3.669
86723W        W59038  39.059   1.816  10.093
86724W        W59039   7.866  22.506  14.916
86725W        W59040  26.591  44.948  11.521
86726W        W59041   5.772  28.638  12.382
86727W        W59042  16.111  21.754  13.534
86728W        W59043   0.359  37.361   4.723
86729W        W59044  42.313  11.218  10.430
86730W        W59045  36.863  35.455  12.029
86731W        W59046   0.353  34.432   0.892
86732W        W59047  39.491   4.225   4.313
86733W        W59048  24.989   6.272  14.901
86734W        W59049  43.011  27.050   3.186
86735W        W59050   0.442  23.125   2.748
86736W        W59051   7.327  17.120  13.480
86737W        W59052  26.511  20.734   2.678
86738W        W59053  44.914  10.778   3.296
86739W        W59054  32.443  19.613   4.281
86740W        W59055  43.489  32.462  11.425
86741W        W59056  38.931  14.281   3.250
86742W        W59057  17.284   2.377   3.247
86743W        W59058   0.971  31.943  10.552
86744W        W59059  40.435   7.804  10.499
86745W        W59060  10.831  40.318  10.541
86746W        W59061  22.583   2.945   3.858
86747W        W59062  39.901  42.359  12.984
86748W        W59063  42.947  24.990   4.225
86749W        W59064  10.372  12.311  10.610
86750W        W59065  33.889  29.047  12.481
86751W        W59066  29.160   1.894  14.297
86752W        W59067  35.027   8.384   3.259
86753W        W59068  39.844   3.345  12.972
86754W        W59069   7.184  41.963   4.114
86755W        W59070  34.001   2.302  14.851
86756W        W59071  21.244  27.523  13.961
86757W        W59072  16.116   5.776  12.844
86758W        W59073  35.412  11.358   0.776
86759W        W59074  27.948  19.553  11.578
86760W        W59075  17.763  10.767   3.869
86761W        W59076  38.446  44.398   0.932
86762W        W59077  10.286  34.606   2.371
86763W        W59078  40.042   4.889  12.550
86764W        W59079  44.856   1.299  11.457
86765W        W59080  20.191  14.212  14.409
86766W        W59081  33.059  36.085  11.018
86767W        W59082  39.051  31.115  11.870
86768W        W59083   8.273   6.404  12.044
86769W        W59084  44.346  32.886  12.561
86770W        W59085   7.700   7.783  14.930
86771W        W59086  26.156  44.823   4.147
86772W        W59087  15.810  39.045   9.951
86773W        W59088  33.482  44.289   1.742
86774W        W59089   5.873  11.855  14.927
86775W        W59090  32.601   3.267  13.808
86776W        W59091  21.542  27.034   4.305
86777W        W59092  25.524  12.704   4.706
86778W        W59093  31.498  38.445   2.774
86779W        W59094  18.266  27.077  14.301
86780W        W59095  11.738  27.019  11.573
86781W        W59096  12.221  32.092  14.851
86782W        W59097  41.012  33.078  14.827
86783W        W59098  33.926  25.073   0.894
86784W        W59099  19.639  18.176   2.350
86785W        W59100  18.642  15.220   2.829
86786W        W59101  18.589  32.555   3.312
86787W        W59102  40.491  23.713   2.253
86788W        W59103  29.488  26.204  14.908
86789W        W59104   1.773  23.502  14.995
86790W        W59105  29.132  42.861   4.825
86791W        W59106  17.195  34.573  10.521
86792W        W59107  36.352  14.304  13.973
86793W        W59108  37.012  34.009   4.608
86794W        W59109  16.747  41.001   3.149
86795W        W59110   9.387  42.925  11.390
86796W        W59111  42.833  37.867   1.854
86797W        W59112   9.683   1.251   0.326
86798W        W59113  39.853  15.316   3.169
86799W        W59114  10.218  29.006   0.774
86800W        W59115  29.947  23.082  11.385
86801W        W59116  15.633  14.177  14.990
86802W        W59117  43.947  17.582  13.046
86803W        W59118  42.827  21.662  12.525
86804W        W59119   4.895   3.327   2.308
86805W        W59120   1.869  37.350  13.534
86806W        W59121  19.125  20.147  11.579
86807W        W59122  20.063  43.926  10.988
86808W        W59123  29.517  16.654  11.377
86809W        W59124  28.654  21.204  14.835
86810W        W59125  21.256  19.770  14.960
86811W        W59126  13.813  37.994   4.221
86812W        W59127  30.523  37.996  12.826
86813W        W59128   8.230  11.764   2.192
86814W        W59129  17.253   2.742   2.305
86815W        W59130  13.684  42.382  14.802
86816W        W59131  27.962  19.213  13.935
86817W        W59132  25.681  35.461  12.872
86818W        W59133   1.858  16.755   2.699
86819W        W59134  27.957   4.386   3.716
86820W        W59135  24.557  14.779  10.930
86821W        W59136  15.239  16.631   3.750
86822W        W59137  26.008   8.853   0.379
86823W        W59138   3.224   9.782   4.727
86824W        W59139  19.648  41.409  14.497
86825W        W59140  10.266  39.981  14.782
86826W        W59141  24.054  15.819  11.059
86827W        W59142  29.477  33.026   2.674
86828W        W59143   6.229  27.196  12.029
86829W        W59144  21.561  33.000  11.071
86830W        W59145  37.066  41.492   2.877
86831W        W59146  35.092  33.981   3.698
86832W        W59147   3.277  21.548   2.315
86833W        W59148  15.222  18.710  12.966
86834W        W59149  36.080  43.955  13.844
86835W        W59150  11.749  16.772   1.732
86836W        W59151  12.857  42.887   3.767
86837W        W59152  15.731   4.757  11.965
86838W        W59153  13.346  11.149   1.908
86839W        W59154  34.007  25.565   3.235
86840W        W59155  31.512  18.173  11.596
86841W        W59156   4.762  19.049   2.760
86842W        W59157  13.270  25.512  12.942
86843W        W59158  42.968  33.472   3.849
86844W        W59159  10.192  16.298  11.962
86845W        W59160  17.603  30.523  14.950
86846W        W59161   4.385  20.644  13.884
86847W        W59162  12.246  26.016  13.008
86848W        W59163  23.189  39.883  14.869
86849W        W59164   7.771   3.841  13.904
86850W        W59165   6.370  40.361   2.718
86851W        W59166  11.231  29.087  11.454
86852W        W59167   9.822   9.661   2.819
86853W        W59168  20.657  11.311  12.531
86854W        W59169  21.184  27.015   4.156
86855W        W59170  10.320  30.087  14.913
86856W        W59171  27.453  14.157   1.751
86857W        W59172  21.171  44.258  10.968
86858W        W59173  37.986   9.682  10.493
86859W        W59174   8.661  32.024   1.813
86860W        W59175  11.816  36.556   1.216
86861W        W59176  33.426   4.768   3.307
86862W        W59177  10.156  40.483  11.039
86863W        W59178  32.919  12.208  12.348
86864W        W59179  20.725  39.961   4.776
86865W        W59180  17.145  16.642  10.496
86866W        W59181   5.696  27.541  12.887
86867W        W59182  11.360   5.867   3.175
86868W        W59183  11.729  13.127   3.719
86869W        W59184  31.973  35.067   0.835
86870W        W59185  27.619  31.648   3.849
86871W        W59186  33.426   6.425  10.543
86872W        W59187  31.913  17.780  14.833
86873W        W59188   4.888  41.837  10.473
86874W        W59189   2.449   6.893  10.588
86875W        W59190  28.468  17.680  13.014
86876W        W59191  19.116   6.363   3.729
86877W        W59192  22.041  23.052  11.508
86878W        W59193  29.445  12.335  11.093
86879W        W59194   9.820  28.185   3.228
86880W        W59195  25.680  19.142   4.346
86881W        W59196  21.607  33.081   4.728
86882W        W59197  18.288  39.866  10.508
86883W        W59198  11.767  10.843   1.876
86884W        W59199  24.525   2.410   4.333
86885W        W59200  41.504  33.926   4.758
86886W        W59201  18.767  12.719  11.501
86887W        W59202  32.091  10.746   2.679
86888W        W59203  14.322  20.038  14.841
86889W        W59204   0.987  38.523  13.878
86890W        W59205  34.866  38.920  14.459
86891W        W59206   5.302  16.307  11.084
86892W        W59207   7.720  13.235   0.459
86893W        W59208   9.391  11.786   1.791
86894W        W59209  28.014  23.196  11.391
86895W        W59210  22.037   1.387  14.943
86896W        W59211  19.220  36.990  14.458
86897W        W59212  33.033  42.982  11.857
86898W        W59213  30.090  25.515   0.758
86899W        W59214  23.526  18.752  11.047
86900W        W59215  16.569  18.609  14.495
86901W        W59216  27.501  37.481   2.696
86902W        W59217  10.701   2.728   2.291
86903W        W59218   8.738   7.403   3.329
86904W        W59219  39.517  34.559  10.971
86905W        W59220  32.499  32.054   0.738
86906W        W59221  37.573  25.990  13.034
86907W        W59222  38.529   2.809   2.890
86908W        W59223  44.916  12.151  14.821
86909W        W59224  43.877  26.585  13.968
86910W        W59225  24.674  21.577  11.607
86911W        W59226  26.072  14.128   2.291
86912W        W59227  33.076  35.004  13.447
86913W        W59228  40.800  26.150   0.962
86914W        W59229  35.963   9.159   0.352
86915W        W59230   0.305   4.227  11.427
86916W        W59231   7.373  22.730  11.035
86917W        W59232  29.632  12.138   2.844
86918W        W59233  37.892  41.030  13.015
86919W        W59234  31.086  29.423  13.825
86920W        W59235  38.064  20.236  13.014
86921W        W59236   9.734  38.476  12.576
86922W        W59237   6.731  37.371   0.469
86923W        W59238  18.177  16.165   3.328
86924W        W59239  33.555  33.428  14.920
86925W        W59240  19.644  34.028  14.956
86926W        W59241  29.028  38.963  11.442
86927W        W59242  27.990  36.071  14.287
86928W        W59243  36.521  28.068   4.600
86929W        W59244  32.123  32.449  14.386
86930W        W59245  10.139  23.612   0.376
86931W        W59246  19.730  10.205   1.406
86932W        W59247   9.752  12.129  14.972
86933W        W59248  15.282  11.674   2.841
86934W        W59249   9.700  20.573   2.679
86935W        W59250  31.448  22.589  12.495
86936W        W59251  32.456  19.254  11.047
86937W        W59252   3.771  10.805  12.573
86938W        W59253  44.445   6.734  11.081
86939W        W59254  41.507  19.237  13.035
86940W        W59255  14.738  10.708   3.716
86941W        W59256   4.785  23.537  12.393
86942W        W59257  43.324  16.248   2.323
86943W        W59258   8.401  25.058  11.442
86944W        W59259  19.049  23.715  10.989
86945W        W59260  35.511  41.903   4.282
86946W        W59261  38.504  27.120  11.487
86947W        W59262   9.840  18.622   0.839
86948W        W59263  26.971  10.856   3.313
86949W        W59264  24.608  40.885   1.261
86950W        W59265  14.809  30.911   1.359
86951W        W59266   1.427  23.676  12.983
86952W        W59267  34.611   2.862   0.838
86953W        W59268  27.183  22.658   1.869
86954W        W59269  32.140   5.779  10.062
86955W        W59270   6.729  40.981   0.359
86956W        W59271  13.714  15.703  12.367
86957W        W59272  24.080  15.775  11.926
86958W        W59273  31.931  20.649   2.871
86959W        W59274  22.076  20.540   3.644
86960W        W59275  27.537  36.021  13.434
86961W        W59276  11.136   3.737  10.478
86962W        W59277   6.264  17.248  11.599
86963W        W59278  36.371  42.342   0.859
86964W        W59279  11.680  16.580  13.849
86965W        W59280  31.113  23.148  13.431
86966W        W59281   7.881  17.793   4.191
86967W        W59282  20.568  34.898   4.750
86968W        W59283  23.036   8.658   0.438
86969W        W59284  15.713   4.360   2.287
86970W        W59285  42.798  29.159   1.729
86971W        W59286  29.448  24.647   0.466
86972W        W59287   5.775   9.781  12.530
86973W        W59288   6.353  32.515  14.425
86974W        W59289  13.106  12.750   4.618
86975W        W59290  32.463  10.288  12.053
86976W        W59291  19.138  34.110  12.966
86977W        W59292  16.114  24.698  10.966
86978W        W59293  24.656  14.160   0.731
86979W        W59294  15.202  11.181  12.545
86980W        W59295  38.950  27.534   1.314
86981W        W59296  18.186  20.092   4.804
86982W        W59297   9.821  40.463  13.318
86983W        W59298   0.486  23.633  12.477
86984W        W59299  32.013  24.049  13.968
86985W        W59300  28.935  37.054   4.826
86986W        W59301  36.592  35.092   2.679
86987W        W59302  16.255  32.624  13.372
86988W        W59303  11.740  14.592   1.409
86989W        W59304  24.590  42.525  11.072
86990W        W59305  40.858  19.666   0.965
86991W        W59306  38.541  35.414  12.453
86992W        W59307   1.399  30.026   3.752
86993W        W59308  11.182  42.436  11.096
86994W        W59309  27.068  24.069   3.233
86995W        W59310  36.484   2.397   4.675
86996W        W59311   5.225  40.500   1.441
86997W        W59312  35.438   9.854  13.964
86998W        W59313  13.199  15.189  10.533
86999W        W59314  43.962   9.860  10.408
87000W        W59315  12.640  44.857   3.840
87001W        W59316  29.958   6.226  14.827
87002W        W59317  15.766  43.983   5.284
87003W        W59318  38.902  19.536  12.381
87004W        W59319  13.809   0.344   0.361
87005W        W59320  44.810  33.929  12.973
87006W        W59321   0.431  22.216   0.481
87007W        W59322  38.460  14.268   4.310
87008W        W59323  26.163  12.293   4.634
87009W        W59324   8.860  23.037  12.932
87010W        W59325  34.023   9.287   3.177
87011W        W59326  19.542  22.563  12.868
87012W        W59327  13.156  26.511  12.909
87013W        W59328  21.225   6.695   3.322
87014W        W59329  16.795  18.261  14.775
87015W        W59330  29.554  29.595  12.433
87016W        W59331  17.617  10.278  14.492
87017W        W59332  37.423  26.104  13.931
87018W        W59333   3.353  17.669   4.129
87019W        W59334  16.638   7.888   4.609
87020W        W59335   8.187  19.715   0.279
87021W        W59336  18.578  24.221   1.777
87022W        W59337  43.468  20.075   2.783
87023W        W59338   1.425  14.596   0.841
87024W        W59339  12.842  21.145   1.433
87025W        W59340  21.551   5.247   1.754
87026W        W59341  19.761  13.668  12.978
87027W        W59342  27.053   6.831   4.309
87028W        W59343   2.433   6.718   1.292
87029W        W59344  34.099   6.824  11.055
87030W        W59345   0.365  13.839  11.420
87031W        W59346  27.602  30.953  13.967
87032W        W59347  35.002  12.189   3.699
87033W        W59348   4.701  27.475  10.421
87034W        W59349   6.288  41.898   3.169
87035W        W59350  26.466  28.531   1.916
87036W        W59351  42.484  15.099  14.827
87037W        W59352  42.447   3.276   1.809
87038W        W59353  25.553  13.766  12.869
87039W        W59354  38.407  12.694  11.106
87040W        W59355   2.747  36.525   1.707
87041W        W59356  36.051  21.197   2.747
87042W        W59357  31.461  42.860  11.108
87043W        W59358  13.138  12.355   3.242
87044W        W59359  21.112  24.557  14.966
87045W        W59360  38.928  12.800   4.258
87046W        W59361  37.887  23.499   2.731
87047W        W59362   0.448  37.873   4.729
87048W        W59363  26.156  40.363  14.889
87049W        W59364  16.756  13.250  11.063
87050W        W59365  39.888  16.243   2.403
87051W        W59366  24.724  40.866   4.719
87052W        W59367  29.104  41.512   4.255
87053W        W59368  27.949   4.742  12.351
87054W        W59369  11.213   2.862   0.340
87055W        W59370  42.857  21.535   2.178
87056W        W59371  34.465  39.468   1.435
87057W        W59372  15.684   4.386   1.839
87058W        W59373  35.900  31.517  14.485
87059W        W59374  33.601  30.101  13.888
87060W        W59375  37.901  34.412  11.047
87061W        W59376  43.806   4.239  14.914
87062W        W59377   4.426  12.126  13.438
87063W        W59378  10.214   3.902   4.236
87064W        W59379  36.517  40.354  12.897
87065W        W59380  41.853   2.760   2.807
87066W        W59381  37.380  34.615  10.538
87067W        W59382  21.212  32.474  11.406
87068W        W59383  38.405  17.683   3.319
87069W        W59384  12.212  29.101   0.955
87070W        W59385  12.704  18.184  10.536
87071W        W59386  21.536  30.995  11.041
87072W        W59387   3.728  17.634  12.902
87073W        W59388  20.683  32.428   2.265
87074W        W59389  21.075  20.709   2.327
87075W        W59390  31.148  40.875  10.906
87076W        W59391  22.047  15.808  11.595
87077W        W59392  18.164   7.685   0.347
87078W        W59393  20.068  38.861  11.916
87079W        W59394  17.167  24.542  11.547
87080W        W59395   8.668   8.775   2.336
87081W        W59396   9.371  31.104   3.719
87082W        W59397   8.796   6.854   2.761
87083W        W59398   7.275  14.724   4.636
87084W        W59399  32.420  32.957   3.304
87085W        W59400  35.536  32.007   4.813
87086W        W59401   8.231  35.108  13.409
87087W        W59402  43.270  23.027  11.945
87088W        W59403  36.521  20.678  14.976
87089W        W59404   4.250  15.682  12.403
87090W        W59405   7.207  26.645  11.997
87091W        W59406  19.612  25.691  10.444
87092W        W59407  41.295   5.319   3.632
87093W        W59408  11.169  36.447  12.441
87094W        W59409  42.432  39.870   1.294
87095W        W59410   0.314  11.789   4.244
87096W        W59411  21.184  32.584  14.440
87097W        W59412  10.754  36.007  14.335
87098W        W59413  10.365   3.712  10.506
87099W        W59414  31.130  34.443  11.869
87100W        W59415  10.864   0.368   3.823
87101W        W59416  10.834  34.956   2.850
87102W        W59417   5.768  35.001   3.350
87103W        W59418  39.056  22.100  10.424
87104W        W59419  28.516  37.029  11.944
87105W        W59420   6.401  29.019  12.981
87106W        W59421  43.356   1.278  12.480
87107W        W59422  10.342  31.109   4.641
87108W        W59423  44.488   2.267   3.704
87109W        W59424  21.129   1.362  13.424
87110W        W59425  24.589  24.155  13.978
87111W        W59426  24.095   7.391   2.256
87112W        W59427  24.121  28.081   3.194
87113W        W59428  16.244  20.080  11.060
87114W        W59429  41.308  17.724  12.906
87115W        W59430  35.915   8.800  14.288
87116W        W59431  15.093   6.687  10.464
87117W        W59432  18.740  31.555  11.576
87118W        W59433   8.671  29.039   3.712
87119W        W59434  15.183  37.886  13.840
87120W        W59435  22.514  20.673  11.873
87121W        W59436  31.057  32.490   0.769
87122W        W59437  26.600  29.587  11.585
87123W        W59438  37.472  36.415  14.930
87124W        W59439  30.075  24.034   1.316
87125W        W59440   8.851  32.401  13.338
87126W        W59441   9.855   6.900  10.515
87127W        W59442  25.617  13.787   4.599
87128W        W59443  37.435   1.312   4.681
87129W        W59444  10.717  32.599  11.944
87130W        W59445  24.657  36.414  10.606
87131W        W59446  38.900  20.094   4.246
87132W        W59447  39.948  38.487  14.364
87133W        W59448   1.239  37.996  11.935
87134W        W59449  44.939  19.256  13.319
87135W        W59450   6.269  28.057   2.756
87136W        W59451   7.674  21.648  11.993
87137W        W59452  27.079  16.148  10.470
87138W        W59453  19.259  44.465   1.740
87139W        W59454  17.168  21.719  10.939
87140W        W59455   9.273  42.492  12.525
87141W        W59456  15.774  28.492  12.885
87142W        W59457  40.339   8.694   1.802
87143W        W59458  38.405   7.828   3.738
87144W        W59459  37.960   7.697  11.032
87145W        W59460   7.375   1.860   2.719
87146W        W59461   1.847  26.685   3.295
87147W        W59462  27.031  22.631  13.536
87148W        W59463  31.907   0.424   2.876
87149W        W59464  10.823  43.296  14.976
87150W        W59465   9.210  15.268   4.157
87151W        W59466  30.066  25.540  10.640
87152W        W59467  24.981  11.659   2.730
87153W        W59468  18.739  10.796  13.810
87154W        W59469  21.246  35.071  11.856
87155W        W59470  28.655   6.750   1.397
87156W        W59471  21.525  26.973  12.963
87157W        W59472   9.874  20.204  12.998
87158W        W59473  17.588   7.259   1.825
87159W        W59474  27.583  27.579   2.251
87160W        W59475  42.466  31.006  13.027
87161W        W59476  36.566  28.183   1.450
87162W        W59477  17.628  32.548  10.547
87163W        W59478   1.828   4.399  14.312
87164W        W59479  43.365  11.300  14.772
87165W        W59480  17.677  15.126  13.860
87166W        W59481  19.690  42.926  11.566
87167W        W59482  34.032   1.476   2.843
87168W        W59483  31.584  16.686  12.529
87169W        W59484  15.795  43.839   1.935
87170W        W59485   4.373  33.591  14.850
87171W        W59486  20.664  28.084  10.521
87172W        W59487  35.519  26.132   4.266
87173W        W59488  43.858  35.593  11.097
87174W        W59489  41.872  19.087  12.516
87175W        W59490  21.582  18.642   2.822
87176W        W59491   6.745  11.162  12.945
87177W        W59492  18.618  29.970   2.393
87178W        W59493  32.424  33.050  10.962
87179W        W59494  16.252  37.943   4.700
87180W        W59495  15.585  34.399   0.816
87181W        W59496   4.874   1.474   3.218
87182W        W59497   6.802  14.108  11.570
87183W        W59498  31.620  40.471   3.246
87184W        W59499  23.023   9.336   3.292
87185W        W59500  17.671  19.672   2.695
87186W        W59501  23.629  43.847  14.874
87187W        W59502   1.956   5.328  10.564
87188W        W59503  24.544  35.054   4.338
87189W        W59504  28.654  32.129   5.184
87190W        W59505  14.117  37.429  13.997
87191W        W59506  25.564  20.166  12.920
87192W        W59507  11.149  17.608  10.529
87193W        W59508  34.413  32.981  13.516
87194W        W59509  35.040  42.792   2.374
87195W        W59510   9.281   6.736   2.777
87196W        W59511  19.698  20.221   1.358
87197W        W59512  20.229  21.096  14.900
87198W        W59513  33.399  28.678  11.004
87199W        W59514  14.152  22.685  12.503
87200W        W59515  38.543   3.451  14.350
87201W        W59516  34.570  26.582   3.320
87202W        W59517   8.781  15.665  14.917
87203W        W59518  23.133   2.395   2.808
87204W        W59519   3.440   6.909  12.939
87205W        W59520  30.138  26.075  10.519
87206W        W59521   3.344  25.998   1.908
87207W        W59522  43.973  22.069  14.397
87208W        W59523  26.201  39.414   2.814
87209W        W59524  25.539  31.964  13.955
87210W        W59525  11.623  22.068   4.312
87211W        W59526  31.429   6.337  12.829
87212W        W59527  29.049  10.768  11.108
87213W        W59528   6.238  16.177   1.802
87214W        W59529  24.519  29.619  11.087
87215W        W59530  25.130  27.958   4.205
87216W        W59531  25.973  17.154  14.944
87217W        W59532   4.811  22.043  13.855
87218W        W59533  22.525  19.704  12.097
87219W        W59534  24.586   5.316  13.051
87220W        W59535  40.871  24.055  14.377
87221W        W59536  25.667  31.589  12.878
87222W        W59537  43.818  19.686  12.071
87223W        W59538  33.996  28.127  13.873
87224W        W59539  40.406  16.079   4.236
87225W        W59540  22.715   1.972  14.281
87226W        W59541  16.671  10.148  10.016
87227W        W59542   3.403  36.992  14.357
87228W        W59543  30.461   3.422  13.985
87229W        W59544   9.173  27.043   0.370
87230W        W59545   8.216  13.653   1.217
87231W        W59546  26.046  11.269  11.577
87232W        W59547   7.761   9.728   3.169
87233W        W59548   4.835  32.038  11.123
87234W        W59549  40.931   7.177  13.524
87235W        W59550   7.693   4.723  12.000
87236W        W59551   2.843  29.042  12.410
87237W        W59552   5.340   1.446  14.283
87238W        W59553   5.729  38.824   2.726
87239W        W59554  11.715  18.090   0.326
87240W        W59555  11.698  13.151   5.280
87241W        W59556   5.811  27.666  11.004
87242W        W59557  19.127  31.062  13.855
87243W        W59558  13.822  39.952  10.472
87244W        W59559  12.222   6.249   4.254
87245W        W59560   0.412  12.153  14.378
87246W        W59561  44.463   8.774  11.983
87247W        W59562  35.894  16.747  13.030
87248W        W59563  24.176  11.249   2.183
87249W        W59564   3.711  42.784  11.014
87250W        W59565  27.173  16.571  11.888
87251W        W59566  42.408  17.180  14.968
87252W        W59567  28.477  11.651  12.949
87253W        W59568  23.559  31.542   4.693
87254W        W59569  13.785  43.915  13.910
87255W        W59570  21.697  40.415   9.953
87256W        W59571  40.495   4.835  14.411
87257W        W59572  13.726   8.887  11.466
87258W        W59573  41.941  30.576  11.412
87259W        W59574  17.741  40.487  10.498
87260W        W59575  25.475  11.309  11.547
87261W        W59576  21.197   2.866  10.431
87262W        W59577  14.720   6.231  11.864
87263W        W59578  14.297  43.348  14.403
87264W        W59579  10.650   3.905   2.793
87265W        W59580  33.597  42.845  13.532
87266W        W59581  32.529  18.779  10.618
87267W        W59582  29.661  13.148   1.873
87268W        W59583  20.192  15.302   0.328
87269W        W59584  40.392  13.768   2.716
87270W        W59585   7.804  15.200  14.929
87271W        W59586  37.056  21.062  12.873
87272W        W59587  12.210  44.338  13.057
87273W        W59588  31.536  19.617  10.634
87274W        W59589  16.142  28.522  14.312
87275W        W59590  16.295   0.418   4.310
87276W        W59591  22.092  42.966  11.598
87277W        W59592  30.474  44.758   3.176
87278W        W59593  18.182  20.113  12.423
87279W        W59594   8.200   6.378  10.463
87280W        W59595  20.626  16.788   0.951
87281W        W59596  30.032  37.529   4.336
87282W        W59597  44.833  30.513   4.307
87283W        W59598   6.854  18.268  11.383
87284W        W59599  42.436  41.512   0.360
87285W        W59600  37.912   6.265  14.408
87286W        W59601  27.620  12.792   4.822
87287W        W59602   7.192  33.084   1.893
87288W        W59603  31.468  31.543   0.961
87289W        W59604  18.628  28.644   9.567
87290W        W59605  14.204   5.869  12.919
87291W        W59606  24.189  13.834   1.248
87292W        W59607  40.800  25.199   1.827
87293W        W59608  36.944  39.511  11.417
87294W        W59609   0.448  11.173  11.046
87295W        W59610  31.096  28.009   2.825
87296W        W59611   1.273  13.217  14.774
87297W        W59612   4.367  39.959  11.063
87298W        W59613  18.562  41.788   2.315
87299W        W59614  31.002  37.454   2.679
87300W        W59615   6.909  11.624  10.544
87301W        W59616  18.116  35.409  12.896
87302W        W59617  34.437  27.629   1.752
87303W        W59618  44.800  44.479   1.710
87304W        W59619  44.863  43.469  11.940
87305W        W59620   6.688   2.898  12.376
87306W        W59621  30.613  20.136  14.503
87307W        W59622  29.644  32.082  10.628
87308W        W59623   0.366  41.932   2.775
87309W        W59624  19.237  42.899   4.615
87310W        W59625  38.023  28.036  12.448
87311W        W59626  17.304  30.110  14.314
87312W        W59627  36.039  33.562  13.016
87313W        W59628   1.423   1.412  11.947
87314W        W59629  17.712  13.239   0.794
87315W        W59630  24.104  37.481  11.124
87316W        W59631  27.119  20.177  13.029
87317W        W59632  32.421  30.047   0.744
87318W        W59633  35.989  33.990   0.777
87319W        W59634  39.353  27.511   4.250
87320W        W59635  21.165  29.009  11.869
87321W        W59636  36.908  41.512   1.397
87322W        W59637  30.502  44.791   2.804
87323W        W59638  25.191   8.286   3.258
87324W        W59639  15.184  11.130   1.875
87325W        W59640  32.062   3.719  13.324
87326W        W59641  35.527  26.081  13.412
87327W        W59642   0.385   6.279  11.861
87328W        W59643  29.565   6.370   0.742
87329W        W59644   9.269  32.402  14.759
87330W        W59645  28.154  20.585  13.436
87331W        W59646  35.062   5.888   1.695
87332W        W59647   8.758  37.886  11.595
87333W        W59648  37.390  23.057  11.442
87334W        W59649   0.395  21.179  12.915
87335W        W59650  12.162   2.955  10.934
87336W        W59651  22.670  10.871   2.835
87337W        W59652   2.245   4.703  11.065
87338W        W59653   5.734  10.839   4.341
87339W        W59654  39.536  13.340   0.932
87340W        W59655  17.701  44.948  14.467
87341W        W59656  24.173  29.626   4.681
87342W        W59657  39.951  34.974   3.650
87343W        W59658  33.040  17.745  11.533
87344W        W59659  36.937  33.587   4.698
87345W        W59660  14.250  13.775  13.410
87346W        W59661  39.040  37.504   2.365
87347W        W59662  35.525  40.392   1.221
87348W        W59663  30.999  28.545   1.384
87349W        W59664  10.301   9.745  12.059
87350W        W59665  13.687  23.545   3.272
87351W        W59666  10.142  40.434  14.482
87352W        W59667  13.731  16.192   1.899
87353W        W59668  22.612  39.373  10.458
87354W        W59669  44.296  43.017  12.998
87355W        W59670   2.365  35.010  14.876
87356W        W59671   4.821   9.854   0.298
87357W        W59672  31.147  29.937   4.304
87358W        W59673  10.348  37.474  14.432
87359W        W59674   0.418  31.403   4.184
87360W        W59675   4.759   2.314   1.218
87361W        W59676  39.009  26.564   3.352
87362W        W59677  27.496  11.800  14.927
87363W        W59678  38.528  21.573   2.356
87364W        W59679  24.057  20.717  11.472
87365W        W59680  42.931   9.664   3.846
87366W        W59681   6.218   4.313  10.566
87367W        W59682  35.441  44.281   0.349
87368W        W59683   8.293  26.540   4.198
87369W        W59684  16.226  16.168  12.467
87370W        W59685  32.936   0.258  14.425
87371W        W59686   9.848  18.246  12.365
87372W        W59687   7.675  39.013  11.425
87373W        W59688   0.909   8.325  14.292
87374W        W59689   7.735  33.889   4.267
87375W        W59690  17.571  44.292   1.891
87376W        W59691   0.930  38.983  11.055
87377W        W59692   7.732  39.064   0.449
87378W        W59693  39.531  39.892  12.413
87379W        W59694   7.329  12.715   4.334
87380W        W59695   7.180  11.167  11.546
87381W        W59696  19.594  38.823  10.500
87382W        W59697   5.922  21.115  13.959
87383W        W59698  41.012  17.156  12.873
87384W        W59699  34.580  30.093   3.687
87385W        W59700  38.494  42.987   4.274
87386W        W59701  18.179  18.762   3.276
87387W        W59702  43.279  15.318  13.954
87388W        W59703  17.660  36.861   3.298
87389W        W59704  25.544  40.458   0.739
87390W        W59705  44.912  43.504   2.834
87391W        W59706  20.690  36.047  13.951
87392W        W59707   8.311  36.099  10.965
87393W        W59708   8.701  13.111  10.890
87394W        W59709  12.668  10.320   4.737
87395W        W59710  11.742  27.621  10.947
87396W        W59711  32.585  43.808   3.308
87397W        W59712  35.494   1.462  14.430
87398W        W59713  36.929  24.160  11.862
87399W        W59714   8.703   8.279   1.806
87400W        W59715   5.908  30.503   1.399
87401W        W59716   0.915   5.272  13.886
87402W        W59717   2.349  28.552   2.340
87403W        W59718  27.974  43.515  10.638
87404W        W59719  20.741   4.215   3.333
87405W        W59720  21.252  43.329  13.942
87406W        W59721  41.343   6.372  14.380
87407W        W59722  20.078  18.293  10.990
87408W        W59723  11.653  16.710  11.875
87409W        W59724   2.421  35.402  14.390
87410W        W59725   8.842  42.356   0.429
87411W        W59726  11.729  25.681  10.620
87412W        W59727  10.222  13.325   1.414
87413W        W59728  11.173   1.758   2.883
87414W        W59729  18.701  16.082  11.613
87415W        W59730  16.221   8.667  13.440
87416W        W59731  36.998  22.070   0.409
87417W        W59732   7.905   8.690   3.859
87418W        W59733  32.910  32.960  12.038
87419W        W59734   0.943  44.495   3.735
87420W        W59735  42.525  16.610  12.046
87421W        W59736  36.034  11.270   1.320
87422W        W59737   9.269   1.959  13.498
87423W        W59738   3.907   4.718   1.377
87424W        W59739  13.328  44.827  12.990
87425W        W59740  25.109  12.312  14.797
87426W        W59741  12.646   3.887   3.179
87427W        W59742  12.158  10.175   1.290
87428W        W59743   3.910  36.937   3.635
87429W        W59744  12.705  35.864   3.382
87430W        W59745  13.195  23.006   1.708
87431W        W59746  14.755  13.257  13.800
87432W        W59747  24.501  41.975   0.921
87433W        W59748  26.985   6.377  14.357
87434W        W59749  29.089  17.709  14.814
87435W        W59750  12.205   6.247  14.884
87436W        W59751  30.141  36.438   3.748
87437W        W59752   0.434  14.225   1.337
87438W        W59753  41.299  40.948  13.977
87439W        W59754  28.502  33.438  14.821
87440W        W59755  43.937   4.715  11.895
87441W        W59756  25.004  28.955   0.932
87442W        W59757  32.016   8.707  14.024
87443W        W59758   5.311  29.631  10.453
87444W        W59759  38.500   5.361  12.416
87445W        W59760  41.345  42.854  10.581
87446W        W59761  27.161   2.434   0.357
87447W        W59762  24.619  28.461   4.645
87448W        W59763  18.264  18.156   3.195
87449W        W59764  37.475  34.990   5.106
87450W        W59765  35.095  14.151  14.818
87451W        W59766  40.406  34.524  12.959
87452W        W59767  31.423  35.391   1.800
87453W        W59768   1.458  13.660  11.503
87454W        W59769   0.292  33.524   3.834
87455W        W59770   6.418  24.628  12.580
87456W        W59771  21.168  30.494  11.577
87457W        W59772  44.809  36.988  14.449
87458W        W59773   5.747  10.854   3.803
87459W        W59774  35.445  23.620  13.001
87460W        W59775  27.010   0.968   4.296
87461W        W59776  28.104   3.742   3.707
87462W        W59777  15.161  16.311  12.925
87463W        W59778  15.796  20.769  12.490
87464W        W59779  34.030   3.444   4.272
87465W        W59780  18.106  19.078   1.746
87466W        W59781   7.711  18.701  14.299
87467W        W59782  44.983  23.151  13.951
87468W        W59783   2.423  18.746   1.238
87469W        W59784  17.157  32.582  10.458
87470W        W59785  40.355  39.957   3.210
87471W        W59786  13.661  23.990   0.919
87472W        W59787  24.489  37.527  14.868
87473W        W59788  39.403   0.883  13.380
87474W        W59789  19.090  15.115  12.910
87475W        W59790   7.233   8.706   1.835
87476W        W59791  24.584  23.652  12.990
87477W        W59792   4.367  14.770   0.820
87478W        W59793   9.212  21.598  10.934
87479W        W59794   6.303   9.150  14.338
87480W        W59795   3.287  14.332   0.967
87481W        W59796  28.612  36.928  14.324
87482W        W59797   7.810  20.121  10.548
87483W        W59798  14.127  33.382  12.880
87484W        W59799  22.173  11.739  14.950
87485W        W59800   4.220  43.941  10.629
87486W        W59801  40.936  44.481  12.889
87487W        W59802  34.963  23.120   4.123
87488W        W59803   6.249   5.830  13.810
87489W        W59804  20.682   4.702  12.909
87490W        W59805  43.898  12.788  13.979
87491W        W59806  38.347   8.867  12.924
87492W        W59807  27.091  18.161  14.452
87493W        W59808  18.739  26.965   3.753
87494W        W59809  37.949  25.656   5.313
87495W        W59810  19.587  42.359   2.396
87496W        W59811  34.925  36.892  12.920
87497W        W59812  28.049  38.478   4.609
87498W        W59813   4.358  15.314  14.306
87499W        W59814   0.312  39.489  11.888
87500W        W59815  39.975  13.333  13.489
87501W        W59816  17.720  18.194  10.451
87502W        W59817  15.107  10.247  10.619
87503W        W59818  29.174   8.248   2.817
87504W        W59819  40.836  44.940  13.364
87505W        W59820   2.322  33.071   4.188
87506W        W59821   3.935  34.087  13.918
87507W        W59822  26.164  16.757   0.738
87508W        W59823  16.618  31.638   2.265
87509W        W59824  39.537  35.502  10.549
87510W        W59825  33.542   5.901  13.393
87511W        W59826  15.232  21.526   2.823
87512W        W59827  10.200   1.383   0.461
87513W        W59828  34.515  12.634  13.471
87514W        W59829  35.019  30.570  14.444
87515W        W59830  37.475  24.021  12.546
87516W        W59831  20.603  24.564  11.128
87517W        W59832  43.421  35.879  12.431
87518W        W59833  23.075  29.031  13.944
87519W        W59834  39.477  40.318   3.156
87520W        W59835  15.582  23.224   3.328
87521W        W59836  34.413  32.630  11.940
87522W        W59837  13.765  18.167   1.736
87523W        W59838   3.423  27.654   3.700
87524W        W59839   9.846  39.022  14.426
87525W        W59840  18.557   0.841  12.533
87526W        W59841   0.393  30.913   0.304
87527W        W59842   5.375  41.032  11.112
87528W        W59843  39.989  25.699   2.888
87529W        W59844  27.667  29.485  14.346
87530W        W59845  18.129  29.504   3.172
87531W        W59846  31.027  33.890   4.739
87532W        W59847  35.975  34.453  10.523
87533W        W59848   6.219  12.658  12.059
87534W        W59849  44.310   5.697  12.545
87535W        W59850  11.285  16.230   2.382
87536W        W59851   2.781   2.277   1.420
87537W        W59852   8.887   6.226   5.312
87538W        W59853   5.424  14.325   2.893
87539W        W59854   3.818   4.758   4.834
87540W        W59855  21.529  19.772  12.898
87541W        W59856  25.157  16.105   2.353
87542W        W59857   3.797  17.091  11.983
87543W        W59858   7.828   8.817   0.831
87544W        W59859  21.751   6.857  12.882
87545W        W59860  18.597  29.666   2.815
87546W        W59861  44.010  37.407  10.549
87547W        W59862  40.961   6.691   4.194
87548W        W59863   9.669   7.864  12.430
87549W        W59864  28.491  28.598   1.891
87550W        W59865  23.010  35.988  13.441
87551W        W59866  37.876  29.144  14.438
87552W        W59867  11.181  15.672   3.857
87553W        W59868  42.890  39.902  14.952
87554W        W59869  10.671  41.525   4.147
87555W        W59870  24.524  26.193   4.714
87556W        W59871  35.930   3.286  13.358
87557W        W59872   5.703   8.781  12.848
87558W        W59873  13.338  35.377   0.829
87559W        W59874  44.888  20.536  12.073
87560W        W59875  19.716  26.182  10.465
87561W        W59876  23.578  15.199  14.767
87562W        W59877  29.083  32.583  13.006
87563W        W59878  11.328  43.454   3.729
87564W        W59879  14.156  36.037  13.467
87565W        W59880  25.693  32.480  10.533
87566W        W59881  22.130  37.963  11.585
87567W        W59882  35.569  44.756   3.709
87568W        W59883  40.462  33.391   2.724
87569W        W59884  42.814  25.573   2.279
87570W        W59885  22.584  35.478   2.379
87571W        W59886   3.332  34.077   1.723
87572W        W59887  19.586  24.111  11.129
87573W        W59888  31.508  34.503  14.333
87574W        W59889   7.809  29.640  13.316
87575W        W59890  40.353  36.925  13.495
87576W        W59891   4.854   5.872   1.738
87577W        W59892  32.917  11.210   3.343
87578W        W59893  43.478  23.491  12.544
87579W        W59894  32.121  40.507  12.044
87580W        W59895  40.322  24.586   2.676
87581W        W59896   8.223  17.687   3.204
87582W        W59897  10.861  35.867  11.066
87583W        W59898   9.719  15.084   0.808
87584W        W59899  39.419   8.369  12.021
87585W        W59900  34.001  23.186  11.076
87586W        W59901  34.043   5.348   0.796
87587W        W59902   5.269  25.037  10.893
87588W        W59903   4.213  37.372  13.426
87589W        W59904  23.072  18.788  10.554
87590W        W59905  27.193   9.881   2.283
87591W        W59906  30.567  14.725   4.829
87592W        W59907   7.897  28.596  11.502
87593W        W59908  42.434   1.356   0.322
87594W        W59909   6.852   6.772   3.306
87595W        W59910  19.214  23.204   1.347
87596W        W59911   9.665   2.248  14.014
87597W        W59912  33.568  19.262   3.148
87598W        W59913  28.448   9.702  14.911
87599W        W59914   1.849  16.199   2.665
87600W        W59915  14.257  27.009   0.301
87601W        W59916  23.596  34.900  14.005
87602W        W59917  11.648  43.395  14.799
87603W        W59918  33.942  22.583   3.364
87604W        W59919   6.831  42.884   0.420
87605W        W59920  31.104  35.558   1.894
87606W        W59921  21.702  31.901   4.694
87607W        W59922  23.701  16.144   0.898
87608W        W59923  33.583  34.453  12.095
87609W        W59924  17.749  11.816   5.219
87610W        W59925   2.258  17.291   4.674
87611W        W59926  10.288  36.421   2.758
87612W        W59927  44.759  21.539   1.332
87613W        W59928  20.650  13.106   0.868
87614W        W59929   1.811   5.922  14.874
87615W        W59930  23.534  23.631   2.226
87616W        W59931  22.098   2.787   2.225
87617W        W59932  15.725  10.829   0.322
87618W        W59933  31.116  16.807   1.442
87619W        W59934  18.272  17.227   4.824
87620W        W59935   1.453  28.938   3.823
87621W        W59936  39.342   8.402  14.391
87622W        W59937   6.874  11.242   3.723
87623W        W59938  12.707   8.291   3.162
87624W        W59939  19.234  23.558  13.835
87625W        W59940  40.387  27.484  11.524
87626W        W59941  39.436  13.341  10.531
87627W        W59942  33.456  17.709  13.369
87628W        W59943  18.284  34.480  10.622
87629W        W59944  39.380   1.856   0.326
87630W        W59945  29.016  30.089   1.223
87631W        W59946  37.917  32.535  14.335
87632W        W59947  33.418  29.620  14.843
87633W        W59948  34.108  31.481  14.784
87634W        W59949  37.486   9.806   3.275
87635W        W59950  21.742  33.891  13.394
87636W        W59951   1.310  21.742   1.773
87637W        W59952   7.793  25.011  13.861
87638W        W59953  15.586  15.234   3.782
87639W        W59954  20.600   1.296   2.405
87640W        W59955  18.114  35.363   2.795
87641W        W59956  44.456  42.369   4.635
87642W        W59957  13.790  37.446   1.245
87643W        W59958  39.324  43.381   4.677
87644W        W59959  33.094  26.035  14.853
87645W        W59960   2.749   5.352  13.411
87646W        W59961   2.849  39.845   3.644
87647W        W59962  42.939  38.440   3.680
87648W        W59963  35.021  14.650  12.348
87649W        W59964   6.777  23.589   1.796
87650W        W59965   6.244  42.030   5.139
87651W        W59966  40.409  12.852  14.434
87652W        W59967  21.223  15.176  14.806
87653W        W59968   1.312  28.540   2.669
87654W        W59969  38.068  44.316   0.483
87655W        W59970  44.302   9.740  13.978
87656W        W59971  13.642  35.920   3.740
87657W        W59972  35.861  39.027  11.414
87658W        W59973  13.726  37.876  14.977
87659W        W59974  11.838  28.575  11.481
87660W        W59975   2.821  10.844  11.496
87661W        W59976  16.124   2.864  12.906
87662W        W59977  31.558  32.608   1.839
87663W        W59978  29.038  29.538  13.337
87664W        W59979  11.241  21.139   0.380
87665W        W59980  34.958  40.811  12.919
87666W        W59981  18.565  25.493   3.308
87667W        W59982  16.761  26.113   3.861
87668W        W59983  43.355   2.756  14.421
87669W        W59984  13.703  21.626   4.768
87670W        W59985  28.464  41.509  12.083
87671W        W59986  42.972  41.800   3.340
87672W        W59987  27.600  35.953   0.904
87673W        W59988  33.993  26.049   0.278
87674W        W59989  31.020   5.220   0.275
87675W        W59990  23.591  38.350  11.474
87676W        W59991  32.097  18.090   2.331
87677W        W59992  28.504  11.228   3.693
87678W        W59993  15.667  43.850  11.071
87679W        W59994   7.177   5.881   4.702
87680W        W59995  44.267  38.035  12.851
87681W        W59996  41.900  23.022  14.836
87682W        W59997  39.000  26.665   4.288
87683W        W59998  44.416  14.588  11.956
87684W        W59999   1.257  40.356  12.545
87685W        W60000   9.824  39.445   1.286
87686W        W60001   2.367  18.291   4.616
87687W        W60002  35.996   1.859  11.890
87688W        W60003   3.763  21.171  14.978
87689W        W60004   6.266  36.086  14.794
87690W        W60005  30.471  13.174   2.843
87691W        W60006  18.605  23.537  14.908
87692W        W60007  42.359  20.736  11.989
87693W        W60008  10.714  21.029  14.815
87694W        W60009  10.314  21.523   2.282
87695W        W60010  23.669  34.002   1.326
87696W        W60011  19.672  23.084   0.760
87697W        W60012   3.900  36.980  10.531
87698W        W60013  29.963  21.594   0.266
87699W        W60014   0.398  39.499   0.786
87700W        W60015  21.047  27.644  14.314
87701W        W60016   3.301  37.998   2.401
87702W        W60017  39.507   3.782  13.903
87703W        W60018   6.690  33.092  14.437
87704W        W60019   5.771  15.791  10.969
87705W        W60020  16.185  41.817  13.510
87706W        W60021  26.529  34.963  12.022
87707W        W60022  40.544  30.147  13.874
87708W        W60023  37.478  35.370  10.486
87709W        W60024   6.780  42.844   0.825
87710W        W60025  41.859  20.689   3.757
87711W        W60026  21.598  38.982  10.012
87712W        W60027  15.196   9.775   1.446
87713W        W60028  10.372  32.048  11.495
87714W        W60029  11.291  30.434   4.726
87715W        W60030  44.785  41.512   1.713
87716W        W60031  38.969  28.042  10.947
87717W        W60032  15.176  13.160   2.404
87718W        W60033   5.360  40.993   3.801
87719W        W60034   3.787   2.419   4.290
87720W        W60035  40.399  30.657  10.469
87721W        W60036  11.800  31.615   0.304
87722W        W60037  12.170   1.282  13.411
87723W        W60038  25.689  19.562  14.379
87724W        W60039  20.625  25.535   0.728
87725W        W60040   3.445  14.752  13.905
87726W        W60041  21.577  26.555  13.369
87727W        W60042   5.305  42.902  11.897
87728W        W60043  35.528  23.504   4.810
87729W        W60044   7.400  20.266   4.326
87730W        W60045  22.611  30.539  10.460
87731W        W60046  36.845  44.790  13.343
87732W        W60047  25.007  13.672   3.251
87733W        W60048   4.330  35.587  14.341
87734W        W60049   6.830  26.060  12.339
87735W        W60050  10.138  17.206  12.524
87736W        W60051  25.503  20.089   5.270
87737W        W60052  40.852  35.357   2.770
87738W        W60053   4.246  15.250  12.934
87739W        W60054  23.082  22.630  13.956
87740W        W60055  14.316   6.728   4.830
87741W        W60056   6.358  26.090   0.853
87742W        W60057   9.290  11.829  12.829
87743W        W60058  13.314  19.546  13.444
87744W        W60059  16.311  25.189   3.781
87745W        W60060   9.169  20.063   4.134
87746W        W60061   5.777  13.260  11.547
87747W        W60062   1.838   9.778  11.555
87748W        W60063  22.064  13.278   1.222
87749W        W60064  39.888  24.677  13.059
87750W        W60065  43.459  23.711  13.799
87751W        W60066  33.380  42.446   1.233
87752W        W60067   6.737  29.625   2.888
87753W        W60068  40.413  21.687  10.571
87754W        W60069  31.535  12.659  14.362
87755W        W60070  35.519  36.908   0.354
87756W        W60071  40.858   1.734  12.983
87757W        W60072  11.770   8.772  14.774
87758W        W60073  26.033  16.744   3.287
87759W        W60074   8.304  30.045   2.311
87760W        W60075  25.973  19.705   2.861
87761W        W60076  29.565  19.158  11.441
87762W        W60077  29.120  29.007   1.312
87763W        W60078  37.851  28.628  14.815
87764W        W60079  15.215  14.294  11.486
87765W        W60080  32.518  35.884  12.445
87766W        W60081  28.165  31.608   5.135
87767W        W60082  43.514  42.336   4.755
87768W        W60083   9.785  39.920   4.263
87769W        W60084  19.074   6.877   4.272
87770W        W60085   3.910  43.970   0.374
87771W        W60086  42.857  25.982  11.117
87772W        W60087  29.095  44.860  13.391
87773W        W60088  17.577  36.514   0.757
87774W        W60089  29.516   3.378   2.243
87775W        W60090  23.600  12.256   1.225
87776W        W60091  40.316  10.814  11.026
87777W        W60092   2.339  32.096   0.346
87778W        W60093  39.927  33.081   3.176
87779W        W60094  11.831  39.062   2.710
87780W        W60095  37.457  40.439  13.006
87781W        W60096   7.252  29.545   5.233
87782W        W60097  23.653  24.111  11.978
87783W        W60098  37.425  22.226   4.297
87784W        W60099  24.576  29.148  12.946
87785W        W60100  38.548   8.825   3.849
87786W        W60101   3.814   9.327   1.339
87787W        W60102  38.460  32.564  14.494
87788W        W60103  19.709  35.531  12.859
87789W        W60104  42.435   9.257  12.051
87790W        W60105   4.778  36.002   1.217
87791W        W60106  22.568   0.977  10.573
87792W        W60107  16.309   3.377  13.938
87793W        W60108  37.871  39.434  11.445
87794W        W60109  23.174  20.674  10.475
87795W        W60110  21.148  25.994  14.466
87796W        W60111  19.679   2.925  12.512
87797W        W60112  39.038  42.443   2.669
87798W        W60113  24.624   8.769   4.730
87799W        W60114   6.372  23.188  13.818
87800W        W60115  42.345  10.355  13.828
87801W        W60116  43.442  39.996   1.333
87802W        W60117  33.539  40.810   2.790
87803W        W60118   2.858  27.540   1.792
87804W        W60119  37.909  42.831  11.955
87805W        W60120  21.741  14.644   4.662
87806W        W60121  22.204  28.452   0.443
87807W        W60122  17.659  21.150  14.835
87808W        W60123  32.434  43.462   1.730
87809W        W60124  31.970  20.591   4.122
87810W        W60125  15.682  27.647   1.323
87811W        W60126   8.868  17.302   1.891
87812W        W60127  30.599  24.137   4.250
87813W        W60128  40.852  43.939  11.919
87814W        W60129  14.741  40.355   0.328
87815W        W60130  20.769  42.911   4.143
87816W        W60131  40.527  20.125   3.739
87817W        W60132  17.195  27.532   4.253
87818W        W60133  25.557  29.005  12.048
87819W        W60134  26.655  26.508  13.016
87820W        W60135  43.292  13.195   1.300
87821W        W60136  35.036  21.132   5.087
87822W        W60137  35.447  14.808   3.831
87823W        W60138   2.810  37.511  10.029
87824W        W60139   2.447   7.283  13.883
87825W        W60140  16.658  25.545   3.172
87826W        W60141   0.821  14.704   1.865
87827W        W60142   3.384  17.630  12.379
87828W        W60143  39.380  16.291  12.560
87829W        W60144  37.897  23.684  12.482
87830W        W60145  20.664  38.436   4.299
87831W        W60146   9.366  32.562  11.546
87832W        W60147  34.008  41.040   4.194
87833W        W60148  44.772  35.900  14.315
87834W        W60149  11.350  27.068   4.230
87835W        W60150   7.759  19.688  10.092
87836W        W60151  30.440  35.104  13.493
87837W        W60152  37.508  14.146  11.465
87838W        W60153  28.107  10.645  11.865
87839W        W60154  31.150  27.689   0.254
87840W        W60155  10.659  30.148   0.786
87841W        W60156   5.916  23.538  10.435
87842W        W60157  41.536  22.738  13.503
87843W        W60158   8.369  15.322   3.793
87844W        W60159  25.183  29.663   1.811
87845W        W60160  39.894  15.662  14.019
87846W        W60161  28.575  22.638   3.818
87847W        W60162   7.390  24.666  14.366
87848W        W60163  37.880  39.346  11.866
87849W        W60164  27.625  12.289   4.730
87850W        W60165   5.765   7.856   2.832
87851W        W60166  17.240  42.494   2.402
87852W        W60167  27.050  44.782  13.337
87853W        W60168  36.982  15.092   4.716
87854W        W60169   4.781  42.024  13.511
87855W        W60170  34.866   9.359   4.244
87856W        W60171  37.446  27.075   3.658
87857W        W60172  21.543  42.385  11.580
87858W        W60173  25.093  22.154  11.468
87859W        W60174  19.585  36.466  10.911
87860W        W60175  13.692  35.454   3.665
87861W        W60176   7.301  15.157   3.373
87862W        W60177   5.203  17.108  14.494
87863W        W60178  40.523  33.923  12.920
87864W        W60179  39.380  18.292   0.369
87865W        W60180  27.084  26.164   0.843
87866W        W60181  33.454  41.983   2.837
87867W        W60182  12.738   1.277  13.001
87868W        W60183   0.792  12.742  14.332
87869W        W60184  42.402   1.445  14.400
87870W        W60185  36.897  44.402   2.796
87871W        W60186   6.827  24.596   1.242
87872W        W60187  39.477   2.894  13.334
87873W        W60188  38.896  24.639   3.301
87874W        W60189   1.934  27.536  11.092
87875W        W60190  23.593  25.165   0.473
87876W        W60191  37.044  38.447  13.987
87877W        W60192   6.390  37.058  12.437
87878W        W60193  21.563   7.738   3.758
87879W        W60194  26.676   3.254   3.303
87880W        W60195  22.198   3.332   3.655
87881W        W60196  22.018   0.338   3.196
87882W        W60197  39.820   2.369  11.604
87883W        W60198  14.736  31.511  10.428
87884W        W60199   2.258  43.939  12.867
87885W        W60200  41.325  19.585   2.256
87886W        W60201  38.541  23.185  13.420
87887W        W60202  39.004   4.391  11.858
87888W        W60203   5.857  16.570   1.814
87889W        W60204  40.997  17.582   4.303
87890W        W60205  14.294  31.564   1.758
87891W        W60206  38.556   1.795   4.822
87892W        W60207  19.633  40.423   2.298
87893W        W60208   1.905  21.108   5.099
87894W        W60209  18.587  30.986   0.356
87895W        W60210  20.616  38.070   4.609
87896W        W60211  20.744   4.446  13.823
87897W        W60212  41.500  44.821  14.011
87898W        W60213  39.859  41.441   3.792
87899W        W60214  14.693   4.269   1.422
87900W        W60215   3.764  22.138   3.161
87901W        W60216  21.170  14.827   4.724
87902W        W60217   9.851  37.572   3.368
87903W        W60218  26.548  33.979  13.483
87904W        W60219  26.035   0.473   1.339
87905W        W60220  35.459  29.920   3.340
87906W        W60221  21.530   1.821  11.025
87907W        W60222  14.694  28.158   2.757
87908W        W60223  22.667  33.469   2.296
87909W        W60224  27.101  29.965  10.972
87910W        W60225  40.336  36.066  12.519
87911W        W60226  44.819  18.572  12.425
87912W        W60227  23.221   4.274  14.955
87913W        W60228  33.976  15.201  14.314
87914W        W60229  13.344  44.010   3.765
87915W        W60230  34.097  12.744   3.769
87916W        W60231  12.290   7.728  12.063
87917W        W60232  18.248  26.014   3.384
87918W        W60233   2.227   8.330  10.457
87919W        W60234  34.961  14.820   2.328
87920W        W60235   4.416  35.487   2.859
87921W        W60236  25.169  22.647   3.230
87922W        W60237   6.797  22.508  10.958
87923W        W60238  44.424  10.177   1.300
87924W        W60239  34.580  40.431  10.948
87925W        W60240  33.064   7.826   2.756
87926W        W60241  32.942  24.558   0.396
87927W        W60242  23.222  32.552   2.718
87928W        W60243  19.043  10.741   3.304
87929W        W60244   6.218   3.262  10.101
87930W        W60245  19.716   7.415  12.050
87931W        W60246  13.284  31.471  11.548
87932W        W60247   9.368  40.918   3.159
87933W        W60248  26.495  11.134   4.236
87934W        W60249  17.723  31.612  10.568
87935W        W60250   1.467  17.229   2.249
87936W        W60251  25.180  11.720  14.878
87937W        W60252   3.924  29.087   9.920
87938W        W60253  12.726  25.168  10.495
87939W        W60254  28.018  11.169   3.368
87940W        W60255  26.073  42.965   4.740
87941W        W60256  41.350   4.896  12.939
87942W        W60257   7.383   1.947   2.353
87943W        W60258  11.652  13.306  14.455
87944W        W60259  16.699  40.859  12.004
87945W        W60260  15.131   6.701   3.306
87946W        W60261   7.768   1.466  10.526
87947W        W60262  34.375  41.328  10.640
87948W        W60263  35.861  36.876   0.426
87949W        W60264  18.670  29.049   4.290
87950W        W60265  43.445  37.839   2.281
87951W        W60266  34.434  23.148  12.387
87952W        W60267  25.118   8.277   4.754
87953W        W60268  31.988   8.368  13.547
87954W        W60269  37.949  13.773  10.512
87955W        W60270  28.186  34.079  13.337
87956W        W60271  18.647  31.991   5.168
87957W        W60272   9.240  42.301   3.387
87958W        W60273  12.622  37.392   5.273
87959W        W60274  32.124   0.916   1.859
87960W        W60275  22.251  14.124  12.065
87961W        W60276  16.166   3.932   3.278
87962W        W60277  23.103  23.112  12.391
87963W        W60278  40.490  44.793   4.747
87964W        W60279  30.515  33.098   4.230
87965W        W60280  10.287   8.165  13.907
87966W        W60281  22.145   9.819  12.840
87967W        W60282  20.120  43.377  13.941
87968W        W60283  17.170  24.228   1.444
87969W        W60284  15.703  10.255   3.767
87970W        W60285   5.740  18.612   2.733
87971W        W60286  32.466   4.842   2.248
87972W        W60287  43.019  31.487  12.066
87973W        W60288  13.800   0.882  13.498
87974W        W60289  11.791  33.042   4.610
87975W        W60290  39.832  33.450  13.490
87976W        W60291  13.659   2.893   1.765
87977W        W60292  33.115  36.564   1.221
87978W        W60293   6.860  17.083  10.480
87979W        W60294  29.618  11.275  11.969
87980W        W60295  36.389  32.987   3.290
87981W        W60296  39.019  28.145   2.337
87982W        W60297  11.708  20.130  12.373
87983W        W60298   3.452  27.683   0.462
87984W        W60299   3.318  10.716   0.342
87985W        W60300  15.094  22.233  14.469
87986W        W60301  23.044   3.953  10.563
87987W        W60302  38.527  23.636  12.366
87988W        W60303  30.096  38.896  12.416
87989W        W60304  39.992  18.179  13.344
87990W        W60305   4.395  26.503  14.516
87991W        W60306  26.483   0.760   5.081
87992W        W60307  41.898  39.877   1.215
87993W        W60308  33.923  44.438  13.013
87994W        W60309  34.948  31.551   4.169
87995W        W60310  41.887  33.400  10.541
87996W        W60311  31.420   4.327   1.211
87997W        W60312  34.926  43.777   1.913
87998W        W60313   6.416  38.397  11.099
87999W        W60314  38.383  38.385  11.581
88000W        W60315  14.725  15.637  12.518
88001W        W60316  11.143  33.596   4.348
88002W        W60317   7.758   5.824   0.773
88003W        W60318   6.377  39.528  12.580
88004W        W60319  19.730  10.688   4.626
88005W        W60320  30.911   2.883   2.301
88006W        W60321  33.426   5.336  13.041
88007W        W60322   8.675  10.812  14.912
88008W        W60323   8.402   0.827   0.804
88009W        W60324  15.286   8.219   0.445
88010W        W60325  43.821  42.026   3.187
88011W        W60326  25.128  26.185  10.613
88012W        W60327  12.714   1.958  12.988
88013W        W60328  20.200  13.305   2.878
88014W        W60329  41.820  21.061  11.921
88015W        W60330   1.369  44.897  12.524
88016W        W60331  30.551   1.857  10.591
88017W        W60332  11.154   2.726   2.316
88018W        W60333  37.002  37.524   4.297
88019W        W60334  12.651  14.153  12.835
88020W        W60335   3.790  10.816   4.805
88021W        W60336   7.774  19.711   4.318
88022W        W60337  42.407  26.021  11.918
88023W        W60338   1.333  31.990  12.453
88024W        W60339  43.935   5.761   2.681
88025W        W60340   5.281   4.899  10.559
88026W        W60341  41.865  13.270   3.371
88027W        W60342  11.717  32.573   2.344
88028W        W60343  40.838  10.676   3.812
88029W        W60344  16.674  43.485   3.796
88030W        W60345   5.433  33.380  13.867
88031W        W60346   5.888  31.959   0.413
88032W        W60347  24.648  12.121  13.866
88033W        W60348  43.766  32.543   2.289
88034W        W60349   5.810  38.996   1.285
88035W        W60350  32.522  11.630  10.497
88036W        W60351  42.786  24.712  12.500
88037W        W60352  38.518  15.657   3.805
88038W        W60353  22.095   5.894   3.806
88039W        W60354  30.426  30.415   0.343
88040W        W60355  34.957  31.539  12.069
88041W        W60356   8.220  42.920  11.023
88042W        W60357   4.894  33.465   1.888
88043W        W60358   1.806  32.534   0.734
88044W        W60359  34.513  32.009   3.285
88045W        W60360  14.100  39.556   3.177
88046W        W60361   0.864  15.649  11.915
88047W        W60362  27.540  27.595  11.510
88048W        W60363  33.028  11.828   0.764
88049W        W60364  14.769  35.987  12.478
88050W        W60365  30.973  20.535  14.954
88051W        W60366  29.524  28.970   5.137
88052W        W60367   1.736  39.984   2.733
88053W        W60368  18.737  32.035  13.431
88054W        W60369  38.536  29.505  10.925
88055W        W60370   5.818  32.102   9.940
88056W        W60371  13.302  28.509  13.895
88057W        W60372   4.403  21.519   3.180
88058W        W60373   5.278  38.014   2.337
88059W        W60374  32.077  23.173  13.350
88060W        W60375   6.395  42.855   4.723
88061W        W60376  40.048  21.620   1.287
88062W        W60377  20.639   9.277   9.622
88063W        W60378  25.151   1.286  12.946
88064W        W60379  12.205  11.177   1.854
88065W        W60380  29.643  41.841   1.780
88066W        W60381  11.773  26.586   4.615
88067W        W60382  43.838  37.859   2.352
88068W        W60383  39.863   0.979   4.183
88069W        W60384   5.785  35.002  14.966
88070W        W60385  34.443  44.982  13.917
88071W        W60386  27.185  30.994   4.722
88072W        W60387  23.107  35.952  13.798
88073W        W60388  27.658  21.058   1.276
88074W        W60389   4.775  15.684   4.140
88075W        W60390  22.045  32.399  12.441
88076W        W60391  42.963  11.722  14.016
88077W        W60392  25.184  24.639   1.857
88078W        W60393  40.904  10.837   2.788
88079W        W60394  13.753  17.612   2.331
88080W        W60395   3.797   3.345  11.521
88081W        W60396  19.054   3.754   3.354
88082W        W60397   5.252  30.062   4.118
88083W        W60398   0.463  34.913  14.348
88084W        W60399  14.822  35.955  10.612
88085W        W60400   7.910  33.456   1.423
88086W        W60401  42.835   3.226   3.157
88087W        W60402  27.112  37.481  10.427
88088W        W60403  21.080  14.630   1.916
88089W        W60404   8.375   4.373   0.379
88090W        W60405   0.976  14.196   3.247
88091W        W60406   9.221  34.576   9.975
88092W        W60407  23.168  39.839   3.865
88093W        W60408  22.011  29.028   3.852
88094W        W60409  26.038  24.616  11.581
88095W        W60410  13.688   1.374   2.335
88096W        W60411  17.187  29.475   3.329
88097W        W60412  29.661  43.780  12.043
88098W        W60413  13.620  35.957   1.427
88099W        W60414  36.503  13.767  13.540
88100W        W60415  35.567  32.483  12.562
88101W        W60416  22.650  19.726  13.791
88102W        W60417  20.708   6.825  12.469
88103W        W60418  31.110  39.417  11.100
88104W        W60419  40.533  11.748   3.632
88105W        W60420  34.971  34.883  13.906
88106W        W60421  40.336   8.329   2.873
88107W        W60422   0.823   3.320  12.954
88108W        W60423   8.825  43.963   1.378
88109W        W60424   0.473  20.082  12.042
88110W        W60425  34.533  37.018  11.600
88111W        W60426  28.462  27.952  12.492
88112W        W60427  14.806   1.296  11.866
88113W        W60428  11.162  16.784  14.442
88114W        W60429  43.884  20.102  14.304
88115W        W60430  14.276  27.481  12.023
88116W        W60431  26.969  24.602  13.977
88117W        W60432  44.308  12.260  13.382
88118W        W60433  18.152  41.840  12.345
88119W        W60434  32.576  29.543   3.672
88120W        W60435  36.935  26.089   4.148
88121W        W60436  25.701   2.355   4.283
88122W        W60437  24.496   7.671  14.770
88123W        W60438  19.708  38.916   5.127
88124W        W60439   5.877  14.685  12.083
88125W        W60440  34.873   0.488  10.950
88126W        W60441   3.252  22.701  12.049
88127W        W60442  31.996   8.336   1.697
88128W        W60443  38.924  41.892  12.828
88129W        W60444  26.571   1.758   0.290
88130W        W60445  16.695   7.900   2.407
88131W        W60446  36.484  11.671   1.727
88132W        W60447   9.279   0.296  14.331
88133W        W60448  25.705  17.071   1.849
88134W        W60449  29.608  31.524   4.720
88135W        W60450  24.600  17.092   3.653
88136W        W60451  23.612  20.231   2.686
88137W        W60452  28.602  20.719   2.332
88138W        W60453  31.488  33.496  11.111
88139W        W60454  40.437  16.796  11.104
88140W        W60455  31.505  38.413   1.259
88141W        W60456  19.215  20.208  10.409
88142W        W60457  12.807  15.104   4.275
88143W        W60458   9.680  30.471   2.884
88144W        W60459   6.186   5.275  12.451
88145W        W60460  31.029   1.402  13.510
88146W        W60461  38.376  12.262  14.846
88147W        W60462   7.240  29.619   1.749
88148W        W60463   3.416  31.413   1.844
88149W        W60464  40.314  14.156  12.895
88150W        W60465  44.505  14.285   4.231
88151W        W60466  21.119  27.146   1.398
88152W        W60467  12.632   3.444  12.573
88153W        W60468  13.789   9.669  14.781
88154W        W60469   0.880  31.466  14.325
88155W        W60470  44.396  19.621  13.876
88156W        W60471   3.725  22.202  12.941
88157W        W60472   7.861  35.523  13.008
88158W        W60473  29.069  21.519  13.330
88159W        W60474  36.509  11.272  14.029
88160W        W60475  35.955   9.330  11.047
88161W        W60476  10.243  26.004  11.870
88162W        W60477  38.024  14.635  13.853
88163W        W60478  43.372  28.135  10.954
88164W        W60479  25.517  34.456   4.270
88165W        W60480   8.246   5.787  13.497
88166W        W60481   6.731  32.119   3.237
88167W        W60482  24.631  32.947   2.713
88168W        W60483  12.226  28.005  11.568
88169W        W60484  36.874  11.129   2.785
88170W        W60485  29.545   5.740   5.161
88171W        W60486  31.908  30.086  11.949
88172W        W60487   3.840   0.915  11.065
88173W        W60488  15.209   5.922   4.704
88174W        W60489  30.105  26.122   0.328
88175W        W60490  12.625  35.943  12.057
88176W        W60491  32.961  21.062  11.522
88177W        W60492  17.121  12.361   4.255
88178W        W60493  41.392   0.978  11.020
88179W        W60494   7.821  16.298   4.125
88180W        W60495   9.654  24.522   1.422
88181W        W60496  32.098  31.419  11.937
88182W        W60497   1.442   4.736  10.597
88183W        W60498  39.478  29.589  14.804
88184W        W60499  12.734  14.271   1.427
88185W        W60500  30.156  23.025   4.713
88186W        W60501  17.725  29.581   1.744
88187W        W60502  26.642  25.661   4.340
88188W        W60503   4.775  10.819   4.630
88189W        W60504   7.172  26.977  11.428
88190W        W60505  19.607  43.402   1.404
88191W        W60506  32.112  27.040  13.420
88192W        W60507  10.231  17.768   3.762
88193W        W60508  36.522  31.972   1.425
88194W        W60509   8.395  42.293  13.848
88195W        W60510  38.481  25.149   5.109
88196W        W60511  13.762  22.078   4.196
88197W        W60512  37.344  37.559  10.445
88198W        W60513  42.937  13.732  13.481
88199W        W60514  23.552  18.731   9.547
88200W        W60515  17.145  14.151   2.236
88201W        W60516  10.695  37.485  11.596
88202W        W60517  27.059   1.746  10.621
88203W        W60518  24.612  38.910  14.870
88204W        W60519  11.306  15.170   3.275
88205W        W60520  41.861  30.050   3.266
88206W        W60521  12.336  25.022   3.718
88207W        W60522  34.451  25.017   4.246
88208W        W60523   1.272  19.773   2.190
88209W        W60524  38.500  34.573   0.841
88210W        W60525   1.271  33.004   1.933
88211W        W60526  36.031  22.548   1.932
88212W        W60527  10.861  32.422  14.879
88213W        W60528   0.341   7.829   1.815
88214W        W60529   1.914   3.441   3.180
88215W        W60530  24.658  11.183   3.673
88216W        W60531  35.432  17.069  11.106
88217W        W60532  37.838  30.565  13.954
88218W        W60533  24.117  35.943  11.956
88219W        W60534  16.286  10.161   2.396
88220W        W60535   7.224  16.298   3.217
88221W        W60536  29.586  29.958   1.324
88222W        W60537   9.840   0.357   1.798
88223W        W60538  21.724  38.368   4.276
88224W        W60539  14.139   4.310   2.283
88225W        W60540  38.988   4.852  13.429
88226W        W60541  18.156  21.554   0.465
88227W        W60542  40.974  34.097  10.927
88228W        W60543  35.535  39.558   1.211
88229W        W60544  29.581  40.034  10.413
88230W        W60545  38.490  22.685   0.389
88231W        W60546  12.848  10.169   2.857
88232W        W60547  41.014   0.980   0.767
88233W        W60548  22.063  31.117  10.527
88234W        W60549  29.989  15.221   4.212
88235W        W60550   4.933  41.971   1.347
88236W        W60551  27.450  18.690   3.151
88237W        W60552   9.199  33.626   0.913
88238W        W60553  14.185   0.854  13.964
88239W        W60554  29.978  38.494   1.334
88240W        W60555  32.589  37.080  10.447
88241W        W60556  12.676  36.481   0.850
88242W        W60557  34.929  15.760   2.354
88243W        W60558  44.406  34.914  11.036
88244W        W60559   8.356  40.866  14.790
88245W        W60560  14.778   9.826  14.485
88246W        W60561  20.030  33.617   1.891
88247W        W60562  43.381   2.808   3.718
88248W        W60563  33.513   9.758  14.800
88249W        W60564  22.691  38.071   2.358
88250W        W60565  25.630  39.492   1.350
88251W        W60566  41.369  34.596  12.090
88252W        W60567  22.249  29.514   2.817
88253W        W60568   8.201  12.822  10.990
88254W        W60569  33.381  23.009   0.922
88255W        W60570  32.129  28.097   4.262
88256W        W60571   0.268  31.599   2.731
88257W        W60572   8.201  41.478   4.330
88258W        W60573  28.511  25.566  14.285
88259W        W60574  17.196  32.128   2.680
88260W        W60575   6.913  42.841  12.569
88261W        W60576  26.037  38.936  13.979
88262W        W60577  14.158  38.830   0.745
88263W        W60578   1.877   7.189   1.761
88264W        W60579  28.005  17.215   4.311
88265W        W60580  35.476  43.275   1.885
88266W        W60581  44.759  39.427   2.215
88267W        W60582  20.030   4.399  10.632
88268W        W60583  18.149  35.467   1.443
88269W        W60584  25.212   6.207  13.439
88270W        W60585   6.705  41.377  12.377
88271W        W60586  10.708  21.719  12.913
88272W        W60587  24.614  39.979  14.816
88273W        W60588  26.953  26.010   4.165
88274W        W60589  26.197  29.153  10.526
88275W        W60590   8.179  35.423  10.473
88276W        W60591  41.800  23.541   0.750
88277W        W60592  13.192   3.839   4.250
88278W        W60593  23.598  25.635   0.252
88279W        W60594  42.521  28.130   2.866
88280W        W60595  16.282   1.321   4.820
88281W        W60596  36.954  17.285   1.392
88282W        W60597  42.286  35.896   2.307
88283W        W60598  19.680  40.520  12.575
88284W        W60599  31.598  37.378  12.494
88285W        W60600  33.032  24.571   1.417
88286W        W60601  34.995  21.756   0.465
88287W        W60602  16.599  26.103  10.450
88288W        W60603  22.583  18.223   4.350
88289W        W60604  37.863  33.578   0.921
88290W        W60605  12.214  29.015  11.405
88291W        W60606  18.234  22.199  10.941
88292W        W60607   9.666   1.956  13.386
88293W        W60608   5.435  31.565  13.040
88294W        W60609  11.829  13.740   1.801
88295W        W60610  20.196  28.107   2.269
88296W        W60611  29.970   4.845  14.765
88297W        W60612  13.777  22.701  10.544
88298W        W60613  23.112  18.132   0.832
88299W        W60614  27.085  37.080   3.720
88300W        W60615   5.848  39.910  12.353
88301W        W60616  43.781  35.408   3.298
88302W        W60617  38.040   7.687   4.795
88303W        W60618   2.459  15.261  14.498
88304W        W60619   1.397   1.462   0.924
88305W        W60620  16.809  12.192  13.410
88306W        W60621  10.261  28.033   1.915
88307W        W60622   6.217  10.213  14.447
88308W        W60623  10.187   6.373  11.519
88309W        W60624   9.365   2.372   4.678
88310W        W60625  42.799  18.671   1.707
88311W        W60626  11.312  42.996  13.937
88312W        W60627  17.709   7.852  11.048
88313W        W60628  24.508   0.396   2.666
88314W        W60629   0.862  12.135  13.397
88315W        W60630  37.896   2.276  11.990
88316W        W60631  26.594  20.083   0.271
88317W        W60632  32.426  35.926  11.040
88318W        W60633  32.440  14.681   0.350
88319W        W60634   7.331  14.097  14.283
88320W        W60635  24.566  41.963   3.277
88321W        W60636  42.876  40.517   0.791
88322W        W60637  24.700  35.925  14.947
88323W        W60638  25.523  16.610  11.612
88324W        W60639   1.462   4.928   4.316
88325W        W60640  30.478   0.447   3.642
88326W        W60641  19.181  36.519  11.103
88327W        W60642  33.056  42.904  12.576
88328W        W60643  21.668  35.487   0.284
88329W        W60644  28.444  23.640  12.916
88330W        W60645   5.688  29.669  11.549
88331W        W60646  44.969  26.461   0.759
88332W        W60647  26.060  24.673  10.506
88333W        W60648  16.303   1.951  11.541
88334W        W60649   2.362  30.974   1.793
88335W        W60650   7.341  44.884   4.200
88336W        W60651  15.165   0.922   0.856
88337W        W60652  31.607  39.490  14.971
88338W        W60653  10.354  30.604  10.494
88339W        W60654   4.312  11.161  12.906
88340W        W60655  22.604  37.039  12.919
88341W        W60656  26.652  35.019  14.293
88342W        W60657  42.029  20.262  11.075
88343W        W60658  23.196  22.619  10.010
88344W        W60659  31.909  41.988   0.847
88345W        W60660  11.827  33.876   0.315
88346W        W60661   8.354   6.722  12.488
88347W        W60662  37.960  38.860   2.242
88348W        W60663  44.284  23.491   2.846
88349W        W60664  37.075  38.916   1.278
88350W        W60665  14.595  21.187  11.558
88351W        W60666  18.644  38.557   2.178
88352W        W60667  28.090  39.059  11.887
88353W        W60668   7.315   0.819  11.942
88354W        W60669  14.270  42.835  12.445
88355W        W60670  15.654  23.573   3.238
88356W        W60671  40.920  14.825   1.246
88357W        W60672  13.695   1.911  11.562
88358W        W60673  33.461  18.236   3.213
88359W        W60674  27.144  26.650  13.383
88360W        W60675  28.651   4.436   0.899
88361W        W60676   9.871  19.208  14.308
88362W        W60677  29.090  38.931   2.341
88363W        W60678   5.914  24.093  13.966
88364W        W60679   2.459  31.061  14.429
88365W        W60680   3.417  39.390  11.570
88366W        W60681  19.210   8.374  10.437
88367W        W60682  38.055  13.781   1.325
88368W        W60683  15.781  10.659   2.701
88369W        W60684  35.076   8.676   4.190
88370W        W60685   7.818  16.613   1.722
88371W        W60686   9.346  16.113   0.248
88372W        W60687  27.026  43.785   3.698
88373W        W60688  37.010   1.765  11.583
88374W        W60689   9.859   0.894  11.381
88375W        W60690  19.702  38.866   0.244
88376W        W60691  34.610  22.111   3.822
88377W        W60692  36.486  20.699  10.424
88378W        W60693  42.486  34.459   0.887
88379W        W60694  21.123  22.011  13.391
88380W        W60695  36.890  29.451  13.531
88381W        W60696  12.305  37.936  12.495
88382W        W60697  10.869  13.116  12.865
88383W        W60698  21.622   0.821   1.283
88384W        W60699   2.303  36.506   1.702
88385W        W60700  26.506  11.210   3.786
88386W        W60701   8.691  31.029   5.160
88387W        W60702  19.545  29.963  13.546
88388W        W60703  18.700   8.699   5.244
88389W        W60704  26.074  14.097   1.350
88390W        W60705  27.188   8.890  14.992
88391W        W60706  37.559  24.224   4.318
88392W        W60707  20.042  21.176   4.313
88393W        W60708  26.182  38.829   3.290
88394W        W60709  28.630   2.293  11.448
88395W        W60710  26.963   4.263   9.546
88396W        W60711  35.594  12.202   3.654
88397W        W60712  30.992  40.926   3.674
88398W        W60713   9.857   2.919  13.013
88399W        W60714  33.505  31.547  13.408
88400W        W60715  36.580   7.374   5.289
88401W        W60716  42.880   8.367  11.405
88402W        W60717  44.384  41.036   2.884
88403W        W60718  21.710  19.656   2.189
88404W        W60719  26.139  29.156   4.197
88405W        W60720  43.420  21.042  12.011
88406W        W60721  27.950  21.042   0.257
88407W        W60722  33.008  38.927   1.369
88408W        W60723  18.206  43.382  10.509
88409W        W60724  22.056  39.913   3.789
88410W        W60725  20.712   6.677   2.674
88411W        W60726  23.649   3.809   1.437
88412W        W60727  22.146  41.349  14.883
88413W        W60728   6.901  20.672   1.347
88414W        W60729   4.310  42.873   2.399
88415W        W60730  38.943  40.986  13.317
88416W        W60731   5.403  24.724   1.774
88417W        W60732  30.138  12.206   0.374
88418W        W60733  32.064   1.939   2.736
88419W        W60734  29.625  40.878  12.424
88420W        W60735  10.341  40.812  13.018
88421W        W60736   7.276   6.300   4.195
88422W        W60737  10.226  21.234  10.576
88423W        W60738  16.078  25.608   4.601
88424W        W60739  36.002  36.993   2.742
88425W        W60740  12.708  42.413   0.272
88426W        W60741  11.715  31.055   3.366
88427W        W60742  36.531   0.332  14.021
88428W        W60743  13.664   7.696  13.822
88429W        W60744  17.583  21.739   4.755
88430W        W60745  32.477   7.397   4.784
88431W        W60746   4.915  22.641  11.000
88432W        W60747  35.463  43.404  10.539
88433W        W60748   4.730  19.689  11.469
88434W        W60749  32.009  22.614  12.358
88435W        W60750  15.611  21.539   0.419
88436W        W60751  39.012  21.042   9.947
88437W        W60752  32.105  26.157   0.939
88438W        W60753  27.167  38.863   0.777
88439W        W60754  38.998   0.907  11.495
88440W        W60755  19.210   5.899  13.826
88441W        W60756   3.885  20.056   1.253
88442W        W60757  18.773  26.655   1.718
88443W        W60758  16.074  25.674   2.861
88444W        W60759   5.779  13.634  14.382
88445W        W60760  23.681  21.512  14.770
88446W        W60761  38.961  18.610   4.234
88447W        W60762  19.052  37.571   0.308
88448W        W60763  43.976  33.606  10.637
88449W        W60764   2.801  15.721   2.263
88450W        W60765  14.213  36.058  11.079
88451W        W60766  40.929  11.822   2.286
88452W        W60767  41.849  29.608  11.434
88453W        W60768   7.908  41.473   0.895
88454W        W60769  39.555  28.527   1.792
88455W        W60770   1.851  35.359  12.034
88456W        W60771  28.115  16.748   1.319
88457W        W60772  11.282   4.337  12.539
88458W        W60773   6.403  19.066   2.281
88459W        W60774  25.976  14.097  12.028
88460W        W60775   6.707  21.571  12.563
88461W        W60776   9.198  14.631  12.035
88462W        W60777   0.942  26.598   1.777
88463W        W60778   2.356  39.424  14.999
88464W        W60779  19.233  39.990   3.818
88465W        W60780  33.566  41.037   1.317
88466W        W60781   5.861  14.736  14.833
88467W        W60782  12.344  26.044  10.417
88468W        W60783  13.345  39.017   0.736
88469W        W60784  26.556  18.600  13.965
88470W        W60785  18.123  21.549   4.737
88471W        W60786   5.434  17.209  12.519
88472W        W60787  24.646  18.737  13.847
88473W        W60788   1.464  41.430   4.192
88474W        W60789  31.532  10.384  11.399
88475W        W60790  22.672   8.813   2.338
88476W        W60791  39.491  33.414  11.928
88477W        W60792  36.009   3.810   3.177
88478W        W60793  27.643  10.162   2.829
88479W        W60794   8.322  15.759  11.926
88480W        W60795  32.129  39.846  14.360
88481W        W60796  18.063  33.391  10.905
88482W        W60797  16.759  11.737  14.987
88483W        W60798  30.477  40.534   4.612
88484W        W60799   7.397   7.415  13.428
88485W        W60800  24.603   0.356   0.296
88486W        W60801  22.581  22.246   2.405
88487W        W60802   6.224  11.268  10.625
88488W        W60803  35.488   7.888   0.335
88489W        W60804  13.703  31.492  10.509
88490W        W60805  24.592   7.350   3.655
88491W        W60806  29.170  41.523  10.534
88492W        W60807   8.221   9.255   4.178
88493W        W60808  10.251  44.286   3.286
88494W        W60809  23.731  15.779   4.249
88495W        W60810  27.044  13.191   3.159
88496W        W60811  41.347  34.483   1.925
88497W        W60812  43.369   5.274   4.122
88498W        W60813  14.245  26.126  13.427
88499W        W60814  16.184  42.416   1.845
88500W        W60815  39.358   2.367  13.354
88501W        W60816  29.023  41.478  12.395
88502W        W60817  39.316  38.833   4.196
88503W        W60818   9.308   5.372   3.195
88504W        W60819   8.712   2.858  14.893
88505W        W60820  31.565  43.873  13.007
88506W        W60821  22.721  44.439  13.895
88507W        W60822  42.844  35.876  13.808
88508W        W60823  16.181   9.282   3.709
88509W        W60824  32.129  35.426   1.893
88510W        W60825  27.193  28.626   1.343
88511W        W60826  27.624  42.903  14.301
88512W        W60827  15.246  43.914  12.989
88513W        W60828  23.650  31.439  11.877
88514W        W60829  40.909  34.966   0.307
88515W        W60830  23.093  13.737  12.022
88516W        W60831  26.007  34.412   4.743
88517W        W60832  20.569  22.593  11.525
88518W        W60833  43.479  18.132  12.076
88519W        W60834  15.172  16.146   1.298
88520W        W60835  32.120   9.158   2.886
88521W        W60836  39.545   3.219  12.443
88522W        W60837  28.123   5.874   3.173
88523W        W60838   5.338  29.498   2.808
88524W        W60839   8.852  24.011  13.450
88525W        W60840   8.830  15.808  10.554
88526W        W60841  16.172   9.664  12.913
88527W        W60842  22.546   3.270  13.519
88528W        W60843  26.025  37.063  13.913
88529W        W60844  38.063  14.691  11.945
88530W        W60845  29.939  43.974   1.707
88531W        W60846   8.837  44.914  12.562
88532W        W60847  38.336   4.849  10.053
88533W        W60848  33.009  21.652  13.046
88534W        W60849  33.922  14.802  12.861
88535W        W60850  31.403  34.383   0.309
88536W        W60851  41.398  26.505  11.600
88537W        W60852  29.541  37.033   0.342
88538W        W60853   5.332  38.985   3.646
88539W        W60854  26.681  22.044  13.920
88540W        W60855   4.723   3.862  10.607
88541W        W60856  11.815   9.792  12.955
88542W        W60857  20.219  36.536   4.761
88543W        W60858  20.243  20.670   1.698
88544W        W60859  39.541   2.933   4.147
88545W        W60860  41.319   6.893  10.449
88546W        W60861   2.234  20.131   1.706
88547W        W60862  16.256   8.355  14.846
88548W        W60863  26.653   8.391   1.393
88549W        W60864  16.697  32.027  11.912
88550W        W60865  24.686  18.571   1.858
88551W        W60866  13.695  25.666   4.643
88552W        W60867  10.228  30.127   3.644
88553W        W60868  27.152  43.013   2.297
88554W        W60869  18.187  32.512   3.221
88555W        W60870   9.760   3.792   4.629
88556W        W60871  38.470   8.199   1.342
88557W        W60872   7.222  18.558   4.249
88558W        W60873   9.684  20.627  14.891
88559W        W60874  22.010  26.968  10.497
88560W        W60875  14.827  28.587   1.796
88561W        W60876  18.621   2.418   1.241
88562W        W60877  43.978  11.366   2.855
88563W        W60878  26.521  44.005   4.712
88564W        W60879   7.413  25.094  10.607
88565W        W60880  40.510  14.202   1.371
88566W        W60881   2.848  33.500  12.517
88567W        W60882  19.634  29.003  14.850
88568W        W60883  37.994  27.031  13.399
88569W        W60884   1.282   1.976  11.966
88570W        W60885  14.767  41.794   2.309
88571W        W60886   0.444  10.312  11.065
88572W        W60887  11.654  30.963   1.891
88573W        W60888  28.127   1.736   1.279
88574W        W60889  40.318   8.271  11.457
88575W        W60890  26.491  22.192   4.354
88576W        W60891  22.145  43.487  10.996
88577W        W60892  16.576  29.476   3.638
88578W        W60893   6.750   1.319  14.275
88579W        W60894   2.780   2.378   3.212
88580W        W60895  25.066  11.695   5.151
88581W        W60896  12.327  17.633   2.785
88582W        W60897  40.928  42.837   2.803
88583W        W60898  30.992  26.204   0.344
88584W        W60899  19.699  42.410   3.338
88585W        W60900  19.559  41.793  11.887
88586W        W60901  23.167  30.914  13.861
88587W        W60902  10.668  18.647   0.856
88588W        W60903  16.569  27.042   1.365
88589W        W60904  30.129   0.440  10.519
88590W        W60905  24.997  16.287   1.296
88591W        W60906  21.706  11.260   0.319
88592W        W60907  23.003  10.290  10.906
88593W        W60908  24.198  19.118  10.445
88594W        W60909  37.027  32.966  11.929
88595W        W60910  25.180  35.944  14.504
88596W        W60911  39.497   3.846   3.739
88597W        W60912  11.240   8.385   2.357
88598W        W60913  42.832  35.565  14.964
88599W        W60914  11.646   5.229  13.511
88600W        W60915  36.543  35.940   4.795
88601W        W60916  33.998  12.312   0.384
88602W        W60917  20.716  39.560   3.658
88603W        W60918  13.608  28.938  10.557
88604W        W60919  28.107  19.275  13.423
88605W        W60920  29.645  17.618  14.964
88606W        W60921  18.640  33.501  14.406
88607W        W60922  11.213  35.549   1.860
88608W        W60923  16.103  24.021  14.306
88609W        W60924  32.960  38.939   4.148
88610W        W60925  23.589  41.325   3.833
88611W        W60926   7.816   7.334   3.236
88612W        W60927  44.812  15.740   2.687
88613W        W60928  23.659  41.986  12.547
88614W        W60929  39.412  27.972   0.381
88615W        W60930  43.839  41.292   0.760
88616W        W60931  32.534  30.981  12.559
88617W        W60932  19.134  15.676  11.016
88618W        W60933   0.389  43.787  14.928
88619W        W60934  20.265  21.756   2.898
88620W        W60935   9.840  12.238  12.544
88621W        W60936   6.866  44.388   0.800
88622W        W60937  24.681  31.143  11.511
88623W        W60938  14.632  22.070   4.231
88624W        W60939  15.602  34.510   4.668
88625W        W60940  43.423  37.971   4.719
88626W        W60941  19.654  14.106  14.429
88627W        W60942   1.924   4.709   2.679
88628W        W60943   9.877  16.812   3.672
88629W        W60944  11.369  25.694   2.305
88630W        W60945  24.993  21.184   2.278
88631W        W60946  26.975  23.063   1.924
88632W        W60947   7.272  42.976   1.707
88633W        W60948  41.497  43.388  11.379
88634W        W60949  34.612  26.018   2.387
88635W        W60950   4.348   8.863   1.779
88636W        W60951  14.760  39.502  13.989
88637W        W60952   0.840  30.550   5.125
88638W        W60953  24.523  42.430  14.956
88639W        W60954  36.404  18.140  12.971
88640W        W60955  38.375  18.127  11.088
88641W        W60956  13.313  16.076   4.642
88642W        W60957   9.356  42.960  13.493
88643W        W60958  36.420  36.888  12.901
88644W        W60959  35.046   0.384   3.329
88645W        W60960   4.307   7.246   0.476
88646W        W60961  33.077  11.284  12.831
88647W        W60962  39.847  22.159  12.484
88648W        W60963  40.900  42.444  13.424
88649W        W60964  20.046  26.174   2.851
88650W        W60965   8.770  38.062  11.068
88651W        W60966   9.848  37.534  12.079
88652W        W60967  38.017  39.910  14.876
88653W        W60968  39.815  15.819  13.044
88654W        W60969  28.617  30.588  13.395
88655W        W60970  11.830   8.330   4.164
88656W        W60971  42.998  44.753  13.859
88657W        W60972  39.065  36.538  13.880
88658W        W60973  37.455  15.169   0.773
88659W        W60974  13.784   6.249  13.518
88660W        W60975  35.090  35.108  14.899
88661W        W60976  39.065  19.253  11.438
88662W        W60977  41.914  11.231  12.345
88663W        W60978   5.284  40.854   2.860
88664W        W60979  12.346  11.795   4.777
88665W        W60980  36.945   3.890   3.252
88666W        W60981  43.771  44.288   2.703
88667W        W60982  37.013  21.252   3.175
88668W        W60983  28.012   3.457  14.905
88669W        W60984  30.964  29.619  11.427
88670W        W60985  21.610   3.827   0.350
88671W        W60986  40.400  33.897  10.955
88672W        W60987  23.545  21.245   1.345
88673W        W60988   7.204  44.275  11.974
88674W        W60989  43.862   5.422  11.941
88675W        W60990  18.136  32.602   1.384
88676W        W60991  18.191  24.616  12.998
88677W        W60992  19.635  10.677   0.809
88678W        W60993  40.515   2.740  11.410
88679W        W60994  31.497   4.241   1.718
88680W        W60995  36.097  13.189  12.563
88681W        W60996  17.255  43.986   4.638
88682W        W60997  27.083  18.063  12.902
88683W        W60998  40.541  10.805   1.237
88684W        W60999  38.940   5.837   2.328
88685W        W61000  43.009  18.223   3.222
88686W        W61001  14.288  10.724   0.922
88687W        W61002  12.758  37.506   2.842
88688W        W61003  20.231  34.416   3.864
88689W        W61004  33.450  41.531  12.554
88690W        W61005  44.469  15.738  11.607
88691W        W61006  20.720  34.550   4.169
88692W        W61007  42.419   5.208   1.933
88693W        W61008  39.534  20.251  13.017
88694W        W61009  27.623  28.021  12.975
88695W        W61010  18.256  36.995  11.420
88696W        W61011  12.161  24.144   2.795
88697W        W61012  44.383  28.134   5.242
88698W        W61013   6.729  31.521   4.816
88699W        W61014   0.824   4.846  14.765
88700W        W61015  22.663  24.543  11.002
88701W        W61016   1.817   9.887   1.775
88702W        W61017  13.770  24.649  11.977
88703W        W61018   1.463  10.853   1.807
88704W        W61019  22.719  17.610   0.923
88705W        W61020  19.230  40.375   0.383
88706W        W61021  42.014  11.766   1.427
88707W        W61022  13.803   2.755  12.040
88708W        W61023  40.857   5.713  14.353
88709W        W61024   2.394   1.481  13.401
88710W        W61025  10.347  30.103   4.716
88711W        W61026  38.352  10.201   0.297
88712W        W61027  37.936  28.074   1.780
88713W        W61028  36.435   4.225  10.977
88714W        W61029  41.813  10.862   0.775
88715W        W61030  32.081  31.046  13.340
88716W        W61031  23.025  22.549  14.872
88717W        W61032  10.175  22.740  12.017
88718W        W61033   4.298  21.019  11.520
88719W        W61034  37.343  20.247  10.607
88720W        W61035   1.251   4.731   4.654
88721W        W61036  29.143  13.330   1.241
88722W        W61037   1.423   8.868   0.372
88723W        W61038  30.090  26.679   2.383
88724W        W61039  36.473  35.057  12.874
88725W        W61040   8.402   1.803  11.522
88726W        W61041  16.812  44.495  12.972
88727W        W61042  33.384  31.468   3.788
88728W        W61043   4.205  14.258   2.198
88729W        W61044  13.816  38.326  12.428
88730W        W61045  19.255  43.847   0.879
88731W        W61046  23.112  34.369  11.995
88732W        W61047  19.624  33.968  13.802
88733W        W61048  18.117  22.565   4.821
88734W        W61049  23.618  24.984  10.441
88735W        W61050  27.511  19.776   3.207
88736W        W61051  13.173  37.399  13.928
88737W        W61052  42.288   0.865   4.609
88738W        W61053   2.738  19.069   0.925
88739W        W61054  42.992  11.146  12.979
88740W        W61055   6.781   9.336  14.933
88741W        W61056  20.626   2.407  14.299
88742W        W61057  20.585  38.389   2.824
88743W        W61058   2.462  39.499   0.915
88744W        W61059  41.487   3.259  11.607
88745W        W61060  29.565  14.269   3.279
88746W        W61061  15.154   0.252   2.200
88747W        W61062  22.646   3.414   1.877
88748W        W61063  42.312   1.812   4.169
88749W        W61064  16.296   0.419   0.881
88750W        W61065  42.446   6.349   4.169
88751W        W61066  19.713  33.607   3.267
88752W        W61067   9.353  11.693  11.969
88753W        W61068  12.215  31.459  14.370
88754W        W61069  28.139  26.486  13.310
88755W        W61070  41.835  36.906  13.885
88756W        W61071  44.396  27.158   0.341
88757W        W61072  12.254  34.043  14.826
88758W        W61073  25.072  16.782  14.375
88759W        W61074  37.433  10.876  12.579
88760W        W61075  22.691   1.369  14.292
88761W        W61076  18.116  22.635  14.430
88762W        W61077  21.588   9.643  10.961
88763W        W61078  33.416  25.546   3.634
88764W        W61079   2.863  11.167  13.938
88765W        W61080  22.195   5.856  11.074
88766W        W61081  13.629   2.867   3.774
88767W        W61082  38.973  36.582   4.217
88768W        W61083   5.391   2.342   3.363
88769W        W61084  19.076  29.019  12.916
88770W        W61085  42.477  40.828   2.868
88771W        W61086  34.081   7.231   3.190
88772W        W61087  21.658  14.622   3.636
88773W        W61088  15.770  29.466   4.325
88774W        W61089  34.592  24.228   1.930
88775W        W61090  27.179  16.111   2.351
88776W        W61091   3.448  37.561  11.010
88777W        W61092  20.763  44.293  12.961
88778W        W61093  27.179  29.047   2.851
88779W        W61094   7.720  38.876  10.138
88780W        W61095  38.974  42.488  12.948
88781W        W61096   5.397  19.197  14.293
88782W        W61097  16.117  36.553  13.969
88783W        W61098  39.447  41.022  13.900
88784W        W61099  44.390   6.703   1.774
88785W        W61100   4.403  22.729   0.437
88786W        W61101   5.855  42.442  11.085
88787W        W61102  13.831  32.891   2.291
88788W        W61103  12.257   1.742   4.787
88789W        W61104  13.205  26.493   0.376
88790W        W61105  14.617  38.436  12.485
88791W        W61106   1.407  28.658  11.512
88792W        W61107  36.910  24.669  10.025
88793W        W61108  37.027  38.942  14.475
88794W        W61109  28.179  32.089  12.837
88795W        W61110  21.561  10.150   1.830
88796W        W61111  27.499  29.977   0.808
88797W        W61112   6.727  18.204  10.617
88798W        W61113  32.469  21.689   4.164
88799W        W61114  34.007  38.541   4.137
88800W        W61115   9.722  33.901  10.515
88801W        W61116  30.637  30.655   4.306
88802W        W61117  10.760  16.596   4.809
88803W        W61118   8.892   5.881  14.431
88804W        W61119  12.269  25.512   2.685
88805W        W61120   0.896  12.787   1.213
88806W        W61121   9.311  10.149   0.302
88807W        W61122  21.598  21.728  10.889
88808W        W61123  18.177   9.819  12.922
88809W        W61124  12.764  39.432  11.530
88810W        W61125  40.386  38.048  10.533
88811W        W61126  35.383  24.608   4.248
88812W        W61127  32.936  33.969  11.005
88813W        W61128  36.095  16.802   1.344
88814W        W61129  38.564  26.052   2.299
88815W        W61130  19.742  17.184   4.319
88816W        W61131   4.242  30.454  12.868
88817W        W61132  16.781  38.822   9.446
88818W        W61133  18.166   3.427   1.402
88819W        W61134  16.808  43.401  14.828
88820W        W61135  44.753   4.427   3.212
88821W        W61136  31.420  29.982  13.310
88822W        W61137  41.393  14.716  12.492
88823W        W61138  33.919  20.205  12.508
88824W        W61139  34.110  23.063  11.927
88825W        W61140  22.557   9.745  14.345
88826W        W61141  17.787  13.756   2.745
88827W        W61142  26.531  32.129  10.582
88828W        W61143   9.280  40.811   1.866
88829W        W61144  40.487   5.260  13.948
88830W        W61145  39.509   0.797  12.009
88831W        W61146  11.704   1.890  10.502
88832W        W61147  30.008  15.099   0.875
88833W        W61148  39.820  15.669   4.279
88834W        W61149  43.361  24.202  10.414
88835W        W61150   6.892  23.617  12.429
88836W        W61151  34.612  12.248   0.884
88837W        W61152   5.694   2.343   2.663
88838W        W61153  26.117  23.238   2.752
88839W        W61154  24.178  42.959  12.019
88840W        W61155  29.518  22.193  12.477
88841W        W61156  37.394  37.976  13.323
88842W        W61157  14.238  38.972  13.040
88843W        W61158  31.900  44.390   0.245
88844W        W61159  43.279  24.608   3.322
88845W        W61160  26.156  35.036  12.507
88846W        W61161   8.861  20.156  10.888
88847W        W61162   5.860  19.583   5.321
88848W        W61163   3.886  39.883  10.626
88849W        W61164  29.534  41.449   4.834
88850W        W61165  16.570  35.924   3.239
88851W        W61166  16.293  42.915   3.380
88852W        W61167   0.794  28.529  13.037
88853W        W61168  36.571  35.103  14.814
88854W        W61169  22.743  24.627  11.452
88855W        W61170   0.374  34.998   1.896
88856W        W61171  26.612  11.243   2.827
88857W        W61172  29.062   6.837   4.806
88858W        W61173  20.686  22.506  10.447
88859W        W61174  15.759  36.465  11.911
88860W        W61175  42.956  20.179   4.606
88861W        W61176  15.799   2.723  14.418
88862W        W61177  27.073  42.979  10.957
88863W        W61178  32.560  22.535  10.948
88864W        W61179  27.029  34.484   9.454
88865W        W61180  14.816  10.142  14.515
88866W        W61181  24.513  40.427  13.405
88867W        W61182  32.415  15.811   3.335
88868W        W61183  13.164  16.303  14.415
88869W        W61184  20.697  42.850  13.025
88870W        W61185  33.549  24.653   4.801
88871W        W61186  25.993   5.286  14.998
88872W        W61187   5.716  11.789   3.162
88873W        W61188   8.175  31.536  11.990
88874W        W61189  10.279  33.597  10.497
88875W        W61190   2.322   6.280  10.549
88876W        W61191  44.420  33.610  10.536
88877W        W61192  25.684   1.924   9.960
88878W        W61193  32.573   9.357   2.293
88879W        W61194  15.651   6.794   4.294
88880W        W61195  36.990  19.621   3.840
88881W        W61196  42.925  17.656  11.015
88882W        W61197  37.868  41.458   0.451
88883W        W61198  14.285  35.986  13.058
88884W        W61199   2.823  24.608  12.070
88885W        W61200  30.093  28.157  14.374
88886W        W61201  34.071  36.541   4.760
88887W        W61202  23.552  11.725   1.886
88888W        W61203  23.196   5.282  10.624
88889W        W61204  44.760  40.022  13.481
88890W        W61205   2.916   0.292  13.380
88891W        W61206   4.743  20.608  14.895
88892W        W61207  41.377  33.622   2.316
88893W        W61208   5.321  34.882   4.640
88894W        W61209  27.160  29.550  14.310
88895W        W61210  38.491   5.340  11.123
88896W        W61211  39.506  21.756  11.612
88897W        W61212  15.670  26.479   4.161
88898W        W61213  33.896  41.437   3.343
88899W        W61214  32.056  12.707  13.441
88900W        W61215  44.979  10.227   3.740
88901W        W61216  39.030  23.533  14.897
88902W        W61217  38.470  35.450  14.275
88903W        W61218  29.125  43.350   0.261
88904W        W61219  28.071  18.677   2.845
88905W        W61220  14.212  37.515   4.665
88906W        W61221   6.867  38.879  12.453
88907W        W61222  16.714   0.352  12.013
88908W        W61223  22.698  14.631  14.314
88909W        W61224  31.413  16.675  14.931
88910W        W61225  21.707  13.767  11.864
88911W        W61226   0.943  40.047  14.008
88912W        W61227  39.467  19.255   3.196
88913W        W61228   0.892  19.112  13.923
88914W        W61229   1.833  29.104  13.404
88915W        W61230  21.108  36.952   0.920
88916W        W61231  41.801  13.793  12.346
88917W        W61232  29.453  27.590  11.030
88918W        W61233  31.147  15.153  10.441
88919W        W61234  11.217  12.166   0.751
88920W        W61235  27.595  14.768   0.254
88921W        W61236  28.143  35.428  11.471
88922W        W61237  22.670  39.913   2.897
88923W        W61238  24.492  20.040   4.660
88924W        W61239  17.194  24.566   4.200
88925W        W61240   3.780  42.468  13.006
88926W        W61241   3.909  33.947   4.348
88927W        W61242  25.119  20.561  13.968
88928W        W61243  44.281  22.579   1.915
88929W        W61244  12.138  42.019   1.380
88930W        W61245  40.931  39.388  12.076
88931W        W61246  42.869   7.828  13.408
88932W        W61247  13.671  23.172  12.895
88933W        W61248  16.270  20.527  10.494
88934W        W61249  31.429   1.741   2.747
88935W        W61250  38.831  25.170  12.414
88936W        W61251  37.979  26.678  12.872
88937W        W61252  21.227  39.007   1.829
88938W        W61253   9.349   6.699  13.414
88939W        W61254  37.843   3.783   4.309
88940W        W61255  44.424  28.451   0.918
88941W        W61256  41.516  32.980  14.490
88942W        W61257   7.230  34.064   2.775
88943W        W61258  40.512  32.022   4.712
88944W        W61259  37.888  29.049   2.246
88945W        W61260  11.314  38.370  14.907
88946W        W61261  40.366   4.262  12.409
88947W        W61262   5.836  15.220  12.498
88948W        W61263  31.144  39.957   0.852
88949W        W61264   0.367  19.739  13.470
88950W        W61265  11.301  39.486   1.803
88951W        W61266  35.923  15.175   0.889
88952W        W61267  38.941  14.327  11.478
88953W        W61268  28.650   5.904   2.250
88954W        W61269  14.253  21.514  11.577
88955W        W61270  28.090   6.407   5.177
88956W        W61271  36.387  39.437  12.437
88957W        W61272  13.266  22.196  12.952
88958W        W61273  34.911  17.706  13.354
88959W        W61274  32.542  32.040   1.907
88960W        W61275  31.022  35.092  14.994
88961W        W61276  10.197   7.808  14.343
88962W        W61277  27.123  12.160   1.821
88963W        W61278  38.429  39.476   4.305
88964W        W61279  33.904  27.972   1.290
88965W        W61280   3.241  27.446  12.555
88966W        W61281  34.531  31.618  14.957
88967W        W61282  13.209   0.318  13.370
88968W        W61283  13.790  22.588  13.392
88969W        W61284  23.114  43.788   3.643
88970W        W61285  10.281  14.202  11.411
88971W        W61286  17.660   8.685  13.961
88972W        W61287  39.419  31.004   4.625
88973W        W61288  12.730  37.474   4.282
88974W        W61289  21.074  32.433  14.770
88975W        W61290   1.823   3.377   4.298
88976W        W61291  33.456  39.883  10.538
88977W        W61292  18.698  42.510  14.369
88978W        W61293   0.272  42.975   3.724
88979W        W61294   7.248  44.489   1.899
88980W        W61295  10.346  21.146   3.212
88981W        W61296  19.085  31.963   2.693
88982W        W61297  14.289   3.284   3.829
88983W        W61298  26.014  28.660  14.810
88984W        W61299   8.898  23.134  11.072
88985W        W61300  14.316  37.082   2.358
88986W        W61301  27.470  12.119   1.767
88987W        W61302  33.511  35.424   0.449
88988W        W61303  17.672  30.485   1.378
88989W        W61304  27.541  11.707   2.755
88990W        W61305   6.786   9.216  11.596
88991W        W61306   7.237  38.947  13.352
88992W        W61307  35.051  24.125   0.329
88993W        W61308  17.655  38.553   9.972
88994W        W61309  31.071  42.922  10.920
88995W        W61310  23.658  44.886   4.657
88996W        W61311  15.686   6.426   5.087
88997W        W61312  20.563  32.604   3.192
88998W        W61313  32.053  28.049   3.341
88999W        W61314  19.722  36.927   4.127
89000W        W61315  32.520  26.685  10.028
89001W        W61316  33.464  16.087   4.676
89002W        W61317  28.579  27.545   2.380
89003W        W61318  29.489  16.159   3.756
89004W        W61319  21.650  31.964   3.836
89005W        W61320  28.473  17.649   4.287
89006W        W61321  26.474  23.632  14.359
89007W        W61322  19.603  31.915   0.787
89008W        W61323  37.020  44.325  13.342
89009W        W61324   3.379  11.128   1.388
89010W        W61325  40.001  18.062   3.342
89011W        W61326  31.573  40.309   1.247
89012W        W61327  31.932  42.335  13.040
89013W        W61328  12.223  36.422  14.366
89014W        W61329   4.741  42.446  14.275
89015W        W61330  17.649  20.240   0.962
89016W        W61331   9.821  10.249  10.044
89017W        W61332  13.681  42.793   0.278
89018W        W61333  26.059  30.126  11.425
89019W        W61334  18.156  21.067   5.157
89020W        W61335   1.414  43.467  14.318
89021W        W61336  44.933  34.037  14.005
89022W        W61337  23.110   2.785  12.935
89023W        W61338  25.066  41.990  10.404
89024W        W61339  24.573   8.219  13.896
89025W        W61340  21.738  32.086  11.860
89026W        W61341   0.256  24.661  12.438
89027W        W61342  20.744  21.587   3.869
89028W        W61343  33.896  34.992  12.834
89029W        W61344  37.853   2.419  10.953
89030W        W61345  23.136  20.259   2.900
89031W        W61346  22.743  30.525   2.400
89032W        W61347  43.924  33.488   0.460
89033W        W61348   4.442  37.068   3.237
89034W        W61349   1.239  36.412  10.566
89035W        W61350  43.274  35.439   0.417
89036W        W61351  33.101  32.062  14.473
89037W        W61352  41.929  20.141   4.825
89038W        W61353  15.301   9.177  13.858
89039W        W61354  26.647  14.815  14.834
89040W        W61355   0.251  44.468   0.802
89041W        W61356  17.571  12.305   4.305
89042W        W61357  29.591  41.319   1.359
89043W        W61358   4.744   4.758   3.374
89044W        W61359  31.950  16.313  10.577
89045W        W61360   6.377  39.852   0.438
89046W        W61361  20.270   8.843   3.863
89047W        W61362   7.796  14.134   5.120
89048W        W61363  17.691  24.539  14.472
89049W        W61364   4.324  25.505  10.434
89050W        W61365   0.767  11.371   3.840
89051W        W61366  31.028  28.042  13.361
89052W        W61367  17.169  20.041  11.410
89053W        W61368  26.173  20.073   0.317
89054W        W61369  13.616  17.099   1.294
89055W        W61370  39.487  41.497   3.238
89056W        W61371   7.261   4.409  10.508
89057W        W61372  22.074   6.906   4.305
89058W        W61373  39.867   9.285   0.928
89059W        W61374  14.641  38.977  10.438
89060W        W61375  33.481  14.222   9.971
89061W        W61376  11.267  23.238   4.802
89062W        W61377  40.317  42.319  13.426
89063W        W61378  32.505   5.833   3.280
89064W        W61379  27.093  33.882   3.832
89065W        W61380  18.275  34.929   3.259
89066W        W61381  21.027   3.916  10.958
89067W        W61382   2.828  31.097   4.682
89068W        W61383  27.680  14.597   4.350
89069W        W61384   6.747  28.572   1.780
89070W        W61385  33.542   4.855  10.989
89071W        W61386  44.310  24.665   4.146
89072W        W61387  15.793  30.483  12.519
89073W        W61388  16.121  33.527  12.877
89074W        W61389  28.016  22.528   3.198
89075W        W61390  24.114  39.837  13.806
89076W        W61391  42.913   6.905  13.416
89077W        W61392  30.062   9.654  13.034
89078W        W61393  13.162  28.493   1.826
89079W        W61394  11.315  15.663  12.834
89080W        W61395  39.966  17.784  12.355
89081W        W61396  29.606  36.997  12.393
89082W        W61397   7.336   9.785  10.545
89083W        W61398  44.977  39.536   0.327
89084W        W61399  19.707  18.590  10.971
89085W        W61400   2.328  34.895  10.407
89086W        W61401  35.058  35.396   4.151
89087W        W61402  22.671  37.472  13.813
89088W        W61403  23.708  20.570  14.359
89089W        W61404  38.368  28.665  12.556
89090W        W61405   3.751   3.843   2.415
89091W        W61406   4.300  41.440   3.211
89092W        W61407  35.485  21.601   2.867
89093W        W61408  11.793  37.011  14.010
89094W        W61409  22.526  33.937   2.665
89095W        W61410  20.586  33.123  12.012
89096W        W61411  41.316  11.685  14.983
89097W        W61412  36.353  22.120  11.518
89098W        W61413  10.252  24.130   4.185
89099W        W61414  11.136  39.471   0.311
89100W        W61415  27.025  25.965   4.744
89101W        W61416  22.635  10.328  11.053
89102W        W61417  21.260   6.337  14.364
89103W        W61418  18.186  23.189   1.813
89104W        W61419  39.038   4.733  14.438
89105W        W61420  26.678  24.589   0.923
89106W        W61421  31.564  36.092  14.908
89107W        W61422  35.516  39.372   4.655
89108W        W61423  11.868  25.520  13.912
89109W        W61424   8.160  32.501  11.529
89110W        W61425   5.775  20.683  11.577
89111W        W61426  44.932  34.907  13.878
89112W        W61427  16.208   7.810   1.787
89113W        W61428  29.104  25.699  13.326
89114W        W61429  30.088  32.914  13.832
89115W        W61430  26.562  44.360   2.669
89116W        W61431  40.816  20.227   3.807
89117W        W61432  28.182   1.955   1.769
89118W        W61433  17.306  40.406  11.611
89119W        W61434  25.650  20.621   0.834
89120W        W61435   4.353  27.105  11.039
89121W        W61436  20.093  24.171   0.456
89122W        W61437   5.931   4.722  11.860
89123W        W61438   6.198  32.952  12.351
89124W        W61439  12.307  41.373   1.889
89125W        W61440  10.800   9.214  10.551
89126W        W61441  23.727  41.982  10.417
89127W        W61442  10.655  25.215   5.239
89128W        W61443  22.026   8.319  14.329
89129W        W61444  34.036  25.163  12.391
89130W        W61445  42.808  37.027  11.517
89131W        W61446  17.717   7.390  12.051
89132W        W61447  23.027  11.231  11.482
89133W        W61448  20.182   3.877  14.922
89134W        W61449  31.641  11.677  11.128
89135W        W61450  25.604   9.855  13.345
89136W        W61451   6.735   1.415   4.746
89137W        W61452  11.362  26.117  12.362
89138W        W61453  15.674  43.931   2.269
89139W        W61454  30.052  23.145  13.032
89140W        W61455   4.795  28.157  12.948
89141W        W61456  34.871  27.687  13.526
89142W        W61457  13.648   5.383   1.808
89143W        W61458  39.359  38.893  14.004
89144W        W61459  23.222   5.764  14.469
89145W        W61460  17.615   7.858  13.894
89146W        W61461  36.046  42.284  14.430
89147W        W61462  31.576  25.685   2.192
89148W        W61463   2.428  44.491  10.956
89149W        W61464  42.895   9.714   0.780
89150W        W61465  23.613  37.513   0.411
89151W        W61466  31.641  33.506  14.786
89152W        W61467  30.934  23.662   3.172
89153W        W61468   8.211  14.293   0.770
89154W        W61469  10.821  27.116  14.406
89155W        W61470  24.201  27.639   4.828
89156W        W61471  40.045  25.158   1.292
89157W        W61472  10.835  44.974  14.399
89158W        W61473  35.936   3.742   1.215
89159W        W61474  26.470  23.624  10.900
89160W        W61475  17.104   9.832  14.434
89161W        W61476  28.090  44.441  13.957
89162W        W61477  28.113  13.772   3.636
89163W        W61478  33.533  21.690  12.005
89164W        W61479  40.367  39.439   4.224
89165W        W61480   8.296  28.093   0.877
89166W        W61481   7.693  19.608   1.365
89167W        W61482  44.473  39.468  14.900
89168W        W61483  33.110  17.102  10.915
89169W        W61484  16.801  10.726   4.802
89170W        W61485  18.061  42.456   3.831
89171W        W61486  42.309   1.761  11.536
89172W        W61487  11.356  12.213   3.682
89173W        W61488  30.003   4.869   3.655
89174W        W61489  34.073  37.372   1.723
89175W        W61490  28.187  19.563  11.084
89176W        W61491   8.815   9.315   0.266
89177W        W61492  20.073  19.264   3.311
89178W        W61493   9.235  32.993   2.668
89179W        W61494   6.768  35.041   2.849
89180W        W61495  33.020   1.820   1.781
89181W        W61496   9.265   2.955  11.002
89182W        W61497   9.323  12.363  10.606
89183W        W61498  39.992   9.172  12.523
89184W        W61499  21.555  29.143  14.359
89185W        W61500  15.133  19.128  12.870
89186W        W61501  24.557   7.177   1.362
89187W        W61502  26.181  15.327   2.358
89188W        W61503  39.063  11.319   5.309
89189W        W61504  43.914  42.388   0.347
89190W        W61505  32.631  21.203   0.842
89191W        W61506   5.929  44.948   4.651
89192W        W61507  26.188  13.213  11.496
89193W        W61508  20.075  19.169  11.583
89194W        W61509   2.934  29.667  13.534
89195W        W61510   5.400  36.845  14.385
89196W        W61511  29.923  27.005   3.376
89197W        W61512  35.922  33.488   0.779
89198W        W61513  39.810  35.047  11.612
89199W        W61514   9.218  33.512   4.204
89200W        W61515   5.340   0.838  13.326
89201W        W61516  44.810  21.549  13.836
89202W        W61517   6.766  18.704   2.257
89203W        W61518   5.285   6.393  11.999
89204W        W61519  10.875  12.163  11.880
89205W        W61520  27.596  40.385  12.503
89206W        W61521  41.392  29.460  11.523
89207W        W61522  22.572  18.694   1.706
89208W        W61523   4.892  39.019   1.883
89209W        W61524  23.170   3.355  11.948
89210W        W61525  12.178  43.836  11.894
89211W        W61526  22.031   8.231   1.299
89212W        W61527  14.748  21.603   0.839
89213W        W61528   3.905  13.264  14.508
89214W        W61529   9.334  26.065   2.862
89215W        W61530   7.673   3.743  12.431
89216W        W61531   3.385  22.070   4.740
89217W        W61532   0.403  33.393   3.146
89218W        W61533  43.975   2.820   2.710
89219W        W61534  19.668  32.538   2.311
89220W        W61535  14.318  42.483   4.128
89221W        W61536  36.916  18.287  14.285
89222W        W61537  10.865  25.185   0.310
89223W        W61538   7.188  12.334  11.873
89224W        W61539   3.769   2.873  13.403
89225W        W61540  42.799  41.394   4.763
89226W        W61541   3.403  44.350  10.907
89227W        W61542  21.109   6.256  11.949
89228W        W61543  15.806   1.814  12.529
89229W        W61544  43.399   1.761   5.185
89230W        W61545  11.232  22.100   1.291
89231W        W61546  42.360  41.993   3.146
89232W        W61547  16.737  44.332  11.870
89233W        W61548  22.092  34.519  13.391
89234W        W61549  27.446  21.612  11.556
89235W        W61550  33.403  37.070  13.807
89236W        W61551  14.117  13.659   4.218
89237W        W61552  33.960  43.825  12.945
89238W        W61553  15.300   4.802   3.818
89239W        W61554  21.163  10.196  14.904
89240W        W61555  11.629   9.243  12.546
89241W        W61556  38.023  25.001  11.925
89242W        W61557  31.481  16.718  14.504
89243W        W61558  32.056  18.056  13.933
89244W        W61559  21.651  15.624  11.603
89245W        W61560   1.817   9.689   0.459
89246W        W61561  39.890  25.036   4.648
89247W        W61562  35.925  42.494  10.580
89248W        W61563  13.692  41.917   2.319
89249W        W61564  28.549  13.740  10.504
89250W        W61565  25.154  42.782  10.484
89251W        W61566  18.125  41.989  13.494
89252W        W61567  19.535  36.368  12.546
89253W        W61568  19.104  18.251   1.784
89254W        W61569  41.820  23.645   5.291
89255W        W61570  43.863  35.031   1.407
89256W        W61571  13.196  38.421  12.037
89257W        W61572   6.756  20.039  13.468
89258W        W61573   5.200   2.831  14.025
89259W        W61574  11.206  11.310  12.451
89260W        W61575  15.132  21.169   2.809
89261W        W61576  24.097  17.764  11.971
89262W        W61577  25.691   3.360  11.012
89263W        W61578  37.845  42.973  13.400
89264W        W61579  27.692  41.798  13.822
89265W        W61580   9.806  30.442  13.511
89266W        W61581  43.379  41.406  12.907
89267W        W61582  14.822  27.195   1.899
89268W        W61583  26.140  41.019  12.392
89269W        W61584   2.855  38.532   4.701
89270W        W61585  35.456   3.323   1.843
89271W        W61586  15.717  27.172  10.549
89272W        W61587  22.634  43.903  11.570
89273W        W61588   3.778  14.651  14.383
89274W        W61589  13.807  19.582  13.868
89275W        W61590  33.026   9.860  14.414
89276W        W61591  22.740  35.985  11.475
89277W        W61592  31.904  16.809   3.640
89278W        W61593   8.371  16.667   4.319
89279W        W61594  31.000  32.494  11.025
89280W        W61595  33.401  36.542  14.018
89281W        W61596  12.836  40.317  14.417
89282W        W61597  12.157  12.347   4.777
89283W        W61598  24.654   0.403  14.763
89284W        W61599  20.717   5.221  13.448
89285W        W61600   2.243   4.847  14.434
89286W        W61601  43.814  37.053   3.632
89287W        W61602   9.228  40.002   3.732
89288W        W61603   1.258  17.263   0.939
89289W        W61604  13.105   1.450  14.338
89290W        W61605   1.310   3.255  14.282
89291W        W61606   3.249  28.522  13.838
89292W        W61607  30.603  24.666  11.413
89293W        W61608  27.123   5.280  12.347
89294W        W61609  15.303   2.960  12.978
89295W        W61610   4.698  34.965  13.916
89296W        W61611  41.362  13.212   2.310
89297W        W61612  40.967   7.755   1.373
89298W        W61613   7.751  31.431   2.340
89299W        W61614  17.756  34.443  11.036
89300W        W61615  28.112  18.561   2.312
89301W        W61616  43.829   1.297  14.831
89302W        W61617   3.402  37.403  12.053
89303W        W61618  16.142  13.278   3.737
89304W        W61619  40.888  32.518  11.452
89305W        W61620  44.320  16.670   0.944
89306W        W61621   0.925  41.813   1.240
89307W        W61622  18.617  18.124  13.999
89308W        W61623  38.536  35.461   3.814
89309W        W61624  10.344  43.009  11.478
89310W        W61625  16.170  28.055   4.216
89311W        W61626   9.391  29.058  13.997
89312W        W61627   3.718  43.483   2.886
89313W        W61628   8.678  40.335  14.439
89314W        W61629  32.939  35.966  14.970
89315W        W61630  33.417   1.840  12.476
89316W        W61631   8.721  33.074  11.856
89317W        W61632  21.105  29.615   0.337
89318W        W61633   7.188  19.091   4.197
89319W        W61634  24.138  24.539  13.325
89320W        W61635  10.673  44.450  10.070
89321W        W61636  40.940  35.979   0.726
89322W        W61637  15.252  24.987  12.512
89323W        W61638  16.209  26.002  11.036
89324W        W61639  20.162  19.195   2.834
89325W        W61640   3.366  28.467   0.483
89326W        W61641   9.267  42.971  11.914
89327W        W61642   5.894  23.238   4.345
89328W        W61643  12.615   2.745   1.735
89329W        W61644  29.959   5.388   4.243
89330W        W61645  21.742   8.341   0.810
89331W        W61646   5.222  17.110  14.763
89332W        W61647  43.973  42.867   3.296
89333W        W61648  13.600  37.041   1.289
89334W        W61649  31.622  28.058   4.158
89335W        W61650   4.434  12.653   1.781
89336W        W61651  43.432   1.789   1.898
89337W        W61652   3.300  30.975  12.051
89338W        W61653  32.423   0.337  12.528
89339W        W61654  32.394  30.469   3.803
89340W        W61655   0.780  15.820   4.133
89341W        W61656  24.975  18.736   2.377
89342W        W61657  44.474  44.796  14.861
89343W        W61658  26.082  16.650  11.043
89344W        W61659  30.148  20.223  12.081
89345W        W61660  38.547  11.632   0.874
89346W        W61661  13.130  38.975  14.883
89347W        W61662  17.724  30.624   4.264
89348W        W61663  31.610  26.563   0.452
89349W        W61664  39.041  40.349   3.747
89350W        W61665  37.059  19.215   0.406
89351W        W61666  33.602  12.302  11.962
89352W        W61667  36.094  15.266  14.780
89353W        W61668  22.502  25.135  13.459
89354W        W61669   9.239  24.090  13.531
89355W        W61670   8.367   5.211  14.973
89356W        W61671  31.959  26.077   1.395
89357W        W61672   0.913  28.979  13.519
89358W        W61673  39.371  42.782  10.607
89359W        W61674  18.204  31.054   2.241
89360W        W61675  32.905  44.493   2.221
89361W        W61676  18.615  17.738  12.492
89362W        W61677  12.688  26.553  10.951
89363W        W61678  43.897  24.695  10.617
89364W        W61679  35.936  39.378   1.705
89365W        W61680  44.765  19.201   0.815
89366W        W61681  20.740   6.761   4.613
89367W        W61682  25.699  19.057   0.265
89368W        W61683  26.527  17.590  11.564
89369W        W61684  18.551   1.818  11.982
89370W        W61685  25.625  18.765   0.315
89371W        W61686   6.193   5.736   2.327
89372W        W61687  44.430   5.721   2.722
89373W        W61688  37.931   2.344   1.437
89374W        W61689  43.360  38.969   1.281
89375W        W61690  10.298  15.644  12.942
89376W        W61691  14.802  41.028   2.237
89377W        W61692  35.107  26.545  11.073
89378W        W61693  19.161  27.634   2.239
89379W        W61694  43.845   3.772  14.493
89380W        W61695  29.958  12.822  10.909
89381W        W61696   2.456   3.920   4.314
89382W        W61697  40.825  17.649   3.332
89383W        W61698  42.521  36.576   1.879
89384W        W61699   6.853  21.734  14.329
89385W        W61700  43.457  35.567  10.430
89386W        W61701  36.031   6.247   4.736
89387W        W61702  11.745  13.794   1.338
89388W        W61703   6.243  33.425   2.690
89389W        W61704  12.202  41.362   3.346
89390W        W61705  38.915  34.536   3.172
89391W        W61706  26.189  28.666   1.737
89392W        W61707   0.953  33.506  14.983
89393W        W61708  37.510   4.388  12.873
89394W        W61709  41.301  21.602  10.923
89395W        W61710   3.779  32.626   0.382
89396W        W61711  43.832   6.263  11.464
89397W        W61712  20.582   5.793   1.700
89398W        W61713   5.778   6.276   4.218
89399W        W61714   5.324   8.258   2.710
89400W        W61715  29.035  29.573   0.463
89401W        W61716  30.018  18.791  14.772
89402W        W61717  36.921  23.550  14.491
89403W        W61718  43.423   8.680   1.819
89404W        W61719   6.184  28.987  14.382
89405W        W61720  34.001  26.105   2.279
89406W        W61721  12.202  36.550  14.997
89407W        W61722  38.470  20.076   3.294
89408W        W61723  12.324   8.863  12.931
89409W        W61724  26.046  25.648   4.704
89410W        W61725  22.108  30.158  10.985
89411W        W61726   5.400   2.281  13.362
89412W        W61727  16.733  26.580  13.992
89413W        W61728   5.796  14.179   2.663
89414W        W61729   7.361  29.922  12.085
89415W        W61730  16.298  35.041   4.225
89416W        W61731  16.219   3.807  13.376
89417W        W61732  17.264  23.494  11.020
89418W        W61733  43.311  11.765  10.104
89419W        W61734  19.608  44.960   0.899
89420W        W61735  32.513  39.902   4.194
89421W        W61736  33.916  32.453  12.988
89422W        W61737   7.213  36.586   0.785
89423W        W61738  27.502  23.691  11.976
89424W        W61739  39.845  22.200   1.388
89425W        W61740   4.817  40.992   1.282
89426W        W61741  21.157   5.913  11.122
89427W        W61742  38.851  20.599   0.466
89428W        W61743  27.089  22.121   0.741
89429W        W61744  29.664  14.105  14.488
89430W        W61745  33.132  24.542  10.899
89431W        W61746  34.878  22.196   4.680
89432W        W61747  36.540  38.367  11.032
89433W        W61748   0.763  31.478   3.191
89434W        W61749  30.058   2.311   4.200
89435W        W61750  36.939  23.730   1.842
89436W        W61751  30.122   3.757  13.874
89437W        W61752  38.888  14.230   2.678
89438W        W61753  27.165  22.010   3.815
89439W        W61754  32.628  41.018  12.053
89440W        W61755  22.612  41.345   4.768
89441W        W61756  28.564  21.624  11.461
89442W        W61757  28.659  26.621   3.359
89443W        W61758  16.080  24.549   2.406
89444W        W61759  38.065  21.673   1.725
89445W        W61760  19.223   4.771  10.954
89446W        W61761  22.238  30.654  14.486
89447W        W61762  41.803  10.267  14.929
89448W        W61763  19.680  35.899  12.850
89449W        W61764  22.615  21.596  11.371
89450W        W61765  29.042  39.393  11.876
89451W        W61766  40.902  42.919   3.315
89452W        W61767   9.370  18.737   2.749
89453W        W61768   2.808  10.286   1.361
89454W        W61769  28.023  38.058  11.484
89455W        W61770   8.390  29.467   3.652
89456W        W61771  29.143   1.972   4.731
89457W        W61772  21.655   9.356   0.947
89458W        W61773   7.285  38.940  12.964
89459W        W61774  10.754   7.336  14.455
89460W        W61775  17.741   3.911  14.865
89461W        W61776  43.001  31.612  13.041
89462W        W61777   3.742  27.582  10.507
89463W        W61778  26.598  14.675  12.473
89464W        W61779  37.986   3.226   0.321
89465W        W61780  34.388   7.275  13.397
89466W        W61781  41.010  14.817   2.720
89467W        W61782  30.636  37.483  14.893
89468W        W61783  11.864  39.461   1.287
89469W        W61784  10.839  22.245   1.253
89470W        W61785   0.492   7.326   2.813
89471W        W61786  22.700  19.630  14.773
89472W        W61787  44.389   9.307   4.605
89473W        W61788  17.651   5.763  11.468
89474W        W61789  21.592  18.689   4.135
89475W        W61790   7.275  27.059   4.831
89476W        W61791  34.523  22.737   3.346
89477W        W61792  34.561  25.176   0.787
89478W        W61793  23.688  29.467   1.305
89479W        W61794  19.718  10.823   4.320
89480W        W61795  35.523  28.163   4.665
89481W        W61796  14.229  34.433   2.403
89482W        W61797  40.537  28.581   2.839
89483W        W61798  37.414   0.410  13.827
89484W        W61799   8.384  24.223   4.766
89485W        W61800  15.593   4.727   0.849
89486W        W61801  38.033  10.800  11.443
89487W        W61802  44.358   3.317   1.868
89488W        W61803   2.358  40.327   9.983
89489W        W61804   4.718  15.122   0.863
89490W        W61805   7.227  43.999  13.812
89491W        W61806  27.983  10.834  13.984
89492W        W61807  28.577  14.794   1.283
89493W        W61808  33.038   6.341  14.430
89494W        W61809  16.629  39.946   5.233
89495W        W61810  10.225  31.519  13.359
89496W        W61811  23.605  44.953  10.446
89497W        W61812  19.094  38.884  10.635
89498W        W61813  28.591  30.044   0.407
89499W        W61814  23.190  36.471   4.173
89500W        W61815  11.701  42.964  11.056
89501W        W61816   6.286  33.116   0.904
89502W        W61817  32.066  14.738   1.359
89503W        W61818   5.809  28.079   4.833
89504W        W61819   6.335  18.736   0.469
89505W        W61820  28.478  29.522   2.724
89506W        W61821   0.376  14.116   4.836
89507W        W61822  44.820  26.487  10.541
89508W        W61823   2.278  31.440   3.233
89509W        W61824  18.742   4.387   4.758
89510W        W61825   5.396  36.369   1.273
89511W        W61826  14.626  15.324   2.765
89512W        W61827  35.949  36.565  11.572
89513W        W61828   7.870  37.393  10.063
89514W        W61829  12.640  22.057  13.949
89515W        W61830  25.568  21.615  12.052
89516W        W61831   5.393  43.802  10.893
89517W        W61832  12.194   1.956   2.334
89518W        W61833   5.732  43.924  10.898
89519W        W61834  15.622   9.184   5.093
89520W        W61835  15.774   2.737   2.381
89521W        W61836   1.473  39.871  11.542
89522W        W61837  41.450  24.641  12.365
89523W        W61838   5.240  22.657   1.352
89524W        W61839  13.214  13.820   0.963
89525W        W61840   6.736  29.075   2.261
89526W        W61841  21.127  10.849   1.267
89527W        W61842  43.889  14.338   2.347
89528W        W61843  42.406   1.304   2.868
89529W        W61844  11.820  37.502   0.734
89530W        W61845  12.171  44.363   2.352
89531W        W61846  36.853  38.488   0.339
89532W        W61847   3.380  33.591   2.275
89533W        W61848  42.476  12.183  11.481
89534W        W61849  44.419  44.790   1.700
89535W        W61850  23.498   8.352  10.621
89536W        W61851  37.473  20.194  11.869
89537W        W61852   2.284  21.657  14.937
89538W        W61853  25.569  23.507   2.202
89539W        W61854  40.423  22.638   3.819
89540W        W61855  31.051   1.860  13.047
89541W        W61856  27.171  24.187  12.061
89542W        W61857  24.088  19.706   4.638
89543W        W61858  17.124  11.267   2.899
89544W        W61859  18.149  42.287   1.371
89545W        W61860  26.064   7.862   4.774
89546W        W61861  36.958   5.315  13.817
89547W        W61862  38.997  18.241   2.745
89548W        W61863  39.316  40.020  14.497
89549W        W61864  17.082  32.958  10.954
89550W        W61865  44.358   2.429   2.830
89551W        W61866  18.731  37.367  13.501
89552W        W61867  26.575   7.673   3.759
89553W        W61868  34.106  35.397  11.543
89554W        W61869   6.751   3.416   3.739
89555W        W61870  14.110  44.979   3.374
89556W        W61871  39.988  24.674  13.528
89557W        W61872  42.374  32.461   3.165
89558W        W61873  38.526  23.130   4.154
89559W        W61874  22.638  34.531  14.892
89560W        W61875   3.873  36.044  11.505
89561W        W61876  25.494   7.172   3.756
89562W        W61877  14.162  18.104  10.951
89563W        W61878  24.213  12.229  13.931
89564W        W61879  28.153   3.215  14.509
89565W        W61880  24.218  38.982   3.270
89566W        W61881  32.621   6.791   4.669
89567W        W61882   7.348   9.665  12.028
89568W        W61883  40.904  38.441  14.986
89569W        W61884  20.630  11.728   4.221
89570W        W61885  19.208  29.462  11.901
89571W        W61886  13.160  16.246   1.877
89572W        W61887  19.669  34.964  11.074
89573W        W61888  18.648  18.740   5.202
89574W        W61889   7.380  20.622  10.410
89575W        W61890  21.710  21.163  13.928
89576W        W61891  13.256  32.122  10.092
89577W        W61892  22.701  32.037  13.355
89578W        W61893  26.674   2.934  10.448
89579W        W61894  14.681  14.150   2.890
89580W        W61895   1.911   6.908  10.965
89581W        W61896  11.242  36.511  14.852
89582W        W61897  43.018  17.249   3.652
89583W        W61898  39.845  24.183  11.054
89584W        W61899  44.433  35.385   4.229
89585W        W61900   6.747  32.467   4.192
89586W        W61901   1.773   9.263   2.749
89587W        W61902  22.666  25.997  12.396
89588W        W61903  15.300   5.392   1.227
89589W        W61904  33.523  15.715  13.976
89590W        W61905   7.277  44.829   0.933
89591W        W61906  43.909   5.695  11.383
89592W        W61907  16.312  40.547   2.197
89593W        W61908  25.001  34.479  11.017
89594W        W61909  10.323   0.458   4.239
89595W        W61910   5.301   9.677  13.857
89596W        W61911   9.802  22.741  10.623
89597W        W61912   9.268   2.886   1.870
89598W        W61913  12.764   1.454   0.938
89599W        W61914  12.198   8.743   2.386
89600W        W61915  18.605  12.154   1.399
89601W        W61916  14.775  21.176   5.134
89602W        W61917   3.812  24.185   2.182
89603W        W61918  12.754  21.568   0.815
89604W        W61919   6.903  42.516  13.345
89605W        W61920  22.124  37.863   4.318
89606W        W61921  21.632  40.410   2.367
89607W        W61922  41.535   8.197  11.592
89608W        W61923  39.958  36.377  11.005
89609W        W61924  24.037  25.088  13.860
89610W        W61925  42.483  20.641  12.972
89611W        W61926  16.203  15.261   4.309
89612W        W61927  38.482  28.601  13.319
89613W        W61928   2.908   0.438  12.852
89614W        W61929  40.426   5.892   3.763
89615W        W61930   2.439  15.618   3.789
89616W        W61931   7.193  28.143   0.430
89617W        W61932  43.871  37.916   3.187
89618W        W61933   8.284  40.986   3.755
89619W        W61934  35.440   1.366   4.274
89620W        W61935  38.560   2.772  11.094
89621W        W61936   3.420  16.676   2.792
89622W        W61937  21.054  38.041   2.903
89623W        W61938  25.586  26.180  10.961
89624W        W61939  17.224  21.636   0.822
89625W        W61940  28.090  37.915  14.476
89626W        W61941  22.011  14.215  10.550
89627W        W61942  23.114  31.432   0.867
89628W        W61943  30.465  26.628  10.527
89629W        W61944  35.044  35.475  14.953
89630W        W61945  41.429  13.187  13.877
89631W        W61946   9.276   8.836   4.761
89632W        W61947  34.383  43.953  13.485
89633W        W61948  14.205  41.848   2.390
89634W        W61949   4.884   2.303   5.163
89635W        W61950   3.783  14.123  10.071
89636W        W61951   6.767   5.284   4.179
89637W        W61952  40.959  24.674  10.579
89638W        W61953  40.449  31.639   4.280
89639W        W61954  44.414  31.073   1.868
89640W        W61955   4.879  18.211  10.977
89641W        W61956  11.342  42.876   2.703
89642W        W61957   5.247  36.384  10.441
89643W        W61958  23.535  18.162  10.420
89644W        W61959  12.717  21.083   1.807
89645W        W61960  27.124  22.527  10.526
89646W        W61961  30.543  35.429   3.800
89647W        W61962  32.074  15.634   3.205
89648W        W61963  32.033  36.874   3.809
89649W        W61964  32.410  34.576   2.379
89650W        W61965   7.742  11.188   3.820
89651W        W61966   4.916  14.335  13.527
89652W        W61967  13.136  12.791   0.960
89653W        W61968  10.312   5.320   1.776
89654W        W61969  10.339  27.454   0.470
89655W        W61970  25.127   8.865  12.562
89656W        W61971  29.066   8.783  12.921
89657W        W61972  37.431  28.017   1.380
89658W        W61973  18.610   8.826  13.339
89659W        W61974  35.898   0.316   3.681
89660W        W61975   8.207   3.729  14.860
89661W        W61976   3.439  32.491   2.200
89662W        W61977  44.803  22.060   2.686
89663W        W61978  17.097  17.169  12.004
89664W        W61979  14.108   4.410  11.586
89665W        W61980  28.574  19.562  11.974
89666W        W61981  16.274  31.430  12.022
89667W        W61982  34.867   1.445   2.233
89668W        W61983  16.242   2.411   3.191
89669W        W61984  34.938  23.068  11.003
89670W        W61985  34.963   5.796  14.831
89671W        W61986  43.351   2.741   0.283
89672W        W61987  41.315  44.294  14.399
89673W        W61988  11.754  29.499  12.923
89674W        W61989  22.100  44.387  12.344
89675W        W61990  22.189  40.378  11.562
89676W        W61991  15.738   5.238   3.767
89677W        W61992  16.741  30.948   0.778
89678W        W61993   7.740  32.018   3.213
89679W        W61994  36.930  33.992   4.283
89680W        W61995  15.276  11.725   0.774
89681W        W61996  13.203  11.633  11.589
89682W        W61997  22.556  17.658  13.416
89683W        W61998   5.211   3.290  13.343
89684W        W61999  15.687  42.891   1.300
89685W        W62000  27.680  19.125  10.618
89686W        W62001  40.042  32.896  13.814
89687W        W62002  27.094   3.435  10.895
89688W        W62003  27.567  21.066  10.528
89689W        W62004  40.371  18.585  14.984
89690W        W62005   8.812  16.123  14.367
89691W        W62006  37.002  43.872  10.425
89692W        W62007   7.820  18.669   1.320
89693W        W62008  19.274  24.135  13.012
89694W        W62009  28.606  11.350   2.802
89695W        W62010  24.141  15.165  12.044
89696W        W62011  12.855   9.761  13.321
89697W        W62012   8.691  29.453   3.303
89698W        W62013  13.125   4.772   1.237
89699W        W62014  37.532   9.728  13.971
89700W        W62015  11.654  13.790  12.896
89701W        W62016  38.337   3.865  13.852
89702W        W62017  31.606  41.414  13.329
89703W        W62018  44.004  31.602  13.983
89704W        W62019   5.309  19.162  13.322
89705W        W62020   0.880  39.521  13.496
89706W        W62021   8.812   7.739   1.424
89707W        W62022  17.256  10.664   0.463
89708W        W62023  11.721  32.130   1.788
89709W        W62024  18.111  16.656  11.044
89710W        W62025   8.268  37.536  12.498
89711W        W62026  34.012  23.548   0.343
89712W        W62027  15.790  30.969   2.187
89713W        W62028  28.985  35.990   0.437
89714W        W62029  44.912  38.504   1.421
89715W        W62030  12.306  39.549  12.348
89716W        W62031  38.975  34.101  13.321
89717W        W62032  12.767   2.258  10.609
89718W        W62033  27.603   0.800   1.254
89719W        W62034  17.222   3.322  13.887
89720W        W62035  10.685  16.787   3.217
89721W        W62036  37.875  21.216  11.128
89722W        W62037   9.799  41.406   4.244
89723W        W62038  28.097  26.170  11.966
89724W        W62039  41.819  14.590   2.821
89725W        W62040  16.710  14.628   4.246
89726W        W62041   5.232   4.904   2.757
89727W        W62042   8.300   0.355   3.632
89728W        W62043   8.358  28.042  10.543
89729W        W62044  36.061  40.941   0.733
89730W        W62045  27.681   6.727  12.415
89731W        W62046  28.577   1.465   0.379
89732W        W62047  12.684  37.966   0.921
89733W        W62048  31.504  10.190   2.888
89734W        W62049  16.759  42.943   4.727
89735W        W62050   4.322  17.200   3.671
89736W        W62051  35.093  41.930   3.660
89737W        W62052   0.421  12.772  10.049
89738W        W62053  41.033   9.798   0.773
89739W        W62054   8.656  33.960   2.285
89740W        W62055  29.545   1.873   3.780
89741W        W62056  23.148  21.512  11.432
89742W        W62057  28.576   2.261   0.432
89743W        W62058  44.265  20.657  12.985
89744W        W62059  16.132  18.721   1.929
89745W        W62060   3.366   1.846  14.785
89746W        W62061  28.991  21.073  12.457
89747W        W62062  25.688  11.844  10.903
89748W        W62063  22.162  35.524   2.869
89749W        W62064  13.657  15.131  12.510
89750W        W62065  25.471   6.189  10.461
89751W        W62066  29.517  28.647   3.655
89752W        W62067  44.399   8.356   0.820
89753W        W62068   9.847  27.972   4.354
89754W        W62069  38.547  41.507  13.859
89755W        W62070  11.311  25.040  13.538
89756W        W62071  15.822  13.757   0.245
89757W        W62072  33.017  31.421   1.382
89758W        W62073  22.712  26.680  12.878
89759W        W62074  34.531   6.217  14.485
89760W        W62075   4.372  39.919   2.311
89761W        W62076  21.130   8.395  13.368
89762W        W62077  11.183  16.604   4.710
89763W        W62078  32.634   4.838  13.440
89764W        W62079   6.187  39.328  12.899
89765W        W62080   2.448  44.442  11.886
89766W        W62081  30.014  40.928  10.454
89767W        W62082  25.628  15.648   3.638
89768W        W62083  23.635   9.703  12.560
89769W        W62084  17.753  21.220   2.809
89770W        W62085  15.243  42.438   2.770
89771W        W62086  39.505   0.985   0.901
89772W        W62087  43.391  27.996  12.353
89773W        W62088   5.722  29.973  11.385
89774W        W62089   4.871  35.958   4.149
89775W        W62090  23.628  21.215   3.737
89776W        W62091  18.158  36.076   1.838
89777W        W62092  18.612  26.022  14.971
89778W        W62093  43.468   5.848   2.773
89779W        W62094  23.573  36.961  12.362
89780W        W62095   5.724  28.992   1.726
89781W        W62096   9.279  40.957  13.320
89782W        W62097   1.444  42.848   3.338
89783W        W62098  17.084  44.853  13.043
89784W        W62099  18.196  32.497   1.717
89785W        W62100   0.287   4.268   4.600
89786W        W62101  15.118  33.131  10.512
89787W        W62102  21.690  23.114   3.173
89788W        W62103   5.394  25.617  14.839
89789W        W62104  19.554   7.874   5.161
89790W        W62105  14.600  38.972  12.930
89791W        W62106   5.335   0.830  12.007
89792W        W62107  20.223  41.024  13.906
89793W        W62108  18.698  25.975   4.354
89794W        W62109  22.716  23.628  14.288
89795W        W62110   9.650  14.287   4.800
89796W        W62111   3.441  42.944  14.876
89797W        W62112  15.807  43.835   0.372
89798W        W62113  28.647  16.575  10.424
89799W        W62114  38.542  36.869  11.478
89800W        W62115  36.047  35.460  12.431
89801W        W62116  28.990  28.172   0.249
89802W        W62117  17.637  33.516  10.581
89803W        W62118  15.706   1.340  10.603
89804W        W62119  29.435  29.106  11.575
89805W        W62120  41.823  23.491  10.465
89806W        W62121   1.904  27.532   0.794
89807W        W62122  40.406  37.957  13.843
89808W        W62123  44.754  37.064  13.977
89809W        W62124  21.231  17.775   1.780
89810W        W62125  18.085   8.209   4.174
89811W        W62126   6.373   0.928  12.867
89812W        W62127  42.365  17.652   2.736
89813W        W62128   6.735  24.979  11.085
89814W        W62129  27.030   6.708   0.327
89815W        W62130  41.904  35.406  12.035
89816W        W62131  41.840  12.680   0.358
89817W        W62132   0.421   3.424   4.243
89818W        W62133  26.537  26.139   2.368
89819W        W62134  13.299  43.986  12.516
89820W        W62135  25.591  32.473  12.825
89821W        W62136   0.774   5.237   0.370
89822W        W62137   5.391   0.880   2.377
89823W        W62138  23.092  43.809   1.379
89824W        W62139   0.924  29.595   1.275
89825W        W62140  43.848  12.715  11.410
89826W        W62141   3.303   6.864  13.807
89827W        W62142  16.154  30.972  10.994
89828W        W62143  28.176   0.789   0.894
89829W        W62144  37.408  11.860   0.863
89830W        W62145  13.761  11.671   1.397
89831W        W62146  30.926   2.238   1.242
89832W        W62147  37.959  32.078   1.849
89833W        W62148   1.974   5.300  11.876
89834W        W62149  30.530  10.635  11.516
89835W        W62150  17.064  20.546  13.992
89836W        W62151  15.695  32.012  10.619
89837W        W62152  36.466  24.574   2.390
89838W        W62153   3.296  20.690  14.915
89839W        W62154  32.098  32.031   0.418
89840W        W62155  26.080  33.071  11.914
89841W        W62156  37.947  37.385   1.256
89842W        W62157  21.570   7.356   2.278
89843W        W62158   1.778  32.044   1.746
89844W        W62159  29.107  36.063  11.609
89845W        W62160  30.051   9.817  11.383
89846W        W62161  35.084  31.140  10.944
89847W        W62162  32.914  26.972   1.378
89848W        W62163   2.850  18.172   4.140
89849W        W62164   9.231  20.715   3.370
89850W        W62165  22.523  14.172   1.398
89851W        W62166  40.907  15.629   1.348
89852W        W62167  34.401  41.017  13.955
89853W        W62168  11.767   0.317   1.310
89854W        W62169  28.172  31.968   1.298
89855W        W62170  29.040  25.050  11.521
89856W        W62171   0.915  27.097   2.258
89857W        W62172  16.672   7.834   0.420
89858W        W62173   2.300  43.310  11.045
89859W        W62174   1.877  30.435   0.314
89860W        W62175  30.567  13.205   2.238
89861W        W62176  34.876  27.986   0.926
89862W        W62177  26.195  30.997  12.905
89863W        W62178   0.898  10.253   0.269
89864W        W62179  33.466   7.416   4.233
89865W        W62180  30.021  31.577  11.909
89866W        W62181  37.521  41.787   2.709
89867W        W62182  10.653   2.832  12.385
89868W        W62183  35.902   6.885   3.668
89869W        W62184  32.940  17.074  13.801
89870W        W62185  21.582  41.382  10.440
89871W        W62186  40.820  27.592   1.910
89872W        W62187  24.975  39.911  11.116
89873W        W62188  11.280  30.430   3.843
89874W        W62189  11.689  26.457  10.159
89875W        W62190   6.786  19.734   3.652
89876W        W62191  22.230  13.255  11.391
89877W        W62192  18.230  28.938  14.842
89878W        W62193  35.898  37.893  11.080
89879W        W62194  10.856  25.664   1.764
89880W        W62195  44.433  14.198  13.310
89881W        W62196  17.579  31.956   2.206
89882W        W62197  10.147  32.597   2.411
89883W        W62198  40.995   0.809  11.483
89884W        W62199  24.585   8.779  10.603
89885W        W62200  19.123   1.825   4.665
89886W        W62201  42.402   8.266   2.367
89887W        W62202  27.952  43.281  12.906
89888W        W62203  35.056  26.667   4.208
89889W        W62204  33.909  24.580  14.505
89890W        W62205   7.839  10.731   0.408
89891W        W62206  41.862   5.301   1.316
89892W        W62207  41.986  31.907   1.735
89893W        W62208   9.323  42.967   0.735
89894W        W62209  39.549  38.464  14.480
89895W        W62210  39.417   7.726  14.436
89896W        W62211  43.018  32.555   4.654
89897W        W62212  42.924  19.071  11.022
89898W        W62213  23.228  43.356  10.986
89899W        W62214  40.876  12.762   4.202
89900W        W62215  34.879  30.431  11.428
89901W        W62216   1.758  27.072   3.281
89902W        W62217  17.155  33.422  12.383
89903W        W62218  40.046  43.453   1.377
89904W        W62219  18.669  35.531   2.284
89905W        W62220  33.981  32.423  11.024
89906W        W62221   7.220  41.908   3.764
89907W        W62222   2.290  35.501  13.475
89908W        W62223  11.327  39.857  11.874
89909W        W62224  23.166   6.854  13.994
89910W        W62225  35.381  23.003  14.506
89911W        W62226  22.038  25.159  14.849
89912W        W62227  27.638  34.470   0.305
89913W        W62228  24.699  38.939  14.405
89914W        W62229  31.991   6.394   4.734
89915W        W62230   6.189  26.012  14.832
89916W        W62231  37.068  11.184  14.460
89917W        W62232  40.827  31.441   0.912
89918W        W62233  15.239  20.763  12.982
89919W        W62234   8.897  35.025   4.220
89920W        W62235  39.469  19.268  10.625
89921W        W62236  30.100  37.358  11.916
89922W        W62237  44.476  19.578   1.364
89923W        W62238  27.497   9.260  12.936
89924W        W62239  22.043   7.770   0.760
89925W        W62240  11.767  17.168   2.336
89926W        W62241  27.574   8.665   1.329
89927W        W62242  35.042  30.940  13.804
89928W        W62243  32.087   9.189  14.997
89929W        W62244   0.776  24.148  12.358
89930W        W62245  40.401   7.214  13.035
89931W        W62246   7.361  22.127  12.994
89932W        W62247  31.620  36.008   3.833
89933W        W62248  30.140  30.143   3.233
89934W        W62249  14.117  27.498   0.851
89935W        W62250  26.499   7.276  13.873
89936W        W62251   3.285  44.933  11.412
89937W        W62252   0.957  42.364   3.161
89938W        W62253  10.202   5.241  11.953
89939W        W62254  11.658   3.242  12.910
89940W        W62255  35.968  18.698  14.451
89941W        W62256  27.469   0.303   2.304
89942W        W62257  16.072  13.199  12.078
89943W        W62258   3.445   1.746  11.864
89944W        W62259  38.551   5.368   3.161
89945W        W62260  14.717   7.803   2.337
89946W        W62261  20.034  23.561  11.001
89947W        W62262  21.736   8.204   4.675
89948W        W62263  16.269  35.506  11.557
89949W        W62264  35.494  19.246   0.904
89950W        W62265  40.025  29.000   3.175
89951W        W62266  38.990   8.755   2.734
89952W        W62267   7.704   3.821  10.591
89953W        W62268  29.047  18.620  10.983
89954W        W62269  13.785  34.086   4.693
89955W        W62270  17.076  30.590  12.899
89956W        W62271   0.256   3.767  13.964
89957W        W62272   1.868   6.711   2.414
89958W        W62273  16.247  33.423  11.541
89959W        W62274  22.121  20.739  14.960
89960W        W62275  15.601  17.297  11.405
89961W        W62276   0.769  43.900   0.376
89962W        W62277  34.953  10.730   3.284
89963W        W62278  38.985  27.085  14.939
89964W        W62279  22.681  24.136  10.442
89965W        W62280  19.612  18.281  12.448
89966W        W62281  38.965  17.228  13.520
89967W        W62282  29.514  17.765  10.629
89968W        W62283   5.207  18.649   2.419
89969W        W62284  31.475  15.754  13.817
89970W        W62285  28.547  37.934  14.432
89971W        W62286  36.875  11.255  11.038
89972W        W62287  29.033   7.205   4.330
89973W        W62288  20.245  21.078   3.226
89974W        W62289  22.230  36.530  11.929
89975W        W62290   9.333  34.406   0.385
89976W        W62291  14.284  25.997  12.379
89977W        W62292  41.350   3.747  13.358
89978W        W62293  27.029   6.192  11.420
89979W        W62294  34.001  35.938   0.269
89980W        W62295  21.737  23.502   3.307
89981W        W62296  11.139  33.395  11.083
89982W        W62297  16.150  29.488  10.437
89983W        W62298   8.403  16.235   0.958
89984W        W62299  28.024  37.472   2.303
89985W        W62300  36.501  41.535   0.806
89986W        W62301  29.005  18.064   1.246
89987W        W62302  25.182  21.202   3.356
89988W        W62303  32.095  22.525  14.960
89989W        W62304   1.734  16.667  11.565
89990W        W62305  44.960  17.762  13.976
89991W        W62306   8.678   6.343  11.859
89992W        W62307  14.689  19.047  12.049
89993W        W62308  41.492  20.685   2.688
89994W        W62309  15.711  42.394   0.443
89995W        W62310  26.666  25.663  11.906
89996W        W62311  38.925  22.098  13.316
89997W        W62312  15.818   9.244  13.813
89998W        W62313  10.774  19.636   9.482
89999W        W62314  41.424  35.876  14.370
90000W        W62315  39.031  33.058  11.510
90001W        W62316  21.154  31.103   1.367
90002W        W62317  10.865  39.948  12.440
90003W        W62318   4.232  33.886   1.338
90004W        W62319  22.549  42.857   5.267
90005W        W62320  26.063  42.884   2.360
90006W        W62321  27.492  26.953   2.304
90007W        W62322   1.432  39.453   0.856
90008W        W62323  13.749  21.086  11.032
90009W        W62324  42.005  18.782   0.804
90010W        W62325  13.633  31.005   3.259
90011W        W62326  38.404  34.023   3.186
90012W        W62327  28.973  23.640   3.335
90013W        W62328  35.573  18.094   2.305
90014W        W62329  43.349   6.690  13.037
90015W        W62330  41.946  27.648  12.482
90016W        W62331   1.881   2.957  11.376
90017W        W62332  37.924  13.793  14.486
90018W        W62333  27.672   5.223  11.393
90019W        W62334   2.751   3.713  12.557
90020W        W62335  24.103   2.743  12.912
90021W        W62336  40.444  20.706   3.164
90022W        W62337  23.175   5.893   2.239
90023W        W62338  22.561   5.400   0.296
90024W        W62339   5.794  28.151  10.496
90025W        W62340  33.127  21.144   3.851
90026W        W62341  35.938  34.022   1.823
90027W        W62342  25.188  21.526   2.416
90028W        W62343   5.407  39.405   2.861
90029W        W62344  38.442  10.306  11.529
90030W        W62345   1.245  24.064   4.133
90031W        W62346   4.812   1.916   2.348
90032W        W62347  23.034  23.559  11.371
90033W        W62348  21.665  44.793   4.200
90034W        W62349  29.506  40.975  14.802
90035W        W62350  28.177   3.871  13.866
90036W        W62351  30.624  14.307  11.972
90037W        W62352  29.510  12.324   3.365
90038W        W62353  16.695  35.873  12.459
90039W        W62354  27.120  13.163  13.393
90040W        W62355  44.831  12.716  12.094
90041W        W62356  20.063  38.845  11.378
90042W        W62357  13.122  18.075  13.334
90043W        W62358  30.105  40.916  10.993
90044W        W62359  22.126  10.840  13.887
90045W        W62360  40.382  42.976  12.390
90046W        W62361  40.333  26.086  14.844
90047W        W62362  43.997  15.750   2.665
90048W        W62363  23.520  28.080   1.344
90049W        W62364  11.269  13.170  13.839
90050W        W62365  33.996  22.532  12.838
90051W        W62366  40.860  44.371   2.382
90052W        W62367   9.664  34.988  14.982
90053W        W62368  15.631  18.689  13.028
90054W        W62369   1.751  16.757  12.457
90055W        W62370  29.923  42.447   4.244
90056W        W62371  31.902  31.951   1.321
90057W        W62372  35.373  26.702   1.419
90058W        W62373  26.044  24.140  11.117
90059W        W62374  12.257  36.095   2.719
90060W        W62375  27.633  33.994   0.897
90061W        W62376   1.811  26.621   1.239
90062W        W62377  12.233  13.205  13.342
90063W        W62378  33.993  31.035  12.950
90064W        W62379  24.102  14.205  11.384
90065W        W62380   8.335  28.451  13.957
90066W        W62381  30.961  10.739  11.073
90067W        W62382  12.216  28.461  13.333
90068W        W62383  15.689  30.590   0.466
90069W        W62384  43.798   2.917  14.903
90070W        W62385  14.138   7.886   1.856
90071W        W62386  42.427  20.186  12.453
90072W        W62387   0.313  13.744   4.724
90073W        W62388  23.999  43.019  10.092
90074W        W62389  17.656   4.775  12.487
90075W        W62390   1.398  18.675  14.981
90076W        W62391  27.002  31.593  14.769
90077W        W62392  22.998  25.598   0.776
90078W        W62393  11.156  41.318  14.385
90079W        W62394  31.612   6.401  11.517
90080W        W62395   9.150  28.523  11.049
90081W        W62396  26.191  13.832  11.108
90082W        W62397  21.523  41.000  11.946
90083W        W62398  37.920  42.980  12.546
90084W        W62399  12.779  19.244  12.888
90085W        W62400  44.382  38.568   1.909
90086W        W62401  31.479  20.107   2.295
90087W        W62402  35.042   3.866  12.380
90088W        W62403  44.839  44.916  11.026
90089W        W62404  17.756  10.637   5.602
90090W        W62405  40.518   9.727  12.564
90091W        W62406  44.936  12.245   4.203
90092W        W62407  43.827  11.752  10.889
90093W        W62408  25.556  18.676  11.872
90094W        W62409  32.461  40.384  11.472
90095W        W62410  29.015   7.802  10.960
90096W        W62411  22.565  32.536   1.782
90097W        W62412  40.905   7.325  12.455
90098W        W62413  13.191  39.015   3.207
90099W        W62414   9.778  17.666   2.380
90100W        W62415  34.548  44.802  12.861
90101W        W62416  18.628  16.769  10.584
90102W        W62417  31.032  10.254  12.455
90103W        W62418  21.714  22.028  14.445
90104W        W62419  31.417   7.347   3.180
90105W        W62420   3.954  38.048   3.156
90106W        W62421  43.997  29.432  13.795
90107W        W62422  40.824   0.933  10.983
90108W        W62423  23.222  30.088   3.204
90109W        W62424   8.187   5.774  12.415
90110W        W62425  39.538  34.096   4.838
90111W        W62426  38.377  21.094  11.452
90112W        W62427  36.453   7.848  12.867
90113W        W62428  17.215   3.443  14.441
90114W        W62429  12.166   0.810  12.340
90115W        W62430   9.232   7.681   1.776
90116W        W62431  34.977  43.308   2.807
90117W        W62432  36.516  30.625   1.219
90118W        W62433  39.457  23.142   9.507
90119W        W62434  10.838  34.390   3.340
90120W        W62435  17.077   1.943   4.307
90121W        W62436   0.817   2.247   3.323
90122W        W62437  32.534  34.468   0.266
90123W        W62438  20.068   7.266  14.403
90124W        W62439  27.174  27.030  14.979
90125W        W62440  17.148  26.075  11.491
90126W        W62441  37.995  41.849  14.307
90127W        W62442  39.344   0.886  14.958
90128W        W62443  12.174  35.433   0.732
90129W        W62444  41.890  29.080  11.936
90130W        W62445  37.987   1.300   0.442
90131W        W62446  44.771  23.558   4.712
90132W        W62447  11.223  31.013  14.375
90133W        W62448   6.413   0.909   0.473
90134W        W62449  13.690  36.550  12.879
90135W        W62450  42.865   1.323   4.205
90136W        W62451  30.413  30.094  13.343
90137W        W62452   9.832  35.993  13.857
90138W        W62453   2.743  31.549   2.778
90139W        W62454   0.917  36.527   9.942
90140W        W62455  28.113  13.774  15.000
90141W        W62456  12.137  39.520   0.298
90142W        W62457  11.147   0.756  11.893
90143W        W62458   7.326  11.282  10.990
90144W        W62459   8.361  22.517  12.384
90145W        W62460  26.569   5.309   0.270
90146W        W62461   4.447  41.974  13.836
90147W        W62462  37.385  40.983   0.330
90148W        W62463  13.747  22.009  12.833
90149W        W62464   2.321  23.116   1.296
90150W        W62465  11.737  16.619   0.285
90151W        W62466  12.243   2.755   3.225
90152W        W62467  32.456  33.616  10.060
90153W        W62468   1.944   7.351  12.339
90154W        W62469  12.248  34.010   3.344
90155W        W62470  38.357  21.630   2.869
90156W        W62471  37.070  40.387   0.956
90157W        W62472  41.352  42.003  12.046
90158W        W62473   6.301  44.281  10.480
90159W        W62474   0.932  40.958  10.417
90160W        W62475   0.832   7.280   0.799
90161W        W62476  30.067  21.233   1.240
90162W        W62477  41.383  32.059  11.084
90163W        W62478  40.374  24.482   3.852
90164W        W62479   9.203  29.035   2.228
90165W        W62480  37.990  37.954  14.026
90166W        W62481  18.687  19.743  14.345
90167W        W62482  26.109   2.860  14.893
90168W        W62483  41.373   2.268   3.694
90169W        W62484  44.909  29.577   3.184
90170W        W62485  44.857   1.824  12.875
90171W        W62486  30.563  25.609  12.861
90172W        W62487  15.693  21.627   4.137
90173W        W62488   6.720  18.715   1.737
90174W        W62489   1.809   8.315   0.818
90175W        W62490   0.904  19.070   1.787
90176W        W62491  20.088  27.643  11.121
90177W        W62492  41.988  22.181   1.249
90178W        W62493   0.831  18.265   2.859
90179W        W62494  19.122   7.907   4.649
90180W        W62495  33.997  29.485  12.551
90181W        W62496  39.445  31.625   1.362
90182W        W62497  41.364  42.334  13.799
90183W        W62498   9.875  34.920  13.513
90184W        W62499  40.944  13.123   4.192
90185W        W62500  27.476  12.793  10.939
90186W        W62501  11.195  21.210  12.485
90187W        W62502  23.052   9.283  12.989
90188W        W62503  17.683   5.865  14.915
90189W        W62504  35.357  41.914   2.691
90190W        W62505  37.060  34.875   3.314
90191W        W62506  32.971  13.287  13.424
90192W        W62507  13.280   1.413   0.378
90193W        W62508  34.949  17.280   3.635
90194W        W62509  20.156  33.044   0.922
90195W        W62510   4.309  40.950   3.340
90196W        W62511  25.570  35.416   2.747
90197W        W62512   3.771   8.304  13.017
90198W        W62513  41.300  14.141   2.242
90199W        W62514   5.831  20.048   4.267
90200W        W62515  30.021  12.137  14.454
90201W        W62516  19.538  19.044  12.893
90202W        W62517  19.592   0.251  11.594
90203W        W62518  17.790  25.104   2.249
90204W        W62519  38.505  42.901   1.413
90205W        W62520  17.649   5.862   4.786
90206W        W62521  20.209   5.738   9.976
90207W        W62522  31.039  29.171   4.676
90208W        W62523  39.954  18.631   1.815
90209W        W62524   3.822  20.144   4.335
90210W        W62525  23.528  37.523   4.214
90211W        W62526  37.056  44.988  13.981
90212W        W62527   6.732   6.241   0.788
90213W        W62528  25.588   3.755   3.238
90214W        W62529  22.539  33.593   1.702
90215W        W62530  23.232   3.416   3.261
90216W        W62531   2.881  25.060   3.204
90217W        W62532  19.099  11.307  10.005
90218W        W62533  44.491  28.613   4.257
90219W        W62534  17.194  26.107  11.966
90220W        W62535  17.128  37.878   0.949
90221W        W62536   4.778  27.068  11.037
90222W        W62537  17.153  19.142   4.327
90223W        W62538   5.193   8.299  10.890
90224W        W62539   9.210  16.104  12.967
90225W        W62540  11.648  37.047   4.778
90226W        W62541   1.250  32.487  12.567
90227W        W62542  29.071  41.351   3.801
90228W        W62543   0.375  41.531   4.227
90229W        W62544  20.547   1.804   3.320
90230W        W62545  36.842  18.696  12.869
90231W        W62546   7.356   3.385  10.500
90232W        W62547  32.083  11.778  14.318
90233W        W62548  27.487  20.255  12.845
90234W        W62549  15.580  14.652   1.368
90235W        W62550   2.751  31.977   1.848
90236W        W62551   9.180  12.838   1.817
90237W        W62552  27.531  13.279   4.713
90238W        W62553  28.519  25.093  14.981
90239W        W62554  14.739  14.140  13.964
90240W        W62555  34.394  32.611   3.172
90241W        W62556  44.866  11.255   0.365
90242W        W62557   9.333  22.189  13.312
90243W        W62558  35.500  41.452  13.795
90244W        W62559   2.430  34.554  10.030
90245W        W62560   7.270  13.152   3.358
90246W        W62561   3.818  19.197  12.063
90247W        W62562  21.042  41.339   3.809
90248W        W62563  41.969  14.107   2.326
90249W        W62564   9.352   2.776  14.325
90250W        W62565   1.736   2.392  12.047
90251W        W62566  24.015  17.676  11.007
90252W        W62567  35.478  16.104  12.978
90253W        W62568  17.687  30.099  13.521
90254W        W62569   5.901   7.223  12.398
90255W        W62570   4.777  42.838   1.350
90256W        W62571  10.356   5.406  13.909
90257W        W62572  32.474   5.243  13.803
90258W        W62573  36.382  34.930  13.890
90259W        W62574  37.987  23.688   4.262
90260W        W62575  28.615  12.797  13.055
90261W        W62576  16.718  18.740  13.973
90262W        W62577   6.329  44.912   3.328
90263W        W62578   2.752  40.990   4.146
90264W        W62579  29.615  41.311   0.892
90265W        W62580  10.150  24.660   4.285
90266W        W62581  12.144  21.568   0.767
90267W        W62582  31.542   1.325  11.027
90268W        W62583  38.829  11.777   2.805
90269W        W62584  34.521  39.397  10.937
90270W        W62585   7.183  34.095  12.395
90271W        W62586   7.341   1.457  11.116
90272W        W62587  17.108  40.861   0.349
90273W        W62588  17.607  33.456   3.854
90274W        W62589   7.260  18.678  12.942
90275W        W62590  17.782  25.695   3.700
90276W        W62591  14.112  11.186   2.801
90277W        W62592  28.563  17.273   2.876
90278W        W62593  22.521  25.662   4.649
90279W        W62594   4.263   6.213  14.972
90280W        W62595  18.268  42.921  13.377
90281W        W62596   2.756  12.215  10.442
90282W        W62597  15.646  34.904  12.385
90283W        W62598  39.550  14.294   3.215
90284W        W62599  27.156   0.881   3.802
90285W        W62600  31.061  30.919  11.479
90286W        W62601  29.124  35.940   3.833
90287W        W62602   6.922  19.087   4.262
90288W        W62603  33.111  24.188   3.373
90289W        W62604  13.294   3.354  10.437
90290W        W62605  34.930  42.006  14.818
90291W        W62606   2.800  33.050   1.714
90292W        W62607   3.343  11.365  14.974
90293W        W62608  41.805  36.937   1.708
90294W        W62609  32.092  25.168  13.487
90295W        W62610   1.748  28.115  12.892
90296W        W62611  16.280   6.860  14.478
90297W        W62612  14.103  42.359  12.035
90298W        W62613  39.832  43.320   0.891
90299W        W62614  31.495  18.160  13.814
90300W        W62615  26.469  27.500   4.654
90301W        W62616  29.059  43.852   0.920
90302W        W62617   2.337  11.641  14.439
90303W        W62618  39.450  33.411  14.963
90304W        W62619   0.981  38.900   4.609
90305W        W62620   6.405   3.729   9.996
90306W        W62621   3.913  30.916   1.735
90307W        W62622  31.131  22.074   0.407
90308W        W62623  34.929   8.202  12.492
90309W        W62624  38.539   4.264   2.382
90310W        W62625  26.680  24.658  12.087
90311W        W62626   8.667  31.024  14.977
90312W        W62627   3.288  27.156   4.279
90313W        W62628  16.573  38.457   5.738
90314W        W62629  20.132  17.220  10.573
90315W        W62630  42.519   6.242   1.394
90316W        W62631  36.471  29.529   2.721
90317W        W62632  20.200  25.600   0.428
90318W        W62633   4.863  30.960  14.435
90319W        W62634  24.226   4.228  12.878
90320W        W62635   9.767  10.849  13.841
90321W        W62636  36.971  43.964   4.726
90322W        W62637  14.198  41.400   1.355
90323W        W62638  31.019   5.387  10.944
90324W        W62639   2.963  37.000  11.988
90325W        W62640  24.094  10.843  11.403
90326W        W62641   0.913  43.812   4.824
90327W        W62642   8.763  30.623  11.975
90328W        W62643  32.976  34.968   3.350
90329W        W62644  31.045  15.304   2.205
90330W        W62645  41.475   3.366  14.864
90331W        W62646   8.219   2.902  12.463
90332W        W62647   6.747  19.196  11.032
90333W        W62648  29.153  37.026   1.923
90334W        W62649   1.451  40.983  12.864
90335W        W62650  26.457  35.098   2.397
90336W        W62651  32.457  43.794  11.903
90337W        W62652  33.458  38.966   3.333
90338W        W62653  29.476   7.781  14.291
90339W        W62654  25.537  30.995   4.131
90340W        W62655  10.812   0.320   4.606
90341W        W62656  30.512  15.133  10.892
90342W        W62657  12.660   2.786   3.656
90343W        W62658  44.445   5.226  12.372
90344W        W62659  40.519  35.530  12.551
90345W        W62660  10.223  11.191  10.550
90346W        W62661  17.212   9.658  12.549
90347W        W62662  22.635   1.895   4.234
90348W        W62663  20.061  28.524  11.483
90349W        W62664  12.234  39.950  11.425
90350W        W62665  43.987   3.376   9.980
90351W        W62666  12.839   0.288  13.865
90352W        W62667   9.186  24.185   0.803
90353W        W62668  40.814  39.907   3.665
90354W        W62669   3.789  32.056   3.159
90355W        W62670  25.483  18.286  14.946
90356W        W62671  31.011  27.058   1.821
90357W        W62672  24.706  43.511   1.339
90358W        W62673  27.010  38.459   3.266
90359W        W62674  13.715  23.554  13.948
90360W        W62675   0.777  16.751   0.898
90361W        W62676  22.083  42.985  13.462
90362W        W62677   2.391  13.838  12.344
90363W        W62678  12.186  18.683  11.526
90364W        W62679  11.250  44.887  13.869
90365W        W62680  26.136  12.763  13.542
90366W        W62681  16.810  36.924   0.311
90367W        W62682   8.260   2.746   1.845
90368W        W62683  19.773  15.770   2.782
90369W        W62684  20.534   8.406  14.326
90370W        W62685  27.529   0.873  10.966
90371W        W62686   4.826   3.943  14.023
90372W        W62687  44.876   7.408   1.777
90373W        W62688   7.303  21.223   3.747
90374W        W62689  29.534  39.912  14.006
90375W        W62690  33.051  35.106  11.443
90376W        W62691  20.670   9.323   5.726
90377W        W62692  20.598   9.777   5.237
90378W        W62693  44.971  31.536  12.839
90379W        W62694  31.931  44.902  12.446
90380W        W62695  34.973  44.370  11.101
90381W        W62696  24.140  34.415   4.131
90382W        W62697  35.854  43.984   2.826
90383W        W62698  16.197  28.607  12.479
90384W        W62699  40.465  10.241  12.859
90385W        W62700  11.714  23.666  12.407
90386W        W62701   7.381   5.414   3.248
90387W        W62702  18.127  33.588   4.139
90388W        W62703  20.238  27.085   2.369
90389W        W62704  32.491   9.327  13.506
90390W        W62705   4.699  11.753   2.716
90391W        W62706  10.831  23.051  12.571
90392W        W62707  39.416  13.650   0.328
90393W        W62708  33.058  37.478   3.202
90394W        W62709  25.030  35.039  14.765
90395W        W62710  31.087   3.256   0.276
90396W        W62711  10.284  13.196   2.208
90397W        W62712  26.541  16.282   2.808
90398W        W62713  28.107   7.262  14.993
90399W        W62714  14.212  38.959   4.170
90400W        W62715  39.053   6.225  12.546
90401W        W62716  17.794  37.069  13.048
90402W        W62717  38.393  19.552   1.345
90403W        W62718  20.762   3.770   0.788
90404W        W62719   4.285  14.336  12.456
90405W        W62720  29.145  14.795  14.771
90406W        W62721  31.948  40.523   1.238
90407W        W62722  21.525  29.078  12.495
90408W        W62723  26.547  39.383   1.366
90409W        W62724  44.903  23.723  13.426
90410W        W62725  18.181  20.557  14.006
90411W        W62726  15.239  34.554   1.812
90412W        W62727  22.234  14.194   0.301
90413W        W62728  31.020  23.729   1.223
90414W        W62729  35.890  15.224  14.346
90415W        W62730  30.963   0.890  13.804
90416W        W62731  27.102  24.649   4.186
90417W        W62732   4.226  30.136  13.044
90418W        W62733  41.801  31.151   1.360
90419W        W62734  31.621  10.752   3.162
90420W        W62735  31.059  24.633   0.876
90421W        W62736   3.255  29.559   1.855
90422W        W62737  16.106   2.751  14.953
90423W        W62738   7.712  33.932   1.887
90424W        W62739  25.604  18.104   0.756
90425W        W62740  25.660  19.053  11.419
90426W        W62741  23.994   3.827  14.998
90427W        W62742  42.284  36.863   2.802
90428W        W62743  18.656  18.060  10.541
90429W        W62744   0.808   7.239  12.353
90430W        W62745   7.736  21.233  13.527
90431W        W62746  43.895   7.713   0.371
90432W        W62747  33.932  10.762   0.331
90433W        W62748  35.548  10.270   1.778
90434W        W62749  29.949  28.116  14.913
90435W        W62750   8.400  11.172   4.164
90436W        W62751  39.361  35.579  11.969
90437W        W62752  33.579   0.430   2.369
90438W        W62753  35.048  35.370  12.879
90439W        W62754  38.974  25.559  12.528
90440W        W62755  40.343  10.832   3.291
90441W        W62756  33.543  22.524   4.680
90442W        W62757   6.726  14.660   1.244
90443W        W62758  34.955  43.403   2.199
90444W        W62759  44.950  31.989  12.366
90445W        W62760  27.991  34.111   5.095
90446W        W62761  26.181  17.166   3.648
90447W        W62762   0.849  43.862  13.943
90448W        W62763  39.514  22.635   1.295
90449W        W62764  39.432  18.248  11.550
90450W        W62765  34.546  21.683   2.794
90451W        W62766   4.418  29.610   2.838
90452W        W62767  18.294  39.496  10.938
90453W        W62768  26.477  22.565  11.994
90454W        W62769   4.842  21.631  10.558
90455W        W62770  17.199   2.950   4.345
90456W        W62771   4.905   5.348  14.311
90457W        W62772  10.737  22.541  12.050
90458W        W62773   6.770  25.523  13.427
90459W        W62774  24.523  24.011  14.342
90460W        W62775  31.412  28.524   0.264
90461W        W62776  39.850  19.619   4.685
90462W        W62777  38.910  10.236   3.259
90463W        W62778  22.177  30.491   2.274
90464W        W62779  36.361  12.300  11.118
90465W        W62780  34.903  24.054   3.236
90466W        W62781  38.339  44.962   4.213
90467W        W62782   2.239  42.388  12.029
90468W        W62783  39.931  41.504   4.146
90469W        W62784  43.465  41.856  11.865
90470W        W62785   7.691  24.718  10.532
90471W        W62786  39.869  40.322   3.279
90472W        W62787  16.239  44.293  10.559
90473W        W62788   9.181   5.416   2.857
90474W        W62789  24.550  10.250   0.756
90475W        W62790  38.342  41.485   2.418
90476W        W62791  12.655   3.408  13.424
90477W        W62792  18.285  15.691   0.294
90478W        W62793  35.998  37.492  14.903
90479W        W62794   8.861  10.189  12.482
90480W        W62795  34.522  23.574   4.738
90481W        W62796  32.021  37.495   2.817
90482W        W62797  37.468  43.020   1.758
90483W        W62798  21.178  12.847   0.420
90484W        W62799   9.883   7.905   3.316
90485W        W62800   5.341  24.116   0.447
90486W        W62801  43.393   5.887   3.663
90487W        W62802  33.623  43.829  10.142
90488W        W62803  33.124  20.036  13.821
90489W        W62804   6.893  40.885   3.772
90490W        W62805   1.266  38.845  11.444
90491W        W62806   7.191  40.501   0.857
90492W        W62807  15.582   2.303  11.013
90493W        W62808  31.053  21.689  14.807
90494W        W62809  29.933  17.579  11.458
90495W        W62810  23.598   3.858   0.330
90496W        W62811  30.642  12.630  10.561
90497W        W62812  41.984  11.202   3.660
90498W        W62813   3.954   3.313  14.844
90499W        W62814   3.914  33.110   4.243
90500W        W62815  33.595  25.196   3.182
90501W        W62816  19.738  12.645  11.015
90502W        W62817  43.487  19.240  13.316
90503W        W62818  20.753   9.725   2.413
90504W        W62819  23.683  29.583   0.812
90505W        W62820  21.159  12.183   3.180
90506W        W62821  44.779  22.198  10.407
90507W        W62822  26.034   4.748  12.980
90508W        W62823  10.363  33.985   1.353
90509W        W62824  34.962  38.991   4.837
90510W        W62825  32.574  44.460   4.132
90511W        W62826  22.165   2.771  11.556
90512W        W62827  42.460  43.971  14.958
90513W        W62828  19.142  27.947  13.802
90514W        W62829  25.122  42.819   3.796
90515W        W62830  44.414   4.843   5.106
90516W        W62831  25.610   2.458  10.917
90517W        W62832  36.917  14.110  14.826
90518W        W62833  29.970  13.156   4.237
90519W        W62834  33.429  13.676   1.361
90520W        W62835  26.609   7.834  10.560
90521W        W62836   0.344   4.368   3.738
90522W        W62837  38.875  36.375  13.471
90523W        W62838  23.542  33.961   4.264
90524W        W62839  17.607   5.419  12.547
90525W        W62840  34.998  12.854  13.007
90526W        W62841   9.792  12.136   1.310
90527W        W62842  21.260  29.113   4.734
90528W        W62843  32.475   9.731  11.119
90529W        W62844   5.363  20.617  12.507
90530W        W62845  37.446  15.713  14.799
90531W        W62846  11.259  37.551   5.227
90532W        W62847  23.566  14.168   1.875
90533W        W62848  30.498   0.903   4.673
90534W        W62849  25.970  33.524   1.371
90535W        W62850  29.646  26.030   3.189
90536W        W62851   5.346  44.917  11.443
90537W        W62852   5.284   0.270  12.500
90538W        W62853   9.828  29.949  10.959
90539W        W62854  31.087  24.069   1.791
90540W        W62855   6.283  20.135   3.367
90541W        W62856   3.809   2.412  14.974
90542W        W62857  26.641  15.225  11.013
90543W        W62858  28.174   3.419  13.394
90544W        W62859  15.201  18.101   1.391
90545W        W62860  40.852  32.998   1.872
90546W        W62861  31.548  29.562  14.456
90547W        W62862  37.525  21.043  13.460
90548W        W62863  20.100   8.347   2.713
90549W        W62864  14.170   5.256  10.512
90550W        W62865  34.379   7.278  11.102
90551W        W62866   3.785  35.965   5.215
90552W        W62867  39.855  13.268  14.801
90553W        W62868  29.496  33.523   1.220
90554W        W62869  23.206  40.987  12.092
90555W        W62870  24.542  27.455   0.446
90556W        W62871  44.383  17.088   0.962
90557W        W62872   3.952  23.696  11.407
90558W        W62873  18.581  22.596   9.921
90559W        W62874   2.434   4.874  13.917
90560W        W62875   7.298  30.027  13.803
90561W        W62876  19.570  29.990   1.370
90562W        W62877  19.728   6.414   2.723
90563W        W62878  38.452   7.875   3.320
90564W        W62879  40.016   0.751   1.827
90565W        W62880  12.149  44.819   4.316
90566W        W62881  42.819  39.437  11.085
90567W        W62882  41.436  19.066  12.065
90568W        W62883   2.367   4.800  11.540
90569W        W62884  20.611  14.138   4.121
90570W        W62885  41.864  40.028  11.493
90571W        W62886  35.094   1.938   2.229
90572W        W62887  23.505  14.326   2.315
90573W        W62888  33.917  44.817   3.349
90574W        W62889   7.346  19.254   1.713
90575W        W62890  10.656   5.400  14.003
90576W        W62891  39.868  36.999   0.340
90577W        W62892  12.339  33.468  14.948
90578W        W62893  15.107  12.242  13.370
90579W        W62894  15.754  43.845  11.376
90580W        W62895   4.226  32.513  12.019
90581W        W62896  29.486  31.549   4.127
90582W        W62897  14.748  44.316   2.816
90583W        W62898   5.412   6.238  13.872
90584W        W62899  38.916   2.385  11.561
90585W        W62900  43.403  31.048   0.778
90586W        W62901  39.995  10.313  14.937
90587W        W62902  12.276  20.029  13.853
90588W        W62903  29.669  30.070  11.507
90589W        W62904  29.450   0.846   2.287
90590W        W62905  14.316   6.737  11.888
90591W        W62906  23.151  29.042   1.234
90592W        W62907  17.729   5.350   2.768
90593W        W62908  12.190   5.894  12.964
90594W        W62909  39.831  17.170   3.841
90595W        W62910  32.910  12.329  11.041
90596W        W62911  36.369  17.633   0.400
90597W        W62912  35.881  20.570  11.907
90598W        W62913  11.140  19.111  14.449
90599W        W62914  37.561  44.422  12.513
90600W        W62915   6.312  28.106   3.712
90601W        W62916  23.156   1.901   2.702
90602W        W62917   7.187  40.515   3.776
90603W        W62918  17.063  18.201   3.349
90604W        W62919  37.952  30.459   5.113
90605W        W62920   8.734   4.929   0.879
90606W        W62921  36.064  11.242   0.747
90607W        W62922   0.286  36.842   0.264
90608W        W62923  36.454   3.941  14.000
90609W        W62924  23.192  36.578   1.364
90610W        W62925  20.637  38.334   0.299
90611W        W62926  26.973  17.207  12.514
90612W        W62927   7.855   2.464  12.879
90613W        W62928  24.520  36.991   1.213
90614W        W62929  22.509  36.990  10.981
90615W        W62930  11.753  28.097   2.297
90616W        W62931  32.902  38.979  11.047
90617W        W62932  44.467   1.290  14.792
90618W        W62933  22.711  22.156  11.020
90619W        W62934  28.030   2.276  12.937
90620W        W62935  36.077  29.657   0.756
90621W        W62936   7.289  36.546  14.854
90622W        W62937  11.200  26.047   0.300
90623W        W62938   8.858   6.398   3.319
90624W        W62939  25.696  25.497  10.573
90625W        W62940  41.356  40.003   0.347
90626W        W62941   9.199  27.646  11.399
90627W        W62942  13.677   3.418  13.418
90628W        W62943  22.231  33.019  14.305
90629W        W62944  36.586  15.626   0.414
90630W        W62945  42.504   2.264  11.566
90631W        W62946  17.623  32.097  13.501
90632W        W62947  32.432  42.945  11.542
90633W        W62948   2.889   2.960  14.850
90634W        W62949  37.024  19.108   3.842
90635W        W62950  29.939  14.165  12.941
90636W        W62951  25.067  23.062  11.398
90637W        W62952  31.493  24.537  12.983
90638W        W62953  38.895   9.717   1.412
90639W        W62954  44.264  44.407   3.760
90640W        W62955  13.328  28.045  10.963
90641W        W62956  41.345  10.657   2.380
90642W        W62957  32.908  24.532   0.840
90643W        W62958  34.593  29.169  14.405
90644W        W62959  13.750  17.763  11.885
90645W        W62960  42.343  30.141   1.367
90646W        W62961   1.303  11.302  11.592
90647W        W62962  12.251  21.075  14.451
90648W        W62963  28.521   8.668   2.304
90649W        W62964  41.976  40.028  10.597
90650W        W62965  29.512   8.811   2.855
90651W        W62966  21.199  28.129  12.468
90652W        W62967   2.328  32.116   2.194
90653W        W62968  29.620  32.997  11.417
90654W        W62969  19.763  35.506  11.589
90655W        W62970  20.045  41.995   1.436
90656W        W62971  23.036  34.409  14.809
90657W        W62972  22.101  15.084   3.188
90658W        W62973  27.668  32.045  14.788
90659W        W62974  25.650  24.190   2.192
90660W        W62975  33.389  31.942   0.463
90661W        W62976  20.058  19.737   4.265
90662W        W62977  40.540   9.369  11.462
90663W        W62978  29.066  36.046   3.270
90664W        W62979  41.018   7.895   3.750
90665W        W62980  37.946  24.999  11.566
90666W        W62981  33.893  20.537   2.352
90667W        W62982  34.562   9.778   3.697
90668W        W62983  30.016   1.913   1.892
90669W        W62984  12.745  29.080   1.838
90670W        W62985   9.335   5.884   4.709
90671W        W62986  36.999  42.014  13.816
90672W        W62987  14.629  15.230   1.709
90673W        W62988  42.806  12.299   1.399
90674W        W62989  17.153   7.398   2.398
90675W        W62990   0.439  39.838   4.276
90676W        W62991  33.550  15.224  11.491
90677W        W62992  41.407  23.606  13.477
90678W        W62993  31.482  12.300   4.164
90679W        W62994  11.266   4.865   0.819
90680W        W62995  22.540  44.969   1.384
90681W        W62996  35.569   1.478  14.898
90682W        W62997  39.411   3.833   2.811
90683W        W62998  10.258  21.694  11.448
90684W        W62999  43.808  27.045   4.670
90685W        W63000  36.994   1.866  14.325
90686W        W63001  23.113  21.117  14.502
90687W        W63002  15.167  12.794  11.895
90688W        W63003  31.529  37.548   1.695
90689W        W63004  38.882  41.931   4.822
90690W        W63005  10.771  17.104   0.255
90691W        W63006  35.444  40.505   3.224
90692W        W63007  28.502   8.704  13.063
90693W        W63008  32.998  29.541  13.347
90694W        W63009  41.489  24.037  13.056
90695W        W63010  29.637  10.870  12.352
90696W        W63011   6.770  39.974  14.479
90697W        W63012  13.247   9.788  12.840
90698W        W63013   1.858  44.758  12.873
90699W        W63014  31.093  19.040  13.544
90700W        W63015  23.090  13.137   4.798
90701W        W63016  41.482  16.133   2.183
90702W        W63017  17.215  30.143   4.699
90703W        W63018  33.958  39.317   1.820
90704W        W63019  41.886   2.461  14.844
90705W        W63020   2.269  44.343  10.112
90706W        W63021  32.053  41.354  13.954
90707W        W63022  43.298   2.309   0.870
90708W        W63023   9.367   7.241  13.851
90709W        W63024  16.272  41.301  12.545
90710W        W63025  29.450  44.322  10.026
90711W        W63026  10.710  10.147  13.354
90712W        W63027  11.136  24.076  14.765
90713W        W63028   5.717  21.567   2.709
90714W        W63029  43.878  21.581  10.576
90715W        W63030   3.767  18.220  12.429
90716W        W63031  12.695  34.046   2.794
90717W        W63032  44.779  20.238   3.729
90718W        W63033  43.301   1.331  10.946
90719W        W63034  23.053   0.403   1.824
90720W        W63035  23.224  16.661   3.300
90721W        W63036   4.843  40.357   0.421
90722W        W63037  19.251  30.914   4.153
90723W        W63038  13.647  28.462   2.674
90724W        W63039  28.630  15.650  13.455
90725W        W63040   3.926  26.549  13.978
90726W        W63041   4.416   0.403   1.250
90727W        W63042  33.121   3.320  11.577
90728W        W63043   8.259  10.834   1.775
90729W        W63044  24.084   5.913  14.829
90730W        W63045  42.320  37.987  14.812
90731W        W63046  11.326  19.221   4.243
90732W        W63047  35.364  41.436   4.748
90733W        W63048  33.921   4.796  14.823
90734W        W63049  15.301  36.921   4.157
90735W        W63050  10.705   5.261   3.182
90736W        W63051   9.715  20.226  12.416
90737W        W63052  39.420  40.538   0.748
90738W        W63053  18.170  35.603  12.018
90739W        W63054  43.860  43.350   0.950
90740W        W63055  29.110  13.812   0.915
90741W        W63056  36.546   0.365   3.234
90742W        W63057  33.998  23.089  12.536
90743W        W63058   1.413   6.194   1.721
90744W        W63059  25.537  28.455   4.616
90745W        W63060  34.386  19.623   1.880
90746W        W63061  27.114  22.744   3.317
90747W        W63062  41.790  34.498  13.908
90748W        W63063   6.844  32.497  12.415
90749W        W63064  44.348  35.934  10.449
90750W        W63065  23.507  16.292   3.724
90751W        W63066  13.643  35.403   3.284
90752W        W63067  18.188  25.124   2.690
90753W        W63068  30.017   6.794  11.492
90754W        W63069   3.916  38.034  12.374
90755W        W63070  20.663  11.281   0.938
90756W        W63071  14.191  35.873   3.207
90757W        W63072  13.603   6.386  11.419
90758W        W63073  29.932  23.991   3.352
90759W        W63074  23.170   5.201   1.286
90760W        W63075  39.912  30.597   2.179
90761W        W63076  11.745   8.857  11.479
90762W        W63077  14.323  23.227  14.495
90763W        W63078  18.668  18.757  12.053
90764W        W63079  39.826  28.653  11.502
90765W        W63080   3.372  29.035  11.000
90766W        W63081  40.331   2.249  13.464
90767W        W63082  34.978  13.237  11.379
90768W        W63083  22.534  40.048  13.848
90769W        W63084  26.498  16.269   0.363
90770W        W63085  35.985   5.712   3.827
90771W        W63086  19.587  28.620   1.431
90772W        W63087   8.706  18.171  12.927
90773W        W63088  32.455  39.016   1.764
90774W        W63089  32.021  12.666   4.760
90775W        W63090  44.784  28.971  14.287
90776W        W63091  25.566  39.520  12.081
90777W        W63092  25.189  26.537   1.720
90778W        W63093   3.223  35.022   2.885
90779W        W63094  44.400  29.478   2.800
90780W        W63095   6.219  16.575   0.409
90781W        W63096  31.054  18.197  10.084
90782W        W63097  21.044  18.280   1.241
90783W        W63098   2.724  38.040   2.256
90784W        W63099   6.921  29.633   0.252
90785W        W63100   8.887  34.115   4.803
90786W        W63101  42.856  38.058   0.424
90787W        W63102  43.786  19.631   4.328
90788W        W63103  42.007  31.995  10.467
90789W        W63104  25.203  32.545  11.483
90790W        W63105  35.097  26.120  13.982
90791W        W63106  31.055  13.800  12.941
90792W        W63107  29.007  13.156   2.756
90793W        W63108  14.337  38.539   0.837
90794W        W63109  38.354  34.566  12.832
90795W        W63110  10.326  38.350  13.495
90796W        W63111  12.639  14.683  14.907
90797W        W63112  24.659  31.456  12.089
90798W        W63113  10.335  38.539   1.224
90799W        W63114  14.743  17.771  14.412
90800W        W63115  31.551  42.949   5.186
90801W        W63116  21.196  43.948   2.206
90802W        W63117   0.869   2.938  12.061
90803W        W63118  34.913   2.273   4.126
90804W        W63119  17.587  26.592  13.942
90805W        W63120  32.523  13.156   3.241
90806W        W63121  42.991  24.110  12.854
90807W        W63122  10.676  11.366  11.526
90808W        W63123  24.136   8.316  12.835
90809W        W63124  44.263   2.825  10.479
90810W        W63125  42.837  34.903   0.860
90811W        W63126   5.889  26.099  10.575
90812W        W63127  37.003  35.405   0.244
90813W        W63128   2.408  26.610   4.738
90814W        W63129  34.022   5.932   4.161
90815W        W63130  42.467  23.082   2.665
90816W        W63131  36.920  16.622   3.271
90817W        W63132   1.796  17.691  12.922
90818W        W63133   9.171  35.902   1.371
90819W        W63134  25.605  36.462  12.827
90820W        W63135  14.790  23.985  13.790
90821W        W63136  33.500   7.390  11.880
90822W        W63137  34.056   0.787   3.656
90823W        W63138  29.988  41.406  11.583
90824W        W63139  20.229  27.111  13.030
90825W        W63140  34.598  34.544   3.338
90826W        W63141   3.310   2.797   0.727
90827W        W63142  43.371  20.565   0.376
90828W        W63143  20.207  31.401   1.754
90829W        W63144  17.182   3.259  12.924
90830W        W63145  43.785  27.146  10.909
90831W        W63146  15.681  43.365  13.908
90832W        W63147  18.221  25.091   4.798
90833W        W63148  27.606  29.645  11.119
90834W        W63149  37.519  25.518  11.126
90835W        W63150  26.115  23.990   4.760
90836W        W63151  41.828  27.034   0.882
90837W        W63152   5.362   3.385  14.417
90838W        W63153  13.764  29.569  11.896
90839W        W63154  17.091  33.571   0.461
90840W        W63155  13.833  10.337  13.401
90841W        W63156  19.219  41.296   1.415
90842W        W63157  25.074  30.046   4.666
90843W        W63158  17.775  30.462  10.428
90844W        W63159  31.031  16.130  10.898
90845W        W63160  32.110  33.014  12.072
90846W        W63161   0.746   2.312   4.166
90847W        W63162  11.846   0.307  12.440
90848W        W63163   8.777  38.374  14.781
90849W        W63164  36.580  14.269  11.377
90850W        W63165  12.242   0.391  13.525
90851W        W63166  10.748  12.130   1.889
90852W        W63167  23.587  41.918  13.537
90853W        W63168  26.590   8.696   2.253
90854W        W63169  22.059  21.669   2.829
90855W        W63170  32.121  39.814   2.783
90856W        W63171  30.148  21.058   0.733
90857W        W63172  29.528  21.143  10.962
90858W        W63173  21.125  38.469   4.719
90859W        W63174  33.451  17.669   0.451
90860W        W63175  39.522  13.831   4.811
90861W        W63176  34.582  18.231  13.331
90862W        W63177   7.763  40.442   3.314
90863W        W63178  27.104  38.407   3.774
90864W        W63179  30.031   2.943   2.263
90865W        W63180  21.148  37.386   3.387
90866W        W63181  40.549   3.438   4.679
90867W        W63182   0.278  33.504   4.284
90868W        W63183  21.558  20.692   1.292
90869W        W63184  29.572  37.356   1.927
90870W        W63185   2.359  13.718  10.472
90871W        W63186  28.960  19.727   1.389
90872W        W63187   2.342  35.497   4.194
90873W        W63188  26.185  29.026  13.494
90874W        W63189  43.373   3.378  12.995
90875W        W63190   9.211  44.420   0.380
90876W        W63191  15.216  17.626  13.862
90877W        W63192  36.002  11.337   4.731
90878W        W63193   3.373  27.088   3.212
90879W        W63194  17.653   2.795  14.382
90880W        W63195  25.561  23.012  12.918
90881W        W63196  24.197  30.587  13.543
90882W        W63197  25.001  17.730   1.861
90883W        W63198  17.739  10.215   0.804
90884W        W63199  44.815  19.569  11.027
90885W        W63200  25.132  22.702  12.499
90886W        W63201  35.058  44.796  10.979
90887W        W63202  27.672  13.600   4.218
90888W        W63203  13.835  41.318  14.806
90889W        W63204  36.406   2.797  13.019
90890W        W63205  11.832  11.707  13.372
90891W        W63206  11.372  36.368   4.814
90892W        W63207   7.264   5.196  14.952
90893W        W63208  11.351  17.279   4.632
90894W        W63209  24.697  21.642   5.201
90895W        W63210   9.883  12.638   3.670
90896W        W63211   8.897  30.547  11.039
90897W        W63212  12.793  27.678   4.148
90898W        W63213   1.349  32.532  12.916
90899W        W63214  17.292  25.509  13.485
90900W        W63215   2.892   9.807  14.891
90901W        W63216   9.782  33.890  12.506
90902W        W63217  15.729  15.328   4.600
90903W        W63218  24.633   3.851   0.930
90904W        W63219  35.982   0.804   1.707
90905W        W63220  42.789  34.464   3.645
90906W        W63221   4.707  37.055   0.305
90907W        W63222  18.756  27.621  14.389
90908W        W63223  25.584  41.930  10.928
90909W        W63224   5.928   0.746  14.383
90910W        W63225   7.315   7.261   0.811
90911W        W63226  25.549  32.581   3.761
90912W        W63227   5.438   1.420  11.031
90913W        W63228  13.275  41.506   3.178
90914W        W63229  33.388  13.212   3.822
90915W        W63230  35.868  19.648  12.483
90916W        W63231  27.508  17.238   4.747
90917W        W63232   1.415   1.482  13.966
90918W        W63233  40.047  17.259  14.905
90919W        W63234   0.768  34.574  10.546
90920W        W63235  33.908  27.990   4.168
90921W        W63236   3.299   9.822  10.541
90922W        W63237   7.174  18.546  14.872
90923W        W63238  25.551  39.830   3.790
90924W        W63239  22.205  41.356   3.677
90925W        W63240  32.503  19.244  12.459
90926W        W63241  31.021   3.730  11.027
90927W        W63242  22.221  22.501   1.214
90928W        W63243   0.295  34.548   2.706
90929W        W63244   7.360  13.256   4.322
90930W        W63245  36.871  17.801  12.889
90931W        W63246  19.132  36.864  11.607
90932W        W63247  37.987  36.361  12.049
90933W        W63248   9.665  35.393   2.852
90934W        W63249  16.732  44.768   2.762
90935W        W63250  20.699  36.058  13.029
90936W        W63251  27.055   6.370  10.024
90937W        W63252  24.593   9.367  10.938
90938W        W63253  21.061  39.025   0.941
90939W        W63254   1.866  37.499  10.900
90940W        W63255  32.440  40.338  12.033
90941W        W63256  30.626  36.992   1.724
90942W        W63257  40.052  24.206  13.393
90943W        W63258   3.310  20.148   0.780
90944W        W63259   9.177  28.621   3.165
90945W        W63260  43.431  43.515  13.884
90946W        W63261  33.088  39.913  12.904
90947W        W63262   2.854  19.543   5.259
90948W        W63263  21.121   2.432   1.346
90949W        W63264  21.642   9.693   4.295
90950W        W63265  40.810   6.404  13.447
90951W        W63266  39.323  19.155   1.403
90952W        W63267  11.708  17.272   2.821
90953W        W63268  11.233  10.777   3.216
90954W        W63269  24.675  41.921   0.319
90955W        W63270  13.812  20.663  11.047
90956W        W63271  36.591  16.315  10.461
90957W        W63272  15.240  15.822   3.239
90958W        W63273  26.094  33.451   5.189
90959W        W63274  39.062  35.412  11.875
90960W        W63275  41.369  30.075   1.757
90961W        W63276  19.090  39.486  14.971
90962W        W63277  29.009  27.447  14.871
90963W        W63278  13.225  34.096  14.439
90964W        W63279  10.870  26.521   1.224
90965W        W63280  14.656  43.443  11.083
90966W        W63281  14.730  37.914  11.427
90967W        W63282  22.144  31.937  10.027
90968W        W63283  12.363  30.021   1.741
90969W        W63284  21.233   7.363  14.830
90970W        W63285  22.599  13.156  14.477
90971W        W63286   7.786  43.466  13.367
90972W        W63287  11.685  31.469   1.785
90973W        W63288  36.365  38.841  14.928
90974W        W63289  30.655  13.263  14.453
90975W        W63290  32.561  15.240  10.464
90976W        W63291   0.350   4.334   3.266
90977W        W63292  38.443  16.210  10.635
90978W        W63293  29.599   7.791   3.309
90979W        W63294   4.776  35.976   4.615
90980W        W63295   0.772  34.968  10.120
90981W        W63296  43.486  40.305   1.403
90982W        W63297  43.339  17.761   2.286
90983W        W63298  29.501  19.696  12.495
90984W        W63299   4.769  11.138   3.304
90985W        W63300  30.043   5.747   3.730
90986W        W63301  31.992  10.309   3.791
90987W        W63302   4.841  40.461  11.048
90988W        W63303  25.698  28.531  12.485
90989W        W63304  32.138  16.593  10.975
90990W        W63305  35.563   6.185   2.334
90991W        W63306   9.826   1.287  13.388
90992W        W63307   0.885  35.027  11.968
90993W        W63308  17.565   3.290   0.384
90994W        W63309  38.016   3.460  13.464
90995W        W63310  32.973  38.915   2.896
90996W        W63311  20.735  20.583   3.778
90997W        W63312   0.922  28.991  14.923
90998W        W63313  41.312  44.446  13.811
90999W        W63314  25.117  19.676  13.821
91000W        W63315  10.252  16.202  14.849
91001W        W63316  39.447  44.423  13.463
91002W        W63317  31.418  32.586   1.320
91003W        W63318  36.983  12.811  14.466
91004W        W63319   8.693   0.470  11.465
91005W        W63320   5.850  34.111  13.015
91006W        W63321  43.818  35.872  14.861
91007W        W63322  19.567   7.240  10.935
91008W        W63323  25.093  27.522  11.066
91009W        W63324   6.254  43.860   1.845
91010W        W63325   0.929  17.732  11.013
91011W        W63326  19.708   0.859   2.721
91012W        W63327  27.112  33.884   2.339
91013W        W63328  41.408  40.013  14.941
91014W        W63329  29.537  16.117  10.511
91015W        W63330  33.989  37.572   1.271
91016W        W63331  36.963  41.509  10.499
91017W        W63332   8.398  29.545  13.330
91018W        W63333   8.782   5.894  11.984
91019W        W63334  28.097  21.612   3.340
91020W        W63335  36.890  43.964   3.662
91021W        W63336  13.192  28.035  14.429
91022W        W63337  17.196  15.807   4.273
91023W        W63338  28.450  27.067   2.235
91024W        W63339  26.953  10.235  11.120
91025W        W63340  17.745  25.710   3.166
91026W        W63341  10.749  42.358  11.480
91027W        W63342  34.880  44.772  13.796
91028W        W63343  34.976  21.025   0.397
91029W        W63344   5.350   9.804  11.528
91030W        W63345  21.635  18.146   0.866
91031W        W63346  11.329   1.443   3.817
91032W        W63347   1.405  14.767  13.937
91033W        W63348  27.457  44.402   0.956
91034W        W63349  25.691  13.241  13.038
91035W        W63350   6.862  31.033   0.344
91036W        W63351  17.611  21.666   4.286
91037W        W63352  24.095  25.486   4.598
91038W        W63353  32.474  25.479  10.981
91039W        W63354  22.616  41.498  13.813
91040W        W63355   0.917   5.293   2.776
91041W        W63356   1.323  16.232  13.871
91042W        W63357  11.341  30.069  14.925
91043W        W63358  11.355  27.988   0.787
91044W        W63359  35.468  39.024   3.286
91045W        W63360  43.404  41.335   4.736
91046W        W63361  12.683  25.134  14.868
91047W        W63362  20.077  42.970  13.814
91048W        W63363   9.167  17.286   3.636
91049W        W63364   7.816  14.105  12.868
91050W        W63365   4.225  25.544  14.017
91051W        W63366  26.458  25.036  10.100
91052W        W63367   9.202   8.209  13.797
91053W        W63368   4.719  24.669  13.993
91054W        W63369  35.427  11.720   3.665
91055W        W63370  12.653   9.726   4.179
91056W        W63371  26.625  25.519  12.876
91057W        W63372  37.421  23.526   5.098
91058W        W63373  25.625  41.033  13.949
91059W        W63374   3.333  40.456   5.215
91060W        W63375   7.750  14.125  10.460
91061W        W63376  11.717  12.280   2.223
91062W        W63377   7.265  13.617   1.707
91063W        W63378  24.085  38.970  12.472
91064W        W63379  37.937  11.365  10.404
91065W        W63380  21.636  20.566   3.359
91066W        W63381  39.442  43.833  10.600
91067W        W63382  38.530   6.743  10.635
91068W        W63383  13.326  28.510  14.863
91069W        W63384  27.990  26.575  10.990
91070W        W63385  20.548  31.055  14.855
91071W        W63386  24.561  31.970   2.409
91072W        W63387  10.328  35.387  12.049
91073W        W63388  36.945  23.498  10.599
91074W        W63389  21.224  32.974   0.475
91075W        W63390  13.695  32.445  11.942
91076W        W63391  23.199  33.560   2.227
91077W        W63392  25.116  35.417  11.533
91078W        W63393  15.784  34.556  13.865
91079W        W63394  30.130  39.540  14.361
91080W        W63395   7.908   8.299   2.193
91081W        W63396  26.645  39.489  11.901
91082W        W63397  16.304  30.484  10.562
91083W        W63398  41.364  34.516   2.361
91084W        W63399   2.933  39.486   2.295
91085W        W63400   9.393   8.269  12.067
91086W        W63401   9.190  11.722   2.208
91087W        W63402  16.726  30.593   0.268
91088W        W63403  32.988  20.204  13.053
91089W        W63404  40.047  19.223  14.324
91090W        W63405  21.052  35.498   4.675
91091W        W63406  10.723  44.917  13.329
91092W        W63407   4.855   5.196   1.226
91093W        W63408  16.075  27.118  14.998
91094W        W63409  44.278  25.158  11.455
91095W        W63410  18.672  24.154   3.706
91096W        W63411  37.529  24.708   0.946
91097W        W63412   5.260  43.985   3.822
91098W        W63413  44.392  14.258   1.701
91099W        W63414   1.760   6.859   1.315
91100W        W63415  31.033  32.044  13.367
91101W        W63416  41.329  36.546  13.437
91102W        W63417  21.544  15.120   1.837
91103W        W63418  16.111  18.687  14.779
91104W        W63419  43.841  30.912  10.961
91105W        W63420   7.358  42.459  11.531
91106W        W63421   9.820  26.116   2.343
91107W        W63422   2.415  30.126  11.477
91108W        W63423   2.232  31.029   1.417
91109W        W63424   3.317  41.855   3.322
91110W        W63425  11.204   1.968   0.822
91111W        W63426   0.754  32.419   2.320
91112W        W63427   4.247  25.597   3.289
91113W        W63428  20.158  12.220  11.859
91114W        W63429  38.872  13.193  12.903
91115W        W63430  28.568  22.072  14.353
91116W        W63431   1.329  34.565   2.838
91117W        W63432   2.739   0.485   0.910
91118W        W63433   1.830  29.079   2.753
91119W        W63434  31.977  29.454  11.591
91120W        W63435  29.933  36.581  10.564
91121W        W63436  13.219  30.058  13.974
91122W        W63437  27.974  37.448  12.465
91123W        W63438  26.009  26.534   2.342
91124W        W63439   6.725  15.782   3.242
91125W        W63440  12.616  16.783   1.301
91126W        W63441  11.316  26.615   0.939
91127W        W63442  17.191  23.650   1.327
91128W        W63443   5.411  25.585  14.011
91129W        W63444  44.943  10.168  14.486
91130W        W63445   4.224  38.034  12.489
91131W        W63446   0.814  18.545  13.511
91132W        W63447  30.486  21.061   5.146
91133W        W63448   5.262   0.475   4.696
91134W        W63449  18.618  11.290   0.300
91135W        W63450  15.161   3.251   3.838
91136W        W63451  39.451  18.229  12.867
91137W        W63452  12.755  23.025   1.810
91138W        W63453  28.991  31.410   2.872
91139W        W63454   0.814  29.460  11.501
91140W        W63455   8.364  37.558   0.392
91141W        W63456  16.656  18.206  13.400
91142W        W63457  30.928  30.083  10.432
91143W        W63458  36.426   5.780   3.179
91144W        W63459  27.463  35.984   3.323
91145W        W63460  32.029  42.500  14.429
91146W        W63461   0.835  15.212  14.343
91147W        W63462   8.760  35.016   2.276
91148W        W63463  36.877  40.981  14.024
91149W        W63464   1.736  30.611   1.212
91150W        W63465   4.425   8.882   3.210
91151W        W63466   9.378  33.388  14.029
91152W        W63467  11.144   5.367   4.804
91153W        W63468  18.289   1.814   1.241
91154W        W63469  39.947  40.441   2.754
91155W        W63470  40.049  40.812  11.393
91156W        W63471  38.009  26.023  14.508
91157W        W63472  24.191   3.458   4.125
91158W        W63473  36.427  11.725  10.940
91159W        W63474  36.450  42.794   3.333
91160W        W63475  14.705   6.796   4.250
91161W        W63476   4.758  22.214  14.898
91162W        W63477  21.077   6.197  14.882
91163W        W63478  10.241  25.128  11.090
91164W        W63479  23.502  36.973   1.694
91165W        W63480  26.193   4.793  10.422
91166W        W63481  42.453  27.143  12.452
91167W        W63482   8.735   0.346  14.799
91168W        W63483  36.474   9.873  14.006
91169W        W63484  13.809  44.997  10.498
91170W        W63485   0.340  17.208   4.818
91171W        W63486  15.800  29.562  10.125
91172W        W63487  43.342  30.922  14.488
91173W        W63488  12.817  12.223   3.734
91174W        W63489  34.081  23.171   3.744
91175W        W63490  38.943  44.466   0.753
91176W        W63491   7.837   4.848   1.270
91177W        W63492   5.934  26.656   0.428
91178W        W63493  42.312  11.248   0.331
91179W        W63494  12.166   2.253   0.462
91180W        W63495   0.249  38.341  14.461
91181W        W63496   2.323  34.475  14.405
91182W        W63497  33.420  14.778  10.459
91183W        W63498  44.948  11.634  12.432
91184W        W63499  41.435  13.624   3.237
91185W        W63500  24.032  33.380   1.350
91186W        W63501  36.398  37.350  12.997
91187W        W63502  37.060  21.556   2.255
91188W        W63503  29.987  11.273  10.954
91189W        W63504   7.181  20.153  12.502
91190W        W63505   6.861  39.531   3.698
91191W        W63506   5.797   7.800   3.155
91192W        W63507  11.657  42.963   3.210
91193W        W63508  26.015  44.772  14.847
91194W        W63509  11.643  38.376   1.794
91195W        W63510  28.021  30.419   1.747
91196W        W63511  40.945  41.974  11.018
91197W        W63512   2.273  36.953  11.103
91198W        W63513  14.218   1.323  13.388
91199W        W63514  36.869  11.184  12.529
91200W        W63515  44.845   1.419  13.006
91201W        W63516  30.605  12.129  13.516
91202W        W63517  20.678  26.585  10.899
91203W        W63518   5.805   3.821  11.857
91204W        W63519  40.509  27.091  12.952
91205W        W63520  40.445   9.334   0.785
91206W        W63521  26.118  10.277   2.208
91207W        W63522   2.826  13.219   3.832
91208W        W63523   5.338   7.757   1.308
91209W        W63524  36.563  22.674   3.734
91210W        W63525  36.357  10.852   4.684
91211W        W63526   5.890  20.063   3.256
91212W        W63527   1.967  33.110  12.550
91213W        W63528  31.007   4.399  12.426
91214W        W63529  42.383   9.783   3.373
91215W        W63530  42.408  29.027  11.597
91216W        W63531  23.560  36.347   3.146
91217W        W63532   0.747  32.008   2.835
91218W        W63533  35.021  33.616  14.502
91219W        W63534  16.692  35.015  12.998
91220W        W63535  34.482   6.206   4.784
91221W        W63536  37.964   2.268  13.406
91222W        W63537  21.157  38.408   5.180
91223W        W63538   2.407  19.121  12.096
91224W        W63539   6.719  19.747  11.022
91225W        W63540  18.090   1.392   3.365
91226W        W63541  43.971  41.362  10.511
91227W        W63542  13.201  19.657  12.869
91228W        W63543  34.387   0.420   2.190
91229W        W63544  16.212  20.180  13.457
91230W        W63545   9.221  16.772   9.993
91231W        W63546  28.089   6.215  10.451
91232W        W63547  44.953  24.494   1.789
91233W        W63548  15.778  21.104   1.331
91234W        W63549  17.142  35.087   3.327
91235W        W63550  44.801  30.499   2.686
91236W        W63551  41.409  44.455   3.183
91237W        W63552  12.673  36.368  12.078
91238W        W63553  36.055  13.626  11.112
91239W        W63554  39.907  20.577  12.500
91240W        W63555   9.151  29.538   1.411
91241W        W63556  18.251  29.963   5.750
91242W        W63557   3.882  38.984   2.724
91243W        W63558   8.771  14.163   4.328
91244W        W63559  37.343  32.473   0.865
91245W        W63560   1.925  27.000  12.499
91246W        W63561  37.375  30.098  12.035
91247W        W63562  24.198  33.948  10.991
91248W        W63563  25.623  31.051  14.346
91249W        W63564   8.322  16.160   3.852
91250W        W63565  11.204  18.735   5.225
91251W        W63566  41.986  35.409  11.001
91252W        W63567  40.990  26.650  12.471
91253W        W63568  43.332  43.431   1.843
91254W        W63569  29.093  14.249  10.609
91255W        W63570  12.642  43.810  13.895
91256W        W63571  34.928  19.089  11.511
91257W        W63572   2.437  44.849   1.448
91258W        W63573   8.350   2.428   3.650
91259W        W63574   7.773  17.712  11.530
91260W        W63575  16.110   6.839   1.759
91261W        W63576  26.511  24.994   1.910
91262W        W63577  19.253   0.358   4.163
91263W        W63578  26.122  14.771   1.695
91264W        W63579  15.324  42.398  11.023
91265W        W63580   6.287  17.765   3.301
91266W        W63581  43.873   5.358   1.758
91267W        W63582  19.223   3.832  14.866
91268W        W63583  17.145  32.112  14.476
91269W        W63584  27.182  31.965  12.050
91270W        W63585  15.275   4.450  10.898
91271W        W63586  25.475   9.837   4.355
91272W        W63587  24.674  44.468   3.387
91273W        W63588   7.285  44.363  10.465
91274W        W63589  38.477  44.754   0.791
91275W        W63590  11.640  25.126   0.399
91276W        W63591  39.379  20.749  12.888
91277W        W63592   8.308  15.091   4.201
91278W        W63593  43.427   5.357   2.368
91279W        W63594  36.352  42.014   3.319
91280W        W63595  16.315   5.860   4.180
91281W        W63596   6.425  16.605  10.581
91282W        W63597  23.722  20.548   1.838
91283W        W63598  24.536   0.834  13.372
91284W        W63599  44.286  38.974   0.894
91285W        W63600  31.135   4.228  10.917
91286W        W63601  24.611   4.236   3.245
91287W        W63602  25.693   6.772   1.902
91288W        W63603  32.425  42.439   2.195
91289W        W63604  36.849  43.854   4.345
91290W        W63605   2.395  38.828  13.877
91291W        W63606  22.202  20.109   3.236
91292W        W63607  17.266  41.453   5.300
91293W        W63608   0.900  22.595   4.271
91294W        W63609  16.654   3.784  11.952
91295W        W63610  34.005  41.879   4.159
91296W        W63611  39.394  38.449  13.045
91297W        W63612  16.150  19.164   1.394
91298W        W63613   8.160  26.514   1.281
91299W        W63614  25.967  25.665  11.426
91300W        W63615  28.181  32.138   4.678
91301W        W63616  22.566  41.457   1.776
91302W        W63617  24.594  16.601   0.419
91303W        W63618   0.327  42.009   0.967
91304W        W63619  10.194  44.338   2.200
91305W        W63620  10.795  26.476  12.952
91306W        W63621  23.699  28.529   1.421
91307W        W63622  31.113  42.012  10.483
91308W        W63623  24.693  40.480   1.718
91309W        W63624   7.181  32.043   4.790
91310W        W63625   6.300  37.082   3.356
91311W        W63626  34.107  29.166   4.690
91312W        W63627   6.327   1.932   5.205
91313W        W63628  32.897  17.282   0.392
91314W        W63629  43.922  38.920   0.826
91315W        W63630  38.473  40.393  13.972
91316W        W63631  22.195  28.172  12.422
91317W        W63632  16.235  10.341   0.896
91318W        W63633  24.161  20.557  11.896
91319W        W63634  40.031   7.400   4.712
91320W        W63635  27.525  19.572   4.641
91321W        W63636  34.904  24.135   3.635
91322W        W63637  43.784  28.086  12.095
91323W        W63638  14.601  36.865  11.920
91324W        W63639  43.009   9.812   4.171
91325W        W63640  33.414   3.865   3.184
91326W        W63641  14.251  17.560   4.196
91327W        W63642   4.441   9.852   2.704
91328W        W63643  30.639  17.672  14.305
91329W        W63644  26.526  25.630   0.877
91330W        W63645  39.033   6.841   3.359
91331W        W63646  26.674  35.062  14.950
91332W        W63647  10.867  19.636  12.526
91333W        W63648   1.332  18.616  10.405
91334W        W63649  12.218   7.391   0.801
91335W        W63650  44.327  41.346  13.397
91336W        W63651  26.595  12.782   3.772
91337W        W63652  29.547   2.743   0.413
91338W        W63653  37.835  17.119   4.638
91339W        W63654  37.841  39.890   0.447
91340W        W63655  31.063  10.656  14.441
91341W        W63656  30.596   2.818   0.244
91342W        W63657  35.543  34.426   1.253
91343W        W63658  17.782  28.955  12.521
91344W        W63659  13.600  31.069  14.007
91345W        W63660  25.568  31.904  14.964
91346W        W63661  38.002  19.737  10.518
91347W        W63662   0.837   8.816   5.119
91348W        W63663  10.804  16.121   1.397
91349W        W63664  29.457  27.151   1.784
91350W        W63665   6.362  44.285   2.783
91351W        W63666   5.767  15.807  13.409
91352W        W63667  38.369   7.360  14.414
91353W        W63668  17.281  40.883  13.860
91354W        W63669  37.959  33.944   4.632
91355W        W63670  28.185  44.352  11.384
91356W        W63671  19.610   3.937   1.929
91357W        W63672   4.410  29.091  11.923
91358W        W63673  34.912  22.138   2.791
91359W        W63674   9.758  21.673  14.800
91360W        W63675  38.907  34.902  12.552
91361W        W63676  38.362   7.863  12.413
91362W        W63677   5.779  26.127   1.793
91363W        W63678  11.750  21.098   4.754
91364W        W63679  19.537  18.178   0.896
91365W        W63680  32.036  25.598  14.861
91366W        W63681   4.274  11.810  14.939
91367W        W63682  18.107   5.419  12.526
91368W        W63683  35.081   8.883   3.848
91369W        W63684  24.528  29.078  12.500
91370W        W63685  26.974  17.801  10.541
91371W        W63686  42.778  20.272   0.350
91372W        W63687  27.126  18.097   4.835
91373W        W63688  22.139  40.344  13.422
91374W        W63689   2.345  20.035   2.277
91375W        W63690  43.833   5.322  12.566
91376W        W63691  22.175   6.784  11.414
91377W        W63692  19.242  31.114  11.461
91378W        W63693  28.067  35.987   2.314
91379W        W63694   9.220  14.775   3.749
91380W        W63695   2.460  31.611  12.533
91381W        W63696  20.536   0.883   0.279
91382W        W63697  37.030  44.870   3.849
91383W        W63698  39.483   9.840   2.825
91384W        W63699  31.138  35.937   2.226
91385W        W63700  32.923  37.852  13.824
91386W        W63701  36.072  43.395   4.125
91387W        W63702  36.071  35.857   4.606
91388W        W63703  21.026   9.239  14.444
91389W        W63704  39.965  16.168   4.692
91390W        W63705  41.924  22.621  12.025
91391W        W63706  29.632  30.640   4.748
91392W        W63707   3.720  17.791   3.827
91393W        W63708  32.447  36.895  13.915
91394W        W63709  27.980   6.856  14.496
91395W        W63710  37.870  16.215  12.396
91396W        W63711  32.480   6.746   0.266
91397W        W63712  43.788  17.622  14.979
91398W        W63713   8.214  17.578  13.330
91399W        W63714  20.180  25.525  10.519
91400W        W63715   3.387  23.063  14.028
91401W        W63716  32.111  29.013  12.997
91402W        W63717  17.079  34.904   4.758
91403W        W63718  44.397  20.718   2.370
91404W        W63719  11.788  20.042  14.435
91405W        W63720  16.212  24.489   0.868
91406W        W63721   8.778   5.359  10.495
91407W        W63722  28.559  34.602   0.390
91408W        W63723  43.339   3.755   4.770
91409W        W63724  10.690  26.030   4.272
91410W        W63725  25.498  10.651  10.445
91411W        W63726  10.337  29.047  14.950
91412W        W63727   0.442  27.150  14.440
91413W        W63728  13.657  25.639  11.574
91414W        W63729  39.902  24.610  14.432
91415W        W63730  18.588  21.738   0.766
91416W        W63731  39.027  29.506   1.894
91417W        W63732   0.350  16.183   2.747
91418W        W63733  42.343   5.435  14.452
91419W        W63734   2.909  11.267   0.464
91420W        W63735  11.843   4.934  12.864
91421W        W63736   0.881  28.614  13.837
91422W        W63737  28.671  26.642  14.483
91423W        W63738  44.303  40.467   1.354
91424W        W63739  36.409  27.099  11.966
91425W        W63740   8.734  19.737   2.739
91426W        W63741  31.999  34.075   3.660
91427W        W63742  43.291  28.670  11.967
91428W        W63743  36.934  25.130   3.753
91429W        W63744  12.126  43.008   4.349
91430W        W63745  27.035   8.693  11.376
91431W        W63746  22.707  24.142   1.370
91432W        W63747  35.458  22.042   2.791
91433W        W63748  43.820   4.827  14.781
91434W        W63749  38.428  12.692  11.502
91435W        W63750  33.606  16.277  10.558
91436W        W63751  41.813   5.706  14.416
91437W        W63752  40.030  26.034   9.573
91438W        W63753  27.516  41.799  12.546
91439W        W63754  13.144   0.338   2.691
91440W        W63755   3.304  41.974  11.544
91441W        W63756  24.010  19.584  10.080
91442W        W63757   4.213  43.858   3.662
91443W        W63758  34.080   7.290  11.463
91444W        W63759  25.527  26.688   5.097
91445W        W63760  43.946   3.325   3.706
91446W        W63761  18.570  12.795  14.773
91447W        W63762   0.797   4.250   0.884
91448W        W63763  21.692  17.191  13.815
91449W        W63764  39.491  41.400   1.426
91450W        W63765   8.403  30.462  10.979
91451W        W63766  27.055  17.248   1.880
91452W        W63767  22.574  38.536   3.257
91453W        W63768   2.360   1.299   1.333
91454W        W63769   4.440  19.184   3.810
91455W        W63770  28.444  29.020  12.948
91456W        W63771  43.951  34.001   1.440
91457W        W63772   4.263  19.552  13.055
91458W        W63773   7.850  22.519  12.505
91459W        W63774  34.590  15.280   2.878
91460W        W63775  36.470  28.044  11.915
91461W        W63776  19.119  25.026  13.394
91462W        W63777  44.838   9.869  13.328
91463W        W63778  38.487  13.723  14.341
91464W        W63779  32.564  38.544   4.703
91465W        W63780  35.912  15.757   4.770
91466W        W63781   9.718  21.657  10.500
91467W        W63782  28.496  39.489   1.369
91468W        W63783  27.517  28.963  14.986
91469W        W63784  32.000   7.399  12.002
91470W        W63785  28.605  10.701   1.271
91471W        W63786  10.294  36.908   3.647
91472W        W63787   9.833   4.340  14.295
91473W        W63788  40.485  20.697   2.225
91474W        W63789   6.717  13.146   2.384
91475W        W63790  37.440  26.468   0.932
91476W        W63791  29.016  22.631   3.145
91477W        W63792  12.804  40.508   3.283
91478W        W63793  12.704   8.320  11.609
91479W        W63794  20.622   4.254   0.421
91480W        W63795  20.093  34.493  13.031
91481W        W63796   3.224   9.301   0.822
91482W        W63797  16.218   6.291   4.141
91483W        W63798  14.095  35.872   4.349
91484W        W63799   8.366  14.246   2.841
91485W        W63800  32.925  20.084   1.856
91486W        W63801  17.144  15.721   5.201
91487W        W63802  37.857  33.506   1.306
91488W        W63803  40.331  23.701   3.812
91489W        W63804  39.861  31.140   0.354
91490W        W63805   3.880  44.450  12.855
91491W        W63806  14.689  25.092   4.780
91492W        W63807  10.152  41.363  14.856
91493W        W63808  26.039  37.834   3.275
91494W        W63809  29.062  36.379  13.344
91495W        W63810  29.006  11.345  11.920
91496W        W63811  44.929  20.116   0.386
91497W        W63812  38.378  15.628   2.387
91498W        W63813  17.789  22.656   1.361
91499W        W63814  41.430  39.474   2.888
91500W        W63815   8.824  30.503   1.395
91501W        W63816   1.353  36.983  11.122
91502W        W63817   3.926   8.295  14.314
91503W        W63818  41.494  26.153  14.792
91504W        W63819  33.099  43.501  11.070
91505W        W63820  22.183  16.082   1.697
91506W        W63821  24.643  25.547   3.664
91507W        W63822  28.088  17.177  12.569
91508W        W63823  32.974  10.635  10.923
91509W        W63824   6.364  35.885  12.086
91510W        W63825  21.056  24.212  14.787
91511W        W63826  11.759  42.789   3.680
91512W        W63827  22.607  16.158   4.710
91513W        W63828  39.477  21.605  14.981
91514W        W63829   6.199   7.369   4.766
91515W        W63830   3.902  17.300   2.828
91516W        W63831  19.088  18.608   0.242
91517W        W63832   4.856  44.429  12.463
91518W        W63833  20.247  19.200   1.366
91519W        W63834  26.515  36.096   0.289
91520W        W63835  40.054   8.753  13.894
91521W        W63836  13.692  33.579   2.669
91522W        W63837  26.642  22.686   0.939
91523W        W63838  33.903  12.771  10.485
91524W        W63839  10.236   7.903  11.123
91525W        W63840  39.494  41.893  11.611
91526W        W63841  37.402   1.323   3.791
91527W        W63842  17.778  27.149   0.910
91528W        W63843  28.171  15.163  11.029
91529W        W63844  21.569  30.635   5.146
91530W        W63845  31.437   7.777  14.845
91531W        W63846  40.842  15.195   0.312
91532W        W63847  44.474  30.563  11.900
91533W        W63848  30.153  28.030   2.691
91534W        W63849   5.706  17.788   3.781
91535W        W63850  42.487  40.842  14.342
91536W        W63851  30.943  39.055  10.927
91537W        W63852  41.387  33.444  12.498
91538W        W63853  10.320  10.711   3.156
91539W        W63854  41.931   9.693   0.289
91540W        W63855  29.426  10.270   3.714
91541W        W63856  13.758  28.574   0.462
91542W        W63857  22.564  27.555   1.831
91543W        W63858  14.606  27.078   2.691
91544W        W63859  33.925  11.703   2.256
91545W        W63860  18.247   6.341   1.341
91546W        W63861   7.186   7.847   1.733
91547W        W63862  32.904   4.399   3.355
91548W        W63863  36.941  22.121  13.394
91549W        W63864  36.508  34.995   5.297
91550W        W63865  21.118  21.621   0.285
91551W        W63866  14.291   7.869  10.431
91552W        W63867   4.297  25.182   1.370
91553W        W63868  29.001   1.865   3.802
91554W        W63869  33.464  44.288  11.038
91555W        W63870  12.708  30.456   3.807
91556W        W63871  12.334  43.939  13.006
91557W        W63872  18.283  12.700  14.488
91558W        W63873  44.850   7.736   2.259
91559W        W63874  41.468   3.740   1.339
91560W        W63875  42.458  38.903   0.391
91561W        W63876  12.195  20.254  12.966
91562W        W63877   1.965   6.762  11.975
91563W        W63878  37.022  10.650  10.590
91564W        W63879  41.990  41.958   4.693
91565W        W63880  32.069  34.061   0.912
91566W        W63881   4.903  33.050   4.669
91567W        W63882  19.541  23.159  10.482
91568W        W63883   2.956  31.956   3.233
91569W        W63884   5.912  17.153   1.755
91570W        W63885  23.058  39.060   3.635
91571W        W63886  10.282  35.085   4.234
91572W        W63887  29.965  20.606   4.748
91573W        W63888  27.054  16.611  14.788
91574W        W63889  31.481   0.763  11.523
91575W        W63890   8.829   7.672   0.958
91576W        W63891  30.943  13.315   1.419
91577W        W63892  11.678  41.850   2.835
91578W        W63893  12.827  27.113   2.339
91579W        W63894  37.865  24.515   4.346
91580W        W63895  33.444  26.953  12.044
91581W        W63896   1.747  21.205   2.286
91582W        W63897  43.824  32.994  14.477
91583W        W63898  39.532   4.237   2.805
91584W        W63899  23.612  25.127   2.784
91585W        W63900  40.426  36.512  13.860
91586W        W63901  37.348   1.348   1.298
91587W        W63902  35.415  32.425   1.297
91588W        W63903  27.014  12.688  13.323
91589W        W63904   6.334  16.735  12.496
91590W        W63905  15.648  42.431  12.432
91591W        W63906   9.720  16.648   2.316
91592W        W63907  38.529  12.220  10.599
91593W        W63908  15.667  14.314   4.346
91594W        W63909  30.913  21.228   3.744
91595W        W63910  17.185  33.973  13.027
91596W        W63911   5.811  41.399   0.766
91597W        W63912  18.790   8.777   3.315
91598W        W63913  31.484  14.641   0.410
91599W        W63914  26.475   1.244   1.245
91600W        W63915  39.388  41.448  13.006
91601W        W63916  13.348  41.033  14.886
91602W        W63917  24.019  16.670   0.300
91603W        W63918   9.777  22.531   3.631
91604W        W63919   9.153  19.212   1.233
91605W        W63920  32.032  26.111  13.457
91606W        W63921   3.903  44.275   4.311
91607W        W63922  37.848   0.487   2.363
91608W        W63923   3.805  16.312   0.382
91609W        W63924  22.120  22.235   2.805
91610W        W63925  18.251  38.419  11.486
91611W        W63926   0.336  10.651   2.882
91612W        W63927  13.720  43.805   3.333
91613W        W63928  35.594  14.253  10.986
91614W        W63929   6.788  23.561  14.894
91615W        W63930  13.330   5.729   3.738
91616W        W63931  29.131   7.888   2.181
91617W        W63932   5.230  22.560  10.987
91618W        W63933  35.880   6.862  13.895
91619W        W63934  38.509  25.133  11.111
91620W        W63935   9.677  13.689   3.846
91621W        W63936  23.179  19.735   0.331
91622W        W63937  16.287  16.735   4.284
91623W        W63938  41.451  35.017   3.319
91624W        W63939   5.787  18.252   0.763
91625W        W63940  17.200  27.987  11.901
91626W        W63941   0.414  27.490  13.336
91627W        W63942  41.956  11.799   0.738
91628W        W63943  17.745  39.860   4.697
91629W        W63944  18.073  25.644   3.781
91630W        W63945   5.871  39.372   4.174
91631W        W63946  26.626  25.528   1.722
91632W        W63947  39.002  12.679   3.375
91633W        W63948  30.547  25.150  10.502
91634W        W63949  37.050   4.301   0.290
91635W        W63950   5.864  13.796   4.676
91636W        W63951   0.811  22.622   3.178
91637W        W63952  13.672  29.149   4.686
91638W        W63953  24.208  25.146   5.176
91639W        W63954  15.645  36.500  13.346
91640W        W63955  15.309  27.157   4.759
91641W        W63956  39.899  43.804   1.220
91642W        W63957  38.962  41.322   2.728
91643W        W63958  32.419  34.060  11.404
91644W        W63959  29.038  26.136   1.734
91645W        W63960  39.004  16.133  12.562
91646W        W63961  32.132  20.620  11.517
91647W        W63962  38.022  10.213  11.119
91648W        W63963  18.156   7.305   2.263
91649W        W63964  26.555  10.662  12.025
91650W        W63965  14.314  39.054  13.414
91651W        W63966  31.983  16.110   0.832
91652W        W63967  40.880  13.665  12.849
91653W        W63968  39.987  12.276  10.918
91654W        W63969   3.752  34.957   3.363
91655W        W63970  13.674  16.572   0.967
91656W        W63971  16.269  10.685  11.023
91657W        W63972  33.041   5.870   1.435
91658W        W63973   3.866   0.406  14.327
91659W        W63974  19.225   2.932  12.870
91660W        W63975   2.875  35.499   2.884
91661W        W63976   4.849  34.040  11.573
91662W        W63977  29.629  40.947   3.639
91663W        W63978   5.836  24.996  11.442
91664W        W63979  25.589  31.145   3.337
91665W        W63980  34.967  39.350  14.852
91666W        W63981  39.357  30.105   0.749
91667W        W63982  16.606  43.348   3.319
91668W        W63983  20.635   4.787   4.333
91669W        W63984   6.302  43.949   3.237
91670W        W63985   3.436   0.357  13.044
91671W        W63986  20.164  16.206  14.306
91672W        W63987  40.316  22.156   1.713
91673W        W63988  24.685  23.678  14.307
91674W        W63989  15.645   8.361   3.814
91675W        W63990  12.206  14.602   2.704
91676W        W63991  25.071  25.468  11.595
91677W        W63992   3.806  13.607   4.343
91678W        W63993  18.608  31.537  10.588
91679W        W63994   1.848   3.854  13.854
91680W        W63995  17.265   2.833   2.878
91681W        W63996  10.143  22.216  11.386
91682W        W63997  11.680  11.266   0.305
91683W        W63998  31.519  36.391  14.924
91684W        W63999  12.660  11.158  14.805
91685W        W64000  16.776  21.019  11.579
91686W        W64001  12.318  10.862  10.603
91687W        W64002  36.398   1.416   4.330
91688W        W64003   1.773  26.494  13.977
91689W        W64004   0.349   3.436   0.406
91690W        W64005   9.648  38.000   4.701
91691W        W64006  39.384  25.994   2.853
91692W        W64007  28.966   2.867   2.883
91693W        W64008   6.920  27.509  11.029
91694W        W64009   6.304  28.598   0.374
91695W        W64010  17.662  10.235   5.097
91696W        W64011  29.512  19.594   4.186
91697W        W64012  13.635   9.150   1.428
91698W        W64013  15.279   0.259   1.891
91699W        W64014  12.845   2.359   0.960
91700W        W64015  43.804  30.563  11.112
91701W        W64016  11.760  15.728   4.345
91702W        W64017  41.948   1.255  11.068
91703W        W64018   4.728  11.660   4.635
91704W        W64019  14.110  25.217   4.316
91705W        W64020   6.746  13.764   1.738
91706W        W64021  38.526  43.918  12.012
91707W        W64022  36.348  11.856  12.930
91708W        W64023  36.458  13.692   0.904
91709W        W64024  37.985  43.885   2.378
91710W        W64025  25.684  16.656  13.977
91711W        W64026  26.646   3.245  10.985
91712W        W64027   1.466  16.228   0.730
91713W        W64028  30.021   3.288  10.587
91714W        W64029  32.500  39.868   0.442
91715W        W64030  30.618  30.532   1.413
91716W        W64031  20.527  19.085   3.351
91717W        W64032   0.978  20.761  12.414
91718W        W64033   9.727  23.558  12.921
91719W        W64034  27.161  10.328   1.239
91720W        W64035  19.583   4.422   3.214
91721W        W64036  19.135  26.193  12.499
91722W        W64037  15.247  42.917   3.271
91723W        W64038  36.362  23.656  10.624
91724W        W64039  25.042  34.468  12.408
91725W        W64040  44.920  11.144   3.745
91726W        W64041  10.367  38.861   1.816
91727W        W64042  39.968  40.413   1.263
91728W        W64043  36.045   8.839  12.016
91729W        W64044  16.218  23.601  12.445
91730W        W64045   2.816  13.125  14.906
91731W        W64046   7.738  35.883   0.246
91732W        W64047  28.449   1.876  11.563
91733W        W64048  21.055   4.228  12.524
91734W        W64049  10.787  44.278   1.376
91735W        W64050   4.719   4.877   5.088
91736W        W64051  10.710  41.831   0.906
91737W        W64052  39.536   4.270   2.365
91738W        W64053  18.130  25.990  12.998
91739W        W64054  38.337  31.951  12.485
91740W        W64055  24.008  26.614   3.256
91741W        W64056  37.873  20.682   2.717
91742W        W64057  38.433   5.343  14.443
91743W        W64058  28.654  38.446  14.790
91744W        W64059  24.205  18.723  10.579
91745W        W64060   6.333   3.752  10.935
91746W        W64061  24.070  44.265   4.823
91747W        W64062   7.231  15.799  14.858
91748W        W64063   8.717   4.390  14.963
91749W        W64064   2.412  28.487  11.542
91750W        W64065  24.007  24.210  12.512
91751W        W64066  39.537  40.457  14.350
91752W        W64067  32.028  18.070   0.264
91753W        W64068   3.794  10.746  11.445
91754W        W64069  28.523   9.651  11.482
91755W        W64070   5.278  28.148   4.344
91756W        W64071  10.825  35.451  11.899
91757W        W64072   8.811   2.332   0.826
91758W        W64073  35.378  38.029  13.856
91759W        W64074  31.028  25.017  14.935
91760W        W64075   5.397   4.894   3.199
91761W        W64076  42.963  37.903  12.917
91762W        W64077  20.189  22.709   4.696
91763W        W64078  35.989  34.403  13.064
91764W        W64079   0.466  16.163  13.538
91765W        W64080   0.817  33.012   3.279
91766W        W64081  43.295  32.060   0.876
91767W        W64082  25.659  23.176  10.911
91768W        W64083  37.996  20.077  11.458
91769W        W64084  29.042   1.238   1.271
91770W        W64085  20.532   4.349  11.113
91771W        W64086   8.213  20.541  11.977
91772W        W64087  44.782  24.112  12.378
91773W        W64088  35.368   3.838  12.348
91774W        W64089  36.539  11.654  13.309
91775W        W64090  33.105  16.781   1.727
91776W        W64091   9.685  42.025  13.541
91777W        W64092   9.149  36.879   0.462
91778W        W64093  16.697  16.758   0.841
91779W        W64094   8.812  37.932   4.325
91780W        W64095  41.300  40.483   3.710
91781W        W64096  32.893  18.261   3.289
91782W        W64097  44.350  42.828   9.926
91783W        W64098  21.652  31.907  13.019
91784W        W64099  36.928  14.674   3.385
91785W        W64100  29.443  21.656  11.501
91786W        W64101  44.451  16.121  11.070
91787W        W64102  23.565  38.938   2.701
91788W        W64103  23.616  12.174   0.244
91789W        W64104   4.793   9.830   2.328
91790W        W64105  22.694   2.292  13.531
91791W        W64106   9.260  21.113   0.742
91792W        W64107   0.434  27.096   2.762
91793W        W64108  18.219  25.050  12.349
91794W        W64109  38.350  28.929  14.995
91795W        W64110  16.623  31.149  12.439
91796W        W64111  24.070   7.897  10.599
91797W        W64112   8.664  30.090   2.363
91798W        W64113  20.692  35.423  13.390
91799W        W64114  17.574  40.047  13.444
91800W        W64115  44.806  14.138  13.425
91801W        W64116  33.596  34.969  10.106
91802W        W64117  11.352  34.963   2.226
91803W        W64118   8.356   5.934   2.220
91804W        W64119  12.196  15.241  10.574
91805W        W64120  37.367  13.154  11.525
91806W        W64121   5.917  16.087   1.424
91807W        W64122  32.003  25.018  14.883
91808W        W64123  43.354  33.994   1.695
91809W        W64124   9.361  12.684  12.889
91810W        W64125  11.335   4.719  12.880
91811W        W64126  26.057   7.270  10.547
91812W        W64127  36.074  43.926   0.883
91813W        W64128   9.766  31.081  11.490
91814W        W64129  14.683  25.496  14.499
91815W        W64130  42.847  43.347   0.763
91816W        W64131   4.850   9.840  11.517
91817W        W64132  28.614   7.679   3.179
91818W        W64133  26.478   4.809  10.514
91819W        W64134  16.585  28.449   3.293
91820W        W64135  34.014  13.330  11.006
91821W        W64136   5.730  14.705   4.178
91822W        W64137   7.406   0.481  13.513
91823W        W64138  34.549  22.533   3.837
91824W        W64139   3.843   6.351   1.401
91825W        W64140  33.051  40.839  10.486
91826W        W64141  26.035   9.834   4.332
91827W        W64142   4.915  20.034  14.340
91828W        W64143   4.740  24.518  11.120
91829W        W64144   3.320  24.687   0.726
91830W        W64145  10.153  27.171  11.983
91831W        W64146   9.318  11.369  13.407
91832W        W64147  29.047   2.459  12.478
91833W        W64148  14.193  26.638   3.358
91834W        W64149  43.982   2.731   0.327
91835W        W64150  13.677   3.357   0.790
91836W        W64151  43.802  44.475   3.739
91837W        W64152  34.995  38.429  14.295
91838W        W64153  14.218  26.178   0.801
91839W        W64154   4.761   2.760   5.192
91840W        W64155  12.806   4.763   4.294
91841W        W64156  15.135  24.046   1.826
91842W        W64157  10.849  36.917   0.303
91843W        W64158  24.522  29.012  13.536
91844W        W64159  37.573   7.373   2.874
91845W        W64160  38.472  23.191  13.925
91846W        W64161  44.887  41.868  14.868
91847W        W64162  44.913  33.555   0.392
91848W        W64163  15.264  27.632  14.349
91849W        W64164  32.046   1.791  10.582
91850W        W64165  27.676  12.190   4.189
91851W        W64166  31.111  43.426  12.938
91852W        W64167  26.558  24.083   3.799
91853W        W64168  22.657  32.967  13.898
91854W        W64169  12.168  28.534  12.033
91855W        W64170  16.141  13.307   3.160
91856W        W64171   8.392  12.350  11.388
91857W        W64172  17.747  35.079   4.811
91858W        W64173  30.130  16.657   2.783
91859W        W64174  19.186  38.474  13.027
91860W        W64175  21.198  17.174  10.566
91861W        W64176  41.003   6.367   4.332
91862W        W64177  31.463  22.090  10.494
91863W        W64178  25.165  39.406  13.317
91864W        W64179  13.675  36.477  14.338
91865W        W64180  42.028  26.506  13.482
91866W        W64181  29.117  17.630   1.424
91867W        W64182  29.938  31.486  14.304
91868W        W64183  23.181  15.614   2.706
91869W        W64184  40.868   0.986  13.444
91870W        W64185   1.920   4.256   2.826
91871W        W64186  38.960   5.898   0.459
91872W        W64187   8.233  27.136  12.997
91873W        W64188  36.036  19.645  12.957
91874W        W64189   9.889  41.997  14.872
91875W        W64190  31.091  44.400  10.956
91876W        W64191   6.739  31.984  12.863
91877W        W64192  34.938  36.887  13.390
91878W        W64193   0.442   2.788   1.368
91879W        W64194  18.070  13.806   4.608
91880W        W64195  31.938  35.087   5.267
91881W        W64196  32.083  33.626  14.428
91882W        W64197   3.322  25.099  11.471
91883W        W64198  41.311  42.508  11.884
91884W        W64199   8.690  44.965  13.452
91885W        W64200  29.664  13.283  13.831
91886W        W64201  34.012  25.007   3.299
91887W        W64202  33.878  24.584   0.773
91888W        W64203  25.094  23.592  11.064
91889W        W64204  40.534  17.188   1.426
91890W        W64205   4.940  20.574   2.899
91891W        W64206  34.614  14.739   3.824
91892W        W64207  30.496  33.950   1.254
91893W        W64208   2.960  18.188   3.276
91894W        W64209   9.213  14.678  14.322
91895W        W64210  23.202   8.868  14.410
91896W        W64211  36.587   8.353   4.629
91897W        W64212   3.328  13.111  11.903
91898W        W64213  31.124  41.448  14.295
91899W        W64214   3.217  38.340  10.566
91900W        W64215  17.618  17.650   4.113
91901W        W64216  10.745   8.665   3.265
91902W        W64217   4.757  24.119   4.793
91903W        W64218   4.370   9.177   3.833
91904W        W64219  13.738  24.619  13.402
91905W        W64220  37.879  39.812  12.079
91906W        W64221  39.385  26.607   2.402
91907W        W64222  13.797   4.334  12.499
91908W        W64223  16.268  23.578   3.271
91909W        W64224  16.699  15.281  12.827
91910W        W64225  36.537  25.154  12.383
91911W        W64226   1.803  28.080   4.325
91912W        W64227  23.672  26.569  13.403
91913W        W64228  15.766  19.165  14.449
91914W        W64229   8.326  14.619   1.699
91915W        W64230  40.044  21.754  12.896
91916W        W64231  22.542  29.139  14.010
91917W        W64232  13.183   3.906   0.369
91918W        W64233  11.180   1.782   3.334
91919W        W64234  24.037   5.767  13.053
91920W        W64235  23.182  14.672   0.245
91921W        W64236  17.624   8.359  12.056
91922W        W64237  13.195  29.164  11.965
91923W        W64238  19.239  41.851  11.421
91924W        W64239   5.717  11.229   0.942
91925W        W64240  38.845  16.632  10.489
91926W        W64241  41.368   4.852   0.467
91927W        W64242  24.510  34.502  11.602
91928W        W64243  41.436  12.247  12.384
91929W        W64244  27.950  27.619   1.436
91930W        W64245   9.673  29.940  10.525
91931W        W64246  41.001  33.950   1.806
91932W        W64247  33.114  24.711   2.813
91933W        W64248  11.716   2.384   1.743
91934W        W64249   1.872  15.637   3.865
91935W        W64250  21.067  12.188  13.059
91936W        W64251  11.854  43.004   2.303
91937W        W64252  38.906  19.219  13.904
91938W        W64253   8.275  16.602   4.673
91939W        W64254  16.591  29.973   1.885
91940W        W64255  10.349  41.007  12.574
91941W        W64256   2.413  19.072   0.821
91942W        W64257  36.018  32.396  12.048
91943W        W64258  18.725   5.740  14.774
91944W        W64259  27.684   6.308   2.689
91945W        W64260  29.516   4.220  13.054
91946W        W64261  25.573  28.116  14.023
91947W        W64262  33.956  22.740  12.564
91948W        W64263  21.131  33.015   1.260
91949W        W64264   7.881  10.772   3.384
91950W        W64265   6.710   8.866  11.540
91951W        W64266  26.474  27.642  12.008
91952W        W64267   6.210   6.267   0.405
91953W        W64268  40.845   2.330  12.533
91954W        W64269  33.585  15.177   4.254
91955W        W64270  27.030  38.392  11.554
91956W        W64271   9.690   5.246  13.841
91957W        W64272  39.511  36.354  12.056
91958W        W64273  29.525  34.105  13.008
91959W        W64274  12.314  15.174   3.336
91960W        W64275  22.701  42.452   1.376
91961W        W64276   8.779  16.135   4.656
91962W        W64277  41.378  28.090  14.503
91963W        W64278  34.539  12.158   2.704
91964W        W64279   2.953   2.787  13.511
91965W        W64280  33.489  19.730  13.953
91966W        W64281  32.481   1.335  10.567
91967W        W64282  39.388  38.936   2.807
91968W        W64283  12.274  20.096  14.315
91969W        W64284   7.272  15.612   1.371
91970W        W64285  23.997  19.561   2.900
91971W        W64286  41.818   9.765  12.458
91972W        W64287  15.085  29.169  12.889
91973W        W64288  23.081   7.206   1.841
91974W        W64289  14.284  30.523  11.873
91975W        W64290  42.015  14.318  13.340
91976W        W64291  13.352   5.815   1.397
91977W        W64292   0.869   5.932  13.457
91978W        W64293  11.782  28.498   0.433
91979W        W64294  37.874  12.664   1.253
91980W        W64295   4.358   5.436  12.383
91981W        W64296  34.597  27.992   3.769
91982W        W64297  43.293  40.529   1.717
91983W        W64298  33.490  13.240   0.805
91984W        W64299   0.812  21.577   0.925
91985W        W64300  21.185  19.565   2.261
91986W        W64301  16.718  23.657  14.847
91987W        W64302   2.891  25.702  10.890
91988W        W64303  40.461  22.702   4.191
91989W        W64304  42.381  32.005  12.882
91990W        W64305   6.856  10.795   4.692
91991W        W64306  35.946   3.894  13.927
91992W        W64307  13.833  28.455  11.577
91993W        W64308  38.024  44.755   3.709
91994W        W64309  44.371  32.611  13.009
91995W        W64310  38.498  30.458  13.385
91996W        W64311  20.638  26.629  11.877
91997W        W64312  38.873   4.767  12.491
91998W        W64313  34.955  17.229   5.110
91999W        W64314   5.693  34.566   2.805
92000W        W64315   7.319  35.556  12.043
92001W        W64316  14.778  40.451   4.786
92002W        W64317  37.361  28.945   0.822
92003W        W64318  20.567   8.873   3.254
92004W        W64319  33.480  26.047  11.550
92005W        W64320  28.563  19.685   2.899
92006W        W64321  11.644  40.854   0.389
92007W        W64322  44.299  31.021   3.244
92008W        W64323   8.887  28.068  11.054
92009W        W64324  28.124  44.765   2.727
92010W        W64325   2.468   0.982  10.487
92011W        W64326  43.440   8.743  11.948
92012W        W64327  24.684  17.629  12.919
92013W        W64328  31.497  14.628  11.423
92014W        W64329  31.129  42.442  11.572
92015W        W64330  25.211  30.948  13.514
92016W        W64331  17.638  10.815  12.923
92017W        W64332  13.209   2.316  13.798
92018W        W64333   4.443  37.581  10.989
92019W        W64334  24.707   5.792  13.524
92020W        W64335  19.170  37.540  12.425
92021W        W64336  10.844  18.073   2.781
92022W        W64337  30.043  34.497  13.988
92023W        W64338  25.023  36.471   0.733
92024W        W64339  20.682  21.063   3.755
92025W        W64340   5.310  40.818  10.411
92026W        W64341  26.971  20.030  14.429
92027W        W64342   1.971  33.432  11.477
92028W        W64343  32.945   1.905  11.497
92029W        W64344  19.686  16.303  13.463
92030W        W64345  23.129  37.579  14.304
92031W        W64346  42.900  12.623   2.807
92032W        W64347  41.851  14.656  14.820
92033W        W64348  36.500  24.225   4.753
92034W        W64349  40.030  27.081  13.882
92035W        W64350  20.737  21.534   0.755
92036W        W64351  12.838  42.831   1.900
92037W        W64352  18.123  20.739  14.330
92038W        W64353  28.026  32.514   4.166
92039W        W64354  37.885   8.235  14.771
92040W        W64355   6.356  23.212   2.867
92041W        W64356  42.871  41.976  13.031
92042W        W64357  20.704  11.171   4.668
92043W        W64358   0.863  41.938   0.474
92044W        W64359  21.235  12.623   2.381
92045W        W64360  28.573  32.422   1.383
92046W        W64361  17.141  25.148   3.170
92047W        W64362  36.486  29.965  14.281
92048W        W64363  14.316  25.198   2.252
92049W        W64364  34.603  21.042   3.695
92050W        W64365  42.890  23.094  14.873
92051W        W64366  31.453  32.084   3.322
92052W        W64367  25.633  35.401   2.361
92053W        W64368  22.996  10.657  10.913
92054W        W64369  37.397   0.846   5.135
92055W        W64370   9.717  44.956  11.417
92056W        W64371  16.172  29.021  13.355
92057W        W64372  24.069  16.271   0.429
92058W        W64373  43.884  20.175  10.924
92059W        W64374  38.992   4.741  10.058
92060W        W64375  40.530   2.751   2.236
92061W        W64376  22.218  12.756   4.234
92062W        W64377  30.557  39.991  14.395
92063W        W64378  20.530  15.822  14.455
92064W        W64379  21.541   6.895   0.398
92065W        W64380  16.267  27.109  14.401
92066W        W64381  12.762  41.362  14.429
92067W        W64382  38.013  11.855   0.451
92068W        W64383  21.681  26.643   0.944
92069W        W64384  25.675  12.230   3.247
92070W        W64385  22.677  21.075  11.541
92071W        W64386  41.791  10.689   1.795
92072W        W64387  16.137  32.520  10.908
92073W        W64388  40.044  34.950  10.453
92074W        W64389   2.791  19.197  11.886
92075W        W64390   5.843   3.228  11.473
92076W        W64391  26.068  24.139  14.440
92077W        W64392  33.883  39.897   3.231
92078W        W64393  33.498   3.401   5.094
92079W        W64394  27.485  10.291   1.817
92080W        W64395  39.330  34.920   9.965
92081W        W64396  35.390  39.004  12.885
92082W        W64397  23.234  39.965   2.676
92083W        W64398  17.676  31.577   1.696
92084W        W64399   5.403  27.463  10.447
92085W        W64400  40.805  44.908  14.408
92086W        W64401   8.800  25.138   0.462
92087W        W64402   6.353  11.660  11.915
92088W        W64403  29.439  38.973  14.414
92089W        W64404  39.030  24.011   4.797
92090W        W64405  37.914  29.490  12.551
92091W        W64406  27.546  14.098   4.742
92092W        W64407  27.092   9.804   1.345
92093W        W64408  17.674   9.271  14.976
92094W        W64409   9.296   3.838   1.258
92095W        W64410  16.586  14.818  14.779
92096W        W64411  28.514  23.700  10.409
92097W        W64412  27.981  39.347   1.443
92098W        W64413  41.900  33.934   3.803
92099W        W64414  38.464  14.725  13.019
92100W        W64415  28.518   3.829   3.159
92101W        W64416  40.981   1.357   3.841
92102W        W64417  32.445  29.002   0.887
92103W        W64418  39.050  17.660  13.910
92104W        W64419  43.947   3.326  14.280
92105W        W64420  40.857  38.354  10.612
92106W        W64421  25.001  15.238   3.833
92107W        W64422  19.583  22.554   1.434
92108W        W64423  17.634  41.927  14.495
92109W        W64424  35.951  10.777  11.051
92110W        W64425  25.566  17.798  12.484
92111W        W64426  20.093  33.564   4.350
92112W        W64427  44.423  16.667  12.993
92113W        W64428  17.134  16.100   3.763
92114W        W64429  11.187  25.652  11.892
92115W        W64430  17.190  23.226   0.774
92116W        W64431  10.141  41.040   1.308
92117W        W64432  28.517  43.920  12.973
92118W        W64433  11.692  20.274   2.753
92119W        W64434  33.393  12.207   0.752
92120W        W64435  23.030   9.273   1.828
92121W        W64436  40.316  19.080   4.664
92122W        W64437  28.931  22.626   2.401
92123W        W64438  41.513  33.465   3.663
92124W        W64439  27.469  13.830  11.121
92125W        W64440  24.036   6.755   3.307
92126W        W64441  40.535  20.112  12.555
92127W        W64442  25.128  10.829  12.935
92128W        W64443  34.086  38.999  13.325
92129W        W64444  24.156   4.820   0.845
92130W        W64445  34.994  10.316  13.860
92131W        W64446  27.143  18.188   2.755
92132W        W64447  33.594  24.121   2.244
92133W        W64448  29.134  21.554   4.121
92134W        W64449  27.059   4.728   9.932
92135W        W64450  41.333  10.177  10.548
92136W        W64451  40.028  25.200  11.889
92137W        W64452  10.700  17.304   2.263
92138W        W64453  40.506  10.290  14.812
92139W        W64454  22.641   0.781  11.025
92140W        W64455   1.316   7.212  10.623
92141W        W64456  23.060   7.246   0.902
92142W        W64457   9.262  13.690   4.728
92143W        W64458  15.309  20.727   1.273
92144W        W64459  20.616  34.953   1.911
92145W        W64460   0.289  18.254   2.351
92146W        W64461  32.630  42.898   0.361
92147W        W64462  35.426  21.019  14.884
92148W        W64463   0.256  18.241   4.660
92149W        W64464  29.973  43.774   4.810
92150W        W64465  21.518  17.633   3.252
92151W        W64466   3.336  14.626  13.512
92152W        W64467  37.432   2.363  13.973
92153W        W64468  17.653  42.492   0.849
92154W        W64469  26.164  29.113   1.247
92155W        W64470  28.940  23.163   3.738
92156W        W64471  41.857  14.199  12.963
92157W        W64472  14.182   4.732  10.410
92158W        W64473  21.691  12.265   1.302
92159W        W64474  23.095  38.489  11.406
92160W        W64475  34.586  31.930  11.093
92161W        W64476  30.108  44.423  11.470
92162W        W64477  30.115  20.622   3.737
92163W        W64478  10.792  20.583  11.423
92164W        W64479  24.979  16.686   3.673
92165W        W64480  10.171   4.221   4.815
92166W        W64481  14.780  39.021  11.494
92167W        W64482  21.729   2.462   4.800
92168W        W64483  27.502  21.146   4.124
92169W        W64484  29.166  14.172  12.461
92170W        W64485   9.844  31.919  10.145
92171W        W64486  10.324  14.264  10.554
92172W        W64487  21.153  13.681  12.031
92173W        W64488   5.896  33.011   0.936
92174W        W64489  12.743  32.481  10.407
92175W        W64490  13.180   5.775  12.935
92176W        W64491  33.107   1.465  13.376
92177W        W64492  35.061   1.406   4.621
92178W        W64493  26.100   9.159   3.285
92179W        W64494  12.625  30.554  13.429
92180W        W64495  14.825   8.768   2.398
92181W        W64496  20.141  26.487  11.471
92182W        W64497  19.189  36.558  14.424
92183W        W64498  32.970  31.963  10.452
92184W        W64499  21.229   0.371   4.776
92185W        W64500  35.473   0.809   1.446
92186W        W64501  14.105   5.902   4.653
92187W        W64502  25.702   0.272  12.063
92188W        W64503   0.944  23.704   4.322
92189W        W64504  12.720  22.625  14.923
92190W        W64505  15.761   6.797   1.773
92191W        W64506   9.878  14.138  14.912
92192W        W64507  34.508  37.514   4.202
92193W        W64508  43.989  34.967   3.201
92194W        W64509  32.097   7.720   4.240
92195W        W64510  39.837  12.664   2.180
92196W        W64511  13.139   1.472  13.824
92197W        W64512  30.579  38.502   1.322
92198W        W64513  11.719  19.079   2.369
92199W        W64514  20.082  24.042   3.213
92200W        W64515   7.804   5.194  13.024
92201W        W64516   7.839  22.587  10.009
92202W        W64517   7.382  31.627   4.331
92203W        W64518  25.588  26.571  11.029
92204W        W64519   7.261  25.136   0.777
92205W        W64520  39.335   2.883  10.986
92206W        W64521  32.936  33.523  10.981
92207W        W64522  34.441  38.406   4.154
92208W        W64523  30.488   9.698  11.612
92209W        W64524   5.894  44.853   4.287
92210W        W64525   1.341  40.031   4.644
92211W        W64526  40.910  27.541  14.495
92212W        W64527   4.226  16.143   0.336
92213W        W64528  25.688  19.774  11.476
92214W        W64529  43.413   3.938   1.770
92215W        W64530   9.290  26.019   3.220
92216W        W64531  40.482  39.501   2.346
92217W        W64532  41.003   2.398   0.832
92218W        W64533  12.636  43.432   2.670
92219W        W64534  29.092  25.100   1.365
92220W        W64535  18.166  29.540  10.101
92221W        W64536  27.541  11.829  12.449
92222W        W64537  27.153   0.824   1.313
92223W        W64538  32.564  29.670   4.161
92224W        W64539   0.811  37.951   2.666
92225W        W64540   5.306  24.030   3.646
92226W        W64541  26.630   6.850   5.746
92227W        W64542  14.830  38.515  14.490
92228W        W64543  27.027   9.271   4.233
92229W        W64544  35.420  42.318  14.331
92230W        W64545   2.420   8.713   1.797
92231W        W64546  39.376  14.213   2.747
92232W        W64547  10.173  30.656   1.252
92233W        W64548  16.208   7.864   1.223
92234W        W64549  15.587  11.178   0.464
92235W        W64550   3.324  43.939  12.032
92236W        W64551  39.463  21.512   1.895
92237W        W64552  32.523  23.235  12.520
92238W        W64553  10.332  15.598  14.435
92239W        W64554   9.699  17.762   5.294
92240W        W64555  44.360   9.358   2.253
92241W        W64556  24.724   0.486   4.804
92242W        W64557  29.603  23.595   1.263
92243W        W64558   2.812  25.970   4.712
92244W        W64559  11.229   0.371   1.841
92245W        W64560  18.186  11.135  14.432
92246W        W64561  19.681  32.138   9.920
92247W        W64562  35.571  19.105  13.799
92248W        W64563  30.548  28.951   2.264
92249W        W64564  42.419  22.744  14.809
92250W        W64565   7.677  42.346  13.939
92251W        W64566  37.489  29.634   2.371
92252W        W64567  35.437  41.486   2.725
92253W        W64568  14.294  30.592  13.444
92254W        W64569  28.652   5.276  14.947
92255W        W64570  17.279  11.623   0.413
92256W        W64571   0.335  23.107  14.916
92257W        W64572  35.427   7.696  12.491
92258W        W64573  15.816  18.605   5.089
92259W        W64574  27.480  28.457  13.037
92260W        W64575  15.710  25.714   3.163
92261W        W64576  38.882  31.963   0.277
92262W        W64577  16.102  37.940   1.383
92263W        W64578   5.341  21.132  14.347
92264W        W64579   3.364  43.275  12.061
92265W        W64580  43.912   4.869  12.861
92266W        W64581  26.535   8.871  13.016
92267W        W64582   7.825  16.313   1.388
92268W        W64583  26.120  21.231   2.770
92269W        W64584   1.321  37.475  13.430
92270W        W64585  27.179  43.860  14.794
92271W        W64586  27.090  21.531  11.067
92272W        W64587   3.351   7.833   2.237
92273W        W64588  32.406   9.311   1.421
92274W        W64589   2.410  40.515  13.500
92275W        W64590   7.817  44.879   4.216
92276W        W64591  11.676  25.110   9.996
92277W        W64592   4.333   8.268  10.451
92278W        W64593  22.595  37.907   1.856
92279W        W64594  18.134   2.764   0.463
92280W        W64595  24.604  21.099   2.309
92281W        W64596  15.248   8.341  11.117
92282W        W64597   6.263  27.568  13.842
92283W        W64598  23.096  17.120  10.997
92284W        W64599   7.906  27.186  11.928
92285W        W64600  20.602  14.248   2.244
92286W        W64601  13.606  29.546   2.368
92287W        W64602   0.279  16.739  14.789
92288W        W64603  33.435  37.949  10.495
92289W        W64604  32.630  25.698  14.787
92290W        W64605  43.451  29.950  14.358
92291W        W64606  21.712   9.885  12.927
92292W        W64607   1.299  42.490  10.469
92293W        W64608  18.268   6.804   0.474
92294W        W64609  14.701  24.617  12.388
92295W        W64610  29.667  38.483  14.919
92296W        W64611  15.684  24.577   1.414
92297W        W64612  42.972  34.053  11.889
92298W        W64613  12.822  10.644   3.219
92299W        W64614  38.995  37.499  11.568
92300W        W64615   4.323  18.689  11.086
92301W        W64616  13.308  33.946  11.060
92302W        W64617  21.600  20.216   5.228
92303W        W64618  40.026  41.347  12.400
92304W        W64619  22.132   5.708   3.213
92305W        W64620  17.177  34.587  12.911
92306W        W64621  33.014  11.279  11.877
92307W        W64622  37.966   0.388  13.541
92308W        W64623  11.366  42.927   0.779
92309W        W64624  33.913  14.827   0.458
92310W        W64625  40.035   6.195   1.862
92311W        W64626  37.370  36.546  11.055
92312W        W64627   7.204  32.454  12.431
92313W        W64628   9.354   0.836   5.170
92314W        W64629   8.790   5.207   0.770
92315W        W64630  20.227   7.382   1.870
92316W        W64631  35.484   7.792  13.992
92317W        W64632   0.307  32.540   2.856
92318W        W64633  37.874  16.685  12.024
92319W        W64634  40.899  23.102  13.942
92320W        W64635   5.415  30.614  11.461
92321W        W64636  37.989   1.321  14.912
92322W        W64637  31.122  43.773  10.905
92323W        W64638  35.993  19.592   2.874
92324W        W64639  42.287  42.427  10.589
92325W        W64640  28.477  37.868   2.280
92326W        W64641  27.994   2.432   2.297
92327W        W64642   4.773  27.644  12.874
92328W        W64643  23.493   6.921  14.381
92329W        W64644   6.332  15.666  11.095
92330W        W64645  12.724  33.556   5.250
92331W        W64646  32.454   0.285  13.877
92332W        W64647   7.844  10.365   0.442
92333W        W64648  21.215   7.361  13.987
92334W        W64649  43.787  40.816  12.391
92335W        W64650  39.454  14.242  13.419
92336W        W64651   5.408   0.831   4.337
92337W        W64652  19.042  33.006  12.895
92338W        W64653   2.243   6.726   2.396
92339W        W64654  32.140  37.852  11.607
92340W        W64655   3.401  31.111  14.432
92341W        W64656  38.073  11.704   4.814
92342W        W64657  16.773  38.408   4.173
92343W        W64658  13.654   2.337   0.783
92344W        W64659  10.168  24.998   9.962
92345W        W64660  20.136   8.345  13.024
92346W        W64661  31.528  27.180   2.219
92347W        W64662  26.544  12.754  11.473
92348W        W64663  38.974  27.170   5.251
92349W        W64664  12.220  32.118  12.008
92350W        W64665  15.217  25.112   0.275
92351W        W64666  11.726  15.751   1.705
92352W        W64667  34.612  24.208  10.644
92353W        W64668  35.563   3.259   0.896
92354W        W64669  23.066  29.530  11.526
92355W        W64670  15.663   1.746   3.675
92356W        W64671  39.967  21.544   0.805
92357W        W64672  36.925   7.219  14.873
92358W        W64673  38.878  37.457  10.130
92359W        W64674   8.668  17.688  13.325
92360W        W64675  30.125  11.810   4.713
92361W        W64676  32.567  12.247  12.885
92362W        W64677  13.733   8.827  14.440
92363W        W64678  44.801  37.395   1.729
92364W        W64679  20.152  19.209  11.925
92365W        W64680  15.738  28.077   3.340
92366W        W64681   0.874   1.774  10.898
92367W        W64682  29.168  27.599  12.060
92368W        W64683   1.409  35.462   2.409
92369W        W64684  31.154  36.062  12.481
92370W        W64685  40.928   1.759   1.361
92371W        W64686  28.067  20.691  14.963
92372W        W64687  29.046  25.541   1.851
92373W        W64688  13.172   2.794  14.768
92374W        W64689  29.439   8.406   0.306
92375W        W64690   5.807  39.961   2.761
92376W        W64691  36.883  23.678   0.875
92377W        W64692  25.145   0.752   1.794
92378W        W64693  30.926  43.295  14.772
92379W        W64694  33.484  21.063  11.990
92380W        W64695  23.633  16.243   3.329
92381W        W64696   4.710  13.675  10.928
92382W        W64697   6.305  43.989   0.892
92383W        W64698   8.222  39.452   1.759
92384W        W64699  26.076  34.064  10.013
92385W        W64700  36.881   9.158   4.786
92386W        W64701   1.963  10.823   0.395
92387W        W64702  22.504  40.308  11.385
92388W        W64703   8.189  25.127  10.569
92389W        W64704  39.420  30.645  14.319
92390W        W64705  15.287  17.281  13.797
92391W        W64706  14.199  44.469  13.844
92392W        W64707  26.159  11.232   4.183
92393W        W64708  15.119  13.352   4.297
92394W        W64709  10.259  19.109   3.731
92395W        W64710  38.474  44.879   2.366
92396W        W64711  44.436   5.773  11.525
92397W        W64712  10.170   3.755   1.268
92398W        W64713  41.363  10.848   4.597
92399W        W64714  37.029   8.293  14.765
92400W        W64715  28.472  20.734  14.419
92401W        W64716  37.022  42.396  13.871
92402W        W64717  21.125  11.647   4.765
92403W        W64718  38.993  14.142   2.248
92404W        W64719  31.637  16.102   2.413
92405W        W64720  40.882  21.736  14.423
92406W        W64721  14.728  19.766  10.443
92407W        W64722  15.752  21.189  11.472
92408W        W64723  39.467  23.572   1.293
92409W        W64724  14.663   3.398  14.323
92410W        W64725  24.647   1.247   3.362
92411W        W64726  14.615  44.982   2.806
92412W        W64727   1.402  33.538   4.734
92413W        W64728  10.316  41.417   3.805
92414W        W64729  16.235   8.327   0.862
92415W        W64730   5.933  31.420  13.494
92416W        W64731  35.064  16.245  10.954
92417W        W64732  15.084  35.935  12.949
92418W        W64733  41.301  42.510  13.046
92419W        W64734  21.624  36.985  11.859
92420W        W64735  11.198  34.006   3.147
92421W        W64736  22.554   1.444  10.485
92422W        W64737  26.683   5.785   0.893
92423W        W64738  43.773   9.659  10.987
92424W        W64739  10.807   2.724  13.475
92425W        W64740  39.363   1.903   2.190
92426W        W64741  18.775  39.408  10.902
92427W        W64742  29.452  18.668   4.242
92428W        W64743  15.163  12.160  11.482
92429W        W64744   1.479   3.325  10.485
92430W        W64745   1.861   9.258  14.320
92431W        W64746  44.430  36.501   3.629
92432W        W64747  14.832   0.952  14.357
92433W        W64748   2.411  36.448   2.845
92434W        W64749   4.403   8.889  14.910
92435W        W64750  17.219  27.543  13.867
92436W        W64751  11.696   5.860  14.019
92437W        W64752  43.968  16.161  10.967
92438W        W64753  38.017   6.245  12.918
92439W        W64754  12.732  19.233   0.303
92440W        W64755  16.673  37.918  14.973
92441W        W64756  42.802  42.006  11.034
92442W        W64757  21.204  28.499  14.882
92443W        W64758  29.601  22.032  12.026
92444W        W64759  43.990  29.006   3.251
92445W        W64760   5.703  10.706   1.347
92446W        W64761   1.862  17.087  11.122
92447W        W64762   4.355   5.887   1.367
92448W        W64763  34.542  39.855  10.414
92449W        W64764  12.328  12.355   2.374
92450W        W64765  14.625  25.498  12.938
92451W        W64766  24.174  21.693   2.855
92452W        W64767   9.871   9.674   0.953
92453W        W64768  29.974  43.511  13.958
92454W        W64769   7.413  10.164   4.144
92455W        W64770  23.543  29.435  11.945
92456W        W64771   9.808  28.632   0.410
92457W        W64772   0.875  22.110   3.838
92458W        W64773  18.052  32.576  14.827
92459W        W64774  44.422   8.667  12.344
92460W        W64775  13.134  18.246  10.059
92461W        W64776  13.114  34.461   0.937
92462W        W64777  22.252  23.559  12.946
92463W        W64778  44.946   6.883   0.727
92464W        W64779  41.437   3.402   4.721
92465W        W64780  28.455  26.051  11.603
92466W        W64781  31.038   6.879  14.362
92467W        W64782  22.618  14.140   5.237
92468W        W64783  28.984   7.899  10.561
92469W        W64784  37.861   9.355  11.605
92470W        W64785   3.768  37.913   2.679
92471W        W64786  18.283   3.929   4.307
92472W        W64787  27.186  15.625  12.073
92473W        W64788  16.590  43.336   0.815
92474W        W64789  27.169   5.775   1.699
92475W        W64790  27.480  43.949   1.355
92476W        W64791  43.349   6.304   3.744
92477W        W64792  40.991  15.211   0.943
92478W        W64793  24.707  26.671   3.831
92479W        W64794  40.443  26.462   4.183
92480W        W64795  32.900  30.574  13.891
92481W        W64796  44.879   3.817   0.289
92482W        W64797  26.002  38.851  13.007
92483W        W64798  32.065  12.224  10.474
92484W        W64799   3.245   2.855  12.445
92485W        W64800  16.704   6.708  12.370
92486W        W64801  13.673  37.850   1.797
92487W        W64802  27.977  20.686  12.388
92488W        W64803  28.453   0.892  14.014
92489W        W64804  39.885  27.121  12.429
92490W        W64805  22.558  20.105  12.884
92491W        W64806   6.425  42.960  14.333
92492W        W64807  30.098  25.572   1.293
92493W        W64808  13.713  33.448  12.448
92494W        W64809  12.746  43.370  14.873
92495W        W64810  29.081  11.157  11.394
92496W        W64811  31.499  40.860  11.458
92497W        W64812  37.941  35.462  13.462
92498W        W64813  13.626  32.895  14.005
92499W        W64814  37.916  17.592  11.462
92500W        W64815  21.093  39.508   5.142
92501W        W64816  12.711  15.756  14.854
92502W        W64817   4.944  12.160  12.075
92503W        W64818  29.143  30.555   4.283
92504W        W64819  34.484   2.443   4.129
92505W        W64820   4.761  10.775  12.992
92506W        W64821   6.374  23.646  12.012
92507W        W64822   9.166  40.516   3.732
92508W        W64823  18.693   9.212   2.229
92509W        W64824  31.548  44.944  14.933
92510W        W64825  19.216  40.469  12.974
92511W        W64826  31.593   5.217   0.401
92512W        W64827  41.324   1.959  13.330
92513W        W64828  38.029  31.128  12.847
92514W        W64829  13.136  32.478  14.765
92515W        W64830  18.743   4.772  12.529
92516W        W64831   5.351   0.899   0.776
92517W        W64832  31.129  36.996   1.333
92518W        W64833   2.844  21.541   3.768
92519W        W64834   0.324  34.058   2.262
92520W        W64835   5.822  24.656  11.452
92521W        W64836  42.503   6.193  14.829
92522W        W64837  30.548  41.881   0.753
92523W        W64838  19.061  12.242   1.696
92524W        W64839  26.533  43.998  11.055
92525W        W64840  18.757   9.676   2.854
92526W        W64841  15.656   1.906   2.836
92527W        W64842  32.462   7.859  12.506
92528W        W64843   0.862   4.806  13.352
92529W        W64844  30.527  32.117  14.031
92530W        W64845  37.542  32.516   2.843
92531W        W64846  31.080  24.087  12.857
92532W        W64847  13.751   0.404   1.435
92533W        W64848   5.690  18.640   1.358
92534W        W64849  21.058  27.963   5.175
92535W        W64850  42.000  41.412  13.052
92536W        W64851  33.037  32.120   2.233
92537W        W64852  41.364   8.770  11.011
92538W        W64853  24.532  27.077  12.830
92539W        W64854  18.117   6.215  12.554
92540W        W64855  22.668   4.268   1.792
92541W        W64856  28.504  20.769   3.693
92542W        W64857  13.608   9.269   3.336
92543W        W64858  14.669  34.574   3.722
92544W        W64859  44.820  38.413  11.419
92545W        W64860  20.689   5.841  10.535
92546W        W64861   2.352  30.491  10.078
92547W        W64862  10.661  15.254   4.281
92548W        W64863  15.125  32.500  14.775
92549W        W64864  29.114  33.035   4.662
92550W        W64865  19.741  20.208   2.780
92551W        W64866  17.206  39.894   0.876
92552W        W64867   4.316  17.196   1.262
92553W        W64868  39.530   3.923  14.466
92554W        W64869  40.840  43.433  12.916
92555W        W64870  38.559  21.063   4.724
92556W        W64871  38.055  20.055   3.798
92557W        W64872  11.745  16.658  10.530
92558W        W64873  41.007  35.375   0.476
92559W        W64874  10.845  30.573   1.248
92560W        W64875   2.448  28.053   1.341
92561W        W64876  36.933  38.355  10.601
92562W        W64877  42.295  34.932  12.008
92563W        W64878  21.680  19.644   4.658
92564W        W64879  29.443  22.591   1.788
92565W        W64880   6.698   5.918   0.384
92566W        W64881  44.782  40.413  14.428
92567W        W64882  34.499  13.844  13.361
92568W        W64883   5.268   1.473  12.882
92569W        W64884  33.099  21.627   4.343
92570W        W64885  29.531  32.966  12.071
92571W        W64886  39.887  41.411  14.413
92572W        W64887  10.249  37.402   2.397
92573W        W64888   6.416  24.209  12.516
92574W        W64889  16.596  32.459  14.969
92575W        W64890  43.382  35.055  14.783
92576W        W64891  44.902   5.724   3.741
92577W        W64892  42.389  11.770   2.665
92578W        W64893  20.235  28.164  10.590
92579W        W64894  22.545   9.289  14.885
92580W        W64895  13.666  27.995  11.468
92581W        W64896  28.126  16.609  10.103
92582W        W64897  21.065   4.423   4.835
92583W        W64898  25.617  10.228  11.371
92584W        W64899  27.650  30.008  11.902
92585W        W64900  23.637   2.891  14.764
92586W        W64901   4.373  19.661  14.950
92587W        W64902  22.165  22.689  14.013
92588W        W64903  38.330   0.790  13.006
92589W        W64904  17.296  13.714   1.385
92590W        W64905   1.286  21.623   3.208
92591W        W64906  28.581  13.639   3.858
92592W        W64907  12.744   2.884   2.805
92593W        W64908  42.813  34.611  12.844
92594W        W64909  14.796  35.541  14.501
92595W        W64910   8.185  42.843   3.345
92596W        W64911  39.932  19.715  14.020
92597W        W64912  24.155   9.812   4.270
92598W        W64913  30.982   2.435   4.272
92599W        W64914  18.572  22.504  11.589
92600W        W64915  13.347   5.758  10.895
92601W        W64916   9.816  10.157  11.064
92602W        W64917  18.159  22.536  11.926
92603W        W64918  29.539  20.071  12.980
92604W        W64919   2.839  38.379   1.278
92605W        W64920  43.372   3.443   3.356
92606W        W64921   1.271  36.879  14.007
92607W        W64922   3.328   9.727  14.369
92608W        W64923  14.214  40.032   4.330
92609W        W64924  19.240  38.376   2.210
92610W        W64925  20.192  44.305   2.379
92611W        W64926  42.977   7.368  14.844
92612W        W64927   7.816  42.525  12.874
92613W        W64928  31.125   1.911  11.568
92614W        W64929  25.547  24.656   3.791
92615W        W64930  28.627  23.144   3.302
92616W        W64931  41.022  25.964   3.354
92617W        W64932  24.535  42.367  11.972
92618W        W64933  42.287  38.901   3.346
92619W        W64934  25.498  38.963   1.388
92620W        W64935  15.599  26.591   1.239
92621W        W64936  12.265  32.115  10.525
92622W        W64937   5.404  35.529  14.938
92623W        W64938  41.325  34.488   3.669
92624W        W64939  41.443  42.796  14.760
92625W        W64940  33.422  20.039  11.555
92626W        W64941  34.589  29.012  13.885
92627W        W64942  35.003  28.080   2.733
92628W        W64943   7.276   3.788   3.270
92629W        W64944  41.990   1.315   3.762
92630W        W64945  11.832  39.825  13.048
92631W        W64946  25.508  17.099  10.583
92632W        W64947  30.533  13.213  11.408
92633W        W64948  29.954   7.909   4.145
92634W        W64949  40.413   3.415  12.509
92635W        W64950  27.551  22.579   0.742
92636W        W64951  16.244  25.486  11.400
92637W        W64952  29.058  30.161   3.195
92638W        W64953  29.523  15.198  14.030
92639W        W64954  44.406  42.786  10.569
92640W        W64955  18.650  31.074  10.440
92641W        W64956  21.748   1.757  10.434
92642W        W64957  12.771  11.365  12.968
92643W        W64958   1.802  35.009   0.869
92644W        W64959  17.178  26.116   2.675
92645W        W64960  42.374  20.086   3.657
92646W        W64961  13.316   1.402   2.397
92647W        W64962  11.644  35.463   3.823
92648W        W64963   3.774  25.088  10.543
92649W        W64964  19.207  41.988  12.838
92650W        W64965   4.745  32.483   1.752
92651W        W64966  41.307  36.454  11.060
92652W        W64967  27.072  16.776  14.374
92653W        W64968  37.347  20.552  14.816
92654W        W64969  39.846  30.128  14.891
92655W        W64970  35.895  28.453  10.488
92656W        W64971  22.746  38.009   1.419
92657W        W64972  30.523  30.500   3.205
92658W        W64973   5.934  33.932  10.424
92659W        W64974   7.822  32.615  10.468
92660W        W64975  32.924   8.744  11.074
92661W        W64976  23.509   8.324   2.227
92662W        W64977   9.357  25.036   2.851
92663W        W64978  35.011  35.487   2.827
92664W        W64979  31.029   1.372   1.905
92665W        W64980   2.799  26.544  11.512
92666W        W64981  13.210  23.044  11.080
92667W        W64982  39.390  39.936  13.394
92668W        W64983  34.417  37.340  13.991
92669W        W64984  32.996   3.779  13.910
92670W        W64985  35.391  24.009  10.441
92671W        W64986  18.786  42.941  13.450
92672W        W64987   9.274  25.024   1.933
92673W        W64988  26.703  28.002   4.659
92674W        W64989  15.591  23.595   1.366
92675W        W64990   8.334  37.914  14.445
92676W        W64991  33.028  12.322  14.282
92677W        W64992  10.646  35.900  11.856
92678W        W64993  38.821  37.357   5.147
92679W        W64994  40.384  39.869  11.076
92680W        W64995  16.636  39.360  12.365
92681W        W64996   7.730   9.152  11.461
92682W        W64997  22.208   8.327  13.497
92683W        W64998  37.945   1.347  14.503
92684W        W64999  34.439  22.671  13.842
92685W        W65000  16.219  33.987   0.307
92686W        W65001  20.743  11.347   0.447
92687W        W65002  14.095  18.288  12.979
92688W        W65003  39.830   5.250   2.792
92689W        W65004   7.269  14.119   4.310
92690W        W65005  32.601  28.050  13.911
92691W        W65006  26.982  23.647   4.829
92692W        W65007  19.717  10.149   2.389
92693W        W65008  40.957  33.127   0.743
92694W        W65009  43.860  42.512   4.708
92695W        W65010  30.640  36.003   2.389
92696W        W65011  23.535  44.883   3.720
92697W        W65012  25.197   6.389   2.311
92698W        W65013  39.847  26.622  14.768
92699W        W65014  20.268   9.250   9.960
92700W        W65015  28.060  24.700  13.833
92701W        W65016  40.330   1.409  11.541
92702W        W65017  26.590  10.860   3.757
92703W        W65018  26.694  32.948   3.706
92704W        W65019  44.441  14.276   2.409
92705W        W65020  25.173  41.969   3.330
92706W        W65021   7.242  22.174   4.642
92707W        W65022  33.069  41.388   3.254
92708W        W65023   4.413   7.795   3.379
92709W        W65024  43.414  30.991  14.875
92710W        W65025  26.104   4.775   1.890
92711W        W65026  39.849   5.220   1.320
92712W        W65027  38.364  21.262  11.940
92713W        W65028  27.681  31.512   3.351
92714W        W65029   4.220  31.577   2.903
92715W        W65030   8.802   7.682  13.427
92716W        W65031  37.998  31.449   1.834
92717W        W65032  38.031  26.966  11.980
92718W        W65033   5.757  36.525  12.553
92719W        W65034  32.087   1.765   4.287
92720W        W65035  35.473  31.547   0.281
92721W        W65036  41.984  13.191  14.908
92722W        W65037  24.059  43.832   3.631
92723W        W65038  13.780  22.232  14.971
92724W        W65039  33.962  36.010   5.177
92725W        W65040  19.646   5.923  12.425
92726W        W65041  43.956  17.061  11.400
92727W        W65042  30.532  41.002  13.517
92728W        W65043  13.668  20.759  10.528
92729W        W65044  38.377  25.143   9.984
92730W        W65045  27.643  34.391   4.199
92731W        W65046  41.035  12.136   2.253
92732W        W65047  27.564  43.506   1.852
92733W        W65048   4.741  18.103  13.888
92734W        W65049  44.442  38.452   4.733
92735W        W65050  17.646  17.196   3.293
92736W        W65051  31.455  42.463  13.810
92737W        W65052  39.962  22.705   3.293
92738W        W65053  35.989  39.010   2.393
92739W        W65054  10.758  40.540  12.353
92740W        W65055  32.594  30.013  14.505
92741W        W65056  19.752  43.887  12.833
92742W        W65057   0.759   3.848   3.164
92743W        W65058   0.851  23.674  12.000
92744W        W65059  37.459   0.460   0.395
92745W        W65060   9.275   7.282   2.239
92746W        W65061  33.881  33.492   3.740
92747W        W65062  37.337  31.588   3.768
92748W        W65063  44.843  17.207  11.085
92749W        W65064  28.091   3.432  11.887
92750W        W65065  44.876   7.823  11.564
92751W        W65066   7.257  11.681   1.286
92752W        W65067   9.348  31.014  14.797
92753W        W65068  44.905  11.714   2.848
92754W        W65069  22.702  10.260  10.484
92755W        W65070  27.510  36.978   2.666
92756W        W65071  27.085  25.995  13.498
92757W        W65072  18.224  31.936   2.374
92758W        W65073  11.829  44.844  10.557
92759W        W65074  44.403  15.322   4.241
92760W        W65075  17.800   5.312   0.967
92761W        W65076  12.690  35.494  14.387
92762W        W65077  15.161  29.661   9.641
92763W        W65078   8.663  21.559  11.882
92764W        W65079   4.410  27.012  13.885
92765W        W65080   8.866  18.603   5.099
92766W        W65081  37.535   7.736  13.389
92767W        W65082  36.917  29.116  10.621
92768W        W65083  43.354  42.001   1.767
92769W        W65084   7.217  35.582   4.637
92770W        W65085  44.400  32.075  11.884
92771W        W65086  18.556  42.508   0.938
92772W        W65087  37.371  18.249   0.867
92773W        W65088  23.016  23.600   3.867
92774W        W65089   4.880   6.699  11.974
92775W        W65090  44.975  43.811   3.774
92776W        W65091   4.436   7.782   1.877
92777W        W65092  22.674  11.703  13.019
92778W        W65093  39.828  40.835  11.985
92779W        W65094   2.848   9.379   0.460
92780W        W65095   0.449  43.772   4.738
92781W        W65096  25.195  14.293   5.277
92782W        W65097  27.142  18.170  10.538
92783W        W65098  42.444  25.206   4.723
92784W        W65099  15.139   7.866  12.076
92785W        W65100  17.579  34.606   4.195
92786W        W65101  36.457  28.499   1.829
92787W        W65102  16.216  12.210   3.157
92788W        W65103  19.750  39.424   2.182
92789W        W65104  38.495   1.248   2.705
92790W        W65105   5.240  18.591  14.782
92791W        W65106  37.544   7.410   3.156
92792W        W65107  29.424   7.306   2.413
92793W        W65108  21.074  14.701  11.887
92794W        W65109  11.850  38.340  10.973
92795W        W65110  33.450  41.334   0.272
92796W        W65111  41.833  17.145  12.093
92797W        W65112   0.349   6.819   4.149
92798W        W65113  17.299   5.758   2.698
92799W        W65114   5.277  20.590  10.501
92800W        W65115  24.657  19.246  13.873
92801W        W65116   8.799  36.397   0.337
92802W        W65117  15.106  32.077   4.608
92803W        W65118  17.731  14.101  13.393
92804W        W65119  44.840  23.613  14.475
92805W        W65120   0.939  29.004   2.345
92806W        W65121  14.173  27.043  14.809
92807W        W65122  27.966  26.551   3.847
92808W        W65123  16.644  12.686  14.506
92809W        W65124   2.924  39.471   3.727
92810W        W65125  27.188  39.395   4.264
92811W        W65126  12.197   4.262  13.340
92812W        W65127  33.611  20.619   1.335
92813W        W65128  32.100  24.161  11.556
92814W        W65129  24.687  17.116   0.408
92815W        W65130  44.390   8.772   3.844
92816W        W65131   5.899  13.754   2.260
92817W        W65132  40.388  39.941   1.919
92818W        W65133  30.533  38.048   0.870
92819W        W65134   5.407  10.180   2.230
92820W        W65135  38.457  32.547  10.981
92821W        W65136  43.836  24.530   4.797
92822W        W65137  30.995  12.684   2.377
92823W        W65138   3.361  31.140   4.188
92824W        W65139  10.654  17.169  10.984
92825W        W65140   0.341   1.282   1.834
92826W        W65141   7.374  43.797  11.907
92827W        W65142   2.472   8.228   4.721
92828W        W65143  19.166  34.070  14.312
92829W        W65144  40.410  22.676   4.694
92830W        W65145   4.360   3.388   0.801
92831W        W65146  13.690   2.378   1.823
92832W        W65147  20.205  42.347   2.795
92833W        W65148   2.853  42.858  11.021
92834W        W65149  41.472   5.430   3.335
92835W        W65150   0.399  22.554  13.969
92836W        W65151   5.787   0.448  10.912
92837W        W65152  24.230  31.495   1.360
92838W        W65153  16.155  39.328  13.373
92839W        W65154  30.046  34.609   0.342
92840W        W65155  41.293  33.932  11.107
92841W        W65156  20.573  41.955   4.184
92842W        W65157  19.102  29.941   5.673
92843W        W65158  27.627  16.295  13.020
92844W        W65159  28.098  41.440   4.713
92845W        W65160  42.392  28.043  13.338
92846W        W65161  32.019  11.792   3.378
92847W        W65162  31.462  35.550   2.289
92848W        W65163  41.323  33.501  14.971
92849W        W65164   8.365  37.953  10.487
92850W        W65165  16.217  36.983   4.668
92851W        W65166  27.671  18.283   0.415
92852W        W65167  32.015  21.652  11.966
92853W        W65168  43.450  16.674  14.457
92854W        W65169   4.288  26.647   4.124
92855W        W65170  42.815  22.193  10.956
92856W        W65171  27.582  28.503   2.391
92857W        W65172  13.665  44.978   4.717
92858W        W65173  37.045  17.129   3.848
92859W        W65174  35.506  43.893  13.986
92860W        W65175   1.862  18.203   4.215
92861W        W65176  40.394  43.803   2.336
92862W        W65177   4.265  26.467   3.318
92863W        W65178   2.274  25.069   0.264
92864W        W65179  42.941  23.636  13.856
92865W        W65180   0.450  36.851  11.381
92866W        W65181  15.652  31.469   3.305
92867W        W65182   9.174  24.069  10.006
92868W        W65183  15.190  27.112  12.528
92869W        W65184  21.584   3.423  14.340
92870W        W65185  19.575  13.623  13.936
92871W        W65186  26.008  11.813  11.056
92872W        W65187   3.214  29.113  12.912
92873W        W65188  11.186  41.913  14.012
92874W        W65189  25.099  24.004   4.607
92875W        W65190  20.148  28.107   1.269
92876W        W65191   3.731   2.447  13.802
92877W        W65192  26.187  32.908   1.416
92878W        W65193   8.234   0.479  13.371
92879W        W65194  41.329  23.038   2.703
92880W        W65195  42.476   1.451   1.385
92881W        W65196  25.704  43.297   1.801
92882W        W65197  40.025  16.173   1.255
92883W        W65198   0.802  29.154  12.474
92884W        W65199   0.800  14.151   0.875
92885W        W65200   6.415  37.573   5.289
92886W        W65201  25.489  15.206   2.287
92887W        W65202  36.543   9.886  13.346
92888W        W65203  21.577  34.110  11.065
92889W        W65204  10.803   0.866  13.831
92890W        W65205   8.282   0.437  12.555
92891W        W65206   9.740  38.476   3.271
92892W        W65207  42.377   3.318   2.820
92893W        W65208  36.890  13.204  11.115
92894W        W65209   4.252  20.562  10.617
92895W        W65210  37.498   1.240  10.631
92896W        W65211   4.722  21.203  13.308
92897W        W65212  12.657  17.190  13.032
92898W        W65213   0.441  28.124   1.874
92899W        W65214  21.227  15.815   4.129
92900W        W65215  19.124  25.994  10.912
92901W        W65216   7.890  38.428  12.872
92902W        W65217   7.878  12.176  13.430
92903W        W65218  43.932   4.908  14.433
92904W        W65219  14.590  24.691  10.450
92905W        W65220  25.141  43.276   4.308
92906W        W65221  16.710  42.840   1.342
92907W        W65222   0.276  28.609  13.481
92908W        W65223  21.557  14.149   1.422
92909W        W65224  43.983   2.424  13.386
92910W        W65225  43.390  15.778   4.705
92911W        W65226  37.873  20.639  12.900
92912W        W65227  34.486  34.489   1.269
92913W        W65228  19.604   6.794  12.993
92914W        W65229  21.102  14.717  13.836
92915W        W65230  38.558  16.231   4.787
92916W        W65231  11.309  16.076  12.412
92917W        W65232  35.440  39.814  11.932
92918W        W65233  22.195  39.508  10.962
92919W        W65234  23.668  35.088   2.772
92920W        W65235  24.056  24.125   0.387
92921W        W65236  15.664   0.882  14.993
92922W        W65237   0.253   8.770   0.377
92923W        W65238  42.356   0.380   1.443
92924W        W65239  24.662  28.455   1.865
92925W        W65240  38.558  29.112  10.521
92926W        W65241  21.135  41.326  12.529
92927W        W65242  39.502  10.285   1.334
92928W        W65243  28.579  10.336  12.557
92929W        W65244   7.232  35.512   2.772
92930W        W65245  27.963  33.524   5.220
92931W        W65246  26.176   2.728   1.860
92932W        W65247  15.174  36.376  13.037
92933W        W65248  11.658  13.142   2.198
92934W        W65249  14.320  29.471   5.225
92935W        W65250  11.637  26.985  14.970
92936W        W65251  26.988  43.426   4.719
92937W        W65252  43.333  31.443   4.753
92938W        W65253  13.267  31.441  11.870
92939W        W65254  14.789  29.063  11.995
92940W        W65255  31.594  33.947   1.296
92941W        W65256  44.393   9.824  10.631
92942W        W65257  27.484  39.553   1.865
92943W        W65258   0.457   3.382   1.421
92944W        W65259  13.782  22.009   2.400
92945W        W65260  14.143  42.829  10.152
92946W        W65261   7.842   1.277   0.821
92947W        W65262   9.346  44.933  13.497
92948W        W65263  20.230   4.776  10.061
92949W        W65264  28.178  12.710  14.813
92950W        W65265   2.452  27.164  10.920
92951W        W65266  42.407   3.939  14.954
92952W        W65267   2.452   6.865   0.817
92953W        W65268  27.535   8.326  10.891
92954W        W65269  33.381  25.193   4.633
92955W        W65270  19.121  25.208  12.469
92956W        W65271   2.373  25.053   1.230
92957W        W65272  31.106  11.766  12.075
92958W        W65273  38.978  20.065  13.815
92959W        W65274  38.499  40.398  14.463
92960W        W65275   5.238  20.607   3.672
92961W        W65276   4.340  39.497  13.928
92962W        W65277   3.292  23.073  10.946
92963W        W65278  15.767  34.407  11.493
92964W        W65279  41.853  41.790   2.854
92965W        W65280  20.666  10.813   5.730
92966W        W65281  43.348  30.469  11.504
92967W        W65282  25.674  34.431   5.239
92968W        W65283  23.506   3.921  10.451
92969W        W65284  13.149   8.838   3.798
92970W        W65285   2.271   1.886   1.742
92971W        W65286  17.611   1.308   2.184
92972W        W65287  43.907  39.560  14.312
92973W        W65288  41.975  14.198   4.290
92974W        W65289  35.066  15.169   2.337
92975W        W65290  39.041  35.090   5.178
92976W        W65291   6.193  27.957  11.585
92977W        W65292  14.201  29.067   4.671
92978W        W65293  44.791  34.040  11.896
92979W        W65294  25.579  39.036  14.411
92980W        W65295  18.055  16.583   3.353
92981W        W65296  20.051   7.825  11.125
92982W        W65297  24.019  16.614   2.838
92983W        W65298  12.220  24.181   0.729
92984W        W65299   5.411  26.195  12.384
92985W        W65300  37.556  16.169  13.433
92986W        W65301   7.214  41.421  11.044
92987W        W65302  36.047  22.703  11.482
92988W        W65303   1.271  15.650   4.682
92989W        W65304  38.392  34.935   0.823
92990W        W65305  44.920  37.972  11.117
92991W        W65306   5.403   8.656  13.331
92992W        W65307  12.163  35.538  12.084
92993W        W65308  32.474  20.716  10.593
92994W        W65309  26.537  17.250  11.907
92995W        W65310  31.522  15.601  14.990
92996W        W65311  30.969  44.394   3.195
92997W        W65312   3.398  17.639  14.442
92998W        W65313   1.909  37.474   1.885
92999W        W65314  12.136  35.467   1.775
93000W        W65315   0.940  21.210   1.923
93001W        W65316   1.267  28.998   4.237
93002W        W65317  35.865   8.350   4.338
93003W        W65318  36.523  28.984   4.295
93004W        W65319  17.234  24.228   0.329
93005W        W65320  20.127   3.308  14.510
93006W        W65321   1.301  10.198  14.788
93007W        W65322  18.246  39.380   0.351
93008W        W65323  24.719   0.952  12.839
93009W        W65324   3.450  15.680   2.670
93010W        W65325   4.865  42.383  10.531
93011W        W65326  12.797   2.427   4.234
93012W        W65327  32.577   7.325  10.560
93013W        W65328  23.645  41.969  14.419
93014W        W65329  10.819  43.383  11.382
93015W        W65330   2.883  11.686  13.507
93016W        W65331   6.836  23.210  13.428
93017W        W65332  12.263   7.800   0.818
93018W        W65333  11.840  19.197  14.885
93019W        W65334  24.119  43.002   4.213
93020W        W65335   9.732  27.454   4.188
93021W        W65336   1.790   9.882  10.523
93022W        W65337  21.087  22.706   5.177
93023W        W65338   3.906  10.644  10.943
93024W        W65339  42.948  32.970   4.224
93025W        W65340  26.089  12.235  14.514
93026W        W65341  38.844  11.229  10.905
93027W        W65342  24.676  19.590   1.829
93028W        W65343  14.834   4.348  12.910
93029W        W65344  41.522   1.456  11.502
93030W        W65345  17.080  14.106  13.053
93031W        W65346  16.576   3.311  13.385
93032W        W65347   8.233  24.651  13.035
93033W        W65348  28.103  40.835   9.951
93034W        W65349  19.206   4.894  12.095
93035W        W65350   8.765  13.654   0.880
93036W        W65351  28.674  30.620  14.931
93037W        W65352  12.732   6.814  14.758
93038W        W65353   9.821  31.004  11.893
93039W        W65354   7.878  17.705   2.720
93040W        W65355  17.062  14.289  12.026
93041W        W65356  38.434  35.968   4.132
93042W        W65357   0.316  20.266   2.384
93043W        W65358  41.901  38.503   2.791
93044W        W65359  13.703  18.149  12.488
93045W        W65360  14.730   6.895   3.699
93046W        W65361   8.791  40.354   4.195
93047W        W65362  44.398  31.463   2.350
93048W        W65363  12.649   8.674  13.034
93049W        W65364  21.059  14.656   2.759
93050W        W65365  44.350  39.947   1.852
93051W        W65366  11.341  19.617  12.013
93052W        W65367   6.398   1.394  10.439
93053W        W65368  13.599  44.295   1.408
93054W        W65369  19.064  43.480   1.810
93055W        W65370   5.927   9.318  14.788
93056W        W65371  36.509  22.547  14.338
93057W        W65372  42.915   9.696  10.625
93058W        W65373  12.144  35.102   0.741
93059W        W65374  35.503   8.325   1.405
93060W        W65375  38.969  35.459   1.829
93061W        W65376  35.479  33.517   0.413
93062W        W65377  30.627   5.361  14.939
93063W        W65378  42.794  10.780  10.991
93064W        W65379   3.820   9.805   0.760
93065W        W65380  38.987  43.380   1.242
93066W        W65381  42.927  35.492  11.857
93067W        W65382  44.393  11.705   0.742
93068W        W65383  32.457  11.752   1.766
93069W        W65384   2.779  38.564  14.452
93070W        W65385  19.252  38.958   9.955
93071W        W65386  11.663   2.908   0.948
93072W        W65387  11.679   5.862  13.547
93073W        W65388  17.740  41.420  13.538
93074W        W65389  14.695   7.727  10.637
93075W        W65390   1.304  38.349   0.309
93076W        W65391  12.784  42.807  12.971
93077W        W65392  18.070  34.106   4.825
93078W        W65393   1.294  39.877   1.365
93079W        W65394   2.236  34.539  13.421
93080W        W65395   9.213  29.591   0.301
93081W        W65396  34.467   4.938   2.760
93082W        W65397  43.484  43.988   4.249
93083W        W65398  21.719  22.571  12.882
93084W        W65399  37.939  17.205  14.474
93085W        W65400  27.465  44.412   1.837
93086W        W65401  28.678  12.852   3.840
93087W        W65402  29.462  14.763  10.618
93088W        W65403   8.312  11.350  10.407
93089W        W65404   5.280  39.558  14.881
93090W        W65405  43.009  25.470  10.479
93091W        W65406  38.858  25.564   2.716
93092W        W65407   4.384   6.732  14.022
93093W        W65408  23.706   2.359   2.338
93094W        W65409  11.653  41.901   4.231
93095W        W65410  43.872  21.549   3.834
93096W        W65411  26.192  44.835   1.300
93097W        W65412   2.407  34.110  14.797
93098W        W65413   5.910  26.511  13.972
93099W        W65414   0.953  28.179  12.527
93100W        W65415  36.385  18.248   2.847
93101W        W65416   7.821  43.430  10.977
93102W        W65417  28.502  33.541  14.464
93103W        W65418  27.505  23.694  10.989
93104W        W65419  33.528  13.748   4.157
93105W        W65420  39.063  37.503  14.430
93106W        W65421  24.995  39.826   3.352
93107W        W65422  15.622  33.885   0.272
93108W        W65423  34.960   0.277  14.350
93109W        W65424  44.934  26.468  10.018
93110W        W65425  35.436  30.513   2.389
93111W        W65426  19.665  30.927   3.344
93112W        W65427  16.650  31.076   5.090
93113W        W65428  23.151  18.590   5.296
93114W        W65429  26.105  31.140   3.797
93115W        W65430  32.103  14.332  14.480
93116W        W65431  17.094  22.152   3.808
93117W        W65432  30.921  21.235  10.914
93118W        W65433  38.566   6.238  14.351
93119W        W65434  16.760   9.664  12.537
93120W        W65435  15.771   9.709  12.458
93121W        W65436  14.743  28.027   3.866
93122W        W65437  19.049   7.768   3.762
93123W        W65438   0.472  26.636  11.575
93124W        W65439  25.712  32.062   4.206
93125W        W65440  34.542  30.942   0.368
93126W        W65441  36.892  10.692   2.696
93127W        W65442  43.506  27.653  11.466
93128W        W65443  19.685   7.900  12.946
93129W        W65444  27.024  29.638   1.424
93130W        W65445  29.483   0.272   3.332
93131W        W65446  34.926  12.620   2.364
93132W        W65447  12.789   9.877  14.336
93133W        W65448  43.400  17.763   0.290
93134W        W65449  32.937  44.358  11.073
93135W        W65450  39.946  19.158  11.476
93136W        W65451  22.664   2.964   0.419
93137W        W65452   0.972  19.763   1.877
93138W        W65453  43.305   1.931  13.894
93139W        W65454  41.418  27.004  14.365
93140W        W65455  42.950  36.069   1.721
93141W        W65456  33.510  40.489  13.334
93142W        W65457  29.510  35.956   2.304
93143W        W65458  25.983  22.194   2.893
93144W        W65459  33.422  20.043  14.807
93145W        W65460  41.852  33.409   4.122
93146W        W65461  23.198  35.040   3.634
93147W        W65462  31.414  27.046  14.341
93148W        W65463  38.037   4.280   1.347
93149W        W65464  38.359   6.196   0.384
93150W        W65465  43.448   8.194   1.389
93151W        W65466  17.284   2.964   0.477
93152W        W65467   8.250  44.307  10.612
93153W        W65468  16.691   4.750   0.867
93154W        W65469  28.983  29.078   4.298
93155W        W65470   5.222  23.490  12.551
93156W        W65471  38.986  40.956   0.793
93157W        W65472   6.409  30.508   0.785
93158W        W65473  20.590  27.980  11.528
93159W        W65474  17.594  28.612   2.227
93160W        W65475   9.701  44.411   1.257
93161W        W65476  36.954  43.811   2.406
93162W        W65477  30.029  17.243  11.374
93163W        W65478  34.097   9.292  14.950
93164W        W65479  38.348  28.571   3.274
93165W        W65480  21.609   6.248  14.294
93166W        W65481   3.390   4.421   4.614
93167W        W65482   5.722  16.599  12.963
93168W        W65483  44.963  39.993   4.671
93169W        W65484  43.774   8.253   3.305
93170W        W65485  41.349  16.616   2.179
93171W        W65486   6.329  38.359  10.615
93172W        W65487  28.146   7.756   4.736
93173W        W65488  22.543  31.626   3.865
93174W        W65489   4.342  29.077   3.171
93175W        W65490  44.458  23.205   1.728
93176W        W65491  27.163  11.765   2.372
93177W        W65492   9.377  27.584   0.254
93178W        W65493  21.738  26.562   3.772
93179W        W65494  12.202   3.849  14.920
93180W        W65495   7.228  27.955   1.318
93181W        W65496  32.073  26.527  13.476
93182W        W65497  35.547  12.653  11.415
93183W        W65498  13.333   3.271  10.156
93184W        W65499  36.001  34.496  14.491
93185W        W65500  33.026  43.843  11.000
93186W        W65501  16.264  10.280   4.153
93187W        W65502  30.927  13.631   3.368
93188W        W65503  19.774  39.050   1.266
93189W        W65504   9.226  17.623   5.191
93190W        W65505  44.988  14.768   3.732
93191W        W65506  13.651  44.934  11.106
93192W        W65507  43.415  19.276   1.358
93193W        W65508  25.142  42.956  13.028
93194W        W65509   2.734   7.812   1.250
93195W        W65510   5.436  18.770  10.938
93196W        W65511   4.251   4.747  13.540
93197W        W65512   4.908  42.807   0.378
93198W        W65513  43.933  23.678  10.545
93199W        W65514  18.569   3.220  14.869
93200W        W65515  19.683   2.725   3.829
93201W        W65516  44.406   3.761  11.461
93202W        W65517  33.944  11.753  12.985
93203W        W65518  23.061  21.658  14.504
93204W        W65519  39.958  32.535  13.980
93205W        W65520  39.557  40.822   4.271
93206W        W65521   2.950   7.301   2.757
93207W        W65522   7.351  32.613   4.195
93208W        W65523  28.516  12.230  11.064
93209W        W65524  31.034  34.598  13.399
93210W        W65525   3.792  41.848   2.276
93211W        W65526  35.071  41.034   4.717
93212W        W65527  31.540   9.258  11.514
93213W        W65528  23.104  19.147  13.457
93214W        W65529  15.144  36.489  14.380
93215W        W65530  43.847  17.205   0.782
93216W        W65531  11.662  24.096   1.837
93217W        W65532  33.979  42.909  13.027
93218W        W65533  26.014  38.505  11.082
93219W        W65534  16.669  36.527   4.175
93220W        W65535  13.132   1.239  13.395
93221W        W65536  11.363  41.999  10.589
93222W        W65537  26.691   6.197   4.217
93223W        W65538   2.917   0.380  11.479
93224W        W65539  28.938  31.460  11.400
93225W        W65540  37.409  24.090   2.746
93226W        W65541  21.085  30.018  12.531
93227W        W65542  19.647  19.569   0.759
93228W        W65543  33.900  30.027   1.791
93229W        W65544  27.163   8.761   4.170
93230W        W65545   6.287  25.613   0.757
93231W        W65546   4.230  17.288  12.902
93232W        W65547   1.274  25.163   4.257
93233W        W65548  13.311   5.312  13.024
93234W        W65549  17.091  15.194   0.357
93235W        W65550  10.831  27.552   3.248
93236W        W65551  14.188  18.650   1.723
93237W        W65552   6.718  42.352  13.994
93238W        W65553  40.994   4.752   0.963
93239W        W65554   7.383   2.263   4.760
93240W        W65555   9.683  36.916  11.562
93241W        W65556  17.114  16.702  13.540
93242W        W65557  42.911  25.209  13.386
93243W        W65558  37.418  30.009  10.602
93244W        W65559   3.300  13.712  13.547
93245W        W65560   7.203  41.929  12.912
93246W        W65561  42.780  29.593  14.024
93247W        W65562  28.669  18.291  10.416
93248W        W65563  42.309  33.895   0.911
93249W        W65564  26.492  11.845   4.663
93250W        W65565   0.906  26.556   2.776
93251W        W65566  38.476   2.858   3.291
93252W        W65567  26.993  25.634  10.412
93253W        W65568  22.586  44.840   1.845
93254W        W65569  10.725  15.794  14.371
93255W        W65570   0.269  44.416  11.387
93256W        W65571  13.745  34.608   1.322
93257W        W65572  38.538  12.302   2.228
93258W        W65573  26.075  36.910   2.687
93259W        W65574  40.479  38.453   2.340
93260W        W65575  25.184   3.228   3.849
93261W        W65576  43.427   8.386   0.349
93262W        W65577   7.252  36.474   2.745
93263W        W65578  41.474  16.590  10.900
93264W        W65579   0.414  40.536   2.276
93265W        W65580  26.952  37.894   1.927
93266W        W65581  16.651   4.353  11.069
93267W        W65582  31.137  30.601  14.004
93268W        W65583   4.227  19.264  14.972
93269W        W65584  32.910  33.060  12.524
93270W        W65585  34.987  23.591   1.275
93271W        W65586  22.676  16.773   1.911
93272W        W65587  26.565  23.524  10.016
93273W        W65588  23.716  19.091   1.786
93274W        W65589  12.180  12.620  11.025
93275W        W65590  40.939  19.055  12.476
93276W        W65591  42.361  18.591  12.348
93277W        W65592  20.240  27.596  12.551
93278W        W65593  12.630  15.179  13.335
93279W        W65594  38.840  28.099  14.478
93280W        W65595  23.560  27.622   3.211
93281W        W65596  36.370  22.642   2.857
93282W        W65597   0.485   6.306   4.268
93283W        W65598  17.709  40.498   4.146
93284W        W65599   4.213   9.723   1.818
93285W        W65600   1.761   5.384  12.394
93286W        W65601  23.167  20.576   4.204
93287W        W65602   9.874  10.826   3.280
93288W        W65603  17.597  16.662  14.418
93289W        W65604  36.977  36.479  14.924
93290W        W65605  28.966  26.619   4.329
93291W        W65606   9.334   4.779  14.299
93292W        W65607  37.341   2.391   1.881
93293W        W65608  37.083   2.764  11.982
93294W        W65609  26.531  35.369  13.452
93295W        W65610  31.519  20.163   0.893
93296W        W65611  16.742  13.643   3.290
93297W        W65612  25.603   7.225  12.960
93298W        W65613  14.629  17.763   4.739
93299W        W65614  20.741  27.446  13.455
93300W        W65615   2.434  13.346   2.800
93301W        W65616   0.982  37.073  14.009
93302W        W65617   1.404  14.215  10.557
93303W        W65618  33.875   9.865  12.461
93304W        W65619   5.853  20.558   4.771
93305W        W65620  44.442   8.309   0.380
93306W        W65621  17.795   5.390   3.164
93307W        W65622  17.127  11.794   1.283
93308W        W65623  22.250  35.881  13.895
93309W        W65624  39.959   7.859   0.395
93310W        W65625  19.266   1.848  14.029
93311W        W65626  14.099  41.870   1.222
93312W        W65627  40.507  13.142   3.780
93313W        W65628  40.385  27.008   2.402
93314W        W65629  42.891  28.031  13.321
93315W        W65630   2.838  26.617  11.119
93316W        W65631   7.394  38.429  10.623
93317W        W65632  41.388   7.264  10.993
93318W        W65633  21.670  24.189  13.799
93319W        W65634   6.840  35.549   2.265
93320W        W65635  30.931   4.918  10.960
93321W        W65636  11.156   9.166  12.533
93322W        W65637   7.778  30.972   1.905
93323W        W65638  12.684  40.319   1.724
93324W        W65639  12.658   3.941  12.466
93325W        W65640   6.820  40.410   0.962
93326W        W65641  35.027   5.219   4.825
93327W        W65642   0.393  11.725   5.298
93328W        W65643   7.733  10.766  13.414
93329W        W65644  29.093  25.618  14.299
93330W        W65645   0.346  12.841  12.559
93331W        W65646   3.859   2.278  14.458
93332W        W65647  34.952   9.225  14.403
93333W        W65648  24.517  17.653  12.005
93334W        W65649  43.886   6.182  12.446
93335W        W65650   8.794   1.784   1.819
93336W        W65651  41.459  17.235   4.276
93337W        W65652  12.305  23.698  14.838
93338W        W65653  21.534   9.757   3.361
93339W        W65654  18.157  16.169  12.376
93340W        W65655   6.845   5.210  11.573
93341W        W65656  15.662  43.301   1.756
93342W        W65657  19.737  20.704  13.470
93343W        W65658   0.879   8.774  12.841
93344W        W65659  22.157  27.156  13.844
93345W        W65660   1.330   0.311  11.412
93346W        W65661  36.877  26.498  13.505
93347W        W65662  30.071  33.886  11.568
93348W        W65663  14.779  28.642   0.762
93349W        W65664  38.034  15.241   3.726
93350W        W65665  26.639  24.626  11.520
93351W        W65666  23.607   2.233  10.928
93352W        W65667  42.289  13.754   0.350
93353W        W65668  25.631  42.461  11.110
93354W        W65669  35.363   3.923  13.872
93355W        W65670  14.163  23.674  12.913
93356W        W65671  10.640  40.013  14.769
93357W        W65672  40.047  22.231  13.951
93358W        W65673   9.864  27.517  12.057
93359W        W65674   7.884  39.936  13.029
93360W        W65675  10.189  24.107  11.455
93361W        W65676  11.350  43.382   0.759
93362W        W65677  41.308  20.701  11.995
93363W        W65678  32.634  29.630  11.930
93364W        W65679  18.194   9.879   5.267
93365W        W65680  20.744  33.112  14.014
93366W        W65681  31.617  11.738  14.501
93367W        W65682   6.246  28.583  10.922
93368W        W65683  39.032  42.488  14.029
93369W        W65684  15.710  22.679  14.511
93370W        W65685  44.902   6.352   2.766
93371W        W65686  34.593  28.982   0.825
93372W        W65687  25.631   7.199   4.613
93373W        W65688  41.329   3.293   2.188
93374W        W65689  38.475  28.144   3.208
93375W        W65690   4.442  40.973   3.691
93376W        W65691   3.954  10.672   2.878
93377W        W65692  12.738  26.515   2.777
93378W        W65693  33.119  39.028  12.962
93379W        W65694  35.452  42.371   0.780
93380W        W65695  10.802  13.348   2.241
93381W        W65696  20.180   0.892   4.652
93382W        W65697  19.679  20.593  11.111
93383W        W65698   2.872   4.711  13.470
93384W        W65699  13.150   8.277  14.832
93385W        W65700  14.196  21.036  11.527
93386W        W65701  33.419  17.208   0.465
93387W        W65702  43.431  25.514   2.207
93388W        W65703   2.950  20.550  13.830
93389W        W65704  22.162  24.504  14.344
93390W        W65705  23.648  44.764   1.438
93391W        W65706  31.071  23.158  14.367
93392W        W65707  34.565  30.514   0.795
93393W        W65708   4.422  28.508   3.655
93394W        W65709  22.021   1.930  11.927
93395W        W65710  11.272  37.874  12.344
93396W        W65711  34.013  37.535  13.383
93397W        W65712   0.301  11.638   3.713
93398W        W65713  40.925   2.729   3.382
93399W        W65714   5.227  30.048   1.926
93400W        W65715   2.727  13.308   2.236
93401W        W65716  40.398  29.984   2.848
93402W        W65717  24.189  11.812  14.996
93403W        W65718  31.994   8.735  11.521
93404W        W65719  16.084  15.593  13.520
93405W        W65720  44.441  38.454  12.569
93406W        W65721  17.176  37.939   3.869
93407W        W65722  40.850   8.669   4.656
93408W        W65723   2.448  17.626  10.613
93409W        W65724   0.480  29.070   4.601
93410W        W65725   4.772  33.007  13.982
93411W        W65726  11.219  27.110   1.718
93412W        W65727  33.882  13.797  12.940
93413W        W65728  16.778  16.665   4.235
93414W        W65729  30.591   8.848  11.982
93415W        W65730   8.405  38.558  10.990
93416W        W65731   1.850  32.437   2.333
93417W        W65732   3.281   7.799   3.836
93418W        W65733   3.216  10.744  13.914
93419W        W65734  12.647  37.014   3.716
93420W        W65735  23.521  28.130  12.341
93421W        W65736  44.294  27.609  11.994
93422W        W65737  33.523  21.599  10.923
93423W        W65738  44.916   6.317  13.840
93424W        W65739   0.912  21.655   1.819
93425W        W65740  15.096  11.689  14.296
93426W        W65741  13.677  27.633  12.393
93427W        W65742  39.980  14.721  12.869
93428W        W65743  34.418  35.597  14.960
93429W        W65744  33.622  15.104  13.812
93430W        W65745  13.622  29.559  13.963
93431W        W65746   8.698  30.956  14.017
93432W        W65747  16.299  40.501  13.941
93433W        W65748  37.035  40.844   2.305
93434W        W65749  25.669  22.028  10.578
93435W        W65750  33.967  40.528   0.960
93436W        W65751  19.573  15.663  10.601
93437W        W65752  31.598  34.047   1.777
93438W        W65753  16.683  26.018   1.893
93439W        W65754  30.542  29.594   2.374
93440W        W65755  14.298  38.973   3.326
93441W        W65756  12.118  40.302  11.933
93442W        W65757  20.257   4.885  12.550
93443W        W65758  16.741   8.354   3.734
93444W        W65759  14.708  30.141  11.419
93445W        W65760   0.904  29.622  14.883
93446W        W65761  25.598   3.421  10.142
93447W        W65762  27.588  43.895  13.924
93448W        W65763  32.515  17.581   1.237
93449W        W65764  22.074  18.666  11.499
93450W        W65765  31.611  32.406   3.750
93451W        W65766   2.266  15.759  11.439
93452W        W65767   6.237  17.668   3.774
93453W        W65768  15.239   2.823  10.479
93454W        W65769  33.921  27.162   4.351
93455W        W65770  31.908  27.158  12.339
93456W        W65771  37.974   2.312   0.316
93457W        W65772  44.413  16.724  13.907
93458W        W65773   3.442  22.664   1.406
93459W        W65774  17.594  29.972   1.703
93460W        W65775  19.198   9.793   4.682
93461W        W65776  31.036  21.046   5.143
93462W        W65777  28.083  14.613   3.189
93463W        W65778  35.555  18.594  12.851
93464W        W65779  30.460  16.699   3.754
93465W        W65780  28.993   7.300  12.931
93466W        W65781  25.195  26.143   1.752
93467W        W65782   7.737   5.382   0.289
93468W        W65783   1.255  17.637  12.482
93469W        W65784   4.851  17.646  13.409
93470W        W65785  13.217  33.472  10.621
93471W        W65786  36.364  31.545   4.696
93472W        W65787  25.712  43.380  14.028
93473W        W65788  42.308  28.056  14.851
93474W        W65789  36.416  42.356  14.767
93475W        W65790   0.835  24.156   2.786
93476W        W65791  30.480   5.689  10.908
93477W        W65792  13.250   7.816   3.836
93478W        W65793  20.182  34.996  13.309
93479W        W65794   5.407   4.297   4.666
93480W        W65795  14.123  26.665  13.504
93481W        W65796  30.105  26.469  14.481
93482W        W65797   3.833   8.744  11.491
93483W        W65798   9.384   8.247  12.442
93484W        W65799  28.982  14.251   1.917
93485W        W65800   8.658   2.733  13.965
93486W        W65801  16.646  21.077   2.334
93487W        W65802   6.373  25.566  13.419
93488W        W65803   7.686  39.937  12.526
93489W        W65804  44.880  41.390  11.127
93490W        W65805  24.517  37.969  12.983
93491W        W65806  43.811  25.478   2.835
93492W        W65807   7.344  25.516  13.406
93493W        W65808  18.612  41.506   0.375
93494W        W65809   0.317   2.299   0.475
93495W        W65810  23.139  18.639   3.334
93496W        W65811  18.179   6.231   2.281
93497W        W65812   8.821  32.487  12.999
93498W        W65813  29.927  15.119  13.468
93499W        W65814  28.515  43.791  14.380
93500W        W65815  40.339  34.597  12.357
93501W        W65816  13.134  20.070   3.261
93502W        W65817  28.457  28.957   1.395
93503W        W65818   0.979  20.608  12.919
93504W        W65819  24.572   7.897  12.905
93505W        W65820  24.111   6.324  14.855
93506W        W65821  26.955  29.924  11.403
93507W        W65822  19.088  17.689   4.250
93508W        W65823  15.268  18.263   4.333
93509W        W65824  25.034  41.930  12.840
93510W        W65825  41.414  40.510   2.883
93511W        W65826  29.050  43.923  12.455
93512W        W65827   1.977  16.670   1.439
93513W        W65828  24.648  42.987   4.812
93514W        W65829  34.565  37.440   0.319
93515W        W65830  40.539  20.191   4.820
93516W        W65831  44.761  32.126  11.516
93517W        W65832  10.677   2.390   0.760
93518W        W65833   8.789  32.574   2.783
93519W        W65834   4.268  12.636  14.872
93520W        W65835  15.595  23.069  12.955
93521W        W65836  42.860  33.570   2.267
93522W        W65837  28.456   1.967   4.604
93523W        W65838  25.010   3.410   4.645
93524W        W65839  24.595  13.781   2.867
93525W        W65840  35.958  34.048   2.395
93526W        W65841  14.696  32.462   4.188
93527W        W65842  26.658  27.460  12.892
93528W        W65843   9.282  41.856  12.428
93529W        W65844  38.459  39.543  11.083
93530W        W65845  22.567  23.618   1.849
93531W        W65846   4.379   1.257  13.960
93532W        W65847  15.268   2.239  11.943
93533W        W65848  18.789  21.214  14.957
93534W        W65849  29.522   6.846  11.988
93535W        W65850   7.844  41.831   1.416
93536W        W65851  21.105   8.671   4.834
93537W        W65852   3.216  13.329  12.935
93538W        W65853  16.300  34.928  12.531
93539W        W65854  44.958  34.561   0.404
93540W        W65855  15.767  31.440   2.347
93541W        W65856   9.251  40.314   4.159
93542W        W65857  28.166  13.237   1.807
93543W        W65858  34.074  41.960  14.473
93544W        W65859  23.681   4.706  12.529
93545W        W65860  43.849  10.796   2.841
93546W        W65861  44.787  20.713  13.500
93547W        W65862   8.280  42.966   0.480
93548W        W65863  29.933   1.427   3.237
93549W        W65864  39.970  18.667   2.903
93550W        W65865   0.981  27.096  14.409
93551W        W65866  10.654  16.106   0.300
93552W        W65867  15.292  32.496   1.772
93553W        W65868  43.329  36.056   1.405
93554W        W65869  43.441  35.002   4.309
93555W        W65870  11.622  35.035  13.979
93556W        W65871   8.360  17.591  14.767
93557W        W65872  39.316  30.466   0.468
93558W        W65873   4.392  18.261  12.071
93559W        W65874  23.607  13.672  10.989
93560W        W65875  41.531  29.026   3.705
93561W        W65876  37.016  18.609   1.433
93562W        W65877  22.217  19.748  12.058
93563W        W65878  26.633  36.505  14.425
93564W        W65879  12.184  34.549  14.963
93565W        W65880  12.306  40.815   0.430
93566W        W65881   9.646   8.675   0.347
93567W        W65882  13.811  38.910   3.655
93568W        W65883  37.831  11.776  11.485
93569W        W65884  42.403  27.472   2.364
93570W        W65885  18.087   1.867  10.403
93571W        W65886  26.082   5.894   9.543
93572W        W65887  44.774  16.574  10.479
93573W        W65888  31.116  44.887  13.359
93574W        W65889  34.093  26.647   9.973
93575W        W65890   5.269  39.328   1.310
93576W        W65891   9.211  44.827   2.286
93577W        W65892   0.466  11.639   9.992
93578W        W65893  15.813  16.205   0.392
93579W        W65894  23.707  11.862   1.347
93580W        W65895  41.873  24.620   1.264
93581W        W65896  24.499  32.891   3.221
93582W        W65897  20.735  43.510  14.372
93583W        W65898  18.096  36.899  11.068
93584W        W65899   4.268  35.988  13.958
93585W        W65900  28.625  19.604   4.816
93586W        W65901  38.989  37.482   1.438
93587W        W65902   8.244  10.828   2.220
93588W        W65903  10.281  17.688   2.869
93589W        W65904  31.562   5.700   3.253
93590W        W65905   1.879  44.854  13.538
93591W        W65906  41.294  34.516  11.410
93592W        W65907  13.208  24.985   4.256
93593W        W65908   6.825   3.918   3.384
93594W        W65909  19.124  19.250   3.686
93595W        W65910  20.081  28.492   4.673
93596W        W65911  22.500  32.894  12.368
93597W        W65912  28.958  11.859   3.646
93598W        W65913  20.539   1.297   1.403
93599W        W65914   1.474  30.085  14.401
93600W        W65915  16.775  17.241   2.797
93601W        W65916  23.170  39.939  13.821
93602W        W65917  40.393  10.308  10.491
93603W        W65918  34.557  34.547   3.714
93604W        W65919   4.263  41.980  14.366
93605W        W65920   9.834   4.369  13.354
93606W        W65921  34.383  26.181  10.556
93607W        W65922  10.716  41.006  11.031
93608W        W65923   5.368  33.564   4.290
93609W        W65924  31.076  28.117   4.234
93610W        W65925  20.633   0.351  13.965
93611W        W65926  26.090  42.897  10.514
93612W        W65927  12.756  24.494  11.896
93613W        W65928  10.844  33.090  12.426
93614W        W65929  13.242   5.415  13.482
93615W        W65930  16.587  26.568  11.496
93616W        W65931  23.551  36.398   1.437
93617W        W65932   0.931  21.676  13.504
93618W        W65933  27.490   8.375   0.912
93619W        W65934   7.844  34.081   3.813
93620W        W65935  26.098  13.796  12.948
93621W        W65936  24.035  28.066   1.795
93622W        W65937   1.308   3.234   1.256
93623W        W65938  17.140  25.037   3.747
93624W        W65939  43.863  44.502  14.937
93625W        W65940   4.806   7.198   1.400
93626W        W65941  41.410  41.982   1.921
93627W        W65942  26.136  34.961   4.720
93628W        W65943  43.900  35.530   0.447
93629W        W65944   2.904  20.208  13.903
93630W        W65945   3.774  22.509   3.674
93631W        W65946  11.350  40.382  11.490
93632W        W65947  17.281  13.666   2.718
93633W        W65948  36.886  25.115   4.345
93634W        W65949   7.876  23.168  14.372
93635W        W65950   3.860   2.322  10.566
93636W        W65951   3.783  19.119  12.515
93637W        W65952  35.549  32.623   1.858
93638W        W65953  20.160   8.206  12.465
93639W        W65954  39.435  44.811   2.327
93640W        W65955  21.736  25.004  10.500
93641W        W65956  38.846  10.834   2.890
93642W        W65957  19.777   6.190  11.589
93643W        W65958  17.134   7.746  13.518
93644W        W65959  19.693  28.643  10.974
93645W        W65960  38.827   1.954   2.239
93646W        W65961  40.030  30.963   3.248
93647W        W65962  17.639  30.106   0.814
93648W        W65963  30.529   6.254   0.264
93649W        W65964  25.647   1.850  11.423
93650W        W65965   8.659  28.644   2.743
93651W        W65966  35.985  20.136  13.490
93652W        W65967  24.161  38.030   3.697
93653W        W65968  29.028  23.541   1.299
93654W        W65969  22.687   9.755   1.385
93655W        W65970  16.309  33.591   4.737
93656W        W65971  14.155  23.240  12.402
93657W        W65972   9.382  34.429   3.276
93658W        W65973   6.737  15.085  11.872
93659W        W65974  10.650  18.207  14.313
93660W        W65975  29.955  44.268  13.852
93661W        W65976  27.062  14.100   1.369
93662W        W65977  41.919  31.604  13.040
93663W        W65978  31.638  43.866   1.915
93664W        W65979  44.753  38.053  13.862
93665W        W65980  25.628  37.073   0.474
93666W        W65981  31.604  34.881   3.786
93667W        W65982   3.263  19.147  10.563
93668W        W65983  13.271  21.647   1.874
93669W        W65984   3.368  11.265   4.779
93670W        W65985  36.503  11.642  13.950
93671W        W65986  41.350  37.582  12.881
93672W        W65987  18.764  16.133  14.822
93673W        W65988  40.909  18.251  13.350
93674W        W65989  17.711  39.038   3.161
93675W        W65990  16.788   8.894   2.356
93676W        W65991  21.111  25.089   1.433
93677W        W65992  41.537  28.542   2.378
93678W        W65993  29.531   7.863  14.843
93679W        W65994  15.105  27.965   0.353
93680W        W65995  40.976  18.707   0.275
93681W        W65996  39.513  10.309  12.379
93682W        W65997  10.747  30.573  13.340
93683W        W65998  24.101   6.797   4.688
93684W        W65999   3.458  32.511   0.397
93685W        W66000  43.360  40.459   3.211
93686W        W66001  26.576   4.715   3.192
93687W        W66002  35.363  20.165   0.293
93688W        W66003   9.757  19.542  10.592
93689W        W66004   2.235  36.402   5.173
93690W        W66005  28.062  17.207   5.149
93691W        W66006   7.774  12.182  12.953
93692W        W66007  17.263  37.462   4.812
93693W        W66008  23.161  40.897  10.428
93694W        W66009  31.113  23.984  13.966
93695W        W66010  16.666  18.078   1.772
93696W        W66011  31.153  32.537  12.443
93697W        W66012   8.754  10.857   0.428
93698W        W66013  37.491  31.483  12.895
93699W        W66014  26.199   8.290  12.044
93700W        W66015   4.226  16.768   3.342
93701W        W66016  41.371  40.027  13.014
93702W        W66017  25.034  28.541   3.213
93703W        W66018  26.463   9.653  11.892
93704W        W66019  39.872  12.733  14.365
93705W        W66020  42.380  12.167  11.077
93706W        W66021  14.322  10.655   0.355
93707W        W66022  28.948   9.889   2.360
93708W        W66023  20.163  25.640  13.051
93709W        W66024  38.908  28.462   2.828
93710W        W66025   8.165  12.699  13.018
93711W        W66026   3.403  23.601   1.232
93712W        W66027  15.141  17.716  11.004
93713W        W66028  21.573  38.543  11.410
93714W        W66029  20.617   2.894   1.858
93715W        W66030  28.499  36.989  12.516
93716W        W66031  35.866  11.371   3.668
93717W        W66032  25.991  42.370  13.420
93718W        W66033   3.952  21.683   2.709
93719W        W66034  35.891  29.554  12.390
93720W        W66035  10.333   6.291  12.377
93721W        W66036  38.064  27.034  11.001
93722W        W66037   3.869   7.356  13.915
93723W        W66038  31.104  41.926   1.445
93724W        W66039  41.501  10.681  13.945
93725W        W66040   1.296   8.702  11.907
93726W        W66041  29.536  12.624   3.681
93727W        W66042  39.366  38.831  10.561
93728W        W66043   1.272  19.056   3.658
93729W        W66044  13.127  14.181   2.249
93730W        W66045  21.730  32.523   3.304
93731W        W66046  23.563  16.795  11.555
93732W        W66047   1.906   2.366   4.231
93733W        W66048  36.032  29.088   0.904
93734W        W66049   9.261  31.138  14.032
93735W        W66050  41.352  21.697   2.865
93736W        W66051  24.979  16.126  13.459
93737W        W66052  10.665   5.700   3.668
93738W        W66053  28.671  19.093  12.079
93739W        W66054   0.315  31.093  14.879
93740W        W66055  25.008   9.678   4.811
93741W        W66056  35.862   5.249   4.306
93742W        W66057   1.827  11.148   5.166
93743W        W66058  13.794  41.929   0.865
93744W        W66059  31.624  43.771   0.392
93745W        W66060   9.178   3.344  10.515
93746W        W66061  27.038  31.623   3.788
93747W        W66062  10.267  26.115  12.526
93748W        W66063  44.468  37.521  13.378
93749W        W66064   7.791   2.808  12.969
93750W        W66065   2.270  25.706   2.181
93751W        W66066  29.624  33.978   0.873
93752W        W66067  13.124  21.672  12.027
93753W        W66068  13.719  14.215   3.787
93754W        W66069  13.831   4.777  13.806
93755W        W66070  36.086   9.239   3.691
93756W        W66071  44.434  43.394  13.506
93757W        W66072  24.018  33.560   3.320
93758W        W66073  40.421  17.145   0.874
93759W        W66074  35.548  43.482   4.172
93760W        W66075  23.165  18.088   3.741
93761W        W66076  20.530  15.779  13.526
93762W        W66077  13.265  35.577  11.398
93763W        W66078   9.221  36.053  10.973
93764W        W66079  18.574   6.350  11.039
93765W        W66080  29.562  44.822   0.883
93766W        W66081  34.981  41.315  10.071
93767W        W66082  41.825  13.829   4.746
93768W        W66083   3.799  40.548  11.374
93769W        W66084  22.042  34.450  11.449
93770W        W66085  43.860  12.750  13.003
93771W        W66086   5.729  38.055  14.458
93772W        W66087  42.467  42.933  10.498
93773W        W66088  10.731   8.766   4.182
93774W        W66089  14.105  42.914  14.011
93775W        W66090  24.495  30.575   3.273
93776W        W66091  41.387  12.666   2.274
93777W        W66092  42.920  40.536   0.281
93778W        W66093  40.540  39.035   5.228
93779W        W66094   9.676  12.337   3.341
93780W        W66095  12.741   2.392  10.982
93781W        W66096  31.534  21.025   2.229
93782W        W66097   1.366  41.951  12.871
93783W        W66098  44.308  33.505  11.469
93784W        W66099  32.916  22.562   1.216
93785W        W66100  26.474  42.404  11.426
93786W        W66101   1.860  36.880  12.922
93787W        W66102  38.429   6.263  13.982
93788W        W66103  10.342  42.336  14.287
93789W        W66104  27.055  30.437   0.459
93790W        W66105  37.383  39.499   0.403
93791W        W66106  16.582  30.020   4.148
93792W        W66107   6.755  29.932   4.264
93793W        W66108  17.589  32.496   0.301
93794W        W66109   9.363  13.733  11.057
93795W        W66110  34.419  14.721  14.329
93796W        W66111  32.422  39.437   1.880
93797W        W66112  36.426  40.486  14.341
93798W        W66113  17.598  24.227   2.896
93799W        W66114  33.546   0.454   4.250
93800W        W66115  22.198  21.680   0.828
93801W        W66116  17.218  17.623   4.619
93802W        W66117   9.322  35.550   0.426
93803W        W66118  11.826   5.851  14.885
93804W        W66119  27.983  11.744   2.290
93805W        W66120  20.262  31.096  13.507
93806W        W66121  38.479  26.003   9.958
93807W        W66122  20.603  30.142  13.820
93808W        W66123  26.510   1.286  13.924
93809W        W66124  15.326   3.380   4.246
93810W        W66125  25.650  40.507   2.858
93811W        W66126   0.401  15.723   0.477
93812W        W66127  13.218  28.085  13.369
93813W        W66128   2.463  23.241  12.940
93814W        W66129  29.565   3.419  13.548
93815W        W66130   3.358   1.940   3.832
93816W        W66131  31.541  35.586  11.074
93817W        W66132   4.886  17.152   4.184
93818W        W66133  25.702  35.899   5.241
93819W        W66134  28.980   6.310  13.992
93820W        W66135  27.030  34.611   4.608
93821W        W66136   6.426  43.290   0.432
93822W        W66137  28.016  32.528  10.977
93823W        W66138  15.272   6.831   3.716
93824W        W66139  41.939   7.679   3.794
93825W        W66140  16.597  34.527   4.698
93826W        W66141  23.139  22.663  14.515
93827W        W66142   0.806  41.528  14.809
93828W        W66143  10.187  31.433  14.501
93829W        W66144  34.989  14.264   3.193
93830W        W66145   8.718  44.367  11.086
93831W        W66146  26.149  32.055  11.104
93832W        W66147  18.193  34.922  13.842
93833W        W66148  38.485  16.647   4.174
93834W        W66149  41.346  12.826   2.884
93835W        W66150   6.401  39.936   2.729
93836W        W66151  31.499   6.270  14.875
93837W        W66152  19.093   0.965  12.521
93838W        W66153  19.137  11.255  10.555
93839W        W66154  28.016  14.686   1.310
93840W        W66155  27.510   5.924  12.438
93841W        W66156  42.972   9.646  11.945
93842W        W66157  16.310  18.572  13.366
93843W        W66158  20.103  18.698   2.698
93844W        W66159  10.661  17.742   2.395
93845W        W66160  16.683   5.386  14.328
93846W        W66161   3.234   8.703  10.905
93847W        W66162   1.410  17.718   3.251
93848W        W66163  16.740  39.836  10.451
93849W        W66164  23.595  40.895   3.779
93850W        W66165  21.588  16.613  13.931
93851W        W66166  32.439  20.715  12.921
93852W        W66167  39.542  12.815  14.293
93853W        W66168  19.768   5.260   1.226
93854W        W66169   9.225  19.729  12.097
93855W        W66170  37.879  20.672   3.193
93856W        W66171  28.105  14.252  13.976
93857W        W66172  18.116   1.845  11.089
93858W        W66173   0.465  12.342  13.971
93859W        W66174  36.089  29.549   1.900
93860W        W66175  24.623  10.290   1.880
93861W        W66176  14.810  29.988   0.962
93862W        W66177   3.378   4.224   3.779
93863W        W66178  16.661   4.303   0.384
93864W        W66179   0.485  16.741  14.277
93865W        W66180  13.180  20.124  10.941
93866W        W66181  25.969  41.814   0.905
93867W        W66182   0.837  15.130  13.546
93868W        W66183  10.187  25.031   4.141
93869W        W66184  17.783  44.264  14.016
93870W        W66185  14.639  16.651   1.807
93871W        W66186   8.678   8.874  14.892
93872W        W66187   7.768  25.552  12.956
93873W        W66188  16.574  17.223  11.912
93874W        W66189  30.914  15.678   1.857
93875W        W66190  20.266  42.857   3.836
93876W        W66191  44.902   4.735   4.706
93877W        W66192  38.366  22.636   2.201
93878W        W66193  32.527   0.458  11.475
93879W        W66194  23.109  18.238  12.075
93880W        W66195  35.525  16.137   0.471
93881W        W66196   3.724  32.525  14.906
93882W        W66197  19.208  43.019  13.526
93883W        W66198  43.415  10.746   3.217
93884W        W66199  44.999  15.105  11.412
93885W        W66200  17.166   9.879  11.007
93886W        W66201  19.100  32.017  10.947
93887W        W66202  16.243   6.856  10.433
93888W        W66203   0.781  44.001   3.365
93889W        W66204   4.421  29.580   1.935
93890W        W66205  41.861  11.645  12.966
93891W        W66206   6.725  33.430  12.878
93892W        W66207  31.128  18.692  13.833
93893W        W66208   9.360  27.672  13.464
93894W        W66209  41.876  33.030  10.633
93895W        W66210  18.078  16.072  14.510
93896W        W66211  33.594   2.386  14.427
93897W        W66212  42.015  17.574   4.668
93898W        W66213  28.677  21.092   4.713
93899W        W66214  11.198  19.063  10.128
93900W        W66215   4.777  25.642   4.732
93901W        W66216  17.658  13.780  11.993
93902W        W66217  17.616  38.830   0.750
93903W        W66218  18.052   1.805  13.315
93904W        W66219  29.946  20.240   0.876
93905W        W66220  15.204  16.730   1.816
93906W        W66221  19.778  41.026   2.268
93907W        W66222   6.883  36.431  13.458
93908W        W66223  41.354  26.546   2.250
93909W        W66224   6.424  33.021  11.427
93910W        W66225   8.259   0.889   0.429
93911W        W66226  28.534  18.125  14.995
93912W        W66227  11.241  42.517   1.919
93913W        W66228  16.087   9.263  11.094
93914W        W66229  43.895  15.645  12.021
93915W        W66230   3.319  14.711  14.346
93916W        W66231   0.356  13.801  10.544
93917W        W66232  38.417  29.630   2.249
93918W        W66233  34.967   0.459   4.258
93919W        W66234  26.172  13.166   0.845
93920W        W66235  41.403  13.210   1.235
93921W        W66236  40.376  28.178   3.765
93922W        W66237   4.832  14.138   1.909
93923W        W66238  42.381  25.664  14.998
93924W        W66239  21.122  30.969  12.520
93925W        W66240   0.442  41.402   4.762
93926W        W66241  32.547   2.382   0.467
93927W        W66242  26.153  18.100   2.669
93928W        W66243   7.243   4.319   2.814
93929W        W66244  32.402   6.317  14.408
93930W        W66245  19.160  38.027   3.641
93931W        W66246  17.181  12.261  12.565
93932W        W66247   0.853  14.228   1.210
93933W        W66248  38.352  14.691  12.061
93934W        W66249  31.151  11.697  10.595
93935W        W66250   8.887  11.646  14.827
93936W        W66251  38.483  35.391   2.340
93937W        W66252   9.302  23.026   2.282
93938W        W66253  39.012  15.248   1.868
93939W        W66254  40.515  15.298  12.017
93940W        W66255  31.103   8.683  13.044
93941W        W66256  29.651  24.691   2.367
93942W        W66257  13.701  21.519  10.580
93943W        W66258  14.111   1.294   3.843
93944W        W66259  24.538  34.605   3.180
93945W        W66260  34.103   0.337  12.458
93946W        W66261   1.878   0.303  13.026
93947W        W66262  38.483  36.543   2.789
93948W        W66263  33.020  40.833  14.758
93949W        W66264  20.718  16.161   3.187
93950W        W66265  19.092  15.635  10.641
93951W        W66266   6.295  34.933  12.994
93952W        W66267  15.309  26.010   2.891
93953W        W66268  21.520  12.238   1.830
93954W        W66269   4.337  15.178   3.853
93955W        W66270  37.447  38.415   2.672
93956W        W66271   1.844   5.906  12.528
93957W        W66272  15.102  10.822  12.905
93958W        W66273  32.547  18.722   0.275
93959W        W66274  44.895  38.515  12.079
93960W        W66275  17.567  34.501   0.942
93961W        W66276   2.434  20.040  10.969
93962W        W66277  26.690  39.049   0.784
93963W        W66278  40.955  30.082   2.872
93964W        W66279   2.752  22.127  11.600
93965W        W66280  28.514   8.255  14.953
93966W        W66281  33.063  39.346   0.754
93967W        W66282  15.780  14.211  14.403
93968W        W66283  18.083  20.094   2.398
93969W        W66284  23.707   7.329  12.010
93970W        W66285   4.429  22.035   2.698
93971W        W66286  13.328  26.104  11.910
93972W        W66287  27.599  21.240  13.047
93973W        W66288   5.843  35.583   3.213
93974W        W66289   7.363  21.605   1.413
93975W        W66290  22.730   6.873   2.185
93976W        W66291  39.441  16.706   1.226
93977W        W66292  19.086  36.019   0.830
93978W        W66293  21.155  19.545  11.892
93979W        W66294  38.899  39.024  10.949
93980W        W66295   8.292  30.540  13.536
93981W        W66296  19.663  18.227   4.838
93982W        W66297  11.372  30.465   2.792
93983W        W66298  21.073  28.181   3.784
93984W        W66299  19.648   8.383   2.901
93985W        W66300  41.845  39.396  10.966
93986W        W66301  15.208  12.355   0.808
93987W        W66302  15.639  43.333   3.710
93988W        W66303  24.984  13.815  12.980
93989W        W66304  16.573  23.138  13.392
93990W        W66305  16.681  29.538   2.684
93991W        W66306   0.281  30.935  12.376
93992W        W66307   3.920  10.267   2.887
93993W        W66308  16.093  15.195   0.283
93994W        W66309   7.340  14.704  14.019
93995W        W66310  26.995  20.651   3.349
93996W        W66311  12.248   7.764  14.408
93997W        W66312   7.828  14.713   3.629
93998W        W66313  19.275  37.987   2.218
93999W        W66314  43.846  21.167   2.263
94000W        W66315  27.498  28.440  13.459
94001W        W66316   6.395  12.289   0.839
94002W        W66317  11.300  41.938   0.357
94003W        W66318   1.431  32.633   0.365
94004W        W66319  43.883  18.770  11.583
94005W        W66320  39.825  41.899   2.400
94006W        W66321  13.740  29.087  13.799
94007W        W66322  31.951  19.561  14.293
94008W        W66323  18.290  38.068   4.128
94009W        W66324  12.145  23.165   1.718
94010W        W66325   3.759   2.813   0.399
94011W        W66326   8.241  38.048   4.804
94012W        W66327   0.342  27.574   4.312
94013W        W66328  17.255  24.128  14.296
94014W        W66329  26.551   6.358   3.662
94015W        W66330  42.424  17.128  13.935
94016W        W66331   8.733  27.676   3.201
94017W        W66332  10.220  10.791  13.917
94018W        W66333  28.578  31.567  13.999
94019W        W66334   2.313  26.190  12.537
94020W        W66335  42.889  13.840   0.356
94021W        W66336  10.811   5.761  10.914
94022W        W66337  43.276  43.450  11.585
94023W        W66338  29.008  28.156   3.370
94024W        W66339  38.438  10.271  13.489
94025W        W66340  24.117  40.883   4.250
94026W        W66341   4.214  16.773   0.898
94027W        W66342  40.317  26.165   3.869
94028W        W66343  31.570  24.640   1.219
94029W        W66344  33.543  26.082   3.319
94030W        W66345  41.806  43.987   2.727
94031W        W66346  15.162  26.098  12.411
94032W        W66347  20.689  23.711  10.470
94033W        W66348  17.286   1.817  13.845
94034W        W66349  36.058  27.960  14.873
94035W        W66350  42.452  32.914   1.807
94036W        W66351  22.573  33.616   4.185
94037W        W66352   7.314   6.899  12.531
94038W        W66353  34.898  17.063  11.560
94039W        W66354  27.517   2.794  13.403
94040W        W66355   0.346  22.530  12.054
94041W        W66356  36.378  36.485   3.292
94042W        W66357   6.289  40.385   3.761
94043W        W66358  17.158  33.476  13.954
94044W        W66359  36.474  25.626  10.532
94045W        W66360  42.849  27.076   1.822
94046W        W66361  17.144  34.402  14.979
94047W        W66362  20.086  42.984   2.352
94048W        W66363  21.161   1.850  13.533
94049W        W66364  20.070  11.226   2.818
94050W        W66365  44.384  25.571  13.412
94051W        W66366  23.058   6.690  11.110
94052W        W66367  31.979  18.115   1.334
94053W        W66368  39.385  23.549   5.240
94054W        W66369  36.029  20.661  13.422
94055W        W66370  37.866  41.972   3.211
94056W        W66371  12.824   5.359  12.963
94057W        W66372  37.953  36.019  14.409
94058W        W66373  42.504  19.623   0.967
94059W        W66374  26.996  12.320   1.441
94060W        W66375  11.730  17.787   2.404
94061W        W66376  29.175  14.156  14.961
94062W        W66377   8.293  13.640  14.833
94063W        W66378  32.142  39.552   3.870
94064W        W66379  26.130  28.512  14.359
94065W        W66380   3.777  12.763   3.303
94066W        W66381   1.400   3.371   0.413
94067W        W66382  23.026   7.786  13.327
94068W        W66383  33.003  38.869  11.551
94069W        W66384  22.665  39.924  10.939
94070W        W66385  26.702  16.649  12.830
94071W        W66386  43.953  11.688   3.386
94072W        W66387   0.411  39.969  14.884
94073W        W66388  16.165  36.371   1.894
94074W        W66389  34.520  30.025   4.334
94075W        W66390  36.569  36.534  10.553
94076W        W66391  36.982  41.532  11.502
94077W        W66392   0.801  19.203  12.067
94078W        W66393  27.950  28.495  12.445
94079W        W66394  25.529  17.261   3.190
94080W        W66395  21.524  16.109  10.456
94081W        W66396  44.456  29.086  10.599
94082W        W66397  19.136   5.316  14.294
94083W        W66398  24.104  21.577  11.941
94084W        W66399   0.373  37.471   0.378
94085W        W66400  28.140   7.294  13.801
94086W        W66401  15.315  25.505   4.673
94087W        W66402  42.430   1.420   3.243
94088W        W66403  18.287   3.278  11.458
94089W        W66404  27.672  16.127   1.766
94090W        W66405  21.674   0.273   3.830
94091W        W66406  28.538   8.878   0.841
94092W        W66407  38.903  20.149  14.441
94093W        W66408   0.850  30.514  10.962
94094W        W66409  39.318  41.801   0.826
94095W        W66410   4.214   4.372   4.631
94096W        W66411  27.552   7.857   3.316
94097W        W66412  43.792  41.326   3.330
94098W        W66413  33.104  27.663  10.946
94099W        W66414  22.510   2.946  11.489
94100W        W66415   5.403  36.081   0.311
94101W        W66416   9.736  39.491  11.051
94102W        W66417  39.315  42.934   4.684
94103W        W66418  43.850  15.604   3.816
94104W        W66419  28.494  33.482  12.945
94105W        W66420   8.272  13.117  13.844
94106W        W66421  28.450  32.900  12.350
94107W        W66422  37.479  37.505   1.346
94108W        W66423  11.714  34.474   4.720
94109W        W66424  31.579  43.391   2.220
94110W        W66425  36.843   7.236   0.796
94111W        W66426  21.576  35.460   4.801
94112W        W66427  12.314  30.007   0.287
94113W        W66428  12.843  36.903  13.031
94114W        W66429  16.134  29.629   1.752
94115W        W66430  33.894  11.849   3.769
94116W        W66431   3.886   4.862  13.882
94117W        W66432  11.862  32.416  14.854
94118W        W66433  32.082  13.230  11.879
94119W        W66434  15.655  26.648   4.705
94120W        W66435   0.466  32.015  12.352
94121W        W66436  32.897  36.972  14.963
94122W        W66437  14.302  28.123   3.239
94123W        W66438  41.825   9.253   2.252
94124W        W66439  11.812  28.473  14.847
94125W        W66440   9.753  10.155  12.422
94126W        W66441  41.825  31.960   4.693
94127W        W66442   7.695  36.897  14.276
94128W        W66443  16.211   6.792   0.932
94129W        W66444   6.385  18.057   1.358
94130W        W66445  28.062  35.426   1.352
94131W        W66446  37.077  10.210  14.438
94132W        W66447  40.053  41.346  10.899
94133W        W66448  43.793   3.741  13.341
94134W        W66449  24.544   6.794   0.301
94135W        W66450  39.539   5.880   0.957
94136W        W66451   2.840   9.674   0.866
94137W        W66452  15.318  29.019  14.300
94138W        W66453  14.834  38.523   3.737
94139W        W66454   2.897  30.642  12.834
94140W        W66455  14.166  23.080   2.779
94141W        W66456  40.028  42.519  11.930
94142W        W66457  17.631  11.658  14.494
94143W        W66458  40.884  27.103   0.947
94144W        W66459  32.446  26.968  13.938
94145W        W66460  27.503   6.218   1.255
94146W        W66461  30.642   8.233  13.519
94147W        W66462  31.491  26.703   3.776
94148W        W66463  33.931  41.822  12.897
94149W        W66464  15.712  15.813   4.202
94150W        W66465  39.050  18.708  14.870
94151W        W66466   4.360   6.227   3.859
94152W        W66467  10.223  33.590   1.897
94153W        W66468  16.296  14.125  13.349
94154W        W66469   7.176   2.853   4.697
94155W        W66470   4.271  11.854  11.506
94156W        W66471  27.652  20.681   4.775
94157W        W66472  29.651   4.817   3.693
94158W        W66473  33.971  44.471   1.746
94159W        W66474  15.136   0.307   3.356
94160W        W66475  41.433  14.658   2.704
94161W        W66476  16.698  39.043   2.842
94162W        W66477  32.481  17.070  14.447
94163W        W66478  40.546  11.820  10.903
94164W        W66479  17.180  28.484   0.868
94165W        W66480  34.018  36.943  11.971
94166W        W66481  39.994  31.923   1.310
94167W        W66482  33.106  43.917  14.375
94168W        W66483  12.153   0.767   3.689
94169W        W66484  13.144  19.682  10.614
94170W        W66485  42.438  38.343   0.264
94171W        W66486  33.502   5.365   0.425
94172W        W66487  21.613  21.529  10.125
94173W        W66488  26.044  18.217   2.248
94174W        W66489  27.193  13.693  12.966
94175W        W66490  35.942   4.351   1.812
94176W        W66491  42.500  14.097   4.651
94177W        W66492   6.847  24.205  13.315
94178W        W66493  38.325   4.783  13.060
94179W        W66494  25.027  42.979   4.625
94180W        W66495  28.002  33.413   3.838
94181W        W66496  40.826  43.007  14.431
94182W        W66497  35.090  25.645   4.319
94183W        W66498  40.312  13.244   1.911
94184W        W66499  22.582  19.230   2.222
94185W        W66500  22.239  11.728  14.451
94186W        W66501  35.379   7.384   3.372
94187W        W66502  37.472  17.737  12.949
94188W        W66503  19.723  44.320   3.199
94189W        W66504  20.265   7.808   4.746
94190W        W66505  17.231  36.880  11.554
94191W        W66506  19.676   5.239   2.402
94192W        W66507  42.282   3.352  14.452
94193W        W66508   0.953  31.943   5.220
94194W        W66509  43.511   9.722  14.816
94195W        W66510  31.947  40.984   2.208
94196W        W66511  29.624  12.156  14.818
94197W        W66512  42.833  19.650   1.898
94198W        W66513   4.704  38.016  11.099
94199W        W66514  15.276  24.587  11.528
94200W        W66515  42.941  29.650   3.826
94201W        W66516   8.217   9.867   2.749
94202W        W66517  38.909  28.107  10.142
94203W        W66518  37.506  35.869  12.530
94204W        W66519  15.601   6.223  14.783
94205W        W66520  18.545  24.606  13.055
94206W        W66521  38.866  39.407  12.450
94207W        W66522  10.198   3.882  12.081
94208W        W66523  43.878  23.197  11.449
94209W        W66524   0.811   0.942  10.974
94210W        W66525  26.647   1.245  10.552
94211W        W66526  15.782   9.714  11.895
94212W        W66527  34.883  30.481   1.451
94213W        W66528  22.077  32.947   3.651
94214W        W66529  22.715  36.550  14.364
94215W        W66530  18.136  13.307   0.327
94216W        W66531  25.506  11.298   3.750
94217W        W66532  44.963  27.526  14.462
94218W        W66533  18.057  29.097  13.033
94219W        W66534  10.159  31.476  12.967
94220W        W66535   3.727  15.188  12.019
94221W        W66536  43.295  41.531  10.132
94222W        W66537  36.383   4.209  10.573
94223W        W66538   7.682  18.779  11.565
94224W        W66539  11.364  34.377   2.180
94225W        W66540  39.809   7.251  14.287
94226W        W66541  27.640  13.168  10.960
94227W        W66542  22.554  18.547  11.586
94228W        W66543  34.432   1.804  14.298
94229W        W66544   2.444  16.130  11.406
94230W        W66545  40.924   4.321   2.329
94231W        W66546   8.791  16.606  13.369
94232W        W66547  31.507  18.227   1.932
94233W        W66548  15.745   0.355  10.528
94234W        W66549  31.058  27.983  11.061
94235W        W66550  20.650  37.882  11.913
94236W        W66551  31.442   6.737  14.346
94237W        W66552  28.594  29.027   0.283
94238W        W66553   5.922  30.993  14.504
94239W        W66554  44.991  38.880  10.997
94240W        W66555  11.660  13.717   3.177
94241W        W66556  35.108   2.287  11.420
94242W        W66557  31.027  41.987   3.333
94243W        W66558  37.905  15.629   1.870
94244W        W66559  30.983   1.425  12.006
94245W        W66560  20.081   4.842   3.711
94246W        W66561  27.021  35.431  10.913
94247W        W66562   8.773  36.910   3.700
94248W        W66563  31.604  44.328  11.505
94249W        W66564  37.060  43.995  14.877
94250W        W66565   7.212  33.928  10.602
94251W        W66566  24.058  32.938  13.913
94252W        W66567  33.576   8.850   0.262
94253W        W66568  28.595  43.840  11.574
94254W        W66569  19.561  25.557  13.917
94255W        W66570  32.425   1.867  12.884
94256W        W66571   9.664  24.985  12.882
94257W        W66572  37.540  19.052  13.349
94258W        W66573   2.412  22.166  11.564
94259W        W66574  21.019   8.213  10.981
94260W        W66575  25.119  37.426   1.914
94261W        W66576  20.708   0.287   4.709
94262W        W66577  41.484  38.558   3.818
94263W        W66578   5.205  13.107  12.904
94264W        W66579  12.845  37.517  11.516
94265W        W66580   7.840  22.159   1.785
94266W        W66581  17.276  27.124   0.482
94267W        W66582  38.434  20.219   3.723
94268W        W66583  13.784  29.944   0.812
94269W        W66584  40.482  28.508   2.225
94270W        W66585  31.646  39.491   1.379
94271W        W66586  42.847  42.343  14.403
94272W        W66587  31.144  37.911   3.702
94273W        W66588   1.753  19.233  11.495
94274W        W66589  21.732  18.288   2.872
94275W        W66590  15.313  30.541   4.819
94276W        W66591  43.875  18.642  12.417
94277W        W66592  28.178  29.575   0.443
94278W        W66593  24.532  28.641  14.880
94279W        W66594  37.365  36.472   4.203
94280W        W66595   0.426  13.201   2.686
94281W        W66596  42.431  12.360  14.444
94282W        W66597  33.561  37.007  13.313
94283W        W66598  32.499  41.349   0.889
94284W        W66599  26.665   1.468   0.407
94285W        W66600  35.015   0.459   4.799
94286W        W66601   5.204   2.241   0.769
94287W        W66602  31.547  20.176   1.867
94288W        W66603   6.391  30.495  11.501
94289W        W66604   7.799  42.281  11.981
94290W        W66605  19.584   9.231   4.135
94291W        W66606  37.074   3.904  11.994
94292W        W66607   5.818  15.708  11.865
94293W        W66608  39.040  37.542  13.536
94294W        W66609   3.774   2.315  13.426
94295W        W66610  33.448  20.682   2.692
94296W        W66611  12.164  34.531   1.320
94297W        W66612  40.413  33.082  12.341
94298W        W66613  32.081   6.807   2.391
94299W        W66614   3.289   8.796   3.746
94300W        W66615  11.346  10.146   0.843
94301W        W66616  40.374  28.050   2.809
94302W        W66617  41.357  44.800   0.962
94303W        W66618   7.895  30.530  10.516
94304W        W66619   1.366  32.956  12.913
94305W        W66620  30.621   7.292   4.687
94306W        W66621   5.917   8.286  10.602
94307W        W66622   3.275  23.132   1.239
94308W        W66623   5.843  27.053   3.788
94309W        W66624  29.028  10.176   2.235
94310W        W66625  10.346  41.445   1.810
94311W        W66626  22.607  22.743  13.998
94312W        W66627   3.735  41.367   1.368
94313W        W66628   3.409  34.935   0.273
94314W        W66629  11.755  27.087   2.674
94315W        W66630  17.281  35.534  14.946
94316W        W66631  31.569   0.402  13.922
94317W        W66632  22.535  21.641   4.259
94318W        W66633  27.019   4.933   1.396
94319W        W66634  23.587  14.640  14.765
94320W        W66635  40.317  15.166  13.960
94321W        W66636  26.666  21.070  12.003
94322W        W66637  32.951  42.301   2.210
94323W        W66638  23.195   6.318  12.055
94324W        W66639  39.363   6.329   2.298
94325W        W66640  18.564  33.020   2.270
94326W        W66641  15.210  43.922  11.860
94327W        W66642  38.984   4.796   1.248
94328W        W66643  21.513  26.176   4.728
94329W        W66644   4.790  17.750   3.260
94330W        W66645  42.856  23.536  12.861
94331W        W66646  40.546   8.794   2.203
94332W        W66647  42.491  44.800   0.749
94333W        W66648  34.010  37.528   0.331
94334W        W66649  31.034   0.826  14.780
94335W        W66650  13.325   8.672   4.283
94336W        W66651  33.567  15.789   3.237
94337W        W66652  14.652  38.903  10.040
94338W        W66653  24.562  31.931   0.360
94339W        W66654  20.128   4.838  11.024
94340W        W66655  21.030  29.649   2.258
94341W        W66656   2.943  35.375   3.640
94342W        W66657   3.422  30.976   2.217
94343W        W66658  36.415  17.068  11.020
94344W        W66659  28.609  21.216   1.885
94345W        W66660  42.838  22.604  13.347
94346W        W66661  29.561  32.979  14.890
94347W        W66662   8.401  15.228   0.293
94348W        W66663  35.078  41.883   3.268
94349W        W66664   2.242   4.444  12.947
94350W        W66665   4.229   7.829   2.855
94351W        W66666   2.421  25.976  11.096
94352W        W66667  20.656  24.211  10.448
94353W        W66668  21.708  24.693  11.946
94354W        W66669   0.338  22.154  10.630
94355W        W66670  14.200  20.038   2.743
94356W        W66671  10.736  17.290  14.824
94357W        W66672  32.956  37.489  10.438
94358W        W66673   6.691  39.992  10.437
94359W        W66674  34.885   4.911   2.415
94360W        W66675  27.638  34.958  11.075
94361W        W66676   6.822  32.139   2.282
94362W        W66677  41.475  28.670   2.685
94363W        W66678  42.440  44.851  12.079
94364W        W66679  33.528  12.130   0.427
94365W        W66680  41.340  39.404   1.413
94366W        W66681   0.900  43.460   2.742
94367W        W66682   4.333  34.612   4.641
94368W        W66683   3.881  17.220   3.808
94369W        W66684  39.401   0.476   2.797
94370W        W66685  13.607  28.037   1.779
94371W        W66686   0.343   2.458   3.322
94372W        W66687  29.174  10.275   0.368
94373W        W66688  34.945  27.182  10.931
94374W        W66689  11.685  39.952  12.357
94375W        W66690  23.627  11.725   2.897
94376W        W66691  33.620  24.481   0.947
94377W        W66692  26.077  12.152   3.715
94378W        W66693   3.272  12.688  14.446
94379W        W66694   4.329   2.280   2.774
94380W        W66695  11.741  38.333  12.949
94381W        W66696   2.378   3.724   0.841
94382W        W66697  13.125  16.211   4.243
94383W        W66698  34.022  44.391  12.542
94384W        W66699  11.707  44.413   4.275
94385W        W66700   2.369  12.786  14.785
94386W        W66701  22.197  41.455  14.423
94387W        W66702   8.800  13.159  14.419
94388W        W66703  16.639  17.678  12.951
94389W        W66704  33.389  11.738  11.516
94390W        W66705  40.423  21.201   3.679
94391W        W66706  32.577  41.362  11.380
94392W        W66707  33.090  18.576  11.493
94393W        W66708  38.967  15.711  13.049
94394W        W66709   3.370  29.489  12.848
94395W        W66710  10.813  14.803  11.434
94396W        W66711  14.775  17.645  11.381
94397W        W66712  24.982   4.261   0.850
94398W        W66713   7.280   4.213   4.783
94399W        W66714  43.838  20.206  14.773
94400W        W66715  39.822   0.418  13.402
94401W        W66716  20.740  27.487   2.737
94402W        W66717  17.744   6.242   0.291
94403W        W66718   9.866  22.607  11.554
94404W        W66719  39.501  19.280   0.891
94405W        W66720  44.405   2.745   1.766
94406W        W66721  13.257  35.438   3.330
94407W        W66722   9.378   6.363  11.375
94408W        W66723  14.194   4.280  10.607
94409W        W66724  29.521  35.388  13.961
94410W        W66725  22.176  24.066   4.705
94411W        W66726  14.677   8.677   4.288
94412W        W66727  44.777  22.617  10.008
94413W        W66728   3.937  41.513  11.909
94414W        W66729  31.427  16.116  11.014
94415W        W66730   5.829  31.033   1.907
94416W        W66731   2.805  38.032  13.985
94417W        W66732  25.481  22.539  11.420
94418W        W66733  20.593   3.912  10.415
94419W        W66734  12.817   0.273  10.434
94420W        W66735  28.008  21.694   1.450
94421W        W66736  22.740  40.998  11.879
94422W        W66737  37.538  33.874  12.944
94423W        W66738  31.128  15.315   1.823
94424W        W66739   0.274   6.380   0.793
94425W        W66740  24.515  25.084   1.708
94426W        W66741  34.528  16.670  11.993
94427W        W66742   4.343  40.347   3.638
94428W        W66743  31.005  26.466  14.859
94429W        W66744  36.389   7.764   3.868
94430W        W66745  14.789  32.090   4.649
94431W        W66746   6.824  22.174   0.284
94432W        W66747  15.187   8.274  12.834
94433W        W66748   0.433  15.681  13.487
94434W        W66749  18.753  36.454  13.310
94435W        W66750  30.009  44.950   2.771
94436W        W66751   2.406  42.353   4.345
94437W        W66752  17.631  27.528   3.778
94438W        W66753   8.264  30.917   2.310
94439W        W66754  18.779  30.638  11.471
94440W        W66755  28.666   2.337   3.379
94441W        W66756  44.363  43.765  10.929
94442W        W66757   0.852  40.026   0.321
94443W        W66758  26.094  14.123   3.286
94444W        W66759   7.291  34.037  11.408
94445W        W66760  42.416  20.220  10.416
94446W        W66761  36.894   5.394  10.440
94447W        W66762  25.146  10.699  11.943
94448W        W66763   9.263  10.718  14.492
94449W        W66764  19.680  11.645   1.273
94450W        W66765  12.316  11.843   3.156
94451W        W66766   6.401  37.349  10.569
94452W        W66767  37.401  16.094  11.605
94453W        W66768  22.734   9.276   0.737
94454W        W66769   3.248  20.538   1.768
94455W        W66770   0.814  35.390  11.600
94456W        W66771  35.910   6.722   3.382
94457W        W66772  29.009  35.863   4.622
94458W        W66773  34.542  20.062  12.970
94459W        W66774  16.288  27.577  14.758
94460W        W66775  26.555   0.751  12.563
94461W        W66776  43.853  42.826  13.521
94462W        W66777  29.993  10.350   3.286
94463W        W66778  35.900   8.180   4.732
94464W        W66779  15.095  42.332   4.293
94465W        W66780  39.914  22.704   0.296
94466W        W66781  21.069   9.864  14.497
94467W        W66782  27.076  35.364   0.764
94468W        W66783  37.978  36.370   1.868
94469W        W66784  12.751  41.895   2.332
94470W        W66785   5.266  42.926  14.274
94471W        W66786   0.457  28.617  10.471
94472W        W66787   1.337  13.193   4.780
94473W        W66788   5.392  17.111  10.017
94474W        W66789  21.632  32.886  14.947
94475W        W66790   1.465  20.110  13.819
94476W        W66791  37.350  33.935   4.703
94477W        W66792  16.780  36.591   1.697
94478W        W66793  31.513  42.495   3.854
94479W        W66794  22.594  31.424  12.363
94480W        W66795  27.096   7.315  14.345
94481W        W66796  12.680   5.379   3.771
94482W        W66797  43.990   2.835   3.296
94483W        W66798  40.455  24.603   9.462
94484W        W66799   4.850  13.320  13.894
94485W        W66800  34.968   6.314  10.897
94486W        W66801   3.378   7.778   0.806
94487W        W66802  36.997  25.643   1.437
94488W        W66803  26.183  15.784  13.426
94489W        W66804  33.938  29.070   3.641
94490W        W66805  13.131  11.649   3.333
94491W        W66806  44.770  15.646  11.948
94492W        W66807  31.647  18.184   2.725
94493W        W66808   4.783   8.365   0.359
94494W        W66809  16.661  35.565   0.737
94495W        W66810  18.626  19.631   0.421
94496W        W66811   7.787   7.839  11.944
94497W        W66812  25.593  42.381  12.092
94498W        W66813   1.954  35.379   1.779
94499W        W66814  19.191  32.610   2.324
94500W        W66815  24.605  28.517  14.437
94501W        W66816  12.162   2.311  11.007
94502W        W66817  34.519  28.133  10.553
94503W        W66818  17.602   1.785   2.703
94504W        W66819  29.435   3.784   4.775
94505W        W66820  24.106   3.352   1.784
94506W        W66821  43.373  27.087  12.396
94507W        W66822  21.229  10.310  10.531
94508W        W66823  25.027  43.982   0.841
94509W        W66824   4.319  43.884   4.829
94510W        W66825  25.607   4.383  10.632
94511W        W66826  29.083  34.927   2.354
94512W        W66827  44.784  38.392  14.395
94513W        W66828  31.545   3.720  14.764
94514W        W66829  38.822  14.297   4.272
94515W        W66830  35.560   3.763   2.826
94516W        W66831  12.244  18.773  13.500
94517W        W66832  11.209  21.756  12.467
94518W        W66833  30.132  36.443   1.700
94519W        W66834  25.579  13.289  12.377
94520W        W66835  12.772  12.289  11.564
94521W        W66836  39.471  28.966   1.297
94522W        W66837  19.747  21.220   1.807
94523W        W66838   0.279  41.968  14.451
94524W        W66839  14.194  30.464  11.501
94525W        W66840  20.218  39.469  11.027
94526W        W66841  10.153  24.533  14.901
94527W        W66842  15.638  11.304  11.083
94528W        W66843  43.782   9.728   4.604
94529W        W66844  19.652  42.352   4.666
94530W        W66845  32.512  24.550  13.994
94531W        W66846  44.834   8.718  11.507
94532W        W66847  20.626  21.074  10.098
94533W        W66848  20.132  32.942   4.150
94534W        W66849  16.260  43.329   3.238
94535W        W66850   4.933  12.784   4.697
94536W        W66851  42.921  15.106   0.344
94537W        W66852   4.234  10.275   1.754
94538W        W66853  34.531  24.515  11.549
94539W        W66854  18.064  30.636   0.926
94540W        W66855  14.226  18.079   2.277
94541W        W66856  29.637  25.683   4.129
94542W        W66857   5.895  24.549  14.975
94543W        W66858  16.781  43.887  10.962
94544W        W66859  23.672   5.885   3.656
94545W        W66860  38.937  10.655   3.372
94546W        W66861  33.034  23.658   3.202
94547W        W66862   5.699  34.101  14.866
94548W        W66863  43.885   0.812  11.474
94549W        W66864  11.842   6.872  14.812
94550W        W66865  23.167  13.340   4.209
94551W        W66866  29.088   5.400  14.957
94552W        W66867  18.163   3.732  10.534
94553W        W66868   7.780   9.664   2.840
94554W        W66869  33.385  26.466   3.722
94555W        W66870  40.927   9.389  13.312
94556W        W66871  19.636  16.600  12.929
94557W        W66872  31.008  13.821   4.696
94558W        W66873  30.532  41.020   2.688
94559W        W66874  15.682  29.635   2.882
94560W        W66875   6.245  13.244   3.651
94561W        W66876  11.153  24.121  13.041
94562W        W66877   9.248  22.086  12.987
94563W        W66878  19.598   1.939  10.640
94564W        W66879  20.769  40.475   4.352
94565W        W66880   4.379  42.325   4.710
94566W        W66881  23.513  18.608   0.829
94567W        W66882   2.342   8.872  13.060
94568W        W66883  36.437   1.950   3.809
94569W        W66884  21.517  21.104   1.863
94570W        W66885  37.578  43.347   4.235
94571W        W66886  12.150   9.290   3.167
94572W        W66887  23.985  11.812   4.775
94573W        W66888  19.583  21.666  12.950
94574W        W66889  42.392   1.348  12.500
94575W        W66890  42.516  34.535  12.581
94576W        W66891  11.181   1.839   1.235
94577W        W66892   9.388  43.482  13.995
94578W        W66893  10.199  35.422  14.384
94579W        W66894  12.670   8.257  11.050
94580W        W66895  11.786  23.632  10.125
94581W        W66896   1.335  43.392   2.716
94582W        W66897   8.732   1.242  13.515
94583W        W66898  27.470  27.538  14.032
94584W        W66899  30.427   9.654   3.172
94585W        W66900  24.186  21.145   4.838
94586W        W66901  33.515  29.544  12.064
94587W        W66902  37.406  37.865  13.914
94588W        W66903  11.718  29.080  13.962
94589W        W66904   9.651  34.008   0.850
94590W        W66905  30.590  11.655  11.982
94591W        W66906  39.851  30.570   2.854
94592W        W66907  41.846  28.500   3.744
94593W        W66908   2.258  14.664  13.816
94594W        W66909  35.457  37.864  13.372
94595W        W66910  11.697  10.316   2.798
94596W        W66911  34.099  36.965  10.967
94597W        W66912   1.855  16.186   3.662
94598W        W66913  38.855  36.552  11.927
94599W        W66914  42.469  23.210   3.227
94600W        W66915  10.284  27.567   4.123
94601W        W66916  38.870   2.285  13.887
94602W        W66917  24.500  20.191   1.407
94603W        W66918   4.754  28.563  12.853
94604W        W66919   8.682  29.133  13.377
94605W        W66920  43.945  42.448  10.970
94606W        W66921  24.079  42.972   0.765
94607W        W66922  13.844   4.415   3.635
94608W        W66923  34.518  15.813   4.336
94609W        W66924  32.961   9.337   2.775
94610W        W66925  15.124   0.448  11.992
94611W        W66926  29.162  23.643  13.391
94612W        W66927   9.733  13.745  13.873
94613W        W66928   9.236   0.840  12.453
94614W        W66929  24.514  40.509  14.790
94615W        W66930  42.490   1.825   4.798
94616W        W66931  40.896  44.495   2.755
94617W        W66932  25.655   9.751   0.839
94618W        W66933  39.463  20.719   0.870
94619W        W66934   8.368  11.718  14.480
94620W        W66935  44.976   9.203  14.428
94621W        W66936  14.649  28.117  10.038
94622W        W66937  18.149  27.976  13.318
94623W        W66938  40.356  18.114  12.857
94624W        W66939  11.273  17.649   1.845
94625W        W66940  14.731   8.844  14.805
94626W        W66941  29.443  31.123  13.405
94627W        W66942  42.505   2.806   0.790
94628W        W66943  40.868  16.791   1.312
94629W        W66944  28.966  34.032   1.310
94630W        W66945  38.041  26.467  13.457
94631W        W66946   2.388  27.102   4.282
94632W        W66947  19.231   2.275  11.889
94633W        W66948   3.455   1.863   4.759
94634W        W66949  19.608  11.315  12.475
94635W        W66950  21.165   4.756  12.417
94636W        W66951   2.271  18.233   0.341
94637W        W66952  19.732  32.576  10.443
94638W        W66953  13.744   2.284   4.656
94639W        W66954  21.063  40.375   1.780
94640W        W66955  20.219  29.108   3.157
94641W        W66956  14.614  36.428  10.642
94642W        W66957  22.039  43.007  11.938
94643W        W66958  35.580  33.538  11.396
94644W        W66959  20.643  33.116   0.269
94645W        W66960   0.973  37.507   0.313
94646W        W66961   5.891  13.155   3.314
94647W        W66962  12.795   8.843  11.551
94648W        W66963  26.023  39.413   3.207
94649W        W66964  21.119  28.974   0.367
94650W        W66965  30.419  27.000   2.215
94651W        W66966  17.685   8.306   1.348
94652W        W66967  26.588   4.710   1.805
94653W        W66968  35.916  40.307   1.709
94654W        W66969  20.723  25.671   4.739
94655W        W66970   9.238  23.207  10.934
94656W        W66971   3.403  31.498   0.301
94657W        W66972  42.003  37.544  11.455
94658W        W66973  41.352  16.075  11.465
94659W        W66974  39.330  20.192  14.814
94660W        W66975   4.855   2.449   3.647
94661W        W66976  11.774  25.062  10.419
94662W        W66977  22.089  21.678  11.463
94663W        W66978  44.798  42.794  12.510
94664W        W66979   7.224  42.432  12.493
94665W        W66980  26.204  39.316  12.983
94666W        W66981  21.566  29.670   2.251
94667W        W66982  24.021   5.329   1.843
94668W        W66983  29.143  18.260  11.940
94669W        W66984   1.323   2.783  11.375
94670W        W66985  40.431  20.537  11.936
94671W        W66986  15.309  38.843   0.941
94672W        W66987  42.513  30.456  11.550
94673W        W66988  23.731   2.732  14.334
94674W        W66989  41.821   4.814   3.705
94675W        W66990   2.471  37.548   4.809
94676W        W66991  16.734  28.552  13.410
94677W        W66992  30.997   3.350  12.445
94678W        W66993   9.287  20.611  13.851
94679W        W66994   1.458   3.253  13.007
94680W        W66995  29.475  42.892   1.730
94681W        W66996  25.026   1.265  10.594
94682W        W66997  17.125  26.993   4.770
94683W        W66998   1.239  42.951  12.418
94684W        W66999  41.465  28.956  14.395
94685W        W67000  23.701  12.776   3.647
94686W        W67001  44.896   0.285   0.326
94687W        W67002  41.407   2.801  13.405
94688W        W67003  39.880  12.725   4.744
94689W        W67004  42.828  35.476  13.448
94690W        W67005   2.876  26.115   1.872
94691W        W67006   9.300  36.951  10.587
94692W        W67007   1.894  28.486  12.907
94693W        W67008  39.870  15.699   3.699
94694W        W67009   3.295   3.854   2.802
94695W        W67010  22.118  25.175   5.142
94696W        W67011   8.285   3.454   2.847
94697W        W67012  22.241   4.809  11.943
94698W        W67013  23.095  32.589   4.703
94699W        W67014   0.968  31.988  12.504
94700W        W67015  19.546  29.612   0.727
94701W        W67016  29.667  28.614  11.018
94702W        W67017   4.927  13.208   2.714
94703W        W67018  24.598   8.397   3.707
94704W        W67019   2.272  33.506   1.760
94705W        W67020  14.770  10.260  13.465
94706W        W67021  28.487  22.180   2.188
94707W        W67022  16.078  36.951  13.829
94708W        W67023  19.676  33.447  10.553
94709W        W67024  34.863   6.292  10.568
94710W        W67025   1.281  33.413  10.969
94711W        W67026  29.523  31.571   1.729
94712W        W67027   1.416  21.105   0.325
94713W        W67028  22.611  20.711  12.405
94714W        W67029  29.984  42.852  14.307
94715W        W67030  20.755  28.015   0.958
94716W        W67031  16.711  40.431  14.949
94717W        W67032  32.580  18.081   2.387
94718W        W67033   6.841  30.615   0.347
94719W        W67034  22.687  38.530  12.077
94720W        W67035  20.086  10.303  11.125
94721W        W67036  16.570  16.762   0.298
94722W        W67037   9.787   6.201   3.186
94723W        W67038   8.267  13.630  14.465
94724W        W67039  42.030  22.674  11.563
94725W        W67040  31.484  12.694   2.854
94726W        W67041  39.422  20.678   1.287
94727W        W67042  11.633  40.419  13.448
94728W        W67043  42.521  19.540  12.960
94729W        W67044  36.881  25.703  14.887
94730W        W67045   8.762   3.419  11.412
94731W        W67046   9.696  43.804  13.844
94732W        W67047  44.407  18.213   4.766
94733W        W67048   0.899  32.989  10.586
94734W        W67049  18.778  20.586  11.520
94735W        W67050  39.037  38.354   0.355
94736W        W67051   5.732  24.064   3.645
94737W        W67052  37.389  40.004  12.961
94738W        W67053   2.429  27.012   4.745
94739W        W67054  27.009  23.036  12.999
94740W        W67055  13.124  36.004  12.016
94741W        W67056  28.093  44.778  13.389
94742W        W67057  42.501  15.595  14.418
94743W        W67058  21.171  13.691  10.510
94744W        W67059  35.916   0.471   1.835
94745W        W67060   2.418  14.603   3.797
94746W        W67061  28.184  44.481   5.083
94747W        W67062  44.469  21.060   3.324
94748W        W67063  44.471  26.698  11.902
94749W        W67064   0.792  37.974  10.982
94750W        W67065  25.697  33.081   4.154
94751W        W67066   3.824  30.639   1.807
94752W        W67067  21.673  43.376  13.468
94753W        W67068  25.088   3.226  11.443
94754W        W67069  36.464   0.414   1.426
94755W        W67070  15.618  27.459  11.941
94756W        W67071   1.845  42.480  14.316
94757W        W67072  26.182  21.610  14.861
94758W        W67073  12.623  26.079  14.854
94759W        W67074  36.444  34.977  12.409
94760W        W67075  16.589  27.661  10.980
94761W        W67076  30.561  12.205  14.903
94762W        W67077  22.745  27.588   2.296
94763W        W67078  12.343  12.701  10.600
94764W        W67079  39.399   0.925  12.458
94765W        W67080  33.132  27.623   1.380
94766W        W67081  30.133  16.169   1.227
94767W        W67082  40.843  28.149   2.310
94768W        W67083  36.581  24.212   2.855
94769W        W67084  29.010  17.752   3.708
94770W        W67085  19.127   3.908   2.227
94771W        W67086  21.155  25.151   3.364
94772W        W67087  19.729   2.379   4.318
94773W        W67088   1.779  28.073  11.464
94774W        W67089  38.509  27.133  12.553
94775W        W67090  38.521  17.219   3.706
94776W        W67091  25.564  38.880   2.750
94777W        W67092   2.905   1.920  12.416
94778W        W67093   6.796  40.895   4.627
94779W        W67094   2.392  41.478   1.253
94780W        W67095  30.981  14.112  10.989
94781W        W67096  21.577  11.215  12.044
94782W        W67097  40.890  30.480  13.524
94783W        W67098  39.341   7.364   0.267
94784W        W67099  30.104  19.101  11.507
94785W        W67100  23.127  36.568  11.896
94786W        W67101  35.473  25.107   4.167
94787W        W67102  31.455  36.441   4.205
94788W        W67103  29.535  44.403   0.397
94789W        W67104  42.967   5.288  10.627
94790W        W67105  39.812   8.383  12.489
94791W        W67106  11.678  31.462   2.381
94792W        W67107  20.062  15.787   0.798
94793W        W67108   8.323  24.515   2.743
94794W        W67109   4.377  27.135   4.259
94795W        W67110  39.352  20.084   2.401
94796W        W67111  26.188  17.068   0.379
94797W        W67112  22.218  16.645  14.003
94798W        W67113  19.164  14.815   3.867
94799W        W67114  27.582  13.300  11.507
94800W        W67115  28.571  14.681  14.023
94801W        W67116  17.216  41.355   2.273
94802W        W67117  15.719   7.191   1.325
94803W        W67118  25.659  22.172  11.096
94804W        W67119  20.200  38.007   4.709
94805W        W67120  27.504  31.638  11.457
94806W        W67121  31.412  29.600  11.907
94807W        W67122  19.228   3.773   0.814
94808W        W67123  39.924  24.991   0.806
94809W        W67124  35.072   9.175  12.380
94810W        W67125  43.446  31.023  10.911
94811W        W67126  30.957  34.898   2.852
94812W        W67127  21.593  33.564   4.164
94813W        W67128  15.146  24.078  14.416
94814W        W67129  39.977  34.606  13.479
94815W        W67130  13.631  15.288   4.211
94816W        W67131  11.669  15.761   2.764
94817W        W67132   7.210   9.222   2.265
94818W        W67133  31.611  24.018  12.999
94819W        W67134   6.357  37.063  12.078
94820W        W67135  18.564  20.269   1.431
94821W        W67136  34.959  11.739  12.000
94822W        W67137  32.581  31.533  10.908
94823W        W67138   3.896  35.584  10.591
94824W        W67139  19.670  26.128   4.211
94825W        W67140  31.594  26.129  10.454
94826W        W67141  29.077  33.583   1.303
94827W        W67142  40.318  29.474  11.036
94828W        W67143  35.948   1.834  13.455
94829W        W67144   9.870  13.281   1.310
94830W        W67145   3.226  15.186  10.464
94831W        W67146  44.260  24.500   0.439
94832W        W67147   5.875  13.124  13.841
94833W        W67148   2.389  23.581  10.919
94834W        W67149  40.945  23.573   5.305
94835W        W67150   2.777  17.254  12.900
94836W        W67151  12.330   4.364   2.301
94837W        W67152  26.471  36.841   0.916
94838W        W67153   8.195  31.087   0.878
94839W        W67154  29.059  23.993   4.824
94840W        W67155   3.849  28.585  12.422
94841W        W67156  38.881  26.162  14.018
94842W        W67157   2.849   7.221   4.767
94843W        W67158  42.392  24.148  14.420
94844W        W67159  12.752  22.083   0.356
94845W        W67160   8.688  10.232  14.891
94846W        W67161  16.649  28.078  14.028
94847W        W67162  14.291  21.031  12.092
94848W        W67163   1.277  21.139  13.819
94849W        W67164   8.222  25.035  10.960
94850W        W67165  38.853   7.307   0.947
94851W        W67166  16.213   1.400   4.170
94852W        W67167  24.095  10.339   3.721
94853W        W67168   0.871  23.614   1.872
94854W        W67169  26.193  40.513  14.013
94855W        W67170   9.310  20.191  13.050
94856W        W67171  16.734  15.204  10.583
94857W        W67172  10.714   3.256  10.577
94858W        W67173  37.517  18.225   3.829
94859W        W67174  21.103  31.508   4.656
94860W        W67175  30.477  34.375   3.786
94861W        W67176  34.491  20.670   0.817
94862W        W67177  21.662  38.914   3.239
94863W        W67178   4.856  33.411  11.119
94864W        W67179   9.268  22.744   1.230
94865W        W67180  28.543  31.049   0.779
94866W        W67181  37.567  21.748   2.184
94867W        W67182  43.420  23.498   2.368
94868W        W67183   2.228   5.770   3.201
94869W        W67184  17.716  43.388  10.975
94870W        W67185   7.705  20.538  14.474
94871W        W67186  28.609  24.989  14.407
94872W        W67187  41.377  43.499   1.793
94873W        W67188  27.995  31.597  13.792
94874W        W67189   1.865   7.854  11.605
94875W        W67190  38.536   2.965   2.296
94876W        W67191   0.984  17.144   0.466
94877W        W67192   8.722  34.549  12.482
94878W        W67193  40.363  33.565  10.625
94879W        W67194   9.212  37.951   2.323
94880W        W67195  27.501  28.525   1.295
94881W        W67196  27.592   2.300  12.983
94882W        W67197  36.000  28.175  10.995
94883W        W67198  24.076  32.999  14.341
94884W        W67199  43.898  40.527  13.313
94885W        W67200   0.404   9.722   4.608
94886W        W67201   7.780   9.664  12.958
94887W        W67202   2.863  35.387  14.383
94888W        W67203  44.828   3.408   4.291
94889W        W67204  35.374  17.698   4.309
94890W        W67205   3.336   7.802   2.851
94891W        W67206   7.900  42.350   1.784
94892W        W67207  11.156  21.256  11.972
94893W        W67208  24.088  20.736  10.539
94894W        W67209  28.455   4.920  10.584
94895W        W67210  43.892  34.112   2.384
94896W        W67211  35.996   4.890   3.360
94897W        W67212   0.950   5.712  10.558
94898W        W67213  34.874  23.039  12.578
94899W        W67214  41.301  25.484  11.485
94900W        W67215  20.173  33.963   3.762
94901W        W67216  14.219  12.245   0.856
94902W        W67217  35.015  12.785   1.884
94903W        W67218  43.368   2.434   4.318
94904W        W67219  14.277  41.525   4.179
94905W        W67220   1.818  27.966  10.410
94906W        W67221  40.905  21.038   4.799
94907W        W67222  39.991  17.613   0.855
94908W        W67223  23.208   9.292   1.428
94909W        W67224  18.718  11.201  12.574
94910W        W67225  37.575  32.403  14.305
94911W        W67226  39.841  26.005   0.324
94912W        W67227   1.413  12.321   9.519
94913W        W67228  19.706  14.182   1.781
94914W        W67229  21.622   7.861  11.532
94915W        W67230   4.826  37.018   4.629
94916W        W67231  40.492  25.500   3.363
94917W        W67232  41.509  16.632   3.194
94918W        W67233  20.590  10.322  14.280
94919W        W67234  33.896  39.013  12.482
94920W        W67235  33.396  43.872  13.434
94921W        W67236  27.661  22.635  11.048
94922W        W67237  26.073  17.253   3.283
94923W        W67238  17.134  33.087  12.976
94924W        W67239  25.589   8.171  11.925
94925W        W67240  28.567  15.084   0.895
94926W        W67241  10.809  39.390  14.459
94927W        W67242  33.413  24.200   1.748
94928W        W67243  25.663  16.754  12.426
94929W        W67244  13.769  19.643  14.970
94930W        W67245   5.287  19.617  13.934
94931W        W67246  10.753  18.065  11.904
94932W        W67247  12.288  17.180  11.548
94933W        W67248  31.124  18.065   2.728
94934W        W67249   0.258  33.511   0.401
94935W        W67250  33.493  22.138  14.845
94936W        W67251   5.828  44.764   2.367
94937W        W67252   8.682  20.526  12.041
94938W        W67253   9.861   4.859   0.897
94939W        W67254  34.446  15.604   2.667
94940W        W67255  24.180  43.923   4.739
94941W        W67256  18.722  29.612  13.351
94942W        W67257  36.381  31.411  10.917
94943W        W67258  41.888  10.370   4.719
94944W        W67259   5.850   0.957   0.758
94945W        W67260  41.415  16.608  11.924
94946W        W67261  11.630  23.575  13.025
94947W        W67262  29.628  33.515  14.924
94948W        W67263   4.450  24.481   3.841
94949W        W67264  31.000  21.255   1.261
94950W        W67265  32.885  18.588   4.708
94951W        W67266  29.656  36.957  12.883
94952W        W67267  31.401  25.040  14.940
94953W        W67268  12.167  10.654  12.536
94954W        W67269  25.631   4.259   3.807
94955W        W67270  10.718  33.886   1.906
94956W        W67271  22.184  33.559   2.330
94957W        W67272  17.206  44.934  14.494
94958W        W67273  14.157  12.683   4.760
94959W        W67274  25.009   9.196  11.090
94960W        W67275  43.435  21.709  11.884
94961W        W67276  35.860  13.123  14.880
94962W        W67277   6.696   1.275  14.943
94963W        W67278   6.423  12.723  13.884
94964W        W67279  13.649  30.590  11.409
94965W        W67280  12.137  36.400  11.107
94966W        W67281  38.935  41.451  13.416
94967W        W67282  31.512  44.983  13.064
94968W        W67283  33.408  11.826   3.282
94969W        W67284  39.005  41.515  11.982
94970W        W67285   8.655  23.606  11.874
94971W        W67286   8.203  41.036  12.565
94972W        W67287   6.688  28.533   2.367
94973W        W67288   7.712   5.806   3.282
94974W        W67289  15.707   7.177  12.895
94975W        W67290  18.564   6.264  14.413
94976W        W67291   7.353  12.713   2.866
94977W        W67292  23.539   3.946   1.933
94978W        W67293  41.803  21.232  11.388
94979W        W67294   2.920   4.847   4.694
94980W        W67295  34.388  11.683  14.435
94981W        W67296  10.748  25.658   4.603
94982W        W67297  26.097  43.313   1.811
94983W        W67298   3.768  26.621  12.940
94984W        W67299  13.672  32.018  14.995
94985W        W67300   4.259  19.135   4.137
94986W        W67301  25.694   6.248  10.079
94987W        W67302   1.381   2.424   4.765
94988W        W67303   6.727  36.986   1.303
94989W        W67304  35.031  13.227  12.383
94990W        W67305  26.106  43.834  13.545
94991W        W67306   6.800  12.134  10.487
94992W        W67307  38.938  24.002  11.911
94993W        W67308   1.887  35.891   1.421
94994W        W67309   4.867  28.504   1.860
94995W        W67310  41.942   7.748  12.456
94996W        W67311  37.844  33.504  11.579
94997W        W67312   9.712  41.914   0.332
94998W        W67313  18.270  23.729   0.417
94999W        W67314  39.031  18.200  10.090
95000W        W67315  20.762  25.051  11.053
95001W        W67316   6.712  37.395   2.304
95002W        W67317  10.644  42.914   3.375
95003W        W67318  13.205  30.913  12.844
95004W        W67319  11.283  43.934  14.362
95005W        W67320  41.996  42.372   4.240
95006W        W67321   1.926  40.430  14.869
95007W        W67322  24.218  25.496  11.445
95008W        W67323  33.450  15.179  10.579
95009W        W67324  23.693  18.545  11.517
95010W        W67325  20.254  11.721  14.495
95011W        W67326  37.978  23.209  14.932
95012W        W67327  41.375   3.790  11.407
95013W        W67328   9.248  33.513   1.858
95014W        W67329  21.236  22.247   0.874
95015W        W67330  17.245  27.113  12.439
95016W        W67331  22.052  18.702   0.314
95017W        W67332  16.570  42.408   3.190
95018W        W67333  41.311   2.771   3.257
95019W        W67334  36.977  24.607  12.860
95020W        W67335  17.124   3.820  14.957
95021W        W67336   0.384  42.832  11.934
95022W        W67337  40.464  32.981  12.859
95023W        W67338  30.016   8.723   1.759
95024W        W67339  12.300  16.298  12.024
95025W        W67340  25.649   5.365   3.382
95026W        W67341  14.771  34.066   4.237
95027W        W67342  32.134  35.885  14.953
95028W        W67343  19.538  32.096  10.473
95029W        W67344  12.631  28.572   4.350
95030W        W67345  19.552   8.386  14.971
95031W        W67346  22.184  26.155  13.474
95032W        W67347  38.993  15.733   3.857
95033W        W67348  44.316  21.184  14.924
95034W        W67349  35.497  33.454   0.906
95035W        W67350  39.390  44.973  10.496
95036W        W67351  23.658   4.748   1.409
95037W        W67352   4.773  12.780   4.342
95038W        W67353  21.134   0.891  13.949
95039W        W67354   0.906   3.946   4.807
95040W        W67355  43.011  15.142  11.886
95041W        W67356  14.685  34.505   1.451
95042W        W67357  10.760  15.123   1.386
95043W        W67358  40.025  15.720   1.280
95044W        W67359  22.599   2.289   4.604
95045W        W67360  14.646   3.426  11.455
95046W        W67361  40.924  19.719   2.232
95047W        W67362  17.581  42.876  11.006
95048W        W67363   3.232  13.741   2.245
95049W        W67364  34.409  14.117   3.289
95050W        W67365  26.118  43.772  12.527
95051W        W67366  34.890  18.272  13.859
95052W        W67367  31.586  44.793  12.377
95053W        W67368  30.919  29.099   1.324
95054W        W67369   1.919  19.533   2.754
95055W        W67370  22.082  33.126   2.400
95056W        W67371  44.363  29.036   2.778
95057W        W67372   8.260  23.602  14.945
95058W        W67373  44.367  27.161  10.988
95059W        W67374  28.465  23.556   1.334
95060W        W67375  44.819  26.011   1.371
95061W        W67376  41.942  14.730  11.066
95062W        W67377  18.589  42.872   5.165
95063W        W67378   7.788  19.699   0.814
95064W        W67379  20.100   0.468  11.900
95065W        W67380  26.114  43.440  10.549
95066W        W67381  19.694  25.554  13.452
95067W        W67382  37.894   5.788   0.872
95068W        W67383  27.037  11.777   4.756
95069W        W67384  21.227  40.823   1.871
95070W        W67385  13.830   9.869  12.086
95071W        W67386  42.476  19.610   2.750
95072W        W67387  10.652  39.335  10.977
95073W        W67388  12.700  40.960   4.797
95074W        W67389   9.695  40.354  11.989
95075W        W67390  18.755   7.828  10.021
95076W        W67391  41.484  20.620   4.706
95077W        W67392  18.609  24.643  14.018
95078W        W67393  34.451  16.709   2.299
95079W        W67394  10.857  41.292   0.370
95080W        W67395  23.180  37.366  12.463
95081W        W67396  37.346   1.273   1.917
95082W        W67397  23.576  33.555  11.900
95083W        W67398  39.985   4.422  12.465
95084W        W67399   4.367  36.476   1.859
95085W        W67400   5.891  29.607   2.344
95086W        W67401  43.405  17.282   2.855
95087W        W67402   3.449  28.669   2.854
95088W        W67403   0.267  34.579   3.269
95089W        W67404  42.311   2.835   2.674
95090W        W67405   0.492  33.530  11.434
95091W        W67406  43.349  42.811  14.400
95092W        W67407   7.362   5.246  14.373
95093W        W67408  16.695  40.999  10.072
95094W        W67409  23.064  36.588  11.098
95095W        W67410  41.331  44.288  11.859
95096W        W67411   9.324  16.765   5.690
95097W        W67412  24.531   7.687  11.586
95098W        W67413   0.274  21.685  11.525
95099W        W67414  24.618  41.453   1.802
95100W        W67415   6.851  21.750  11.061
95101W        W67416  27.615  28.931   4.164
95102W        W67417   9.229  26.170  12.382
95103W        W67418  34.431  22.007   3.376
95104W        W67419  38.875  16.692  14.378
95105W        W67420  14.832  24.124   1.860
95106W        W67421  12.169  32.060   2.316
95107W        W67422  25.047  30.096   1.286
95108W        W67423  37.838   7.826  13.870
95109W        W67424  24.639  17.600  11.403
95110W        W67425  41.956  37.078  12.353
95111W        W67426   9.724  21.202  13.507
95112W        W67427  18.661   3.314  10.599
95113W        W67428  27.087  26.027   1.892
95114W        W67429  24.562   8.812   2.871
95115W        W67430  40.013  34.097  13.967
95116W        W67431  18.626   1.924   4.726
95117W        W67432   9.764  33.487  14.940
95118W        W67433   4.368  29.637   4.197
95119W        W67434  23.178  29.971  12.069
95120W        W67435  26.096  13.235   1.447
95121W        W67436  32.391  29.529   1.210
95122W        W67437  43.334   3.223  14.350
95123W        W67438  24.657  14.229  12.867
95124W        W67439  25.489   7.212  14.771
95125W        W67440  32.561  15.274  13.530
95126W        W67441  10.669   3.430  12.484
95127W        W67442  20.077   9.790  14.921
95128W        W67443  26.633   0.368  13.042
95129W        W67444  11.813  17.629   1.872
95130W        W67445  36.511  36.017  10.126
95131W        W67446  44.478  44.340   0.369
95132W        W67447  20.135  44.308   2.767
95133W        W67448  44.416  11.680   2.183
95134W        W67449  35.950  17.623  11.515
95135W        W67450  38.343  26.477  11.373
95136W        W67451  25.643  43.994  13.008
95137W        W67452  15.726  38.995  10.902
95138W        W67453  42.921  44.870  10.949
95139W        W67454  31.031  29.444   1.797
95140W        W67455   9.794  26.632   1.422
95141W        W67456  30.010  33.119  12.433
95142W        W67457  37.969  13.197  11.979
95143W        W67458  43.284  21.548  14.987
95144W        W67459  23.546  31.921  11.606
95145W        W67460   1.739  18.277  11.374
95146W        W67461   9.831  35.595  11.128
95147W        W67462  20.206  10.858   4.670
95148W        W67463  27.996  14.146  14.775
95149W        W67464  14.676  39.322  14.965
95150W        W67465   8.243   2.865  10.494
95151W        W67466  32.103  28.536  14.763
95152W        W67467  25.657  43.504   3.682
95153W        W67468  24.697  38.404  10.453
95154W        W67469  26.643   3.864  10.943
95155W        W67470  14.728   3.897   2.285
95156W        W67471  36.092  15.679   3.721
95157W        W67472  44.343  12.136   4.290
95158W        W67473   0.372  18.629   1.382
95159W        W67474  35.016  10.785   0.893
95160W        W67475  38.922  21.752  13.931
95161W        W67476  44.998  22.152  14.932
95162W        W67477  43.990  39.438   3.278
95163W        W67478   7.683   9.651  14.002
95164W        W67479  22.045  27.631   4.619
95165W        W67480  24.975   5.844  14.418
95166W        W67481  24.587  37.517  10.403
95167W        W67482  30.947  23.520   5.173
95168W        W67483  13.677  30.550  12.020
95169W        W67484  13.799  24.617  11.433
95170W        W67485   5.795   0.775   1.238
95171W        W67486  30.513  15.329  11.558
95172W        W67487  19.122  11.126  14.764
95173W        W67488  16.755   5.348   0.805
95174W        W67489  30.427  29.970  13.062
95175W        W67490   8.389  41.512   0.346
95176W        W67491   0.752   0.432   2.375
95177W        W67492  40.838   3.911  14.361
95178W        W67493  19.080  23.140   2.368
95179W        W67494  17.800  41.453  11.072
95180W        W67495   7.183  32.005   3.382
95181W        W67496  12.185  13.207   1.880
95182W        W67497  21.591  26.115   4.236
95183W        W67498  25.976  38.060   1.265
95184W        W67499   5.374  12.224  14.847
95185W        W67500  21.085  21.165  10.598
95186W        W67501  31.140   2.892  13.388
95187W        W67502  21.053  23.727  14.377
95188W        W67503  29.659  18.620   0.461
95189W        W67504  25.615  11.316  10.910
95190W        W67505  34.446  26.622  10.620
95191W        W67506   1.437   6.821   1.917
95192W        W67507   2.873  40.476  14.372
95193W        W67508  26.095  23.103  12.841
95194W        W67509   4.893   4.226  14.993
95195W        W67510  42.411  35.054   3.808
95196W        W67511  34.437  16.117   1.403
95197W        W67512   8.206  42.845  12.942
95198W        W67513  34.079  31.913   9.940
95199W        W67514  11.672  23.681   0.392
95200W        W67515   2.734  27.083  14.029
95201W        W67516  18.547   5.253  13.059
95202W        W67517  24.078  22.664  12.413
95203W        W67518  18.698  34.611  11.456
95204W        W67519  40.402  20.603  10.432
95205W        W67520  24.602  16.653  14.319
95206W        W67521  39.402  26.089   4.259
95207W        W67522   2.321  17.706  12.496
95208W        W67523   7.265  39.361  13.441
95209W        W67524  44.809  19.681   1.846
95210W        W67525  43.934  17.644  13.477
95211W        W67526   5.239  23.045  12.580
95212W        W67527   2.258  25.047  14.826
95213W        W67528  16.248  34.040   0.938
95214W        W67529  15.170  36.913   0.751
95215W        W67530  12.658  20.768   4.327
95216W        W67531  15.276  34.025   4.662
95217W        W67532   7.690  21.130   1.854
95218W        W67533  36.984  33.575   1.232
95219W        W67534  18.244  10.158   3.673
95220W        W67535  26.964  10.678  11.546
95221W        W67536  35.436  32.906  12.497
95222W        W67537  33.953  13.795  12.010
95223W        W67538  40.915  16.136   3.170
95224W        W67539  28.531  25.121  12.864
95225W        W67540  36.842  44.793  14.793
95226W        W67541  31.977  21.515  12.396
95227W        W67542  26.493  23.031   4.662
95228W        W67543  19.069  23.044   0.886
95229W        W67544   0.465  25.162  10.642
95230W        W67545  30.616  11.730  14.963
95231W        W67546  13.823  14.766  14.427
95232W        W67547  44.971  17.254  13.351
95233W        W67548  11.338  18.566  10.443
95234W        W67549  10.852  12.203  14.421
95235W        W67550  19.280  28.617  14.456
95236W        W67551  11.764  40.920  10.942
95237W        W67552   7.861   2.430  11.880
95238W        W67553  10.816   8.179  11.441
95239W        W67554   1.434   1.313   4.636
95240W        W67555  21.040  19.088  10.484
95241W        W67556  19.710  26.514   3.760
95242W        W67557  29.173  42.294   2.771
95243W        W67558  21.512   1.411   3.787
95244W        W67559   1.948  27.527  13.959
95245W        W67560  43.864  22.143  12.992
95246W        W67561  25.499  20.172   4.325
95247W        W67562   0.338   9.685   9.505
95248W        W67563   9.190  30.093  12.518
95249W        W67564   7.219  24.224   2.356
95250W        W67565  13.807  33.389   2.210
95251W        W67566  13.106  30.622  14.384
95252W        W67567  11.309   5.245   3.242
95253W        W67568  44.325   6.331  14.794
95254W        W67569  36.526  35.537   1.244
95255W        W67570  30.013  19.083   3.661
95256W        W67571  30.612   1.352   3.840
95257W        W67572  42.798  40.987   1.448
95258W        W67573  22.743  36.865   2.267
95259W        W67574  34.374  38.506   0.311
95260W        W67575  37.974   3.809   3.646
95261W        W67576   1.482   8.868  14.800
95262W        W67577  40.877   7.252   0.288
95263W        W67578  20.239  40.442  10.549
95264W        W67579   8.212  41.427   1.409
95265W        W67580  23.093  31.035  12.951
95266W        W67581  41.921   3.381  13.414
95267W        W67582  20.069  11.814   3.218
95268W        W67583  18.063   3.334  11.026
95269W        W67584  41.345  40.032   4.258
95270W        W67585  39.843  42.356   3.343
95271W        W67586   8.667  20.077  14.918
95272W        W67587  39.881  30.606  12.473
95273W        W67588  30.497  10.663  10.486
95274W        W67589  11.812  21.722   1.294
95275W        W67590  38.000  42.788   9.945
95276W        W67591  19.653  16.305  14.484
95277W        W67592   8.887   2.470   5.132
95278W        W67593  34.046  13.800   2.740
95279W        W67594  24.577  41.882   2.368
95280W        W67595  19.120   3.458   1.239
95281W        W67596   2.430  10.151  11.581
95282W        W67597  42.438  40.533   3.791
95283W        W67598  41.803  15.595  13.006
95284W        W67599  43.864   7.819   4.739
95285W        W67600  42.445  38.355  14.356
95286W        W67601   0.795  12.853  13.025
95287W        W67602  27.642   2.230   4.178
95288W        W67603  35.062  44.991  12.050
95289W        W67604  19.662  36.004  10.437
95290W        W67605  34.061  26.102   4.181
95291W        W67606  28.108  41.858  13.006
95292W        W67607  34.556  21.192   1.423
95293W        W67608  17.244  28.059   9.579
95294W        W67609  19.084  34.496  13.822
95295W        W67610   7.911  25.635   3.797
95296W        W67611  44.346  25.679  11.098
95297W        W67612  23.175  43.022   4.637
95298W        W67613  36.844  27.108  14.348
95299W        W67614  20.158  22.729  10.443
95300W        W67615  41.915  37.047  11.951
95301W        W67616  36.550   1.778   3.246
95302W        W67617  12.716  19.643  10.946
95303W        W67618   7.328  40.803  14.010
95304W        W67619  21.070  43.403  11.914
95305W        W67620   0.353   3.865   0.748
95306W        W67621   3.841  32.042  11.921
95307W        W67622  36.958   7.877  13.423
95308W        W67623   3.319  21.208   0.470
95309W        W67624  28.597  15.254   2.220
95310W        W67625   5.206   0.372   1.889
95311W        W67626  20.592   3.821  10.933
95312W        W67627  34.615  14.792   4.805
95313W        W67628  29.174  16.785   4.760
95314W        W67629   2.408  24.573   4.299
95315W        W67630  32.969   9.658   2.275
95316W        W67631  21.158  18.552   1.716
95317W        W67632  41.874   8.222   3.687
95318W        W67633  23.991   8.862  10.446
95319W        W67634   2.726  31.486   0.933
95320W        W67635  34.086   4.444  12.356
95321W        W67636  14.168  26.648   4.602
95322W        W67637   6.329  23.602   2.702
95323W        W67638  22.250  38.414   4.653
95324W        W67639  37.977   6.916   0.962
95325W        W67640  29.008  33.003  12.486
95326W        W67641  41.387  17.182   2.225
95327W        W67642  26.039  44.795   4.740
95328W        W67643  10.763  41.514   4.761
95329W        W67644   1.869  40.342  11.957
95330W        W67645  27.091  21.604  14.019
95331W        W67646   5.328  32.912   4.341
95332W        W67647  41.864  37.844  14.395
95333W        W67648  21.137  13.224  10.916
95334W        W67649   6.375   1.335   1.301
95335W        W67650  27.485  34.887  14.908
95336W        W67651  34.879  35.511   3.697
95337W        W67652  13.192  33.900  13.413
95338W        W67653   7.768  38.484  14.500
95339W        W67654  22.535   0.459  10.081
95340W        W67655  22.652  18.129  10.160
95341W        W67656   9.790  39.437  13.855
95342W        W67657  32.908  27.500  14.285
95343W        W67658  39.900  44.388  12.345
95344W        W67659  12.784  13.682  11.519
95345W        W67660   4.208  27.518  11.022
95346W        W67661  26.143   5.876  14.791
95347W        W67662   8.283   9.191   4.820
95348W        W67663   6.416  20.688  12.016
95349W        W67664   8.212  30.453  14.913
95350W        W67665  26.047  42.935  13.478
95351W        W67666  30.521   7.190   4.303
95352W        W67667  39.824  11.736  14.912
95353W        W67668  30.450  16.721  14.882
95354W        W67669  26.996  19.177  11.992
95355W        W67670   1.865   0.823   3.659
95356W        W67671  25.499  44.324   3.779
95357W        W67672  15.636  19.656   1.900
95358W        W67673  12.797   3.876  12.885
95359W        W67674  44.393  22.721   3.707
95360W        W67675   5.827  38.415  14.867
95361W        W67676   4.320  37.056  11.068
95362W        W67677  22.565   0.374  11.004
95363W        W67678   6.860  28.541   4.772
95364W        W67679  24.660  26.201   1.837
95365W        W67680  35.399  32.429  14.831
95366W        W67681  35.449   2.331   2.721
95367W        W67682  35.532  27.454  10.566
95368W        W67683  24.527  35.395   0.955
95369W        W67684   6.855  39.828   2.775
95370W        W67685   3.418   1.749   2.801
95371W        W67686  31.936  38.558  10.049
95372W        W67687  41.867  41.879  12.527
95373W        W67688  32.934  25.638   1.448
95374W        W67689  27.986  24.212   3.229
95375W        W67690   6.221  29.164  14.965
95376W        W67691   1.916  37.553  13.958
95377W        W67692  39.423  32.412  11.095
95378W        W67693  27.159   5.317   1.451
95379W        W67694   4.390  17.270  13.968
95380W        W67695  23.637   2.384  14.331
95381W        W67696  15.153  18.722  12.445
95382W        W67697  27.561   2.965   1.241
95383W        W67698  21.111   5.272  12.007
95384W        W67699  28.014  40.866  10.529
95385W        W67700  34.555  14.199   1.764
95386W        W67701  28.965  28.137  10.407
95387W        W67702  25.121  35.090  11.053
95388W        W67703   9.224  25.185  12.495
95389W        W67704  37.567  39.015  11.043
95390W        W67705   9.818  22.607   1.375
95391W        W67706  14.164  11.652  10.569
95392W        W67707  13.603  11.643  13.050
95393W        W67708  26.057  15.192   3.150
95394W        W67709  15.767   3.741  11.907
95395W        W67710  44.455  44.365   4.824
95396W        W67711  16.692   6.325  13.830
95397W        W67712  32.946  19.230   0.809
95398W        W67713  21.132   1.849  11.471
95399W        W67714  43.403  24.984   0.854
95400W        W67715  25.495  13.222  10.912
95401W        W67716  22.057  40.547   1.720
95402W        W67717  22.239  11.848   4.153
95403W        W67718   7.237  13.291  14.479
95404W        W67719  12.232   9.325   4.712
95405W        W67720  15.812  33.613  12.466
95406W        W67721  42.334  23.049   4.291
95407W        W67722  26.471   5.286   1.833
95408W        W67723  14.669  26.546  14.831
95409W        W67724   7.254  30.549   4.225
95410W        W67725  11.659  31.125   3.790
95411W        W67726  13.185  19.555   3.849
95412W        W67727   4.779  28.595  14.000
95413W        W67728  41.458   9.788  13.952
95414W        W67729  24.656  43.431  12.869
95415W        W67730  24.195  24.720  10.987
95416W        W67731  22.590  39.017   3.691
95417W        W67732  32.492  42.324   1.381
95418W        W67733   9.783  10.742   3.683
95419W        W67734   5.927  33.104   1.746
95420W        W67735   0.864  32.429  12.008
95421W        W67736  44.875  30.982   0.452
95422W        W67737   4.729  35.521   3.313
95423W        W67738   3.925  11.622   2.291
95424W        W67739  41.343  10.174   2.806
95425W        W67740   5.309  29.045  14.334
95426W        W67741  29.988   2.844   0.375
95427W        W67742  28.546  33.110   1.698
95428W        W67743  42.807  40.464   3.166
95429W        W67744   0.816  33.931   4.124
95430W        W67745   3.454   0.789  13.924
95431W        W67746  40.881  33.432   0.831
95432W        W67747  43.770  39.904  11.605
95433W        W67748   0.863  21.210   2.732
95434W        W67749  20.030  14.771  13.373
95435W        W67750  13.615  41.292   1.737
95436W        W67751  29.174  27.460   2.311
95437W        W67752   7.843  18.209  11.935
95438W        W67753  32.912  40.543   0.831
95439W        W67754   3.758  31.536  13.316
95440W        W67755  11.835   6.210   2.392
95441W        W67756  43.512  39.979  10.584
95442W        W67757  30.960  36.377   1.753
95443W        W67758   7.857  40.435   4.675
95444W        W67759  38.960  10.747   3.771
95445W        W67760  32.938  14.224   0.843
95446W        W67761  30.469   2.390   1.783
95447W        W67762  37.471  37.461  12.022
95448W        W67763  33.609   7.691   4.775
95449W        W67764  40.819   1.242   0.821
95450W        W67765  19.641  44.323  12.428
95451W        W67766  22.579  35.453  13.867
95452W        W67767  31.075  30.636  10.915
95453W        W67768   7.238  10.753   2.899
95454W        W67769  12.347  27.040  13.966
95455W        W67770  24.009  13.274  12.994
95456W        W67771   5.756   5.929   3.824
95457W        W67772  40.950  19.682  12.348
95458W        W67773  27.592  37.036   0.403
95459W        W67774   8.776  42.018  10.963
95460W        W67775  28.466  12.684  13.991
95461W        W67776  21.634  12.821   2.705
95462W        W67777  31.919  31.618   0.266
95463W        W67778  22.169   6.415   3.358
95464W        W67779  27.499  15.277   2.842
95465W        W67780   8.865  12.783   1.763
95466W        W67781  25.565  39.843   1.399
95467W        W67782  28.143   1.734   0.800
95468W        W67783   6.213   3.840  13.049
95469W        W67784  34.048  23.124   0.859
95470W        W67785  23.991   3.428  13.439
95471W        W67786   7.669  30.505  11.389
95472W        W67787  28.670  17.074  14.400
95473W        W67788  22.116  14.613  12.007
95474W        W67789  23.699  32.578  10.964
95475W        W67790  32.103  35.896  11.897
95476W        W67791  36.093  15.162  12.501
95477W        W67792   6.201  35.030  12.018
95478W        W67793  38.070  18.067   4.760
95479W        W67794  16.194  34.399  12.842
95480W        W67795   9.643  42.994   0.244
95481W        W67796  33.594  22.178   1.831
95482W        W67797  10.649   7.255  13.989
95483W        W67798  39.943  12.735  12.360
95484W        W67799  19.610  41.439   3.801
95485W        W67800  28.675   1.477   2.698
95486W        W67801  36.466  12.181   4.686
95487W        W67802  15.237  33.571  12.863
95488W        W67803   6.218  30.162   4.128
95489W        W67804  41.997  42.938  10.535
95490W        W67805  24.159  43.443   1.314
95491W        W67806  13.603  38.042   0.774
95492W        W67807   6.197  29.167   0.451
95493W        W67808  14.315  28.655   3.788
95494W        W67809  17.234  18.120   1.426
95495W        W67810  18.788  10.730   3.347
95496W        W67811   1.933  29.062   0.475
95497W        W67812  20.197  34.896   3.209
95498W        W67813  34.465  14.293  10.576
95499W        W67814  32.000  33.396  10.436
95500W        W67815  31.981   9.321  12.996
95501W        W67816  41.489  17.678   1.829
95502W        W67817  19.254  36.548  13.374
95503W        W67818  18.262  41.881  13.962
95504W        W67819  23.122  11.761   1.284
95505W        W67820  16.578  20.698  12.493
95506W        W67821  42.298  16.603   4.270
95507W        W67822  23.517  30.439  13.951
95508W        W67823  36.553  27.081  10.480
95509W        W67824  19.155  14.248   0.318
95510W        W67825  32.423  13.820  12.574
95511W        W67826  18.683   2.388   0.922
95512W        W67827  25.016   9.374   0.819
95513W        W67828   1.252  42.896   1.900
95514W        W67829  27.985   4.347  13.934
95515W        W67830  33.933  42.393   1.261
95516W        W67831   0.293  30.095   0.376
95517W        W67832  19.134  11.840  13.987
95518W        W67833  33.129  21.221  11.028
95519W        W67834  44.502  12.328  13.874
95520W        W67835  24.018  38.977  12.920
95521W        W67836  38.987  38.929  14.889
95522W        W67837  17.233  18.555   4.193
95523W        W67838  30.026   4.381   4.130
95524W        W67839  36.010  39.887   1.850
95525W        W67840  19.613   9.653  12.947
95526W        W67841  38.929  38.952   2.234
95527W        W67842  27.601  38.390   1.435
95528W        W67843  16.295  25.135  12.939
95529W        W67844   4.935  22.113  10.608
95530W        W67845  44.476   9.709   0.836
95531W        W67846   5.304  36.356   2.894
95532W        W67847  38.994   1.841   5.316
95533W        W67848   6.871  42.469  10.905
95534W        W67849  35.862  11.259  11.963
95535W        W67850  21.223  19.273   2.903
95536W        W67851  36.061   0.784   3.742
95537W        W67852  22.505  39.401   2.696
95538W        W67853  21.174  39.397   4.782
95539W        W67854  19.755   4.815   0.314
95540W        W67855  37.945  37.431   4.330
95541W        W67856  39.408  42.828   2.683
95542W        W67857   0.451   8.791   5.290
95543W        W67858   5.738  42.922   2.214
95544W        W67859  17.068  42.803  12.341
95545W        W67860  24.621  23.021   0.262
95546W        W67861   6.779  41.891   4.150
95547W        W67862  44.798  34.866  14.801
95548W        W67863  32.487   3.712   2.853
95549W        W67864   4.842  39.439   1.808
95550W        W67865  35.381  27.952  14.811
95551W        W67866  30.007  36.855  12.393
95552W        W67867  24.675  22.596  13.480
95553W        W67868  18.556  38.844  11.128
95554W        W67869   4.803  39.460  11.055
95555W        W67870  44.288  39.437   2.375
95556W        W67871  29.126  17.080  13.989
95557W        W67872  13.805  22.521  14.761
95558W        W67873  38.876  12.674  13.978
95559W        W67874  24.197  35.925  11.121
95560W        W67875  31.050  34.899  11.498
95561W        W67876   7.740  19.707  12.861
95562W        W67877  32.494  38.987  12.094
95563W        W67878   5.924  26.573  13.542
95564W        W67879   2.268  13.348   4.319
95565W        W67880  23.126  41.313   3.638
95566W        W67881  29.003  28.012  11.870
95567W        W67882  30.164  22.641  13.819
95568W        W67883   4.450  24.697  13.863
95569W        W67884  25.199  44.445   0.936
95570W        W67885   0.296  24.171   1.337
95571W        W67886   9.772   1.755   3.324
95572W        W67887  31.473  25.698  13.928
95573W        W67888  38.833   1.307  12.840
95574W        W67889   8.828  39.056  13.411
95575W        W67890   3.247  32.438  12.530
95576W        W67891  15.132   5.387   4.814
95577W        W67892  17.145  42.823   5.110
95578W        W67893  41.907  29.960  12.435
95579W        W67894  39.025  32.447   1.883
95580W        W67895  31.897  25.536  12.407
95581W        W67896   0.889   4.703   5.116
95582W        W67897   1.403   9.350   3.781
95583W        W67898  40.524  44.826  14.510
95584W        W67899  12.611   4.343  11.097
95585W        W67900  11.790  12.756  12.398
95586W        W67901  26.117  42.014  13.846
95587W        W67902  37.414  41.962  14.275
95588W        W67903  37.855  28.046  12.920
95589W        W67904  11.694  33.995  10.908
95590W        W67905  26.671   7.225   2.239
95591W        W67906  13.226  40.308  14.970
95592W        W67907  30.921  10.823  11.610
95593W        W67908  25.047   5.843  11.042
95594W        W67909  27.575  34.584   5.671
95595W        W67910  32.972   8.792   1.725
95596W        W67911  11.829  15.275  14.438
95597W        W67912  22.582   5.853  10.907
95598W        W67913   3.895  25.499   2.350
95599W        W67914  32.132  13.332  14.773
95600W        W67915  16.227   8.753   0.787
95601W        W67916  17.267  19.120  14.959
95602W        W67917  15.760   6.182   0.825
95603W        W67918   7.254   2.432  12.860
95604W        W67919  42.380  10.305   1.798
95605W        W67920  39.987   9.374   4.134
95606W        W67921  16.102   7.796   4.717
95607W        W67922  44.327  18.121   4.149
95608W        W67923  25.024   2.287   2.334
95609W        W67924  12.339  36.942   0.467
95610W        W67925   1.286  23.538   2.414
95611W        W67926   9.843   2.404   0.752
95612W        W67927  12.131  18.640  14.815
95613W        W67928  30.094  20.637  14.909
95614W        W67929  18.705  44.425   2.336
95615W        W67930  23.219   0.414  14.364
95616W        W67931  34.945  31.540   3.313
95617W        W67932  40.846  23.562   1.827
95618W        W67933  20.525  30.958  12.447
95619W        W67934  39.427  33.898   2.727
95620W        W67935  41.892  33.985  12.391
95621W        W67936  42.431  32.625  12.919
95622W        W67937  13.661  44.895  12.404
95623W        W67938  41.934  12.269  12.882
95624W        W67939  28.168  40.919   0.284
95625W        W67940  18.592   9.157  13.473
95626W        W67941  13.843  31.501  14.022
95627W        W67942  28.014  16.217  10.472
95628W        W67943   3.863  19.693   4.123
95629W        W67944   3.321   4.369   1.785
95630W        W67945   3.810  39.952   1.382
95631W        W67946  23.047   7.280   4.137
95632W        W67947   5.715   6.197   0.279
95633W        W67948  24.117  33.571  11.895
95634W        W67949  29.024  22.101   0.787
95635W        W67950   2.368  27.662  14.852
95636W        W67951  16.730  39.826   0.310
95637W        W67952   1.405  22.065   0.424
95638W        W67953  20.529   9.204  11.971
95639W        W67954   3.952  41.810  11.421
95640W        W67955   2.924  41.847  14.903
95641W        W67956  33.932   9.874  12.952
95642W        W67957  16.116  34.557  11.070
95643W        W67958  44.336  35.484  13.876
95644W        W67959  11.284  19.591  10.610
95645W        W67960  15.583  13.156   3.721
95646W        W67961   4.815  29.598  11.532
95647W        W67962  16.647  38.037  12.479
95648W        W67963  44.274  14.334  14.010
95649W        W67964  31.485  24.003   3.341
95650W        W67965  14.224  20.117   0.402
95651W        W67966  24.977  34.452   0.959
95652W        W67967  21.558  41.004  13.431
95653W        W67968   1.401  16.256   2.742
95654W        W67969  20.588   2.828  10.543
95655W        W67970  14.765   1.819   2.900
95656W        W67971  25.509   3.381  13.035
95657W        W67972  29.533   6.262  11.858
95658W        W67973  14.259  44.428   4.176
95659W        W67974  23.142   9.332   2.773
95660W        W67975  18.711  16.610  14.025
95661W        W67976  16.761  33.589   0.310
95662W        W67977  39.403  28.041  13.440
95663W        W67978  39.438   5.930   4.191
95664W        W67979  18.564  37.364   4.607
95665W        W67980  26.535   5.356  14.314
95666W        W67981  23.557  20.743  12.497
95667W        W67982  25.594  23.618   0.438
95668W        W67983  21.517  39.915   3.756
95669W        W67984   4.277   0.437   2.400
95670W        W67985  25.124  35.900  12.392
95671W        W67986  18.061  21.562   4.313
95672W        W67987  31.571  44.959   3.333
95673W        W67988  17.294  32.918   2.729
95674W        W67989   2.391  12.853   2.202
95675W        W67990  41.342  32.502  11.117
95676W        W67991  39.860  28.644   0.804
95677W        W67992  17.670  26.084  10.587
95678W        W67993  28.438   6.284   5.627
95679W        W67994  13.718  41.883   2.717
95680W        W67995  18.668  40.363   3.729
95681W        W67996   0.893   2.266  11.389
95682W        W67997   3.455  39.933   0.427
95683W        W67998  40.949   6.718   0.940
95684W        W67999  12.237   5.693   1.790
95685W        W68000  15.724  38.908   0.245
95686W        W68001   5.316  23.683   1.911
95687W        W68002  16.123  44.791  14.286
95688W        W68003  40.918  20.125  14.315
95689W        W68004   3.337  28.135  13.352
95690W        W68005   5.255  40.520  13.371
95691W        W68006   5.430   4.867  14.867
95692W        W68007   1.278  30.980  13.515
95693W        W68008   2.296  26.079   0.284
95694W        W68009  44.319  12.688  12.954
95695W        W68010   0.465  43.452  11.037
95696W        W68011  21.565  36.385   3.214
95697W        W68012   0.790   8.355  10.440
95698W        W68013  12.848   2.783  13.945
95699W        W68014  21.748  12.280  12.836
95700W        W68015  30.119  18.766   0.483
95701W        W68016  22.124   7.876  12.845
95702W        W68017  34.447  32.414   0.383
95703W        W68018  40.478  37.893   1.218
95704W        W68019   2.824  19.663  12.038
95705W        W68020  16.726   4.320   0.896
95706W        W68021  31.147  32.637   4.838
95707W        W68022   2.294  17.261   9.999
95708W        W68023   5.908   4.344   0.393
95709W        W68024  14.337  42.306  14.504
95710W        W68025  35.973  18.592   0.844
95711W        W68026  18.759  15.273   4.652
95712W        W68027  12.340  13.137   3.359
95713W        W68028   7.703  35.863  13.902
95714W        W68029  27.165  29.952  11.905
95715W        W68030  10.306  15.701  13.885
95716W        W68031   4.829  21.255  11.538
95717W        W68032  39.943   9.745   2.361
95718W        W68033  13.746  23.635  12.424
95719W        W68034  15.746   0.326   2.858
95720W        W68035  12.168  42.828   3.735
95721W        W68036  24.117  28.442   3.652
95722W        W68037  13.185  18.108  10.637
95723W        W68038  32.083  38.027  14.275
95724W        W68039  36.553  33.948  12.066
95725W        W68040  22.642  21.019   4.145
95726W        W68041  35.379   0.485  12.064
95727W        W68042  20.099   5.701  10.972
95728W        W68043  39.898   2.952   2.835
95729W        W68044  42.508  35.375  14.859
95730W        W68045  10.318   4.294  13.525
95731W        W68046  37.369  15.720  13.421
95732W        W68047   1.786  17.620  13.451
95733W        W68048  26.174  43.488  12.066
95734W        W68049  36.368  41.410   3.308
95735W        W68050  42.416  42.482   4.170
95736W        W68051   6.689  41.363  11.537
95737W        W68052  29.634  19.222  13.835
95738W        W68053  23.170  35.433  14.879
95739W        W68054  28.998  37.441  10.044
95740W        W68055  29.005  42.335  14.287
95741W        W68056  26.526  43.923   5.178
95742W        W68057  39.851  15.159  13.797
95743W        W68058  34.445  19.050   3.631
95744W        W68059  24.050   5.896   0.358
95745W        W68060  43.909   9.801   9.504
95746W        W68061  16.670  28.527   4.318
95747W        W68062   6.683  23.688  14.308
95748W        W68063   7.400  23.042   1.832
95749W        W68064  14.298  19.201  13.369
95750W        W68065   3.748  35.976   0.281
95751W        W68066   8.855  10.712   2.773
95752W        W68067  17.230  44.352  13.914
95753W        W68068  30.530  33.089  12.403
95754W        W68069  37.979  37.488   1.868
95755W        W68070   4.279  23.660   4.176
95756W        W68071  31.433  13.702  12.455
95757W        W68072   9.271  23.160   2.876
95758W        W68073   9.175  10.285  11.375
95759W        W68074  12.630  30.144  12.034
95760W        W68075  15.097  41.906  14.957
95761W        W68076  21.095  36.352  14.829
95762W        W68077  13.248   6.826   2.390
95763W        W68078  34.115  33.008   1.422
95764W        W68079   4.383   8.827   4.133
95765W        W68080  41.428  40.350   3.358
95766W        W68081  42.307  39.410   1.237
95767W        W68082   2.245  11.175  12.431
95768W        W68083  19.062   8.793  12.394
95769W        W68084   9.344  22.192   1.896
95770W        W68085  24.211  26.151  12.393
95771W        W68086  36.366  21.580  13.320
95772W        W68087  44.960  20.576   4.752
95773W        W68088  28.031  39.911  13.808
95774W        W68089   4.420  25.654  14.839
95775W        W68090  12.750   5.202  11.596
95776W        W68091   3.390  24.679   4.142
95777W        W68092  15.112  16.239  11.530
95778W        W68093  10.724  16.111   1.720
95779W        W68094  22.572  15.231   4.177
95780W        W68095  40.455  38.368   0.802
95781W        W68096  22.120  12.226   4.716
95782W        W68097  39.026   4.832   4.201
95783W        W68098  10.804   9.878  14.866
95784W        W68099  41.471  41.006   1.308
95785W        W68100  38.400  29.509   3.338
95786W        W68101   5.214  17.280   4.300
95787W        W68102  36.079  20.161   3.696
95788W        W68103  28.481  19.204  13.931
95789W        W68104  21.111  22.521  11.428
95790W        W68105  33.510  37.039   1.745
95791W        W68106  30.993  12.777   3.337
95792W        W68107   6.332  14.828  11.493
95793W        W68108  22.037  43.375  13.412
95794W        W68109   2.740  18.753   1.694
95795W        W68110  20.568  23.724   2.687
95796W        W68111  33.112  16.286  14.286
95797W        W68112  16.266  26.573   9.948
95798W        W68113  34.495  36.930  14.489
95799W        W68114  36.407   0.490  12.872
95800W        W68115  24.110  37.007  14.832
95801W        W68116  22.151   0.321   4.235
95802W        W68117  37.082  31.527   0.896
95803W        W68118  27.518   2.827  11.408
95804W        W68119   3.287  13.612  11.383
95805W        W68120   2.263   1.239  12.091
95806W        W68121  27.466  24.546   2.287
95807W        W68122  38.845  38.923  11.923
95808W        W68123  16.318   8.716  14.276
95809W        W68124   8.841  23.109  12.003
95810W        W68125  29.132  35.512  13.318
95811W        W68126  20.597   4.907   0.918
95812W        W68127  19.143  30.603   3.826
95813W        W68128  11.659  30.075   4.620
95814W        W68129   8.285  34.002  11.449
95815W        W68130  13.139  44.893   2.791
95816W        W68131  23.600  17.558  13.357
95817W        W68132  19.246  27.490   4.823
95818W        W68133  43.914  20.526   1.903
95819W        W68134  29.087   4.208  10.481
95820W        W68135   0.425  33.077  12.528
95821W        W68136  22.618   8.710   1.358
95822W        W68137  15.255   5.765   0.441
95823W        W68138  13.268   6.855   1.414
95824W        W68139  10.342  35.902   0.466
95825W        W68140   9.804  15.732   3.711
95826W        W68141  11.347   8.704   1.220
95827W        W68142  34.500  26.120  12.052
95828W        W68143   1.786  35.901  10.028
95829W        W68144  42.392   5.405  12.936
95830W        W68145  27.583   2.329   2.267
95831W        W68146   7.793  40.429   1.385
95832W        W68147  37.952  17.678   1.924
95833W        W68148  31.537   2.427  12.922
95834W        W68149  17.128  42.508  10.907
95835W        W68150  17.130  27.692   4.732
95836W        W68151   8.401  36.400  14.288
95837W        W68152  18.117   3.741   2.323
95838W        W68153  44.996  12.205   0.475
95839W        W68154   8.819  16.122  10.891
95840W        W68155  24.104  16.603  14.432
95841W        W68156  44.354  36.457  11.490
95842W        W68157  29.054   5.241   1.366
95843W        W68158  21.102  37.481  11.953
95844W        W68159  33.902  32.014   3.316
95845W        W68160   7.821  27.538   2.743
95846W        W68161  18.580  44.869   3.176
95847W        W68162  10.211  42.931   5.312
95848W        W68163   8.830  33.093   0.808
95849W        W68164  12.203  20.045  14.823
95850W        W68165  35.963   9.182   0.907
95851W        W68166  12.165  37.071  11.011
95852W        W68167  25.994  24.041  12.891
95853W        W68168  17.621  39.000  11.515
95854W        W68169   9.772  24.676   4.662
95855W        W68170  25.577  16.214   3.751
95856W        W68171  19.537  20.634  13.802
95857W        W68172  11.330   1.268  10.571
95858W        W68173  31.486  11.713   0.478
95859W        W68174  41.333  19.098  10.506
95860W        W68175  22.138  11.149   1.281
95861W        W68176   7.805   8.868  12.512
95862W        W68177  38.382  26.116  11.055
95863W        W68178  24.659  38.525   4.339
95864W        W68179  15.280  17.113  13.417
95865W        W68180  33.892  36.049  13.441
95866W        W68181  44.299   2.424   0.772
95867W        W68182  32.528  16.575  11.962
95868W        W68183  40.969  41.908  14.392
95869W        W68184  33.890  11.347  12.369
95870W        W68185  10.693  34.032   0.743
95871W        W68186  30.967  28.677  12.046
95872W        W68187   8.285  25.088  14.922
95873W        W68188   0.305  29.175  14.772
95874W        W68189  36.060  30.926  12.997
95875W        W68190  13.185   4.420  13.380
95876W        W68191  42.874  11.372  10.002
95877W        W68192  32.501  23.055   2.285
95878W        W68193   1.951  16.261  11.444
95879W        W68194  21.212  39.939   3.788
95880W        W68195  31.523   7.381  14.919
95881W        W68196  15.312  31.635   3.686
95882W        W68197  33.426  26.108   4.335
95883W        W68198  15.301   1.886  13.942
95884W        W68199   6.260   2.883  11.603
95885W        W68200  32.972  11.296   0.943
95886W        W68201  10.150  22.525  12.479
95887W        W68202  11.631  10.843   0.740
95888W        W68203  20.621  12.689  10.467
95889W        W68204  14.749  34.443   0.390
95890W        W68205  10.278   1.422  12.502
95891W        W68206  28.521  39.811   3.299
95892W        W68207  13.764   2.345   2.191
95893W        W68208  42.402  33.884  13.019
95894W        W68209  35.107  34.965   1.822
95895W        W68210   5.249  22.509   4.619
95896W        W68211  19.051  40.961  11.446
95897W        W68212  26.666  13.823   3.274
95898W        W68213  20.646  31.034   1.271
95899W        W68214   7.373   3.238  12.908
95900W        W68215   2.885  23.571   3.204
95901W        W68216  31.619  34.461   3.662
95902W        W68217  24.013  25.044   3.236
95903W        W68218  24.620  32.516  11.464
95904W        W68219  26.008   7.876   4.256
95905W        W68220  25.144  36.049   0.887
95906W        W68221  34.005  29.525  14.911
95907W        W68222  21.684  18.275  14.833
95908W        W68223  16.307  27.535  14.292
95909W        W68224  42.873  19.199   4.645
95910W        W68225  42.518   3.953   1.349
95911W        W68226  20.271  10.287   2.809
95912W        W68227  21.057  21.603   2.886
95913W        W68228  39.497   9.157  12.042
95914W        W68229   2.966  13.249  12.095
95915W        W68230  12.305   4.274  14.317
95916W        W68231  27.160  34.520  13.798
95917W        W68232  22.604   5.284  14.463
95918W        W68233   3.414  26.517   1.763
95919W        W68234   9.765  36.864   4.742
95920W        W68235   9.800  30.516   0.366
95921W        W68236  17.240  16.594  12.500
95922W        W68237  13.201  29.557  11.533
95923W        W68238   7.725  35.539  12.036
95924W        W68239  38.565  41.526   4.680
95925W        W68240  44.470  27.664  12.436
95926W        W68241  24.000  16.614  11.555
95927W        W68242   4.936  24.634  14.309
95928W        W68243  15.771  23.136  10.553
95929W        W68244  22.121  13.766   1.290
95930W        W68245  20.533   8.317  11.109
95931W        W68246  34.865  25.110  14.770
95932W        W68247  27.959  27.100   2.271
95933W        W68248   4.765   2.384  14.956
95934W        W68249  17.648   4.711  12.919
95935W        W68250   0.939  43.950  12.078
95936W        W68251  14.275  16.267   0.338
95937W        W68252  22.564  23.154  10.565
95938W        W68253   5.298  25.146   2.859
95939W        W68254  15.181   5.218  13.447
95940W        W68255   3.259   6.349   2.786
95941W        W68256   7.386  41.331   3.712
95942W        W68257  44.318  10.839  14.406
95943W        W68258  11.743  12.198   3.159
95944W        W68259  10.189  14.228  12.964
95945W        W68260  25.154   4.726  13.507
95946W        W68261   6.905  29.017   4.115
95947W        W68262  41.978  26.618  12.458
95948W        W68263  37.407  11.249   2.692
95949W        W68264   8.693  23.730   0.319
95950W        W68265  34.429  38.883  11.080
95951W        W68266  18.594  20.556   2.748
95952W        W68267  43.496  20.198   0.863
95953W        W68268  22.511  22.232  13.545
95954W        W68269  23.093  34.088   4.644
95955W        W68270  23.020   3.753   0.345
95956W        W68271  10.215  20.592   3.337
95957W        W68272   7.731  22.027   2.250
95958W        W68273  18.127   4.767  10.575
95959W        W68274  25.709  32.935   2.870
95960W        W68275  34.078  13.819  13.353
95961W        W68276  10.826  16.659   3.648
95962W        W68277  27.636  35.548  11.081
95963W        W68278  38.853  33.061  13.525
95964W        W68279  12.798  23.518  10.611
95965W        W68280  22.037  30.056   2.716
95966W        W68281  12.159  36.996   4.666
95967W        W68282  22.694  31.144   4.306
95968W        W68283   6.913  33.112  12.419
95969W        W68284  44.361  14.802  13.938
95970W        W68285  29.119  33.997   4.141
95971W        W68286  28.671  38.867   3.870
95972W        W68287  11.836  16.125   4.315
95973W        W68288  44.499   1.383   3.859
95974W        W68289  42.031  20.531   2.346
95975W        W68290   8.263  38.953  13.448
95976W        W68291   7.331  40.473   0.322
95977W        W68292  23.240  43.001  14.288
95978W        W68293  30.479  39.813   0.944
95979W        W68294  44.936  33.126  11.568
95980W        W68295  42.515  25.173   0.806
95981W        W68296  14.623  36.085  14.964
95982W        W68297  35.875  13.658   1.808
95983W        W68298  41.530   5.266  12.030
95984W        W68299  36.410  25.194  11.454
95985W        W68300  23.609  41.031   3.351
95986W        W68301  39.882  26.000   4.611
95987W        W68302  19.667  16.627   2.848
95988W        W68303  25.580   1.271  13.824
95989W        W68304  34.423  25.067   1.436
95990W        W68305  39.819  16.244  13.876
95991W        W68306   5.406  27.048  12.955
95992W        W68307  36.355   3.314   1.797
95993W        W68308  18.139  36.396  12.382
95994W        W68309  20.579  41.519   0.463
95995W        W68310  30.995  17.173   2.737
95996W        W68311  39.386  13.656   3.800
95997W        W68312  37.843  38.988  12.026
95998W        W68313   4.927  25.626  13.464
95999W        W68314  17.559  29.634   2.850
96000W        W68315  35.512   2.270   3.737
96001W        W68316  44.780  21.746   0.291
96002W        W68317  15.649  25.058  13.464
96003W        W68318  37.567  38.824  13.458
96004W        W68319  21.075  27.549  11.487
96005W        W68320  30.949  27.577  12.876
96006W        W68321  38.901  13.808  11.410
96007W        W68322  36.514  20.727  11.499
96008W        W68323  27.111  33.414  11.462
96009W        W68324  21.128   3.263   3.227
96010W        W68325  20.543   8.763   0.728
96011W        W68326   7.319   7.235  13.920
96012W        W68327  11.294   3.230  13.452
96013W        W68328   8.252   4.745   1.218
96014W        W68329  24.685  34.916  11.461
96015W        W68330  33.585   4.261   2.403
96016W        W68331  31.491  25.141   4.164
96017W        W68332  11.727  20.602  11.918
96018W        W68333  14.623  26.635   2.213
96019W        W68334  10.199  26.593  12.437
96020W        W68335  27.015  36.575  12.984
96021W        W68336  32.887  20.544   4.796
96022W        W68337  28.477  14.220  13.348
96023W        W68338  24.536   9.215   4.333
96024W        W68339  10.221  19.138  11.436
96025W        W68340  10.810   1.878  13.361
96026W        W68341  19.264  11.180   0.810
96027W        W68342  26.165  43.446   0.886
96028W        W68343  24.183  11.361  10.891
96029W        W68344  42.421   2.904  10.986
96030W        W68345  11.817  17.166  12.899
96031W        W68346  39.849  41.973  14.358
96032W        W68347  42.891  16.620   1.436
96033W        W68348   5.757   9.843  13.503
96034W        W68349  18.232  14.312  14.336
96035W        W68350  22.243   2.310   4.204
96036W        W68351  14.779  33.032  12.500
96037W        W68352  13.214  27.568   0.455
96038W        W68353   2.950  37.934   1.926
96039W        W68354   6.229  22.033  10.445
96040W        W68355  18.789  33.402  12.086
96041W        W68356  20.199  25.184   1.217
96042W        W68357  37.435  19.278   4.619
96043W        W68358  27.623  38.048   1.866
96044W        W68359  15.204  15.630   4.749
96045W        W68360  20.121  40.528  11.550
96046W        W68361  19.262  23.087   3.666
96047W        W68362  42.883  35.415  12.373
96048W        W68363   8.830  33.409  14.803
96049W        W68364   6.206  26.495  11.425
96050W        W68365  43.919  11.779  11.579
96051W        W68366  37.945  20.622  11.048
96052W        W68367   1.277  17.742   0.327
96053W        W68368   1.360  24.033  11.562
96054W        W68369  39.415  37.834  10.949
96055W        W68370  17.620  35.103   3.711
96056W        W68371  16.155  38.438   9.589
96057W        W68372  26.204   1.963  12.462
96058W        W68373  11.637  10.644  10.934
96059W        W68374  16.155  22.731   4.729
96060W        W68375  28.948  27.454   4.773
96061W        W68376   6.276  41.389   2.328
96062W        W68377  36.406  30.579  14.515
96063W        W68378   4.223  30.058  13.497
96064W        W68379  20.216  16.148   3.210
96065W        W68380  14.681  29.478  14.918
96066W        W68381  19.176  30.519   1.704
96067W        W68382  18.693  26.988   1.819
96068W        W68383  11.858   2.272  14.424
96069W        W68384   8.732  13.758  11.498
96070W        W68385  26.977   4.749   4.203
96071W        W68386   9.858  43.494   3.241
96072W        W68387   0.347  42.336  12.492
96073W        W68388  26.663  17.288   4.763
96074W        W68389  10.224  33.472  14.864
96075W        W68390  18.626  40.486  12.549
96076W        W68391   8.361  18.096   2.302
96077W        W68392  20.109   6.267   0.338
96078W        W68393  31.482   8.359   1.213
96079W        W68394  26.108  25.652   2.807
96080W        W68395  29.464  35.422  14.492
96081W        W68396  30.436  15.790   4.614
96082W        W68397  15.655  42.777  11.973
96083W        W68398  42.882  10.379  10.058
96084W        W68399  22.123  42.946   3.152
96085W        W68400  25.638  21.700   2.194
96086W        W68401  26.573   1.910   2.875
96087W        W68402   7.387   2.458   1.729
96088W        W68403  36.352  30.925  13.461
96089W        W68404  18.114   5.847   3.640
96090W        W68405  28.497  24.670  14.423
96091W        W68406  36.385  21.674  13.959
96092W        W68407  15.688  40.860   3.771
96093W        W68408  26.204  44.358   3.803
96094W        W68409  22.997  23.072   0.347
96095W        W68410  25.157  41.041  13.317
96096W        W68411  30.933  15.730  14.845
96097W        W68412   3.740   2.396   3.213
96098W        W68413  30.454  37.481   0.470
96099W        W68414  29.629   0.262   1.245
96100W        W68415  41.953  23.710   4.259
96101W        W68416  41.345  43.494   2.259
96102W        W68417  12.771  41.536  10.471
96103W        W68418  38.847   4.372  13.048
96104W        W68419   6.887  13.670   1.268
96105W        W68420  37.360  16.188  14.361
96106W        W68421  38.979  29.072   4.326
96107W        W68422  35.044   5.267   3.719
96108W        W68423  17.579  24.633   4.836
96109W        W68424   8.656   9.841  12.837
96110W        W68425   0.294  37.038   5.748
96111W        W68426  32.545   1.367  12.397
96112W        W68427  15.286  37.895  14.417
96113W        W68428  10.806   8.676   3.678
96114W        W68429  31.121  33.925   1.741
96115W        W68430   3.926  35.940  12.830
96116W        W68431  33.612   4.746  12.397
96117W        W68432  44.377   9.223   1.770
96118W        W68433   2.427  41.828   2.278
96119W        W68434   6.915  36.391  13.941
96120W        W68435   6.804  35.448  12.563
96121W        W68436  28.013  10.743   3.850
96122W        W68437  20.715   7.241   1.441
96123W        W68438   1.400  26.023  10.571
96124W        W68439  10.781  17.670  11.918
96125W        W68440  29.578  42.521  14.012
96126W        W68441  12.352  33.037  11.017
96127W        W68442  16.665  30.112  12.490
96128W        W68443  25.603  13.827   1.745
96129W        W68444  33.074  39.880  10.962
96130W        W68445  24.221  38.498  10.644
96131W        W68446  33.892   7.820   0.786
96132W        W68447  39.333  21.756   3.333
96133W        W68448  34.894  25.042   1.408
96134W        W68449  19.170   2.381   2.767
96135W        W68450  27.681  13.659   2.201
96136W        W68451  13.681  16.575   3.779
96137W        W68452  39.826   5.835  11.875
96138W        W68453   3.892   9.234  13.918
96139W        W68454  31.100   1.970  10.923
96140W        W68455   7.272  43.411   1.710
96141W        W68456  36.974  40.915   4.321
96142W        W68457   5.855  31.425  13.826
96143W        W68458  14.603  16.088  10.580
96144W        W68459  28.039   5.698   1.363
96145W        W68460  42.828  32.109   5.229
96146W        W68461   6.856   2.267  14.788
96147W        W68462  31.639  40.435   3.813
96148W        W68463  41.833  33.382  10.147
96149W        W68464  44.756  25.110  11.956
96150W        W68465  27.499  21.708   1.781
96151W        W68466   2.734  36.893   2.205
96152W        W68467   0.822   3.865   3.716
96153W        W68468  34.945  39.355   3.274
96154W        W68469  42.294  23.105  10.927
96155W        W68470   4.286  15.150   0.361
96156W        W68471  16.581   6.216  14.761
96157W        W68472  25.121  20.737   0.385
96158W        W68473  25.127  28.041  12.032
96159W        W68474   5.392  14.591  11.008
96160W        W68475  11.849   5.366  13.940
96161W        W68476  10.760  20.573  12.896
96162W        W68477  18.165  30.924   3.197
96163W        W68478  20.232  14.709   3.868
96164W        W68479   4.438  36.930   2.308
96165W        W68480   0.288  25.979  13.344
96166W        W68481  34.983  39.013  12.563
96167W        W68482  37.896  18.573  13.495
96168W        W68483  19.739  25.532   4.182
96169W        W68484   6.844  18.091   1.210
96170W        W68485  31.108  14.738  13.483
96171W        W68486   0.432  28.670  14.839
96172W        W68487  41.839  36.578  14.817
96173W        W68488   0.940  14.749   0.249
96174W        W68489  27.604  44.994   2.879
96175W        W68490  13.801  29.002   3.366
96176W        W68491  25.199   8.380   0.369
96177W        W68492  36.961  42.998   0.400
96178W        W68493  25.556   8.686   4.183
96179W        W68494   5.374   3.385   2.203
96180W        W68495  27.511   1.434   3.299
96181W        W68496  18.276  18.157  13.029
96182W        W68497   4.326  15.305  13.386
96183W        W68498  26.027  32.142   0.800
96184W        W68499  17.718  34.613  12.854
96185W        W68500  27.583   2.762  13.803
96186W        W68501  24.673   1.846   4.190
96187W        W68502  37.451  27.509   4.704
96188W        W68503  40.050  26.176   0.762
96189W        W68504  22.137  20.062  11.464
96190W        W68505  42.922  26.993  10.640
96191W        W68506  13.148  41.834  12.416
96192W        W68507  39.868  12.304   2.716
96193W        W68508   8.292  25.166   4.815
96194W        W68509  25.054  30.462  14.928
96195W        W68510  21.165  17.205   0.442
96196W        W68511  43.004  19.178   1.421
96197W        W68512  35.449  36.965   3.744
96198W        W68513  11.797  14.679  11.927
96199W        W68514   0.477   4.816  14.352
96200W        W68515  10.263  12.792  13.916
96201W        W68516  14.282   2.271   1.395
96202W        W68517  15.279  44.327  10.946
96203W        W68518   4.746   7.730   3.260
96204W        W68519  18.714  41.498  13.378
96205W        W68520  25.122  34.018  13.400
96206W        W68521  33.901  34.375  14.766
96207W        W68522   3.914  19.710  11.434
96208W        W68523  28.009  33.964   5.579
96209W        W68524  29.668   1.360  13.822
96210W        W68525  31.618   4.241  13.511
96211W        W68526  16.765  17.065   4.334
96212W        W68527   4.386  26.531  10.571
96213W        W68528  37.965  41.359   2.810
96214W        W68529  25.042  15.186  14.967
96215W        W68530  37.338   1.902   1.891
96216W        W68531  36.924  19.082   2.809
96217W        W68532  12.250  21.112   2.767
96218W        W68533  16.620   6.840   1.413
96219W        W68534   2.372  39.331   2.784
96220W        W68535  36.416  22.573   1.920
96221W        W68536  14.205  10.749  12.848
96222W        W68537  12.640  15.194  10.951
96223W        W68538   4.834  42.382  11.534
96224W        W68539   5.876  38.923  11.085
96225W        W68540   9.659  41.309   0.255
96226W        W68541  31.971  40.496   4.773
96227W        W68542  39.888  16.167   2.773
96228W        W68543   1.943  23.042   3.646
96229W        W68544  28.984  43.325  13.407
96230W        W68545  24.002  41.354   5.211
96231W        W68546  27.594  19.705   0.825
96232W        W68547  44.936  11.225  11.970
96233W        W68548  11.235   4.792  14.317
96234W        W68549  22.615   9.738  11.011
96235W        W68550  29.669  33.111   4.202
96236W        W68551  18.089  25.999  10.926
96237W        W68552  39.481  33.462  11.463
96238W        W68553   3.434  19.113  11.909
96239W        W68554  37.539  30.436  12.359
96240W        W68555  20.098  44.358  14.434
96241W        W68556  21.586  43.016  13.466
96242W        W68557  27.017  40.348   1.711
96243W        W68558   4.352  23.211  11.865
96244W        W68559  18.177  19.619   2.278
96245W        W68560   4.245  27.468  13.854
96246W        W68561  22.586  32.096  14.806
96247W        W68562  42.327  37.519   4.253
96248W        W68563   8.225  37.904   4.217
96249W        W68564  44.789  37.371   2.349
96250W        W68565  28.672  19.127   1.726
96251W        W68566  43.883   3.770   2.197
96252W        W68567   6.856  14.229  14.829
96253W        W68568  27.173   4.384   1.865
96254W        W68569  41.427  27.679   1.362
96255W        W68570  19.655  29.447   4.286
96256W        W68571   2.226   5.894  12.517
96257W        W68572  21.597  23.004   1.696
96258W        W68573  37.351  43.322   0.296
96259W        W68574  14.802   2.752   2.663
96260W        W68575  30.072   3.899  10.613
96261W        W68576  30.456  18.162  14.443
96262W        W68577  13.116  14.211   3.284
96263W        W68578   1.378  11.218   2.247
96264W        W68579  28.608  30.440  11.124
96265W        W68580  20.640  26.659   3.820
96266W        W68581  37.541   3.334  14.792
96267W        W68582   1.420   2.728   3.206
96268W        W68583  16.178  25.498  12.077
96269W        W68584  16.240  39.546  14.380
96270W        W68585  22.617  11.778   3.841
96271W        W68586  44.379  21.755   2.262
96272W        W68587  30.588  12.797  10.950
96273W        W68588  27.968  15.590  14.483
96274W        W68589   0.859  40.855  13.382
96275W        W68590  21.604  12.677  14.983
96276W        W68591  21.701  15.751   3.845
96277W        W68592   6.901  38.991  10.631
96278W        W68593  18.673  35.023  12.507
96279W        W68594  21.576  16.736   4.184
96280W        W68595  40.915  37.555  13.429
96281W        W68596  22.724   6.310   0.432
96282W        W68597  30.639  17.773   4.346
96283W        W68598  13.260  38.394   2.381
96284W        W68599  29.117  29.065  13.389
96285W        W68600   7.681   8.332   0.434
96286W        W68601  37.555   2.844   0.736
96287W        W68602  25.199  34.393   2.664
96288W        W68603  15.763   4.397  13.009
96289W        W68604  29.508  29.065   4.668
96290W        W68605  24.636  41.924   4.223
96291W        W68606  31.096  28.546   3.226
96292W        W68607  34.423  41.022  12.922
96293W        W68608  25.198   3.784   5.200
96294W        W68609  27.523  44.812   1.337
96295W        W68610  27.104   1.451   2.336
96296W        W68611  11.193  19.127   1.250
96297W        W68612  25.626  16.257  10.902
96298W        W68613  17.258  36.474   1.821
96299W        W68614   0.294  21.052   1.838
96300W        W68615   9.847  12.180  10.437
96301W        W68616  35.968  41.950   4.321
96302W        W68617  32.015  27.115  14.327
96303W        W68618  16.192  16.105   4.610
96304W        W68619  15.141   6.798  11.568
96305W        W68620   2.369  36.019  11.087
96306W        W68621  43.331  40.909   3.786
96307W        W68622  37.435   5.749   2.278
96308W        W68623  41.040  43.425  12.568
96309W        W68624  10.215  23.626   3.657
96310W        W68625  43.505  27.622  11.982
96311W        W68626  26.020   2.472   2.857
96312W        W68627   6.886  42.357  10.409
96313W        W68628  18.179   7.713   2.890
96314W        W68629  40.971  30.429   3.172
96315W        W68630  36.574  10.779   2.810
96316W        W68631  31.130  43.805  13.029
96317W        W68632  26.677   4.765   2.401
96318W        W68633  42.315  31.093  11.434
96319W        W68634  17.594  11.227  13.828
96320W        W68635  11.628  40.944  11.413
96321W        W68636  38.404  29.043   4.134
96322W        W68637   9.366  24.688   2.295
96323W        W68638  26.053  41.528   4.676
96324W        W68639  21.517   5.810   2.286
96325W        W68640  15.100  27.606   4.772
96326W        W68641  17.672   4.828  11.059
96327W        W68642  23.189   5.374  14.929
96328W        W68643  41.516   7.380  10.586
96329W        W68644  17.600  38.461  14.299
96330W        W68645  21.170  24.018  11.422
96331W        W68646  33.580  41.980   2.368
96332W        W68647  38.388  15.816   0.860
96333W        W68648   8.811   0.476   3.154
96334W        W68649  15.775  31.433   3.756
96335W        W68650  17.223  37.437   3.338
96336W        W68651  29.963  18.108   2.233
96337W        W68652   0.335  42.379  10.618
96338W        W68653  28.148  40.827  13.804
96339W        W68654   2.465  26.468   0.389
96340W        W68655   6.696   9.232  12.991
96341W        W68656  28.977  35.457  14.476
96342W        W68657  37.370  18.137   1.863
96343W        W68658   0.337  36.441  12.061
96344W        W68659   3.410  39.008  10.966
96345W        W68660  33.907   2.303  11.547
96346W        W68661  21.152   0.929   4.153
96347W        W68662  28.986  23.160   0.817
96348W        W68663  43.776   8.378   0.967
96349W        W68664  25.669  44.913   1.698
96350W        W68665   9.781  37.567  13.452
96351W        W68666  15.692  12.286  12.513
96352W        W68667  12.679  40.034  11.946
96353W        W68668  33.945  26.986   4.657
96354W        W68669  29.992   7.405   1.779
96355W        W68670  44.767   3.888  12.085
96356W        W68671  27.196  42.366   0.910
96357W        W68672  42.346  10.171  11.521
96358W        W68673   0.827  20.160   0.313
96359W        W68674  24.227  28.498   0.431
96360W        W68675  22.603  42.299   2.389
96361W        W68676  29.115   9.672  13.824
96362W        W68677  42.414  16.258  13.878
96363W        W68678  23.704   0.427  14.943
96364W        W68679   6.310  10.148  10.471
96365W        W68680  43.493  24.165   3.767
96366W        W68681   1.753  10.840   3.347
96367W        W68682   3.287  33.960   4.789
96368W        W68683  40.531  14.333   2.313
96369W        W68684  33.455   7.370  11.084
96370W        W68685  34.101  25.648   3.805
96371W        W68686  32.103  31.146  14.870
96372W        W68687  17.214  42.509  13.342
96373W        W68688  37.999  30.124  13.359
96374W        W68689  39.902  29.447   0.252
96375W        W68690  40.402  15.711  11.442
96376W        W68691  23.575  17.602  11.527
96377W        W68692  13.195  38.499   1.755
96378W        W68693  35.534  40.380  13.856
96379W        W68694  36.441   3.812  12.387
96380W        W68695  11.202  19.612  14.379
96381W        W68696  32.106  39.381   4.674
96382W        W68697  15.630  41.925   4.779
96383W        W68698  10.324   1.312   4.173
96384W        W68699  15.175  14.746  11.989
96385W        W68700  33.896  28.493   2.688
96386W        W68701  27.168  10.688  11.858
96387W        W68702   5.318  31.033   1.286
96388W        W68703  14.193   6.758   1.424
96389W        W68704   2.951  33.572  10.531
96390W        W68705  40.499  36.052   1.787
96391W        W68706  34.401  38.876  13.368
96392W        W68707  22.541  21.612  14.392
96393W        W68708  30.536  18.066   2.707
96394W        W68709  15.814   0.768   0.411
96395W        W68710  38.931  39.925  12.521
96396W        W68711   5.779  22.091   3.775
96397W        W68712  35.600  37.478   5.260
96398W        W68713  40.314  13.774  12.852
96399W        W68714  28.617   5.256  11.550
96400W        W68715  33.885  25.210  14.423
96401W        W68716  18.550   2.340   3.851
96402W        W68717  31.454  29.513   0.476
96403W        W68718  38.328   2.385   2.314
96404W        W68719   1.902  44.837   4.806
96405W        W68720  32.462  43.869   2.765
96406W        W68721   6.250  33.626  11.865
96407W        W68722  26.997  19.611  11.402
96408W        W68723  18.727   1.892  14.405
96409W        W68724  15.824  15.275  10.592
96410W        W68725  26.004  34.504   4.243
96411W        W68726  22.115  20.734   4.731
96412W        W68727  14.190   8.273   2.714
96413W        W68728  44.352  28.541  14.331
96414W        W68729  13.829  36.998   0.315
96415W        W68730   6.687  11.756   0.276
96416W        W68731  44.505  38.950   5.186
96417W        W68732  31.094  40.530   3.284
96418W        W68733  11.654  19.755  10.126
96419W        W68734  27.528  10.170   5.123
96420W        W68735  30.454  10.771  12.090
96421W        W68736  19.066   1.422   3.700
96422W        W68737  17.167   1.380   4.689
96423W        W68738  28.174  39.900  10.911
96424W        W68739  35.567   6.261  14.313
96425W        W68740  21.100   2.823  11.890
96426W        W68741  15.706  16.202   1.443
96427W        W68742   9.227  30.484   5.174
96428W        W68743  30.062  16.628   4.193
96429W        W68744  34.480   4.895   3.780
96430W        W68745  10.245  29.502   1.789
96431W        W68746  19.221   7.717  11.026
96432W        W68747  21.224  41.893  14.957
96433W        W68748   0.297   6.233   4.639
96434W        W68749  27.664   8.339   1.250
96435W        W68750  14.106  44.929  11.922
96436W        W68751  29.144  16.115  13.433
96437W        W68752  40.040   6.364  11.524
96438W        W68753   2.789  36.511  10.642
96439W        W68754  16.650  24.114   0.366
96440W        W68755  42.962  21.122  13.532
96441W        W68756  41.309  42.460   3.836
96442W        W68757  37.392  40.507   1.898
96443W        W68758  27.656  21.091  13.407
96444W        W68759  14.797  33.014   3.688
96445W        W68760  39.348  21.150  10.580
96446W        W68761   7.358  17.217   2.898
96447W        W68762  11.169   8.710   3.290
96448W        W68763   2.884  29.989   1.713
96449W        W68764  30.994  18.096  13.343
96450W        W68765  16.729  14.211  13.379
96451W        W68766   2.278   6.220   1.385
96452W        W68767  35.082  37.867  14.319
96453W        W68768   3.852   0.411  11.487
96454W        W68769   8.278  35.479  14.994
96455W        W68770  21.043  44.958  10.995
96456W        W68771  22.203   8.250   2.281
96457W        W68772  20.724  16.739  12.421
96458W        W68773   1.845  44.877  10.543
96459W        W68774  22.187  38.941  11.554
96460W        W68775   4.922  15.221   4.828
96461W        W68776  36.964   2.285   2.721
96462W        W68777   4.895   3.232  11.471
96463W        W68778  31.446  21.178   0.933
96464W        W68779  44.450  21.136  11.401
96465W        W68780  32.907  26.158   2.298
96466W        W68781  32.472   9.816   0.476
96467W        W68782  26.054  31.079   4.770
96468W        W68783  12.797  18.548  14.349
96469W        W68784  16.242  13.316   0.729
96470W        W68785  41.467  44.909  14.357
96471W        W68786  12.131  39.959   3.730
96472W        W68787  30.608  33.042   1.343
96473W        W68788  10.647  13.713  14.013
96474W        W68789  19.686   4.231   9.931
96475W        W68790  23.046  32.622   3.826
96476W        W68791  10.671  16.288   0.729
96477W        W68792   9.286  31.038  13.526
96478W        W68793   1.801  13.303   1.429
96479W        W68794  18.681  30.045  11.529
96480W        W68795  33.005  38.341  14.428
96481W        W68796  40.417  38.863   1.356
96482W        W68797  43.795  39.537  14.937
96483W        W68798   2.886  44.886  10.514
96484W        W68799   6.409  44.851   2.323
96485W        W68800   2.915  31.131  11.085
96486W        W68801  30.029   0.759   0.740
96487W        W68802  30.516  32.519  14.481
96488W        W68803  16.230  16.570  10.481
96489W        W68804  18.786  20.529  13.058
96490W        W68805  38.376   3.890  11.480
96491W        W68806  41.390  37.934   0.477
96492W        W68807  28.556   7.180  13.031
96493W        W68808  31.038  10.844  12.875
96494W        W68809  15.669  42.840  10.588
96495W        W68810  26.954  33.592   5.132
96496W        W68811  20.147  23.640   3.648
96497W        W68812  37.446  32.499  13.875
96498W        W68813  34.994   8.371  10.952
96499W        W68814  33.491  25.505   1.380
96500W        W68815  27.534  11.331  11.074
96501W        W68816  30.999  14.333   1.410
96502W        W68817  14.632  30.032  13.867
96503W        W68818  35.973  13.665   4.657
96504W        W68819  31.434   7.310  14.426
96505W        W68820  16.208  26.459  11.964
96506W        W68821  34.087   4.274  10.607
96507W        W68822  13.660  38.381  11.928
96508W        W68823  27.024  42.952   3.818
96509W        W68824   8.719   7.354  14.356
96510W        W68825  27.663   5.235  10.946
96511W        W68826  39.392   2.334   2.287
96512W        W68827  23.152  23.203  13.063
96513W        W68828  43.800  11.845  13.527
96514W        W68829  36.542  35.462  11.450
96515W        W68830  19.213  28.587   3.367
96516W        W68831   8.737  39.949  14.894
96517W        W68832  27.000   9.387   0.915
96518W        W68833  30.521  33.996  12.972
96519W        W68834  28.670  14.140  14.834
96520W        W68835  44.263  18.726  11.484
96521W        W68836  23.556   1.353  13.368
96522W        W68837  36.001  10.375  10.615
96523W        W68838  25.987   7.358   2.360
96524W        W68839   5.225  18.609  10.499
96525W        W68840  30.002  16.743   0.357
96526W        W68841  42.913  26.698   0.479
96527W        W68842  26.977  44.806  11.875
96528W        W68843  29.001  16.249   2.853
96529W        W68844  31.441  20.572  12.412
96530W        W68845  17.745  10.265  11.027
96531W        W68846   8.809  26.487   3.765
96532W        W68847  31.518  11.364  14.461
96533W        W68848   8.292  35.929   2.876
96534W        W68849  25.649   7.203   1.387
96535W        W68850  25.591  34.385  12.869
96536W        W68851  43.900  15.307   2.853
96537W        W68852  40.477  13.133   4.122
96538W        W68853  21.052  20.764  13.462
96539W        W68854  41.016  38.993   3.164
96540W        W68855  14.112   4.251   4.323
96541W        W68856  39.353  19.040  14.827
96542W        W68857  23.581  10.384   3.172
96543W        W68858   9.732  11.210   2.840
96544W        W68859   0.965  38.919   1.348
96545W        W68860   3.425  31.037  13.817
96546W        W68861   7.901   2.343  14.408
96547W        W68862  16.750  42.012  11.398
96548W        W68863  11.775  10.760   2.878
96549W        W68864  14.614  31.127  13.366
96550W        W68865  31.489  15.624   3.706
96551W        W68866  29.052  12.837   1.897
96552W        W68867  14.621   3.733   4.214
96553W        W68868  38.918  39.463   0.340
96554W        W68869  31.927  19.695   0.273
96555W        W68870  39.439  10.853   1.430
96556W        W68871  32.084  22.636  11.985
96557W        W68872  16.721  28.064  10.614
96558W        W68873  26.148  40.830   2.183
96559W        W68874   3.224  20.112   0.398
96560W        W68875  10.742   5.432   0.799
96561W        W68876  43.988  43.927   2.265
96562W        W68877  26.490   6.687   0.456
96563W        W68878  19.546  28.059   2.399
96564W        W68879  34.433  18.560  14.295
96565W        W68880  12.238  31.632   2.780
96566W        W68881  25.620   7.695   2.392
96567W        W68882  11.661  40.011   2.697
96568W        W68883  27.099  13.219  11.469
96569W        W68884  28.136  28.613  12.861
96570W        W68885  27.025   1.249   1.870
96571W        W68886  28.459   9.789   1.908
96572W        W68887  31.609   3.729  13.054
96573W        W68888   0.456  29.117   3.291
96574W        W68889  17.220  42.909  10.036
96575W        W68890  29.118   5.833   1.727
96576W        W68891  36.431  19.178  10.563
96577W        W68892  27.128  28.564  14.840
96578W        W68893  13.644  34.088  10.944
96579W        W68894  23.622  39.983  13.540
96580W        W68895  40.004  42.425  14.879
96581W        W68896   3.905   8.840  13.802
96582W        W68897   9.316  39.416   4.351
96583W        W68898   8.335   7.288   3.775
96584W        W68899  16.593  33.433  11.115
96585W        W68900  39.390  40.955   4.798
96586W        W68901  13.681   9.740  12.428
96587W        W68902  26.042  36.066  10.605
96588W        W68903  29.436  16.791  11.864
96589W        W68904  24.715  32.590  13.537
96590W        W68905  33.601  39.876   0.313
96591W        W68906   6.394  15.142   0.348
96592W        W68907  15.712  36.960   0.843
96593W        W68908  19.571  29.564  13.878
96594W        W68909  10.310  16.713   9.532
96595W        W68910  11.292  18.611  11.856
96596W        W68911  28.489  37.449   4.662
96597W        W68912  28.077  14.813   4.275
96598W        W68913   3.922  22.628   4.807
96599W        W68914  26.502  10.255  10.456
96600W        W68915   1.336  25.124   2.199
96601W        W68916   5.399  11.689   4.215
96602W        W68917  11.839   6.360   0.861
96603W        W68918  12.730   3.352  13.020
96604W        W68919  11.805  25.971   4.256
96605W        W68920  11.298   8.675   3.662
96606W        W68921  21.094   4.406   2.286
96607W        W68922   2.803   3.448   3.258
96608W        W68923   2.248  27.459  10.905
96609W        W68924   4.234  33.489   3.733
96610W        W68925  41.968  29.084  13.470
96611W        W68926  22.049  18.257  13.410
96612W        W68927  14.289  24.559  11.869
96613W        W68928  28.470  26.679   1.889
96614W        W68929   4.330  31.553   4.238
96615W        W68930  31.566  22.202   2.333
96616W        W68931   4.757   0.752   0.804
96617W        W68932  33.392  21.530   1.815
96618W        W68933   9.790  24.134  11.376
96619W        W68934  31.408  11.671   4.290
96620W        W68935  12.195  31.072   1.388
96621W        W68936   0.884  42.405  12.974
96622W        W68937   4.935  39.385   2.852
96623W        W68938  25.182  16.613   0.287
96624W        W68939  34.961  19.157   4.266
96625W        W68940   5.789  16.135  12.553
96626W        W68941  28.495   9.360  12.525
96627W        W68942  33.616   7.377  13.422
96628W        W68943  20.739  27.141   4.647
96629W        W68944   9.701   6.747  14.400
96630W        W68945  29.461  30.558  11.540
96631W        W68946  25.667   0.282  13.477
96632W        W68947  15.233  20.618   0.348
96633W        W68948   7.911  40.826   1.725
96634W        W68949   5.409  44.317   0.806
96635W        W68950  22.162  38.353  13.545
96636W        W68951  41.453  42.397   0.272
96637W        W68952   9.862   9.866  12.476
96638W        W68953   6.892  38.325  11.881
96639W        W68954  40.920  18.789  12.403
96640W        W68955  25.068  42.410  14.277
96641W        W68956  15.118   3.303   2.311
96642W        W68957  31.411  24.123   1.898
96643W        W68958   1.789  22.089  11.500
96644W        W68959  44.836  25.122  10.636
96645W        W68960   0.250  24.117  14.809
96646W        W68961  37.030  43.483   2.818
96647W        W68962  22.506  27.012   2.242
96648W        W68963  24.187  42.432   2.180
96649W        W68964   6.201  16.781   1.911
96650W        W68965   6.247  25.607   2.892
96651W        W68966  44.381  22.595  11.441
96652W        W68967   3.407  37.841  10.975
96653W        W68968  43.020  23.652  14.506
96654W        W68969  21.710  13.602   2.262
96655W        W68970  10.827  11.789  14.020
96656W        W68971  27.062  34.927  14.765
96657W        W68972   4.309  21.679  13.965
96658W        W68973  14.734  22.141  14.830
96659W        W68974  28.505  13.219  14.786
96660W        W68975  41.394  12.336   3.822
96661W        W68976  24.693  30.065  14.403
96662W        W68977   6.292  30.049  14.339
96663W        W68978  34.454  22.681   4.204
96664W        W68979  43.922  27.139   3.163
96665W        W68980  38.513  18.546   0.438
96666W        W68981  29.162  27.130   4.176
96667W        W68982  37.445  27.531   2.753
96668W        W68983  33.954  15.738   0.423
96669W        W68984  32.141  22.057  14.927
96670W        W68985  14.141  38.897   1.231
96671W        W68986  10.643  40.876  11.513
96672W        W68987  13.194  24.720  11.080
96673W        W68988  20.078   6.348  14.900
96674W        W68989  26.646  41.833  14.928
96675W        W68990  38.072  20.705  13.378
96676W        W68991   4.274   9.196  11.090
96677W        W68992  20.590  13.805  14.399
96678W        W68993  16.682  19.654  13.802
96679W        W68994   3.911  14.275  13.830
96680W        W68995  44.914   7.808  14.016
96681W        W68996  15.243  37.054   1.234
96682W        W68997  25.019  37.029   1.778
96683W        W68998   5.805  27.567   4.139
96684W        W68999  40.525  10.695   0.865
96685W        W69000   6.723  23.503  13.048
96686W        W69001  13.741  29.946   4.798
96687W        W69002  37.073  14.679  14.882
96688W        W69003  38.952  16.626   0.809
96689W        W69004  38.469  27.073  10.993
96690W        W69005  20.264  21.697  11.043
96691W        W69006  19.695   4.855   2.223
96692W        W69007  25.104  11.796   4.826
96693W        W69008  40.470  26.457  13.414
96694W        W69009   0.970  17.152  13.950
96695W        W69010   9.734   8.221   2.677
96696W        W69011   4.713  16.081   2.230
96697W        W69012   8.898  31.412  12.561
96698W        W69013  29.074  31.967   2.260
96699W        W69014  13.686  33.436  12.976
96700W        W69015  31.534  37.471  14.970
96701W        W69016   0.766  30.022  14.275
96702W        W69017  34.479   8.886   4.220
96703W        W69018  32.516  38.072   1.231
96704W        W69019  38.411  40.495  12.856
96705W        W69020  43.012  24.008   0.779
96706W        W69021   6.732  43.359  10.504
96707W        W69022  24.562   3.950  11.394
96708W        W69023  19.619  19.672  12.029
96709W        W69024  28.646  24.178  11.596
96710W        W69025   1.335  31.965   2.771
96711W        W69026  10.732  21.126   1.441
96712W        W69027  22.165  28.993   2.410
96713W        W69028  26.657  41.910   1.868
96714W        W69029   3.415   7.709   5.094
96715W        W69030  23.640   1.407  12.848
96716W        W69031  38.344  32.443   3.824
96717W        W69032  14.246  15.813  10.889
96718W        W69033  31.611  40.934   1.914
96719W        W69034  44.970  30.966   2.201
96720W        W69035  14.634  31.507   2.406
96721W        W69036  16.225  13.705  12.501
96722W        W69037  32.447  39.993   2.351
96723W        W69038  23.736  14.242  14.507
96724W        W69039  37.526  18.600  12.462
96725W        W69040  20.681  22.065  14.362
96726W        W69041  33.076  33.433  13.417
96727W        W69042  20.131  18.284   1.737
96728W        W69043  21.619  39.382  12.364
96729W        W69044  15.143  25.030   3.184
96730W        W69045   0.747   0.422   4.836
96731W        W69046   2.898  35.931  10.888
96732W        W69047  43.949  19.083  12.506
96733W        W69048  14.127  42.875   3.851
96734W        W69049  30.494  25.495  13.499
96735W        W69050   4.350  43.303  13.484
96736W        W69051  19.110  24.561  14.329
96737W        W69052  12.847  17.305   4.275
96738W        W69053   4.236  24.548   0.843
96739W        W69054   2.371  43.790   4.773
96740W        W69055  31.422  40.805  12.458
96741W        W69056  41.819  18.779   2.281
96742W        W69057  43.498  37.529  11.070
96743W        W69058  37.437  14.620  12.962
96744W        W69059  41.964   4.909  11.525
96745W        W69060  25.613  40.439  13.340
96746W        W69061  39.430  12.249  12.039
96747W        W69062  27.105  11.295  12.087
96748W        W69063  13.175  11.130   2.256
96749W        W69064  17.156  25.515  13.852
96750W        W69065  28.574  15.780  14.385
96751W        W69066  18.065  18.247  11.033
96752W        W69067  40.913  40.417  12.960
96753W        W69068  14.689  32.530  12.441
96754W        W69069  42.956  23.508  12.455
96755W        W69070  41.448  15.315   3.790
96756W        W69071  40.975  39.365   3.802
96757W        W69072  33.015  30.037  11.420
96758W        W69073  28.492  44.310  12.483
96759W        W69074  15.603  31.916   1.318
96760W        W69075  27.975   1.770  11.463
96761W        W69076  11.845  22.013  12.372
96762W        W69077  12.671   5.363  12.088
96763W        W69078  32.989  16.196   1.224
96764W        W69079  18.593   5.776  10.899
96765W        W69080  35.593  27.518   1.743
96766W        W69081  21.241  26.981  11.610
96767W        W69082   4.713  20.117  14.915
96768W        W69083  32.593  35.954   2.679
96769W        W69084  11.635  32.923  14.945
96770W        W69085  18.650  40.506  12.084
96771W        W69086  35.940   8.854  10.485
96772W        W69087  20.741  37.339   3.253
96773W        W69088   5.779  12.148   0.885
96774W        W69089  31.416   3.452   0.428
96775W        W69090   2.442  12.770   4.803
96776W        W69091  11.157   6.392   3.654
96777W        W69092  15.117   6.228   0.403
96778W        W69093  41.025  28.454  12.845
96779W        W69094  29.952  15.712  13.062
96780W        W69095  24.716  26.200   4.166
96781W        W69096  24.506  18.157   3.246
96782W        W69097  43.493   2.908   2.312
96783W        W69098  10.687  27.460   2.398
96784W        W69099  38.883  40.905  11.436
96785W        W69100  44.392  30.488  13.034
96786W        W69101  25.640  20.624   4.163
96787W        W69102  42.976  35.081  12.996
96788W        W69103  27.092  38.055  13.971
96789W        W69104   7.329  15.285  13.517
96790W        W69105  18.632  10.716  11.390
96791W        W69106   7.261   9.876  14.877
96792W        W69107   7.276  19.260   3.297
96793W        W69108  36.026  25.077  10.603
96794W        W69109  17.676  34.512   0.429
96795W        W69110  22.061   8.865  12.995
96796W        W69111  40.505   1.798  12.518
96797W        W69112  25.480  11.231   1.714
96798W        W69113  26.688  43.919  12.433
96799W        W69114  17.714  20.186  13.019
96800W        W69115  41.507  44.321  11.445
96801W        W69116  38.545  16.730   4.836
96802W        W69117   4.331  14.823  10.536
96803W        W69118  15.198  14.334   1.365
96804W        W69119  41.485  24.503   4.336
96805W        W69120  20.260   4.357   1.789
96806W        W69121  38.470  40.387  13.469
96807W        W69122  12.640  36.927   0.339
96808W        W69123  10.255   7.400   4.262
96809W        W69124  39.407  15.121  11.049
96810W        W69125   0.822  15.247  12.536
96811W        W69126  44.318  16.640  10.588
96812W        W69127  27.091  24.625  10.981
96813W        W69128  11.778  33.604  11.921
96814W        W69129  10.210  24.004   2.274
96815W        W69130  41.325  36.406   0.730
96816W        W69131  35.589  11.190   2.888
96817W        W69132  36.383  23.052  13.844
96818W        W69133  41.979  38.940   1.699
96819W        W69134  41.880  27.120   1.365
96820W        W69135   6.818  27.591   2.888
96821W        W69136  16.298   0.336  14.376
96822W        W69137  22.130  16.746   3.187
96823W        W69138  44.460  27.086  10.158
96824W        W69139  37.525  21.215   1.223
96825W        W69140  38.965   9.863  14.016
96826W        W69141  35.070  18.769   3.807
96827W        W69142  24.176  27.471   1.248
96828W        W69143   0.493  13.233  14.781
96829W        W69144   7.865   5.869  13.484
96830W        W69145  14.769   8.890  13.854
96831W        W69146  40.367  21.178  12.896
96832W        W69147   9.303  18.758  11.953
96833W        W69148  35.865  38.562   1.216
96834W        W69149  20.716  22.705   1.786
96835W        W69150   9.369  41.463  10.490
96836W        W69151   7.305   0.921   3.859
96837W        W69152  35.022  18.112   0.265
96838W        W69153  39.035   8.685  12.405
96839W        W69154  13.656  20.649   3.682
96840W        W69155  31.043  19.243  14.848
96841W        W69156  34.464   8.295   0.880
96842W        W69157  18.089  40.546  13.492
96843W        W69158   4.926  18.208   2.239
96844W        W69159  31.091  39.002  12.019
96845W        W69160  37.880  30.075   3.349
96846W        W69161  11.671  40.464  12.092
96847W        W69162  40.003  37.395  11.888
96848W        W69163  17.626  44.463   2.791
96849W        W69164  40.356  40.492  12.882
96850W        W69165   4.258  19.708  10.442
96851W        W69166  20.681  41.997  13.490
96852W        W69167  39.822  43.445   2.274
96853W        W69168  15.313   1.373  12.902
96854W        W69169  20.221  26.953   2.683
96855W        W69170  31.062  37.475  13.831
96856W        W69171   4.263   0.874  14.953
96857W        W69172  12.157  38.910  10.464
96858W        W69173   8.885  30.517   0.264
96859W        W69174   7.908  21.238   5.256
96860W        W69175  43.911  23.105  13.468
96861W        W69176  10.376  36.051  11.031
96862W        W69177  10.258  17.649   0.893
96863W        W69178  21.684  30.062   1.922
96864W        W69179  39.968  40.342  11.405
96865W        W69180  39.348  42.025  13.869
96866W        W69181  36.946  34.893   2.254
96867W        W69182   3.903  42.515  14.846
96868W        W69183   0.392  25.064  13.824
96869W        W69184  44.942   5.292   3.793
96870W        W69185  30.092  10.323  11.564
96871W        W69186  33.400   8.870  13.339
96872W        W69187   1.917  43.400   0.288
96873W        W69188  35.440  11.372   4.598
96874W        W69189   5.776  27.008   1.918
96875W        W69190  18.132   0.927  10.911
96876W        W69191   8.165  26.659  13.379
96877W        W69192  35.900  22.610  13.988
96878W        W69193  32.105  43.876   2.772
96879W        W69194  16.284  21.070   2.719
96880W        W69195  38.891  41.939   3.659
96881W        W69196   2.750   0.334   4.699
96882W        W69197  26.088  24.020   3.781
96883W        W69198   6.414  34.562   4.817
96884W        W69199  23.648  26.985  13.044
96885W        W69200  42.341  22.571   1.784
96886W        W69201  16.223  13.177  13.889
96887W        W69202   0.273  12.716  13.530
96888W        W69203  14.095  23.727   4.705
96889W        W69204  17.621   0.831  13.866
96890W        W69205  10.148  22.642   1.716
96891W        W69206  13.714  35.948  10.972
96892W        W69207  38.860  12.174  11.083
96893W        W69208  32.078   6.320  11.017
96894W        W69209   3.314  25.119   4.227
96895W        W69210  39.349  26.968   4.166
96896W        W69211  27.998  10.268   1.377
96897W        W69212  32.539  33.040   1.768
96898W        W69213   5.367  30.622  14.350
96899W        W69214  18.272  41.040   2.355
96900W        W69215   6.426  25.546  14.408
96901W        W69216   5.724  19.275   4.244
96902W        W69217  17.617  21.254   0.263
96903W        W69218  10.156  36.927  12.890
96904W        W69219  16.149   1.389  14.426
96905W        W69220  39.814  28.500  12.935
96906W        W69221   6.186  37.034   1.834
96907W        W69222  29.043  21.197  11.423
96908W        W69223   9.763  31.105  10.943
96909W        W69224  18.176  27.021  13.064
96910W        W69225  30.540   6.319  11.463
96911W        W69226  43.345  44.434   3.277
96912W        W69227  16.195  17.296  10.558
96913W        W69228  40.021   2.265   2.897
96914W        W69229  36.423  27.508   2.407
96915W        W69230  28.657  19.626   3.860
96916W        W69231  35.581  14.209  12.447
96917W        W69232   2.740  39.378   4.727
96918W        W69233  32.915   4.341   2.224
96919W        W69234  24.168  36.951  13.962
96920W        W69235  20.542   2.771  11.530
96921W        W69236   1.366  36.384   5.092
96922W        W69237  34.085  26.960  10.407
96923W        W69238  12.840  14.281   0.438
96924W        W69239  30.584  32.122   4.176
96925W        W69240   7.749  26.537   4.772
96926W        W69241  40.481  24.027  12.380
96927W        W69242   7.368  28.015  12.046
96928W        W69243  31.593   7.843  11.495
96929W        W69244  18.073  11.862  10.944
96930W        W69245  40.546  19.778   5.302
96931W        W69246  29.599  37.438  10.573
96932W        W69247  33.507   0.908   0.289
96933W        W69248   8.757  29.153  14.508
96934W        W69249  44.295   1.395   4.173
96935W        W69250   1.336  16.689   0.391
96936W        W69251  43.371  11.663  11.514
96937W        W69252  14.831  20.239  14.352
96938W        W69253  20.545  40.313   3.162
96939W        W69254  17.257  27.478   5.806
96940W        W69255  28.525  25.098   4.197
96941W        W69256  27.979  39.836   2.320
96942W        W69257   2.254  43.930   4.269
96943W        W69258  26.989  37.899   1.236
96944W        W69259   9.361  39.842  14.969
96945W        W69260  35.013   8.688  12.392
96946W        W69261  10.297   1.828  11.088
96947W        W69262   4.733  40.437  14.320
96948W        W69263  23.110  38.543  13.841
96949W        W69264  13.149  38.451  10.936
96950W        W69265  28.997   9.751   0.327
96951W        W69266   4.745   3.454  12.962
96952W        W69267  10.750  42.425  12.978
96953W        W69268  18.285   7.253   3.679
96954W        W69269  25.556  21.083   3.167
96955W        W69270  29.630  23.641   0.248
96956W        W69271  29.995  17.177   0.750
96957W        W69272   8.389  35.468   0.963
96958W        W69273  22.657  19.052   1.341
96959W        W69274  17.704  36.499   4.800
96960W        W69275  24.001  42.940   4.638
96961W        W69276   7.769  22.080  11.547
96962W        W69277  28.653  21.214  11.978
96963W        W69278   9.660  43.766   0.350
96964W        W69279   2.728  13.812  13.009
96965W        W69280  39.003  18.713  11.579
96966W        W69281   2.318  28.661   1.451
96967W        W69282   3.751  34.900   2.301
96968W        W69283  14.702  17.091  14.432
96969W        W69284  24.696  26.018  14.937
96970W        W69285  43.819  12.705   0.828
96971W        W69286  40.856   8.387  11.488
96972W        W69287  42.408   0.877   3.154
96973W        W69288  39.468   8.863   3.827
96974W        W69289  28.558  22.153  10.962
96975W        W69290  36.415  24.992  12.852
96976W        W69291  35.034  37.902   3.243
96977W        W69292   2.891   7.770   3.819
96978W        W69293  12.669  38.548   0.257
96979W        W69294  10.238   7.350  13.424
96980W        W69295  23.005  28.586   2.855
96981W        W69296   4.445  11.352   3.377
96982W        W69297  36.480  42.484  13.887
96983W        W69298  27.996  11.632   9.946
96984W        W69299  30.014  13.187   3.369
96985W        W69300  18.270  38.487  14.401
96986W        W69301   4.238  27.657   4.347
96987W        W69302  43.331  26.585  11.456
96988W        W69303  24.081  30.936  13.514
96989W        W69304  39.012  26.570  14.468
96990W        W69305  37.435  33.913   2.665
96991W        W69306  12.122  36.412  13.946
96992W        W69307  30.913  20.755  13.803
96993W        W69308  20.118  39.813  11.548
96994W        W69309   6.689   2.884  12.836
96995W        W69310  22.034  40.419   4.806
96996W        W69311  15.302   5.861  13.014
96997W        W69312  12.799  16.294  13.909
96998W        W69313  34.396  31.120   2.355
96999W        W69314  23.984   2.274  13.931
97000W        W69315  23.497  35.067   3.808
97001W        W69316  11.345  41.515   0.428
97002W        W69317  15.098  27.141   4.309
97003W        W69318  43.441  12.161   3.317
97004W        W69319  31.417  19.245  11.869
97005W        W69320  29.624  24.013   4.351
97006W        W69321  40.931  34.055   2.314
97007W        W69322  34.966  28.612  14.963
97008W        W69323  13.141  26.015  12.376
97009W        W69324  10.831  33.897   3.333
97010W        W69325  16.717  41.343  14.027
97011W        W69326  23.545  31.050   1.408
97012W        W69327  34.369  36.870  13.536
97013W        W69328  22.720   9.652  13.493
97014W        W69329   7.778  34.484   0.754
97015W        W69330  36.879  26.624   2.676
97016W        W69331  38.862  33.994   1.432
97017W        W69332  39.846   0.388   2.347
97018W        W69333  23.150  27.625   2.871
97019W        W69334  32.125  26.589   3.164
97020W        W69335  38.031  27.117   0.751
97021W        W69336   7.347  36.438  11.872
97022W        W69337   2.878  30.558   1.929
97023W        W69338  39.398  21.518   4.211
97024W        W69339   5.438  22.197  13.949
97025W        W69340  15.612   9.833  13.520
97026W        W69341  16.180   9.660   2.275
97027W        W69342  40.883  29.520  11.604
97028W        W69343  26.480  35.546   4.759
97029W        W69344  12.341  14.771  11.443
97030W        W69345  38.886   8.673   3.718
97031W        W69346  41.000  26.160   4.252
97032W        W69347   0.425  17.083  13.033
97033W        W69348  19.581  38.348   4.774
97034W        W69349   4.810   9.259   1.381
97035W        W69350  18.648  38.461   3.778
97036W        W69351  37.409   4.242   3.790
97037W        W69352   5.342  20.218  12.524
97038W        W69353  27.690  22.564   1.361
97039W        W69354  29.112   9.368  10.506
97040W        W69355  17.585  41.317  12.929
97041W        W69356  23.097  29.424   0.871
97042W        W69357  40.493  42.376   4.612
97043W        W69358  12.303  39.361  11.474
97044W        W69359  40.983  42.421  10.480
97045W        W69360  27.975  44.922   1.822
97046W        W69361  41.478  20.252   2.385
97047W        W69362   7.367   6.784   0.301
97048W        W69363  30.498   5.334  10.571
97049W        W69364   1.873   4.787   0.423
97050W        W69365   6.337  15.771   4.282
97051W        W69366  22.040  34.936   4.740
97052W        W69367  17.801  11.365  11.390
97053W        W69368  24.137  32.628   1.304
97054W        W69369   2.238   3.780  13.021
97055W        W69370   7.253  33.483   4.283
97056W        W69371  37.936  28.518  11.071
97057W        W69372   4.833  19.069   3.266
97058W        W69373  33.931  44.803   2.871
97059W        W69374   6.873  16.206  10.958
97060W        W69375  33.617  23.018   2.722
97061W        W69376   0.392  19.651  12.527
97062W        W69377  28.012  10.802  13.397
97063W        W69378  29.983  42.941   1.714
97064W        W69379  11.708   9.657   4.808
97065W        W69380  33.445  22.250  12.404
97066W        W69381  32.917  44.358  10.565
97067W        W69382  26.114  31.912  11.557
97068W        W69383  12.673  12.227   2.293
97069W        W69384  32.941  23.004  11.564
97070W        W69385  15.258  40.443   0.887
97071W        W69386  34.866  39.868  12.057
97072W        W69387  16.121  31.151   9.974
97073W        W69388  23.016  24.980  11.959
97074W        W69389  37.911   4.307  11.872
97075W        W69390  26.091  30.588   1.775
97076W        W69391  44.403  16.209  10.480
97077W        W69392  34.513  40.894  14.384
97078W        W69393  37.575  43.849   1.444
97079W        W69394  31.022  30.056  14.853
97080W        W69395  31.923  25.175   2.190
97081W        W69396   6.840  43.829   4.201
97082W        W69397  24.528  44.291   1.752
97083W        W69398  36.985  31.468  10.604
97084W        W69399  38.940  27.625   3.217
97085W        W69400  10.784  14.771   1.276
97086W        W69401  20.251  14.648  11.126
97087W        W69402  39.906  13.208   0.749
97088W        W69403   4.867  30.077  11.971
97089W        W69404   1.843  12.775  11.498
97090W        W69405   6.849   2.791   2.401
97091W        W69406  14.337   4.922  13.940
97092W        W69407  26.660  44.434   2.394
97093W        W69408   8.679   4.308  11.521
97094W        W69409  28.954  19.054   1.838
97095W        W69410  30.503  17.210  14.352
97096W        W69411  17.243  26.559   1.399
97097W        W69412  23.082   6.763   2.314
97098W        W69413  22.018  19.568   1.916
97099W        W69414   0.775  40.545  12.544
97100W        W69415  27.556   4.301  14.371
97101W        W69416  11.227  13.683   3.727
97102W        W69417  30.919   1.779   1.294
97103W        W69418  40.925  30.986  13.919
97104W        W69419  43.464   2.265  13.976
97105W        W69420  22.655   6.705   3.279
97106W        W69421   1.940  11.189  11.000
97107W        W69422  22.012   4.440   2.301
97108W        W69423  15.115  20.047   4.753
97109W        W69424  41.993  22.569   0.895
97110W        W69425  25.148  27.078   3.290
97111W        W69426  41.490  28.005  10.935
97112W        W69427  19.604  12.763  12.388
97113W        W69428  39.050   3.823   4.693
97114W        W69429  29.006  26.501   1.709
97115W        W69430  35.088   3.318  14.475
97116W        W69431  26.623  33.391   0.262
97117W        W69432   5.775   4.745   1.912
97118W        W69433   8.263   1.260  13.895
97119W        W69434  35.600   7.227   0.814
97120W        W69435  10.257  20.246   4.339
97121W        W69436   9.686  32.496   2.214
97122W        W69437  20.175   0.950   5.260
97123W        W69438  19.201  20.169   3.795
97124W        W69439   4.226  22.617   2.774
97125W        W69440   5.850  14.268  12.051
97126W        W69441  39.334   8.689   2.196
97127W        W69442   3.239  16.689   3.782
97128W        W69443  23.225  25.619  12.982
97129W        W69444   6.409   9.236  11.415
97130W        W69445   0.867  35.939   4.303
97131W        W69446  12.835  26.627   3.296
97132W        W69447  21.182  24.593   1.862
97133W        W69448  21.230  40.858  14.994
97134W        W69449   9.745  24.554  12.950
97135W        W69450  40.895   2.389   4.178
97136W        W69451  32.052  10.289   1.735
97137W        W69452   7.346  19.750  14.278
97138W        W69453  18.618   7.251   0.967
97139W        W69454   0.941  40.374   0.423
97140W        W69455  40.331  43.312   0.861
97141W        W69456  31.429  27.957  12.465
97142W        W69457   2.833  22.587  13.011
97143W        W69458  24.512   9.715   2.213
97144W        W69459  41.793  33.539   0.309
97145W        W69460   7.211  22.013  14.987
97146W        W69461   4.767  10.243   2.681
97147W        W69462  31.529  30.425   4.804
97148W        W69463   3.277  11.837  11.590
97149W        W69464  24.044   1.803   3.712
97150W        W69465   0.365  22.677  14.287
97151W        W69466  10.860   3.917  14.761
97152W        W69467  20.676  15.750   0.264
97153W        W69468  40.415  13.647   4.293
97154W        W69469  32.103   2.799   2.415
97155W        W69470  15.758  12.788  12.867
97156W        W69471  33.069  12.245   4.310
97157W        W69472  26.580  28.662   2.711
97158W        W69473  30.069  12.147  12.420
97159W        W69474  13.628  17.248  14.367
97160W        W69475  20.139  12.268  10.943
97161W        W69476  21.217  33.896  11.610
97162W        W69477  27.024  39.444  12.966
97163W        W69478  44.274  22.062   4.265
97164W        W69479   2.364  21.071   2.743
97165W        W69480  24.579  29.992   1.314
97166W        W69481   0.947  27.489  14.470
97167W        W69482   5.889  41.423   4.169
97168W        W69483  13.209  31.964  12.889
97169W        W69484   0.284  27.503   3.257
97170W        W69485  26.168   0.363  12.581
97171W        W69486  15.748  17.684   0.769
97172W        W69487  36.910  23.033   2.357
97173W        W69488  23.209  31.622   3.274
97174W        W69489  16.761  36.525  13.536
97175W        W69490  28.110   6.900   0.819
97176W        W69491  42.388  35.034  12.572
97177W        W69492  12.728  24.123  14.456
97178W        W69493  44.894  24.029  11.929
97179W        W69494  35.595  26.664   0.962
97180W        W69495  24.152  11.660   3.692
97181W        W69496  15.151   9.174   2.248
97182W        W69497  41.451  44.900  12.998
97183W        W69498  11.643  23.659  11.996
97184W        W69499  41.997   6.189  11.049
97185W        W69500  18.282  33.103  11.571
97186W        W69501  13.255  33.389   3.715
97187W        W69502   5.358  35.410   1.846
97188W        W69503   5.785  42.322   4.615
97189W        W69504  16.215   6.238   4.623
97190W        W69505   7.667  20.557   2.244
97191W        W69506  31.109  13.170   2.803
97192W        W69507  34.536  28.549  12.985
97193W        W69508   2.732  11.658  11.388
97194W        W69509   0.768  16.609  13.480
97195W        W69510  36.504   3.874   1.296
97196W        W69511  29.126  34.443   1.266
97197W        W69512   4.213  42.427  12.042
97198W        W69513   9.845  25.109   4.726
97199W        W69514   8.281  25.110  12.944
97200W        W69515   2.259  17.797   2.740
97201W        W69516   5.800   6.292   3.309
97202W        W69517  32.631  12.707  11.951
97203W        W69518  32.510   1.441   4.641
97204W        W69519   1.283  14.764  13.526
97205W        W69520  12.752  10.854  12.414
97206W        W69521  42.429  13.813  12.940
97207W        W69522   7.782  30.528   3.159
97208W        W69523  23.076  44.765   0.377
97209W        W69524  31.152  26.136  13.367
97210W        W69525  24.082  20.092   4.303
97211W        W69526  26.000  39.414  12.093
97212W        W69527  31.117  25.059  12.838
97213W        W69528  10.865  19.701  12.068
97214W        W69529  25.492  39.972   1.845
97215W        W69530   6.349  25.533  11.612
97216W        W69531   8.725   4.796   5.114
97217W        W69532  37.407  34.972   0.286
97218W        W69533  44.929  38.476   0.373
97219W        W69534   4.778   8.360  11.421
97220W        W69535  44.936  20.642   1.931
97221W        W69536  15.696  21.117  12.459
97222W        W69537   4.425   3.717  14.331
97223W        W69538   9.342  23.567   4.823
97224W        W69539   4.266  40.042  14.800
97225W        W69540  37.021  41.300  12.071
97226W        W69541   6.794  34.597  11.979
97227W        W69542   7.328  32.450  10.956
97228W        W69543  44.301  43.943  12.854
97229W        W69544  29.947   7.196  14.332
97230W        W69545  29.567   3.354   1.742
97231W        W69546  19.237   0.814  11.034
97232W        W69547   2.461  31.484   1.777
97233W        W69548  43.993  10.244   1.803
97234W        W69549  30.466  28.153  14.014
97235W        W69550  18.661  37.958  11.559
97236W        W69551  29.126  35.533  14.950
97237W        W69552  40.438  12.183  14.840
97238W        W69553  27.560  43.913  11.916
97239W        W69554  22.245   6.798  14.779
97240W        W69555  18.231   1.252  13.367
97241W        W69556  11.157  17.605   0.436
97242W        W69557  20.200   5.263   0.396
97243W        W69558  29.451  11.337  10.585
97244W        W69559  26.462  10.268  11.387
97245W        W69560  28.929   9.694  12.435
97246W        W69561  42.944  40.479   1.325
97247W        W69562  10.683  34.508  14.958
97248W        W69563   7.221  43.473  11.919
97249W        W69564   2.250  26.584  10.456
97250W        W69565   4.405  18.790   0.923
97251W        W69566  36.464  32.143  12.096
97252W        W69567   9.160  35.524   0.783
97253W        W69568  17.718  19.194   2.215
97254W        W69569  25.554  32.021   5.199
97255W        W69570  19.725  42.824   3.353
97256W        W69571  11.178  33.925   2.302
97257W        W69572   8.826  44.928  14.288
97258W        W69573  18.166  28.480   4.246
97259W        W69574  41.499  19.141   4.129
97260W        W69575  27.610  25.195  11.935
97261W        W69576   1.760  17.579   3.648
97262W        W69577  29.998   9.792   2.802
97263W        W69578   9.720  33.481  13.050
97264W        W69579   4.901  18.720  11.113
97265W        W69580  24.979   1.781   2.842
97266W        W69581  28.954  32.102  13.444
97267W        W69582  29.649  31.406  11.452
97268W        W69583  28.572  33.453  11.505
97269W        W69584  14.660  38.418   2.274
97270W        W69585  41.032  31.555   2.748
97271W        W69586   5.348  42.887  10.454
97272W        W69587  25.021  37.934  14.409
97273W        W69588  24.654   0.481  14.377
97274W        W69589  26.145  28.038   4.828
97275W        W69590  42.999  13.838   4.120
97276W        W69591  40.995   6.858   0.421
97277W        W69592  11.628   4.240   1.924
97278W        W69593  30.630  12.675  14.444
97279W        W69594  32.417  20.122   0.886
97280W        W69595  26.119  31.555  14.398
97281W        W69596  22.531  34.603   1.289
97282W        W69597  33.446   4.364   4.315
97283W        W69598  30.435  33.056   3.688
97284W        W69599  38.853   0.453   0.782
97285W        W69600   0.959  27.172   1.331
97286W        W69601   2.868  38.060  11.474
97287W        W69602  36.388  27.181   0.372
97288W        W69603   0.799  17.214  12.966
97289W        W69604  35.009  31.944   3.827
97290W        W69605   2.732  25.506  10.587
97291W        W69606   4.446  21.170   3.645
97292W        W69607  26.952  25.692  11.889
97293W        W69608  12.134   4.253  11.101
97294W        W69609  37.383   7.848   3.729
97295W        W69610  10.852  42.885   2.223
97296W        W69611  31.514   5.309  14.316
97297W        W69612  17.735  22.043  13.442
97298W        W69613  18.740  23.012  11.430
97299W        W69614   6.899   1.904  12.047
97300W        W69615   5.838  34.020   2.820
97301W        W69616  27.582   9.871  14.426
97302W        W69617   9.657  30.077   1.314
97303W        W69618  25.082  42.960   2.712
97304W        W69619  11.366  19.093   2.697
97305W        W69620  13.126  40.506  13.908
97306W        W69621  10.832  17.675  10.435
97307W        W69622  38.833  31.102   4.199
97308W        W69623   5.300  44.348   2.202
97309W        W69624  23.996  19.596  11.055
97310W        W69625  19.698  11.218   2.778
97311W        W69626  39.326  39.369   0.245
97312W        W69627  44.328  40.415   3.835
97313W        W69628  28.148  10.320   1.806
97314W        W69629  38.053  38.327   0.954
97315W        W69630   2.751   8.701  13.013
97316W        W69631  21.537  11.851   4.639
97317W        W69632   1.439  13.781   4.183
97318W        W69633  36.868  33.391   3.799
97319W        W69634  14.672  25.042  12.847
97320W        W69635  13.639  11.129  10.969
97321W        W69636  16.600  18.227  13.828
97322W        W69637  43.911  32.569   1.379
97323W        W69638  41.952  14.200  12.514
97324W        W69639  24.229  40.416  12.413
97325W        W69640  31.149  11.265  12.568
97326W        W69641  22.152  21.630  13.922
97327W        W69642  42.932  24.053  14.005
97328W        W69643   1.332  39.499  11.933
97329W        W69644  18.117  36.504  11.001
97330W        W69645  43.303   7.190   1.222
97331W        W69646  30.415   2.445  12.484
97332W        W69647  10.733  42.777   1.307
97333W        W69648   3.773   9.155   3.185
97334W        W69649  40.909  38.047  11.128
97335W        W69650  35.069   6.876   2.889
97336W        W69651   3.771  11.764  11.117
97337W        W69652  13.146  21.125   9.941
97338W        W69653  41.299  35.511  13.895
97339W        W69654  10.211  21.233   1.381
97340W        W69655  36.934  23.236  14.341
97341W        W69656  23.012   2.260  12.472
97342W        W69657  37.350  23.578   9.926
97343W        W69658   9.218  21.019   2.899
97344W        W69659  12.638  10.706   2.869
97345W        W69660  15.697  11.820   0.837
97346W        W69661   4.892  37.489   1.275
97347W        W69662  44.267  42.969  12.350
97348W        W69663  24.195  25.177   3.751
97349W        W69664   9.202  18.163   2.895
97350W        W69665   6.807  22.007  13.342
97351W        W69666  39.833  28.593  14.027
97352W        W69667  44.320  32.470   3.151
97353W        W69668  17.564   3.741  12.500
97354W        W69669  29.526  36.050  12.885
97355W        W69670  37.385  30.477  13.896
97356W        W69671  43.486  21.531   1.298
97357W        W69672  35.913  44.384   4.236
97358W        W69673  12.730  29.128  14.371
97359W        W69674  10.869  32.392  11.418
97360W        W69675  32.944  32.936   2.278
97361W        W69676  37.504  22.242  13.492
97362W        W69677  16.312  18.662   3.185
97363W        W69678  12.157  13.324   0.391
97364W        W69679  21.071  35.549   3.798
97365W        W69680  14.748  31.103  10.438
97366W        W69681   2.248   3.894  13.882
97367W        W69682   9.265  21.678  13.333
97368W        W69683  11.772   7.384   4.202
97369W        W69684  34.478  14.745   0.909
97370W        W69685  12.174  24.991   1.342
97371W        W69686   4.210   1.363  13.466
97372W        W69687  31.614   9.163   3.684
97373W        W69688  38.067  22.228  12.982
97374W        W69689  25.042  12.708  10.923
97375W        W69690   4.232  29.501  11.524
97376W        W69691   3.711  23.633   5.142
97377W        W69692  35.954  44.481  11.002
97378W        W69693  33.102  30.430  14.883
97379W        W69694   3.730  26.029   3.345
97380W        W69695  12.716  12.203   1.763
97381W        W69696  11.843  29.089   0.962
97382W        W69697  21.100   7.251   2.661
97383W        W69698  37.036  17.572  11.558
97384W        W69699  31.047  13.313  14.985
97385W        W69700  15.594   7.251  14.370
97386W        W69701  21.191  34.546  10.972
97387W        W69702  12.681  34.890  10.639
97388W        W69703  41.490  14.732  11.936
97389W        W69704  39.433  34.495   0.771
97390W        W69705  20.088  19.183   3.661
97391W        W69706   3.336  21.226   2.324
97392W        W69707  22.563  26.196  12.951
97393W        W69708   9.306  27.954  11.608
97394W        W69709  16.749  24.009   1.848
97395W        W69710  28.006  42.503   0.831
97396W        W69711  11.146  43.413  13.883
97397W        W69712  32.391  36.015  10.405
97398W        W69713  20.611  41.838  11.116
97399W        W69714  34.988  15.240  13.930
97400W        W69715  17.206  38.563   4.815
97401W        W69716  21.709   3.866  14.916
97402W        W69717  26.552  28.445  11.020
97403W        W69718  42.488   0.887  12.843
97404W        W69719  16.660   9.835  10.417
97405W        W69720   9.245  19.252   3.172
97406W        W69721  17.595  10.820   0.731
97407W        W69722  22.051   4.736   1.256
97408W        W69723  31.974   4.339  13.462
97409W        W69724  18.547   3.777  12.440
97410W        W69725  32.099  35.908   1.808
97411W        W69726  26.056  35.983   0.451
97412W        W69727   1.444  12.243   3.750
97413W        W69728  36.057  19.169   0.860
97414W        W69729  14.236  26.654  14.422
97415W        W69730   1.477   4.835   1.292
97416W        W69731  28.617   9.165  11.063
97417W        W69732  11.715   1.827  13.384
97418W        W69733  38.510  44.783  14.342
97419W        W69734  41.333  43.279   0.872
97420W        W69735  35.437  19.217  14.396
97421W        W69736  36.872  27.185   3.307
97422W        W69737   1.773  44.010   1.363
97423W        W69738  29.579  16.794  11.088
97424W        W69739  11.320  27.193   2.232
97425W        W69740   6.829  21.250  14.760
97426W        W69741  36.921   7.695   1.916
97427W        W69742  23.565  41.979   1.395
97428W        W69743  42.988   2.889   0.483
97429W        W69744  23.573  20.110   1.712
97430W        W69745  34.912  37.568   4.687
97431W        W69746  17.100  10.300   0.369
97432W        W69747  12.206  44.838   1.362
97433W        W69748  29.535   8.207   3.380
97434W        W69749  32.475  42.397   3.791
97435W        W69750  29.101  36.547  12.477
97436W        W69751   8.843   6.827   3.638
97437W        W69752   0.896  20.215  12.343
97438W        W69753  13.262  27.044  13.047
97439W        W69754  23.503  35.049  12.883
97440W        W69755  41.489  25.014   3.189
97441W        W69756  14.754  24.101  14.294
97442W        W69757  26.628   4.387  12.473
97443W        W69758   5.386  43.852   2.234
97444W        W69759   4.726  15.815  14.476
97445W        W69760  12.750  27.139   4.745
97446W        W69761   6.382  16.781   3.730
97447W        W69762  41.332   7.312   2.252
97448W        W69763  34.899  42.445   0.464
97449W        W69764  33.992  28.156   3.666
97450W        W69765  16.797  24.211   4.196
97451W        W69766  41.838  31.148   4.802
97452W        W69767   9.872  24.161   1.821
97453W        W69768   5.334  32.007  13.051
97454W        W69769  12.641  13.738   2.186
97455W        W69770  36.910  12.755  11.894
97456W        W69771  43.869  18.190   4.119
97457W        W69772  11.371  39.049   4.646
97458W        W69773  15.220   7.216  13.813
97459W        W69774  16.224   4.799   1.398
97460W        W69775  21.203  12.762   1.697
97461W        W69776  44.300  14.155   1.370
97462W        W69777  40.927  14.776   0.727
97463W        W69778  30.560  30.606  11.472
97464W        W69779  30.049  36.853   0.242
97465W        W69780  44.452  42.942   3.695
97466W        W69781  41.855  25.617   0.902
97467W        W69782  22.037  26.064   2.287
97468W        W69783  16.096  20.673   0.340
97469W        W69784  29.133  16.200  11.481
97470W        W69785  44.381  42.391   0.336
97471W        W69786  35.503  25.642   4.138
97472W        W69787  22.638  21.159   2.683
97473W        W69788  16.226  30.449   0.727
97474W        W69789  21.216  11.164  11.958
97475W        W69790  22.521  14.186  12.895
97476W        W69791  29.979  33.083   2.328
97477W        W69792   6.703  16.583  10.977
97478W        W69793  27.137  32.569   3.667
97479W        W69794   6.917   5.713  12.881
97480W        W69795   0.453  29.039  12.957
97481W        W69796  28.972  24.680   3.312
97482W        W69797  36.591   5.258   0.764
97483W        W69798  18.630  11.863   0.803
97484W        W69799  16.195  28.072   2.203
97485W        W69800   7.327   3.833  14.967
97486W        W69801  31.500  18.758  11.493
97487W        W69802  42.854  12.291   3.176
97488W        W69803  17.105   4.308   4.599
97489W        W69804  37.476  27.957  13.022
97490W        W69805   6.741  14.195  14.450
97491W        W69806   2.452   4.290   3.351
97492W        W69807   3.452  44.896   0.888
97493W        W69808  29.968  10.789   3.692
97494W        W69809  38.523   5.314  13.897
97495W        W69810  33.583  37.363   5.165
97496W        W69811   3.919  17.087  14.964
97497W        W69812  19.249  33.535  12.557
97498W        W69813  28.952  18.090  10.621
97499W        W69814  11.864  42.305  10.419
97500W        W69815  40.051   6.690   1.769
97501W        W69816   9.191   6.380  11.083
97502W        W69817  24.634  11.630  13.888
97503W        W69818  41.928   5.231  13.477
97504W        W69819  21.202   3.457  10.625
97505W        W69820   6.696  14.825   0.964
97506W        W69821  13.836  34.613   0.914
97507W        W69822  13.279  34.076   1.341
97508W        W69823  12.334  42.811   2.803
97509W        W69824   1.257  40.867   0.456
97510W        W69825  17.210   9.777   3.722
97511W        W69826  26.465  21.705   0.744
97512W        W69827   0.486  43.800   2.367
97513W        W69828  35.928  23.703  14.425
97514W        W69829  24.543  36.930   2.680
97515W        W69830  34.076   4.843  11.126
97516W        W69831  24.976  43.417  12.369
97517W        W69832   0.794  31.979  14.781
97518W        W69833  25.606  21.172  10.148
97519W        W69834   0.442  15.756   0.839
97520W        W69835  12.181  14.208  11.457
97521W        W69836  16.169  12.247   1.790
97522W        W69837  29.098  33.941   2.667
97523W        W69838   0.362  14.812  12.948
97524W        W69839  37.405  12.725  14.400
97525W        W69840  33.108  34.614  12.556
97526W        W69841   8.257   4.263   2.307
97527W        W69842   8.377   1.282  11.398
97528W        W69843  32.578   3.267   5.276
97529W        W69844  29.016   1.324   4.798
97530W        W69845  17.759   2.234  12.907
97531W        W69846  18.200  16.298  10.906
97532W        W69847   5.371  21.561   1.825
97533W        W69848  24.606  22.649  10.108
97534W        W69849  23.189  36.591  14.785
97535W        W69850  41.001  22.180   3.748
97536W        W69851  23.698  22.504  11.095
97537W        W69852   3.890   9.231  11.503
97538W        W69853   9.863  27.961  12.372
97539W        W69854  31.116  35.390  10.468
97540W        W69855   8.349  32.489   0.920
97541W        W69856  33.471   2.384   3.651
97542W        W69857  44.899  36.503  12.063
97543W        W69858  19.132  35.110   2.294
97544W        W69859   3.433  28.081   2.685
97545W        W69860  41.012  16.585   2.875
97546W        W69861  23.509  32.997   1.825
97547W        W69862  36.419  37.840   1.408
97548W        W69863  41.876  12.116   0.293
97549W        W69864  19.137  38.437  10.436
97550W        W69865  38.977  43.282   2.262
97551W        W69866  19.131   8.753   0.811
97552W        W69867  15.327  26.991   1.782
97553W        W69868  44.969   7.709   2.746
97554W        W69869  30.970  34.484   0.900
97555W        W69870  39.412   6.747  12.526
97556W        W69871  27.157   7.909  12.553
97557W        W69872  32.463  43.811  14.996
97558W        W69873  41.988  27.575  14.907
97559W        W69874  26.178  44.980  11.019
97560W        W69875   1.331  28.535   3.855
97561W        W69876  32.423   1.854   3.811
97562W        W69877  20.714  44.915   2.248
97563W        W69878   0.397  31.144  12.943
97564W        W69879  38.006  36.008   2.258
97565W        W69880   3.778   1.404   4.174
97566W        W69881   9.358  11.131   2.901
97567W        W69882  32.108   6.888  11.902
97568W        W69883  20.756  20.602   2.673
97569W        W69884  16.216   1.934   3.669
97570W        W69885  36.058  18.633   3.785
97571W        W69886   9.842  35.443   4.646
97572W        W69887  38.044   3.391   2.268
97573W        W69888   6.310   9.285   2.830
97574W        W69889  43.302  16.810   2.880
97575W        W69890   9.825  37.853  10.549
97576W        W69891  25.706  36.593  10.926
97577W        W69892  43.482  35.087  11.027
97578W        W69893  40.511  22.227  12.961
97579W        W69894  36.947  12.226   2.214
97580W        W69895  32.445  27.129   0.447
97581W        W69896  19.545   3.245  10.952
97582W        W69897  39.961  14.173   4.647
97583W        W69898  12.173  17.752  11.466
97584W        W69899   9.258  40.007  13.425
97585W        W69900  24.611   4.900  10.543
97586W        W69901  30.026  25.628  12.433
97587W        W69902  30.957   1.900   2.813
97588W        W69903  19.090   4.860  14.912
97589W        W69904  11.247  36.869  13.915
97590W        W69905  29.599  17.672  12.513
97591W        W69906  35.863  41.991   2.255
97592W        W69907  31.480  44.441  13.498
97593W        W69908  16.752   8.747  11.880
97594W        W69909   6.291   9.304  12.550
97595W        W69910  14.193  32.494   3.378
97596W        W69911  34.085   0.373   0.854
97597W        W69912  26.956  37.554   3.864
97598W        W69913  34.613  35.444  12.839
97599W        W69914  38.890  18.224  11.092
97600W        W69915  35.105  43.415  12.894
97601W        W69916  34.908  44.436  12.465
97602W        W69917  30.502  26.064   3.681
97603W        W69918   0.765  44.835  13.838
97604W        W69919  21.178  30.058  13.509
97605W        W69920  25.631  38.389   3.859
97606W        W69921  11.643  40.027  11.048
97607W        W69922   3.905  34.121  12.008
97608W        W69923  37.548   2.776   3.790
97609W        W69924  26.597  43.003  10.959
97610W        W69925   3.780  24.524   3.659
97611W        W69926  19.559  19.642  12.481
97612W        W69927   1.954  28.471   0.372
97613W        W69928  26.189  20.744   1.329
97614W        W69929  34.041  11.295   3.682
97615W        W69930  21.071   5.320   4.665
97616W        W69931  10.857  21.674   3.210
97617W        W69932   7.760  31.035  12.941
97618W        W69933  34.085  39.504  13.529
97619W        W69934  36.565  21.178  11.425
97620W        W69935  32.593  28.525  12.024
97621W        W69936  35.856  14.287  10.481
97622W        W69937  36.541   4.276  14.434
97623W        W69938  15.119  43.936   3.737
97624W        W69939  42.852   3.454  14.903
97625W        W69940  36.583   5.406   1.776
97626W        W69941   3.787  37.541  12.498
97627W        W69942   1.310  29.176   0.890
97628W        W69943  35.874  28.511  12.832
97629W        W69944  43.406  33.016  13.488
97630W        W69945  12.116  12.147  12.384
97631W        W69946  41.380   3.716   2.408
97632W        W69947  10.315   1.877  13.511
97633W        W69948  19.567  27.007  13.460
97634W        W69949  15.592  20.051   2.360
97635W        W69950  19.582  44.373  14.920
97636W        W69951  26.657  19.077  12.003
97637W        W69952  33.624  30.019   1.236
97638W        W69953  43.458  38.015  10.899
97639W        W69954   1.732  40.455  12.550
97640W        W69955  18.285  43.440   4.291
97641W        W69956  41.810  33.068  14.895
97642W        W69957  22.559  15.118  12.362
97643W        W69958  44.010   4.409  14.490
97644W        W69959   6.376  36.861   0.448
97645W        W69960  14.812  32.031   2.318
97646W        W69961  31.418  38.850  13.481
97647W        W69962  38.492  41.936  11.945
97648W        W69963  43.332  42.425   0.246
97649W        W69964   0.970  44.281   1.212
97650W        W69965  44.002  40.866  14.840
97651W        W69966  39.854  11.140  14.832
97652W        W69967  15.697  12.691  11.007
97653W        W69968  42.017  22.163   3.639
97654W        W69969  31.605  38.544  11.052
97655W        W69970  29.945  35.094  14.922
97656W        W69971  39.893  40.921  13.398
97657W        W69972  17.227  29.991   5.698
97658W        W69973   1.273  22.641   0.473
97659W        W69974  33.593  39.975   2.792
97660W        W69975   9.698  23.520   4.337
97661W        W69976  19.599  16.250  11.045
97662W        W69977  40.033  27.116   2.347
97663W        W69978  38.062  13.823   2.873
97664W        W69979  25.176  20.697  13.391
97665W        W69980  14.322  13.264   2.876
97666W        W69981   4.243  27.129  10.604
97667W        W69982  32.580  39.423  13.923
97668W        W69983  38.426  23.226  11.083
97669W        W69984  39.364  17.088  12.496
97670W        W69985  21.202  21.696   2.219
97671W        W69986  39.426   3.769   1.355
97672W        W69987  32.410  31.537  11.434
97673W        W69988  10.797  15.240   3.363
97674W        W69989  31.045  26.631  10.440
97675W        W69990  12.353  14.728   0.755
97676W        W69991  40.815   4.720  13.532
97677W        W69992  37.888   7.329  10.934
97678W        W69993  22.116  18.205  13.813
97679W        W69994  13.215  33.001   4.710
97680W        W69995  14.693  15.256  11.457
97681W        W69996  40.910  30.633   2.263
97682W        W69997  31.447  37.078   1.335
97683W        W69998  42.842  41.816   0.442
97684W        W69999  31.049  33.613  12.459
97685W        W70000   8.390  21.575   1.248
97686W        W70001   8.725  30.089   0.368
97687W        W70002   3.252  35.375  11.431
97688W        W70003  31.635  36.508   1.261
97689W        W70004   2.779   9.697   4.190
97690W        W70005  10.829  28.636  13.938
97691W        W70006  30.431   1.272   2.237
97692W        W70007  14.116  22.244   0.916
97693W        W70008  27.071  38.377  11.960
97694W        W70009  40.914   3.724  14.888
97695W        W70010  35.916   8.758   4.226
97696W        W70011  13.718  21.118  11.533
97697W        W70012  13.111   3.840   4.674
97698W        W70013  15.102   4.254  14.364
97699W        W70014  11.656  11.349   4.276
97700W        W70015  11.260  25.144  10.478
97701W        W70016  39.477  24.086  12.019
97702W        W70017   8.247  44.388   3.703
97703W        W70018  24.079   7.726  11.425
97704W        W70019  10.344  23.528   4.642
97705W        W70020  10.257  34.488  11.394
97706W        W70021  12.627  15.783  13.912
97707W        W70022  24.556  24.492   1.694
97708W        W70023  25.165  23.698   0.289
97709W        W70024  36.035  11.857  12.385
97710W        W70025  43.426  23.666   1.371
97711W        W70026  24.017  24.100   0.900
97712W        W70027  26.007  15.795  14.364
97713W        W70028  44.807   9.286  12.833
97714W        W70029   1.746  30.493   3.367
97715W        W70030  39.508  17.699  14.428
97716W        W70031  13.334   1.915  10.539
97717W        W70032  10.178  13.126  10.478
97718W        W70033  15.793  40.324   3.731
97719W        W70034   9.846  14.593   2.233
97720W        W70035   4.820  10.140   3.813
97721W        W70036  41.309  40.885   1.786
97722W        W70037  22.244  43.829   3.282
97723W        W70038   9.735   8.226   1.760
97724W        W70039  42.492   6.243   0.879
97725W        W70040  13.247  42.830  10.489
97726W        W70041  11.324  38.384  13.852
97727W        W70042  43.911  25.110   1.783
97728W        W70043  26.189  29.657  14.402
97729W        W70044  12.852  14.770   4.653
97730W        W70045  24.100  28.074  14.924
97731W        W70046  20.737   1.331  13.814
97732W        W70047  35.015   0.920   0.313
97733W        W70048  43.776  13.182  11.012
97734W        W70049   4.832   0.268  14.955
97735W        W70050  41.817  22.996  11.415
97736W        W70051  11.342  11.856   4.208
97737W        W70052  18.173  12.204  14.786
97738W        W70053  22.732  38.483  14.889
97739W        W70054   4.877  30.907   2.272
97740W        W70055   2.839  29.430   1.330
97741W        W70056  25.527  18.611  14.883
97742W        W70057  42.818   7.773  10.546
97743W        W70058  11.180  27.095  11.429
97744W        W70059  20.597  35.023  11.123
97745W        W70060  22.033  10.688   3.191
97746W        W70061  36.374  42.447  12.072
97747W        W70062  18.745  27.510  12.839
97748W        W70063   3.781  21.054   4.235
97749W        W70064   8.268  20.040  14.760
97750W        W70065  29.450  42.003  11.108
97751W        W70066  12.852  10.143  13.312
97752W        W70067  21.238  44.901   3.349
97753W        W70068  27.638   1.899  11.918
97754W        W70069  36.503  27.679   4.240
97755W        W70070  23.084  12.271  12.992
97756W        W70071  38.503  36.592   4.616
97757W        W70072  28.072   4.235   2.897
97758W        W70073   9.785   0.307  11.507
97759W        W70074   9.810  39.363   2.678
97760W        W70075  27.674  14.745  11.506
97761W        W70076  21.040   0.278  10.521
97762W        W70077  20.666   7.816   2.282
97763W        W70078  23.107   6.203   1.279
97764W        W70079  37.031  19.595  11.933
97765W        W70080  18.789  41.416   1.388
97766W        W70081   2.446   1.795  12.901
97767W        W70082  16.095   0.248   2.182
97768W        W70083  43.974  39.375  13.803
97769W        W70084  22.714   8.775   2.895
97770W        W70085  33.124  31.586   2.265
97771W        W70086  26.465  18.574  11.401
97772W        W70087  13.615   6.318   2.209
97773W        W70088  25.013  34.107   0.399
97774W        W70089  20.616  29.554  13.409
97775W        W70090  14.099  34.119  10.603
97776W        W70091  21.559  11.728   1.341
97777W        W70092   9.306  31.929  12.571
97778W        W70093   7.320  40.404   1.879
97779W        W70094  44.853  42.984   0.966
97780W        W70095  28.504  30.134  11.451
97781W        W70096  22.674  19.731   3.328
97782W        W70097  34.893  44.284   4.709
97783W        W70098  35.973  31.991  14.938
97784W        W70099  11.642  21.109   3.282
97785W        W70100   6.425  12.785  13.326
97786W        W70101  28.947  32.051  12.370
97787W        W70102  39.537  16.681  11.597
97788W        W70103   0.955  16.741  14.428
97789W        W70104  37.082  15.758  12.078
97790W        W70105  31.035   1.957  13.910
97791W        W70106   6.200  19.762  14.512
97792W        W70107  28.601  38.471   4.711
97793W        W70108  14.300  34.410  14.886
97794W        W70109   3.892  11.253   3.236
97795W        W70110  31.984   4.281   1.695
97796W        W70111   2.885  33.991   2.728
97797W        W70112  38.835  31.579   0.244
97798W        W70113  18.160  13.227  10.930
97799W        W70114  37.579   3.222  10.423
97800W        W70115  30.551  27.183   0.473
97801W        W70116  34.470  16.150  12.979
97802W        W70117  36.456  26.638  13.506
97803W        W70118  44.446  25.618   1.859
97804W        W70119  24.532  43.776  11.924
97805W        W70120   8.374   0.252   1.849
97806W        W70121  20.571  24.510  13.502
97807W        W70122  23.560   8.809   2.725
97808W        W70123   1.829  12.262  12.383
97809W        W70124  19.240   3.870   1.280
97810W        W70125  21.513  32.532  13.502
97811W        W70126  12.181  15.151   3.658
97812W        W70127  29.017  42.008  13.917
97813W        W70128  26.656  26.080  14.797
97814W        W70129  21.600   7.794  13.426
97815W        W70130  23.175  28.566  14.497
97816W        W70131  20.757  36.959   4.741
97817W        W70132   0.256  30.576   2.233
97818W        W70133  40.454  37.569  13.978
97819W        W70134  16.117  43.375   3.686
97820W        W70135   4.708   4.728   1.424
97821W        W70136   4.841   0.443   1.852
97822W        W70137  31.017   9.848  12.451
97823W        W70138  35.592  27.557   3.338
97824W        W70139  36.462  10.716  12.377
97825W        W70140  13.633  22.736   2.271
97826W        W70141  30.474  24.015   3.374
97827W        W70142  33.425  39.969  11.026
97828W        W70143  32.394   8.839   0.468
97829W        W70144  41.478  23.617  13.015
97830W        W70145  30.058  38.498   2.771
97831W        W70146  35.534  14.656   1.289
97832W        W70147  17.290  13.804   0.477
97833W        W70148  42.819  18.155   0.914
97834W        W70149  33.594  32.519  13.873
97835W        W70150  15.263  43.988  11.389
97836W        W70151  10.276  14.201  14.419
97837W        W70152   4.287  27.534   3.278
97838W        W70153  38.945   8.309  12.460
97839W        W70154   3.375   2.392   0.336
97840W        W70155  10.364  14.266   1.900
97841W        W70156  32.569  33.386  13.840
97842W        W70157  17.278  32.506  14.889
97843W        W70158  24.164  28.935   3.256
97844W        W70159  30.534  18.630   0.431
97845W        W70160  30.162  33.117  11.953
97846W        W70161   0.982  16.637  14.824
97847W        W70162  34.564  41.510  12.558
97848W        W70163   9.801   8.667  10.932
97849W        W70164  30.616   7.676   4.190
97850W        W70165  41.536  37.930  10.937
97851W        W70166  42.397  22.124  11.499
97852W        W70167  12.631  15.762   4.691
97853W        W70168  19.752   8.321  12.952
97854W        W70169   2.874  25.557   4.312
97855W        W70170  17.249  16.311   1.213
97856W        W70171  42.301   6.815   0.907
97857W        W70172  41.894  16.759   0.951
97858W        W70173   5.858   5.332  14.483
97859W        W70174  26.506   8.268  14.383
97860W        W70175  39.875  43.445  11.036
97861W        W70176  13.611  13.264  14.944
97862W        W70177   9.222  38.928   0.299
97863W        W70178  27.671  22.217  14.366
97864W        W70179  43.302  39.943   2.695
97865W        W70180  35.997  18.656  11.471
97866W        W70181  32.931   0.290   2.719
97867W        W70182  20.212  11.214   4.631
97868W        W70183   1.887   2.430   1.239
97869W        W70184  14.631  31.130  13.881
97870W        W70185  35.951  27.580   0.894
97871W        W70186  29.476  34.375  12.574
97872W        W70187  20.567  22.130  12.889
97873W        W70188  39.447  43.825  13.841
97874W        W70189  35.591  43.419  12.938
97875W        W70190  41.318   1.888   4.136
97876W        W70191   6.313  18.786  12.387
97877W        W70192  13.105  43.764   4.784
97878W        W70193  10.178   6.723  11.464
97879W        W70194   6.188  32.039  10.011
97880W        W70195  14.748  22.152  12.983
97881W        W70196  41.832   1.352   2.715
97882W        W70197  32.923   1.863   1.309
97883W        W70198   7.715  29.063  13.456
97884W        W70199   0.919   8.663   4.836
97885W        W70200  38.528  40.496   3.727
97886W        W70201  22.607  27.534   3.847
97887W        W70202  34.005  42.949   4.309
97888W        W70203  24.721  19.076   4.606
97889W        W70204   7.318  44.844  14.816
97890W        W70205  38.571  14.162   4.674
97891W        W70206  14.165  11.187   2.197
97892W        W70207  39.890   9.332  13.831
97893W        W70208  40.935  20.057  12.540
97894W        W70209  25.686  39.996   3.248
97895W        W70210  27.518  14.171  12.532
97896W        W70211   1.978  13.832  12.841
97897W        W70212   8.776  29.469  14.426
97898W        W70213  10.690  40.412   1.882
97899W        W70214  40.945  23.119   2.705
97900W        W70215   2.396  11.308   2.675
97901W        W70216  24.521  44.947   2.865
97902W        W70217  34.042  44.496   2.286
97903W        W70218  34.610  40.984   0.443
97904W        W70219  24.714   9.209  13.033
97905W        W70220  26.467  12.643   0.390
97906W        W70221  44.970  18.169  13.338
97907W        W70222  41.332  16.161   1.357
97908W        W70223  40.341  44.897   2.335
97909W        W70224  24.657  41.517  13.962
97910W        W70225  34.455  38.346   1.262
97911W        W70226   9.648  13.212   4.717
97912W        W70227   5.730  12.655  13.385
97913W        W70228   1.344  24.124  11.026
97914W        W70229   8.672  42.997   4.344
97915W        W70230  20.120  13.109  13.838
97916W        W70231  31.632  11.728  12.413
97917W        W70232  37.856  15.791   0.799
97918W        W70233  43.831  18.068  10.942
97919W        W70234  31.958  22.192   3.767
97920W        W70235  39.368  12.221  12.402
97921W        W70236  16.213  14.683   4.656
97922W        W70237  35.007   0.410   2.861
97923W        W70238  31.911  34.519  12.011
97924W        W70239  17.709  17.717   0.821
97925W        W70240  21.519   8.780  14.291
97926W        W70241   6.292   1.294   4.326
97927W        W70242  38.430  25.510   4.220
97928W        W70243  20.237  10.171   0.423
97929W        W70244   5.753   0.853   2.330
97930W        W70245  14.688   5.202   2.711
97931W        W70246   5.886   2.866   4.718
97932W        W70247  30.608   1.352  14.443
97933W        W70248  30.990  40.462  12.515
97934W        W70249   5.360  35.903   4.817
97935W        W70250  19.706   6.201  14.922
97936W        W70251   6.240  12.848   3.177
97937W        W70252  10.669  22.649   0.317
97938W        W70253   2.318  12.805  14.427
97939W        W70254  15.123  11.234  11.961
97940W        W70255  16.682  41.522   2.184
97941W        W70256   6.817   1.293  12.378
97942W        W70257   7.899  20.078  14.355
97943W        W70258  38.983  24.698   1.710
97944W        W70259  29.979  17.088  14.462
97945W        W70260   5.732  25.693   3.373
97946W        W70261  22.073  37.517   0.398
97947W        W70262  14.241  39.947   1.766
97948W        W70263   4.848   6.687  12.869
97949W        W70264   6.316   5.317   3.343
97950W        W70265  11.809  19.556   0.897
97951W        W70266  11.673  14.691   1.804
97952W        W70267  24.150  10.667  10.488
97953W        W70268  33.511  40.349  14.386
97954W        W70269   7.803  22.058  11.028
97955W        W70270  42.843  38.057  12.084
97956W        W70271  29.546  37.851   3.304
97957W        W70272  32.116  35.095   0.335
97958W        W70273   5.812  26.988  14.806
97959W        W70274   5.204  28.957   3.745
97960W        W70275  33.403  27.061   0.956
97961W        W70276  28.537  12.852  14.313
97962W        W70277  14.101  18.654   1.446
97963W        W70278  31.512  18.680  14.788
97964W        W70279  23.730  40.979  12.045
97965W        W70280  17.097  42.440  14.019
97966W        W70281   8.370  41.868   2.340
97967W        W70282   1.845  28.492   1.787
97968W        W70283  40.377   9.867  13.373
97969W        W70284  30.061  26.482   1.448
97970W        W70285   1.862  39.842  14.502
97971W        W70286  27.032  37.896   4.663
97972W        W70287   2.761   3.428   2.352
97973W        W70288  29.553   8.166  14.015
97974W        W70289  31.069  36.850   3.292
97975W        W70290  11.332   0.899  11.439
97976W        W70291   4.393  23.634  12.497
97977W        W70292  10.640  18.599   3.852
97978W        W70293  16.298  19.277  13.017
97979W        W70294  40.838  13.122  14.838
97980W        W70295  23.118  32.555  14.480
97981W        W70296  40.856  22.530   3.823
97982W        W70297  38.939  24.704  11.579
97983W        W70298  24.528  26.151   3.161
97984W        W70299  12.823  43.475   2.258
97985W        W70300  19.245  24.671   3.148
97986W        W70301  37.339  13.837   2.390
97987W        W70302  27.492   8.226   4.749
97988W        W70303  25.207  30.090   3.680
97989W        W70304  14.777   8.679   9.963
97990W        W70305  21.757  28.117   0.742
97991W        W70306  33.616  13.710   0.258
97992W        W70307   2.394  21.261  11.501
97993W        W70308  43.274  36.383  14.510
97994W        W70309  12.625   0.769  12.955
97995W        W70310  22.068  18.261   2.728
97996W        W70311  41.868  17.122  10.006
97997W        W70312  38.462  14.712   4.623
97998W        W70313  15.719  18.205  13.467
97999W        W70314  21.512  34.496   2.248
98000W        W70315  20.605  31.924   3.212
98001W        W70316  30.464  40.822   3.297
98002W        W70317  33.417  44.460  10.604
98003W        W70318  26.635   5.764  13.444
98004W        W70319  42.876  33.084   0.442
98005W        W70320  30.041  38.873   2.807
98006W        W70321  15.301   3.919   3.368
98007W        W70322   8.727  20.176   2.686
98008W        W70323  14.254  13.262  14.285
98009W        W70324  33.928  24.604  12.366
98010W        W70325  14.294  10.362   4.634
98011W        W70326  15.587   4.346   2.895
98012W        W70327   1.407  39.066   1.696
98013W        W70328  12.660  25.988  12.018
98014W        W70329  43.372   6.291   3.200
98015W        W70330   0.425  35.539  12.868
98016W        W70331  21.241  34.039   0.273
98017W        W70332   8.715  17.715  10.913
98018W        W70333  13.185  44.390   9.983
98019W        W70334  26.521  10.191  10.067
98020W        W70335  13.234   6.339   0.825
98021W        W70336  41.812   3.392   4.761
98022W        W70337  20.550  21.069  10.498
98023W        W70338  10.368  21.575   0.450
98024W        W70339  41.947  28.656   3.278
98025W        W70340   9.394  26.622   2.317
98026W        W70341  25.187   3.883   4.747
98027W        W70342  39.838  18.069   3.865
98028W        W70343  30.468  26.201  13.396
98029W        W70344  11.791  11.803  11.882
98030W        W70345  10.156   6.205   2.685
98031W        W70346  26.015  10.273  13.051
98032W        W70347   3.885  39.348   4.335
98033W        W70348  28.953   6.229   4.779
98034W        W70349  15.227  34.598   4.270
98035W        W70350  10.808  41.979  11.913
98036W        W70351  21.085  30.455  12.038
98037W        W70352   4.891   4.279   4.294
98038W        W70353  15.716  10.864   2.253
98039W        W70354  28.018   8.233  13.060
98040W        W70355  13.741  26.121   1.718
98041W        W70356  42.403  32.974  14.998
98042W        W70357  41.425  28.051  13.402
98043W        W70358  31.004  10.181   3.372
98044W        W70359  21.049  29.050   5.137
98045W        W70360   5.425  16.730   1.857
98046W        W70361  41.337  20.091  14.329
98047W        W70362  29.066  44.269  13.879
98048W        W70363   9.287  10.863   1.831
98049W        W70364  12.174   5.406  14.923
98050W        W70365   3.305  41.446   2.678
98051W        W70366  25.978  20.585  11.010
98052W        W70367  39.396  26.122  14.899
98053W        W70368   5.274  11.842  13.453
98054W        W70369   5.822  24.995   3.849
98055W        W70370  15.112  30.090   3.775
98056W        W70371  31.994  35.501  11.371
98057W        W70372  20.077  19.252   0.735
98058W        W70373  28.439   1.268  11.514
98059W        W70374  24.134  33.043   2.810
98060W        W70375  35.019  44.501  14.008
98061W        W70376  33.490  25.219   4.237
98062W        W70377   3.946  30.437   5.177
98063W        W70378  25.624  34.014  14.921
98064W        W70379  13.187  39.557   2.309
98065W        W70380  35.991   5.262  10.496
98066W        W70381  35.508   2.311  13.521
98067W        W70382  12.253   2.430   4.206
98068W        W70383  28.975  22.250  14.481
98069W        W70384  43.900  30.032  12.907
98070W        W70385  35.000  21.040   2.882
98071W        W70386  13.114  21.524  14.943
98072W        W70387   9.385  44.873   4.764
98073W        W70388  29.660  43.916  12.419
98074W        W70389  34.537  31.563  10.461
98075W        W70390   9.263  15.818  14.915
98076W        W70391  39.426  17.630   0.414
98077W        W70392   8.763  25.108  13.437
98078W        W70393  37.397  37.884  11.589
98079W        W70394   7.338  24.622  11.564
98080W        W70395  19.132  14.282   3.284
98081W        W70396   3.451   2.759   2.849
98082W        W70397   9.675  20.637   2.216
98083W        W70398   2.735  29.006   1.702
98084W        W70399  16.781  15.243  13.833
98085W        W70400   2.722   2.758  10.466
98086W        W70401  15.208   3.827   1.272
98087W        W70402  14.335   1.277  13.940
98088W        W70403   3.878   0.445   2.394
98089W        W70404  13.253  36.518  11.913
98090W        W70405   8.286  44.002   4.809
98091W        W70406  42.355  44.417   3.791
98092W        W70407  22.056  35.494  13.975
98093W        W70408  33.879   5.745  14.510
98094W        W70409   5.701   7.353   1.306
98095W        W70410  24.541  33.111  14.914
98096W        W70411  16.156  26.107   4.304
98097W        W70412   1.843  40.382  10.458
98098W        W70413  13.133  40.880  11.471
98099W        W70414   2.822  24.602   0.966
98100W        W70415   4.821  34.611  10.572
98101W        W70416  35.912   5.763   2.858
98102W        W70417  13.106  31.085  11.069
98103W        W70418  40.319   1.786   3.283
98104W        W70419  31.434  21.041   3.836
98105W        W70420  14.635  28.556  14.760
98106W        W70421  28.132  41.364   2.267
98107W        W70422   7.244  36.019   4.798
98108W        W70423  33.589  42.951   3.833
98109W        W70424  34.545  41.533   0.821
98110W        W70425  21.026  14.239   3.692
98111W        W70426  26.678  40.872  14.988
98112W        W70427  26.162  25.546   1.409
98113W        W70428  20.220  35.107   1.437
98114W        W70429  15.201  31.423   1.880
98115W        W70430   4.252   0.980   4.737
98116W        W70431  12.778  16.730  11.076
98117W        W70432   1.962  37.475   1.356
98118W        W70433  11.181  19.060   9.488
98119W        W70434  30.954   8.696   2.754
98120W        W70435  23.213  25.198  11.452
98121W        W70436   7.181   6.303  14.791
98122W        W70437  20.169  29.669   1.781
98123W        W70438  14.123  16.274   0.957
98124W        W70439  11.354   6.243  12.856
98125W        W70440  27.952  17.109  10.991
98126W        W70441  22.672  40.971   3.332
98127W        W70442   8.779   5.883   1.291
98128W        W70443  37.992  12.800  10.891
98129W        W70444  33.903  33.414   2.209
98130W        W70445  15.740   9.384   0.838
98131W        W70446  35.077  23.123  10.435
98132W        W70447   3.723   4.767  12.944
98133W        W70448  31.897  19.560  12.384
98134W        W70449  22.502  16.802   0.292
98135W        W70450  44.968  28.172  13.013
98136W        W70451  33.987  11.853  13.864
98137W        W70452  42.954   4.432  12.897
98138W        W70453   6.694   3.410  14.307
98139W        W70454  15.815  24.045  12.579
98140W        W70455   4.352  20.719   4.789
98141W        W70456   9.253  28.512  10.484
98142W        W70457  31.451  15.317  14.324
98143W        W70458  34.971   6.214  11.893
98144W        W70459   6.739  20.718  11.542
98145W        W70460  22.559  42.389  10.631
98146W        W70461   4.320   4.933   3.699
98147W        W70462  20.756   8.871  12.368
98148W        W70463  18.697  30.051  14.796
98149W        W70464  15.237  33.625   0.280
98150W        W70465   6.781  43.467  11.475
98151W        W70466  15.733  23.228   5.249
98152W        W70467  34.401  34.035  12.970
98153W        W70468  39.812  29.511   0.759
98154W        W70469  27.577   3.303   4.352
98155W        W70470  24.601   2.847   3.649
98156W        W70471  32.946  44.005  14.933
98157W        W70472  21.516  36.582  11.108
98158W        W70473  13.810  24.611  13.046
98159W        W70474  40.410   0.925  13.843
98160W        W70475  26.997  16.707   0.932
98161W        W70476   4.426  44.754  12.401
98162W        W70477  10.338  21.602  10.998
98163W        W70478   9.394  11.197  12.480
98164W        W70479   0.336  34.016   0.348
98165W        W70480  32.066   9.705  13.871
98166W        W70481   6.415  21.552   3.661
98167W        W70482  43.833  41.865  12.551
98168W        W70483  38.360  34.479   2.190
98169W        W70484   7.887   6.243  14.911
98170W        W70485  25.192  22.668   2.669
98171W        W70486  34.938  27.162  12.493
98172W        W70487  30.159   8.691  13.430
98173W        W70488   5.785  10.235   1.859
98174W        W70489   0.964  44.405  11.456
98175W        W70490  38.899  34.894   3.824
98176W        W70491  21.603  24.541   2.181
98177W        W70492  18.766   7.775   0.358
98178W        W70493  22.205  26.549  14.950
98179W        W70494  39.520  38.489   3.726
98180W        W70495  21.242  34.940   4.128
98181W        W70496  22.128   8.740  14.284
98182W        W70497  16.093  14.122  11.079
98183W        W70498  43.827   0.749  14.789
98184W        W70499   4.745   4.757  14.294
98185W        W70500  26.457  39.337  14.891
98186W        W70501   4.305  39.457   1.427
98187W        W70502  37.048   8.733   1.247
98188W        W70503  33.924   8.710   3.750
98189W        W70504  23.621  24.229   1.734
98190W        W70505  11.784  25.583  13.533
98191W        W70506  20.207  34.878  13.935
98192W        W70507  31.620   0.956   1.839
98193W        W70508  36.937   5.281  13.345
98194W        W70509  14.250  22.710  10.577
98195W        W70510  37.533  15.801  10.894
98196W        W70511  11.354  29.176   0.914
98197W        W70512   1.290  14.729  12.472
98198W        W70513   1.761  38.532   3.703
98199W        W70514  39.492  16.770  12.982
98200W        W70515   1.823  21.613   3.339
98201W        W70516  26.534   6.763  13.986
98202W        W70517  39.497  23.239  12.037
98203W        W70518  25.612  27.539   0.338
98204W        W70519  30.587  23.223   1.733
98205W        W70520  31.454  33.944   0.739
98206W        W70521   4.916  38.997  11.458
98207W        W70522  39.886  23.627   5.721
98208W        W70523  21.521   4.769  11.491
98209W        W70524  29.046  22.720   3.743
98210W        W70525  41.039  15.093  14.010
98211W        W70526  38.569  16.263   0.361
98212W        W70527  38.478  39.874   3.721
98213W        W70528  19.613  26.109  14.357
98214W        W70529  42.909   4.752   1.279
98215W        W70530  12.129  22.225  13.963
98216W        W70531   8.355  13.263  14.416
98217W        W70532  29.462  17.167  10.596
98218W        W70533  24.135  21.036   0.412
98219W        W70534  13.234  43.399  12.415
98220W        W70535  26.075  34.465  10.629
98221W        W70536  26.536  34.509  12.373
98222W        W70537  26.184  38.076  11.465
98223W        W70538  38.410  23.101  14.963
98224W        W70539   3.756  33.474  13.844
98225W        W70540   2.849  29.509  10.477
98226W        W70541  34.051  38.527   1.434
98227W        W70542  21.741   6.724  10.437
98228W        W70543  33.045   8.237   1.907
98229W        W70544  31.411  28.554  12.403
98230W        W70545  42.353  22.081   0.290
98231W        W70546  19.133   4.323   3.632
98232W        W70547   1.338  14.762  12.935
98233W        W70548  25.052  39.474  14.970
98234W        W70549  17.729  42.444  11.486
98235W        W70550  26.635  18.196  12.087
98236W        W70551   7.308   9.772  12.445
98237W        W70552   2.768  28.543   4.743
98238W        W70553  41.898  40.033  12.476
98239W        W70554   7.665  24.662   0.306
98240W        W70555  37.514  37.918   1.907
98241W        W70556  37.847  35.063   3.282
98242W        W70557  31.583  44.879   1.864
98243W        W70558  35.497   2.908   0.380
98244W        W70559  26.604  35.880  10.441
98245W        W70560   1.943  41.901   4.282
98246W        W70561  20.183  20.743  12.447
98247W        W70562   5.903  17.124  12.951
98248W        W70563   4.249   9.673  13.972
98249W        W70564  34.583  24.508   1.802
98250W        W70565  28.095   0.844  14.344
98251W        W70566  19.614  36.074   1.267
98252W        W70567   0.952   6.344  11.081
98253W        W70568   9.680  25.045   3.632
98254W        W70569  25.021  10.691  11.411
98255W        W70570  20.598  15.699   2.270
98256W        W70571  21.647  29.546  10.964
98257W        W70572  13.351   2.247  14.417
98258W        W70573  38.470  34.085   0.904
98259W        W70574  35.955  35.068   0.249
98260W        W70575  20.233  23.015   2.811
98261W        W70576  25.184  35.027  13.527
98262W        W70577  28.609  21.223   4.282
98263W        W70578  17.111   1.812  14.475
98264W        W70579   7.764  41.299  13.343
98265W        W70580  25.176  20.255  13.033
98266W        W70581  15.641  22.110   4.122
98267W        W70582  17.146  20.217   4.778
98268W        W70583  27.458  17.798   2.744
98269W        W70584  27.589  37.471  12.964
98270W        W70585  11.696  10.684   0.381
98271W        W70586  22.535   1.313  14.943
98272W        W70587  16.610   9.664   0.740
98273W        W70588   5.369  11.706  14.918
98274W        W70589  41.031  33.428   4.725
98275W        W70590  10.298  23.508   2.194
98276W        W70591  16.149  39.015   4.310
98277W        W70592  23.695   4.754  12.853
98278W        W70593  42.012  16.668   1.430
98279W        W70594  43.782   7.779  10.909
98280W        W70595  18.191  13.288   0.751
98281W        W70596  18.695  22.554   0.796
98282W        W70597  39.824  16.606   2.243
98283W        W70598  37.569   7.883   3.253
98284W        W70599  34.585   1.455   3.636
98285W        W70600  33.548  23.504  14.396
98286W        W70601  12.639  12.306   0.892
98287W        W70602  32.637   3.430   4.325
98288W        W70603   2.836  22.091   0.862
98289W        W70604  21.610  29.424   1.425
98290W        W70605  23.527  30.093  14.419
98291W        W70606  30.513  30.058  13.908
98292W        W70607  42.856  39.062  14.839
98293W        W70608  40.966  17.662  14.767
98294W        W70609   3.415  11.635   1.229
98295W        W70610  21.743   1.308  11.081
98296W        W70611  39.876  10.861   3.640
98297W        W70612  10.186  32.439   1.852
98298W        W70613  29.119  44.860   1.927
98299W        W70614  30.907   2.923   2.728
98300W        W70615   7.246  11.732  14.438
98301W        W70616  16.632  27.571   0.255
98302W        W70617  30.628  14.744  13.920
98303W        W70618   2.307  33.056   3.764
98304W        W70619  41.981  32.937  11.578
98305W        W70620   3.429   8.273   0.888
98306W        W70621  16.138  12.616   1.344
98307W        W70622  29.154  15.743   4.651
98308W        W70623  25.679  32.983   3.161
98309W        W70624  29.939   9.846   4.240
98310W        W70625  29.511   6.726  13.544
98311W        W70626  35.568  31.054   3.635
98312W        W70627  42.292   8.195  14.907
98313W        W70628  36.462  22.181  12.357
98314W        W70629  35.408   5.881   2.186
98315W        W70630  31.508  11.766  13.435
98316W        W70631  39.455  10.755   2.712
98317W        W70632   6.914   6.728  12.384
98318W        W70633   7.733  34.965  13.941
98319W        W70634  33.457  43.317  11.590
98320W        W70635  43.317  32.505  12.534
98321W        W70636  11.748   9.185  14.871
98322W        W70637   3.332  23.612  10.993
98323W        W70638  24.155  10.262   0.885
98324W        W70639   3.749  36.960  12.949
98325W        W70640  14.206  15.807   4.348
98326W        W70641  32.034   3.225   1.303
98327W        W70642  42.328  11.684   4.724
98328W        W70643  23.554  43.771   1.721
98329W        W70644  44.834  16.184  11.927
98330W        W70645  41.919  42.828   1.828
98331W        W70646  39.869  23.713  11.111
98332W        W70647  26.669  37.390   2.736
98333W        W70648  37.016  35.549   0.899
98334W        W70649   1.933  29.008   1.857
98335W        W70650  18.736  32.582  12.963
98336W        W70651  27.527  34.609  10.500
98337W        W70652  36.022  23.004  13.396
98338W        W70653  18.218  30.029  12.059
98339W        W70654  18.786  29.939   5.690
98340W        W70655  40.940   1.914  10.961
98341W        W70656  32.465  12.172  12.578
98342W        W70657   0.886  41.001  14.974
98343W        W70658  14.257  25.610  10.593
98344W        W70659  37.847  32.056  11.371
98345W        W70660   0.288  37.862  12.373
98346W        W70661   0.827   3.326   2.819
98347W        W70662   7.850  44.365   5.248
98348W        W70663  25.613  23.235  12.341
98349W        W70664  20.715  38.541  14.856
98350W        W70665  17.290  21.716  13.905
98351W        W70666  42.353  26.684   2.241
98352W        W70667  20.107  24.150  11.923
98353W        W70668  14.716  19.583   2.878
98354W        W70669  24.020  38.980   3.859
98355W        W70670   2.358  34.117   4.315
98356W        W70671  24.175  38.924   0.316
98357W        W70672   5.754   3.218   3.236
98358W        W70673  19.754  39.901   5.741
98359W        W70674  23.011   7.778   4.172
98360W        W70675   4.850  29.006  10.028
98361W        W70676   8.237  27.493   4.815
98362W        W70677   9.883   0.390   4.138
98363W        W70678  21.115  21.240   2.675
98364W        W70679  16.184  18.066   2.246
98365W        W70680  21.137   9.348  12.858
98366W        W70681  34.005  39.050   2.669
98367W        W70682  32.530  25.031  11.027
98368W        W70683  27.956  16.784  11.564
98369W        W70684  14.324  29.510  11.599
98370W        W70685   1.249  37.549  12.916
98371W        W70686  24.506   7.310   0.268
98372W        W70687  21.724  10.291   4.345
98373W        W70688   9.242  22.575  14.509
98374W        W70689  37.841   7.370   2.266
98375W        W70690  43.830  13.645   0.446
98376W        W70691  43.425  26.565  10.525
98377W        W70692  26.081  12.826  12.464
98378W        W70693  16.099   8.809  10.467
98379W        W70694  25.520   5.259   2.375
98380W        W70695  14.675   7.836   3.325
98381W        W70696  23.233  16.144   1.703
98382W        W70697   7.778  38.464   1.741
98383W        W70698  41.497  19.766  13.957
98384W        W70699  32.028  40.802   0.898
98385W        W70700  26.597  24.991   2.343
98386W        W70701  35.480  26.587  10.556
98387W        W70702  19.098  35.517   3.304
98388W        W70703  11.279  35.575   2.405
98389W        W70704  26.612  32.445   2.211
98390W        W70705   8.268   8.703  14.799
98391W        W70706  43.973  32.545  13.418
98392W        W70707  40.325  25.660  13.829
98393W        W70708  23.724  35.435   1.251
98394W        W70709  12.203  19.551  13.341
98395W        W70710   1.960  24.152  14.787
98396W        W70711  38.947  13.115  12.389
98397W        W70712  23.131  33.032   3.782
98398W        W70713  18.689  17.198   0.775
98399W        W70714  30.162  40.890  13.929
98400W        W70715  10.137  27.045   3.794
98401W        W70716   8.883  30.918   4.222
98402W        W70717  38.372  26.578   3.853
98403W        W70718  20.230  27.971   3.704
98404W        W70719  38.374  11.143   3.185
98405W        W70720  36.372  30.139  12.025
98406W        W70721  22.732  37.497  13.051
98407W        W70722  38.567   4.714  13.836
98408W        W70723  32.113  16.745   4.724
98409W        W70724  23.543  31.566  10.483
98410W        W70725   1.394   5.699  13.052
98411W        W70726  31.080   9.348   0.814
98412W        W70727   4.748  29.493  14.837
98413W        W70728  11.747  14.188  10.547
98414W        W70729   7.819  13.823  10.615
98415W        W70730   5.406   6.205   2.269
98416W        W70731  37.905   8.368   0.429
98417W        W70732  26.560  34.602  11.929
98418W        W70733  12.699  32.986  11.440
98419W        W70734   1.833   7.251   0.926
98420W        W70735  10.315  36.556   0.345
98421W        W70736  34.953  41.964  10.484
98422W        W70737  41.383  36.904  13.816
98423W        W70738   0.941   3.295   1.932
98424W        W70739   8.334  15.631   4.247
98425W        W70740  31.024  33.969  11.120
98426W        W70741  20.193  36.522  11.073
98427W        W70742  18.575  17.681   2.308
98428W        W70743  13.281  31.090  14.909
98429W        W70744  37.510  44.965   4.768
98430W        W70745  20.598  25.688  14.937
98431W        W70746  40.925   6.335  10.902
98432W        W70747  38.952  27.603   3.787
98433W        W70748  18.666  40.431  13.387
98434W        W70749  23.671  39.391   2.723
98435W        W70750   6.742  23.619   3.802
98436W        W70751  15.658  35.907   0.801
98437W        W70752   3.886  35.978   4.623
98438W        W70753  28.034   1.236   1.705
98439W        W70754  12.159  30.537  11.415
98440W        W70755  33.404  15.164   2.299
98441W        W70756  23.162   3.821  12.860
98442W        W70757   5.933  32.506   0.382
98443W        W70758  26.639  27.675  12.463
98444W        W70759  16.795  15.124  14.505
98445W        W70760  30.034  23.569   4.125
98446W        W70761  29.472  27.950  12.908
98447W        W70762  35.933   7.395   1.252
98448W        W70763  10.797  31.466   1.348
98449W        W70764  28.107  28.474  13.885
98450W        W70765  37.507  23.132   1.823
98451W        W70766  15.760   0.328  11.033
98452W        W70767  35.386  16.654   2.412
98453W        W70768  13.247  19.666  12.031
98454W        W70769  40.367   4.875   1.909
98455W        W70770  36.525   1.875  14.801
98456W        W70771  43.846  44.863   4.173
98457W        W70772  36.370   6.310   1.736
98458W        W70773  39.934  12.617   1.415
98459W        W70774  27.946  44.914   4.832
98460W        W70775  12.324   9.693  12.969
98461W        W70776   0.766  44.445   9.961
98462W        W70777  23.582  39.555  14.929
98463W        W70778  39.373  16.166  12.082
98464W        W70779  29.982  43.889  14.920
98465W        W70780  20.030   5.310  11.479
98466W        W70781  35.448  27.945  14.478
98467W        W70782  39.006  32.983   4.598
98468W        W70783  18.606   7.253  11.501
98469W        W70784  17.084  36.380  11.897
98470W        W70785  38.866   9.268  13.356
98471W        W70786   2.853   2.261  13.016
98472W        W70787  18.262  28.948  12.019
98473W        W70788  26.044  39.358  11.469
98474W        W70789  26.003  39.322  10.608
98475W        W70790   5.832  23.590   0.831
98476W        W70791  20.121  43.836  10.636
98477W        W70792  24.072  34.071   0.954
98478W        W70793   0.878  35.387   1.293
98479W        W70794  11.858   4.210   4.312
98480W        W70795  15.129  10.685   2.350
98481W        W70796  33.988  32.418  13.898
98482W        W70797   3.756  32.007   3.668
98483W        W70798  19.196  29.926   5.116
98484W        W70799   3.310  32.605  14.468
98485W        W70800  43.999   4.425  10.485
98486W        W70801  42.447  32.399   1.876
98487W        W70802  14.219  40.536  13.973
98488W        W70803  42.945   5.827   0.443
98489W        W70804  20.731  10.725  13.519
98490W        W70805  27.543  39.880   4.202
98491W        W70806  24.016  41.404   9.970
98492W        W70807   9.760  30.549   3.369
98493W        W70808  12.306  24.038  13.308
98494W        W70809   4.389  38.339  12.561
98495W        W70810  18.261  30.994  10.923
98496W        W70811  44.346  22.110   2.357
98497W        W70812  10.293  34.409  12.936
98498W        W70813  13.141  14.711  12.424
98499W        W70814  36.927  14.713  14.441
98500W        W70815  30.028   5.872  11.533
98501W        W70816  37.960  44.422  12.922
98502W        W70817   2.808  13.615  14.304
98503W        W70818  31.989  34.966   4.772
98504W        W70819  29.464   9.298  12.469
98505W        W70820  33.944  39.394   3.864
98506W        W70821  41.465  26.100  14.308
98507W        W70822  12.846   6.330  13.433
98508W        W70823  42.894  17.674   2.264
98509W        W70824  21.615  33.931   4.775
98510W        W70825  35.443  29.085  13.019
98511W        W70826  29.459   0.314  14.915
98512W        W70827  27.197  11.128   0.413
98513W        W70828  27.456  18.668  12.091
98514W        W70829   5.284  36.892  11.494
98515W        W70830   7.236   2.466   0.247
98516W        W70831  28.660  40.941  10.547
98517W        W70832   9.750  25.199  14.858
98518W        W70833  40.386   5.917   4.610
98519W        W70834  14.785  21.739  13.051
98520W        W70835   2.912  14.628   0.776
98521W        W70836   5.790  16.779   2.676
98522W        W70837  23.161  41.944   4.796
98523W        W70838  40.316  22.116   4.301
98524W        W70839  24.633  22.079  14.978
98525W        W70840  40.016  17.069  10.462
98526W        W70841  40.814  14.164   1.879
98527W        W70842  35.516  13.306   0.390
98528W        W70843  26.548   1.271   1.798
98529W        W70844  11.717  23.025  13.886
98530W        W70845   0.282   3.438   3.651
98531W        W70846  37.941  35.996   4.713
98532W        W70847  44.757  31.933  13.016
98533W        W70848  40.968  30.018   2.338
98534W        W70849  44.921  20.182  14.837
98535W        W70850  42.365  30.010   2.716
98536W        W70851  13.737  23.034   3.731
98537W        W70852  16.129  12.144  10.965
98538W        W70853  12.135   9.656  10.535
98539W        W70854   4.220  21.144  12.927
98540W        W70855  32.996   5.895  11.093
98541W        W70856  44.377  37.067  11.960
98542W        W70857  33.504  20.078   4.602
98543W        W70858  17.726  38.023   4.259
98544W        W70859  22.026  14.623  13.388
98545W        W70860  16.779   9.707  10.018
98546W        W70861   7.276   5.867  10.554
98547W        W70862  30.054   8.304  13.931
98548W        W70863  41.000  10.147  10.073
98549W        W70864  18.131  31.406   4.711
98550W        W70865  26.608  42.936   2.231
98551W        W70866  29.920   8.210  12.045
98552W        W70867  40.324  11.759  11.905
98553W        W70868  38.533  11.258  12.453
98554W        W70869  19.704  27.576  14.771
98555W        W70870  28.523  34.865  10.915
98556W        W70871  24.648  20.587   4.624
98557W        W70872  14.296   2.903   4.280
98558W        W70873  33.916   9.714  10.609
98559W        W70874  21.650  30.477   4.187
98560W        W70875  25.640  41.936  13.932
98561W        W70876  31.990   1.961   0.475
98562W        W70877  38.453   1.453  14.937
98563W        W70878  28.177  31.638   5.645
98564W        W70879   2.289  43.437   0.378
98565W        W70880  39.360   8.794  13.019
98566W        W70881  27.045  14.683   1.399
98567W        W70882  18.787  18.690   1.299
98568W        W70883  32.126  40.918  11.378
98569W        W70884  44.794  39.915  11.934
98570W        W70885  20.207  34.506  11.126
98571W        W70886  20.107  44.300  10.954
98572W        W70887  12.253  38.444  11.610
98573W        W70888  41.350  15.670  10.993
98574W        W70889  25.041  30.930  11.012
98575W        W70890   3.840   6.354   4.124
98576W        W70891   9.870  25.505  11.914
98577W        W70892  29.157  32.430   0.289
98578W        W70893   2.801  26.155  12.965
98579W        W70894  40.342  43.318  13.964
98580W        W70895   8.714   7.720  13.014
98581W        W70896  28.040  31.468  12.000
98582W        W70897  28.582   4.742   3.704
98583W        W70898  37.449  30.970   4.822
98584W        W70899  19.135   8.860   1.232
98585W        W70900  28.976  17.225   3.633
98586W        W70901  23.673   8.867   4.237
98587W        W70902  14.758  32.469  12.853
98588W        W70903  31.496   4.805   1.725
98589W        W70904  14.751  17.660  12.344
98590W        W70905   4.871  23.993   0.406
98591W        W70906  17.778  25.162  13.990
98592W        W70907  27.599  11.134  12.849
98593W        W70908  26.028  37.075   3.289
98594W        W70909  40.047   3.865   2.792
98595W        W70910   7.672   9.771  10.422
98596W        W70911  19.688   9.727   2.667
98597W        W70912  14.763  22.531  14.434
98598W        W70913  21.668  38.011   3.677
98599W        W70914  16.078  16.603  12.984
98600W        W70915  20.051  23.730  14.988
98601W        W70916  19.283  24.634  12.937
98602W        W70917  27.555  12.145   1.391
98603W        W70918  28.552  43.840   1.376
98604W        W70919   3.869   2.849  12.993
98605W        W70920  41.530   7.836  14.448
98606W        W70921   3.838  44.482   0.966
98607W        W70922   1.878  19.658   3.645
98608W        W70923  27.949  40.909  14.448
98609W        W70924  11.747  19.619  10.439
98610W        W70925   5.778  19.105  13.982
98611W        W70926  35.888  20.056   1.914
98612W        W70927  38.488  22.559  11.985
98613W        W70928  42.509   2.366   4.275
98614W        W70929  15.681   7.404   0.323
98615W        W70930  11.292  35.931  14.843
98616W        W70931  25.686  19.617   3.858
98617W        W70932   6.231  32.886  14.336
98618W        W70933   4.401  16.675   3.766
98619W        W70934   2.437   3.242   1.424
98620W        W70935  41.507  29.978  11.435
98621W        W70936  26.516  22.734   4.310
98622W        W70937  28.534  34.572   0.955
98623W        W70938  13.336   4.919   4.633
98624W        W70939  13.716  27.518   2.847
98625W        W70940  33.896  16.653   3.232
98626W        W70941  34.918  12.857  11.580
98627W        W70942   7.406  27.944  11.387
98628W        W70943   0.916   3.334   3.342
98629W        W70944  16.627  41.010   5.756
98630W        W70945  44.357  32.084   0.755
98631W        W70946  26.613  30.153  11.939
98632W        W70947  32.004  36.914  11.879
98633W        W70948  14.199  43.431  11.984
98634W        W70949  13.723  12.777   0.822
98635W        W70950  34.888  23.125   0.893
98636W        W70951  25.533  19.698   4.679
98637W        W70952  25.082   6.219   3.798
98638W        W70953  34.088  44.010   3.199
98639W        W70954   9.873   2.810  13.509
98640W        W70955  40.875  34.984   3.205
98641W        W70956  21.590   4.223  13.349
98642W        W70957   9.722  26.156   0.810
98643W        W70958  18.113  25.186  13.419
98644W        W70959  25.517  34.547  10.445
98645W        W70960  18.582   9.277  10.010
98646W        W70961  29.037   9.167   3.764
98647W        W70962   5.439  31.952  13.982
98648W        W70963  11.631  40.496   0.294
98649W        W70964  37.568  13.830  14.375
98650W        W70965   9.297   9.299  11.438
98651W        W70966   1.340  35.923   2.729
98652W        W70967  21.062  25.164  10.578
98653W        W70968  18.597  21.059  12.354
98654W        W70969  28.550  39.028  11.371
98655W        W70970  27.535  33.979   5.253
98656W        W70971  10.217  11.334   1.332
98657W        W70972   8.273  25.698   0.762
98658W        W70973  13.288   5.808   1.785
98659W        W70974  37.432   0.459   3.632
98660W        W70975   2.316  43.817   2.733
98661W        W70976  20.216   4.366  11.579
98662W        W70977  19.077  29.126   0.382
98663W        W70978  16.797  24.209  10.593
98664W        W70979  28.594  32.051  13.396
98665W        W70980   9.838  16.708  12.399
98666W        W70981  21.047  32.082  13.539
98667W        W70982  39.995  13.106  12.041
98668W        W70983   9.760  16.304  13.925
98669W        W70984  37.986  37.046   2.680
98670W        W70985  30.434  25.570   1.773
98671W        W70986   6.312  12.614   1.334
98672W        W70987  43.452   8.866   4.187
98673W        W70988  17.145  36.536   3.351
98674W        W70989  20.758  37.964  12.828
98675W        W70990   7.189  10.255   2.378
98676W        W70991  34.535   9.195   2.335
98677W        W70992   6.694  38.489   0.401
98678W        W70993  10.681  29.454  14.310
98679W        W70994   3.456  44.982  11.951
98680W        W70995  35.029  33.931   1.799
98681W        W70996  19.051  30.593  10.505
98682W        W70997   1.313  39.536   4.271
98683W        W70998  25.106  16.626   2.900
98684W        W70999  35.365  36.047   4.711
98685W        W71000  16.598  18.683  13.387
98686W        W71001   3.878  38.820   4.773
98687W        W71002   7.839   0.979  11.971
98688W        W71003   9.385  34.978  11.085
98689W        W71004   0.874   9.793  11.516
98690W        W71005  38.063   9.829   3.657
98691W        W71006  12.120  44.322   3.817
98692W        W71007  10.803   2.325   0.402
98693W        W71008  31.917  25.502  11.463
98694W        W71009  16.730  32.568  10.636
98695W        W71010  20.753  22.701   2.263
98696W        W71011   8.245  10.717   0.868
98697W        W71012  31.989  10.701   1.286
98698W        W71013  30.916   0.265   0.910
98699W        W71014  20.228  31.521  13.936
98700W        W71015   6.743  44.846  13.981
98701W        W71016  17.074  12.830  14.993
98702W        W71017   1.366  37.541   4.134
98703W        W71018  38.008  31.498  14.381
98704W        W71019  36.036  41.352   4.311
98705W        W71020  20.086  26.502  14.342
98706W        W71021  15.267  32.049   0.330
98707W        W71022  43.870  33.119  14.838
98708W        W71023  41.959  32.557   2.708
98709W        W71024  21.517   3.845  12.946
98710W        W71025  40.849  42.798   4.826
98711W        W71026  14.200  40.322   0.253
98712W        W71027  22.219  11.295  11.934
98713W        W71028   4.749   3.215   5.204
98714W        W71029  10.804  29.950  12.562
98715W        W71030   1.428  31.981   1.743
98716W        W71031  35.881  28.450  11.466
98717W        W71032  37.377  12.162  11.042
98718W        W71033  10.212  39.454  14.991
98719W        W71034  10.188  18.238   1.699
98720W        W71035   2.900  15.218   2.732
98721W        W71036   1.913  33.542  14.374
98722W        W71037  27.692   8.370  12.413
98723W        W71038  12.710  20.529  12.056
98724W        W71039  26.138  11.630   3.153
98725W        W71040  25.479  21.092   5.605
98726W        W71041  23.025  34.882  13.805
98727W        W71042   1.891  30.649   3.813
98728W        W71043  42.311  41.960   1.935
98729W        W71044   6.791  19.751   1.814
98730W        W71045   6.750  43.404  14.822
98731W        W71046  44.999   0.449   3.758
98732W        W71047  12.256  28.571   1.926
98733W        W71048  17.626  44.272  14.290
98734W        W71049  24.724  24.714  13.966
98735W        W71050  22.725  16.594  14.445
98736W        W71051  30.460  14.601  11.457
98737W        W71052  41.538  29.144  13.813
98738W        W71053  35.106  24.521   2.890
98739W        W71054   1.370  12.657   3.321
98740W        W71055  19.273   5.276  11.891
98741W        W71056  26.613  10.152   0.775
98742W        W71057  10.346  27.618  11.952
98743W        W71058  21.143   3.945   0.410
98744W        W71059  30.592  25.568  14.793
98745W        W71060   1.422  22.090   1.263
98746W        W71061  37.992  34.977  14.316
98747W        W71062  19.758   8.753   2.279
98748W        W71063  11.145  23.575   3.651
98749W        W71064  26.522  18.126   1.741
98750W        W71065  22.091  41.006   1.862
98751W        W71066  36.019  31.897   0.825
98752W        W71067  31.585   9.272  14.001
98753W        W71068  25.620  26.973  10.593
98754W        W71069  31.969  14.177  10.048
98755W        W71070   5.717   5.322   0.442
98756W        W71071  35.595  32.563  13.917
98757W        W71072  34.865  21.033  11.510
98758W        W71073  27.609  27.692  14.432
98759W        W71074  23.132  43.309  14.022
98760W        W71075  13.238  24.142  13.423
98761W        W71076  11.318  10.227   4.778
98762W        W71077  21.517   3.392   4.123
98763W        W71078   7.691  33.522   1.857
98764W        W71079  13.309  34.607  13.537
98765W        W71080  20.613   0.747  11.969
98766W        W71081  26.963  23.102   2.889
98767W        W71082   7.401  33.115   2.311
98768W        W71083  15.606  39.494  13.522
98769W        W71084   3.379  11.344  13.496
98770W        W71085   2.842  30.552  11.003
98771W        W71086   1.792  10.651   1.920
98772W        W71087   7.304  33.443  11.441
98773W        W71088  17.778   5.427   0.294
98774W        W71089  17.740  29.067   2.775
98775W        W71090  11.736  10.735   3.684
98776W        W71091  34.017   1.433  12.508
98777W        W71092  16.174  31.483   4.704
98778W        W71093  22.180  22.007  10.126
98779W        W71094   9.249  44.938  10.969
98780W        W71095   8.727  31.514  11.474
98781W        W71096  33.914  22.226  11.040
98782W        W71097  14.772   4.208   4.119
98783W        W71098  26.087  42.953  14.029
98784W        W71099   3.725  15.092  11.404
98785W        W71100  24.163   6.896  14.017
98786W        W71101   3.788  34.387   4.353
98787W        W71102  24.554   6.726   3.325
98788W        W71103  44.272   3.433   0.473
98789W        W71104  42.471  26.110   4.738
98790W        W71105  20.160   1.973  14.839
98791W        W71106  39.042  16.202  11.413
98792W        W71107  22.521  30.000  10.495
98793W        W71108  30.488  14.267   0.427
98794W        W71109   0.375   6.745  14.955
98795W        W71110  28.102   4.825  14.460
98796W        W71111  14.207  17.661   1.904
98797W        W71112   5.398   3.397   4.252
98798W        W71113   1.943   7.753  10.540
98799W        W71114  31.610   9.374  10.425
98800W        W71115   0.361   5.381  11.023
98801W        W71116  21.710   6.289  12.491
98802W        W71117  26.100   6.420  14.299
98803W        W71118   5.706  40.547   4.829
98804W        W71119  27.968   8.868   1.830
98805W        W71120  14.796  15.764   5.154
98806W        W71121  32.117   7.737   2.389
98807W        W71122  44.845   0.743   4.755
98808W        W71123  38.951   4.275  11.375
98809W        W71124  43.391  32.963   4.836
98810W        W71125   5.859  35.855  13.995
98811W        W71126  31.520  25.999   3.224
98812W        W71127   1.970  30.526  12.941
98813W        W71128  11.857  39.823   1.797
98814W        W71129  33.042  43.870   2.195
98815W        W71130  23.994  22.716  13.901
98816W        W71131  30.126   3.944   0.910
98817W        W71132   9.348  12.171   4.771
98818W        W71133  10.826   1.731   1.783
98819W        W71134   4.826  24.570   4.145
98820W        W71135   9.808  22.076  10.409
98821W        W71136   4.773  38.413  11.398
98822W        W71137  16.275   8.216   4.125
98823W        W71138  37.450   1.824  14.460
98824W        W71139  44.807  34.894   3.303
98825W        W71140  23.725  25.518   2.250
98826W        W71141  34.551   4.365  13.370
98827W        W71142  31.450  13.745   2.887
98828W        W71143  32.037   0.938   0.788
98829W        W71144  11.721  30.575  10.585
98830W        W71145   8.277  36.402  12.834
98831W        W71146  42.332  23.627  14.456
98832W        W71147  26.595  28.037  14.015
98833W        W71148   3.828  23.681   1.262
98834W        W71149  10.178  18.771   9.493
98835W        W71150  22.618  24.591   0.311
98836W        W71151  14.336  31.066  11.044
98837W        W71152  23.037  19.780   9.491
98838W        W71153  42.982   2.370  11.514
98839W        W71154  15.277  41.442   2.876
98840W        W71155  21.538   9.240  14.481
98841W        W71156   3.845  34.105   2.680
98842W        W71157  12.351  31.556  11.030
98843W        W71158  19.636  44.391   5.242
98844W        W71159  19.228  27.103   2.359
98845W        W71160  27.153  39.947  11.866
98846W        W71161   1.904  37.961   2.864
98847W        W71162  14.717  35.465  11.448
98848W        W71163  44.806   2.742   0.882
98849W        W71164   2.829  21.219  12.552
98850W        W71165  43.430  26.960   0.328
98851W        W71166  26.168  25.172   3.751
98852W        W71167   0.382  30.473   1.790
98853W        W71168   5.432  22.573   4.221
98854W        W71169  15.692  26.965   1.850
98855W        W71170  39.345  21.093   0.953
98856W        W71171  25.668  26.529   1.793
98857W        W71172  35.911   0.426  13.962
98858W        W71173  40.989   2.252   0.323
98859W        W71174  15.595  41.377  10.424
98860W        W71175  27.643  27.122  13.048
98861W        W71176  32.918  15.735  12.065
98862W        W71177  34.398  28.461   1.708
98863W        W71178  23.513   9.768   3.652
98864W        W71179  13.761  39.931  12.445
98865W        W71180  39.460  38.457  11.519
98866W        W71181  38.551  37.941   0.883
98867W        W71182  17.773  38.066  10.090
98868W        W71183  21.651  30.031   0.305
98869W        W71184  22.509  34.389  10.161
98870W        W71185  19.236  37.046   1.817
98871W        W71186   0.438  34.457   1.850
98872W        W71187  37.920   6.338  12.378
98873W        W71188  24.141  14.267   2.675
98874W        W71189  37.984  37.072   3.813
98875W        W71190  31.555  20.764   2.841
98876W        W71191  18.167  44.401  10.984
98877W        W71192   7.296  38.530  14.310
98878W        W71193  39.492  16.738  14.896
98879W        W71194  18.610  40.490   4.782
98880W        W71195  30.033  38.932   3.309
98881W        W71196  30.636  40.428  12.849
98882W        W71197  14.700   7.347  13.395
98883W        W71198  34.592  38.920   0.365
98884W        W71199  38.467   1.790   2.727
98885W        W71200  30.458   3.823   3.348
98886W        W71201  42.455  14.609   0.842
98887W        W71202  34.072  25.195   1.285
98888W        W71203  43.287  41.985  14.318
98889W        W71204   9.823  18.259  13.364
98890W        W71205  23.653   2.922   2.839
98891W        W71206  31.642  21.623  10.640
98892W        W71207  13.171  14.282   4.816
98893W        W71208  27.527  15.306  11.062
98894W        W71209  39.446  19.726   4.261
98895W        W71210  22.182  17.741   1.241
98896W        W71211  20.752  43.793   4.256
98897W        W71212  20.239  33.129   1.403
98898W        W71213  26.968  30.620  12.529
98899W        W71214  39.055  15.318   0.253
98900W        W71215  27.681  12.777   0.864
98901W        W71216  22.041  42.317  12.925
98902W        W71217   0.776  27.086   4.151
98903W        W71218  37.020   2.246   3.704
98904W        W71219  32.490  33.454   0.877
98905W        W71220  37.036  33.993   2.293
98906W        W71221  34.599  20.190  13.507
98907W        W71222   9.340   9.162  11.960
98908W        W71223  43.364  25.068   2.344
98909W        W71224  16.640  12.136   2.699
98910W        W71225  19.597  20.116  10.615
98911W        W71226  12.344  36.444   1.816
98912W        W71227  10.310  29.617  11.026
98913W        W71228  44.451  36.870  11.573
98914W        W71229   9.358  33.126  13.929
98915W        W71230  26.664  23.665  11.896
98916W        W71231   3.777  36.472  10.897
98917W        W71232   6.714   4.794  13.888
98918W        W71233  37.989  12.849  12.406
98919W        W71234  24.072  31.914  14.496
98920W        W71235  43.499  20.057  12.422
98921W        W71236  37.074  41.443   0.436
98922W        W71237  41.888  38.396   1.778
98923W        W71238  22.222  20.095   4.707
98924W        W71239  30.414  29.070   4.755
98925W        W71240  25.006  13.742  12.495
98926W        W71241   7.836  27.641   1.933
98927W        W71242   8.191  10.143   1.397
98928W        W71243   9.706  22.699  12.381
98929W        W71244   4.403  22.136  14.368
98930W        W71245  22.086  33.949  12.088
98931W        W71246  10.742  31.426   0.353
98932W        W71247  35.367  23.061  10.520
98933W        W71248  12.225  22.062  13.444
98934W        W71249  33.467  26.998   1.729
98935W        W71250  26.520  18.092   2.717
98936W        W71251   1.897  24.652  10.625
98937W        W71252  26.597  17.174   5.225
98938W        W71253  36.449  33.520   4.240
98939W        W71254  38.976  13.118   1.753
98940W        W71255  17.557  35.026  12.476
98941W        W71256  33.465  33.624  13.912
98942W        W71257   1.417  21.220  12.065
98943W        W71258  11.632  28.004   4.784
98944W        W71259   7.677  35.545  10.890
98945W        W71260  25.189  41.844  12.350
98946W        W71261   6.829  12.841  14.922
98947W        W71262  20.748  34.527  12.858
98948W        W71263  24.184  22.568  13.047
98949W        W71264  20.667  24.674  12.460
98950W        W71265  12.844   1.784   4.618
98951W        W71266  21.546   7.243  13.385
98952W        W71267  33.534  26.623  10.421
98953W        W71268  20.255  24.593   2.300
98954W        W71269  17.668   3.717   4.266
98955W        W71270  12.220   7.372  11.582
98956W        W71271  22.525   9.829  13.038
98957W        W71272  10.739  20.107  13.879
98958W        W71273   3.730  36.573   4.740
98959W        W71274  34.470  19.610  13.850
98960W        W71275  17.236  36.015   0.935
98961W        W71276  31.078  27.992   3.685
98962W        W71277  26.084  44.755  12.379
98963W        W71278  20.624  27.559  10.481
98964W        W71279  40.025   4.357   4.113
98965W        W71280  11.830  22.526  13.022
98966W        W71281  11.761  41.961   3.846
98967W        W71282   3.869  37.914   1.727
98968W        W71283  10.201   3.253   5.287
98969W        W71284   9.676  27.595  12.909
98970W        W71285  17.727  25.096  11.035
98971W        W71286  28.551  17.639  13.892
98972W        W71287   0.815  41.500  12.967
98973W        W71288   8.220  32.109   2.895
98974W        W71289  24.621  16.685  10.535
98975W        W71290  15.329  39.980   0.458
98976W        W71291  22.649  44.790  14.804
98977W        W71292  37.414  14.784  10.407
98978W        W71293   7.907  44.372   4.807
98979W        W71294   3.319  35.034  13.352
98980W        W71295  25.520  29.594   3.814
98981W        W71296  38.962  11.771  11.373
98982W        W71297  14.152  26.067  12.973
98983W        W71298  17.144  10.753   4.272
98984W        W71299  35.440  27.189  13.486
98985W        W71300  43.830   1.814  14.489
98986W        W71301  42.971  36.938   3.849
98987W        W71302  10.239  37.069   1.244
98988W        W71303   4.718  14.678  11.610
98989W        W71304  21.196  24.542   0.739
98990W        W71305  38.481  41.902  10.974
98991W        W71306  16.185  28.959   3.154
98992W        W71307  26.653   1.876   4.822
98993W        W71308  31.104  26.183   0.936
98994W        W71309  24.013  44.828   3.820
98995W        W71310  17.118  21.514  11.448
98996W        W71311  28.530   2.740   2.866
98997W        W71312  16.223  21.024  11.559
98998W        W71313  13.659   9.382   0.342
98999W        W71314  18.697   7.231  11.050
99000W        W71315   5.286   3.735   3.233
99001W        W71316   4.306  10.647  12.864
99002W        W71317  19.700   2.336  11.526
99003W        W71318  42.508  30.110  10.516
99004W        W71319  16.095  17.141   0.851
99005W        W71320  15.249  37.367  14.375
99006W        W71321  23.585  15.258   1.928
99007W        W71322  19.233  42.432   4.255
99008W        W71323  24.224  26.976  13.394
99009W        W71324  12.156  16.664  13.946
99010W        W71325  36.903  37.425   2.204
99011W        W71326  20.678  12.247   0.943
99012W        W71327  28.942  30.658   3.297
99013W        W71328   5.790  10.224   4.261
99014W        W71329  35.886   2.268  14.974
99015W        W71330  12.299  38.998  13.056
99016W        W71331   7.317  17.781   1.444
99017W        W71332  28.526  34.481   1.448
99018W        W71333  38.503   7.339   3.740
99019W        W71334  11.700  22.531   3.320
99020W        W71335  29.129  18.226  14.799
99021W        W71336  18.770  43.500   2.384
99022W        W71337  41.369  22.636  11.428
99023W        W71338  22.009  22.073   1.293
99024W        W71339  44.269  11.203  12.348
99025W        W71340  21.649  34.886  14.890
99026W        W71341  11.257  43.472  14.487
99027W        W71342  32.105  25.520  12.914
99028W        W71343  41.980  19.054   2.337
99029W        W71344   2.379  18.765  12.361
99030W        W71345  13.836   5.694  11.535
99031W        W71346   1.284   1.403   1.858
99032W        W71347  38.912  23.074   5.804
99033W        W71348  35.924   8.399  11.598
99034W        W71349  17.075  14.195  11.038
99035W        W71350  28.621  36.999  12.833
99036W        W71351  29.511  39.510  12.994
99037W        W71352  21.529  12.789  14.330
99038W        W71353  16.311  34.396  14.018
99039W        W71354  10.760   9.845  14.400
99040W        W71355  39.950  15.126   1.299
99041W        W71356  28.978  10.836  12.482
99042W        W71357  33.461  37.372  14.410
99043W        W71358  40.447  26.177  12.997
99044W        W71359  36.875  29.608   2.857
99045W        W71360   5.742  30.573  13.333
99046W        W71361  23.230  24.066  12.490
99047W        W71362  36.068  10.815   0.940
99048W        W71363  23.067   9.699   0.759
99049W        W71364  21.722   8.872  12.839
99050W        W71365   2.420  40.983   0.407
99051W        W71366  42.897  15.741  10.521
99052W        W71367  18.604  31.003  13.855
99053W        W71368   5.858  23.185   3.341
99054W        W71369  34.074  22.044   3.843
99055W        W71370  34.921  27.981   3.846
99056W        W71371  18.576  34.975  11.565
99057W        W71372  32.053  33.965  12.479
99058W        W71373  26.480  41.293  11.408
99059W        W71374   6.709  20.557   4.815
99060W        W71375  21.083   7.244  13.397
99061W        W71376  36.034   5.261  11.939
99062W        W71377  14.639   7.872  13.012
99063W        W71378  28.607  26.999  14.834
99064W        W71379   5.786  39.421   3.769
99065W        W71380  14.785  24.160   3.375
99066W        W71381   3.457  33.027  11.592
99067W        W71382  17.159  31.100   4.777
99068W        W71383  23.017  30.950   3.348
99069W        W71384   4.920  15.142   3.685
99070W        W71385  40.525   5.789  11.951
99071W        W71386  40.951  44.883   3.807
99072W        W71387  19.045  19.284   1.244
99073W        W71388  29.091  12.190  13.904
99074W        W71389   4.887  34.113   2.343
99075W        W71390  20.045   8.304   4.786
99076W        W71391  16.269  26.564   1.413
99077W        W71392  13.229  38.029  11.585
99078W        W71393  24.634  30.045   3.253
99079W        W71394   9.391   4.942   3.339
99080W        W71395  38.535  11.819  14.895
99081W        W71396  13.305  39.964  14.426
99082W        W71397   9.176  34.963  12.857
99083W        W71398  37.378  13.828  10.939
99084W        W71399   2.958  35.069   3.684
99085W        W71400  29.939   2.305   4.767
99086W        W71401  43.976  20.217   1.702
99087W        W71402  18.050  30.984   0.754
99088W        W71403   3.326   7.346  11.084
99089W        W71404  37.995  23.133   0.824
99090W        W71405  20.194  38.565   4.654
99091W        W71406  36.521   7.842   4.171
99092W        W71407  41.312  25.022  13.895
99093W        W71408   2.418  39.336   2.304
99094W        W71409  35.565  17.592   4.779
99095W        W71410   0.440  34.034   4.796
99096W        W71411  25.162   6.414  10.607
99097W        W71412  10.249  40.039  11.949
99098W        W71413   9.153  24.110   3.379
99099W        W71414   5.858  26.006   4.686
99100W        W71415  31.022  26.557  14.428
99101W        W71416  11.718  36.864   0.929
99102W        W71417  34.575   8.299  11.056
99103W        W71418  31.526  38.846   2.407
99104W        W71419  13.260  39.840  13.378
99105W        W71420  43.009   5.922  11.107
99106W        W71421  25.114  22.593  11.909
99107W        W71422   2.423  20.586   3.668
99108W        W71423  42.981  10.673  11.928
99109W        W71424  40.386  25.567   5.658
99110W        W71425  43.450  44.451   0.261
99111W        W71426  21.636   8.680  11.409
99112W        W71427   4.881  10.819  11.967
99113W        W71428  15.149  28.156  10.633
99114W        W71429   1.943  18.791   2.731
99115W        W71430  17.066  43.454  14.762
99116W        W71431  28.678   5.773  13.530
99117W        W71432  37.494   7.825  12.540
99118W        W71433  28.043  28.676  12.069
99119W        W71434  37.388  25.713   4.244
99120W        W71435   8.721  11.242  11.958
99121W        W71436   1.269   0.892   2.704
99122W        W71437  39.969  20.261  12.574
99123W        W71438   0.954  14.659  11.058
99124W        W71439   6.280  16.613  14.338
99125W        W71440  27.162   4.896  10.906
99126W        W71441  22.063  22.191  12.538
99127W        W71442   2.772  34.897  11.095
99128W        W71443   9.161  15.280   4.750
99129W        W71444  38.367  23.501   2.664
99130W        W71445  29.969  34.004  12.921
99131W        W71446  39.046  15.215  12.479
99132W        W71447   5.324  12.773   3.792
99133W        W71448  17.137  18.289   3.693
99134W        W71449  29.439  17.075  12.917
99135W        W71450  38.918  43.934   4.258
99136W        W71451  26.611  32.462  14.993
99137W        W71452   8.161  14.219   0.383
99138W        W71453   7.368  41.356   0.874
99139W        W71454  43.293   7.197  10.073
99140W        W71455  33.560   1.885  14.916
99141W        W71456  26.169  12.800   0.347
99142W        W71457  33.108  32.081  11.879
99143W        W71458  17.664  23.022   3.158
99144W        W71459  44.901   2.957   3.768
99145W        W71460  10.870  40.511   4.162
99146W        W71461  18.597  39.336  12.410
99147W        W71462  40.876  11.308   1.267
99148W        W71463  40.877   5.320  11.454
99149W        W71464   5.746  30.445  11.439
99150W        W71465  31.966  12.139   1.844
99151W        W71466  26.558  20.215   2.718
99152W        W71467  16.263   8.373  11.458
99153W        W71468  37.477  14.193   5.223
99154W        W71469  18.618  24.721   1.811
99155W        W71470  15.324  21.103   0.802
99156W        W71471  23.167  43.852  13.473
99157W        W71472  30.990  10.277  14.920
99158W        W71473  23.520   8.354   1.739
99159W        W71474  34.448  34.392  13.360
99160W        W71475  36.943  39.350  11.962
99161W        W71476  31.612  44.397   3.685
99162W        W71477  40.425   9.652  10.405
99163W        W71478  41.830  40.878  14.362
99164W        W71479  18.234  38.068  11.896
99165W        W71480  11.750  13.187   0.245
99166W        W71481   7.875  31.588  11.078
99167W        W71482  14.129  21.559  10.956
99168W        W71483  32.918  33.997  11.541
99169W        W71484  44.260  30.942   0.810
99170W        W71485  13.156  37.367   3.355
99171W        W71486   7.246   6.360  10.999
99172W        W71487   2.253  37.535  12.374
99173W        W71488  22.047  19.056  14.868
99174W        W71489   4.841  16.180   0.323
99175W        W71490  13.664   7.302   2.387
99176W        W71491   5.240   0.431  13.807
99177W        W71492  42.938  21.595   3.244
99178W        W71493   0.942  15.689   3.164
99179W        W71494  33.011  30.535  11.087
99180W        W71495  22.739  20.060  12.523
99181W        W71496  18.056  11.338   0.350
99182W        W71497  29.929  42.486   0.413
99183W        W71498  17.712  42.874   0.348
99184W        W71499   9.200  15.091  12.550
99185W        W71500  38.399  18.765   3.854
99186W        W71501  31.435  31.456   4.652
99187W        W71502  32.067  38.006   4.802
99188W        W71503  37.984   5.213  13.835
99189W        W71504   1.801   1.808   3.777
99190W        W71505   1.896  36.446  14.008
99191W        W71506  19.743   9.388  13.878
99192W        W71507   2.432  19.203   3.301
99193W        W71508  26.696  26.960  10.528
99194W        W71509  41.504  23.585  10.572
99195W        W71510  20.635   4.239   1.741
99196W        W71511  24.079  24.196  11.948
99197W        W71512  41.995  11.232   0.337
99198W        W71513  40.501   3.749   0.296
99199W        W71514   0.909  22.594  12.433
99200W        W71515  38.965  28.004  11.916
99201W        W71516  11.290  24.150   4.815
99202W        W71517   0.267  44.821  10.582
99203W        W71518  20.043  17.267   1.930
99204W        W71519  17.587   0.859  12.985
99205W        W71520  44.796  14.735   0.878
99206W        W71521  13.817  16.257  13.041
99207W        W71522   1.832  22.123   3.645
99208W        W71523   9.390  27.647  12.380
99209W        W71524   8.682  13.132   3.644
99210W        W71525  32.448  27.123  14.874
99211W        W71526  38.071  13.301  12.921
99212W        W71527  39.873   8.813  13.506
99213W        W71528  38.903  28.589   4.242
99214W        W71529  15.735   6.257   1.790
99215W        W71530  19.052  36.895   2.313
99216W        W71531  32.980   4.438   1.921
99217W        W71532  40.897  43.439   3.218
99218W        W71533  11.725  39.854   4.730
99219W        W71534  20.630   4.234  11.927
99220W        W71535   2.438  38.944  11.599
99221W        W71536   8.333   4.441  14.963
99222W        W71537  13.279  34.027   1.932
99223W        W71538   1.320  23.150  10.496
99224W        W71539  32.981   3.459   3.680
99225W        W71540   2.310  20.044  13.796
99226W        W71541  22.206   4.742  12.389
99227W        W71542   8.278  20.618   0.422
99228W        W71543  39.383   0.803   2.354
99229W        W71544  32.099  32.578  12.940
99230W        W71545  39.557  11.860   0.444
99231W        W71546  37.060  43.933   1.831
99232W        W71547  41.511   6.401   1.407
99233W        W71548   1.263   1.243   3.349
99234W        W71549  35.029  39.877  10.534
99235W        W71550  41.336  37.023  12.850
99236W        W71551  32.396  15.762   2.667
99237W        W71552  38.043  15.719  11.454
99238W        W71553   8.761  28.002   0.482
99239W        W71554  17.611  20.245   3.166
99240W        W71555  34.590  33.936   4.258
99241W        W71556  40.495  21.648  13.334
99242W        W71557  38.876  25.617  14.030
99243W        W71558  25.570  25.017  12.065
99244W        W71559  14.772   7.714  13.843
99245W        W71560   7.183  34.439  14.280
99246W        W71561  23.046  39.813   0.836
99247W        W71562   0.490  11.645   0.806
99248W        W71563  12.154  13.347   2.194
99249W        W71564   9.742  36.986  13.921
99250W        W71565  38.490  43.309   4.185
99251W        W71566   9.222  19.694  11.396
99252W        W71567  28.513  10.310  13.402
99253W        W71568  10.244  42.360   2.804
99254W        W71569   4.414  31.047  12.924
99255W        W71570  42.799  38.547   2.375
99256W        W71571  39.914  14.105  12.849
99257W        W71572  32.604  38.895  12.964
99258W        W71573  34.481  36.085   3.722
99259W        W71574   9.287  28.605  14.312
99260W        W71575  16.256  25.090  12.409
99261W        W71576  30.622  34.596   4.597
99262W        W71577  12.653   7.229  12.842
99263W        W71578  38.369  39.996   0.743
99264W        W71579  29.466  25.182   2.226
99265W        W71580  32.460  10.718   1.402
99266W        W71581  17.777  16.256   0.892
99267W        W71582  20.187  10.646  13.893
99268W        W71583  24.064  22.743  10.480
99269W        W71584  22.569  33.547   0.921
99270W        W71585  10.380  19.079   4.626
99271W        W71586  25.016  42.386   1.281
99272W        W71587  31.642  41.421   0.471
99273W        W71588  27.121  36.356   0.836
99274W        W71589  32.963  20.067  11.865
99275W        W71590  21.742  16.631   0.319
99276W        W71591  42.022  28.619   1.756
99277W        W71592  34.371   8.783  13.962
99278W        W71593  29.523  37.372  13.014
99279W        W71594  20.526  24.026   2.379
99280W        W71595   0.312  40.488   4.706
99281W        W71596  27.677  38.419   0.475
99282W        W71597   1.860  39.834   1.771
99283W        W71598  36.391  40.443   0.326
99284W        W71599  30.429  43.420   4.324
99285W        W71600  39.829  36.477  10.575
99286W        W71601  30.602  21.724  12.532
99287W        W71602   2.899  43.287  10.435
99288W        W71603   1.295   2.326   0.901
99289W        W71604  37.055  15.163   0.877
99290W        W71605  39.831  29.014   4.709
99291W        W71606  35.982  23.676  11.538
99292W        W71607  15.282   5.355  14.944
99293W        W71608  37.355  28.934   3.866
99294W        W71609  21.194   0.862  13.052
99295W        W71610  10.666  12.215  13.401
99296W        W71611   8.830  36.018  14.017
99297W        W71612  29.539  22.038  11.127
99298W        W71613   9.150  35.916  13.030
99299W        W71614   3.330  28.503  13.486
99300W        W71615  25.152   7.871   1.263
99301W        W71616  28.681  11.319  11.045
99302W        W71617  28.039  18.618   3.164
99303W        W71618  12.240  16.285  14.905
99304W        W71619  17.764  25.486   1.304
99305W        W71620  20.220  23.206   3.356
99306W        W71621  26.076  23.541   0.942
99307W        W71622  31.625  35.517  13.995
99308W        W71623  25.518  17.558   2.401
99309W        W71624  21.151  22.201  12.536
99310W        W71625  30.113  26.192   2.311
99311W        W71626  34.447   1.327   4.689
99312W        W71627  41.882   0.921  13.487
99313W        W71628   3.289  34.894  10.548
99314W        W71629  31.118   7.678   3.259
99315W        W71630  13.837   1.421   0.880
99316W        W71631  38.852  14.638   3.209
99317W        W71632  26.048  34.098   1.794
99318W        W71633  18.144  15.103   2.337
99319W        W71634  13.700  31.095  10.987
99320W        W71635  33.558  39.985  11.527
99321W        W71636  32.944   3.920  13.500
99322W        W71637  44.852  10.222  11.563
99323W        W71638   6.741  17.262   1.311
99324W        W71639   9.851  43.816   4.624
99325W        W71640  24.162  32.625  12.017
99326W        W71641  21.163  32.026  11.466
99327W        W71642  44.916  13.186   3.377
99328W        W71643   1.465  21.246   1.819
99329W        W71644  28.110  33.445  10.923
99330W        W71645   5.717  34.463  13.506
99331W        W71646  38.365  44.934   3.809
99332W        W71647  12.162  19.058  13.958
99333W        W71648  12.225  22.678   1.789
99334W        W71649  31.434  42.971   3.319
99335W        W71650  10.672   6.199   4.786
99336W        W71651  23.565  32.957  12.854
99337W        W71652  26.190  42.513  11.441
99338W        W71653  19.640   1.815   3.813
99339W        W71654   2.253  25.130  13.926
99340W        W71655  33.919  17.556   1.903
99341W        W71656  26.692  22.703  12.347
99342W        W71657  44.840   8.791   4.725
99343W        W71658  23.715  27.128   0.819
99344W        W71659  37.463   0.914   0.290
99345W        W71660  18.219  31.468   3.803
99346W        W71661  15.653  25.631   3.778
99347W        W71662  32.934  42.286   2.900
99348W        W71663  36.963  25.991   1.779
99349W        W71664  17.205  30.150  11.598
99350W        W71665  24.080  38.371   0.315
99351W        W71666   0.853  18.200  14.288
99352W        W71667  28.514  37.419  13.314
99353W        W71668  42.498  10.758   0.416
99354W        W71669  13.803  22.514   1.347
99355W        W71670   7.795  33.467  10.069
99356W        W71671   9.669   3.781   0.932
99357W        W71672  42.786  32.948   1.356
99358W        W71673  23.556  37.886  11.092
99359W        W71674  21.136   7.716   1.405
99360W        W71675   3.881  11.321   2.348
99361W        W71676  42.527   6.684  13.486
99362W        W71677  15.630  41.865  14.876
99363W        W71678  24.528  27.135   4.172
99364W        W71679  35.409  12.233  12.992
99365W        W71680  24.549  18.691  11.395
99366W        W71681   7.401  33.415   3.316
99367W        W71682  10.245  17.296   2.417
99368W        W71683   5.415  23.218  11.956
99369W        W71684   7.898  28.501   4.310
99370W        W71685   3.317  28.031  12.521
99371W        W71686  43.310  16.753  10.443
99372W        W71687   0.937  33.941  10.068
99373W        W71688  31.972  33.417  11.076
99374W        W71689  13.238  40.036   1.226
99375W        W71690  40.369  13.288   5.165
99376W        W71691   4.858  36.959  13.338
99377W        W71692   4.371   8.693  12.031
99378W        W71693  34.503  15.775  11.441
99379W        W71694  43.307  40.827   2.707
99380W        W71695  26.507  39.037   5.170
99381W        W71696  39.017   4.861   3.676
99382W        W71697  18.116   8.258   1.723
99383W        W71698   2.911  14.710  10.523
99384W        W71699  24.649  44.003   2.369
99385W        W71700  13.704  44.343  12.055
99386W        W71701  26.581  38.519   1.269
99387W        W71702  30.413  41.468  10.579
99388W        W71703   0.808   7.323  14.841
99389W        W71704  29.468  21.260  13.382
99390W        W71705  10.213  13.112   5.212
99391W        W71706  14.229  29.026  12.939
99392W        W71707  19.677  25.476  11.884
99393W        W71708  43.301  35.448   3.285
99394W        W71709  23.567  14.256  12.468
99395W        W71710   1.969  36.467   0.357
99396W        W71711  32.617  35.096   4.329
99397W        W71712  16.736  25.703   0.278
99398W        W71713  39.965  19.061  10.429
99399W        W71714   1.379  10.221   5.716
99400W        W71715  14.335   7.353   4.785
99401W        W71716  32.392  40.500  12.936
99402W        W71717  38.561  39.056   2.698
99403W        W71718  20.173  41.501   5.131
99404W        W71719  22.112   0.816   4.718
99405W        W71720  20.543  34.578   0.446
99406W        W71721  23.166  30.985   2.732
99407W        W71722   8.868   4.811  14.997
99408W        W71723  33.588  33.380   0.933
99409W        W71724  15.219  25.082  12.976
99410W        W71725  21.262  29.939   4.120
99411W        W71726   6.697  26.623  13.918
99412W        W71727  16.113  13.214   2.744
99413W        W71728  19.634  35.601   3.157
99414W        W71729  38.894  22.155  14.278
99415W        W71730  32.562  31.596  13.864
99416W        W71731   3.418  12.616  14.018
99417W        W71732  27.030  31.068  10.984
99418W        W71733   5.909  39.008  10.442
99419W        W71734  30.655   4.348   2.834
99420W        W71735  19.540  32.012  12.406
99421W        W71736   5.401  29.525  13.998
99422W        W71737  25.185  13.230   1.212
99423W        W71738  15.719  17.134  13.347
99424W        W71739  37.402  38.490   0.827
99425W        W71740  29.634  38.964   1.359
99426W        W71741  24.104  35.110  13.873
99427W        W71742  14.252  15.773  13.856
99428W        W71743   1.466  41.987  11.013
99429W        W71744  31.897  39.990  12.902
99430W        W71745  41.008  34.059   0.855
99431W        W71746  20.257   5.819  14.321
99432W        W71747   3.324  43.377  12.576
99433W        W71748  10.708   5.251  12.027
99434W        W71749  30.574  30.431  12.556
99435W        W71750  44.771  28.087   2.825
99436W        W71751  38.985   6.891  13.368
99437W        W71752  28.000   8.704   1.261
99438W        W71753   6.785  37.079  11.480
99439W        W71754  10.203  25.475  11.373
99440W        W71755  25.212  25.012   3.795
99441W        W71756  35.444  29.521  12.997
99442W        W71757  20.036  17.742  14.363
99443W        W71758  13.226  25.068  14.988
99444W        W71759   2.909  37.960   4.697
99445W        W71760   9.217  14.314   2.410
99446W        W71761  11.790  35.592  13.395
99447W        W71762  33.456  13.614   1.872
99448W        W71763  17.176  33.461  12.844
99449W        W71764  12.131  20.063   1.767
99450W        W71765  26.008  38.448  11.405
99451W        W71766  19.091  36.887  10.464
99452W        W71767  40.829  11.796  14.770
99453W        W71768  39.982   6.891  14.298
99454W        W71769   7.889  11.361  10.575
99455W        W71770  22.547   5.376  13.847
99456W        W71771  15.810  39.835   3.715
99457W        W71772  34.961  11.220   1.730
99458W        W71773  27.540  23.713   0.333
99459W        W71774   4.914  13.319  11.553
99460W        W71775  41.987   1.343  12.530
99461W        W71776  17.213  25.058  10.994
99462W        W71777  34.391  16.317  14.415
99463W        W71778  41.380   8.656  11.919
99464W        W71779  40.008   9.735   1.781
99465W        W71780  23.583  43.292   1.249
99466W        W71781  44.424   6.394  13.473
99467W        W71782   2.764   0.874   4.224
99468W        W71783  41.418   0.471   3.148
99469W        W71784  10.328  26.527  14.938
99470W        W71785   3.257  30.132  14.902
99471W        W71786  24.588  31.403   1.307
99472W        W71787   8.818  22.144   2.792
99473W        W71788  20.049  11.849  13.905
99474W        W71789  16.161  42.489  11.387
99475W        W71790   1.299  44.326   0.913
99476W        W71791  23.167  26.563   3.256
99477W        W71792  29.456  32.127  11.395
99478W        W71793  22.513  21.046  13.868
99479W        W71794  41.971  25.206  11.457
99480W        W71795  11.202   8.820  10.629
99481W        W71796  38.017  12.845   3.375
99482W        W71797  37.940  18.754   4.769
99483W        W71798  28.581   4.811   1.425
99484W        W71799   8.722  35.452  13.051
99485W        W71800  44.841   4.292  11.863
99486W        W71801  13.190  42.501   0.934
99487W        W71802   7.755  33.622   0.274
99488W        W71803  15.201  37.565  13.458
99489W        W71804  27.969   9.731  13.371
99490W        W71805   6.883  31.034  13.916
99491W        W71806  31.455  38.040   1.728
99492W        W71807  10.733   6.832   1.771
99493W        W71808  20.197  16.809  14.929
99494W        W71809  42.989   5.308  12.963
99495W        W71810  35.375  24.068  11.091
99496W        W71811  15.601  22.678   3.346
99497W        W71812  43.282  24.994  11.456
99498W        W71813  18.173  22.590  14.915
99499W        W71814  26.562  31.515  11.927
99500W        W71815   6.287   2.823   0.956
99501W        W71816   9.853  22.251   1.748
99502W        W71817  15.797  16.203   4.153
99503W        W71818  44.776   0.313  12.343
99504W        W71819  42.780  21.513  12.967
99505W        W71820  20.076  42.404   4.117
99506W        W71821  26.504  12.728   2.342
99507W        W71822   4.717   1.291   2.220
99508W        W71823  12.153  13.309  11.411
99509W        W71824  25.967  31.947   4.656
99510W        W71825  29.550  20.192  10.909
99511W        W71826   9.803  33.589   2.208
99512W        W71827   8.369   1.845   2.321
99513W        W71828  43.995  40.868  13.414
99514W        W71829  25.085  18.755   4.801
99515W        W71830  11.721   4.216   2.848
99516W        W71831  19.218  27.684  11.879
99517W        W71832  18.208  14.163   4.177
99518W        W71833  17.251   0.297  10.969
99519W        W71834  11.222  34.543   3.167
99520W        W71835  17.780  19.591   4.229
99521W        W71836  43.865   3.404   0.863
99522W        W71837   8.786  26.460  12.938
99523W        W71838  41.301  18.214  12.007
99524W        W71839  42.317  21.228   4.807
99525W        W71840  33.463  10.732  12.554
99526W        W71841  30.627  28.128   3.764
99527W        W71842  33.549  28.612  14.420
99528W        W71843  41.800  11.750   3.653
99529W        W71844   8.900   6.921  12.048
99530W        W71845  38.901   7.343   1.930
99531W        W71846  28.657   9.875  12.987
99532W        W71847  39.503  17.256  14.320
99533W        W71848  30.920  32.942  12.996
99534W        W71849  30.123  30.456  10.478
99535W        W71850  20.216  10.827   0.455
99536W        W71851  32.628   0.764  12.542
99537W        W71852  41.528  40.317  11.534
99538W        W71853  22.146   0.767  14.771
99539W        W71854  41.023  16.718  11.899
99540W        W71855   7.810  43.292  12.944
99541W        W71856  28.554  30.049  14.413
99542W        W71857   0.465  37.971   3.854
99543W        W71858  43.899  24.679   2.840
99544W        W71859  36.567  27.130   1.697
99545W        W71860  13.270  30.981   2.732
99546W        W71861  20.067   0.747  14.892
99547W        W71862  33.463  22.520   2.279
99548W        W71863  26.141  30.601  10.913
99549W        W71864   6.771   8.264  12.987
99550W        W71865  24.989   4.211   4.336
99551W        W71866   5.271  17.726   1.436
99552W        W71867   7.749   1.327  12.914
99553W        W71868  11.854   7.282   3.215
99554W        W71869   3.871  10.274  13.931
99555W        W71870  44.787  15.229  10.622
99556W        W71871  33.440  28.095   2.202
99557W        W71872   0.949   1.403  13.810
99558W        W71873  35.543  33.996  12.941
99559W        W71874  44.417  27.058  12.046
99560W        W71875  37.915  14.310  12.444
99561W        W71876  23.490  33.061   4.308
99562W        W71877  25.171   7.863   4.122
99563W        W71878   7.210  25.615   1.901
99564W        W71879  39.538  42.326  10.978
99565W        W71880  26.956   9.778  13.410
99566W        W71881  20.048   0.809  11.446
99567W        W71882  19.051  12.626   1.811
99568W        W71883  42.914   0.478   4.171
99569W        W71884  23.537  11.177  13.532
99570W        W71885  39.836  25.207   5.723
99571W        W71886  23.684  35.065  14.481
99572W        W71887   8.239  43.309  10.929
99573W        W71888  41.964  34.033  13.815
99574W        W71889  36.534   9.826   1.248
99575W        W71890  16.260  24.570   4.300
99576W        W71891  19.272  38.488   0.765
99577W        W71892  22.554   5.731   1.906
99578W        W71893  35.068   8.804  12.865
99579W        W71894  24.497  10.244  10.520
99580W        W71895  34.567  34.493  11.468
99581W        W71896   7.798  14.316   0.312
99582W        W71897  42.970  28.173   0.759
99583W        W71898  44.340  29.661   3.823
99584W        W71899  44.436   4.785  13.975
99585W        W71900   4.215  28.525  13.917
99586W        W71901  31.530  15.085   3.716
99587W        W71902   2.314  19.643  13.451
99588W        W71903   6.881  38.409  12.945
99589W        W71904  39.350   2.943   2.227
99590W        W71905  14.237  20.732  13.408
99591W        W71906   6.277   7.873  12.083
99592W        W71907  36.846  24.132  11.081
99593W        W71908  38.554  15.086  13.519
99594W        W71909  13.258  38.923   1.717
99595W        W71910  27.970   8.254   5.192
99596W        W71911   3.451   0.757   3.156
99597W        W71912  42.841  22.503   2.221
99598W        W71913  14.821  19.729   4.821
99599W        W71914  17.233  32.619  13.319
99600W        W71915  36.415  33.887  14.998
99601W        W71916  30.013  29.615  10.925
99602W        W71917  22.594   5.833   2.738
99603W        W71918   2.375  35.449   1.898
99604W        W71919  19.721  20.684   1.781
99605W        W71920  18.269  23.208   3.829
99606W        W71921  24.480   5.741   2.849
99607W        W71922   6.335  37.550  13.463
99608W        W71923  18.556   0.755   2.390
99609W        W71924  26.041  23.536   3.690
99610W        W71925   3.745  43.359   0.860
99611W        W71926   0.827   4.756   2.404
99612W        W71927  38.897  13.331  10.889
99613W        W71928  31.569  29.924  11.107
99614W        W71929  29.602  42.284   2.385
99615W        W71930   8.656   3.772   1.707
99616W        W71931  43.471   2.465  11.046
99617W        W71932  39.509  43.457   3.743
99618W        W71933  19.728  21.520  10.552
99619W        W71934  10.269  19.229   0.953
99620W        W71935  23.528   9.336  11.107
99621W        W71936  25.213  28.126   0.374
99622W        W71937  23.589  22.122  14.288
99623W        W71938   1.879   0.762  12.941
99624W        W71939   7.252  34.607  13.947
99625W        W71940  39.812  35.447  13.009
99626W        W71941   3.735  19.666   5.124
99627W        W71942  38.019  21.610   2.762
99628W        W71943  17.189  30.476  14.840
99629W        W71944  16.631  22.708  14.763
99630W        W71945  16.154   6.384  12.378
99631W        W71946  31.522  13.146  11.564
99632W        W71947  41.962  27.670   0.248
99633W        W71948  19.232  34.564  11.593
99634W        W71949  21.091  42.908  14.936
99635W        W71950   7.745  44.987   1.293
99636W        W71951  17.237   8.659  14.884
99637W        W71952   0.335   0.936  11.868
99638W        W71953   9.802  42.373  13.470
99639W        W71954   9.351  26.636   4.759
99640W        W71955   8.837  42.462   4.707
99641W        W71956   8.332  29.962  12.886
99642W        W71957   5.264  16.315  14.338
99643W        W71958  23.202  31.508  14.906
99644W        W71959  39.848  25.708   0.921
99645W        W71960  20.711   0.289   1.245
99646W        W71961   9.294  20.662   1.412
99647W        W71962  29.655  30.948  10.459
99648W        W71963  18.229  35.972   4.823
99649W        W71964  15.751   2.266  14.936
99650W        W71965  32.101  22.174  10.589
99651W        W71966   8.866  11.239  10.995
99652W        W71967  20.198  14.600   0.762
99653W        W71968  34.488   8.181   4.225
99654W        W71969  24.171  17.274  11.377
99655W        W71970   1.460  22.609  12.912
99656W        W71971  38.912  24.594   0.936
99657W        W71972  26.575  23.147   3.381
99658W        W71973  37.484  39.417  13.008
99659W        W71974   3.409  37.923   4.318
99660W        W71975  35.566  21.238  10.639
99661W        W71976  10.862  40.519  13.034
99662W        W71977  22.007  14.273   1.859
99663W        W71978   4.915   5.856  12.850
99664W        W71979  31.091  34.436  10.626
99665W        W71980  42.374  43.811   0.920
99666W        W71981  29.022   3.364  11.923
99667W        W71982   3.391  23.054  12.360
99668W        W71983  39.498  18.292   4.738
99669W        W71984  41.020  25.630  11.124
99670W        W71985  30.448   7.228  10.895
99671W        W71986  10.174  41.407   3.156
99672W        W71987  37.995  23.588  10.102
99673W        W71988  26.109   8.346   2.859
99674W        W71989  15.632  27.580   0.963
99675W        W71990  38.027  35.580  12.418
99676W        W71991  41.335   4.748  11.399
99677W        W71992   0.473   2.308  12.546
99678W        W71993  12.360  34.024   1.898
99679W        W71994  13.819  22.644  12.354
99680W        W71995  22.592   4.431  11.891
99681W        W71996   4.932  20.145   4.120
99682W        W71997  34.899  42.986  11.000
99683W        W71998  19.128   1.871   4.161
99684W        W71999  20.626  13.710   4.145
99685W        W72000  35.562  30.618  14.812
99686W        W72001  42.994  24.074   4.205
99687W        W72002   4.800  25.628  12.861
99688W        W72003  26.062  43.338   4.601
99689W        W72004  38.547  16.221   3.733
99690W        W72005  20.737  22.036   3.679
99691W        W72006  34.927  44.495  14.839
99692W        W72007  29.530   2.815   1.388
99693W        W72008  34.478  12.673   2.721
99694W        W72009  33.079   0.432   1.854
99695W        W72010  40.797  39.449   3.206
99696W        W72011  40.348  43.006  14.018
99697W        W72012  11.281  13.786  11.082
99698W        W72013  30.048  37.855   4.740
99699W        W72014  21.248   9.821   0.861
99700W        W72015   3.840  32.404   2.768
99701W        W72016  22.217  20.089   2.843
99702W        W72017  41.896   7.379  13.367
99703W        W72018  24.149  29.168  11.979
99704W        W72019  35.072  21.172  10.145
99705W        W72020  28.090  22.568  11.954
99706W        W72021   5.221   0.419  14.842
99707W        W72022   5.309  15.610   4.195
99708W        W72023  36.503   9.168  10.476
99709W        W72024  17.205   5.230  14.308
99710W        W72025  10.371  23.037  12.851
99711W        W72026  33.947   1.312   4.686
99712W        W72027  22.090  33.563   0.474
99713W        W72028   5.229  24.058  11.105
99714W        W72029   4.860   5.407   3.843
99715W        W72030  15.211  15.304  12.550
99716W        W72031  37.458  35.509   4.633
99717W        W72032  40.943  22.154  10.927
99718W        W72033  10.660  12.696  12.878
99719W        W72034  32.964  25.646  13.908
99720W        W72035  31.512   9.248   0.365
99721W        W72036  23.533  33.998   2.218
99722W        W72037  17.681   4.836  11.579
99723W        W72038  21.204   7.773  11.091
99724W        W72039  41.827  31.620  11.859
99725W        W72040   5.775  29.138   3.752
99726W        W72041  15.738  17.776   4.738
99727W        W72042  29.502   2.886  14.965
99728W        W72043   8.405  23.192   4.301
99729W        W72044   8.344   9.866   3.205
99730W        W72045   1.959  26.046   1.740
99731W        W72046  12.145  38.411  11.057
99732W        W72047  24.177  39.542  10.472
99733W        W72048  40.527  39.396   3.645
99734W        W72049  26.149  35.466  10.503
99735W        W72050  44.280  10.222   1.893
99736W        W72051   2.773   0.389  11.005
99737W        W72052   3.870   8.696   4.780
99738W        W72053  13.630  39.395  12.431
99739W        W72054  13.774   9.284  13.347
99740W        W72055  19.752  33.619  10.988
99741W        W72056  33.953  43.409   2.286
99742W        W72057  43.889  38.046   0.860
99743W        W72058  39.559   9.854  14.020
99744W        W72059   8.794   3.952  13.319
99745W        W72060  30.421  25.676   3.651
99746W        W72061  31.098   8.268   4.781
99747W        W72062  34.088  15.124  11.947
99748W        W72063  16.721   9.823   2.228
99749W        W72064  15.814  44.282  12.580
99750W        W72065   9.666  38.907  14.776
99751W        W72066   3.289  34.553  14.979
99752W        W72067  35.501  23.993   2.211
99753W        W72068  20.043  11.667  13.406
99754W        W72069  42.512  18.093   4.722
99755W        W72070  31.418  19.255  12.951
99756W        W72071   4.794  10.737   4.225
99757W        W72072  32.566  38.511   3.238
99758W        W72073  37.940  39.333   1.384
99759W        W72074  10.836  34.396   3.764
99760W        W72075  38.398  39.971  11.486
99761W        W72076  19.083  16.086   2.751
99762W        W72077  32.444   1.804   1.434
99763W        W72078  31.996  37.534  13.897
99764W        W72079  10.312  12.282   1.755
99765W        W72080   9.219  12.190  12.511
99766W        W72081   7.874  36.959  12.824
99767W        W72082  27.144  16.287  12.982
99768W        W72083  38.550  39.966   1.810
99769W        W72084   0.913  11.130   0.815
99770W        W72085  34.091  24.209  10.974
99771W        W72086  12.332  20.029  10.642
99772W        W72087   5.877  37.511   3.674
99773W        W72088   8.332  16.637  14.801
99774W        W72089  35.481   5.860  12.345
99775W        W72090  17.708  18.715  13.314
99776W        W72091  20.741  41.414  12.895
99777W        W72092  40.017  18.067   1.324
99778W        W72093  40.840   5.725  11.070
99779W        W72094  39.427  38.893  14.935
99780W        W72095  32.970  18.778  14.861
99781W        W72096  33.583  24.687  11.582
99782W        W72097   3.367  17.241  11.960
99783W        W72098  42.473  29.591   2.703
99784W        W72099  39.903  22.704   4.828
99785W        W72100  35.410  28.170  12.032
99786W        W72101  10.359  32.588   4.333
99787W        W72102  17.153   1.276   1.416
99788W        W72103  24.650   1.270   0.261
99789W        W72104  39.389  31.518  13.458
99790W        W72105  20.246  39.971   1.925
99791W        W72106  26.492  27.504  11.076
99792W        W72107  20.692  16.590  13.923
99793W        W72108   5.359  32.436   3.632
99794W        W72109  20.107  20.648   4.287
99795W        W72110  36.557  33.469  10.111
99796W        W72111  19.260  16.241  11.108
99797W        W72112  10.321   1.758   0.959
99798W        W72113  42.028  22.114  13.497
99799W        W72114  23.710  40.955   1.307
99800W        W72115  38.955  35.453  14.430
99801W        W72116  44.770   6.325   3.237
99802W        W72117  36.498  14.186   2.249
99803W        W72118  18.612  26.577  13.872
99804W        W72119  37.518  19.263  12.929
99805W        W72120  33.953  36.489  12.413
99806W        W72121  13.217   8.205   1.389
99807W        W72122  30.025   9.658  13.852
99808W        W72123  20.754  12.662  11.924
99809W        W72124  33.606  35.907  11.966
99810W        W72125  15.819  35.565  11.973
99811W        W72126  35.084   6.234  13.058
99812W        W72127  23.203  44.798  11.597
99813W        W72128  17.572  14.775  14.782
99814W        W72129  24.702   2.840  10.469
99815W        W72130   2.334  17.204   3.231
99816W        W72131   8.250  30.466   1.353
99817W        W72132  20.251   5.818   3.827
99818W        W72133  25.492   1.732  11.966
99819W        W72134   4.344  20.118  11.583
99820W        W72135   9.322  22.715   0.459
99821W        W72136   9.752  37.981  13.867
99822W        W72137  11.331  25.191  13.009
99823W        W72138   9.242   9.864  13.833
99824W        W72139  25.102  35.913  11.998
99825W        W72140  35.858   5.237   1.407
99826W        W72141  22.250  18.637   2.739
99827W        W72142   5.262   6.279   0.761
99828W        W72143  43.947  40.947  13.974
99829W        W72144   2.810   9.723  10.553
99830W        W72145  42.887   3.710  12.490
99831W        W72146  19.667  10.816  13.546
99832W        W72147  42.832   2.443  11.041
99833W        W72148  15.814  28.612   4.265
99834W        W72149  37.519  28.100   4.833
99835W        W72150   1.265  24.646  12.856
99836W        W72151   4.282  44.430   2.191
99837W        W72152  42.312  37.939  12.843
99838W        W72153  10.678   7.367   4.208
99839W        W72154  20.237  25.155  12.539
99840W        W72155  13.227  13.710  10.573
99841W        W72156  14.710  28.633  11.907
99842W        W72157   8.662  35.071   4.726
99843W        W72158   3.793  44.875  13.949
99844W        W72159  14.692  34.535  14.344
99845W        W72160  28.182  22.246  14.286
99846W        W72161  42.479   4.295   2.781
99847W        W72162  32.091   2.454  13.887
99848W        W72163  33.981  44.912   0.793
99849W        W72164  44.454  16.152   0.458
99850W        W72165  17.281  31.129   9.958
99851W        W72166  23.160  42.891   1.370
99852W        W72167  41.374  32.133  12.921
99853W        W72168  11.151  43.013   2.310
99854W        W72169  27.172   6.700  12.551
99855W        W72170  27.663  30.055  11.510
99856W        W72171   9.790  19.216   9.494
99857W        W72172  27.603  35.022   2.826
99858W        W72173  16.753  26.976   2.783
99859W        W72174  42.974   1.338  14.450
99860W        W72175   0.969   6.895  14.275
99861W        W72176  40.838  21.679  12.829
99862W        W72177  38.542  33.952  14.901
99863W        W72178  29.617  23.984  10.416
99864W        W72179  44.845  40.382   4.835
99865W        W72180  21.747  26.642   1.352
99866W        W72181  18.774  23.695  10.418
99867W        W72182  35.900   1.966  10.496
99868W        W72183   2.760  37.479  13.042
99869W        W72184  37.071   0.294   2.404
99870W        W72185   5.381  25.046  14.452
99871W        W72186   7.868  40.325  11.100
99872W        W72187  43.469   0.452   3.823
99873W        W72188   0.840  10.856  12.973
99874W        W72189  14.771  16.197  12.396
99875W        W72190  32.527  15.189   3.172
99876W        W72191  17.707  16.094  11.412
99877W        W72192   1.290   3.809  12.014
99878W        W72193  15.301  12.699   1.335
99879W        W72194  20.088  35.056  11.017
99880W        W72195  22.729  22.032  14.939
99881W        W72196  17.123  27.144   3.337
99882W        W72197  31.982   5.815  14.786
99883W        W72198  18.608  19.251  12.922
99884W        W72199  41.511  44.753   3.152
99885W        W72200  41.396  27.672  14.341
99886W        W72201  41.853  32.982  10.916
99887W        W72202   9.389  28.082   0.264
99888W        W72203  38.884  10.201  12.390
99889W        W72204  40.991  21.609   1.265
99890W        W72205  11.638  12.620  10.459
99891W        W72206  27.669  39.346  11.026
99892W        W72207  16.092  11.308  12.354
99893W        W72208   8.365  13.282  12.344
99894W        W72209  38.326   6.810   2.682
99895W        W72210   4.410  20.047   4.333
99896W        W72211  17.113  33.078  13.854
99897W        W72212  37.442  36.088   4.686
99898W        W72213  30.483   8.172   4.228
99899W        W72214  42.357  29.624   0.470
99900W        W72215  31.539  40.313  12.950
99901W        W72216  33.384   0.410   1.897
99902W        W72217  15.690  41.845   1.909
99903W        W72218  35.024  18.739  10.615
99904W        W72219   9.382  30.505  14.485
99905W        W72220  42.503  14.693   1.814
99906W        W72221  17.626   6.712   3.166
99907W        W72222  41.361  24.999  11.875
99908W        W72223  42.510   7.385   1.319
99909W        W72224  16.289  19.661   0.780
99910W        W72225   5.691  38.924   0.923
99911W        W72226   2.416  42.330  12.463
99912W        W72227  22.599  44.761  13.034
99913W        W72228  27.158  26.016  11.047
99914W        W72229   0.338  22.190  14.425
99915W        W72230  15.619  18.700   4.169
99916W        W72231  28.039  20.621   2.856
99917W        W72232  13.783  34.100  11.375
99918W        W72233  33.958  21.730  14.334
99919W        W72234  33.431  40.840   4.835
99920W        W72235  16.719  28.102   2.902
99921W        W72236  11.341   2.254   2.296
99922W        W72237  27.619   3.355  11.037
99923W        W72238  17.572  11.847  12.378
99924W        W72239   1.937  19.600  14.435
99925W        W72240  30.644  23.214  14.869
99926W        W72241  13.726  36.882   1.855
99927W        W72242  18.188  40.978  13.954
99928W        W72243   2.429  29.643  11.098
99929W        W72244  17.164  19.043  11.482
99930W        W72245  32.575  41.969  12.034
99931W        W72246  31.920  19.279  12.877
99932W        W72247  30.975  18.261  12.063
99933W        W72248  43.851   1.818   4.197
99934W        W72249   3.440  40.478   0.253
99935W        W72250   0.445  33.922  11.941
99936W        W72251  40.358  15.093  13.336
99937W        W72252   2.330  17.676   1.313
99938W        W72253  29.048  38.558  10.430
99939W        W72254  24.722  16.210   3.150
99940W        W72255  17.170  12.124   0.745
99941W        W72256  22.526  19.705   0.811
99942W        W72257  18.751  33.548  11.371
99943W        W72258   6.744  13.671   4.661
99944W        W72259   4.226  15.223  10.542
99945W        W72260   0.884  17.717  14.446
99946W        W72261  20.160  16.306  13.964
99947W        W72262  24.495  36.580  13.373
99948W        W72263   2.844  43.963  12.031
99949W        W72264  27.668  37.480   4.658
99950W        W72265  24.101  21.018  11.001
99951W        W72266   7.894  44.959  14.905
99952W        W72267  36.400  16.607  14.942
99953W        W72268  30.086   0.886   3.240
99954W        W72269   5.893  36.884   1.870
99955W        W72270  29.971  20.721   2.677
99956W        W72271  19.533  31.092   4.140
99957W        W72272   3.440  39.918  11.436
99958W        W72273   9.354  16.191  13.311
99959W        W72274  17.635  27.145   3.690
99960W        W72275  38.428  13.684  11.390
99961W        W72276  23.145  24.719   1.316
99962W        W72277  40.955   2.246   3.810
99963W        W72278  32.477  41.883   2.417
99964W        W72279  12.184  14.698  11.917
99965W        W72280  33.573  29.931   3.868
99966W        W72281  42.473  35.551   3.285
99967W        W72282  25.590  38.918  14.849
99968W        W72283   7.248   8.722  10.942
99969W        W72284  20.746  42.963  14.826
99970W        W72285   7.234   3.874  12.486
99971W        W72286  28.938  35.898  14.373
99972W        W72287  28.161   6.805   2.773
99973W        W72288  31.523   0.459  14.813
99974W        W72289  34.418  23.579   3.314
99975W        W72290  18.150  12.685   4.793
99976W        W72291   0.405  12.798   9.461
99977W        W72292  30.578   5.866   0.378
99978W        W72293  44.829  11.816   9.549
99979W        W72294  24.147  41.406  11.975
99980W        W72295  14.614  38.021  12.569
99981W        W72296  18.648  34.968   5.278
99982W        W72297  37.962   3.945  13.485
99983W        W72298  41.520   2.394  14.372
99984W        W72299  21.094  17.703  14.516
99985W        W72300  22.598  24.595   3.275
99986W        W72301  17.707  23.013   1.724
99987W        W72302  40.888   3.255   1.301
99988W        W72303  24.623  14.248   0.363
99989W        W72304  34.103  29.620  12.995
99990W        W72305  13.647  29.062  12.468
99991W        W72306  33.074   6.875  11.881
99992W        W72307   5.756  30.085  12.454
99993W        W72308  42.828  11.164  12.415
99994W        W72309  10.767   6.276   3.349
99995W        W72310   1.247  42.783  11.085
99996W        W72311   1.460  25.014   0.257
99997W        W72312  13.784   5.425  14.466
99998W        W72313  29.427  33.388  10.505
99999W        W72314  18.673  30.979  14.870
    0W        W72315  41.364  33.980   0.336
    1W        W72316  44.936  32.480  11.985
    2W        W72317  34.472  28.007  11.989
    3W        W72318   2.433   1.764   5.108
    4W        W72319  11.315  41.877   1.406
    5W        W72320  39.826  39.960   0.967
    6W        W72321  30.643  26.504   0.437
    7W        W72322   7.182  23.555  10.440
    8W        W72323   4.444  33.396   4.344
    9W        W72324  23.539  16.647   2.318
   10W        W72325  30.652  21.646  10.591
   11W        W72326  34.909  18.053  12.451
   12W        W72327  33.886  11.224  11.409
   13W        W72328  26.480  43.385  13.987
   14W        W72329  25.133   5.411  11.514
   15W        W72330  16.679  11.716  13.522
   16W        W72331  14.710   2.381  13.540
   17W        W72332  17.729  15.608  14.475
   18W        W72333   5.319  27.518  12.552
   19W        W72334  44.866  22.139   4.208
   20W        W72335  29.123  36.948  11.474
   21W        W72336   6.850  25.033   1.319
   22W        W72337  27.156   8.856  12.537
   23W        W72338  11.866  43.982   3.821
   24W        W72339   8.353  32.402  14.941
   25W        W72340   4.217  38.377  12.944
   26W        W72341  32.610  41.449  12.521
   27W        W72342  41.820  23.635   4.726
   28W        W72343   5.407   8.184  11.528
   29W        W72344  16.592   7.217   0.382
   30W        W72345  18.762   6.367   5.145
   31W        W72346  29.113  22.241  12.395
   32W        W72347  20.643  41.354  12.434
   33W        W72348  25.077  21.196   3.802
   34W        W72349  21.679  39.881   3.295
   35W        W72350  16.800  10.316   0.289
   36W        W72351  12.320   9.819   2.811
   37W        W72352  37.364  34.387  11.552
   38W        W72353   5.316  21.179  14.804
   39W        W72354  34.059  18.255   2.820
   40W        W72355  28.169  13.163  11.885
   41W        W72356  10.861  20.567  14.908
   42W        W72357  31.140  34.898   4.145
   43W        W72358   4.268   9.385  13.938
   44W        W72359  36.544   3.325  12.367
   45W        W72360  13.274   6.863   3.641
   46W        W72361  35.483  28.496   2.871
   47W        W72362  44.808  33.086  13.803
   48W        W72363  41.294  14.761   4.661
   49W        W72364  13.261   6.285   1.880
   50W        W72365  41.382  35.070  10.933
   51W        W72366  27.091   7.174   9.997
   52W        W72367   5.222  32.566  11.122
   53W        W72368  29.149   3.260   1.216
   54W        W72369   4.270  12.857   2.663
   55W        W72370  10.316   5.303   4.260
   56W        W72371  29.660  39.521   2.769
   57W        W72372   4.896  18.778  14.930
   58W        W72373  16.290  34.951  11.884
   59W        W72374  26.200  31.581  13.387
   60W        W72375   3.310  14.802   0.271
   61W        W72376  44.334  43.766  14.486
   62W        W72377  25.212  36.065  14.017
   63W        W72378  22.177  21.661  13.386
   64W        W72379  21.645  13.278   3.866
   65W        W72380  34.961  38.894   1.767
   66W        W72381  11.664   2.269  10.412
   67W        W72382   7.749  38.950  12.448
   68W        W72383  14.701  34.422   3.228
   69W        W72384  37.413  14.647   2.833
   70W        W72385  29.148  24.494   2.405
   71W        W72386  22.018   2.338  12.888
   72W        W72387  29.928  16.590   2.283
   73W        W72388   1.391  14.276  14.905
   74W        W72389   3.710  31.105  14.023
   75W        W72390  21.188  32.570  11.012
   76W        W72391  14.272  25.180  13.979
   77W        W72392  44.432  14.269   4.686
   78W        W72393   4.297  30.978  10.443
   79W        W72394  14.590  14.155  11.952
   80W        W72395   4.887  37.457   1.694
   81W        W72396  43.515  35.868   5.310
   82W        W72397  24.652   5.707  11.889
   83W        W72398   9.359  36.892  14.022
   84W        W72399   3.849  16.774  12.548
   85W        W72400   2.380  42.954   4.659
   86W        W72401  23.698  36.998   2.886
   87W        W72402  41.459  17.562   1.431
   88W        W72403  42.820  31.491   2.342
   89W        W72404  29.666  11.696  14.859
   90W        W72405  32.626  11.867  10.151
   91W        W72406   8.165  10.166  13.505
   92W        W72407   4.751   1.968   3.806
   93W        W72408  27.552  19.283  13.445
   94W        W72409  28.575  39.018  13.046
   95W        W72410   8.674  17.678   2.385
   96W        W72411   8.704  21.248  13.437
   97W        W72412  11.829  37.344   5.276
   98W        W72413  16.156   0.852  10.614
   99W        W72414  14.146  42.970   0.242
  100W        W72415  43.009  10.158   3.788
  101W        W72416  13.780  25.714   1.409
  102W        W72417  17.639  34.464   3.692
  103W        W72418   6.764  36.453   4.725
  104W        W72419  14.314  12.662   1.309
  105W        W72420  17.725  13.712  14.912
  106W        W72421  14.616   4.204  12.570
  107W        W72422  38.568  30.091  11.603
  108W        W72423   4.265  12.745   3.832
  109W        W72424  40.892  37.000   1.797
  110W        W72425  36.533  19.281  12.086
  111W        W72426  23.071  30.486  14.415
  112W        W72427  36.569   8.319   2.760
  113W        W72428  26.055  44.789   2.821
  114W        W72429  13.191  35.981   1.935
  115W        W72430  14.827  31.135  12.021
  116W        W72431   2.424  35.900   2.722
  117W        W72432  29.525  38.847   1.916
  118W        W72433  27.162  44.265  13.909
  119W        W72434  43.326  11.363  11.040
  120W        W72435  18.570   2.873   1.864
  121W        W72436  42.438  19.540   3.271
  122W        W72437   9.686   9.318  11.494
  123W        W72438   2.951   8.686   1.897
  124W        W72439   8.807  35.868   3.869
  125W        W72440  33.008  22.243   1.853
  126W        W72441  28.547  11.861   3.637
  127W        W72442  24.614  25.663   1.935
  128W        W72443  12.624  16.570   5.785
  129W        W72444   4.434  31.408  12.981
  130W        W72445   9.388  41.292   1.810
  131W        W72446  37.520  26.064   4.247
  132W        W72447  40.372   0.903  13.029
  133W        W72448  27.628  44.840  11.589
  134W        W72449   0.314   2.949   4.228
  135W        W72450  16.273   8.352  12.082
  136W        W72451  12.729  11.711   1.801
  137W        W72452  24.042  40.963  10.938
  138W        W72453  24.574   9.699   0.889
  139W        W72454  23.201  43.967  10.471
  140W        W72455   3.793   3.336  10.458
  141W        W72456   5.720  44.355   0.334
  142W        W72457  13.347  41.894   2.418
  143W        W72458  23.051  16.589  14.437
  144W        W72459  34.880  24.714  13.020
  145W        W72460  26.052  15.273   4.650
  146W        W72461  39.435  14.278   2.417
  147W        W72462  14.699   1.437  11.386
  148W        W72463  31.122  24.051   3.198
  149W        W72464  21.196  12.725  12.366
  150W        W72465  15.626  11.788  10.622
  151W        W72466  12.128   1.239   1.908
  152W        W72467  22.045  34.947  12.068
  153W        W72468  16.253  10.724   0.258
  154W        W72469  21.257  14.710   0.903
  155W        W72470   1.381  19.703   0.930
  156W        W72471  30.647  43.808  14.855
  157W        W72472  25.158  31.542   1.728
  158W        W72473  41.357  35.578  12.429
  159W        W72474  23.180  23.110   2.801
  160W        W72475  40.827   8.401   4.681
  161W        W72476  39.993   8.199   4.656
  162W        W72477   6.358  26.549  14.000
  163W        W72478  17.072  40.989  13.536
  164W        W72479   2.258  25.568  10.631
  165W        W72480  34.901  31.914   1.373
  166W        W72481   0.447  40.354  10.972
  167W        W72482   8.342  37.370   4.350
  168W        W72483   8.718  42.309  12.847
  169W        W72484   4.249  35.997   4.306
  170W        W72485  43.353  10.300  11.485
  171W        W72486   6.910  26.043  10.469
  172W        W72487  24.047  34.074  14.467
  173W        W72488  42.302  22.678   2.831
  174W        W72489  34.968   2.912   3.300
  175W        W72490  13.691  31.974   1.336
  176W        W72491  24.589  18.706   4.191
  177W        W72492  24.201  39.534   2.839
  178W        W72493  42.486  41.436   4.727
  179W        W72494  40.003  22.177  11.482
  180W        W72495   7.890   4.900   3.381
  181W        W72496   7.667  27.022  13.946
  182W        W72497  17.216  26.987   3.752
  183W        W72498  42.438  37.970   0.371
  184W        W72499  22.220  39.903   0.941
  185W        W72500   4.259  36.590   2.298
  186W        W72501   1.461  16.652  10.518
  187W        W72502  13.316   8.202   0.481
  188W        W72503   6.830  11.256   1.932
  189W        W72504  33.126  22.116  10.923
  190W        W72505  15.109   2.465   2.893
  191W        W72506  16.264  32.092   4.736
  192W        W72507   3.407  39.449  10.618
  193W        W72508  14.819   4.306   0.883
  194W        W72509  30.508  17.155   4.223
  195W        W72510  40.890  18.620   2.256
  196W        W72511  13.692   0.833  10.975
  197W        W72512  44.986   5.347   0.461
  198W        W72513  27.092  37.961  13.454
  199W        W72514  40.316  40.999   0.935
  200W        W72515  40.490   5.908  14.323
  201W        W72516  16.201  11.655   0.406
  202W        W72517  35.366   4.347   1.742
  203W        W72518  38.044   9.846   4.211
  204W        W72519  19.278   7.222   0.482
  205W        W72520  18.719  15.103  12.526
  206W        W72521  25.530  35.583   1.712
  207W        W72522  44.308   1.250  13.941
  208W        W72523  35.583  14.828  12.931
  209W        W72524  26.134  36.479  12.509
  210W        W72525  31.473  15.090  13.361
  211W        W72526  27.557   6.901  13.958
  212W        W72527  36.488  43.840   2.292
  213W        W72528   7.800  30.489  13.308
  214W        W72529  42.339  34.073   3.867
  215W        W72530   3.399  25.703  13.502
  216W        W72531  27.099  36.405   1.730
  217W        W72532  32.018  20.209   0.439
  218W        W72533  27.683  31.040  13.318
  219W        W72534  42.405  22.742  13.541
  220W        W72535   3.913  41.978   0.301
  221W        W72536  22.682  14.109  12.031
  222W        W72537  16.735  27.122  11.867
  223W        W72538  35.363  44.469  11.882
  224W        W72539  44.946  22.631  12.440
  225W        W72540  21.033  18.286  11.988
  226W        W72541   8.188  42.390  11.097
  227W        W72542  39.961  28.514  10.998
  228W        W72543  37.955  11.631   0.870
  229W        W72544  22.116  20.528  10.423
  230W        W72545  37.516  37.047   3.198
  231W        W72546  37.412  19.724  12.004
  232W        W72547  11.336  33.545  12.524
  233W        W72548  32.973  14.768  13.986
  234W        W72549  25.009   2.456   3.252
  235W        W72550  42.445  41.347  13.792
  236W        W72551   1.801   7.220  13.010
  237W        W72552  41.324   4.761  10.999
  238W        W72553  31.060  30.149   2.685
  239W        W72554  34.591  21.723  13.024
  240W        W72555  34.442  35.582  12.043
  241W        W72556  44.317   1.736  13.898
  242W        W72557  27.649  12.136  11.017
  243W        W72558   9.273  34.107   4.236
  244W        W72559  18.651  32.522  14.830
  245W        W72560   0.919  22.246   4.301
  246W        W72561  31.529   5.933  11.455
  247W        W72562   4.229   5.807   3.225
  248W        W72563  32.422  21.588  12.465
  249W        W72564   0.479  24.689  14.849
  250W        W72565  37.502   7.724  14.510
  251W        W72566   0.335  36.964  14.815
  252W        W72567  32.005  33.927  14.386
  253W        W72568  41.293  39.055  14.781
  254W        W72569  16.653   5.364  12.967
  255W        W72570  10.663  18.213   1.787
  256W        W72571  16.767  10.654   3.254
  257W        W72572  24.053  21.587   4.220
  258W        W72573  29.137   0.834  11.058
  259W        W72574  25.095  31.639  13.383
  260W        W72575  39.541  17.795  13.884
  261W        W72576  26.602   4.268   4.305
  262W        W72577  21.222  27.479   2.765
  263W        W72578  30.429   5.726   0.965
  264W        W72579   2.456   7.851   3.338
  265W        W72580   8.871  16.782  13.800
  266W        W72581  11.728  19.589   1.231
  267W        W72582   6.829  24.168  10.578
  268W        W72583  33.893  12.266   1.299
  269W        W72584  32.423  35.445  11.517
  270W        W72585  28.952  18.058  13.916
  271W        W72586  11.128  10.667  10.497
  272W        W72587  38.352  25.505  12.023
  273W        W72588  35.596  37.873  12.843
  274W        W72589   7.369   0.436   3.789
  275W        W72590   2.454  18.723   4.344
  276W        W72591  27.624   0.325  14.023
  277W        W72592  11.825  43.928  11.453
  278W        W72593  44.942  32.477   2.692
  279W        W72594  39.508  41.830   4.217
  280W        W72595   7.264  35.966  10.588
  281W        W72596   9.717  14.728   3.368
  282W        W72597  36.462  39.048   1.340
  283W        W72598  14.809  29.608  10.478
  284W        W72599  19.251  23.222   1.807
  285W        W72600  31.497   3.946   3.763
  286W        W72601   3.865  23.727   2.214
  287W        W72602  35.991   6.186  14.020
  288W        W72603   5.742   7.249   1.762
  289W        W72604  23.496  29.988  11.072
  290W        W72605  29.040  40.973  11.903
  291W        W72606   7.759  39.922  10.942
  292W        W72607  10.854  42.419   1.225
  293W        W72608   8.197  21.712  10.542
  294W        W72609   9.351  24.018   0.446
  295W        W72610  31.475  19.220  14.876
  296W        W72611  38.940  28.660   5.301
  297W        W72612   6.325  21.525   1.248
  298W        W72613  42.514  10.822  12.471
  299W        W72614   3.800   3.414   4.829
  300W        W72615  33.600   4.738   1.384
  301W        W72616  33.623  24.561  13.538
  302W        W72617  24.565  13.793   3.711
  303W        W72618   0.338   6.231  13.797
  304W        W72619  30.443  31.103   4.781
  305W        W72620  10.350  31.429  10.589
  306W        W72621   7.716  24.014  10.956
  307W        W72622   0.918  31.025  11.559
  308W        W72623  25.138  21.739   4.735
  309W        W72624  27.645  37.428   3.262
  310W        W72625  21.747   1.802   3.757
  311W        W72626  40.032  11.861  11.088
  312W        W72627  43.865   9.862  14.894
  313W        W72628  36.481   6.220   0.840
  314W        W72629   2.856  17.689   2.199
  315W        W72630  37.438  17.070   1.810
  316W        W72631  36.397  18.558   3.335
  317W        W72632  25.644  34.465  13.412
  318W        W72633  39.328  37.556  11.011
  319W        W72634   8.824  15.652   3.237
  320W        W72635   0.353   7.339   1.369
  321W        W72636  43.855  25.180   2.896
  322W        W72637  23.221  18.676  13.445
  323W        W72638  13.279  44.876   0.453
  324W        W72639  34.471  39.383   4.604
  325W        W72640   4.776   8.206   2.208
  326W        W72641  24.122  42.980   3.243
  327W        W72642  27.624  38.069  14.840
  328W        W72643  39.010  16.636   0.380
  329W        W72644   4.411  30.954  14.963
  330W        W72645  44.259  38.008   2.190
  331W        W72646  30.630  44.753   0.892
  332W        W72647   6.845  14.670  13.058
  333W        W72648  28.172  36.982   3.338
  334W        W72649   4.391  37.432  14.777
  335W        W72650  37.404  16.599  14.906
  336W        W72651  32.993  37.475  11.608
  337W        W72652   4.817  44.428  14.031
  338W        W72653   4.753  44.309  12.852
  339W        W72654  11.329  24.977   3.370
  340W        W72655  18.693  22.008   1.840
  341W        W72656  19.628  14.589   1.879
  342W        W72657  17.072  25.062   2.363
  343W        W72658  20.040  21.567  13.531
  344W        W72659  35.020  10.291  11.067
  345W        W72660  38.865  30.080  12.450
  346W        W72661  25.967  36.582   1.856
  347W        W72662  16.152  29.124  14.476
  348W        W72663  42.867   8.890   3.814
  349W        W72664  29.646  24.035  12.381
  350W        W72665  29.022  12.778   0.744
  351W        W72666  39.843  27.997   0.739
  352W        W72667  30.153  35.053  13.351
  353W        W72668   7.415  28.967   3.765
  354W        W72669  17.730  14.268   2.348
  355W        W72670   7.882   8.821  13.970
  356W        W72671   3.335  43.869  10.481
  357W        W72672  14.708  37.563  13.935
  358W        W72673  33.548  12.322  14.003
  359W        W72674   7.910  27.667   4.240
  360W        W72675  40.546  23.605  12.079
  361W        W72676  23.210  23.122  11.385
  362W        W72677  18.724  44.440  13.817
  363W        W72678  38.410  34.566   1.844
  364W        W72679  35.923   7.239   3.236
  365W        W72680  21.017  43.017   4.813
  366W        W72681  34.953  42.809   4.348
  367W        W72682  17.062   2.371   2.375
  368W        W72683   4.224  31.638   1.328
  369W        W72684   2.923  35.882   2.706
  370W        W72685  25.074  15.235   0.767
  371W        W72686   3.915   0.888   0.751
  372W        W72687  41.938  12.715   3.273
  373W        W72688   5.319  22.202   0.420
  374W        W72689  24.141   3.935   2.280
  375W        W72690  34.870   2.393   2.784
  376W        W72691  34.533  30.116  13.040
  377W        W72692  35.600  26.966  12.869
  378W        W72693  15.709  16.259  13.854
  379W        W72694   4.705   1.426  14.948
  380W        W72695  26.579  25.470   2.890
  381W        W72696  42.396  26.681  14.311
  382W        W72697  37.386   5.923   1.918
  383W        W72698  33.575  14.184  14.770
  384W        W72699  24.647  18.177   1.788
  385W        W72700  41.365  31.446  14.997
  386W        W72701   1.789  12.798   0.789
  387W        W72702  18.127  33.129   0.940
  388W        W72703  17.643  40.865  12.878
  389W        W72704  28.640  12.336   2.679
  390W        W72705   1.860  37.431  11.475
  391W        W72706  11.218  33.593   1.251
  392W        W72707  40.333  43.810  10.419
  393W        W72708  31.914  21.112   4.253
  394W        W72709  40.913  17.102   3.870
  395W        W72710  14.735  23.015  12.020
  396W        W72711   2.728  16.223  10.887
  397W        W72712  18.133   6.184  13.513
  398W        W72713  42.955  16.265  12.022
  399W        W72714  27.979  23.634  10.052
  400W        W72715  35.452  42.831  12.509
  401W        W72716  21.107  41.850  13.860
  402W        W72717  22.246  37.936  11.868
  403W        W72718  17.134  21.104   1.444
  404W        W72719  29.595  18.751  11.405
  405W        W72720  14.142  29.966  13.360
  406W        W72721  28.972  24.597  11.913
  407W        W72722  11.718  11.635  12.538
  408W        W72723  21.594  12.690   0.762
  409W        W72724  29.471   7.399   1.288
  410W        W72725  39.840  24.489  10.917
  411W        W72726  21.517  23.133   2.871
  412W        W72727  43.006  38.417  14.782
  413W        W72728  11.181   4.372  12.043
  414W        W72729  36.024   8.750  14.994
  415W        W72730  14.100   0.323  14.335
  416W        W72731   8.394  16.571   2.785
  417W        W72732   5.752  14.695  14.388
  418W        W72733   2.344  31.495  11.461
  419W        W72734   6.917  10.263   1.925
  420W        W72735   5.932  44.002   1.781
  421W        W72736  27.081  17.642  12.392
  422W        W72737  13.821  12.618   2.866
  423W        W72738  15.257   9.703  11.098
  424W        W72739  29.986  32.930  11.126
  425W        W72740   0.906  30.021   1.332
  426W        W72741  41.439   6.411   0.456
  427W        W72742  16.232  43.901  12.498
  428W        W72743  12.120  34.934   1.237
  429W        W72744   9.362  35.027   4.114
  430W        W72745  14.174  15.642  14.309
  431W        W72746  19.188  18.604  12.570
  432W        W72747  16.207  34.603  12.384
  433W        W72748  12.778  23.608  11.544
  434W        W72749  15.657  13.728  14.423
  435W        W72750  42.882  23.225  11.974
  436W        W72751  20.582  36.873  12.839
  437W        W72752  20.054  21.112   4.725
  438W        W72753   5.892   6.801   4.638
  439W        W72754  38.511  39.314   2.751
  440W        W72755  32.905   1.397  14.393
  441W        W72756  20.620   4.317   0.889
  442W        W72757  21.246  36.970  13.014
  443W        W72758   0.873  10.656  11.066
  444W        W72759   4.206   3.228   2.760
  445W        W72760  10.183  40.532  13.981
  446W        W72761  30.143  43.918  13.520
  447W        W72762  11.276  40.499   0.480
  448W        W72763  17.203  22.185   0.410
  449W        W72764  26.118   1.367   1.381
  450W        W72765  25.016  34.922   2.901
  451W        W72766  24.120  32.605  12.488
  452W        W72767  17.191  20.654   1.336
  453W        W72768   9.828  17.660   1.368
  454W        W72769  33.022  28.621  11.103
  455W        W72770   0.470  12.220  10.050
  456W        W72771  35.989  13.258  10.907
  457W        W72772  39.446  25.526   1.887
  458W        W72773  35.026  24.163   0.745
  459W        W72774  34.021  39.974   4.138
  460W        W72775  25.485  24.185   2.679
  461W        W72776  28.107  41.356   0.799
  462W        W72777   0.749  26.665   2.412
  463W        W72778   6.406  21.245   1.316
  464W        W72779   1.274  14.296  13.529
  465W        W72780  34.548  24.097  14.020
  466W        W72781   5.261  23.032   0.347
  467W        W72782  31.444  25.489  12.341
  468W        W72783  16.782   6.272   2.207
  469W        W72784  37.032  33.043  13.543
  470W        W72785  38.515  40.867   3.811
  471W        W72786  16.204   4.934  10.922
  472W        W72787  40.486  13.660   0.952
  473W        W72788  13.146  10.359   5.294
  474W        W72789  34.406  14.172  11.611
  475W        W72790  19.772   0.337   0.755
  476W        W72791  15.795  10.288  10.983
  477W        W72792   4.913  15.620   5.123
  478W        W72793  16.788  14.697   2.223
  479W        W72794   4.402  15.709   4.810
  480W        W72795  24.047   5.246  10.433
  481W        W72796   8.897  14.282  11.932
  482W        W72797  22.570   2.795  14.928
  483W        W72798  34.559   8.898  12.005
  484W        W72799  14.276  24.056   3.237
  485W        W72800  35.514   8.845   4.653
  486W        W72801   7.350  18.739   3.845
  487W        W72802  15.812  37.390  13.521
  488W        W72803   1.958  32.960  13.437
  489W        W72804  18.181  21.087  14.831
  490W        W72805  35.998  16.143  10.422
  491W        W72806  26.484  23.636  12.383
  492W        W72807  40.394   4.230  10.586
  493W        W72808   1.377  44.849  14.852
  494W        W72809  40.539  23.583  13.880
  495W        W72810  32.100  23.495  13.907
  496W        W72811   2.960  22.252  14.288
  497W        W72812  35.533  28.075   3.277
  498W        W72813  10.143   2.299  13.408
  499W        W72814  26.090   7.210   0.433
  500W        W72815  16.776   9.879   0.408
  501W        W72816  27.151  37.974  10.586
  502W        W72817  26.107  16.154   3.353
  503W        W72818  35.918  19.130   1.433
  504W        W72819  16.289  21.550   2.754
  505W        W72820  20.565  14.723  11.388
  506W        W72821   2.762  29.958  13.005
  507W        W72822  24.101  30.089   4.682
  508W        W72823   5.304  21.244   9.991
  509W        W72824  17.078  32.926  14.389
  510W        W72825  28.524   6.198   2.835
  511W        W72826  29.643  15.211  14.815
  512W        W72827  14.110  25.540  14.798
  513W        W72828  41.043  40.805  14.807
  514W        W72829  29.439  25.483  13.041
  515W        W72830  17.164  34.054   0.963
  516W        W72831  11.650  23.072   3.714
  517W        W72832  42.788   1.924  13.327
  518W        W72833  18.620  26.185   3.789
  519W        W72834  33.942  39.971  12.445
  520W        W72835   6.261  40.431  11.454
  521W        W72836   1.820  21.083  12.025
  522W        W72837  19.684  38.896  11.570
  523W        W72838  14.192  44.387   2.205
  524W        W72839  34.558   3.857  13.048
  525W        W72840  14.622   3.726  13.915
  526W        W72841  11.359  44.490  13.476
  527W        W72842  13.615  17.284   3.781
  528W        W72843  22.516   0.261  12.041
  529W        W72844  15.682  31.918   3.239
  530W        W72845  17.740   9.849   0.384
  531W        W72846  40.305  32.932   2.320
  532W        W72847   8.708  29.465  12.053
  533W        W72848   8.744  31.600   3.298
  534W        W72849  22.138  29.956   1.296
  535W        W72850  32.968  30.488   3.640
  536W        W72851  30.562  18.290   3.224
  537W        W72852  34.935  29.439  10.468
  538W        W72853  44.874  25.521  12.346
  539W        W72854  36.041  12.318  13.371
  540W        W72855  11.330  38.831  13.832
  541W        W72856   6.895  34.497   2.393
  542W        W72857  15.189  13.116  13.442
  543W        W72858  16.570   3.413  14.504
  544W        W72859   2.375   0.864  12.561
  545W        W72860   7.738  42.877   3.263
  546W        W72861  26.626  12.709  11.991
  547W        W72862  44.769  41.381  12.904
  548W        W72863  42.856   5.325   1.381
  549W        W72864  26.621  16.797   0.791
  550W        W72865  30.964  22.718  12.975
  551W        W72866  44.975  40.324   2.840
  552W        W72867  40.515  28.565  10.635
  553W        W72868   8.729  31.959   0.475
  554W        W72869   2.414  15.637   1.713
  555W        W72870  31.410  16.660   1.747
  556W        W72871   1.955  29.059   2.259
  557W        W72872   0.812  15.677  13.037
  558W        W72873   9.356  18.785   9.934
  559W        W72874  35.912   4.859   4.311
  560W        W72875   8.687  29.631  10.911
  561W        W72876  31.144  30.163   3.380
  562W        W72877  34.533  31.071  14.768
  563W        W72878  10.811   3.927   3.729
  564W        W72879  34.888  12.333  13.356
  565W        W72880   9.657  21.737   0.899
  566W        W72881  14.198  32.485  13.364
  567W        W72882  29.594  11.801   2.266
  568W        W72883  21.590  24.591   3.205
  569W        W72884  23.661  14.274  10.487
  570W        W72885  42.437  43.473   3.146
  571W        W72886  29.606  18.224   2.343
  572W        W72887   8.888  23.678   3.734
  573W        W72888  37.363  20.249   0.879
  574W        W72889   7.686  21.526  13.511
  575W        W72890  43.944  34.614  13.412
  576W        W72891   4.213   6.334  10.497
  577W        W72892  40.422  21.133  10.046
  578W        W72893   0.480  27.046  13.406
  579W        W72894  30.423  44.451  13.942
  580W        W72895  23.513  41.456  12.076
  581W        W72896  17.230  31.485   9.440
  582W        W72897  41.501  37.501   1.290
  583W        W72898   1.837  38.336  10.935
  584W        W72899  14.264  11.184   4.284
  585W        W72900   7.785  11.196  12.341
  586W        W72901  12.722  36.360   4.633
  587W        W72902   6.387  13.616   4.785
  588W        W72903  44.786  16.790  12.489
  589W        W72904   3.843  38.969   0.341
  590W        W72905  40.895   7.745  14.768
  591W        W72906  25.987  27.623  11.539
  592W        W72907  18.093  42.969   1.361
  593W        W72908  35.502  36.979   2.347
  594W        W72909  22.739   8.875  13.359
  595W        W72910  42.888   9.887  10.037
  596W        W72911  14.255  28.971  11.387
  597W        W72912  22.554  12.201   1.844
  598W        W72913   5.432   5.749   1.231
  599W        W72914  13.697  10.831  13.459
  600W        W72915  11.758   2.770   4.652
  601W        W72916   5.433   5.846  14.504
  602W        W72917   7.214  35.017  13.947
  603W        W72918  30.589  23.993  12.503
  604W        W72919  20.071  40.481  13.806
  605W        W72920  27.583  18.582   4.614
  606W        W72921  23.688   6.387   1.395
  607W        W72922  30.535  10.648   4.347
  608W        W72923  37.482  38.821   0.361
  609W        W72924  10.358  13.160   4.745
  610W        W72925  21.565  27.097   2.870
  611W        W72926  27.098  12.695   3.769
  612W        W72927  28.120  42.827   0.413
  613W        W72928  25.487  11.805   2.671
  614W        W72929  17.763  15.269   4.810
  615W        W72930  24.148  13.677  12.074
  616W        W72931  16.712  29.429   1.396
  617W        W72932  44.469   9.284   4.261
  618W        W72933   9.857  25.683   0.348
  619W        W72934  30.626   6.695   3.278
  620W        W72935  18.692  34.106  14.818
  621W        W72936  30.116   0.926  14.485
  622W        W72937   5.295  32.105   0.792
  623W        W72938   8.895  10.353   4.290
  624W        W72939   0.402  17.267   4.161
  625W        W72940  12.812  29.053  11.864
  626W        W72941  34.008   9.799   0.259
  627W        W72942   9.316  29.063  10.408
  628W        W72943  27.113  32.571   2.378
  629W        W72944  21.528  17.725  12.032
  630W        W72945  30.602  32.505  10.636
  631W        W72946  14.792   2.768  14.294
  632W        W72947  28.121  38.388  14.295
  633W        W72948  15.615  30.131   4.711
  634W        W72949   8.281  12.165  13.533
  635W        W72950  22.244  32.133  10.420
  636W        W72951  42.345  21.245   5.320
  637W        W72952  18.103  27.452   2.687
  638W        W72953  21.599  30.412  10.047
  639W        W72954  39.546  42.896   0.826
  640W        W72955  26.481  29.169   4.654
  641W        W72956  25.962  26.610  11.458
  642W        W72957  36.978  19.732   3.158
  643W        W72958  18.679  41.425  14.815
  644W        W72959  43.983  16.165   0.927
  645W        W72960  25.155  16.757  12.471
  646W        W72961  29.027  38.429  12.013
  647W        W72962  17.154  20.091  11.896
  648W        W72963  31.453  23.030  14.907
  649W        W72964  28.550  14.216   4.125
  650W        W72965  24.006  36.528  11.875
  651W        W72966  27.450  21.613   1.368
  652W        W72967   1.958  17.102   1.933
  653W        W72968  31.134  26.624   1.719
  654W        W72969  38.861  41.033   4.253
  655W        W72970  12.248  26.973   3.294
  656W        W72971   4.893  19.152  13.934
  657W        W72972  38.872   3.394  13.425
  658W        W72973   0.421  42.310  13.871
  659W        W72974  36.366   7.223  13.048
  660W        W72975   9.167   4.339   0.732
  661W        W72976  38.568  28.542  12.824
  662W        W72977  40.308   2.818   2.827
  663W        W72978  13.675   8.800  13.835
  664W        W72979  43.323  12.773  11.110
  665W        W72980  17.675  29.621   3.762
  666W        W72981  11.371  37.939   0.961
  667W        W72982  21.231  19.175  13.542
  668W        W72983  26.966  41.796  10.943
  669W        W72984  19.779  39.960   4.218
  670W        W72985   9.804  37.028  11.948
  671W        W72986  32.442   3.294  10.576
  672W        W72987  17.685   9.806   0.866
  673W        W72988  34.389  42.012  10.932
  674W        W72989  44.920  21.117  14.022
  675W        W72990  11.828  11.128  14.347
  676W        W72991  16.709   3.225   0.823
  677W        W72992  39.378  36.461   4.243
  678W        W72993   7.234  43.346   3.850
  679W        W72994  20.119  35.913   4.664
  680W        W72995  22.536   9.153  12.012
  681W        W72996  15.680   6.428  10.604
  682W        W72997  35.442  15.325   2.375
  683W        W72998  40.917  25.483  10.023
  684W        W72999  42.312  24.678  10.945
  685W        W73000  44.831   4.865   3.667
  686W        W73001  32.948  19.634   0.457
  687W        W73002  34.947  18.176  13.307
  688W        W73003  34.374  24.596   0.892
  689W        W73004   0.873  38.418   0.816
  690W        W73005  44.305   2.793  11.515
  691W        W73006  43.868   7.707  11.375
  692W        W73007  40.507  24.515  11.968
  693W        W73008   0.770  43.502   4.785
  694W        W73009  28.992  15.160  12.365
  695W        W73010  11.316   2.297   1.287
  696W        W73011   4.740   2.742  12.577
  697W        W73012  15.613   8.861   0.817
  698W        W73013  11.860  16.708   4.257
  699W        W73014   2.342  13.754  13.056
  700W        W73015  29.571  25.484  12.365
  701W        W73016  11.767  14.303  12.380
  702W        W73017  41.036  14.252  14.432
  703W        W73018  19.101  31.522   2.382
  704W        W73019   4.761  12.116   1.752
  705W        W73020  14.591  15.723   0.748
  706W        W73021  24.206  30.010  13.052
  707W        W73022   7.237  29.510   0.404
  708W        W73023  36.047  25.093   2.715
  709W        W73024   9.270  30.497   1.862
  710W        W73025  28.943   0.860   3.685
  711W        W73026  40.303  23.689  10.944
  712W        W73027  28.990  15.777  14.431
  713W        W73028  28.631  18.270   3.793
  714W        W73029  38.016  43.431   1.907
  715W        W73030  30.112   7.854   1.238
  716W        W73031  21.203  28.030  10.426
  717W        W73032  20.718  43.279   1.440
  718W        W73033  38.049   7.287  10.499
  719W        W73034  24.632  11.137  14.013
  720W        W73035  42.417  13.120   3.194
  721W        W73036  26.164  11.323  14.493
  722W        W73037  43.399  30.040   4.199
  723W        W73038  10.377  11.749   5.150
  724W        W73039   1.417  16.780   3.355
  725W        W73040  34.042  29.427   2.721
  726W        W73041  31.907  18.583   4.137
  727W        W73042  24.638  38.992  12.867
  728W        W73043  32.987   2.379   4.213
  729W        W73044  36.541  23.496   4.829
  730W        W73045  25.512  21.252   3.657
  731W        W73046  16.811  17.628  10.440
  732W        W73047  26.504  10.239  13.391
  733W        W73048  26.965   3.320   3.816
  734W        W73049  22.087  35.580   0.856
  735W        W73050  20.108  24.619   0.726
  736W        W73051   9.357  30.123   3.832
  737W        W73052  25.963  41.445  12.447
  738W        W73053  40.311  21.020   3.160
  739W        W73054  33.445  20.152   3.857
  740W        W73055  21.239  21.527  12.570
  741W        W73056  20.226   2.372  11.469
  742W        W73057  17.130   4.894   1.393
  743W        W73058  41.362  23.079  14.980
  744W        W73059  30.549  36.037   0.476
  745W        W73060  30.622  16.600   3.348
  746W        W73061   8.232  14.701  11.062
  747W        W73062  33.874  39.934   3.680
  748W        W73063   1.476  12.725   4.299
  749W        W73064  21.713  19.141  10.952
  750W        W73065  21.726  14.605  10.982
  751W        W73066   3.253   1.420  11.490
  752W        W73067   5.703   7.675  12.069
  753W        W73068  26.193  31.624   2.345
  754W        W73069   8.203  28.566   0.788
  755W        W73070  19.111  43.475   0.313
  756W        W73071   0.479  33.012   1.818
  757W        W73072  24.620   8.214  14.397
  758W        W73073  25.682  20.137  11.923
  759W        W73074  29.100  27.035   3.789
  760W        W73075  17.297  24.212  14.924
  761W        W73076  32.469  24.670  14.846
  762W        W73077  17.180  42.827  14.950
  763W        W73078  22.644  34.871   1.861
  764W        W73079   2.779  16.569   4.667
  765W        W73080  15.106  38.843  12.836
  766W        W73081  36.985   8.788   1.834
  767W        W73082  25.680   2.858  10.443
  768W        W73083   6.878  23.996  14.954
  769W        W73084   9.876  44.504   3.635
  770W        W73085  18.221  40.985   5.783
  771W        W73086  20.546  35.506  12.460
  772W        W73087  37.959   7.713   1.773
  773W        W73088   8.742  14.744  10.893
  774W        W73089  28.591  27.024   4.192
  775W        W73090  32.905  34.911   0.917
  776W        W73091  39.996  25.976   1.411
  777W        W73092  34.053  23.706   4.675
  778W        W73093  18.162  12.362  10.578
  779W        W73094  33.487  16.270   0.305
  780W        W73095   1.350  11.861   0.850
  781W        W73096  44.769  42.504  14.317
  782W        W73097  23.712   1.301  14.406
  783W        W73098  24.191  10.209   2.211
  784W        W73099   2.290  25.647   4.834
  785W        W73100   0.398  41.810   4.327
  786W        W73101  25.049   7.317   0.279
  787W        W73102  30.495  43.976  13.316
  788W        W73103  41.970  41.327   9.965
  789W        W73104  19.631  11.701   3.806
  790W        W73105  44.308  12.286   0.918
  791W        W73106   0.383   4.309  14.905
  792W        W73107  21.162  26.462  11.437
  793W        W73108  30.964  43.786  14.781
  794W        W73109   6.423   5.396  12.981
  795W        W73110  36.468   3.263   4.833
  796W        W73111   3.912  14.095   3.328
  797W        W73112   4.845  17.232   2.698
  798W        W73113  34.938  32.918   3.680
  799W        W73114  44.888   6.818   1.364
  800W        W73115  29.015  24.035  13.884
  801W        W73116  19.119  25.132   3.846
  802W        W73117  23.671  30.586   2.277
  803W        W73118  43.326   0.396   1.348
  804W        W73119  20.690  26.134   1.735
  805W        W73120  31.536  41.435  13.793
  806W        W73121   8.178  24.166   0.918
  807W        W73122  41.951   7.705   3.216
  808W        W73123  12.650  29.573   1.725
  809W        W73124  21.516  24.209  10.569
  810W        W73125  42.939   5.211   4.731
  811W        W73126  30.060  16.642  11.540
  812W        W73127  24.678  28.994   4.640
  813W        W73128   9.297  36.959   1.224
  814W        W73129  18.052  40.958   1.740
  815W        W73130  23.700  13.631   4.137
  816W        W73131  16.314  38.421   0.967
  817W        W73132   2.772  21.516   2.284
  818W        W73133  28.167  34.942   4.679
  819W        W73134  32.947  31.422   4.605
  820W        W73135  27.673   9.315  11.046
  821W        W73136   6.712  25.059  14.302
  822W        W73137  12.735  25.663   4.692
  823W        W73138  40.537  31.066   3.809
  824W        W73139  36.090  37.347   2.868
  825W        W73140  39.416  19.085  11.600
  826W        W73141  40.036  23.018   1.395
  827W        W73142  35.534  13.211   1.757
  828W        W73143   5.342  14.237  12.475
  829W        W73144  13.611   6.730  11.391
  830W        W73145  12.283  19.257  12.889
  831W        W73146   6.227  19.587  10.090
  832W        W73147  33.035  17.750  14.401
  833W        W73148  38.921  10.252   0.951
  834W        W73149  33.397  36.516  13.441
  835W        W73150  43.340   3.232  14.006
  836W        W73151   6.913  40.000   0.475
  837W        W73152  16.801  42.283   0.910
  838W        W73153  24.982  37.412   4.116
  839W        W73154  13.254  27.627   1.425
  840W        W73155  11.226  23.597   1.782
  841W        W73156   0.399  36.021   3.296
  842W        W73157  20.646  35.001  13.863
  843W        W73158  27.627   6.349  14.885
  844W        W73159  24.981  42.812   0.259
  845W        W73160  19.552   6.870   1.448
  846W        W73161  28.681  27.605  10.409
  847W        W73162  23.209  31.503   3.725
  848W        W73163  19.177  15.279   4.120
  849W        W73164  43.470  13.139  14.405
  850W        W73165   1.252  11.250   0.298
  851W        W73166  12.297  27.609  13.971
  852W        W73167   0.434  32.128   2.232
  853W        W73168  21.719  15.693   4.242
  854W        W73169  13.128  11.316   2.771
  855W        W73170  12.352  39.900  12.093
  856W        W73171   2.783  30.950  13.532
  857W        W73172   3.247  17.155   3.868
  858W        W73173  39.058  26.030   4.156
  859W        W73174  10.275   6.308   5.226
  860W        W73175   3.444  13.327  10.588
  861W        W73176  33.396   8.803  10.990
  862W        W73177  11.791  16.773   4.767
  863W        W73178  12.360  25.623   2.211
  864W        W73179  39.833   3.936   0.965
  865W        W73180  27.463  30.589  10.437
  866W        W73181  19.656  17.654  13.851
  867W        W73182  16.615  37.867   2.416
  868W        W73183  39.815  12.785  13.387
  869W        W73184  31.437  10.330   3.182
  870W        W73185   7.393  19.748   3.375
  871W        W73186  41.359  26.558  14.952
  872W        W73187  34.584  28.552   0.799
  873W        W73188  37.497  35.534   1.218
  874W        W73189   3.860  30.003   2.838
  875W        W73190  33.439  24.128  13.307
  876W        W73191  37.361  37.083   4.827
  877W        W73192   8.217  40.470   2.301
  878W        W73193  11.184  29.023   3.714
  879W        W73194  44.291  40.871   4.688
  880W        W73195  42.297  35.857  13.330
  881W        W73196  13.160  16.641  12.984
  882W        W73197  10.730  20.073   2.662
  883W        W73198   5.734  11.192   1.288
  884W        W73199  23.012  26.045   3.289
  885W        W73200  24.627  39.933   4.662
  886W        W73201  36.086  32.895  14.436
  887W        W73202  21.543  18.071  11.103
  888W        W73203   9.738   6.777  13.406
  889W        W73204  33.508  12.620  13.362
  890W        W73205   9.212   6.883   0.855
  891W        W73206  30.136  37.953   0.358
  892W        W73207   4.374   8.800   0.344
  893W        W73208  40.997  16.156   4.689
  894W        W73209   3.737  41.305   2.883
  895W        W73210  44.469  17.717  11.511
  896W        W73211  33.529   6.420  13.865
  897W        W73212   6.770  15.784   2.678
  898W        W73213  25.560  29.951   3.284
  899W        W73214   4.923  11.826   1.901
  900W        W73215  16.305  36.842   1.219
  901W        W73216  44.292   8.187  11.427
  902W        W73217  12.345  35.954  13.891
  903W        W73218   7.237  29.132   2.794
  904W        W73219  28.990  12.754  11.935
  905W        W73220   7.785  21.680   2.800
  906W        W73221  12.708   3.891   1.440
  907W        W73222  27.540   7.857  14.389
  908W        W73223  26.108  19.260   0.246
  909W        W73224  39.853  38.340   2.798
  910W        W73225  19.646  13.180  13.813
  911W        W73226   0.909  18.642  14.877
  912W        W73227  33.447   3.433   0.884
  913W        W73228  35.399  39.485  12.406
  914W        W73229   4.348  26.642  12.353
  915W        W73230   4.401  27.184   0.252
  916W        W73231  19.554   2.924  11.973
  917W        W73232   1.378   2.824   1.869
  918W        W73233   6.758  33.967   1.893
  919W        W73234  30.987  26.068  11.375
  920W        W73235   6.327  32.077  14.837
  921W        W73236   0.895  16.318   0.408
  922W        W73237  16.594   0.879  14.997
  923W        W73238  10.379   4.745   2.380
  924W        W73239  19.724  19.734   3.379
  925W        W73240  35.000  44.396   0.406
  926W        W73241  34.876  41.797   2.661
  927W        W73242  26.060   4.281   5.179
  928W        W73243   6.421  10.188   0.252
  929W        W73244  37.946   8.740  10.936
  930W        W73245  22.672  38.900  10.981
  931W        W73246   2.343  21.146  10.133
  932W        W73247  43.372  31.608  13.050
  933W        W73248  28.137  10.776   1.930
  934W        W73249  24.535  43.473  12.417
  935W        W73250   0.444   8.211  12.947
  936W        W73251  44.491   9.776  14.286
  937W        W73252  36.418  31.021   0.335
  938W        W73253  37.450  42.285   4.761
  939W        W73254  12.800  28.639   0.961
  940W        W73255   3.953  33.956  10.995
  941W        W73256  21.537  20.200  14.023
  942W        W73257  20.707  26.512   0.415
  943W        W73258   9.873  40.798  10.531
  944W        W73259  26.018   0.381  11.476
  945W        W73260   4.405  28.953  13.470
  946W        W73261  42.879  41.439   0.319
  947W        W73262  35.415  33.938  11.021
  948W        W73263  29.098   5.374  12.500
  949W        W73264   3.889  20.761   4.326
  950W        W73265  12.314  19.763   2.895
  951W        W73266   2.453  10.753  11.092
  952W        W73267  10.767  11.196   3.803
  953W        W73268  23.027   2.737  12.417
  954W        W73269  41.345   7.776  11.067
  955W        W73270  43.783  28.667  13.443
  956W        W73271  15.803  14.218  12.950
  957W        W73272   9.719  29.924   2.869
  958W        W73273  13.651  41.804   3.729
  959W        W73274   8.781  34.409  13.938
  960W        W73275  34.941  19.654   0.858
  961W        W73276   0.318  43.831  13.859
  962W        W73277  40.942  35.428  11.037
  963W        W73278  19.174   5.397   3.717
  964W        W73279  10.743   0.409  11.961
  965W        W73280   3.393  24.630   4.727
  966W        W73281  27.601   0.952   1.916
  967W        W73282  18.125  27.035   2.210
  968W        W73283  21.060   6.419   2.369
  969W        W73284   1.306  13.838  12.379
  970W        W73285  31.597   4.375  11.919
  971W        W73286  38.441  24.106   0.960
  972W        W73287  15.744   4.336  13.801
  973W        W73288  16.670   1.306  14.803
  974W        W73289  14.285  14.723  13.371
  975W        W73290  19.678  32.618  10.972
  976W        W73291  11.209   9.319   0.354
  977W        W73292  33.568  13.722   3.208
  978W        W73293  18.704  15.821  10.482
  979W        W73294   9.375  25.130  11.917
  980W        W73295  31.051  14.286  14.957
  981W        W73296  39.494  20.555  10.984
  982W        W73297  33.481  38.518   4.156
  983W        W73298  26.199   3.439  13.351
  984W        W73299   1.884  32.075  12.562
  985W        W73300   2.326  30.448  13.530
  986W        W73301  32.488  16.690   3.658
  987W        W73302  25.665  31.036   0.342
  988W        W73303  18.596   0.470  11.405
  989W        W73304  38.849  27.163  11.019
  990W        W73305  32.956  33.616  11.873
  991W        W73306   8.835  44.445  14.759
  992W        W73307  33.620  29.141   1.431
  993W        W73308  29.971  13.256  14.794
  994W        W73309  38.949  18.731  10.453
  995W        W73310   2.280  11.166  10.534
  996W        W73311  24.635  23.534   2.893
  997W        W73312  28.568  20.707  11.091
  998W        W73313  15.685  25.710   0.754
  999W        W73314   8.180  18.213   1.892
 1000W        W73315  30.091  14.301   2.369
 1001W        W73316   2.847  21.193   1.396
 1002W        W73317  28.988  34.022  12.916
 1003W        W73318  18.697  18.741  12.892
 1004W        W73319  33.907  14.259  14.890
 1005W        W73320  40.817  34.980   4.728
 1006W        W73321  38.384  22.705  13.483
 1007W        W73322  44.392  27.143   3.271
 1008W        W73323  14.250   0.908  12.000
 1009W        W73324  44.263  31.617   1.438
 1010W        W73325  17.063   2.253  12.407
 1011W        W73326  22.127  27.002  13.364
 1012W        W73327  21.544  29.125  11.452
 1013W        W73328  35.408  33.397  13.374
 1014W        W73329   9.765  11.186   2.263
 1015W        W73330   1.352  15.745   2.232
 1016W        W73331  44.267  16.790   0.462
 1017W        W73332  29.078  17.690   4.243
 1018W        W73333  23.597  22.120   3.205
 1019W        W73334  26.662  33.410  12.564
 1020W        W73335  27.546  41.340   3.250
 1021W        W73336  13.765  11.366   0.383
 1022W        W73337  23.703  42.506   4.719
 1023W        W73338  20.048   8.325  14.436
 1024W        W73339  14.604  29.540   1.808
 1025W        W73340  14.767   1.805  14.773
 1026W        W73341  37.078  23.589  13.929
 1027W        W73342  14.805   8.825  11.400
 1028W        W73343  28.055  25.999  12.561
 1029W        W73344  24.593  22.031  10.146
 1030W        W73345  38.359  23.060  10.593
 1031W        W73346  43.989  33.998   3.719
 1032W        W73347  40.928  16.135   3.739
 1033W        W73348  26.005  22.091  10.426
 1034W        W73349   0.448  40.849   1.737
 1035W        W73350   4.220  20.104   0.917
 1036W        W73351  37.423   4.311  11.985
 1037W        W73352  23.621  34.866   2.284
 1038W        W73353   1.452  32.011  11.121
 1039W        W73354   6.762  16.758  10.446
 1040W        W73355  12.293  38.819   1.364
 1041W        W73356  19.087  29.070  10.997
 1042W        W73357   8.371  40.958   2.825
 1043W        W73358  22.205  15.689  11.036
 1044W        W73359  20.271  32.595   4.185
 1045W        W73360  43.927  29.129  13.985
 1046W        W73361   9.369  22.725  13.975
 1047W        W73362  42.945   4.848  12.548
 1048W        W73363   4.795   2.776   4.798
 1049W        W73364   1.430   5.216   0.309
 1050W        W73365  13.617  42.506  10.633
 1051W        W73366  38.002   4.354   0.292
 1052W        W73367  26.182  15.599   1.353
 1053W        W73368  43.766  27.564  14.407
 1054W        W73369  30.111  13.710   2.704
 1055W        W73370  28.562  44.317   4.229
 1056W        W73371  41.372  10.307   4.226
 1057W        W73372  21.139  30.018  14.950
 1058W        W73373   6.238  27.028   4.789
 1059W        W73374  29.038   3.902  13.947
 1060W        W73375  36.593   9.797  13.009
 1061W        W73376  43.487  23.152  11.421
 1062W        W73377   6.259  37.351  14.298
 1063W        W73378  35.565  11.645  11.550
 1064W        W73379  34.588  41.495   3.161
 1065W        W73380  38.436  36.841   2.879
 1066W        W73381   9.344  37.013   0.808
 1067W        W73382   7.180  42.790   3.254
 1068W        W73383   3.243   5.688  14.859
 1069W        W73384   2.942  28.474  12.409
 1070W        W73385   5.317  22.616  12.477
 1071W        W73386   3.230  12.753  14.968
 1072W        W73387  19.550  11.202   0.951
 1073W        W73388  40.048  24.548   5.271
 1074W        W73389   6.377  11.680   1.213
 1075W        W73390  44.381  27.945  14.888
 1076W        W73391  40.827  37.523   3.820
 1077W        W73392  33.080  19.072   3.738
 1078W        W73393  34.006  20.186   3.160
 1079W        W73394  21.141  14.186   0.435
 1080W        W73395  12.709  25.030  11.534
 1081W        W73396  35.044  35.899  12.850
 1082W        W73397  25.056  22.208   3.343
 1083W        W73398   9.184   0.831   2.384
 1084W        W73399   4.247  11.771   1.253
 1085W        W73400  28.080   5.232   5.259
 1086W        W73401  12.153   0.463   4.210
 1087W        W73402   6.853  42.951  13.903
 1088W        W73403  14.590  20.214   1.781
 1089W        W73404  17.195  37.439  12.548
 1090W        W73405  31.588  13.722   2.298
 1091W        W73406   8.379  11.639   0.772
 1092W        W73407  35.921  19.112   3.644
 1093W        W73408  21.093  16.187   3.854
 1094W        W73409  19.605  14.782   3.868
 1095W        W73410  39.317  44.921  11.520
 1096W        W73411   0.278  26.647   1.760
 1097W        W73412  21.600  40.851  12.936
 1098W        W73413  41.986  21.148   0.833
 1099W        W73414  29.451  17.571   1.694
 1100W        W73415  20.047  15.653   4.184
 1101W        W73416  44.868  21.030   4.729
 1102W        W73417  28.650  44.862  11.092
 1103W        W73418  43.999  10.832  12.488
 1104W        W73419  18.191  21.596  13.895
 1105W        W73420   1.828  29.555  14.806
 1106W        W73421   4.216  41.513   4.749
 1107W        W73422  14.803  12.159   0.792
 1108W        W73423  14.248  44.393  11.932
 1109W        W73424  14.616  22.242  10.407
 1110W        W73425  36.987  10.753  14.966
 1111W        W73426   0.838   2.958  11.056
 1112W        W73427  26.033   5.765  13.367
 1113W        W73428  35.908   7.669   3.637
 1114W        W73429  14.163  10.786   3.644
 1115W        W73430  36.061  24.554  11.963
 1116W        W73431  22.998  40.975  13.531
 1117W        W73432  13.685  38.988  13.904
 1118W        W73433   5.929   5.709  14.489
 1119W        W73434  25.196  10.154  14.853
 1120W        W73435   5.757  13.737   3.773
 1121W        W73436  42.973  17.180   5.189
 1122W        W73437  40.400  12.656  13.842
 1123W        W73438  12.183  32.110   1.266
 1124W        W73439  15.626  36.047   4.734
 1125W        W73440  22.231  33.572   0.860
 1126W        W73441  16.173   5.874  11.959
 1127W        W73442   4.940  23.034   0.356
 1128W        W73443  41.517  35.097  10.576
 1129W        W73444  19.160  33.590   0.425
 1130W        W73445  29.630   4.708   1.320
 1131W        W73446  14.785   1.878   3.691
 1132W        W73447   4.310  42.371   4.293
 1133W        W73448  11.172   0.422   1.440
 1134W        W73449  27.616  21.551   0.806
 1135W        W73450  44.912  34.543  14.408
 1136W        W73451  27.526  21.124   1.817
 1137W        W73452   3.784   8.381   0.469
 1138W        W73453   0.419   0.447   4.225
 1139W        W73454  22.563  38.375  12.344
 1140W        W73455  15.156   7.839   3.787
 1141W        W73456  10.679  25.160   3.863
 1142W        W73457  27.969  20.151  11.532
 1143W        W73458  14.709  10.752  10.978
 1144W        W73459  30.467  22.534   0.296
 1145W        W73460  16.597  18.093   3.845
 1146W        W73461  10.305  12.299   3.179
 1147W        W73462  34.458  33.472   4.817
 1148W        W73463  20.735  35.898  14.275
 1149W        W73464  29.158  31.639   3.326
 1150W        W73465  31.463  11.263  11.601
 1151W        W73466  28.004   0.859  14.985
 1152W        W73467  17.269  30.929  10.898
 1153W        W73468   4.421  20.096  14.391
 1154W        W73469  28.599  37.988  13.885
 1155W        W73470  23.216  12.704   0.423
 1156W        W73471   3.805  15.757   1.903
 1157W        W73472  14.598  23.618  13.384
 1158W        W73473  13.322  11.701   1.807
 1159W        W73474  22.707  40.351   9.924
 1160W        W73475  44.366  30.420  13.383
 1161W        W73476  40.381  19.196   0.835
 1162W        W73477  21.557  35.036  11.095
 1163W        W73478  20.597  43.320  13.917
 1164W        W73479   1.301  20.737  14.987
 1165W        W73480  39.522   7.731   4.798
 1166W        W73481  24.184  13.253  11.936
 1167W        W73482   4.823  16.567  14.387
 1168W        W73483  31.920  16.777   4.301
 1169W        W73484   5.770  34.428   3.351
 1170W        W73485   2.400   3.953   2.251
 1171W        W73486  42.441  27.663  11.124
 1172W        W73487   6.850  31.152   2.409
 1173W        W73488   5.762  35.476   4.227
 1174W        W73489  26.992  40.002   1.698
 1175W        W73490  40.799  28.101  12.024
 1176W        W73491  11.801  25.968   2.360
 1177W        W73492  39.420  41.847  12.466
 1178W        W73493  28.023  34.080   0.361
 1179W        W73494  27.530  34.570  14.426
 1180W        W73495  25.580  29.944   0.953
 1181W        W73496   6.805  35.870  11.997
 1182W        W73497   3.767  43.940  14.897
 1183W        W73498  10.773   6.719  11.574
 1184W        W73499  30.080  36.418   1.348
 1185W        W73500  16.290   8.338  14.402
 1186W        W73501  42.792   7.679  13.892
 1187W        W73502  27.170  15.670  14.937
 1188W        W73503  15.732  27.094   4.276
 1189W        W73504  24.662  44.285  12.898
 1190W        W73505  12.344  32.400  12.930
 1191W        W73506   8.287  21.727  12.457
 1192W        W73507  43.940  44.828  10.528
 1193W        W73508  31.455  14.311  11.106
 1194W        W73509  12.627   1.974  12.533
 1195W        W73510  39.428  27.174  11.901
 1196W        W73511  20.198  20.151  11.999
 1197W        W73512   6.304   5.802   1.451
 1198W        W73513  16.764  40.331  11.590
 1199W        W73514  22.043  25.144   0.927
 1200W        W73515  44.866  33.503  13.838
 1201W        W73516  17.107  38.379  13.056
 1202W        W73517  13.194   5.803  12.346
 1203W        W73518   6.370  16.318  12.061
 1204W        W73519  42.970   0.822  13.850
 1205W        W73520  20.606  15.143  14.987
 1206W        W73521  25.605  35.971   0.471
 1207W        W73522  27.948  11.714   0.808
 1208W        W73523  41.487  21.190  14.458
 1209W        W73524  35.562  18.162  12.486
 1210W        W73525  13.326  20.738  12.066
 1211W        W73526  41.407  15.816   4.789
 1212W        W73527  28.032  12.795   2.726
 1213W        W73528   8.228  12.265  12.358
 1214W        W73529  22.015  38.870   2.865
 1215W        W73530  10.259  19.705   1.759
 1216W        W73531  35.428  40.852  13.528
 1217W        W73532  18.270  44.948  12.043
 1218W        W73533   9.220  38.348  12.991
 1219W        W73534   1.253  25.179   3.789
 1220W        W73535   9.193  35.595   1.332
 1221W        W73536  40.835  15.174   4.225
 1222W        W73537   8.376   8.880  12.052
 1223W        W73538  23.550  36.546  12.468
 1224W        W73539  20.694  36.529   1.365
 1225W        W73540  24.535  41.914  13.408
 1226W        W73541  34.396  38.565  12.426
 1227W        W73542  39.384   5.328   2.689
 1228W        W73543  20.643  28.020  11.101
 1229W        W73544   3.233  41.998  13.946
 1230W        W73545  36.942  35.005   4.737
 1231W        W73546  41.531  25.527   0.813
 1232W        W73547   7.225   5.358  11.398
 1233W        W73548   7.233   7.707   2.890
 1234W        W73549   8.869  11.650   0.411
 1235W        W73550   6.681  29.630  14.874
 1236W        W73551  32.437   9.685   3.636
 1237W        W73552  22.743   5.887  11.915
 1238W        W73553   2.852  12.757   4.621
 1239W        W73554  35.925  44.438   3.683
 1240W        W73555  13.795  38.840   3.341
 1241W        W73556  35.021  36.893  13.793
 1242W        W73557  31.896  43.951   4.832
 1243W        W73558  10.351  44.856   1.874
 1244W        W73559   5.272  38.996  13.861
 1245W        W73560  40.951  19.640   2.832
 1246W        W73561  23.692  41.804  10.962
 1247W        W73562  12.843  44.287   1.899
 1248W        W73563  33.499  29.167   1.754
 1249W        W73564  41.002   1.749  13.474
 1250W        W73565  13.131   9.718  11.547
 1251W        W73566  15.127  13.679   1.223
 1252W        W73567  21.121  39.474  12.343
 1253W        W73568  32.106  14.099  10.506
 1254W        W73569  38.962   4.435  11.088
 1255W        W73570  17.064   6.884  11.914
 1256W        W73571   1.863  35.905  10.992
 1257W        W73572  26.697   7.828  14.965
 1258W        W73573  34.401  16.285   0.303
 1259W        W73574  13.105  33.533  14.896
 1260W        W73575  27.464  17.219   0.290
 1261W        W73576  17.723  13.346  14.301
 1262W        W73577  38.849  44.788   3.640
 1263W        W73578  27.632   0.960  14.317
 1264W        W73579  41.538   2.373  13.442
 1265W        W73580  42.473  43.291   4.719
 1266W        W73581  23.099  20.163   2.414
 1267W        W73582  20.061  25.091  10.586
 1268W        W73583   1.749  39.489   0.335
 1269W        W73584  29.169  34.498  12.094
 1270W        W73585   1.382  39.043  12.948
 1271W        W73586  11.707  17.113  14.772
 1272W        W73587   9.182   6.231   4.703
 1273W        W73588  16.698  12.812   2.315
 1274W        W73589  19.692  12.655  13.495
 1275W        W73590   5.370  19.751   2.383
 1276W        W73591  26.541  24.110  10.434
 1277W        W73592  34.606   0.420   4.701
 1278W        W73593  27.049  18.078   0.961
 1279W        W73594   3.340  18.612   0.959
 1280W        W73595  32.998  24.527  13.054
 1281W        W73596  10.724  11.725   0.801
 1282W        W73597  37.053   4.711  11.051
 1283W        W73598  26.071  12.846   1.734
 1284W        W73599  29.061  22.213  10.602
 1285W        W73600  16.171  38.022   0.810
 1286W        W73601  24.133  15.158   2.416
 1287W        W73602  22.548  17.166  11.005
 1288W        W73603   3.295   7.767  11.105
 1289W        W73604  10.261  20.051  14.508
 1290W        W73605   5.321  38.075  14.293
 1291W        W73606   8.179  14.181   3.764
 1292W        W73607  31.428  31.555   2.293
 1293W        W73608  42.479  14.632  10.460
 1294W        W73609   8.275  35.976  14.872
 1295W        W73610  29.459  10.314  14.473
 1296W        W73611  38.830  10.800   4.828
 1297W        W73612  40.877  27.153   4.225
 1298W        W73613  19.165  34.598  12.403
 1299W        W73614  39.843   4.895  10.954
 1300W        W73615   7.311  18.638   0.458
 1301W        W73616   7.896   2.915   3.280
 1302W        W73617  12.362   1.436  11.507
 1303W        W73618  30.460  20.579   0.413
 1304W        W73619  21.589  39.002  10.473
 1305W        W73620  23.662  13.177   1.800
 1306W        W73621  22.582  10.333   2.355
 1307W        W73622  18.600   9.283  13.064
 1308W        W73623  18.648  19.658  10.151
 1309W        W73624  44.786   6.703   1.893
 1310W        W73625  34.118  43.844   4.124
 1311W        W73626  15.227   0.423   4.218
 1312W        W73627  27.622   4.362   1.292
 1313W        W73628  19.144  37.418   4.657
 1314W        W73629  35.072   7.894  14.926
 1315W        W73630  26.097  29.948  12.482
 1316W        W73631  21.098  13.745  12.471
 1317W        W73632  15.278   3.842   1.846
 1318W        W73633  10.270   5.924   0.880
 1319W        W73634   1.971  17.570   2.690
 1320W        W73635   5.318  41.333   0.377
 1321W        W73636  19.661   9.279  14.928
 1322W        W73637  24.587  29.451   1.308
 1323W        W73638  29.446  17.153   0.894
 1324W        W73639  26.163   7.298  14.357
 1325W        W73640  28.028  44.886   0.426
 1326W        W73641  41.971  19.245   2.699
 1327W        W73642  10.316  10.205   0.943
 1328W        W73643  30.651  35.522  11.384
 1329W        W73644  29.009  38.450  12.515
 1330W        W73645  22.195  22.067  11.516
 1331W        W73646   5.724  36.380   4.236
 1332W        W73647  24.040  40.970  14.305
 1333W        W73648  33.910  11.349   4.219
 1334W        W73649  13.298  34.868  14.919
 1335W        W73650  10.812   0.956   4.797
 1336W        W73651  22.253   2.804  13.382
 1337W        W73652   3.812  32.120   0.394
 1338W        W73653   9.707  13.786  11.379
 1339W        W73654  25.027   1.477  13.961
 1340W        W73655  24.696  21.139   1.931
 1341W        W73656  14.672  11.848   1.926
 1342W        W73657  16.128  16.200   3.323
 1343W        W73658  22.158  17.649   1.802
 1344W        W73659  42.494  19.060  14.837
 1345W        W73660  34.913  24.134   2.685
 1346W        W73661  32.545  31.914  14.415
 1347W        W73662  27.685  12.149   0.481
 1348W        W73663  11.284  23.582   2.186
 1349W        W73664  31.982  29.098   2.800
 1350W        W73665  33.973  13.153  10.426
 1351W        W73666  27.467   2.873   2.385
 1352W        W73667  32.019  22.682   3.268
 1353W        W73668  11.623   3.234  13.405
 1354W        W73669  41.912  24.222  14.787
 1355W        W73670  32.394  28.990   0.456
 1356W        W73671  35.522  32.965  13.382
 1357W        W73672  33.935  36.524  14.005
 1358W        W73673   7.706   1.737  11.397
 1359W        W73674   5.799  44.922   0.351
 1360W        W73675  31.032  21.073   4.213
 1361W        W73676   6.369  44.840   4.273
 1362W        W73677  31.991  42.396   0.371
 1363W        W73678  39.543  13.752   3.174
 1364W        W73679   9.855  35.400  12.053
 1365W        W73680  36.914   5.851  11.016
 1366W        W73681  44.388  18.611   0.808
 1367W        W73682  29.933  44.937  12.079
 1368W        W73683   6.316  40.001   3.299
 1369W        W73684  20.168  35.527   4.609
 1370W        W73685  20.725  38.854   1.310
 1371W        W73686  37.913  29.583   1.772
 1372W        W73687  14.271  28.512  11.000
 1373W        W73688   0.409  40.940  13.483
 1374W        W73689   8.290  11.815   1.318
 1375W        W73690  19.133  18.665  13.359
 1376W        W73691  28.550  31.636  10.405
 1377W        W73692  34.906  13.780   3.707
 1378W        W73693  14.705  17.734   0.754
 1379W        W73694  19.772  29.666   1.723
 1380W        W73695  17.125  26.539   2.287
 1381W        W73696  22.025  14.619  11.057
 1382W        W73697  44.950   5.881   2.823
 1383W        W73698   0.751  18.575   4.837
 1384W        W73699  17.167  28.994  13.019
 1385W        W73700   9.356  40.010   3.185
 1386W        W73701  21.050   4.699   1.400
 1387W        W73702   9.732  28.541   4.814
 1388W        W73703  24.579  13.807   3.272
 1389W        W73704  39.047  42.456  12.061
 1390W        W73705  41.883  17.799  13.856
 1391W        W73706   7.745  12.749   4.616
 1392W        W73707  19.220  16.784   4.832
 1393W        W73708   4.308  16.679  11.581
 1394W        W73709  17.126  41.478  10.987
 1395W        W73710  40.349  20.112  10.618
 1396W        W73711  20.259   5.809   0.731
 1397W        W73712   4.235  26.136  10.959
 1398W        W73713   9.217   7.388   4.176
 1399W        W73714  36.061  16.311  11.476
 1400W        W73715  30.538  23.028   2.391
 1401W        W73716   6.788   2.296   2.895
 1402W        W73717  20.093   7.379  13.376
 1403W        W73718  36.010  25.613   3.672
 1404W        W73719   5.295  25.181  13.361
 1405W        W73720   1.818   1.801  10.935
 1406W        W73721   5.336  16.708  14.939
 1407W        W73722  21.679  21.197   2.271
 1408W        W73723   1.269  10.167   4.289
 1409W        W73724  39.066   3.399  14.324
 1410W        W73725  16.771  18.227   3.231
 1411W        W73726  30.115   6.337   4.668
 1412W        W73727  31.994  40.941  13.447
 1413W        W73728  10.720  22.016  12.346
 1414W        W73729  43.510  12.745   1.339
 1415W        W73730  26.118  35.405  14.478
 1416W        W73731   6.230   4.814   5.292
 1417W        W73732  23.986  32.926  12.076
 1418W        W73733   2.261   4.944   1.239
 1419W        W73734  34.500  28.494  11.407
 1420W        W73735  15.688   0.355  12.414
 1421W        W73736  38.921   5.300   3.159
 1422W        W73737  16.137  23.004  14.335
 1423W        W73738  21.595  11.193  11.473
 1424W        W73739  15.124  12.178   1.260
 1425W        W73740   5.866  21.692  11.047
 1426W        W73741   0.765  33.927  14.417
 1427W        W73742   5.848  17.774  10.914
 1428W        W73743  39.554  11.809   2.376
 1429W        W73744  15.250  40.366  13.486
 1430W        W73745   7.858   4.870   0.249
 1431W        W73746  43.319  29.023   4.228
 1432W        W73747  12.735  31.132  11.074
 1433W        W73748   9.378  33.099   4.812
 1434W        W73749  12.620   8.302  14.469
 1435W        W73750  24.094  28.144   2.717
 1436W        W73751  23.584   2.883  11.456
 1437W        W73752   2.835   6.684  14.784
 1438W        W73753  32.048  25.527   1.342
 1439W        W73754  14.706  36.982  10.454
 1440W        W73755  38.516  12.221  12.558
 1441W        W73756   1.306  14.121   4.736
 1442W        W73757  14.611   4.287   0.260
 1443W        W73758   1.970   1.386  13.938
 1444W        W73759   6.363  21.048  12.017
 1445W        W73760  31.553  31.950  11.891
 1446W        W73761  29.088   6.372   0.731
 1447W        W73762  34.030  37.932  12.030
 1448W        W73763  29.008  37.409  10.932
 1449W        W73764  27.521  18.685   1.846
 1450W        W73765  27.538  15.682  10.958
 1451W        W73766  36.443   5.912  10.435
 1452W        W73767  42.888  13.255  14.292
 1453W        W73768  39.975  43.325  12.414
 1454W        W73769  43.800  10.296  12.357
 1455W        W73770  43.805  20.648   4.271
 1456W        W73771  43.846  36.892   0.363
 1457W        W73772  16.196  38.480  13.940
 1458W        W73773  27.168  40.430  14.436
 1459W        W73774  22.715   2.230   0.342
 1460W        W73775  39.464  21.547  10.640
 1461W        W73776  17.684  39.854  11.529
 1462W        W73777  17.064  43.288   1.747
 1463W        W73778   9.725  29.629  12.956
 1464W        W73779  37.030  21.644   0.364
 1465W        W73780   8.354  11.271   2.684
 1466W        W73781  17.655  27.077  12.052
 1467W        W73782  27.458  30.143   4.787
 1468W        W73783  13.759   9.713   4.621
 1469W        W73784  21.722  18.621  14.947
 1470W        W73785  41.890  39.556   1.832
 1471W        W73786   0.820  38.446   1.433
 1472W        W73787   7.769   9.735   0.286
 1473W        W73788   0.466  37.998   4.258
 1474W        W73789  44.775  14.601   2.396
 1475W        W73790  30.599   1.397  14.833
 1476W        W73791   3.755  22.191  13.379
 1477W        W73792   3.877  27.974   2.202
 1478W        W73793   0.412   8.215  13.970
 1479W        W73794  12.660  30.914  10.436
 1480W        W73795   5.406  42.409   2.778
 1481W        W73796  43.946   3.217   4.247
 1482W        W73797  21.570  28.980  11.094
 1483W        W73798  36.903  23.059   0.398
 1484W        W73799  32.111  15.787  13.462
 1485W        W73800  24.702  15.659  14.461
 1486W        W73801   2.906  43.939   0.284
 1487W        W73802   4.780  26.519  12.527
 1488W        W73803  40.938  26.197   4.665
 1489W        W73804  21.144  13.824   3.721
 1490W        W73805  26.586  44.393  12.397
 1491W        W73806   1.411   9.735   5.724
 1492W        W73807   8.175  15.316  10.443
 1493W        W73808  42.458  25.655   3.770
 1494W        W73809   1.865  22.736   1.825
 1495W        W73810  28.133  14.272  11.469
 1496W        W73811   3.833  20.634  10.441
 1497W        W73812  33.102  29.589  13.943
 1498W        W73813  34.581  25.175  12.008
 1499W        W73814   7.911  30.465  10.917
 1500W        W73815  13.624  24.513   2.898
 1501W        W73816  11.236  35.502  13.373
 1502W        W73817  28.127   3.733  10.464
 1503W        W73818  32.104  39.997  13.907
 1504W        W73819   1.961  30.069  10.423
 1505W        W73820  17.595  10.292  11.961
 1506W        W73821  32.953  33.623  11.593
 1507W        W73822   5.410   3.729  10.498
 1508W        W73823  11.251  19.192  13.798
 1509W        W73824  39.008  10.236  11.466
 1510W        W73825  18.768  40.961  11.041
 1511W        W73826  43.823  38.474   4.612
 1512W        W73827  17.294  42.849  10.897
 1513W        W73828  20.739   3.375   1.409
 1514W        W73829  10.316  23.682  12.030
 1515W        W73830  30.633  10.253   1.915
 1516W        W73831  35.101  41.931   2.290
 1517W        W73832  27.955  21.100  13.845
 1518W        W73833  35.479  43.422   2.215
 1519W        W73834  33.996  15.714  12.919
 1520W        W73835  40.934  18.648  11.373
 1521W        W73836   0.768  38.568  11.502
 1522W        W73837   6.252  16.755   1.265
 1523W        W73838  14.631  43.497  13.337
 1524W        W73839   7.686  36.539   4.789
 1525W        W73840  25.149   7.231   1.307
 1526W        W73841  24.107  37.892  11.986
 1527W        W73842  22.252   2.810  14.813
 1528W        W73843  30.414  36.038   1.305
 1529W        W73844  33.579   4.707  13.353
 1530W        W73845  40.425  43.370   0.311
 1531W        W73846  37.939  40.501   2.747
 1532W        W73847  26.007  37.015  13.390
 1533W        W73848  20.197  11.253  14.457
 1534W        W73849  15.791  15.706  11.384
 1535W        W73850  36.855  24.560  14.297
 1536W        W73851  12.843  36.537  13.444
 1537W        W73852  14.627  27.033  14.401
 1538W        W73853   9.728  24.182  14.336
 1539W        W73854  44.354  35.402   1.376
 1540W        W73855  27.024  21.166  11.996
 1541W        W73856  24.205  11.737   5.185
 1542W        W73857  18.587  42.519  12.023
 1543W        W73858  38.459  43.414  12.529
 1544W        W73859  11.160  36.525   2.706
 1545W        W73860  38.849  43.400  11.561
 1546W        W73861  21.229  14.285  12.907
 1547W        W73862  14.790   1.447  13.928
 1548W        W73863  12.129  20.743  12.928
 1549W        W73864  26.197  24.990  11.559
 1550W        W73865   7.853  40.818  14.443
 1551W        W73866  23.682  35.504   0.407
 1552W        W73867  36.042  15.778  11.937
 1553W        W73868   2.253  36.480   2.380
 1554W        W73869  36.395   4.701  10.919
 1555W        W73870   7.802  14.267  10.917
 1556W        W73871  12.698  33.000   2.666
 1557W        W73872   1.879   3.235   3.695
 1558W        W73873  32.439  24.165   4.265
 1559W        W73874  18.083   8.820  12.092
 1560W        W73875  43.828   1.812   3.737
 1561W        W73876   3.242  30.416  14.314
 1562W        W73877   1.436  44.943   2.288
 1563W        W73878  40.897  24.528  11.126
 1564W        W73879  28.496  20.571  12.981
 1565W        W73880   4.442   2.877   3.211
 1566W        W73881  44.454  32.516   0.946
 1567W        W73882  15.133  28.677   3.287
 1568W        W73883  31.580  31.529  12.572
 1569W        W73884  30.946  32.587   3.656
 1570W        W73885  44.337  31.025  11.376
 1571W        W73886  10.735  20.750   2.305
 1572W        W73887  29.971   2.432  14.970
 1573W        W73888  20.602  26.613   4.626
 1574W        W73889  40.392   4.283  12.910
 1575W        W73890  24.089  26.207  11.613
 1576W        W73891   6.728   7.881   3.154
 1577W        W73892  32.580   3.375  12.994
 1578W        W73893   8.255  39.383  12.416
 1579W        W73894   3.433   5.834  10.557
 1580W        W73895  26.591  21.124  13.393
 1581W        W73896  17.158  43.378  10.478
 1582W        W73897  10.278  37.900  12.000
 1583W        W73898  26.493   8.790   9.930
 1584W        W73899  14.140  32.613   1.700
 1585W        W73900  37.076  35.961  11.091
 1586W        W73901  14.179  31.485   0.840
 1587W        W73902  17.719  31.012   5.128
 1588W        W73903  39.891  36.516  12.858
 1589W        W73904  26.995  15.143  10.449
 1590W        W73905  24.554  44.452  13.546
 1591W        W73906  31.037   5.746   1.741
 1592W        W73907   2.377  19.247  11.077
 1593W        W73908   3.748  12.662   5.123
 1594W        W73909  27.181  21.079  14.485
 1595W        W73910   7.833  25.986   0.802
 1596W        W73911  19.274  40.919  14.396
 1597W        W73912  39.504   6.385  13.795
 1598W        W73913  11.689  26.118  12.526
 1599W        W73914  25.203  40.842   3.201
 1600W        W73915   1.977  42.986  12.977
 1601W        W73916  12.311  32.903  14.962
 1602W        W73917  37.058   2.441   0.755
 1603W        W73918   0.363   0.932   2.769
 1604W        W73919   5.738  14.701   1.932
 1605W        W73920  19.272   8.328   4.702
 1606W        W73921  31.913  28.506   0.909
 1607W        W73922   8.885  30.035  13.876
 1608W        W73923   9.205   7.687  13.814
 1609W        W73924   4.318  36.426   1.411
 1610W        W73925  40.332   2.239   4.352
 1611W        W73926  14.698  42.823   4.758
 1612W        W73927  16.685  33.118   0.733
 1613W        W73928  26.958  44.924   1.869
 1614W        W73929  35.060   2.270  13.405
 1615W        W73930  35.534  30.945  13.902
 1616W        W73931   2.816  19.165  11.119
 1617W        W73932  19.540   9.821   3.717
 1618W        W73933  44.929  12.825   9.587
 1619W        W73934  12.293   3.720   0.927
 1620W        W73935  28.151  23.117  10.561
 1621W        W73936  13.185   6.743  12.830
 1622W        W73937  10.832  12.753   0.894
 1623W        W73938  40.944  36.352   4.797
 1624W        W73939  28.972  42.396   3.680
 1625W        W73940  30.589  14.763   4.351
 1626W        W73941  24.630  29.023   1.892
 1627W        W73942  23.201   1.281  12.576
 1628W        W73943  15.305  17.123   4.656
 1629W        W73944  31.948  24.725  10.524
 1630W        W73945  12.781   6.923  11.405
 1631W        W73946  27.193  25.074  14.774
 1632W        W73947  29.653  13.276   0.896
 1633W        W73948  40.452  32.088   2.321
 1634W        W73949  44.923  21.671  12.509
 1635W        W73950  37.497   1.850  10.893
 1636W        W73951  27.193  42.325   1.326
 1637W        W73952  26.994   7.214   3.355
 1638W        W73953  17.606  30.579  12.872
 1639W        W73954  18.593  12.198  13.795
 1640W        W73955  31.981   3.458   1.780
 1641W        W73956  35.387  21.553  13.909
 1642W        W73957  42.028   9.682  11.438
 1643W        W73958  23.732   2.797  10.506
 1644W        W73959  37.854  25.052   3.774
 1645W        W73960  35.958  28.028   3.638
 1646W        W73961   8.265  19.238   1.887
 1647W        W73962  36.392  35.853   1.245
 1648W        W73963  38.559  29.665  11.550
 1649W        W73964  37.834  38.494  14.417
 1650W        W73965  10.797  28.947  14.007
 1651W        W73966  34.988   6.297  11.518
 1652W        W73967  29.643  12.805  13.402
 1653W        W73968   9.721  40.932   0.398
 1654W        W73969  28.077  21.750   4.833
 1655W        W73970  20.158   1.426   4.141
 1656W        W73971  22.671  18.704  13.964
 1657W        W73972   4.909  33.102   1.276
 1658W        W73973  25.120  25.683   1.751
 1659W        W73974  14.222   0.752   3.160
 1660W        W73975  17.291  43.962  14.450
 1661W        W73976  29.590  35.384   0.344
 1662W        W73977  23.160  32.055  12.848
 1663W        W73978  25.984  18.216  10.405
 1664W        W73979  28.583   8.301   2.812
 1665W        W73980  43.949   1.264   0.281
 1666W        W73981  26.189  18.754  13.438
 1667W        W73982  32.139  34.423   4.182
 1668W        W73983   3.423   9.151   1.350
 1669W        W73984  20.692   5.934   1.383
 1670W        W73985  18.183  21.221  12.414
 1671W        W73986   1.909  15.650   0.783
 1672W        W73987  29.460   6.420   5.236
 1673W        W73988  27.041  41.037   3.657
 1674W        W73989  10.831  42.438  10.615
 1675W        W73990   5.721  39.880   3.841
 1676W        W73991  26.472  39.979   4.833
 1677W        W73992  33.972  10.751   2.369
 1678W        W73993  43.868  10.638   4.668
 1679W        W73994  36.986   8.766   2.362
 1680W        W73995  40.945   5.871   3.181
 1681W        W73996  19.235  28.506  11.889
 1682W        W73997  27.081  14.178  11.436
 1683W        W73998  37.966  42.815   1.419
 1684W        W73999  26.642   5.870  12.949
 1685W        W74000  32.583  43.985   2.183
 1686W        W74001  14.682   2.833   4.301
 1687W        W74002  28.158  31.543   4.780
 1688W        W74003  29.005  26.572  14.834
 1689W        W74004  13.786  20.093  11.081
 1690W        W74005  43.015  33.029   4.789
 1691W        W74006  33.930   8.735  10.944
 1692W        W74007  26.959  10.239   4.200
 1693W        W74008  37.043   0.268  13.983
 1694W        W74009  15.757  24.980  11.423
 1695W        W74010  29.975  31.957  11.408
 1696W        W74011  20.716  11.797   4.715
 1697W        W74012  35.927  15.659  10.574
 1698W        W74013  18.625  11.234   3.805
 1699W        W74014  15.183  15.286  13.007
 1700W        W74015  28.016  42.343   3.744
 1701W        W74016  40.405  40.987  14.334
 1702W        W74017  12.304  37.065   3.166
 1703W        W74018  22.522  17.728   3.339
 1704W        W74019   6.831   7.722  14.979
 1705W        W74020  43.357  32.564  10.898
 1706W        W74021   9.776  43.307  10.531
 1707W        W74022  14.718  29.117  13.364
 1708W        W74023   3.922   6.762  13.041
 1709W        W74024  35.105  27.069  10.566
 1710W        W74025  44.991  34.001   0.871
 1711W        W74026   8.179  23.721   4.645
 1712W        W74027   6.698   5.818  14.430
 1713W        W74028  20.173  15.792  10.473
 1714W        W74029  14.112  11.148  11.573
 1715W        W74030   3.937  36.559   3.211
 1716W        W74031   3.386   3.764  14.427
 1717W        W74032  41.391  15.798   3.166
 1718W        W74033  23.530  34.006  13.823
 1719W        W74034  30.507  22.562   4.770
 1720W        W74035  17.211   8.257   0.438
 1721W        W74036   0.825  18.620   4.352
 1722W        W74037  42.311  15.321  14.392
 1723W        W74038  15.083  24.723   4.146
 1724W        W74039  27.944  42.969  11.006
 1725W        W74040  13.714   2.940  10.540
 1726W        W74041  16.728  31.447   3.385
 1727W        W74042  12.743  44.414  11.414
 1728W        W74043  13.757  25.183  11.406
 1729W        W74044   3.891  19.577  14.781
 1730W        W74045  39.495   2.865   1.919
 1731W        W74046  28.124  27.181  14.820
 1732W        W74047  40.955  39.856  11.061
 1733W        W74048  12.850  41.311   3.840
 1734W        W74049  16.769  13.143  14.302
 1735W        W74050  36.943  43.837   3.171
 1736W        W74051  43.774  36.567   1.297
 1737W        W74052  44.973  43.330   4.231
 1738W        W74053  24.646  11.864   3.700
 1739W        W74054  11.343  19.125   5.758
 1740W        W74055  11.339  20.107  11.553
 1741W        W74056  37.850  13.105   2.216
 1742W        W74057   8.861  34.908  13.414
 1743W        W74058   6.694   7.883   4.223
 1744W        W74059  31.970  22.187  12.481
 1745W        W74060  11.172  25.971   1.780
 1746W        W74061  32.599  28.947   2.688
 1747W        W74062   6.277  16.686   0.867
 1748W        W74063  28.072   4.857   0.806
 1749W        W74064   5.322  44.378  14.938
 1750W        W74065  10.153  39.423   0.777
 1751W        W74066   6.836   2.413   4.815
 1752W        W74067   8.245   1.455   3.665
 1753W        W74068   6.311  44.981   1.409
 1754W        W74069  20.582  20.058   2.855
 1755W        W74070  12.629  20.723   1.721
 1756W        W74071  35.365   4.728   1.925
 1757W        W74072  26.158  17.119  10.898
 1758W        W74073   3.858  20.129  12.493
 1759W        W74074   3.390  19.133   3.801
 1760W        W74075  34.008  42.937   3.832
 1761W        W74076  10.734  31.509  12.509
 1762W        W74077  17.763  30.148  10.450
 1763W        W74078   4.934  20.141   0.471
 1764W        W74079   7.693  36.054  11.865
 1765W        W74080  40.343  36.458   3.854
 1766W        W74081   7.707  29.125  13.939
 1767W        W74082  33.616   9.171  10.451
 1768W        W74083   3.739  43.864  12.982
 1769W        W74084   3.287   9.737  10.134
 1770W        W74085   9.730  11.790   2.757
 1771W        W74086  38.362  37.337   1.368
 1772W        W74087   8.396   5.884  10.607
 1773W        W74088  33.065  41.372  12.547
 1774W        W74089  29.622  30.574   3.799
 1775W        W74090  10.313  44.494   4.207
 1776W        W74091  25.701  35.574   4.216
 1777W        W74092  10.308  33.475   3.374
 1778W        W74093  39.942  38.380  12.933
 1779W        W74094  20.672   3.409  12.375
 1780W        W74095   1.414  32.049  13.964
 1781W        W74096  20.234  20.080   1.923
 1782W        W74097   0.292  36.560   4.798
 1783W        W74098  29.552  22.674  13.024
 1784W        W74099   6.415  30.976  13.508
 1785W        W74100  39.023  13.816  14.825
 1786W        W74101  36.366   3.294  14.287
 1787W        W74102  13.726  19.232   4.192
 1788W        W74103  20.732  17.225   3.685
 1789W        W74104  32.142  25.639   2.867
 1790W        W74105   7.373   2.853  14.485
 1791W        W74106  13.222  32.555   0.962
 1792W        W74107  39.849  44.344   3.666
 1793W        W74108  15.166  18.581  11.612
 1794W        W74109  10.338   8.688  14.992
 1795W        W74110  19.267  22.523  14.496
 1796W        W74111  28.538  42.911   3.262
 1797W        W74112  11.834  28.091  11.464
 1798W        W74113  26.499  13.800   2.732
 1799W        W74114  28.996  16.158   0.456
 1800W        W74115  35.019  35.961   4.206
 1801W        W74116  20.065  13.344  12.042
 1802W        W74117   4.409  38.347  11.893
 1803W        W74118  21.153  15.177   3.726
 1804W        W74119  35.453  20.273   4.185
 1805W        W74120  30.625  10.255  12.961
 1806W        W74121  38.406  13.666  13.833
 1807W        W74122  24.992  23.019   4.147
 1808W        W74123  13.623  13.109  14.404
 1809W        W74124  22.196  14.714  14.327
 1810W        W74125  35.900  21.095   1.705
 1811W        W74126  20.074   5.782   2.878
 1812W        W74127  42.015  29.513  12.533
 1813W        W74128   6.698  23.179   0.466
 1814W        W74129  23.588  25.492   3.704
 1815W        W74130  23.200  37.390   4.777
 1816W        W74131  34.050   7.738   3.645
 1817W        W74132   7.845  11.234   4.271
 1818W        W74133  37.921   2.726  11.404
 1819W        W74134  22.516   9.292  10.562
 1820W        W74135  40.495  24.018   4.278
 1821W        W74136  33.942   2.336  12.873
 1822W        W74137  36.044   2.954  12.892
 1823W        W74138  17.146   4.933  14.861
 1824W        W74139  19.162  36.083  13.831
 1825W        W74140   3.303  36.886  11.893
 1826W        W74141  10.210  41.917   4.295
 1827W        W74142  10.178   6.745  10.592
 1828W        W74143  15.161   6.376   2.843
 1829W        W74144  21.590  22.572   0.341
 1830W        W74145  30.943   4.243  10.465
 1831W        W74146  14.222  32.968  13.448
 1832W        W74147   6.216  10.637  13.031
 1833W        W74148  44.896  12.152   5.150
 1834W        W74149  14.109  14.777   4.631
 1835W        W74150   7.373  41.320   0.400
 1836W        W74151  17.071  30.472   0.420
 1837W        W74152   9.304  21.136  11.092
 1838W        W74153   5.313  18.160  14.380
 1839W        W74154  40.415  10.742  13.486
 1840W        W74155  40.351  41.022  12.372
 1841W        W74156  37.902  26.600  11.597
 1842W        W74157  36.443  27.684   1.782
 1843W        W74158  40.857  27.142  13.336
 1844W        W74159  16.207  31.514  13.546
 1845W        W74160   8.689  36.002  11.924
 1846W        W74161  23.582  38.469  12.092
 1847W        W74162  19.736  13.299  12.945
 1848W        W74163  21.689  26.111   0.257
 1849W        W74164  10.367  10.672  11.037
 1850W        W74165  21.050  13.168  12.015
 1851W        W74166   2.386  36.089   4.705
 1852W        W74167  42.489  25.078  12.940
 1853W        W74168  13.708  13.195  12.915
 1854W        W74169  39.050   2.921  11.560
 1855W        W74170  38.922  23.093  13.971
 1856W        W74171  21.700  43.508   2.395
 1857W        W74172  19.779  10.169  13.407
 1858W        W74173  43.376  24.154  12.895
 1859W        W74174  30.500  31.590  10.925
 1860W        W74175   0.763  41.951   3.355
 1861W        W74176   3.855  29.074   2.333
 1862W        W74177  28.052  12.678  12.999
 1863W        W74178  18.158  35.026   2.857
 1864W        W74179  44.829  36.488   2.757
 1865W        W74180  36.891  13.710  14.944
 1866W        W74181  33.453   7.668  11.416
 1867W        W74182  40.325  36.845  10.563
 1868W        W74183   2.789  30.446   3.218
 1869W        W74184  20.650   7.298   2.258
 1870W        W74185   3.907  36.916  11.872
 1871W        W74186  14.252   4.786  14.482
 1872W        W74187  12.647  29.637  13.814
 1873W        W74188  41.887  12.725  11.869
 1874W        W74189  34.368  30.088   1.907
 1875W        W74190   4.318  30.486   4.774
 1876W        W74191  37.559  20.168  14.486
 1877W        W74192   9.226  29.946   0.458
 1878W        W74193  26.483  27.683   3.762
 1879W        W74194  41.794  18.227  12.382
 1880W        W74195  34.112   4.209  11.548
 1881W        W74196  28.997  26.961   0.461
 1882W        W74197   8.168  14.243  12.496
 1883W        W74198  40.374  26.519  14.854
 1884W        W74199  32.114  22.998  10.911
 1885W        W74200   5.285  37.887  10.913
 1886W        W74201  15.600  18.259   4.792
 1887W        W74202  19.042  25.713   0.284
 1888W        W74203  30.510  39.002   3.318
 1889W        W74204  17.681  16.694  11.101
 1890W        W74205  21.122  39.986   3.276
 1891W        W74206  39.951  19.769  14.978
 1892W        W74207  30.444  44.349   1.737
 1893W        W74208  42.380  16.088   0.880
 1894W        W74209  21.675   4.349  12.389
 1895W        W74210  43.323  27.553  14.338
 1896W        W74211  22.129  28.005  14.958
 1897W        W74212   4.880  20.560   4.710
 1898W        W74213  10.858  10.780   3.167
 1899W        W74214  32.508  19.650  12.063
 1900W        W74215  20.102  13.709  12.835
 1901W        W74216  15.165  41.950  10.536
 1902W        W74217  38.381   1.876  11.562
 1903W        W74218  11.733  30.991   4.801
 1904W        W74219  19.688  37.929  12.901
 1905W        W74220  31.565  36.940  12.375
 1906W        W74221  29.552   1.960  12.066
 1907W        W74222  35.937  17.561   0.961
 1908W        W74223  36.487  36.440   0.441
 1909W        W74224  43.960  23.194   2.274
 1910W        W74225  17.608  35.503  10.928
 1911W        W74226  42.989  25.646   1.764
 1912W        W74227   8.703   9.756   2.875
 1913W        W74228   4.869  30.006   4.813
 1914W        W74229  33.934   1.837   3.196
 1915W        W74230  13.818  24.662  10.903
 1916W        W74231  38.850  11.144  12.419
 1917W        W74232  12.141  38.851   3.166
 1918W        W74233   8.777  18.772   1.377
 1919W        W74234  36.391   0.817   2.727
 1920W        W74235  12.829  21.730  12.854
 1921W        W74236  23.584  26.557  10.998
 1922W        W74237  32.418  40.523  14.788
 1923W        W74238  37.973  32.050   3.768
 1924W        W74239  24.017  33.556   4.660
 1925W        W74240  14.314   3.861  10.619
 1926W        W74241  11.637  39.387  14.867
 1927W        W74242  37.368  40.432  11.383
 1928W        W74243  39.008  29.526  11.939
 1929W        W74244  18.775  41.980   2.863
 1930W        W74245   0.867   9.231   1.715
 1931W        W74246   5.312   3.281  10.993
 1932W        W74247  37.418   7.300   0.477
 1933W        W74248  27.948  36.488  11.969
 1934W        W74249   4.770  13.816   2.759
 1935W        W74250   5.428  32.431   4.347
 1936W        W74251   9.226  42.458   1.747
 1937W        W74252  44.852  37.057   4.348
 1938W        W74253  40.548  28.966   3.709
 1939W        W74254  44.784  36.075  10.488
 1940W        W74255  41.998  15.603   2.299
 1941W        W74256  38.396  38.006  14.331
 1942W        W74257  22.729  40.990  10.433
 1943W        W74258  37.497  30.071  13.989
 1944W        W74259  40.413  37.971   0.276
 1945W        W74260   3.792  35.043  14.497
 1946W        W74261  27.523   7.373   2.303
 1947W        W74262  40.429  29.609   1.791
 1948W        W74263   2.952  22.075  10.948
 1949W        W74264  24.122  32.063  13.511
 1950W        W74265   6.396   4.213   3.869
 1951W        W74266  42.893  14.296  14.353
 1952W        W74267  20.181  31.510  14.359
 1953W        W74268   1.282  29.547  11.585
 1954W        W74269  37.451   8.256   1.880
 1955W        W74270  19.702  26.637   3.225
 1956W        W74271   7.293  31.898   2.899
 1957W        W74272   8.897  36.866   0.898
 1958W        W74273  34.958  34.007   4.312
 1959W        W74274  11.689   0.898   2.222
 1960W        W74275  17.184  20.562  11.914
 1961W        W74276  14.730   8.373   3.680
 1962W        W74277  25.206  35.367  14.792
 1963W        W74278   4.335  10.665  14.491
 1964W        W74279  22.573   7.281   1.269
 1965W        W74280   3.228  43.429   3.376
 1966W        W74281  41.513  31.530   3.807
 1967W        W74282  43.392  21.195   1.366
 1968W        W74283  16.782  24.610   1.725
 1969W        W74284  13.288  10.173  14.971
 1970W        W74285  15.709  42.963  12.538
 1971W        W74286   6.812  11.219   4.777
 1972W        W74287  32.590  41.295   5.312
 1973W        W74288   8.213   4.722  10.409
 1974W        W74289  38.932  39.995   0.424
 1975W        W74290  10.764  18.125   2.389
 1976W        W74291   9.663   5.739   0.884
 1977W        W74292   0.966   6.741   2.195
 1978W        W74293  15.719  17.705  10.450
 1979W        W74294   4.422   4.440  14.389
 1980W        W74295  12.842  30.147   0.411
 1981W        W74296  31.111  21.675   4.663
 1982W        W74297  29.443  37.012   4.716
 1983W        W74298   5.742  40.819   3.244
 1984W        W74299  23.736  24.597  14.352
 1985W        W74300  38.877  17.288  14.002
 1986W        W74301   2.462  38.928  11.026
 1987W        W74302  23.002  40.374  11.485
 1988W        W74303  42.295   7.248  10.923
 1989W        W74304  21.052  13.248  10.407
 1990W        W74305  44.782  20.744  11.611
 1991W        W74306   4.908  26.181  11.380
 1992W        W74307  13.284   0.931   0.918
 1993W        W74308  44.872  41.436  14.961
 1994W        W74309  12.183  44.907   0.830
 1995W        W74310  26.693  13.600  12.021
 1996W        W74311  22.734  23.691  13.880
 1997W        W74312   4.231  30.161   3.809
 1998W        W74313  10.648   4.247   2.720
 1999W        W74314  40.404  37.012   4.750
 2000W        W74315  14.193  20.527  12.510
 2001W        W74316  39.950  43.378   4.709
 2002W        W74317  38.963  19.118  11.998
 2003W        W74318  31.153  41.347   1.420
 2004W        W74319  39.524  33.091   2.298
 2005W        W74320  29.016   2.403   4.755
 2006W        W74321  33.956   2.394   2.874
 2007W        W74322   5.361   7.291   3.696
 2008W        W74323  19.279  11.796   1.741
 2009W        W74324  27.550  12.175   2.204
 2010W        W74325  13.694  17.208   1.917
 2011W        W74326  30.082  14.750  12.839
 2012W        W74327  38.337  19.073  14.433
 2013W        W74328   3.828  20.554   3.669
 2014W        W74329  18.131  24.578   2.819
 2015W        W74330  15.146   4.236   4.631
 2016W        W74331  17.802   7.259   1.395
 2017W        W74332  44.992  22.218   3.185
 2018W        W74333   8.789  12.151   2.361
 2019W        W74334   0.453  29.579   1.264
 2020W        W74335  24.705  12.214   4.184
 2021W        W74336  24.094   5.396   4.123
 2022W        W74337  33.976  28.540   1.803
 2023W        W74338  24.697  33.981  14.330
 2024W        W74339  31.531   2.457  10.582
 2025W        W74340  23.170  27.105  11.015
 2026W        W74341  27.147  43.455   0.269
 2027W        W74342  25.647  32.970  13.429
 2028W        W74343  43.348  17.616  14.873
 2029W        W74344   1.879  35.493   1.377
 2030W        W74345  36.508   0.388  14.760
 2031W        W74346  22.247  41.324  10.601
 2032W        W74347  25.684  28.619  12.834
 2033W        W74348  29.924  18.740  11.125
 2034W        W74349  21.543  41.478   4.635
 2035W        W74350   0.471  11.856  11.097
 2036W        W74351  42.336  17.148  13.384
 2037W        W74352  24.025  27.125   3.275
 2038W        W74353  18.285  27.128   2.745
 2039W        W74354   0.811  36.968   1.709
 2040W        W74355   2.297  39.021  10.099
 2041W        W74356   8.892  25.214   3.723
 2042W        W74357  14.735  32.041   9.936
 2043W        W74358   2.434  27.133  10.448
 2044W        W74359   1.395  21.596  10.948
 2045W        W74360  37.921  37.552   0.837
 2046W        W74361  22.592  33.069   1.798
 2047W        W74362  36.994  13.308   3.866
 2048W        W74363  27.632  32.037  10.928
 2049W        W74364   8.792  24.108   2.791
 2050W        W74365  40.435  28.024   2.240
 2051W        W74366  15.819  18.111   0.816
 2052W        W74367   2.341  41.824   2.739
 2053W        W74368  25.978  32.122   2.336
 2054W        W74369  21.029   3.309   0.828
 2055W        W74370  20.161  13.260   0.754
 2056W        W74371  32.001  37.569  10.456
 2057W        W74372  34.046  17.258  11.064
 2058W        W74373  20.089   3.749   0.900
 2059W        W74374  27.144  20.629   4.710
 2060W        W74375  44.816   3.330   3.782
 2061W        W74376  24.718  23.584   0.382
 2062W        W74377  12.677   9.667   1.823
 2063W        W74378  32.054   5.277  13.543
 2064W        W74379  17.162   4.398  10.937
 2065W        W74380  18.088  10.343   5.265
 2066W        W74381  16.745  39.331   2.272
 2067W        W74382  16.210  14.235   0.765
 2068W        W74383  15.123  10.877  10.424
 2069W        W74384  33.892  24.003   4.127
 2070W        W74385  30.572  44.382   4.707
 2071W        W74386  35.916   7.790  10.895
 2072W        W74387  42.318  27.604   2.822
 2073W        W74388   0.812  20.051  12.842
 2074W        W74389   7.820  19.555   5.087
 2075W        W74390  37.394  40.846  13.058
 2076W        W74391  37.976  36.574  13.898
 2077W        W74392  17.204   8.660  11.006
 2078W        W74393   8.898  34.420  11.060
 2079W        W74394  23.705  13.170   0.293
 2080W        W74395  30.612   6.240   4.632
 2081W        W74396  42.295  38.352  14.814
 2082W        W74397  10.825  35.527  11.062
 2083W        W74398  32.940  21.687  10.561
 2084W        W74399  34.606  35.470   3.213
 2085W        W74400  35.588  41.357   2.343
 2086W        W74401  28.569   7.892   1.365
 2087W        W74402   3.735   4.890   0.304
 2088W        W74403  29.612  37.477  11.971
 2089W        W74404  32.406  34.445   3.789
 2090W        W74405  31.037  14.207  11.449
 2091W        W74406  39.038  11.275   0.349
 2092W        W74407  32.923  40.511   4.770
 2093W        W74408  35.919  29.034   2.191
 2094W        W74409  14.319  18.547   4.833
 2095W        W74410  20.254  33.456  10.128
 2096W        W74411  34.491  32.490   4.352
 2097W        W74412  41.856  36.899   4.217
 2098W        W74413  35.920  22.645  14.347
 2099W        W74414  21.078  23.210   0.820
 2100W        W74415  32.905  25.013  10.609
 2101W        W74416  32.595  22.059   4.177
 2102W        W74417  32.053  43.850  11.887
 2103W        W74418   9.778  17.302  11.608
 2104W        W74419  23.130  44.399  13.852
 2105W        W74420   5.863  36.509   3.175
 2106W        W74421  21.057   4.909   2.784
 2107W        W74422  17.123  44.926  11.952
 2108W        W74423   8.375  17.623  13.916
 2109W        W74424  43.357  40.887  12.047
 2110W        W74425  20.672   3.923   2.185
 2111W        W74426  41.836  12.703   1.721
 2112W        W74427  24.054  29.166   3.694
 2113W        W74428  15.290  26.045  10.991
 2114W        W74429   4.847   4.277   1.926
 2115W        W74430  30.132  44.268  10.986
 2116W        W74431   2.361  16.093   4.286
 2117W        W74432  24.687  33.017  12.036
 2118W        W74433  28.546  22.747   4.276
 2119W        W74434  42.908  42.833  14.276
 2120W        W74435  43.486  12.212   0.437
 2121W        W74436  26.626  27.148   1.385
 2122W        W74437  42.934   4.812  12.999
 2123W        W74438  17.257  20.623   2.337
 2124W        W74439   2.732  16.570   0.905
 2125W        W74440  22.100  19.693   2.746
 2126W        W74441   7.233  19.551  13.993
 2127W        W74442  38.936  27.663  10.437
 2128W        W74443  21.020  31.121   2.272
 2129W        W74444  10.292   7.780  11.580
 2130W        W74445  39.479   9.647  11.492
 2131W        W74446  41.015   0.949  14.406
 2132W        W74447  10.352  20.749  13.026
 2133W        W74448  21.251  37.416   0.935
 2134W        W74449  16.307  44.380  12.864
 2135W        W74450  13.682  26.953  14.453
 2136W        W74451  37.831  42.526   2.861
 2137W        W74452  32.585  17.184   2.702
 2138W        W74453  31.051   1.296   2.824
 2139W        W74454  21.523   7.902  12.408
 2140W        W74455  16.217   0.988   0.418
 2141W        W74456   3.899  11.270  14.458
 2142W        W74457   2.874  21.736  13.916
 2143W        W74458   7.738  10.272  12.851
 2144W        W74459  12.653  44.876   3.286
 2145W        W74460  28.003  32.035  10.025
 2146W        W74461  12.725  34.119   0.854
 2147W        W74462   0.917  35.524   3.816
 2148W        W74463   0.290  35.512   5.260
 2149W        W74464  31.916  22.650  10.481
 2150W        W74465  32.463  37.376   2.900
 2151W        W74466  24.131  14.808  12.884
 2152W        W74467  42.290  43.272   0.823
 2153W        W74468  23.727  13.606   1.235
 2154W        W74469  38.851  32.092   4.212
 2155W        W74470   4.944  19.230   0.358
 2156W        W74471  25.483  15.226   1.805
 2157W        W74472  17.659  44.474   4.197
 2158W        W74473   4.860  42.344   0.288
 2159W        W74474   7.822  35.440  10.541
 2160W        W74475  31.956   9.858   0.352
 2161W        W74476   7.286  27.964  10.444
 2162W        W74477  26.973   9.236  11.532
 2163W        W74478  44.796  22.121   4.649
 2164W        W74479  24.027  31.935   2.713
 2165W        W74480  30.438  27.946  10.523
 2166W        W74481  26.976  38.516   0.333
 2167W        W74482  38.017  30.967   1.815
 2168W        W74483  44.272  26.564   2.862
 2169W        W74484   8.876  11.735  10.931
 2170W        W74485  42.894  29.090  14.973
 2171W        W74486   9.716  36.363  14.308
 2172W        W74487   0.817   2.290  12.831
 2173W        W74488  20.181  10.675  12.076
 2174W        W74489   1.248  23.008   1.425
 2175W        W74490  29.082  10.710   2.217
 2176W        W74491  19.555  25.170   0.778
 2177W        W74492  44.284  34.515   2.223
 2178W        W74493  31.130   1.863   1.817
 2179W        W74494  43.360  44.867   3.250
 2180W        W74495  41.397  35.565   4.824
 2181W        W74496  29.524  23.131   1.305
 2182W        W74497   6.365   9.247  12.943
 2183W        W74498  17.192  23.013   0.384
 2184W        W74499  11.687  11.197  14.973
 2185W        W74500  19.180  31.098   4.664
 2186W        W74501  43.424  44.828  10.508
 2187W        W74502  30.915  41.514   5.130
 2188W        W74503   8.703  12.649  12.083
 2189W        W74504  38.527  24.485  10.924
 2190W        W74505   6.363  39.471  13.944
 2191W        W74506  30.525   1.942  12.947
 2192W        W74507  42.805  15.785  14.467
 2193W        W74508   3.792  22.246  14.509
 2194W        W74509  13.247  26.094   2.248
 2195W        W74510  19.257  16.675   1.346
 2196W        W74511   6.209  10.377   0.907
 2197W        W74512   1.752  18.714   4.250
 2198W        W74513  14.630  42.910  12.526
 2199W        W74514  43.352  28.181   2.399
 2200W        W74515  19.110  35.022   0.790
 2201W        W74516  15.110  23.715  10.555
 2202W        W74517   8.269   3.717  13.991
 2203W        W74518  21.213  27.962   2.697
 2204W        W74519   4.241   2.371   3.336
 2205W        W74520  19.619  25.200  12.457
 2206W        W74521  30.426   9.807   0.825
 2207W        W74522   2.373   8.226   1.307
 2208W        W74523  27.564  20.186  14.448
 2209W        W74524  19.162   2.359  10.553
 2210W        W74525   2.898  10.260  12.385
 2211W        W74526  19.273   1.243   2.278
 2212W        W74527   5.226  11.291   4.718
 2213W        W74528  42.306  34.393  11.962
 2214W        W74529  23.580  43.817   2.373
 2215W        W74530  17.293  33.499  10.105
 2216W        W74531   6.399   1.783  13.474
 2217W        W74532  14.207  28.456  13.838
 2218W        W74533  41.985  20.075   3.783
 2219W        W74534  30.025   1.977   4.617
 2220W        W74535   5.919  12.648   4.712
 2221W        W74536  31.630  31.581  14.495
 2222W        W74537  32.929  19.257   0.385
 2223W        W74538  18.776  32.978   3.315
 2224W        W74539  37.520  35.411  13.321
 2225W        W74540  32.921   9.164  10.489
 2226W        W74541   2.363  30.986   4.787
 2227W        W74542  37.063  21.756   0.738
 2228W        W74543  12.254   3.774   3.801
 2229W        W74544  32.082  40.446  12.911
 2230W        W74545   5.245  13.345  14.422
 2231W        W74546  14.625  44.785  12.446
 2232W        W74547  40.481   4.209   1.857
 2233W        W74548   0.275   0.444  14.418
 2234W        W74549  44.316  16.230  13.381
 2235W        W74550  24.135  12.825   4.268
 2236W        W74551  11.219  36.411   3.797
 2237W        W74552  24.021  23.594  14.967
 2238W        W74553  14.614  31.995   1.439
 2239W        W74554  11.257  36.358  12.966
 2240W        W74555   4.252  34.049  14.312
 2241W        W74556  10.745  38.052  13.051
 2242W        W74557  17.201  44.420  13.047
 2243W        W74558  40.986  17.582   3.857
 2244W        W74559  13.167  21.051  12.436
 2245W        W74560  43.273  24.117   0.769
 2246W        W74561  34.928   4.415   3.312
 2247W        W74562   6.270  43.859  14.280
 2248W        W74563  16.586  32.128  14.334
 2249W        W74564  35.489  31.092  12.419
 2250W        W74565   6.783   9.749  10.577
 2251W        W74566  25.613  11.694  12.474
 2252W        W74567  33.113  39.332   1.767
 2253W        W74568  17.800  37.532   0.889
 2254W        W74569  38.012  37.962  12.380
 2255W        W74570   9.654  19.595  10.887
 2256W        W74571  29.033   2.805  10.517
 2257W        W74572   3.332  16.708   0.858
 2258W        W74573  29.448   6.303   2.677
 2259W        W74574   6.702  33.987  11.602
 2260W        W74575  25.639  20.612   0.260
 2261W        W74576   9.655   5.414   0.478
 2262W        W74577   8.773   5.401   2.682
 2263W        W74578  30.003  40.929  13.446
 2264W        W74579  44.361  42.401   2.401
 2265W        W74580  37.018  41.506   3.781
 2266W        W74581   2.370  28.020  14.024
 2267W        W74582  24.666  13.791  13.308
 2268W        W74583   9.752  42.781  12.068
 2269W        W74584  32.494  10.204   3.167
 2270W        W74585  21.121  24.109   4.329
 2271W        W74586  13.195  29.141   1.290
 2272W        W74587  24.082   5.774   3.157
 2273W        W74588  41.825  12.804   1.383
 2274W        W74589  23.210  35.389   4.718
 2275W        W74590   3.728  13.138   0.892
 2276W        W74591   3.422   5.266   0.945
 2277W        W74592  10.855   9.156   0.849
 2278W        W74593   9.332  25.184  11.104
 2279W        W74594   5.413  10.686  10.461
 2280W        W74595  12.649  35.970  14.026
 2281W        W74596  12.119   2.449  12.933
 2282W        W74597  27.000  22.161  10.476
 2283W        W74598  33.511  16.573  14.435
 2284W        W74599   2.452  36.519   4.269
 2285W        W74600  17.065  29.596  10.535
 2286W        W74601  32.564  21.138  10.923
 2287W        W74602  35.104   4.932  12.454
 2288W        W74603  32.006  33.039   0.348
 2289W        W74604  35.089  27.625   0.338
 2290W        W74605  24.622  12.738  11.381
 2291W        W74606  27.489  18.561   2.662
 2292W        W74607  20.114  16.180   4.221
 2293W        W74608   8.384  29.965   0.445
 2294W        W74609  19.688  12.818   2.852
 2295W        W74610  12.287  37.385  14.447
 2296W        W74611  10.145  29.166   2.702
 2297W        W74612  24.577  11.691   3.341
 2298W        W74613  32.923   5.307   3.678
 2299W        W74614  25.180   1.274   2.328
 2300W        W74615  13.631  41.998  13.930
 2301W        W74616  23.164  28.089  14.902
 2302W        W74617  29.115   1.273   0.868
 2303W        W74618  31.133  39.505  12.037
 2304W        W74619  22.625  27.004   2.688
 2305W        W74620  35.857  18.550  13.837
 2306W        W74621   7.683  19.543  12.463
 2307W        W74622  36.934  18.659  14.307
 2308W        W74623  22.613  28.062   5.204
 2309W        W74624  35.361  31.595  14.906
 2310W        W74625  14.320  40.832   0.829
 2311W        W74626  10.669   5.827  12.984
 2312W        W74627  10.161   2.383   5.084
 2313W        W74628  11.748  26.062  11.481
 2314W        W74629  26.049   4.301   4.143
 2315W        W74630  43.516  32.047  12.071
 2316W        W74631  10.807  11.725  11.469
 2317W        W74632  34.425   3.833   4.287
 2318W        W74633  14.677  14.606  12.905
 2319W        W74634  38.520  42.991  13.494
 2320W        W74635  32.958  35.421   2.876
 2321W        W74636  36.091  23.053   3.218
 2322W        W74637  11.164   6.899   0.337
 2323W        W74638  23.189  28.954  14.776
 2324W        W74639  20.614  20.234  12.576
 2325W        W74640   7.358  12.119   2.824
 2326W        W74641  34.503   2.425   0.411
 2327W        W74642  21.202  29.599   3.769
 2328W        W74643  44.359   2.435  14.028
 2329W        W74644   5.792  42.482   2.824
 2330W        W74645  26.142  34.561   2.256
 2331W        W74646  32.965  22.085   3.341
 2332W        W74647   2.817  16.206  10.607
 2333W        W74648  24.219  14.218   0.934
 2334W        W74649  25.707  20.194   9.533
 2335W        W74650   3.404  32.026   3.366
 2336W        W74651   6.334  41.040   2.396
 2337W        W74652  26.471   5.396   3.828
 2338W        W74653  17.673   1.383   2.897
 2339W        W74654  29.659  17.175  12.464
 2340W        W74655  43.871  13.268  12.979
 2341W        W74656  20.767  38.856   2.224
 2342W        W74657  15.093  21.633  10.934
 2343W        W74658   1.770   6.372  10.499
 2344W        W74659   3.392  25.677  10.466
 2345W        W74660  28.626  29.116   1.760
 2346W        W74661  16.316  33.068  11.032
 2347W        W74662   1.784  40.880   0.295
 2348W        W74663  33.413  28.069  14.344
 2349W        W74664  33.421  18.625  14.438
 2350W        W74665  37.966   6.344  13.913
 2351W        W74666   4.414   4.310  13.982
 2352W        W74667  11.790  25.484   1.773
 2353W        W74668  23.629  33.546  14.830
 2354W        W74669   9.254  33.967  12.903
 2355W        W74670  24.196  22.055   3.285
 2356W        W74671  41.536   5.282  14.304
 2357W        W74672  36.955   8.250   2.384
 2358W        W74673  37.933   4.709   4.161
 2359W        W74674  44.388  24.001   5.089
 2360W        W74675  14.160  26.988   3.731
 2361W        W74676  35.400  21.196  14.476
 2362W        W74677   1.430  24.678  13.345
 2363W        W74678  27.946  12.805  11.449
 2364W        W74679  24.124  30.942   3.357
 2365W        W74680  24.089  19.276   0.254
 2366W        W74681  25.530   5.305   1.309
 2367W        W74682  29.918  26.525   0.478
 2368W        W74683   8.314  20.198   4.153
 2369W        W74684  17.747  27.570  11.947
 2370W        W74685  33.530  36.053  14.505
 2371W        W74686   1.333  23.647  12.544
 2372W        W74687  25.696  30.945  10.641
 2373W        W74688  21.210   2.247  12.044
 2374W        W74689  20.123  44.436   0.364
 2375W        W74690  33.568  11.656  12.571
 2376W        W74691  10.298  38.332  12.023
 2377W        W74692  21.599  42.479  11.075
 2378W        W74693  39.349  27.515  10.598
 2379W        W74694  30.024   7.883  14.511
 2380W        W74695   7.342  18.561  14.309
 2381W        W74696   0.420  23.655  14.953
 2382W        W74697  33.532  28.479   4.603
 2383W        W74698   1.955  13.721   0.443
 2384W        W74699   7.345  39.837   1.715
 2385W        W74700  31.576  40.953  12.844
 2386W        W74701  23.990   2.404  14.987
 2387W        W74702  29.488   9.305   3.334
 2388W        W74703  10.331  32.596  10.545
 2389W        W74704  37.886   7.734   0.370
 2390W        W74705  25.679  39.878  14.030
 2391W        W74706  31.582   1.463  12.875
 2392W        W74707  33.573  29.500   5.133
 2393W        W74708  31.072  28.595   4.806
 2394W        W74709  36.372  17.118  14.314
 2395W        W74710   8.763   2.840  12.565
 2396W        W74711  30.966   5.777   9.975
 2397W        W74712  13.135  19.170   1.711
 2398W        W74713  12.300   5.344  11.606
 2399W        W74714  18.617  26.175  11.396
 2400W        W74715  42.450  29.032   2.725
 2401W        W74716  13.344  14.280   4.273
 2402W        W74717  44.329   2.229  12.080
 2403W        W74718   4.751  35.391  11.973
 2404W        W74719  33.059   5.867   2.742
 2405W        W74720  26.055   6.752  11.495
 2406W        W74721   3.390  26.613  14.768
 2407W        W74722   1.274  11.200   4.184
 2408W        W74723  11.629  24.223   2.198
 2409W        W74724  30.060  22.742   2.333
 2410W        W74725   1.372  12.149   4.657
 2411W        W74726  19.645  18.634   2.209
 2412W        W74727  20.127  23.071  12.544
 2413W        W74728  41.350  19.737   4.641
 2414W        W74729  16.109   1.885   1.293
 2415W        W74730   4.821  30.468   3.684
 2416W        W74731   6.383  19.099   4.139
 2417W        W74732  28.646   3.774   2.787
 2418W        W74733  20.134  22.079   3.709
 2419W        W74734  35.907  31.595   0.401
 2420W        W74735  13.806  10.779   4.729
 2421W        W74736  17.216  17.249  13.419
 2422W        W74737  23.078  38.469  12.958
 2423W        W74738  27.483  20.733  14.473
 2424W        W74739  25.666   0.253  10.452
 2425W        W74740  38.992  40.959  14.277
 2426W        W74741  11.721   5.851   1.400
 2427W        W74742  39.907  21.736   0.463
 2428W        W74743  31.401  34.375  12.931
 2429W        W74744  27.076  29.065   4.749
 2430W        W74745  35.036  15.583  11.593
 2431W        W74746  36.062   9.865  14.775
 2432W        W74747   0.290  23.630  11.595
 2433W        W74748  38.333   7.856  11.111
 2434W        W74749   3.868  40.918  12.083
 2435W        W74750  31.595  16.267  10.513
 2436W        W74751  33.543  22.685   0.789
 2437W        W74752  27.056   9.874   0.378
 2438W        W74753  37.389  31.129   4.262
 2439W        W74754  15.631  19.752  10.035
 2440W        W74755  32.439  44.762  14.329
 2441W        W74756  31.016  27.980  13.028
 2442W        W74757  30.440   6.783   0.362
 2443W        W74758   6.906   2.965  12.092
 2444W        W74759  36.980  10.247   0.777
 2445W        W74760  11.189  27.062  12.949
 2446W        W74761  39.900   2.375  14.388
 2447W        W74762  31.583  20.141   3.755
 2448W        W74763  13.736  30.505  10.918
 2449W        W74764  25.134  14.709   2.393
 2450W        W74765  34.482  40.511   0.732
 2451W        W74766  11.318  40.009   4.329
 2452W        W74767  13.735  31.942  10.603
 2453W        W74768  27.564  24.704   1.223
 2454W        W74769   6.766  24.133   0.354
 2455W        W74770   9.822  23.635  13.417
 2456W        W74771  18.647   9.819   0.919
 2457W        W74772  15.583  31.646  13.409
 2458W        W74773  44.487  11.779   1.363
 2459W        W74774  37.454  43.836  14.968
 2460W        W74775  36.082   4.254  12.399
 2461W        W74776   3.425  38.478  13.426
 2462W        W74777   7.407  35.079  12.562
 2463W        W74778   3.350  41.036   4.753
 2464W        W74779  22.675  17.171   2.305
 2465W        W74780   8.752  35.046  12.944
 2466W        W74781  43.444  29.596   4.209
 2467W        W74782  10.633  23.619  10.907
 2468W        W74783  23.712  26.599  11.448
 2469W        W74784  10.711  36.040  14.931
 2470W        W74785  16.710  27.676   5.126
 2471W        W74786  27.940  39.901   3.814
 2472W        W74787  41.406  19.679   4.136
 2473W        W74788  23.538  11.210  13.800
 2474W        W74789  27.611  16.672  10.493
 2475W        W74790  37.076   7.215   0.339
 2476W        W74791   0.937   8.292  13.423
 2477W        W74792  33.935  29.923   2.895
 2478W        W74793   3.859  43.290  13.891
 2479W        W74794  26.952  10.356   3.847
 2480W        W74795  10.278   1.296  11.920
 2481W        W74796  34.426  13.191  12.470
 2482W        W74797   4.369   4.375  11.557
 2483W        W74798  21.656  39.456   4.723
 2484W        W74799  35.962  42.855  10.453
 2485W        W74800  30.657  42.016  12.946
 2486W        W74801   0.934  12.245  13.015
 2487W        W74802   7.676   4.729   9.980
 2488W        W74803  14.272  38.325   2.697
 2489W        W74804  13.699  27.040   4.341
 2490W        W74805  31.935  44.425  12.083
 2491W        W74806  22.656  30.473  11.972
 2492W        W74807  23.212   7.757   4.742
 2493W        W74808  22.239  18.211   3.188
 2494W        W74809  15.595  36.411   2.180
 2495W        W74810  35.855  36.013  10.632
 2496W        W74811  14.154   4.292  14.391
 2497W        W74812  26.144   8.291  11.087
 2498W        W74813  12.705  19.579   0.871
 2499W        W74814   8.306   5.810   0.926
 2500W        W74815   8.261  19.250   3.261
 2501W        W74816   3.949  34.437   2.212
 2502W        W74817  28.074  38.510  14.927
 2503W        W74818  30.058  31.570   4.281
 2504W        W74819  37.058  34.503  10.469
 2505W        W74820   2.755  42.852  13.840
 2506W        W74821  32.600  42.426   2.789
 2507W        W74822  43.785   0.926  13.441
 2508W        W74823  13.647  36.974  13.041
 2509W        W74824  12.167   6.222   2.191
 2510W        W74825  13.240  44.783   2.284
 2511W        W74826  18.667  33.914   3.731
 2512W        W74827  24.145  24.575  10.411
 2513W        W74828   3.336  36.872   3.704
 2514W        W74829  13.637  14.665  14.859
 2515W        W74830   3.396  31.477  14.935
 2516W        W74831  18.666  17.669  13.390
 2517W        W74832  20.094  41.424   0.749
 2518W        W74833  16.275  23.627   4.794
 2519W        W74834  39.901  14.226   1.267
 2520W        W74835  44.356  42.982   0.347
 2521W        W74836  41.414  37.384  14.384
 2522W        W74837  42.787  38.988   3.382
 2523W        W74838   2.443  27.973   0.955
 2524W        W74839   8.341  26.084   4.686
 2525W        W74840  15.257  16.173   0.785
 2526W        W74841   8.217  34.870  11.399
 2527W        W74842  35.062  44.478   1.438
 2528W        W74843  39.045   9.177   4.839
 2529W        W74844  42.475  27.166   1.816
 2530W        W74845  34.387   6.772   0.827
 2531W        W74846  42.851  38.900  14.487
 2532W        W74847  30.474  24.170   2.697
 2533W        W74848  25.478  21.178   0.331
 2534W        W74849   1.958  25.069  12.853
 2535W        W74850  37.005   9.212  13.486
 2536W        W74851   4.345  33.911  11.002
 2537W        W74852  10.334   6.693  13.995
 2538W        W74853  37.901  17.736   3.709
 2539W        W74854  44.877  25.526  13.831
 2540W        W74855   8.814  10.163  11.885
 2541W        W74856  24.494  37.074   3.334
 2542W        W74857  23.136  35.432   3.860
 2543W        W74858  24.219  40.418   0.389
 2544W        W74859   8.774  33.073  13.402
 2545W        W74860  34.437  12.821  11.889
 2546W        W74861  37.364  20.695  11.917
 2547W        W74862  28.931  37.831   4.786
 2548W        W74863  37.972  32.071   0.344
 2549W        W74864   2.318  31.431   3.685
 2550W        W74865  34.371  32.589  13.873
 2551W        W74866  40.983  13.612  12.011
 2552W        W74867  29.587  18.716   1.813
 2553W        W74868  42.981  42.418  10.426
 2554W        W74869  28.659   7.264  10.559
 2555W        W74870  25.581  14.704  13.806
 2556W        W74871  31.924  31.896   5.198
 2557W        W74872   9.188  32.120   4.193
 2558W        W74873  26.593  15.153  12.564
 2559W        W74874  44.994  31.955  13.333
 2560W        W74875  28.143   6.905   5.240
 2561W        W74876   8.302  41.893  14.014
 2562W        W74877   4.920  33.885   2.837
 2563W        W74878   0.748  15.772   2.734
 2564W        W74879   8.307  26.087   4.142
 2565W        W74880  27.658  26.529  11.947
 2566W        W74881   4.409  21.147   4.296
 2567W        W74882  42.973  24.680   0.732
 2568W        W74883  35.439  12.345  12.480
 2569W        W74884  33.605  44.005   3.824
 2570W        W74885  18.766  35.052   1.275
 2571W        W74886  39.980   1.917  14.347
 2572W        W74887  15.121  38.555   0.956
 2573W        W74888   6.300   8.321   3.699
 2574W        W74889  14.312   7.239   2.206
 2575W        W74890  32.957   1.914  10.976
 2576W        W74891  31.032  35.108   5.111
 2577W        W74892  37.039   3.836   1.373
 2578W        W74893  37.055  20.095   4.167
 2579W        W74894   3.378  42.347   0.822
 2580W        W74895   2.297  10.175   0.881
 2581W        W74896   1.834   7.186   3.803
 2582W        W74897  35.079  44.778  12.928
 2583W        W74898  30.022   6.850   4.644
 2584W        W74899  33.598  23.629   3.795
 2585W        W74900  40.872  13.179  10.440
 2586W        W74901  22.144  22.504  10.545
 2587W        W74902   2.953   8.188  10.968
 2588W        W74903  40.026  13.143  11.457
 2589W        W74904  24.555  18.203  13.543
 2590W        W74905  17.640  28.541  11.949
 2591W        W74906   7.734  35.509   4.767
 2592W        W74907  23.218  35.416   4.343
 2593W        W74908   6.681  22.541   2.858
 2594W        W74909  39.015   8.674   4.166
 2595W        W74910  37.036   5.262   0.958
 2596W        W74911  33.884  18.144  11.895
 2597W        W74912  17.255  44.805   0.901
 2598W        W74913   9.298  26.173  14.886
 2599W        W74914  37.077   9.723   2.753
 2600W        W74915  33.051  34.939  10.477
 2601W        W74916  31.010  32.069  10.478
 2602W        W74917  27.970  33.901  10.491
 2603W        W74918  22.131   1.832   0.886
 2604W        W74919   0.912  26.153  11.021
 2605W        W74920  20.597  23.988  12.009
 2606W        W74921  39.884  26.532  12.401
 2607W        W74922  22.050  24.170  13.838
 2608W        W74923  23.497   8.786  12.014
 2609W        W74924  16.605  17.667  14.953
 2610W        W74925   7.794  17.159   0.930
 2611W        W74926  18.250  23.721  11.988
 2612W        W74927  13.268  42.812   3.166
 2613W        W74928  34.900  34.393   2.233
 2614W        W74929   5.688   3.805  10.528
 2615W        W74930  36.569  20.616   4.759
 2616W        W74931  31.986  29.096   4.787
 2617W        W74932  40.860  34.121   3.276
 2618W        W74933  24.599  12.652  10.533
 2619W        W74934  32.903  42.294   1.852
 2620W        W74935  40.883  26.126  14.498
 2621W        W74936  32.472   0.904  13.343
 2622W        W74937  38.554  18.606  12.405
 2623W        W74938   0.908  11.725  10.964
 2624W        W74939  32.073  22.064   3.283
 2625W        W74940  18.698  12.179  14.505
 2626W        W74941  23.662   1.839  13.956
 2627W        W74942  14.183  14.125  12.371
 2628W        W74943  33.130  44.884   4.294
 2629W        W74944   4.703  24.060  11.864
 2630W        W74945  21.134   7.774   4.150
 2631W        W74946  30.112  38.568  13.420
 2632W        W74947  10.683  18.254   4.628
 2633W        W74948  16.691  44.363   3.638
 2634W        W74949   9.794  43.016   0.743
 2635W        W74950  17.676  30.031   2.278
 2636W        W74951  14.331  30.641   2.385
 2637W        W74952  41.040  21.040  13.009
 2638W        W74953  29.098  18.735   1.255
 2639W        W74954   9.729   1.735  14.843
 2640W        W74955  44.008  24.097   3.677
 2641W        W74956  18.142  27.566   0.781
 2642W        W74957  13.602   4.717   3.270
 2643W        W74958  14.762  11.307  12.548
 2644W        W74959  41.818  26.109  14.780
 2645W        W74960  20.260   5.881  14.829
 2646W        W74961  33.422  36.372   3.860
 2647W        W74962  29.517  28.471   0.797
 2648W        W74963  29.652  37.960  11.389
 2649W        W74964  36.582   0.394  13.347
 2650W        W74965  39.471  34.927  14.898
 2651W        W74966  41.531  21.050  14.883
 2652W        W74967  39.389  20.732  13.459
 2653W        W74968  31.430  36.914  11.583
 2654W        W74969  24.553   9.879  13.912
 2655W        W74970   6.243  12.207  13.047
 2656W        W74971  25.509  32.939   4.659
 2657W        W74972  36.545  14.622  12.389
 2658W        W74973   1.950  32.416  11.487
 2659W        W74974  14.615  33.589   2.227
 2660W        W74975  40.433  26.982   0.451
 2661W        W74976  23.599  31.960   2.390
 2662W        W74977  39.357   4.315   1.343
 2663W        W74978  29.089   5.926  11.960
 2664W        W74979  36.461  19.647  10.921
 2665W        W74980   9.862  34.040   2.900
 2666W        W74981  29.111  44.364   1.268
 2667W        W74982   3.415   8.406  10.994
 2668W        W74983  41.321  12.641   0.799
 2669W        W74984  14.217  37.435  13.495
 2670W        W74985  38.465  37.054  10.581
 2671W        W74986   1.947  22.562  14.275
 2672W        W74987  18.059  39.858   4.611
 2673W        W74988  37.072   9.366   4.278
 2674W        W74989  43.786  33.917   1.766
 2675W        W74990  22.710  38.489  13.433
 2676W        W74991   0.353  17.637   2.843
 2677W        W74992  30.951  43.295  11.452
 2678W        W74993  30.146  16.588  12.019
 2679W        W74994   4.907  17.560   4.165
 2680W        W74995  16.192  38.423   9.930
 2681W        W74996  14.683  19.207   2.364
 2682W        W74997  28.069  24.059   2.746
 2683W        W74998   5.922   9.763   1.739
 2684W        W74999  34.511  28.137  13.428
 2685W        W75000  10.842   9.149  14.514
 2686W        W75001  40.020  14.193  14.339
 2687W        W75002  10.740  34.914  14.952
 2688W        W75003   5.417  27.586  14.317
 2689W        W75004  12.681  20.110   4.255
 2690W        W75005   8.261  12.685  13.481
 2691W        W75006  39.855  18.654  10.458
 2692W        W75007  35.578  44.890  10.517
 2693W        W75008  34.425   0.302  13.038
 2694W        W75009  13.247   1.933  11.046
 2695W        W75010  24.179  29.933  14.777
 2696W        W75011  33.399  44.288   1.276
 2697W        W75012  19.723  19.654  10.507
 2698W        W75013  11.185  13.695  12.467
 2699W        W75014  44.954   8.856   4.130
 2700W        W75015   1.469  12.194  10.491
 2701W        W75016  15.146  41.923  11.905
 2702W        W75017  20.232   4.769   2.265
 2703W        W75018  25.002  32.941  13.403
 2704W        W75019   7.779  44.414   0.860
 2705W        W75020  17.214  19.561   2.336
 2706W        W75021  18.761  38.568   9.996
 2707W        W75022  20.734   5.259  12.516
 2708W        W75023  22.580  41.812   1.311
 2709W        W75024  27.512  10.839   0.791
 2710W        W75025  35.046  44.948   1.724
 2711W        W75026  34.441   0.791  13.445
 2712W        W75027  37.565  27.118  12.502
 2713W        W75028  38.960  38.335  13.524
 2714W        W75029   8.307  13.830  12.459
 2715W        W75030  41.507  41.303  14.450
 2716W        W75031   7.712   5.401  13.338
 2717W        W75032   4.782  21.108   2.780
 2718W        W75033   9.781  36.057   0.939
 2719W        W75034   7.266  18.184   0.345
 2720W        W75035  30.536  13.222  10.983
 2721W        W75036  23.128  37.395   2.354
 2722W        W75037   7.888  16.617   4.769
 2723W        W75038  11.173   3.907  12.877
 2724W        W75039  12.202  22.512  13.026
 2725W        W75040   4.854  34.374  11.954
 2726W        W75041  40.040  34.582   0.825
 2727W        W75042  26.174   5.923  14.002
 2728W        W75043  44.924   6.412   2.414
 2729W        W75044  16.267  43.806  14.443
 2730W        W75045   1.415  42.449  12.964
 2731W        W75046   2.430  27.562   3.357
 2732W        W75047  28.508  26.033  11.892
 2733W        W75048  40.875  34.109  11.536
 2734W        W75049  25.009  43.832   1.338
 2735W        W75050  38.519  30.164   1.363
 2736W        W75051   2.321   5.331  14.508
 2737W        W75052  40.342  35.050  10.905
 2738W        W75053  42.524  16.098   3.346
 2739W        W75054  28.954  31.126  11.106
 2740W        W75055  31.524  31.033   0.777
 2741W        W75056   4.758  27.133  10.613
 2742W        W75057  35.014   5.322   3.211
 2743W        W75058   0.462  24.982   2.711
 2744W        W75059  31.539  41.520   1.235
 2745W        W75060   1.242   9.646   4.314
 2746W        W75061  19.117  21.230   0.463
 2747W        W75062   7.212  28.943  12.847
 2748W        W75063  28.004  39.035  12.440
 2749W        W75064  27.006  15.236  12.535
 2750W        W75065  37.891  39.023   0.333
 2751W        W75066  35.476  23.209   3.347
 2752W        W75067   6.780  21.132   4.605
 2753W        W75068  26.163   7.818   0.762
 2754W        W75069  17.119  18.128   2.229
 2755W        W75070  34.895  26.582   3.672
 2756W        W75071   2.835  42.988   2.863
 2757W        W75072   3.890  27.495  13.340
 2758W        W75073  36.007  28.621   3.630
 2759W        W75074  18.157  25.049  11.569
 2760W        W75075  17.183   1.773   3.360
 2761W        W75076   7.349  21.058  13.805
 2762W        W75077  39.944   4.269   0.322
 2763W        W75078   3.884  44.871   3.230
 2764W        W75079  34.903   3.719   3.258
 2765W        W75080  42.502  37.047  10.455
 2766W        W75081   8.291  30.633  11.595
 2767W        W75082   9.666   8.837  12.905
 2768W        W75083  30.025  10.756   3.191
 2769W        W75084   4.826  42.508   3.848
 2770W        W75085   9.813  19.579   4.628
 2771W        W75086  42.327  43.336   2.739
 2772W        W75087  22.251  37.890  11.040
 2773W        W75088  38.019  11.677  10.509
 2774W        W75089  34.562  41.976   3.271
 2775W        W75090  12.341  23.621   1.343
 2776W        W75091  22.664  34.516  12.444
 2777W        W75092  13.821  25.080  14.293
 2778W        W75093  18.545  27.483  14.971
 2779W        W75094  34.960  24.077  12.953
 2780W        W75095  43.819   7.883   2.397
 2781W        W75096  20.239  25.137   3.847
 2782W        W75097  28.940  24.514  14.880
 2783W        W75098  15.164  36.042   4.717
 2784W        W75099   3.364  40.544   4.801
 2785W        W75100  30.512  12.347   3.291
 2786W        W75101  25.011  26.147  11.452
 2787W        W75102  33.989  38.445  11.005
 2788W        W75103  37.539  25.978  14.860
 2789W        W75104  28.011  14.746  14.906
 2790W        W75105   7.747   2.282  14.767
 2791W        W75106   5.781  30.155  14.399
 2792W        W75107  44.277  20.525   4.355
 2793W        W75108  31.961  37.342   3.205
 2794W        W75109  36.942  17.171   0.781
 2795W        W75110  15.329  15.654   2.811
 2796W        W75111  30.101  10.820   4.611
 2797W        W75112  15.599  41.940   1.423
 2798W        W75113  38.431  25.093   0.308
 2799W        W75114  30.416  11.813   0.806
 2800W        W75115  36.373  14.611   1.827
 2801W        W75116  44.854  26.160  13.341
 2802W        W75117  29.143  41.863   0.437
 2803W        W75118  12.326  11.677  14.386
 2804W        W75119  21.249  25.982  13.309
 2805W        W75120  19.273   7.794   9.982
 2806W        W75121  44.396  29.597  14.875
 2807W        W75122  38.481  25.686   2.828
 2808W        W75123  11.155  31.511   2.686
 2809W        W75124  11.353  28.940  12.478
 2810W        W75125  38.890  28.465   2.188
 2811W        W75126  33.410   1.447   1.829
 2812W        W75127  37.433  37.571   4.821
 2813W        W75128  44.480  25.087  13.442
 2814W        W75129  29.078  41.415   0.752
 2815W        W75130   2.940  44.766  13.901
 2816W        W75131   7.845  32.125   4.117
 2817W        W75132  27.051  22.165  11.989
 2818W        W75133  17.683  33.884   2.803
 2819W        W75134  31.049  36.080   2.877
 2820W        W75135   8.698   3.404  12.445
 2821W        W75136  32.008  14.281   3.337
 2822W        W75137  17.223  38.467  14.928
 2823W        W75138  35.057  32.574   4.690
 2824W        W75139  23.077  22.236   4.274
 2825W        W75140   7.391  34.014   1.326
 2826W        W75141  12.340  41.836  11.045
 2827W        W75142   9.371  25.186   2.338
 2828W        W75143   2.815  13.250  12.547
 2829W        W75144   4.417  32.130   1.345
 2830W        W75145  16.692   8.778   3.740
 2831W        W75146  17.694  34.913   3.285
 2832W        W75147  21.658  25.143   3.327
 2833W        W75148  30.480   3.288   0.941
 2834W        W75149  30.055  20.743  12.553
 2835W        W75150  43.882   1.286   1.799
 2836W        W75151  29.474  29.996  11.868
 2837W        W75152   4.930  11.323   0.298
 2838W        W75153  36.435  30.616  12.992
 2839W        W75154  26.569  44.504   1.892
 2840W        W75155  32.543  42.939  12.027
 2841W        W75156  41.476   0.296   0.476
 2842W        W75157  17.615   6.195   0.886
 2843W        W75158  21.632  13.796   1.711
 2844W        W75159  39.844  36.880  13.364
 2845W        W75160  12.829   8.244  10.607
 2846W        W75161  30.101  23.234  14.834
 2847W        W75162  26.700   3.409   0.423
 2848W        W75163  27.960   9.743  14.871
 2849W        W75164  10.317   3.309   3.819
 2850W        W75165  22.737  12.715   0.929
 2851W        W75166   9.339  24.622   2.864
 2852W        W75167  28.513  36.850  13.507
 2853W        W75168  33.897  11.307  11.968
 2854W        W75169  12.727  24.516  13.832
 2855W        W75170  43.445  31.492   2.340
 2856W        W75171  43.407  12.766  10.503
 2857W        W75172  27.635  19.558  13.425
 2858W        W75173   6.832  42.461  14.973
 2859W        W75174  11.634   6.320  10.962
 2860W        W75175  27.589  34.987   1.313
 2861W        W75176  43.927  32.988  12.443
 2862W        W75177  39.814  22.011  11.868
 2863W        W75178  25.601   2.393   0.964
 2864W        W75179  18.563   6.783   0.295
 2865W        W75180  10.802  23.129  13.443
 2866W        W75181  16.224   0.748   4.765
 2867W        W75182  25.646  39.034   1.902
 2868W        W75183  35.993  28.147   2.849
 2869W        W75184   0.489  39.925   0.278
 2870W        W75185  17.277  20.055   2.669
 2871W        W75186   0.423  24.194   3.333
 2872W        W75187   8.251  33.950  13.527
 2873W        W75188  33.930  36.930  12.847
 2874W        W75189  38.328   3.389  14.932
 2875W        W75190  24.633   3.934   1.372
 2876W        W75191   5.812  32.099  10.573
 2877W        W75192  20.666   6.837  10.480
 2878W        W75193  19.157  10.321   0.873
 2879W        W75194   5.736  22.140  11.096
 2880W        W75195  33.936  26.008   1.394
 2881W        W75196  36.567  44.948  14.939
 2882W        W75197   2.340   4.757   9.943
 2883W        W75198  30.575   2.732  11.906
 2884W        W75199  21.251   6.760  14.807
 2885W        W75200  29.991  44.347  12.342
 2886W        W75201   6.332  35.548   1.713
 2887W        W75202  41.438  28.449   4.244
 2888W        W75203  37.426  24.018   2.231
 2889W        W75204  27.613  41.368   4.246
 2890W        W75205   0.386  32.395  14.783
 2891W        W75206   1.838  14.797   1.712
 2892W        W75207  39.497  36.020  11.402
 2893W        W75208   2.470  32.005   3.651
 2894W        W75209  24.719  44.773   4.260
 2895W        W75210  15.115  40.409  11.495
 2896W        W75211  38.429   8.731   4.267
 2897W        W75212  13.612  32.016  13.317
 2898W        W75213  23.241  15.324   4.746
 2899W        W75214  11.732  44.319  13.898
 2900W        W75215  28.079  42.471  12.487
 2901W        W75216  24.159  26.188   1.447
 2902W        W75217  25.175  26.156   4.211
 2903W        W75218   6.306  28.449  14.837
 2904W        W75219   6.698  38.853  11.544
 2905W        W75220  33.952   5.817   1.265
 2906W        W75221  21.072   1.466   4.341
 2907W        W75222  17.603  15.640  13.960
 2908W        W75223  27.192  20.225   1.879
 2909W        W75224  12.214   1.894   2.793
 2910W        W75225  32.956  23.662  11.492
 2911W        W75226  20.605  12.842   2.346
 2912W        W75227  16.677  28.062   4.121
 2913W        W75228  14.726  26.466  10.922
 2914W        W75229   8.812  27.078  13.500
 2915W        W75230  15.262  22.714   3.175
 2916W        W75231  31.975  11.320   2.266
 2917W        W75232  37.021   6.210   0.942
 2918W        W75233   4.316  42.835   3.338
 2919W        W75234  26.641  16.134  12.559
 2920W        W75235  20.727  40.941  14.444
 2921W        W75236  24.221  12.313  12.539
 2922W        W75237   3.807  26.621   9.921
 2923W        W75238  35.483  16.115  10.464
 2924W        W75239  29.585   2.812  12.890
 2925W        W75240  42.305   6.247  14.495
 2926W        W75241   3.377  23.679   1.782
 2927W        W75242   8.673   5.259  11.452
 2928W        W75243  26.596  39.017  11.892
 2929W        W75244  39.814  41.424  10.535
 2930W        W75245  16.170  12.848   2.809
 2931W        W75246  19.261  38.946   0.316
 2932W        W75247   7.856  32.519   0.890
 2933W        W75248  28.951  44.972   0.270
 2934W        W75249  11.723  19.673   4.271
 2935W        W75250  33.972   9.688   1.248
 2936W        W75251  44.405  27.646   1.239
 2937W        W75252  17.779  11.783   1.434
 2938W        W75253  21.205  38.939   1.287
 2939W        W75254   0.762  30.467  13.991
 2940W        W75255   9.885  31.595   3.706
 2941W        W75256  43.398  19.589  14.468
 2942W        W75257  11.171  12.126  12.854
 2943W        W75258  41.919  24.551  10.577
 2944W        W75259  30.579  31.938   0.802
 2945W        W75260  21.246   7.386  12.492
 2946W        W75261   1.849   0.307   4.821
 2947W        W75262  20.149   6.750   2.674
 2948W        W75263  18.756   4.928   4.626
 2949W        W75264  40.987  29.167  14.979
 2950W        W75265  34.996  26.623   1.353
 2951W        W75266  10.825  35.547  12.378
 2952W        W75267  33.529  38.476  11.513
 2953W        W75268  37.981   0.814  13.794
 2954W        W75269  40.812  43.284  11.955
 2955W        W75270  30.568  11.701  10.958
 2956W        W75271  36.985   2.326   4.349
 2957W        W75272  12.276   0.983   4.789
 2958W        W75273  19.130  19.575   3.178
 2959W        W75274  25.111  18.185  13.003
 2960W        W75275  13.234  38.424   2.840
 2961W        W75276  34.422  37.474   0.731
 2962W        W75277  18.108  35.005  12.503
 2963W        W75278  31.063  19.042  12.433
 2964W        W75279  23.056  11.275  14.023
 2965W        W75280  40.519  14.646   3.639
 2966W        W75281  38.848  10.873   0.428
 2967W        W75282  19.596  12.712  10.425
 2968W        W75283  19.628   7.288   0.355
 2969W        W75284  18.633  38.487   9.659
 2970W        W75285  10.288  16.623  14.992
 2971W        W75286  11.223  41.346  12.858
 2972W        W75287  35.585  21.626   0.848
 2973W        W75288  41.823   1.328  13.486
 2974W        W75289   0.785  31.139   2.671
 2975W        W75290   0.952  36.484   5.209
 2976W        W75291  39.379  37.554   2.785
 2977W        W75292  40.374  22.218   3.804
 2978W        W75293   8.325  43.351   3.741
 2979W        W75294   8.813  21.132  13.886
 2980W        W75295  18.111  23.118  10.527
 2981W        W75296  29.494   1.941  13.318
 2982W        W75297  24.577  32.932  14.445
 2983W        W75298  31.037  23.166   4.686
 2984W        W75299  22.706  17.207   1.731
 2985W        W75300  16.603  41.491  12.440
 2986W        W75301  26.048  29.616  14.915
 2987W        W75302   6.731  21.584   1.747
 2988W        W75303  26.014  35.443  13.986
 2989W        W75304   3.403  20.193   1.318
 2990W        W75305  32.130   8.396   2.767
 2991W        W75306  44.843  13.778   1.427
 2992W        W75307  35.104  41.940   4.160
 2993W        W75308  43.339  26.591  12.419
 2994W        W75309   6.401   0.278  14.956
 2995W        W75310   9.174  33.470   3.273
 2996W        W75311  13.185  42.515   4.610
 2997W        W75312  37.361  26.465   4.715
 2998W        W75313  13.283  38.440  13.513
 2999W        W75314  28.995   7.872  13.497
 3000W        W75315  44.993  35.382   0.380
 3001W        W75316  33.977  41.535   4.615
 3002W        W75317   6.830  43.860  12.002
 3003W        W75318  37.413  22.622   4.750
 3004W        W75319  25.648  15.155   1.382
 3005W        W75320  42.411   5.742   3.740
 3006W        W75321  38.861  30.466  10.957
 3007W        W75322  34.596  38.399  13.007
 3008W        W75323  28.495  16.107   3.170
 3009W        W75324  12.349  44.440  13.455
 3010W        W75325  33.607  23.715  13.860
 3011W        W75326  17.639  40.823   4.690
 3012W        W75327  43.934  29.429  14.836
 3013W        W75328  44.453  32.053   4.775
 3014W        W75329   5.203  43.416   3.684
 3015W        W75330  13.240  34.022   2.799
 3016W        W75331  10.805   4.424   0.926
 3017W        W75332  26.608  31.565   9.528
 3018W        W75333  21.546  27.615  14.844
 3019W        W75334  15.761  39.823   4.640
 3020W        W75335  10.234   1.348   2.776
 3021W        W75336   4.777  41.436   4.212
 3022W        W75337   7.856  38.883   1.822
 3023W        W75338   9.671  10.264   0.726
 3024W        W75339  38.918   8.176   0.321
 3025W        W75340   7.327  10.326  13.946
 3026W        W75341   7.310   3.430   3.186
 3027W        W75342  35.099   6.233   2.692
 3028W        W75343   4.352  27.527   0.433
 3029W        W75344  37.574  25.967   2.382
 3030W        W75345   2.917  33.978  14.028
 3031W        W75346  36.002  35.083  14.415
 3032W        W75347  44.857  31.137   3.212
 3033W        W75348  36.473  11.691   2.332
 3034W        W75349   9.842   5.417   3.325
 3035W        W75350  10.763  23.057   4.203
 3036W        W75351   3.440  16.265   2.696
 3037W        W75352  26.613   0.399   3.800
 3038W        W75353  39.371  21.640   4.736
 3039W        W75354  36.913  41.972  12.874
 3040W        W75355   9.220  31.956  11.972
 3041W        W75356  41.942  36.843  11.583
 3042W        W75357  32.036  31.011   1.323
 3043W        W75358  30.444  16.760  10.995
 3044W        W75359   9.885  43.981  12.376
 3045W        W75360   9.392  43.916   0.760
 3046W        W75361  18.730  34.560   1.844
 3047W        W75362   3.719  41.810  10.543
 3048W        W75363  40.805  14.209  12.539
 3049W        W75364  27.193  21.618   3.796
 3050W        W75365  31.486  32.898  12.474
 3051W        W75366   4.367  43.475   3.276
 3052W        W75367  25.176   7.830  10.432
 3053W        W75368  26.460  12.792   1.934
 3054W        W75369  40.834   2.468   4.635
 3055W        W75370  24.075  34.947   0.767
 3056W        W75371  36.548  22.156  12.025
 3057W        W75372  20.068  11.303  10.068
 3058W        W75373  43.919  20.666   2.183
 3059W        W75374  39.460  20.253   1.887
 3060W        W75375   4.323  18.161  12.977
 3061W        W75376  34.479  36.546   4.263
 3062W        W75377   9.867   4.829   4.723
 3063W        W75378   8.230  41.966  12.479
 3064W        W75379  26.171  16.723   4.686
 3065W        W75380  15.244  16.725  12.080
 3066W        W75381  13.285  24.703   1.438
 3067W        W75382  36.929  38.925  13.511
 3068W        W75383  17.629   1.257   0.772
 3069W        W75384  32.104   7.871   0.275
 3070W        W75385  41.356  34.402  13.991
 3071W        W75386  28.597  22.166   1.311
 3072W        W75387   1.387  13.719  14.378
 3073W        W75388  40.827  30.120  10.984
 3074W        W75389   7.738  33.064   3.338
 3075W        W75390  19.079  23.493   0.804
 3076W        W75391  26.141  34.428   1.280
 3077W        W75392  16.089   3.243  14.413
 3078W        W75393   5.793   1.258  14.847
 3079W        W75394   7.225  43.847  12.921
 3080W        W75395  36.974  38.937  14.913
 3081W        W75396  18.712   9.837   3.222
 3082W        W75397  24.220  38.946   2.237
 3083W        W75398  22.081  21.667   4.817
 3084W        W75399  25.602  27.055  11.028
 3085W        W75400  23.108  43.498   2.336
 3086W        W75401  30.947  23.080  10.498
 3087W        W75402  13.139  27.132  11.483
 3088W        W75403  14.111  43.978  13.836
 3089W        W75404   2.336  37.560  11.560
 3090W        W75405  18.198  37.540   4.747
 3091W        W75406  14.158  27.984  13.934
 3092W        W75407  19.052  27.450   3.647
 3093W        W75408  24.553  37.926  14.470
 3094W        W75409   3.324  44.426  10.496
 3095W        W75410   2.958   3.761   2.837
 3096W        W75411  42.526  15.098  13.339
 3097W        W75412  24.999  42.393  10.603
 3098W        W75413   4.850  42.349  11.020
 3099W        W75414  24.021  33.994  12.918
 3100W        W75415   5.852  11.677  12.393
 3101W        W75416  29.543   2.840   4.599
 3102W        W75417  12.119  39.870  10.508
 3103W        W75418  38.382   6.810  12.070
 3104W        W75419  29.484   9.650   2.722
 3105W        W75420  36.877  16.629   2.293
 3106W        W75421  31.947   7.896   3.688
 3107W        W75422  26.091  40.363   4.218
 3108W        W75423  19.251  26.054  11.904
 3109W        W75424  38.025  27.624  14.466
 3110W        W75425  13.200  33.476   4.287
 3111W        W75426  44.797  19.146   2.352
 3112W        W75427   0.908  40.326   5.180
 3113W        W75428  29.568  38.436   1.769
 3114W        W75429   7.292  13.332   2.393
 3115W        W75430  22.086  17.217  14.508
 3116W        W75431  35.512  37.492  10.933
 3117W        W75432   0.869   8.679  10.986
 3118W        W75433  26.030   6.325  10.441
 3119W        W75434  42.778  34.887  10.890
 3120W        W75435  40.974  11.151  14.904
 3121W        W75436  11.755   4.281  12.499
 3122W        W75437  44.935  22.705  12.070
 3123W        W75438   5.714  18.192  10.495
 3124W        W75439  38.826  39.548   0.799
 3125W        W75440  14.825   8.766   1.872
 3126W        W75441  37.380   7.275   4.264
 3127W        W75442  30.528   2.419   0.852
 3128W        W75443  19.628  14.097   2.688
 3129W        W75444  39.332  18.558  14.932
 3130W        W75445  14.687  42.524  12.493
 3131W        W75446  33.428  11.749   1.908
 3132W        W75447  27.130  34.023  14.480
 3133W        W75448  25.074  25.107   0.281
 3134W        W75449  23.134  12.302  14.431
 3135W        W75450  24.059  33.987  10.582
 3136W        W75451  12.746  13.205  11.051
 3137W        W75452   0.751  28.576   4.144
 3138W        W75453   7.761  19.679   2.668
 3139W        W75454  14.330  35.065  13.490
 3140W        W75455  17.171  35.492  11.903
 3141W        W75456  24.013  16.099  13.804
 3142W        W75457  18.295   2.437   3.859
 3143W        W75458  11.859  12.186  12.453
 3144W        W75459   5.788  29.491   0.404
 3145W        W75460  30.124   2.380   0.275
 3146W        W75461  20.101  40.019  13.436
 3147W        W75462  36.994  21.642   4.306
 3148W        W75463  10.736   7.353  13.435
 3149W        W75464  30.916  11.224  10.938
 3150W        W75465   6.247  42.409   3.280
 3151W        W75466  35.359  13.225   3.371
 3152W        W75467   9.181  19.597  10.129
 3153W        W75468  37.888  44.776  13.408
 3154W        W75469  25.120  21.220  10.542
 3155W        W75470  18.660  37.912   2.891
 3156W        W75471   3.865  40.394  10.112
 3157W        W75472  18.616  33.599  10.437
 3158W        W75473  43.908   6.898   4.245
 3159W        W75474  28.095  18.261   3.180
 3160W        W75475  33.022   9.821  13.356
 3161W        W75476   2.407  26.057  12.079
 3162W        W75477  20.691  11.809  12.017
 3163W        W75478  16.214   4.244  10.624
 3164W        W75479  33.620  31.632  12.059
 3165W        W75480  27.040   3.398   9.570
 3166W        W75481  30.050  25.051  10.946
 3167W        W75482  25.998  14.604  11.393
 3168W        W75483  43.379   7.882   0.920
 3169W        W75484  10.155  11.192   3.853
 3170W        W75485  30.109  34.048  10.621
 3171W        W75486  32.492  20.583  14.516
 3172W        W75487  36.524  14.811  13.482
 3173W        W75488  36.017  43.777  13.064
 3174W        W75489  44.458  34.879  14.905
 3175W        W75490  28.460  19.190  11.069
 3176W        W75491  30.977  37.402   4.752
 3177W        W75492  43.929  22.593   4.203
 3178W        W75493  30.463  31.109  11.510
 3179W        W75494   2.347  27.620  12.997
 3180W        W75495  35.369  14.318  13.853
 3181W        W75496  38.490  26.098  11.922
 3182W        W75497  14.219   8.355   0.437
 3183W        W75498   8.309  17.728   4.618
 3184W        W75499  28.031   7.252   5.159
 3185W        W75500  36.483   8.354  11.570
 3186W        W75501  20.259  18.291  12.055
 3187W        W75502   5.411  26.182  12.065
 3188W        W75503  32.489   3.265   2.840
 3189W        W75504  43.409  19.256   3.817
 3190W        W75505  31.986   7.205   3.222
 3191W        W75506  11.865  43.473   1.350
 3192W        W75507  38.937   7.742  11.537
 3193W        W75508   2.237  24.219  12.369
 3194W        W75509  42.956  14.754  14.910
 3195W        W75510  33.059  39.814  14.016
 3196W        W75511  43.488  27.638   3.837
 3197W        W75512  32.141  28.107  13.832
 3198W        W75513  12.842  35.019  13.883
 3199W        W75514  36.380  16.166   2.320
 3200W        W75515  33.956   5.359  14.986
 3201W        W75516  37.398  12.128   2.294
 3202W        W75517  40.484  41.318  14.429
 3203W        W75518  43.799   1.810  14.995
 3204W        W75519  30.916  16.644   0.834
 3205W        W75520  19.144   0.487   4.665
 3206W        W75521  40.515  12.664   2.285
 3207W        W75522   4.768  25.162  11.505
 3208W        W75523   7.717  39.903   3.343
 3209W        W75524  25.020   5.319  10.555
 3210W        W75525  33.925  31.933   4.127
 3211W        W75526  13.728  35.974  13.324
 3212W        W75527   7.240  41.873   0.443
 3213W        W75528  10.674  41.989   2.849
 3214W        W75529  11.220  15.191  13.820
 3215W        W75530   7.836  39.496  11.569
 3216W        W75531  10.185  42.346   3.190
 3217W        W75532  42.820  11.144  10.424
 3218W        W75533  34.421  27.116   4.349
 3219W        W75534   2.247   7.343  14.448
 3220W        W75535  26.119  17.267  10.437
 3221W        W75536   5.301   2.425  12.845
 3222W        W75537   7.907  25.711  10.420
 3223W        W75538  34.533  28.507   3.664
 3224W        W75539   6.213  34.436   4.142
 3225W        W75540  38.395  13.777  14.934
 3226W        W75541  44.812  43.976   3.271
 3227W        W75542  33.423  28.492  14.865
 3228W        W75543  14.751  25.479  12.395
 3229W        W75544  28.090  39.406   3.375
 3230W        W75545  13.326   9.267  13.400
 3231W        W75546  41.033  42.853   5.275
 3232W        W75547  35.546  28.156   0.393
 3233W        W75548  43.823   9.697   2.363
 3234W        W75549  23.540  36.933   0.863
 3235W        W75550  14.124   1.251  10.981
 3236W        W75551  11.222  22.694   0.266
 3237W        W75552  15.814   2.831   4.705
 3238W        W75553  29.000  23.637   4.179
 3239W        W75554  44.873  30.473  13.529
 3240W        W75555  19.658  39.347  12.022
 3241W        W75556  28.541   9.737   2.222
 3242W        W75557  17.752   5.804  11.901
 3243W        W75558  40.467  14.631  10.589
 3244W        W75559  41.033   0.333   3.718
 3245W        W75560  43.861  39.013   0.393
 3246W        W75561  43.357  40.861  10.643
 3247W        W75562  11.772   0.745   0.321
 3248W        W75563   7.287  13.321   0.959
 3249W        W75564  18.753  22.091   2.350
 3250W        W75565  27.123  12.123   4.725
 3251W        W75566  20.627  39.502  14.934
 3252W        W75567  38.542   7.707  11.569
 3253W        W75568  13.769  18.556  13.453
 3254W        W75569  36.425  43.923   2.834
 3255W        W75570  20.139  18.717  10.982
 3256W        W75571  36.475   0.772   0.393
 3257W        W75572  32.581  42.941   1.348
 3258W        W75573  31.552  13.184  12.916
 3259W        W75574  18.185  30.078   2.394
 3260W        W75575   1.326  41.522  10.970
 3261W        W75576  20.736   6.811   3.667
 3262W        W75577  43.426  41.870   1.307
 3263W        W75578  14.174  38.344   4.718
 3264W        W75579  24.602  38.957  10.609
 3265W        W75580  37.861  39.925   1.826
 3266W        W75581  27.178  35.580  12.342
 3267W        W75582  16.692  32.541   4.220
 3268W        W75583  24.544  26.527  11.529
 3269W        W75584  20.223  15.764   1.372
 3270W        W75585  36.491  10.150   1.329
 3271W        W75586  24.487  39.477   4.673
 3272W        W75587  25.986   7.746  12.092
 3273W        W75588  19.213  39.841  12.046
 3274W        W75589  26.053  28.096  13.818
 3275W        W75590  18.216  33.541   0.477
 3276W        W75591   8.255   7.407   3.280
 3277W        W75592  42.495  40.808  12.879
 3278W        W75593   0.972  27.076  10.584
 3279W        W75594  28.139  30.544   0.913
 3280W        W75595  23.586  38.402   1.211
 3281W        W75596   0.355  12.187   3.205
 3282W        W75597   7.700  17.790   4.755
 3283W        W75598  13.622  11.626  11.898
 3284W        W75599  27.056  40.964   2.220
 3285W        W75600  30.946  12.142  14.779
 3286W        W75601  24.053  13.244   1.700
 3287W        W75602  10.383  32.080   0.864
 3288W        W75603  20.560  20.698  11.992
 3289W        W75604  17.284   2.903  10.950
 3290W        W75605   4.339  14.213  14.377
 3291W        W75606  40.512  28.617  14.301
 3292W        W75607  32.069   8.750  13.501
 3293W        W75608  16.204  13.624   2.187
 3294W        W75609  32.599  21.703  13.856
 3295W        W75610  29.066  16.101   4.717
 3296W        W75611  39.527   4.929  13.529
 3297W        W75612  40.333  16.202  11.503
 3298W        W75613  11.346  16.309   1.896
 3299W        W75614  30.135   9.218   3.296
 3300W        W75615  11.244  13.262  14.915
 3301W        W75616  12.815  28.583  11.479
 3302W        W75617  31.415  23.706  12.438
 3303W        W75618  30.469   3.930  13.325
 3304W        W75619  25.094  33.513  13.415
 3305W        W75620  30.611   1.788  13.894
 3306W        W75621  20.155  11.805  14.805
 3307W        W75622  20.051  43.421  11.475
 3308W        W75623   3.258   4.274   4.132
 3309W        W75624  36.580  27.104   4.808
 3310W        W75625  18.713  27.548   0.382
 3311W        W75626  10.336   2.770  14.454
 3312W        W75627   8.238  32.103  11.558
 3313W        W75628  20.062  40.504   5.143
 3314W        W75629  24.638  29.083   0.446
 3315W        W75630  39.402  28.073  11.573
 3316W        W75631   2.924  35.004  12.439
 3317W        W75632  22.527   2.958   4.306
 3318W        W75633  41.372  35.918  14.973
 3319W        W75634  42.362   7.373   3.216
 3320W        W75635  31.946  30.049   2.708
 3321W        W75636  39.827  18.676  12.853
 3322W        W75637  33.432  20.718  12.470
 3323W        W75638  26.516  37.923  13.823
 3324W        W75639  19.574  12.349   2.233
 3325W        W75640  25.964  14.831   2.230
 3326W        W75641  35.942  30.520  14.474
 3327W        W75642  32.478  22.629  11.485
 3328W        W75643  11.753  34.469   0.773
 3329W        W75644  37.834   2.316  11.443
 3330W        W75645  29.578  16.212   1.402
 3331W        W75646   2.847  30.161   4.770
 3332W        W75647  36.456   0.753  13.460
 3333W        W75648  15.094  10.219  11.422
 3334W        W75649  33.479   5.219   4.213
 3335W        W75650  42.487  34.945   4.177
 3336W        W75651  37.513   1.270  12.490
 3337W        W75652  42.833  40.805   3.652
 3338W        W75653  21.047  35.067   3.818
 3339W        W75654  22.671   3.271  10.948
 3340W        W75655  22.533  23.507   2.827
 3341W        W75656  34.865  38.913  11.104
 3342W        W75657   9.651  21.182  11.893
 3343W        W75658  43.369  44.277   1.894
 3344W        W75659  19.205  22.607   1.363
 3345W        W75660  24.213  20.634  13.513
 3346W        W75661  20.041  18.753   2.287
 3347W        W75662  16.081   6.185   3.265
 3348W        W75663   1.818   8.301   4.698
 3349W        W75664  24.658  31.594   4.681
 3350W        W75665   3.875  25.028   0.860
 3351W        W75666   6.798   5.420  13.445
 3352W        W75667  35.042  41.444   0.468
 3353W        W75668  26.148   7.850   2.715
 3354W        W75669  19.073  44.866   4.765
 3355W        W75670   7.774  23.597  14.363
 3356W        W75671  17.626  26.559  14.277
 3357W        W75672   6.399   4.880  11.440
 3358W        W75673  27.488  35.370  12.973
 3359W        W75674  17.757  24.050  11.472
 3360W        W75675   3.929  35.875   2.297
 3361W        W75676  35.866  13.834  10.534
 3362W        W75677   6.745  35.932   4.288
 3363W        W75678   8.689   1.393   4.206
 3364W        W75679  21.225  36.392   0.923
 3365W        W75680   6.726   0.886   4.778
 3366W        W75681  33.406  43.844   1.772
 3367W        W75682  11.675   8.849  13.451
 3368W        W75683  43.798   6.226   3.175
 3369W        W75684   2.228  13.775  11.577
 3370W        W75685  39.912   4.210  11.589
 3371W        W75686  36.365  20.112   3.169
 3372W        W75687  31.481  41.440  12.531
 3373W        W75688   7.667  29.638  13.966
 3374W        W75689  22.575  30.499  14.964
 3375W        W75690  27.002   5.791   4.615
 3376W        W75691  27.186   5.928   5.587
 3377W        W75692  40.334  26.674   2.796
 3378W        W75693   6.842  37.858  13.902
 3379W        W75694  27.663  34.588   1.738
 3380W        W75695   3.811   2.781   1.721
 3381W        W75696  16.676   9.198   1.703
 3382W        W75697  35.935  44.786   4.822
 3383W        W75698  15.232  22.638   0.938
 3384W        W75699  34.468  32.450  11.105
 3385W        W75700  37.881  19.221   2.312
 3386W        W75701  35.380   7.393  11.926
 3387W        W75702  41.873  12.203   1.293
 3388W        W75703   1.410  41.820   4.344
 3389W        W75704  26.107  17.099   1.369
 3390W        W75705  15.180   4.721  10.594
 3391W        W75706   5.250  13.194  12.465
 3392W        W75707   3.284  11.627   3.834
 3393W        W75708   9.683  21.221   0.954
 3394W        W75709   5.271  27.986   0.304
 3395W        W75710  20.577  22.716  14.426
 3396W        W75711   3.924  10.639   3.153
 3397W        W75712  17.582  41.033  11.998
 3398W        W75713  43.351  33.603   3.343
 3399W        W75714  30.481  43.501  12.493
 3400W        W75715   1.446  35.978   1.731
 3401W        W75716  37.060  15.652   2.826
 3402W        W75717  22.069  17.132  11.405
 3403W        W75718  31.471  14.256   3.867
 3404W        W75719  30.495  20.646   4.246
 3405W        W75720  14.298  19.581  12.532
 3406W        W75721  38.966  40.364  13.541
 3407W        W75722   4.916  22.667   5.096
 3408W        W75723  36.849  34.448  14.955
 3409W        W75724  15.615  16.659  10.004
 3410W        W75725  42.899  20.030   2.728
 3411W        W75726  18.258  42.401  10.590
 3412W        W75727  39.814  26.622   2.246
 3413W        W75728  39.383  26.208   1.761
 3414W        W75729  11.731   5.438  12.085
 3415W        W75730  22.042  23.673   0.339
 3416W        W75731  44.266  10.643  14.971
 3417W        W75732  25.018   2.923  12.532
 3418W        W75733  23.111  26.506  11.903
 3419W        W75734  29.123  16.699   1.392
 3420W        W75735  14.238  15.158  14.439
 3421W        W75736  28.483  28.032  10.609
 3422W        W75737  40.906  35.446   3.323
 3423W        W75738   0.777  16.111   2.813
 3424W        W75739  44.947  18.082  13.058
 3425W        W75740  19.638  19.149  10.427
 3426W        W75741   0.871  12.149  10.053
 3427W        W75742  28.505  20.233   1.213
 3428W        W75743   2.947   0.470  10.552
 3429W        W75744  28.571   4.920   4.797
 3430W        W75745  30.476   6.777  10.949
 3431W        W75746  37.462  22.059   1.828
 3432W        W75747  32.092  14.657  10.440
 3433W        W75748   5.276  31.449  14.026
 3434W        W75749  33.582  18.750  13.982
 3435W        W75750   3.422   0.892  12.078
 3436W        W75751   6.371  25.984   4.716
 3437W        W75752  36.939   8.293   3.733
 3438W        W75753  40.483  21.155  14.369
 3439W        W75754   8.221  27.985  14.421
 3440W        W75755  40.488   7.796  10.894
 3441W        W75756   8.719  10.724   2.247
 3442W        W75757  25.484  31.050  13.841
 3443W        W75758  31.466  11.141   3.635
 3444W        W75759  29.071  20.733   3.328
 3445W        W75760   2.326   2.926   0.382
 3446W        W75761  43.811   2.436   1.786
 3447W        W75762  15.138   2.870   2.223
 3448W        W75763  14.284   3.944  12.384
 3449W        W75764  17.185  22.567   1.405
 3450W        W75765   2.403  43.925   1.436
 3451W        W75766  13.339  44.946   0.742
 3452W        W75767  36.999  20.682  14.866
 3453W        W75768  15.811   4.924   1.870
 3454W        W75769  40.947  16.120   4.150
 3455W        W75770  35.934  42.005  10.472
 3456W        W75771  43.000  13.287   0.259
 3457W        W75772   9.772  44.357  12.546
 3458W        W75773  10.707  18.114   3.846
 3459W        W75774  16.166  29.972  13.422
 3460W        W75775  21.242  27.558  12.893
 3461W        W75776  21.512  27.658   4.144
 3462W        W75777   4.442  32.991   0.786
 3463W        W75778  41.910  21.118  13.502
 3464W        W75779  21.098  28.996  11.590
 3465W        W75780   8.656   7.185   2.249
 3466W        W75781  35.881  24.053  13.956
 3467W        W75782  41.877   3.230  12.533
 3468W        W75783  30.018  19.206  12.391
 3469W        W75784  20.041  30.503   0.740
 3470W        W75785  43.344  43.999   3.343
 3471W        W75786  17.602   8.215  12.535
 3472W        W75787  18.545  22.235   4.640
 3473W        W75788  26.690  29.091  13.385
 3474W        W75789   3.329  21.731   2.786
 3475W        W75790   4.308   0.758   2.210
 3476W        W75791   2.857  25.625   3.328
 3477W        W75792  14.765  25.082  13.535
 3478W        W75793  17.124  11.248   4.768
 3479W        W75794  38.424  32.056  11.595
 3480W        W75795   0.384  11.194   1.737
 3481W        W75796   5.830  36.493   2.317
 3482W        W75797   9.739   0.398   3.191
 3483W        W75798  30.630   6.380   0.731
 3484W        W75799  37.446  11.699  11.034
 3485W        W75800  15.699  33.442   5.118
 3486W        W75801  29.034   1.803  12.851
 3487W        W75802  10.338  32.119  13.898
 3488W        W75803  21.193   6.696   4.314
 3489W        W75804  41.965  21.245  12.401
 3490W        W75805  28.486   8.251   1.324
 3491W        W75806  12.644   6.686   4.149
 3492W        W75807   7.826  14.255   1.229
 3493W        W75808  25.008  35.103  10.533
 3494W        W75809  39.864   6.782  10.525
 3495W        W75810   9.811  44.504  10.612
 3496W        W75811  35.049  35.580   2.305
 3497W        W75812  41.930  42.948   2.887
 3498W        W75813   0.824  31.638   1.757
 3499W        W75814   1.797  13.254  12.531
 3500W        W75815  21.052  28.027   1.389
 3501W        W75816  34.005  14.340   3.180
 3502W        W75817  27.088  12.707   2.696
 3503W        W75818   9.779  19.603   2.248
 3504W        W75819  32.452  11.682  14.304
 3505W        W75820  33.891   0.833  13.853
 3506W        W75821  23.988  10.354  13.931
 3507W        W75822  14.745  43.450   1.802
 3508W        W75823   8.690  20.529   4.829
 3509W        W75824  29.480  19.125   3.740
 3510W        W75825   5.779  36.025  11.119
 3511W        W75826  32.456   0.359  11.883
 3512W        W75827  37.356   3.306   0.743
 3513W        W75828   8.659   5.796  12.451
 3514W        W75829  15.206  27.595   1.742
 3515W        W75830  41.816  19.632  10.618
 3516W        W75831  35.061  36.984  12.029
 3517W        W75832   9.775  21.550  13.517
 3518W        W75833  22.171  29.487   0.800
 3519W        W75834  43.307  36.432   4.277
 3520W        W75835  25.983  23.572  11.377
 3521W        W75836  16.768  33.923   0.825
 3522W        W75837  19.196  15.200   1.700
 3523W        W75838   6.395  32.024   0.248
 3524W        W75839   0.412  42.496   2.282
 3525W        W75840  28.609  44.464   1.232
 3526W        W75841   4.829   9.773  12.517
 3527W        W75842  26.998   3.824   5.773
 3528W        W75843   5.197  32.503   4.823
 3529W        W75844  15.191  19.206   3.813
 3530W        W75845  21.604  17.571   1.842
 3531W        W75846  37.874   5.733   3.164
 3532W        W75847  40.037   0.420   2.881
 3533W        W75848  44.965   9.163   9.973
 3534W        W75849   2.840  36.354  14.888
 3535W        W75850   9.193  13.117  12.500
 3536W        W75851   0.980  40.327  11.579
 3537W        W75852  19.658  15.197   3.305
 3538W        W75853  18.269  29.431   4.243
 3539W        W75854  10.202  34.436   4.777
 3540W        W75855  39.319  33.427  14.282
 3541W        W75856  28.669   6.194   0.831
 3542W        W75857  43.509  11.700   0.803
 3543W        W75858  20.613   0.397  12.381
 3544W        W75859  25.470  17.156  10.139
 3545W        W75860  37.894  16.290  11.950
 3546W        W75861  21.649  31.437   0.883
 3547W        W75862  25.474  18.575  10.417
 3548W        W75863  21.699  37.554  13.388
 3549W        W75864  40.831   6.401   3.668
 3550W        W75865  28.149  15.783  11.469
 3551W        W75866   8.719  39.900   3.847
 3552W        W75867  16.273  15.639  13.968
 3553W        W75868   0.771  24.517  10.579
 3554W        W75869  25.003  36.452  12.482
 3555W        W75870  14.600  31.912  14.965
 3556W        W75871   4.289  38.370  13.355
 3557W        W75872  22.595  13.702  12.571
 3558W        W75873  42.937  18.255   1.857
 3559W        W75874  11.808  27.502   0.360
 3560W        W75875  18.634  12.311  12.070
 3561W        W75876  36.590  31.621   2.397
 3562W        W75877  18.664  40.839  11.950
 3563W        W75878   7.744  36.469   0.359
 3564W        W75879  34.600   0.254  10.426
 3565W        W75880  19.178  22.583   4.345
 3566W        W75881   9.699  29.633  13.366
 3567W        W75882  18.589  35.435  13.500
 3568W        W75883   0.477  38.975  12.518
 3569W        W75884   3.374  38.378   3.655
 3570W        W75885  27.671   3.942   4.316
 3571W        W75886  24.067  33.468   3.852
 3572W        W75887  21.548  23.594  11.075
 3573W        W75888   0.466   4.213  13.823
 3574W        W75889  41.922  26.127   2.889
 3575W        W75890  28.456  33.590   1.773
 3576W        W75891   2.249  35.097   0.343
 3577W        W75892  35.569  37.518   4.313
 3578W        W75893  37.896  14.318  10.570
 3579W        W75894  23.706  21.184   3.226
 3580W        W75895   7.724  31.051   2.676
 3581W        W75896  37.914  30.419   1.397
 3582W        W75897   8.721  26.647   3.293
 3583W        W75898  25.535  14.756  13.466
 3584W        W75899  19.259  22.125  12.020
 3585W        W75900   9.685  37.083   0.438
 3586W        W75901  32.396  29.027   3.362
 3587W        W75902  25.119  10.256   0.766
 3588W        W75903  14.330  29.437   4.207
 3589W        W75904  32.897  29.132  14.407
 3590W        W75905   4.407  30.138  10.547
 3591W        W75906  16.129  28.937  12.371
 3592W        W75907  16.662  33.392   2.846
 3593W        W75908  20.243  29.578  14.475
 3594W        W75909  36.935  37.843  14.940
 3595W        W75910   1.385  27.992   0.337
 3596W        W75911   9.765  34.549   2.815
 3597W        W75912  32.008   4.305  14.384
 3598W        W75913   2.436  17.205   2.802
 3599W        W75914  27.113  27.463   1.799
 3600W        W75915  11.206   9.205   3.198
 3601W        W75916  40.980  31.549  13.515
 3602W        W75917  35.948  17.280  13.451
 3603W        W75918  41.916  20.169  11.936
 3604W        W75919   2.735  34.502   3.823
 3605W        W75920  33.452   7.809   3.274
 3606W        W75921   1.305   5.801  13.907
 3607W        W75922  22.060  38.005   1.414
 3608W        W75923   1.265  25.012   0.934
 3609W        W75924   2.721  30.031  14.775
 3610W        W75925  41.009  42.436   4.342
 3611W        W75926  19.650  33.937   0.876
 3612W        W75927  38.045  24.490  14.902
 3613W        W75928  13.341  35.881  11.070
 3614W        W75929  42.290  35.499  10.437
 3615W        W75930   3.406   0.825   4.752
 3616W        W75931  35.038  37.931  12.053
 3617W        W75932  23.060  13.813   0.762
 3618W        W75933  38.922  17.261   4.829
 3619W        W75934  17.168  22.740  11.882
 3620W        W75935  38.491   4.231  14.010
 3621W        W75936  43.010  21.081  10.419
 3622W        W75937  10.677  10.157  10.897
 3623W        W75938   7.665  28.491  13.965
 3624W        W75939  36.868   3.354  13.464
 3625W        W75940  20.729  42.314  13.995
 3626W        W75941  16.698  43.439  10.594
 3627W        W75942  27.643  27.074   4.137
 3628W        W75943  36.070  12.801   1.433
 3629W        W75944   0.919  23.206   2.180
 3630W        W75945  35.105  35.055  13.388
 3631W        W75946  42.500   5.389  13.793
 3632W        W75947  11.255  25.182   4.720
 3633W        W75948   9.243  28.632   2.834
 3634W        W75949  33.130  20.177   4.113
 3635W        W75950  41.956  26.203   2.410
 3636W        W75951   3.295   8.281   2.894
 3637W        W75952  35.491  17.630   0.266
 3638W        W75953   5.235  23.233  14.026
 3639W        W75954  26.097  19.657  10.603
 3640W        W75955  35.890  23.594  10.618
 3641W        W75956  32.602  15.610   0.293
 3642W        W75957  40.050   4.788   3.816
 3643W        W75958  15.307   2.769  14.282
 3644W        W75959   8.348  35.463  11.612
 3645W        W75960  38.481  36.395  12.026
 3646W        W75961  42.999  37.463   4.227
 3647W        W75962  31.512  20.098  14.473
 3648W        W75963  13.739   3.268   2.881
 3649W        W75964  41.874  19.587   9.996
 3650W        W75965   0.257  42.964   4.214
 3651W        W75966  12.319   3.859  14.370
 3652W        W75967   0.248  33.581   9.545
 3653W        W75968  12.239  37.348  14.932
 3654W        W75969  44.381  13.342  13.320
 3655W        W75970  16.609  30.502  10.447
 3656W        W75971  21.739  44.441  10.993
 3657W        W75972  42.488  35.098   0.894
 3658W        W75973  36.995  27.581  11.432
 3659W        W75974  21.615   9.699  14.918
 3660W        W75975  20.651  26.497  11.406
 3661W        W75976  12.719  44.993  14.432
 3662W        W75977  42.402  38.478   1.838
 3663W        W75978   3.448  24.152   0.417
 3664W        W75979  24.645   9.333  11.387
 3665W        W75980  17.775  33.938  10.924
 3666W        W75981  24.206  29.559   5.303
 3667W        W75982  10.217   7.227   5.091
 3668W        W75983  26.499  21.546  14.823
 3669W        W75984  12.233   6.851   1.875
 3670W        W75985  14.123  44.001   3.347
 3671W        W75986  15.122  37.940   1.211
 3672W        W75987  41.424   1.877  13.064
 3673W        W75988  34.542   2.401   2.707
 3674W        W75989  33.532   3.802  12.002
 3675W        W75990   7.249  40.334  14.812
 3676W        W75991  31.135   3.296   0.851
 3677W        W75992  44.439   1.416   2.321
 3678W        W75993  39.377  38.050   3.724
 3679W        W75994  20.669   3.830  13.984
 3680W        W75995  24.989  20.676   5.694
 3681W        W75996  33.439  41.998   3.202
 3682W        W75997  44.805  43.793   1.827
 3683W        W75998  21.636  32.031  10.899
 3684W        W75999   0.829   6.191  10.642
 3685W        W76000   6.879  35.878   1.875
 3686W        W76001  11.329  29.093   0.372
 3687W        W76002  39.816   8.315   1.932
 3688W        W76003  35.500   8.695   1.319
 3689W        W76004   4.400   5.435  10.523
 3690W        W76005  36.366  40.520  10.543
 3691W        W76006   5.286   7.238   1.735
 3692W        W76007  21.702  41.010   0.283
 3693W        W76008   1.853  31.909   5.278
 3694W        W76009   5.439   1.832   4.794
 3695W        W76010  32.101  17.286  11.915
 3696W        W76011  26.059  23.037   3.193
 3697W        W76012   6.273  21.583   4.813
 3698W        W76013  42.829  36.006   3.175
 3699W        W76014  39.979  10.802  13.875
 3700W        W76015  10.299  40.867   1.850
 3701W        W76016  24.668  33.033  13.541
 3702W        W76017  20.712  23.639   4.267
 3703W        W76018  31.483  19.701   1.367
 3704W        W76019  10.810  22.517  13.321
 3705W        W76020  17.617  14.619  12.483
 3706W        W76021  42.910   4.872  13.363
 3707W        W76022  24.119  24.205  11.064
 3708W        W76023  18.714  11.146   2.308
 3709W        W76024  16.196  37.444  11.483
 3710W        W76025  16.809  41.963   1.227
 3711W        W76026   0.888  41.970  14.277
 3712W        W76027  26.515  36.566   3.357
 3713W        W76028  22.056  42.396   0.353
 3714W        W76029   5.744  32.440  14.897
 3715W        W76030  26.644   0.421   1.429
 3716W        W76031  38.429  24.721  12.493
 3717W        W76032  10.243   4.822   2.774
 3718W        W76033  15.152  29.942   0.375
 3719W        W76034  14.822  29.117  14.431
 3720W        W76035  11.686  15.109  11.598
 3721W        W76036  37.049  21.240   1.822
 3722W        W76037   3.790  23.136   0.354
 3723W        W76038   9.216   0.958   9.946
 3724W        W76039  31.536   3.237   4.301
 3725W        W76040   1.971  44.499   2.252
 3726W        W76041   7.720  40.810  14.861
 3727W        W76042  22.698  10.802   4.666
 3728W        W76043  16.090  22.158   1.332
 3729W        W76044   5.782  31.113  12.469
 3730W        W76045  34.120  13.219  14.497
 3731W        W76046  40.498  24.662   0.889
 3732W        W76047  14.317  11.642   2.671
 3733W        W76048  22.597  38.567  11.090
 3734W        W76049  11.639  32.052   3.312
 3735W        W76050  37.925  17.748   4.837
 3736W        W76051  36.896   2.427  13.472
 3737W        W76052   4.929   3.756   3.733
 3738W        W76053  37.408  23.641   2.257
 3739W        W76054  33.090  18.197   3.752
 3740W        W76055  23.093  13.330  11.920
 3741W        W76056  31.920  17.185   1.902
 3742W        W76057  32.445  22.596  12.918
 3743W        W76058  20.727   1.402   1.922
 3744W        W76059  41.935  36.581   4.229
 3745W        W76060  14.670  35.909   4.660
 3746W        W76061  17.647   9.197  14.511
 3747W        W76062  22.116  23.995   0.930
 3748W        W76063   3.948   0.297   4.598
 3749W        W76064   3.788  30.047   1.415
 3750W        W76065  44.493  28.580   4.795
 3751W        W76066  35.498  34.444  14.318
 3752W        W76067   7.402  37.548   4.705
 3753W        W76068   4.870  13.639  14.346
 3754W        W76069  20.142  21.215   2.889
 3755W        W76070  38.525  23.186   4.602
 3756W        W76071  32.465  12.259   1.811
 3757W        W76072  32.616  39.517   1.228
 3758W        W76073  42.961  18.736   2.329
 3759W        W76074   6.684  43.903  10.995
 3760W        W76075  22.677  22.527  12.016
 3761W        W76076  23.154  19.282   0.328
 3762W        W76077  44.383  11.773   3.807
 3763W        W76078  41.439  12.184   0.899
 3764W        W76079  20.206  12.267  11.539
 3765W        W76080  26.131  35.887  11.567
 3766W        W76081  27.993  34.983  12.905
 3767W        W76082  29.613  24.522  13.002
 3768W        W76083  43.785  19.569  13.929
 3769W        W76084   8.680   8.328  14.774
 3770W        W76085  16.257  36.557   4.665
 3771W        W76086  28.470  34.982   1.712
 3772W        W76087  43.318  25.526   2.876
 3773W        W76088  28.627  40.359   0.843
 3774W        W76089   0.867  34.543   2.256
 3775W        W76090  21.561   5.886   0.415
 3776W        W76091  30.116   9.875  11.907
 3777W        W76092  34.975  20.211  12.938
 3778W        W76093  37.974  22.531  14.786
 3779W        W76094  14.728  43.498  12.957
 3780W        W76095  29.104  18.246  14.286
 3781W        W76096  27.469  15.679   3.802
 3782W        W76097  16.726  23.567   0.253
 3783W        W76098  43.332  34.541   2.665
 3784W        W76099  22.528  32.551  11.506
 3785W        W76100   8.240  14.096  10.547
 3786W        W76101  13.690  11.863   2.336
 3787W        W76102  38.909  42.001   5.146
 3788W        W76103  13.189  33.433   0.870
 3789W        W76104  29.111   0.759  14.948
 3790W        W76105   4.352  34.601  12.359
 3791W        W76106  33.577  29.093   0.244
 3792W        W76107  36.380  34.473  13.459
 3793W        W76108  27.642   0.414  11.494
 3794W        W76109   9.719   5.206  14.332
 3795W        W76110  25.560  17.135  12.462
 3796W        W76111   5.770   0.443  11.610
 3797W        W76112   0.969  26.001   2.799
 3798W        W76113  38.016  40.995  14.964
 3799W        W76114  25.550  27.094   0.892
 3800W        W76115   8.815  20.110   2.326
 3801W        W76116  28.489  33.410   2.250
 3802W        W76117  34.512  24.125  12.918
 3803W        W76118   4.264  26.186  13.424
 3804W        W76119  22.722  35.952   3.664
 3805W        W76120  11.781  19.690  14.935
 3806W        W76121  28.609  21.021   0.851
 3807W        W76122  27.544  36.869  14.359
 3808W        W76123  37.543  41.799   1.389
 3809W        W76124   8.757  14.724   3.169
 3810W        W76125  19.770  13.284   2.324
 3811W        W76126  30.139   8.870   2.181
 3812W        W76127   5.792   7.746  14.429
 3813W        W76128  35.970  13.180   4.299
 3814W        W76129   4.765  22.524  11.512
 3815W        W76130   9.835   3.894   2.740
 3816W        W76131  11.139  41.326  14.812
 3817W        W76132  20.274  37.582   0.436
 3818W        W76133   3.419  37.368  13.822
 3819W        W76134  11.244  20.751  10.409
 3820W        W76135  27.613  30.431   0.945
 3821W        W76136   2.373  13.747   0.823
 3822W        W76137  31.934   3.359   4.715
 3823W        W76138  33.984  34.611   1.211
 3824W        W76139  27.446  21.029   2.748
 3825W        W76140  30.610  18.768   1.350
 3826W        W76141   7.329  32.574   2.761
 3827W        W76142  17.099  36.530   3.717
 3828W        W76143  22.009  12.316  10.894
 3829W        W76144  29.936  35.949   2.200
 3830W        W76145  26.580  35.038   0.323
 3831W        W76146  44.430  21.248  14.431
 3832W        W76147  13.285  15.105   2.404
 3833W        W76148  12.723  24.555   3.286
 3834W        W76149  18.268  25.690  13.486
 3835W        W76150  16.313   2.337  11.005
 3836W        W76151  42.289   0.475  12.024
 3837W        W76152  26.674   8.676   1.828
 3838W        W76153  16.605   4.724  12.494
 3839W        W76154  23.072  37.369   3.241
 3840W        W76155   1.421  32.550   1.374
 3841W        W76156  19.276  13.130  13.058
 3842W        W76157   4.449  39.826   2.703
 3843W        W76158   4.836  36.481   3.220
 3844W        W76159  11.307   0.470  10.536
 3845W        W76160  12.228  44.812   1.752
 3846W        W76161  10.811  16.079  12.548
 3847W        W76162  33.560  13.318  14.809
 3848W        W76163  38.879  19.082   3.785
 3849W        W76164  23.239  33.560  14.314
 3850W        W76165  16.197  42.933  11.918
 3851W        W76166  23.680   9.670  12.085
 3852W        W76167  42.335   4.270  14.812
 3853W        W76168  40.532  37.414   1.411
 3854W        W76169   6.185  20.090   3.695
 3855W        W76170   3.867  34.441  13.853
 3856W        W76171   4.404  15.151  13.986
 3857W        W76172  15.310  32.574   0.759
 3858W        W76173  11.822  23.042   0.374
 3859W        W76174  35.016  21.023  14.348
 3860W        W76175  24.089  39.328   3.708
 3861W        W76176  15.084  33.109   0.804
 3862W        W76177  27.977  39.424  11.931
 3863W        W76178  26.477  13.692  11.419
 3864W        W76179  24.480  19.645   5.217
 3865W        W76180  12.281  34.536  13.845
 3866W        W76181   3.808  21.208  11.506
 3867W        W76182  42.787  25.489  13.910
 3868W        W76183  32.461  12.619   0.412
 3869W        W76184  14.242  11.338  14.513
 3870W        W76185   2.779   6.898  13.546
 3871W        W76186  22.205   4.300  12.507
 3872W        W76187  30.438  38.336  10.451
 3873W        W76188   1.936  21.032   4.757
 3874W        W76189  14.303   1.377  12.043
 3875W        W76190  19.070  35.522   0.903
 3876W        W76191  20.747  43.343  10.494
 3877W        W76192   4.440   6.299  13.362
 3878W        W76193  19.669  39.918   1.839
 3879W        W76194  14.252  15.640  14.802
 3880W        W76195  14.770  43.851   0.866
 3881W        W76196  41.928  20.625   4.125
 3882W        W76197  37.083  23.056  11.911
 3883W        W76198  24.634  13.697  11.128
 3884W        W76199  27.562  40.980  12.453
 3885W        W76200  40.496  18.688  12.542
 3886W        W76201  20.630   5.255   1.243
 3887W        W76202  37.929  11.766  11.949
 3888W        W76203  32.468  16.269  10.609
 3889W        W76204  35.872   7.768  11.914
 3890W        W76205   1.773   8.658   4.275
 3891W        W76206  42.337  20.657  10.526
 3892W        W76207  33.119  12.192   0.770
 3893W        W76208  14.674  15.145   3.345
 3894W        W76209  12.633  34.007  12.047
 3895W        W76210  16.125  25.538  12.920
 3896W        W76211  39.476  36.537  13.059
 3897W        W76212  21.101   5.715  13.540
 3898W        W76213  27.487  33.118  10.094
 3899W        W76214   1.867  35.893  10.406
 3900W        W76215  24.573  23.209  10.574
 3901W        W76216  22.999  17.718  13.383
 3902W        W76217   1.417  13.133   2.314
 3903W        W76218  43.902  30.081  11.581
 3904W        W76219  27.086  26.686  13.990
 3905W        W76220  43.844  30.584   4.230
 3906W        W76221  11.863   7.217   2.357
 3907W        W76222  43.297  26.166  11.860
 3908W        W76223  28.627  17.687   2.706
 3909W        W76224  31.486   6.229  13.833
 3910W        W76225  10.689  13.763  10.520
 3911W        W76226   6.918  32.620  14.988
 3912W        W76227  16.806  42.298   1.353
 3913W        W76228  23.701  21.727   3.821
 3914W        W76229  19.690  34.021   4.633
 3915W        W76230  19.262  21.219   5.213
 3916W        W76231  25.115  30.912   1.275
 3917W        W76232  19.059   1.348  12.059
 3918W        W76233  24.574  13.638  12.857
 3919W        W76234  26.048  14.801  13.935
 3920W        W76235  10.164  18.721   5.738
 3921W        W76236  15.267   9.704  13.528
 3922W        W76237  34.051  23.698  14.924
 3923W        W76238  43.905   9.385  12.465
 3924W        W76239  27.487  22.503  13.387
 3925W        W76240  22.072  25.016   1.303
 3926W        W76241  29.092  14.273   4.142
 3927W        W76242  35.100  20.656  13.928
 3928W        W76243  25.065  30.114  12.866
 3929W        W76244  38.339  28.044  12.941
 3930W        W76245  34.501  33.082   4.123
 3931W        W76246  25.522  18.252   4.797
 3932W        W76247  11.624   2.325  13.845
 3933W        W76248  33.387  37.531   4.820
 3934W        W76249  20.258  10.172   1.339
 3935W        W76250  21.570  18.761  10.599
 3936W        W76251  43.928  30.932   4.773
 3937W        W76252  27.561   9.180   2.716
 3938W        W76253  28.620   8.233   3.862
 3939W        W76254  33.462   9.704   3.147
 3940W        W76255   0.989  16.703  10.973
 3941W        W76256  25.094  44.756  12.349
 3942W        W76257   9.185  19.548   3.372
 3943W        W76258  34.491  17.800   0.841
 3944W        W76259  38.879  40.041  14.972
 3945W        W76260  40.403  20.226  12.871
 3946W        W76261  25.529  24.022  11.000
 3947W        W76262  33.884  22.996   2.683
 3948W        W76263   5.335  36.926   1.804
 3949W        W76264  32.011  38.994   5.104
 3950W        W76265   8.668  30.652   1.789
 3951W        W76266  24.655   8.362  11.982
 3952W        W76267  41.317  13.758  13.485
 3953W        W76268  41.896  37.490   4.598
 3954W        W76269  42.814  35.852  10.496
 3955W        W76270  11.666  16.724  14.347
 3956W        W76271  21.024  25.035   0.829
 3957W        W76272  25.618   6.424   2.726
 3958W        W76273  41.456   4.230  14.918
 3959W        W76274  15.732  23.097   2.338
 3960W        W76275  24.614  12.658   2.715
 3961W        W76276  13.226  27.462  10.617
 3962W        W76277  22.146  15.655  10.596
 3963W        W76278  27.573  28.629   1.898
 3964W        W76279  13.111  32.054   0.961
 3965W        W76280  40.363  15.616   1.808
 3966W        W76281  33.554  32.522   2.695
 3967W        W76282  27.042  16.246  12.528
 3968W        W76283  27.588  14.745   3.769
 3969W        W76284  34.905   0.342   0.353
 3970W        W76285  28.574  33.607   5.184
 3971W        W76286   2.336  37.941  10.562
 3972W        W76287   2.226  12.184   1.329
 3973W        W76288  28.521  32.561  14.775
 3974W        W76289   6.262   1.823   0.738
 3975W        W76290  25.619  30.043   1.267
 3976W        W76291  43.862   0.270  11.066
 3977W        W76292  18.766  20.084  14.017
 3978W        W76293  39.817  30.154   0.464
 3979W        W76294  12.841   9.300  14.330
 3980W        W76295   3.869   2.798  14.783
 3981W        W76296  17.572   7.863  10.594
 3982W        W76297  38.863  44.410   2.210
 3983W        W76298  19.590  19.196   3.654
 3984W        W76299  26.982   4.720   0.794
 3985W        W76300  20.270  10.790  12.460
 3986W        W76301  12.188   1.791  14.849
 3987W        W76302   0.284  24.615   3.746
 3988W        W76303   4.254  28.127   1.841
 3989W        W76304  39.850  21.743  11.374
 3990W        W76305  13.710  16.802  14.329
 3991W        W76306  23.569  21.546  12.044
 3992W        W76307   1.919   5.831  13.977
 3993W        W76308  31.126   5.208  12.522
 3994W        W76309   3.300   9.293   5.175
 3995W        W76310  44.970  32.931   4.767
 3996W        W76311  24.002   2.750   3.784
 3997W        W76312  24.016   9.712   3.748
 3998W        W76313   7.333  14.312   1.776
 3999W        W76314  30.162  18.262   4.262
 4000W        W76315  44.298  26.570   4.302
 4001W        W76316  25.004  36.933   1.270
 4002W        W76317  13.797  38.936  11.586
 4003W        W76318   1.447  42.951  10.017
 4004W        W76319   5.433  44.378   2.893
 4005W        W76320  14.760  21.730   3.664
 4006W        W76321  32.099  34.892   2.876
 4007W        W76322  39.064   0.851   3.703
 4008W        W76323  14.099   1.249   2.862
 4009W        W76324  15.586  17.163  10.903
 4010W        W76325  43.812  40.983   2.888
 4011W        W76326  18.072   2.886  12.422
 4012W        W76327  11.286   7.322  11.381
 4013W        W76328   8.759  40.314  11.047
 4014W        W76329   5.877  32.957   0.249
 4015W        W76330  20.110   1.261  14.762
 4016W        W76331  30.490  17.305  13.992
 4017W        W76332  35.923  36.473  12.513
 4018W        W76333  28.584  13.643   4.823
 4019W        W76334  44.287  18.102  10.919
 4020W        W76335  12.701   3.321  14.399
 4021W        W76336   4.419   1.833   0.959
 4022W        W76337  13.304  29.991  12.393
 4023W        W76338  23.689   1.385   0.476
 4024W        W76339   8.674  28.553  12.571
 4025W        W76340   7.841  43.853   1.348
 4026W        W76341  11.672  29.497   4.622
 4027W        W76342  20.651  25.995  12.046
 4028W        W76343  28.490  32.614  13.966
 4029W        W76344  17.700  28.052   3.788
 4030W        W76345  36.066   4.233  14.377
 4031W        W76346  18.649   0.470   2.233
 4032W        W76347  16.639  39.560   3.253
 4033W        W76348  37.056  39.490  12.482
 4034W        W76349  12.322  31.625  13.959
 4035W        W76350  31.407  23.620  13.822
 4036W        W76351  27.524  17.717   2.213
 4037W        W76352  34.112  44.421  10.574
 4038W        W76353  43.017  44.269  11.030
 4039W        W76354  28.086  43.790  12.346
 4040W        W76355  11.659  30.542  11.946
 4041W        W76356   1.315  14.191  11.468
 4042W        W76357  28.128  43.300   4.136
 4043W        W76358  40.401  12.141   0.458
 4044W        W76359   8.900  37.542   2.685
 4045W        W76360  30.085  34.958   2.419
 4046W        W76361  44.798  29.435  14.830
 4047W        W76362  28.635  10.835   2.255
 4048W        W76363  30.967  11.865  14.795
 4049W        W76364  27.532  22.143   2.686
 4050W        W76365   4.751  37.873   0.352
 4051W        W76366  18.210   7.399   4.600
 4052W        W76367  43.340   0.339   1.762
 4053W        W76368  13.803  37.426   3.241
 4054W        W76369  17.768  23.160  13.512
 4055W        W76370   0.872  24.229  14.845
 4056W        W76371  33.020  36.445   1.733
 4057W        W76372  16.292   8.679   3.722
 4058W        W76373  35.073  42.336  11.450
 4059W        W76374  18.096   6.309   0.935
 4060W        W76375   5.257   9.148  12.845
 4061W        W76376  12.765  29.068   3.663
 4062W        W76377  39.336   8.247   2.775
 4063W        W76378  18.694  27.188  11.398
 4064W        W76379  13.341  13.210   1.412
 4065W        W76380  31.542  10.295   1.699
 4066W        W76381  17.637  31.944   0.869
 4067W        W76382  18.150  25.968  12.426
 4068W        W76383   5.826  10.820   0.919
 4069W        W76384  23.496  12.727   2.325
 4070W        W76385   7.673   2.836   4.275
 4071W        W76386  37.935  22.188   2.285
 4072W        W76387  21.138   7.793   5.228
 4073W        W76388  36.997  18.185   2.239
 4074W        W76389   2.745   1.370   4.710
 4075W        W76390  44.259  12.116   1.838
 4076W        W76391   2.862  31.085   4.340
 4077W        W76392  18.203  26.963  12.348
 4078W        W76393  22.150  30.002   4.828
 4079W        W76394  16.247  38.985   5.285
 4080W        W76395  39.329  27.461  10.947
 4081W        W76396  37.940   7.680  14.323
 4082W        W76397  24.690  33.083   4.666
 4083W        W76398   6.742  37.871   4.822
 4084W        W76399  39.369   8.212   2.201
 4085W        W76400  17.679  26.162   4.784
 4086W        W76401  41.905  30.580   4.674
 4087W        W76402  30.529  19.165   1.277
 4088W        W76403   1.890  12.847   4.661
 4089W        W76404   0.406   0.957   2.384
 4090W        W76405   5.732  31.541  12.546
 4091W        W76406   6.723  32.065   1.906
 4092W        W76407  43.809  30.600  12.835
 4093W        W76408  10.291  39.387   4.607
 4094W        W76409   7.270  18.730   2.686
 4095W        W76410  22.675  39.932  13.005
 4096W        W76411  10.274  35.549  12.521
 4097W        W76412  18.272  26.522   4.328
 4098W        W76413   6.391  41.429  11.022
 4099W        W76414  34.005   6.919   2.878
 4100W        W76415   5.838   2.298   4.334
 4101W        W76416   8.755   3.817   3.351
 4102W        W76417  20.630   2.422  14.910
 4103W        W76418  20.738  34.968  13.042
 4104W        W76419   0.910  29.512   2.693
 4105W        W76420   7.209  29.661  12.959
 4106W        W76421   3.439  14.228  13.917
 4107W        W76422  17.654  44.407  13.501
 4108W        W76423  33.451  39.953   4.306
 4109W        W76424  32.066  16.289   0.303
 4110W        W76425   6.823   9.348   1.839
 4111W        W76426  39.831   7.746   4.325
 4112W        W76427  20.561  38.043   0.291
 4113W        W76428  33.012  44.007   0.869
 4114W        W76429  18.175  41.908   3.804
 4115W        W76430  22.226  41.428   2.250
 4116W        W76431  41.027  38.459   2.691
 4117W        W76432  19.208  39.452  12.086
 4118W        W76433  25.005  39.460  11.862
 4119W        W76434  21.687  31.630  13.030
 4120W        W76435  11.307   6.829  13.392
 4121W        W76436  25.474  43.437   0.307
 4122W        W76437  12.281   4.853   1.756
 4123W        W76438  28.136   6.218  12.987
 4124W        W76439  39.972   5.393   2.227
 4125W        W76440  12.295   1.420  10.991
 4126W        W76441   5.761  15.288   0.482
 4127W        W76442  12.203  35.509   1.415
 4128W        W76443  40.897  42.901  12.989
 4129W        W76444  28.465  21.755   3.165
 4130W        W76445  10.815   4.773   1.249
 4131W        W76446  10.754  37.425   4.597
 4132W        W76447  32.576  33.874  10.910
 4133W        W76448   0.836  41.428  11.410
 4134W        W76449   2.840  18.067   2.345
 4135W        W76450   7.875  11.625   3.644
 4136W        W76451  44.001  37.383  13.489
 4137W        W76452  10.239  41.404  12.825
 4138W        W76453  26.457   4.821  13.897
 4139W        W76454   8.187  41.444   1.754
 4140W        W76455  34.062  34.425  12.054
 4141W        W76456  25.521  11.845  10.022
 4142W        W76457  44.380  34.866  12.024
 4143W        W76458  32.929  15.208   0.251
 4144W        W76459  43.317  44.418   2.220
 4145W        W76460  22.138  18.646  13.330
 4146W        W76461  34.560   5.398  12.383
 4147W        W76462  12.315  10.252   0.847
 4148W        W76463   1.446   6.710  14.282
 4149W        W76464  28.622  43.445   2.214
 4150W        W76465   1.837  11.659   4.798
 4151W        W76466  28.967   6.211   1.853
 4152W        W76467  15.273  44.953   2.899
 4153W        W76468  20.123  36.010  13.311
 4154W        W76469   3.415  12.816   2.269
 4155W        W76470   5.745  22.718  12.482
 4156W        W76471  11.338   4.439   4.669
 4157W        W76472  21.527  43.311   3.864
 4158W        W76473   0.479  38.984   0.822
 4159W        W76474   0.841  12.709  12.573
 4160W        W76475  23.040  36.854  13.363
 4161W        W76476  14.757  13.109   0.830
 4162W        W76477  15.266  27.108  11.868
 4163W        W76478  34.615  35.536   1.839
 4164W        W76479  39.525  32.015  10.539
 4165W        W76480  37.508  16.234  12.942
 4166W        W76481  36.058   9.275  12.537
 4167W        W76482  15.190  32.598  10.992
 4168W        W76483  10.210  29.129   3.369
 4169W        W76484  14.619  19.186   3.386
 4170W        W76485  33.483  13.200  12.888
 4171W        W76486  35.953  10.732  14.016
 4172W        W76487  39.451  41.455  12.011
 4173W        W76488  12.622  36.988  11.048
 4174W        W76489  17.556  27.032   2.813
 4175W        W76490  42.955  28.102  13.860
 4176W        W76491  43.771  23.728  12.356
 4177W        W76492  11.693   8.178  13.858
 4178W        W76493   1.421   1.754   1.751
 4179W        W76494  12.207  27.127   0.278
 4180W        W76495  36.563  36.503  10.903
 4181W        W76496  43.819  27.519  10.643
 4182W        W76497  29.439   4.747  12.363
 4183W        W76498  26.567  19.169   0.839
 4184W        W76499   5.759  24.124   4.837
 4185W        W76500   4.228   5.768  13.437
 4186W        W76501  27.956   1.947  14.888
 4187W        W76502  26.174  24.218  13.809
 4188W        W76503  17.666  17.145   0.327
 4189W        W76504  32.909   5.382  11.423
 4190W        W76505   2.909  39.871  12.045
 4191W        W76506  18.633   4.858   3.354
 4192W        W76507   2.242  29.505   3.313
 4193W        W76508  18.195  37.493   3.681
 4194W        W76509   0.372   6.693   3.154
 4195W        W76510  42.013  35.441   4.730
 4196W        W76511  12.760   5.391  14.493
 4197W        W76512  10.173  15.649   4.664
 4198W        W76513  32.408  34.062   1.225
 4199W        W76514  26.463  30.601   4.802
 4200W        W76515  16.089   8.664  11.598
 4201W        W76516  22.576  23.611  12.525
 4202W        W76517  32.520   4.860  14.833
 4203W        W76518  18.751  14.099   4.770
 4204W        W76519  36.002  34.412  13.916
 4205W        W76520  43.810  10.800   0.939
 4206W        W76521  23.227   3.775   2.858
 4207W        W76522  35.898  36.847  11.387
 4208W        W76523  43.973  22.213   1.351
 4209W        W76524   6.791   8.713   2.858
 4210W        W76525  43.876  13.650  13.412
 4211W        W76526  13.630   0.401  12.343
 4212W        W76527  42.019   1.972   2.383
 4213W        W76528  21.560   4.705   3.689
 4214W        W76529  20.199  11.337  12.872
 4215W        W76530  17.800  22.200  10.617
 4216W        W76531   9.347  21.661   0.906
 4217W        W76532  40.995   9.786   4.680
 4218W        W76533  38.957  42.909   2.791
 4219W        W76534  39.496  26.153  13.862
 4220W        W76535   7.258  39.887  13.021
 4221W        W76536   2.880   5.326  12.366
 4222W        W76537  35.087  23.708  10.592
 4223W        W76538  39.003  30.568  11.579
 4224W        W76539  26.627  30.428  10.538
 4225W        W76540   1.459  42.921  14.964
 4226W        W76541  11.647  13.833  13.498
 4227W        W76542   4.401  18.193  14.948
 4228W        W76543   8.239  42.894   3.631
 4229W        W76544  24.661  16.129   0.377
 4230W        W76545  22.690  10.763  14.929
 4231W        W76546  16.204   9.335  13.474
 4232W        W76547   5.372  14.315   0.742
 4233W        W76548  16.723  24.004   0.876
 4234W        W76549  33.477   6.890   4.137
 4235W        W76550  37.057   0.882   1.804
 4236W        W76551  41.018   9.309   1.232
 4237W        W76552  36.396   5.248   4.199
 4238W        W76553  43.791  12.744   2.839
 4239W        W76554  42.975  37.515  11.941
 4240W        W76555  38.844   3.809   1.400
 4241W        W76556  20.566  25.164  12.409
 4242W        W76557  18.223   0.326   3.275
 4243W        W76558  19.711  15.689  13.941
 4244W        W76559  10.289  14.816   1.339
 4245W        W76560   9.162   9.171   2.273
 4246W        W76561  40.978  12.680  14.924
 4247W        W76562  31.474  33.574   0.362
 4248W        W76563  39.035  35.091  13.842
 4249W        W76564   0.861  33.557   2.374
 4250W        W76565   9.802  31.612  14.391
 4251W        W76566  20.532  40.516   0.788
 4252W        W76567  18.685   0.920   4.823
 4253W        W76568  24.082  15.665   5.084
 4254W        W76569   1.815  20.737  14.420
 4255W        W76570  44.975  27.448  12.425
 4256W        W76571   0.790  25.985   2.304
 4257W        W76572  19.763  23.072   4.351
 4258W        W76573  33.079   9.250   3.814
 4259W        W76574  14.605  18.277   2.259
 4260W        W76575  15.147  10.649   4.166
 4261W        W76576  38.351  44.486   2.844
 4262W        W76577  41.482  31.896  12.014
 4263W        W76578   8.802  42.914  10.896
 4264W        W76579  44.867  14.748  12.993
 4265W        W76580  15.085  16.731  12.429
 4266W        W76581  38.937  12.660   0.817
 4267W        W76582  41.867  18.117  11.067
 4268W        W76583  40.842  42.296   3.707
 4269W        W76584  32.087  35.011  14.945
 4270W        W76585  26.684  24.136  14.329
 4271W        W76586  37.519  43.359  14.786
 4272W        W76587  34.469  40.352   4.320
 4273W        W76588  10.735  27.636   1.932
 4274W        W76589  11.658  31.531   4.311
 4275W        W76590  31.065  19.179  11.856
 4276W        W76591  22.090  10.384   2.682
 4277W        W76592   9.810  32.507   1.833
 4278W        W76593  19.214   8.369  11.936
 4279W        W76594  44.315  44.794  10.590
 4280W        W76595  15.095  34.068  10.928
 4281W        W76596  25.501   6.698  10.636
 4282W        W76597   9.395  29.423   4.757
 4283W        W76598   7.900   3.426   1.313
 4284W        W76599  24.621  23.128  12.442
 4285W        W76600  29.946  32.041  13.863
 4286W        W76601  27.131  19.629   1.829
 4287W        W76602   4.357   0.836  13.859
 4288W        W76603  37.434   4.231  14.791
 4289W        W76604  40.878   0.851  12.844
 4290W        W76605  27.037  22.708  12.344
 4291W        W76606  32.425  38.423   3.706
 4292W        W76607   6.875   3.366   4.624
 4293W        W76608   9.872   1.361  11.940
 4294W        W76609  35.421  27.688   4.678
 4295W        W76610  41.932  25.023  12.393
 4296W        W76611  16.078   5.273   0.373
 4297W        W76612   3.854   1.967   0.399
 4298W        W76613  32.576   7.347   2.179
 4299W        W76614  10.769  24.031  10.572
 4300W        W76615  42.901  17.788  10.498
 4301W        W76616  25.127   8.276  12.373
 4302W        W76617  44.808  43.296  14.998
 4303W        W76618  23.638   7.752   1.289
 4304W        W76619  28.661  42.872   2.712
 4305W        W76620  27.645  44.352   4.713
 4306W        W76621  37.842  37.924   0.322
 4307W        W76622  11.777  20.646   4.714
 4308W        W76623  25.675  16.613   4.303
 4309W        W76624  33.093  34.954  12.513
 4310W        W76625  35.587   1.817  10.569
 4311W        W76626  18.188  24.538   3.794
 4312W        W76627  13.610  13.225  13.438
 4313W        W76628   3.866  44.759   4.650
 4314W        W76629  19.721  33.896  12.064
 4315W        W76630  15.652  44.487   0.922
 4316W        W76631   3.938  43.337  14.920
 4317W        W76632  21.037  36.016  12.982
 4318W        W76633  22.673  26.011   3.196
 4319W        W76634  26.137  18.779   2.879
 4320W        W76635  36.916  24.651  13.965
 4321W        W76636  26.208  36.842  11.512
 4322W        W76637  16.610  24.509   0.818
 4323W        W76638  38.055  24.219  13.884
 4324W        W76639  28.140  34.397   2.810
 4325W        W76640  20.630   3.778   4.813
 4326W        W76641  40.508  21.240   4.660
 4327W        W76642  24.718  43.913   2.878
 4328W        W76643  22.126  43.924   4.330
 4329W        W76644  28.951  41.969  10.605
 4330W        W76645  28.006  33.069   2.782
 4331W        W76646  25.712  30.942  11.998
 4332W        W76647   1.755  24.208  11.083
 4333W        W76648  37.945  44.904   3.162
 4334W        W76649   5.219  26.473  14.412
 4335W        W76650  18.203  16.130   2.204
 4336W        W76651  44.368  23.013  12.411
 4337W        W76652  29.613  41.000   2.262
 4338W        W76653  25.618  18.767  12.498
 4339W        W76654  32.568   6.316   2.217
 4340W        W76655  34.556  40.932  12.062
 4341W        W76656  38.961  43.929  14.293
 4342W        W76657  22.522   0.783   4.125
 4343W        W76658   6.350  33.446  14.829
 4344W        W76659  33.593   1.336  10.476
 4345W        W76660   0.463  11.273   2.362
 4346W        W76661  23.014  11.144  12.985
 4347W        W76662  26.490  26.623  11.595
 4348W        W76663   1.811  26.023   2.825
 4349W        W76664  38.071  11.316  14.491
 4350W        W76665  10.372  11.641  13.833
 4351W        W76666  32.445  31.592  14.914
 4352W        W76667  34.610  44.804   3.208
 4353W        W76668  38.515  38.514   1.250
 4354W        W76669  41.320  16.210   4.775
 4355W        W76670  39.337   0.253  11.488
 4356W        W76671  31.587  27.949  13.977
 4357W        W76672  15.324  42.415  13.889
 4358W        W76673  14.331   2.319  13.839
 4359W        W76674  33.920  27.604   2.787
 4360W        W76675   1.739  35.507  12.897
 4361W        W76676  34.615  35.919   2.713
 4362W        W76677   6.730   6.348  12.904
 4363W        W76678  15.713  38.520  10.902
 4364W        W76679  24.977  30.116  12.558
 4365W        W76680  26.572  43.860   2.316
 4366W        W76681  31.933  25.527   4.812
 4367W        W76682  29.631  39.047  10.972
 4368W        W76683  31.150   0.272  14.324
 4369W        W76684  19.117   8.242   0.425
 4370W        W76685   3.284  31.629  12.378
 4371W        W76686  22.127  21.610  13.048
 4372W        W76687  42.793   2.444   3.767
 4373W        W76688  17.701   9.280   1.294
 4374W        W76689   5.741  33.066  10.539
 4375W        W76690   6.252   0.275   3.344
 4376W        W76691  19.217  17.582  12.891
 4377W        W76692   8.322   8.342   1.764
 4378W        W76693   7.388   5.201   2.211
 4379W        W76694  13.722  12.158  12.540
 4380W        W76695   6.706  19.744   3.246
 4381W        W76696  41.796  43.852   2.398
 4382W        W76697  17.678  10.301   3.297
 4383W        W76698  11.207   5.832  14.350
 4384W        W76699   1.922  34.920   9.977
 4385W        W76700  23.560  42.908  11.112
 4386W        W76701  35.579  41.966   2.311
 4387W        W76702  14.327  16.708  14.341
 4388W        W76703   6.262  26.485   4.352
 4389W        W76704  24.630  42.501  12.577
 4390W        W76705  33.945  14.122   1.330
 4391W        W76706   8.276  25.153   2.757
 4392W        W76707  10.647  40.392  14.396
 4393W        W76708  44.926  13.332  14.880
 4394W        W76709  16.623   6.898   2.881
 4395W        W76710  38.506   7.247   2.781
 4396W        W76711  36.854  12.297  14.305
 4397W        W76712  13.197  39.419  14.504
 4398W        W76713   4.740  29.121  10.901
 4399W        W76714   9.367  15.725   3.841
 4400W        W76715   7.804  31.493   4.284
 4401W        W76716  24.030  30.476  14.488
 4402W        W76717  19.556  30.641  11.107
 4403W        W76718  17.268  15.767   2.211
 4404W        W76719  26.164  37.561   4.329
 4405W        W76720  29.479  14.633   0.406
 4406W        W76721  36.059  18.696   1.231
 4407W        W76722  27.164  31.926   1.775
 4408W        W76723  22.554  34.000  13.823
 4409W        W76724  31.610   6.254  12.461
 4410W        W76725  16.216  42.433  14.370
 4411W        W76726   1.378  23.590   3.294
 4412W        W76727  29.923  35.891   3.828
 4413W        W76728   6.341  26.064  13.938
 4414W        W76729  10.716  34.553   0.762
 4415W        W76730  42.006   2.913   0.843
 4416W        W76731  14.181  33.461   4.234
 4417W        W76732  27.194  23.518   4.124
 4418W        W76733  31.025  42.033   4.809
 4419W        W76734  25.106  10.357  10.100
 4420W        W76735  18.274  22.634   3.798
 4421W        W76736  41.508   8.196  12.506
 4422W        W76737  41.031  43.393   1.697
 4423W        W76738  41.487   2.263   2.387
 4424W        W76739  25.543  39.469  12.863
 4425W        W76740   3.361  25.013  10.901
 4426W        W76741  20.714  42.810  13.331
 4427W        W76742   6.693   0.430  11.435
 4428W        W76743  18.626  44.812   1.213
 4429W        W76744  22.657  29.949   1.890
 4430W        W76745  24.055  27.122  12.932
 4431W        W76746  14.247  32.059  13.883
 4432W        W76747   1.443  42.350  12.092
 4433W        W76748  35.511  14.683   1.707
 4434W        W76749  33.013   1.263   2.252
 4435W        W76750  29.067  34.464   2.675
 4436W        W76751  42.030  41.352  12.544
 4437W        W76752  25.025   7.784  12.428
 4438W        W76753  29.132  33.498   4.633
 4439W        W76754  38.003  38.511  12.854
 4440W        W76755  41.373  31.447  11.948
 4441W        W76756  30.599  33.040   0.441
 4442W        W76757  29.514  10.817  13.908
 4443W        W76758  14.625  33.442  14.487
 4444W        W76759  33.032  24.565  10.571
 4445W        W76760  21.251  37.003   2.363
 4446W        W76761  32.558   3.716  11.055
 4447W        W76762  14.804  25.604  11.906
 4448W        W76763  34.584  42.384  12.002
 4449W        W76764  29.073  23.534   1.784
 4450W        W76765  38.984   7.705  13.816
 4451W        W76766  10.807  12.611   0.327
 4452W        W76767  32.599  13.207  11.905
 4453W        W76768  27.659  12.846  10.596
 4454W        W76769  25.634  42.399   3.772
 4455W        W76770  30.594  14.328  10.931
 4456W        W76771  40.865   5.412   1.343
 4457W        W76772  12.762  42.008  14.449
 4458W        W76773  41.910  42.996  13.985
 4459W        W76774  27.061  23.557  10.433
 4460W        W76775  17.061  15.242  11.578
 4461W        W76776   2.348   1.280  10.572
 4462W        W76777  21.727  10.846  14.292
 4463W        W76778  35.086  17.653   2.413
 4464W        W76779  16.669  40.904   2.256
 4465W        W76780   8.655  40.303   2.862
 4466W        W76781  34.057   7.210   4.735
 4467W        W76782  41.971   8.817   4.296
 4468W        W76783   7.788  38.440   4.645
 4469W        W76784  29.455  28.486  12.445
 4470W        W76785  12.309  36.882   1.874
 4471W        W76786  41.490  37.861  12.826
 4472W        W76787   1.238  34.113   9.518
 4473W        W76788  13.161  16.246   2.257
 4474W        W76789  39.332  23.074   4.221
 4475W        W76790  42.316  28.602   4.623
 4476W        W76791  27.158  31.578   9.967
 4477W        W76792  24.678  30.581  11.389
 4478W        W76793  42.420  39.818   2.851
 4479W        W76794  30.105  35.537   1.297
 4480W        W76795   8.661  28.622   4.310
 4481W        W76796   2.776  17.594   3.169
 4482W        W76797  14.332   9.844  11.447
 4483W        W76798  29.929  14.791  13.317
 4484W        W76799  15.312  11.280  14.499
 4485W        W76800  23.030  39.458   3.815
 4486W        W76801  35.456  30.652   2.835
 4487W        W76802  29.548  13.631   1.245
 4488W        W76803  29.446  42.827  14.011
 4489W        W76804   6.798   9.727  14.952
 4490W        W76805  36.484  30.462   1.806
 4491W        W76806  26.561  15.275   1.910
 4492W        W76807  29.553  38.869   3.843
 4493W        W76808  37.010  31.418  14.506
 4494W        W76809  13.695  27.108  13.434
 4495W        W76810  19.701  29.459   1.238
 4496W        W76811  13.800  26.037  13.451
 4497W        W76812   0.985  17.121  14.388
 4498W        W76813  41.519  35.908   4.350
 4499W        W76814  36.954  42.422   0.293
 4500W        W76815  26.105  30.414  13.869
 4501W        W76816  32.466   3.711  10.486
 4502W        W76817   2.391   5.702  10.010
 4503W        W76818  36.886  35.073  12.445
 4504W        W76819   1.291   1.923   2.794
 4505W        W76820  36.040  44.998   4.178
 4506W        W76821   2.914   1.475  14.322
 4507W        W76822  39.345   3.954   0.272
 4508W        W76823  34.003   2.778  11.535
 4509W        W76824   7.195  28.061   4.750
 4510W        W76825  20.145  12.713  14.800
 4511W        W76826  30.503  26.097   1.803
 4512W        W76827  21.665  39.545   2.257
 4513W        W76828  43.381  33.451   1.726
 4514W        W76829  36.891  17.278  11.002
 4515W        W76830  27.512  19.272  13.977
 4516W        W76831   8.731  24.116   3.778
 4517W        W76832  21.708  44.435   0.260
 4518W        W76833  18.721  21.088   3.667
 4519W        W76834  42.845   9.889  13.033
 4520W        W76835  12.618  37.892   1.792
 4521W        W76836  15.275  19.212   1.900
 4522W        W76837   3.313  28.973  12.021
 4523W        W76838  20.212  32.917   0.438
 4524W        W76839  36.391  15.767   2.369
 4525W        W76840   1.457  29.664  12.053
 4526W        W76841  32.123  38.521   1.260
 4527W        W76842  10.138  18.786   0.245
 4528W        W76843  41.037  15.174  14.945
 4529W        W76844   7.395  17.667   4.734
 4530W        W76845  26.137   4.755   0.743
 4531W        W76846  14.115   2.315  13.488
 4532W        W76847  29.464  23.107  14.018
 4533W        W76848  18.273  38.398  14.761
 4534W        W76849  34.442  41.835  11.956
 4535W        W76850  36.898  10.326   2.385
 4536W        W76851  42.923   9.877  13.480
 4537W        W76852  20.081  26.663  13.378
 4538W        W76853  23.601   1.329   1.363
 4539W        W76854  12.661  35.446   0.370
 4540W        W76855   9.372  33.577   2.849
 4541W        W76856  18.132  15.313   3.841
 4542W        W76857  36.422  37.051  13.998
 4543W        W76858  29.947  37.549  11.596
 4544W        W76859  41.481  19.595   3.163
 4545W        W76860   0.433  34.889   4.708
 4546W        W76861  14.227  22.598   4.637
 4547W        W76862  44.320  25.148   4.142
 4548W        W76863  40.366  20.524   4.330
 4549W        W76864  17.738  14.684   2.800
 4550W        W76865  35.363  18.638   3.181
 4551W        W76866  29.629  24.188  14.871
 4552W        W76867  30.026  12.672   1.451
 4553W        W76868  44.502  17.681  14.411
 4554W        W76869  42.969  35.470   2.843
 4555W        W76870  35.517  35.531   3.715
 4556W        W76871  13.664   7.384  11.439
 4557W        W76872  18.165  39.348  14.031
 4558W        W76873   9.852   1.297  13.956
 4559W        W76874  41.988  29.158   4.610
 4560W        W76875  27.630  29.485   2.406
 4561W        W76876  16.084  37.400  14.425
 4562W        W76877  25.152  16.232   3.754
 4563W        W76878  27.569  27.010  14.385
 4564W        W76879  30.504  38.521  10.967
 4565W        W76880  44.393  28.539   3.179
 4566W        W76881  16.593  40.908  11.598
 4567W        W76882   5.403  16.079   1.866
 4568W        W76883   1.371  34.953  14.338
 4569W        W76884  14.807  24.496   4.810
 4570W        W76885  41.490  31.584   1.358
 4571W        W76886  19.585  28.473   4.694
 4572W        W76887  14.148  32.938  12.901
 4573W        W76888  24.493  30.048  12.374
 4574W        W76889  10.324  22.055  14.458
 4575W        W76890   9.215  43.460   4.675
 4576W        W76891   4.764  21.062   2.343
 4577W        W76892  41.031  43.298  14.857
 4578W        W76893  23.621  35.941  11.575
 4579W        W76894  35.400  25.540  12.521
 4580W        W76895  11.713  25.181  13.359
 4581W        W76896  41.925   5.328  11.563
 4582W        W76897   1.307  17.658   2.834
 4583W        W76898  13.611  24.166  10.926
 4584W        W76899  26.982  28.133  11.389
 4585W        W76900  12.289  26.540  13.855
 4586W        W76901   7.247  29.574  10.900
 4587W        W76902   4.383  28.592  12.088
 4588W        W76903  22.718   9.321  13.988
 4589W        W76904  33.943   1.326   4.309
 4590W        W76905  20.051  34.039  11.993
 4591W        W76906   1.307  34.872  13.801
 4592W        W76907  23.727   0.844  14.366
 4593W        W76908  20.254  43.783   0.336
 4594W        W76909   8.840   6.920   1.924
 4595W        W76910   3.942  43.774   1.359
 4596W        W76911  42.917  18.588   3.760
 4597W        W76912  35.879  29.983   1.237
 4598W        W76913   3.224  22.667   3.724
 4599W        W76914  15.200  38.493   4.775
 4600W        W76915   2.411   0.326   4.247
 4601W        W76916  35.107  15.184   1.858
 4602W        W76917  42.353  26.165   3.808
 4603W        W76918  27.679  29.584  12.483
 4604W        W76919   8.808   0.815  13.360
 4605W        W76920  22.716   6.248   2.314
 4606W        W76921  15.225  34.094  12.879
 4607W        W76922  14.203  18.068   4.776
 4608W        W76923  44.375   1.860   3.222
 4609W        W76924  19.201  14.273   4.233
 4610W        W76925  22.691  29.097  14.430
 4611W        W76926  33.552  24.073  13.926
 4612W        W76927  35.979  26.673   4.154
 4613W        W76928  15.752  44.930   0.292
 4614W        W76929  34.384   0.801  14.768
 4615W        W76930  44.883  34.393  13.807
 4616W        W76931  18.173   7.870  13.369
 4617W        W76932  44.271  40.549  11.445
 4618W        W76933  27.598  26.563   2.202
 4619W        W76934   8.359  12.177   1.349
 4620W        W76935  44.379  25.654   4.792
 4621W        W76936  40.875  18.721   1.769
 4622W        W76937  31.567  34.929   2.690
 4623W        W76938  28.066  32.512   3.674
 4624W        W76939  14.792  10.666   0.410
 4625W        W76940  42.379  31.911  11.099
 4626W        W76941  19.749  29.630   4.604
 4627W        W76942  11.321  30.092   4.644
 4628W        W76943  36.901  36.859   2.780
 4629W        W76944  16.640  16.185   0.254
 4630W        W76945  41.394  42.938   1.896
 4631W        W76946  34.071  14.229  10.617
 4632W        W76947  27.988  18.172   4.284
 4633W        W76948  25.126  22.011  10.589
 4634W        W76949  44.774  35.508  11.908
 4635W        W76950  30.917   8.892   0.478
 4636W        W76951  30.643   0.878  10.603
 4637W        W76952  39.484  27.676  14.295
 4638W        W76953  35.985  14.101  12.924
 4639W        W76954  27.960   8.701   4.760
 4640W        W76955  32.037  30.053   1.349
 4641W        W76956  39.003  19.116   2.269
 4642W        W76957  29.569  11.371  12.390
 4643W        W76958  32.113   7.670   4.615
 4644W        W76959  15.109  26.029  10.587
 4645W        W76960  33.950  32.581  10.632
 4646W        W76961  37.473  44.951  12.405
 4647W        W76962  14.194  22.129   4.239
 4648W        W76963  12.214  25.523   1.894
 4649W        W76964   2.890  31.626   1.324
 4650W        W76965  31.486  31.096  11.400
 4651W        W76966   4.700   0.832  10.511
 4652W        W76967  39.950  27.641   3.361
 4653W        W76968  10.677  28.440   1.351
 4654W        W76969   8.667  18.757   0.929
 4655W        W76970   6.349  29.579  14.863
 4656W        W76971  41.357  23.098   2.371
 4657W        W76972  16.716  39.030   9.955
 4658W        W76973  18.107  31.000   9.921
 4659W        W76974  32.935  18.645   3.285
 4660W        W76975  31.477  30.150   3.714
 4661W        W76976  39.868  33.042   3.848
 4662W        W76977  25.493  27.135   2.790
 4663W        W76978  26.579  20.590   0.869
 4664W        W76979  23.151  32.068  13.332
 4665W        W76980  16.670  27.071  10.954
 4666W        W76981  21.702  37.966  10.568
 4667W        W76982  14.149  35.019  12.896
 4668W        W76983  20.646  43.827  14.292
 4669W        W76984  24.083  40.411   4.126
 4670W        W76985   8.246  30.952  11.036
 4671W        W76986  11.646   7.400  13.365
 4672W        W76987  39.535  22.562  12.012
 4673W        W76988   5.265  17.300  12.013
 4674W        W76989   9.393   9.849   2.840
 4675W        W76990  44.755   5.829   1.373
 4676W        W76991  23.676  23.542   1.385
 4677W        W76992  26.178  23.627   2.764
 4678W        W76993  10.868  38.020  13.524
 4679W        W76994  31.991  36.458   1.731
 4680W        W76995  29.016   9.890  12.848
 4681W        W76996  17.660   4.263  11.031
 4682W        W76997  36.499  38.380   4.163
 4683W        W76998  37.883  37.956   1.256
 4684W        W76999  22.555  37.067  14.313
 4685W        W77000   9.832  28.980  10.927
 4686W        W77001   3.261  33.933   2.795
 4687W        W77002   1.939  37.961   0.427
 4688W        W77003  24.046   8.896  12.359
 4689W        W77004  24.142  31.965  10.446
 4690W        W77005  40.983   3.783   4.158
 4691W        W77006  13.703  28.623  11.895
 4692W        W77007   0.344  44.916  13.058
 4693W        W77008   3.828  36.908   4.754
 4694W        W77009  29.076   3.406  14.322
 4695W        W77010  43.277  35.072   4.690
 4696W        W77011  22.732  32.394  12.427
 4697W        W77012  43.295  40.813  12.406
 4698W        W77013   7.834  43.453   0.750
 4699W        W77014  26.611  28.532   0.466
 4700W        W77015  26.538  21.059   0.294
 4701W        W77016  36.979  36.463   0.958
 4702W        W77017  31.969  32.889  12.464
 4703W        W77018   7.858  10.841  10.904
 4704W        W77019  40.406   1.475  10.927
 4705W        W77020  42.988  11.825   3.262
 4706W        W77021  10.726  20.666   3.652
 4707W        W77022  40.887   1.428   2.797
 4708W        W77023  38.895  37.880   1.442
 4709W        W77024  27.691   7.687  13.875
 4710W        W77025   1.739   0.463  13.396
 4711W        W77026  21.038  15.269  11.506
 4712W        W77027  21.021  38.011   2.304
 4713W        W77028   9.678   1.322   4.798
 4714W        W77029  30.908  22.103   2.376
 4715W        W77030  11.190   9.656  13.906
 4716W        W77031  13.159  19.096   4.289
 4717W        W77032   4.929   7.341   4.141
 4718W        W77033  25.623  43.382   3.337
 4719W        W77034  24.596   7.299   4.612
 4720W        W77035  16.756  31.005   0.356
 4721W        W77036  22.689   6.300  12.938
 4722W        W77037   2.338  21.257   0.343
 4723W        W77038  40.026  21.547   1.846
 4724W        W77039  39.965  43.514   4.126
 4725W        W77040   5.238  27.562  12.983
 4726W        W77041  41.895  44.492  10.933
 4727W        W77042  23.683  16.105  13.333
 4728W        W77043  11.666  39.926   0.752
 4729W        W77044   5.303  44.385   1.900
 4730W        W77045   4.729  13.689   3.345
 4731W        W77046  19.132   4.743  12.522
 4732W        W77047  15.657  37.998  11.524
 4733W        W77048  29.984  22.135   0.317
 4734W        W77049  29.988  11.756  10.614
 4735W        W77050   7.296  43.869   0.780
 4736W        W77051   2.272  10.351  12.476
 4737W        W77052  11.638  30.603  11.422
 4738W        W77053  33.089   3.355   2.765
 4739W        W77054  21.212  27.061   2.283
 4740W        W77055   4.800  33.015  11.005
 4741W        W77056  34.596  20.587   4.779
 4742W        W77057  24.658  17.600   3.189
 4743W        W77058   5.820  44.893  13.392
 4744W        W77059  27.470  18.749   0.950
 4745W        W77060  32.004  29.964   4.635
 4746W        W77061  16.672   0.457   3.767
 4747W        W77062  12.666  30.132   0.941
 4748W        W77063  16.086  24.136  14.882
 4749W        W77064  11.686  30.036  13.500
 4750W        W77065   8.249   7.683  11.442
 4751W        W77066  39.540  34.924  10.414
 4752W        W77067  36.349  38.833   0.861
 4753W        W77068  37.478  23.079  13.957
 4754W        W77069  22.553   4.262   2.874
 4755W        W77070   1.909   8.344   2.284
 4756W        W77071  29.470   1.290   4.616
 4757W        W77072  21.153  22.597   3.296
 4758W        W77073   3.859  18.590   2.714
 4759W        W77074  44.438  20.589  11.994
 4760W        W77075  29.037  38.392  13.841
 4761W        W77076  41.813   4.403  11.560
 4762W        W77077  20.147  31.536   3.664
 4763W        W77078  44.280   1.954   3.636
 4764W        W77079   8.655  32.944   3.726
 4765W        W77080  14.218  29.118   2.240
 4766W        W77081   2.965  39.450  14.308
 4767W        W77082  19.598  23.236  13.458
 4768W        W77083   1.353  18.151   0.286
 4769W        W77084  40.962  34.037   2.835
 4770W        W77085  34.555  38.980   4.768
 4771W        W77086  30.528  33.532  10.460
 4772W        W77087  37.501  33.513  14.029
 4773W        W77088   1.816  12.298  10.415
 4774W        W77089  32.927  21.528   0.784
 4775W        W77090  24.168  14.210   5.243
 4776W        W77091  44.783  36.385  14.825
 4777W        W77092  38.951  25.607   5.134
 4778W        W77093  15.163  35.887  14.472
 4779W        W77094  38.537  18.774   3.222
 4780W        W77095  16.592   7.209  11.471
 4781W        W77096  14.157  34.071   0.868
 4782W        W77097   0.375  29.569  13.458
 4783W        W77098  39.313  38.934  11.475
 4784W        W77099  25.067  43.408  14.449
 4785W        W77100  22.549  39.556  11.399
 4786W        W77101  35.544   4.798  12.399
 4787W        W77102  18.640  37.043  14.393
 4788W        W77103  20.213  30.981  14.510
 4789W        W77104  41.992  28.500  13.878
 4790W        W77105   7.743  30.558   1.791
 4791W        W77106  12.125  42.368  11.545
 4792W        W77107  22.113  44.885   1.798
 4793W        W77108  29.156  26.653   0.764
 4794W        W77109  12.757  24.574  14.384
 4795W        W77110  26.504  37.439  13.396
 4796W        W77111  33.565  21.159  13.316
 4797W        W77112  30.155   3.325   0.395
 4798W        W77113   6.767  18.729   1.333
 4799W        W77114  22.553  18.183  10.419
 4800W        W77115  29.922  17.244  11.991
 4801W        W77116  44.985  32.437   4.678
 4802W        W77117  13.142  10.761   0.319
 4803W        W77118   5.289  30.606  10.896
 4804W        W77119  28.162  29.611   3.856
 4805W        W77120   9.182  10.186   1.449
 4806W        W77121  11.721   8.344  12.956
 4807W        W77122  41.941  44.826   0.816
 4808W        W77123  24.682   0.932   4.197
 4809W        W77124   9.240  41.992   3.829
 4810W        W77125  44.285  28.991  14.319
 4811W        W77126  19.228  11.859  11.880
 4812W        W77127   4.314   8.257   2.683
 4813W        W77128  25.467  15.708  14.946
 4814W        W77129  20.631  32.576  10.626
 4815W        W77130  24.136  27.446  12.371
 4816W        W77131   0.447   1.912   3.846
 4817W        W77132  42.375  15.091  11.080
 4818W        W77133  16.257  23.193  12.569
 4819W        W77134  34.115   4.703  14.018
 4820W        W77135  41.532  44.930  13.395
 4821W        W77136  24.664  35.532  13.327
 4822W        W77137   4.262  29.117   1.247
 4823W        W77138  10.650  29.957   2.711
 4824W        W77139  28.655  41.428   2.362
 4825W        W77140  26.473  20.605   3.776
 4826W        W77141  43.893  40.454   0.855
 4827W        W77142  26.489  22.699  11.406
 4828W        W77143   1.833  41.317  14.360
 4829W        W77144   6.775  41.797   0.943
 4830W        W77145  20.165  23.676  11.899
 4831W        W77146  26.959  18.613  11.584
 4832W        W77147  41.955  31.439   0.386
 4833W        W77148  21.687   2.802  14.370
 4834W        W77149  38.365  31.113  10.632
 4835W        W77150  44.876   9.286   5.666
 4836W        W77151  17.084  27.113   0.784
 4837W        W77152  35.904  12.635  13.941
 4838W        W77153   8.890  37.475   4.279
 4839W        W77154   3.880   6.920   0.294
 4840W        W77155  38.504  22.055  10.421
 4841W        W77156  12.696  25.972   2.675
 4842W        W77157  19.120  28.553  13.020
 4843W        W77158  37.898  31.565   0.284
 4844W        W77159  28.005  35.422   2.226
 4845W        W77160  36.927   3.364  12.504
 4846W        W77161   4.447  34.413  14.328
 4847W        W77162  17.795  31.643   9.667
 4848W        W77163   5.829  19.610   0.892
 4849W        W77164   8.395  16.789  10.891
 4850W        W77165   1.944  15.289  12.396
 4851W        W77166  13.799  11.284  12.032
 4852W        W77167  37.465  43.324   3.372
 4853W        W77168  21.247   5.406  13.509
 4854W        W77169  23.648  18.291   1.230
 4855W        W77170  20.693  37.550  14.329
 4856W        W77171  23.984  33.462  10.632
 4857W        W77172  22.155  24.980  10.426
 4858W        W77173   6.734  19.099  11.445
 4859W        W77174   3.880  19.087  14.459
 4860W        W77175  23.073  21.617   1.219
 4861W        W77176  19.106  18.235  11.462
 4862W        W77177  33.970  37.397  13.899
 4863W        W77178  35.589  22.643  11.392
 4864W        W77179  21.238   0.280  14.815
 4865W        W77180   5.329  28.990   0.420
 4866W        W77181  43.017   0.924   5.268
 4867W        W77182  26.961  25.095  13.834
 4868W        W77183  40.816  42.293   0.450
 4869W        W77184  17.771  13.202   3.843
 4870W        W77185  17.684  25.998   1.933
 4871W        W77186  10.141  35.559  10.907
 4872W        W77187  21.126  34.053   4.350
 4873W        W77188  15.734  17.284   1.721
 4874W        W77189   8.380  31.111   3.736
 4875W        W77190  18.221  32.616   2.323
 4876W        W77191  18.076  31.642   0.341
 4877W        W77192  10.860  33.470   3.824
 4878W        W77193  20.542  13.216   4.803
 4879W        W77194  40.896   0.421   3.253
 4880W        W77195   1.243  25.553  13.416
 4881W        W77196  42.841  23.540   3.753
 4882W        W77197   0.848  34.967  11.578
 4883W        W77198   8.289  23.532  11.124
 4884W        W77199  21.118  11.644  12.945
 4885W        W77200  27.193   7.829   4.773
 4886W        W77201  36.383  34.961   0.819
 4887W        W77202  35.377  44.477  10.891
 4888W        W77203   8.222  19.587  10.457
 4889W        W77204  41.447  18.656   4.213
 4890W        W77205  32.945   6.272  11.481
 4891W        W77206  41.835  34.507  14.359
 4892W        W77207   2.891  18.162   2.697
 4893W        W77208  17.728  22.699  13.861
 4894W        W77209  12.185   4.783   1.439
 4895W        W77210  16.693  30.596   5.768
 4896W        W77211  41.537   2.301   2.782
 4897W        W77212  28.532  31.941  12.366
 4898W        W77213   3.236  43.369   0.422
 4899W        W77214   0.407  29.980   2.679
 4900W        W77215  30.415  11.704   4.618
 4901W        W77216  28.532  40.868   0.330
 4902W        W77217  10.180  13.164  14.841
 4903W        W77218  39.815  27.065   1.276
 4904W        W77219   9.297  21.695  11.505
 4905W        W77220  23.141  44.938  13.467
 4906W        W77221  16.169  31.140   0.793
 4907W        W77222  10.747  28.103  13.977
 4908W        W77223  42.516   1.973   3.213
 4909W        W77224  24.568  41.377   0.269
 4910W        W77225  34.427   4.425  12.875
 4911W        W77226  20.731   7.175  11.118
 4912W        W77227  26.205   5.856   1.274
 4913W        W77228  38.043  18.204   3.658
 4914W        W77229  26.615  40.044   3.354
 4915W        W77230  23.714  44.931   1.924
 4916W        W77231  35.002  28.990  12.941
 4917W        W77232   5.839   5.267  11.871
 4918W        W77233   0.383  39.906   3.756
 4919W        W77234  11.826  24.571   0.377
 4920W        W77235  12.631   2.922  14.889
 4921W        W77236  21.071  11.764  11.939
 4922W        W77237   6.918   4.411  12.911
 4923W        W77238  30.049  22.699   4.275
 4924W        W77239  41.914   3.320   2.768
 4925W        W77240  39.435  12.287   0.900
 4926W        W77241  15.303  28.452   2.346
 4927W        W77242  40.050   5.258   3.277
 4928W        W77243  15.726  13.692   1.394
 4929W        W77244  38.507  32.443   0.339
 4930W        W77245   2.749   2.253  11.073
 4931W        W77246  44.504   9.652   4.302
 4932W        W77247  35.511  13.709   1.751
 4933W        W77248  34.442  39.484   3.631
 4934W        W77249  11.158  43.285   2.352
 4935W        W77250  30.458  29.918   3.337
 4936W        W77251  29.021  13.697  13.063
 4937W        W77252   0.972  44.838  11.087
 4938W        W77253  16.689  30.932   1.772
 4939W        W77254  32.957  23.694  10.577
 4940W        W77255  34.105  16.104  14.423
 4941W        W77256  18.769  44.331  13.039
 4942W        W77257  33.015  11.836  12.884
 4943W        W77258  40.956  10.241   1.788
 4944W        W77259   6.351  11.150  14.494
 4945W        W77260  31.623  11.202   0.417
 4946W        W77261  20.178  26.695  12.996
 4947W        W77262  35.557  35.944  10.548
 4948W        W77263  22.609   0.448  10.469
 4949W        W77264   1.942  30.115   3.803
 4950W        W77265  23.555  39.474   1.820
 4951W        W77266  22.743  24.202   4.308
 4952W        W77267  43.456  28.495  11.014
 4953W        W77268   6.415   4.711  10.560
 4954W        W77269  34.523   4.800   4.125
 4955W        W77270  11.684  37.877   1.804
 4956W        W77271  20.135  20.159  12.838
 4957W        W77272  33.013  41.429   0.482
 4958W        W77273  38.459  14.726   0.305
 4959W        W77274  30.553  21.115  12.505
 4960W        W77275  43.954  26.482  12.967
 4961W        W77276   4.255  38.851  14.411
 4962W        W77277   1.959  36.377   1.231
 4963W        W77278  22.695  10.286  11.909
 4964W        W77279  42.958  34.090   0.297
 4965W        W77280  34.100  13.797  14.412
 4966W        W77281  39.028  24.099  11.607
 4967W        W77282  42.508  28.641   2.238
 4968W        W77283  37.491  27.040  13.916
 4969W        W77284   5.882   3.234   2.738
 4970W        W77285  28.525  20.087  11.083
 4971W        W77286   6.708  28.676  11.048
 4972W        W77287   1.294  43.857  11.060
 4973W        W77288  15.186  24.064  10.889
 4974W        W77289  30.916  30.951  10.534
 4975W        W77290   3.752  22.057   4.719
 4976W        W77291  38.534  39.825   2.765
 4977W        W77292  36.862  38.509  14.938
 4978W        W77293  43.800  36.579  10.460
 4979W        W77294  24.622  31.498  13.446
 4980W        W77295   1.927   8.367   4.324
 4981W        W77296  28.439   6.862   0.962
 4982W        W77297   9.752  32.932   0.836
 4983W        W77298  41.420   2.319   3.147
 4984W        W77299  14.099   2.324  11.439
 4985W        W77300  42.887  30.537  13.999
 4986W        W77301   7.826  23.531  11.439
 4987W        W77302  25.063   2.906  11.612
 4988W        W77303  39.877   9.703   3.191
 4989W        W77304   2.445  36.379  10.946
 4990W        W77305  26.529  28.941  11.893
 4991W        W77306  14.273  19.228   4.300
 4992W        W77307  41.973  15.168   3.837
 4993W        W77308  32.471  21.683   0.736
 4994W        W77309  10.196   5.910  12.441
 4995W        W77310   3.902  37.048   4.221
 4996W        W77311  32.501  25.580  13.899
 4997W        W77312  39.864  37.046  10.442
 4998W        W77313  36.492  23.671   3.329
 4999W        W77314   0.916  34.526   3.815
 5000W        W77315  31.127   7.193   1.792
 5001W        W77316  26.022  29.945   0.289
 5002W        W77317  20.560  12.699  14.335
 5003W        W77318  15.195  21.682   1.432
 5004W        W77319  25.501  33.004   0.933
 5005W        W77320  10.258  33.103   3.831
 5006W        W77321   9.309   7.877   2.800
 5007W        W77322  14.317  29.968   0.442
 5008W        W77323  39.055   5.357   2.272
 5009W        W77324   9.794  38.009   1.274
 5010W        W77325  32.465  21.161  11.397
 5011W        W77326   9.657  25.977   4.636
 5012W        W77327  43.892   7.748   4.147
 5013W        W77328  42.301   2.246  14.999
 5014W        W77329   6.879  37.006   0.756
 5015W        W77330  39.332  41.528  13.409
 5016W        W77331  33.487   0.870   1.857
 5017W        W77332  16.178   7.680  13.390
 5018W        W77333  20.598   7.679  13.005
 5019W        W77334   2.861   8.851  11.492
 5020W        W77335  38.541  10.824  14.761
 5021W        W77336  13.309  30.513  10.518
 5022W        W77337   3.422   0.281   4.285
 5023W        W77338  44.416  24.120  12.575
 5024W        W77339  11.741  22.118  14.844
 5025W        W77340  27.616  33.483   4.217
 5026W        W77341  38.825  21.169   1.720
 5027W        W77342  17.111  16.571   0.338
 5028W        W77343  15.604  44.798   1.701
 5029W        W77344  41.453  40.030  12.441
 5030W        W77345  31.117  14.722  13.966
 5031W        W77346  35.425  44.978  14.812
 5032W        W77347  29.558  10.678   1.314
 5033W        W77348  34.531  20.706  13.312
 5034W        W77349  14.324  22.121  11.373
 5035W        W77350  21.199  44.827  13.056
 5036W        W77351  23.681   6.372  12.359
 5037W        W77352  24.187   6.804  10.420
 5038W        W77353  34.395  10.740   4.189
 5039W        W77354  14.130  12.189   2.706
 5040W        W77355   5.427   3.746  14.495
 5041W        W77356  22.714  27.159  13.015
 5042W        W77357  41.929   0.256  13.450
 5043W        W77358  42.848   4.438   3.812
 5044W        W77359  19.248  43.936  13.878
 5045W        W77360  35.543  43.860   4.347
 5046W        W77361  15.674  18.142  10.488
 5047W        W77362  27.942  41.004  12.847
 5048W        W77363   3.858  31.514   3.251
 5049W        W77364  41.038  41.383   3.762
 5050W        W77365  12.741  18.605   3.832
 5051W        W77366  17.109  17.095  13.871
 5052W        W77367  36.870  16.763   1.405
 5053W        W77368  28.948  19.672   2.399
 5054W        W77369  29.027   7.332  11.947
 5055W        W77370  23.520  24.620   2.332
 5056W        W77371  32.550  28.447  10.422
 5057W        W77372   3.915  27.163   3.737
 5058W        W77373   1.398   5.429  12.390
 5059W        W77374  34.590  35.962  12.425
 5060W        W77375  16.797   6.334   3.733
 5061W        W77376  25.685  25.512  10.958
 5062W        W77377  19.077  19.118  10.504
 5063W        W77378  26.048   1.845   4.155
 5064W        W77379  12.311  11.213  10.444
 5065W        W77380   1.733  36.920   0.357
 5066W        W77381  24.215  14.286   3.163
 5067W        W77382  10.276  37.940  13.014
 5068W        W77383   8.332  17.584   4.181
 5069W        W77384  23.210   4.271  13.964
 5070W        W77385  24.642   6.742  12.374
 5071W        W77386  10.686   8.296   3.634
 5072W        W77387  41.862  35.591   1.238
 5073W        W77388  43.503  15.794   0.391
 5074W        W77389  44.769  26.668   1.220
 5075W        W77390  35.094   4.852   4.253
 5076W        W77391   4.308  22.504   1.769
 5077W        W77392  14.739  10.233   2.897
 5078W        W77393  13.186  41.974   3.785
 5079W        W77394  20.650  12.315  10.451
 5080W        W77395  12.198  43.007   0.389
 5081W        W77396  33.874  43.308  14.990
 5082W        W77397  43.444  35.896   0.379
 5083W        W77398  14.323  39.395   2.193
 5084W        W77399  14.188  34.960  11.070
 5085W        W77400  43.373  37.410  14.394
 5086W        W77401  19.151  12.300   2.240
 5087W        W77402  38.398  30.595  11.041
 5088W        W77403  17.139  37.489   2.833
 5089W        W77404  10.267  21.107  12.381
 5090W        W77405  12.289  17.630   3.710
 5091W        W77406  30.909  11.726  13.873
 5092W        W77407   6.299  27.010   1.427
 5093W        W77408  20.611  12.782   1.337
 5094W        W77409  37.505  32.938  12.067
 5095W        W77410   1.777   1.262   4.766
 5096W        W77411  30.004  37.852  11.547
 5097W        W77412  30.014  42.480   2.367
 5098W        W77413  44.846  26.160   2.817
 5099W        W77414  10.177  24.658   3.816
 5100W        W77415  10.153   9.746  12.394
 5101W        W77416   8.814  11.274  11.440
 5102W        W77417   5.361  32.538   0.953
 5103W        W77418   4.255  27.086   3.696
 5104W        W77419  23.510  24.526   1.303
 5105W        W77420  39.994  39.398  13.810
 5106W        W77421  21.690  25.971  14.342
 5107W        W77422  12.644  22.582  11.514
 5108W        W77423  33.413  20.701   0.875
 5109W        W77424  12.852   9.371   3.640
 5110W        W77425  41.525  35.465   1.405
 5111W        W77426  40.020  10.176   2.840
 5112W        W77427  17.154  43.798   1.280
 5113W        W77428  34.070  37.847  13.361
 5114W        W77429  26.967  19.684  14.961
 5115W        W77430  32.058   6.851   1.241
 5116W        W77431  19.579  43.936  14.342
 5117W        W77432  16.250  43.401   2.726
 5118W        W77433  23.162  15.770   1.906
 5119W        W77434  15.144   4.246   0.454
 5120W        W77435  16.282  16.307  10.440
 5121W        W77436  33.504  26.085   1.751
 5122W        W77437  21.105  11.305  12.953
 5123W        W77438  24.645  38.367  14.931
 5124W        W77439  41.882  10.642  11.905
 5125W        W77440  10.152  30.549   5.277
 5126W        W77441  18.683  42.823  11.965
 5127W        W77442  12.734  19.574   3.385
 5128W        W77443  27.482  43.828  14.380
 5129W        W77444   0.915  34.593   2.722
 5130W        W77445  19.089  10.872   2.789
 5131W        W77446   9.246   4.769   1.858
 5132W        W77447  38.394  18.660  14.299
 5133W        W77448   6.876  43.441  12.870
 5134W        W77449  35.379  31.443   2.778
 5135W        W77450  22.018  25.063  14.295
 5136W        W77451  42.987  15.593   4.718
 5137W        W77452  40.014  14.101  11.554
 5138W        W77453  14.135   2.951  13.030
 5139W        W77454   4.719  12.837   5.162
 5140W        W77455  33.011  29.169  10.627
 5141W        W77456  12.216  40.053   0.290
 5142W        W77457  24.033  21.226  10.557
 5143W        W77458  11.128  29.451   1.289
 5144W        W77459  14.738  36.944   4.713
 5145W        W77460  35.525  35.071  10.505
 5146W        W77461  40.343  43.008   3.821
 5147W        W77462  33.929  13.230   4.663
 5148W        W77463  39.951   5.270   4.733
 5149W        W77464   0.347  33.427   1.926
 5150W        W77465  35.476  11.343   2.411
 5151W        W77466  22.035  22.556   3.817
 5152W        W77467  21.254  31.517  11.085
 5153W        W77468  24.128   7.202   9.930
 5154W        W77469   3.265  22.240  13.981
 5155W        W77470  32.547  12.238   4.746
 5156W        W77471  11.773  20.082   3.854
 5157W        W77472  41.296  39.409  12.904
 5158W        W77473   1.939  13.174   2.753
 5159W        W77474   1.441  11.630   2.210
 5160W        W77475  13.325  32.104  10.898
 5161W        W77476  11.786  20.143   4.613
 5162W        W77477  39.812   6.848  12.478
 5163W        W77478  32.900   7.911  11.450
 5164W        W77479  15.313  17.581   2.218
 5165W        W77480   3.743  33.615   9.942
 5166W        W77481  37.012   9.757   4.190
 5167W        W77482  26.569  33.054  13.977
 5168W        W77483   5.697  19.245   2.750
 5169W        W77484  44.313  39.871   2.807
 5170W        W77485  38.880   0.449   3.745
 5171W        W77486  25.046  37.461  12.085
 5172W        W77487  28.062  26.578   0.854
 5173W        W77488  35.020  39.960   3.244
 5174W        W77489  16.152  29.151  14.777
 5175W        W77490  29.657  35.522   2.325
 5176W        W77491   7.320   8.293   1.753
 5177W        W77492  21.121  16.144  12.546
 5178W        W77493   6.882  26.007  10.944
 5179W        W77494   9.323  28.050  12.908
 5180W        W77495  36.577  17.197   1.399
 5181W        W77496  31.425  36.426  14.395
 5182W        W77497  30.484  29.666  12.549
 5183W        W77498   1.378  20.554  11.002
 5184W        W77499   5.857  23.077  12.884
 5185W        W77500  10.335  18.641   5.284
 5186W        W77501  33.574  13.730   0.836
 5187W        W77502  30.538  20.251   4.816
 5188W        W77503  28.029  42.461  13.511
 5189W        W77504  14.194  13.820   3.323
 5190W        W77505  12.748   6.804   1.302
 5191W        W77506   4.349  41.918   4.286
 5192W        W77507  38.853  21.045   2.204
 5193W        W77508  31.601   5.356  10.947
 5194W        W77509  30.913  35.862  13.491
 5195W        W77510  13.688   7.886  10.602
 5196W        W77511  37.575  13.198  11.079
 5197W        W77512  30.437   2.471   2.240
 5198W        W77513   5.433  19.686   1.434
 5199W        W77514  31.036  34.949   0.941
 5200W        W77515  19.192  17.631  13.792
 5201W        W77516  37.396  41.459  14.966
 5202W        W77517  29.989  18.708  13.433
 5203W        W77518  45.000  38.560   3.206
 5204W        W77519   2.811  10.836   3.840
 5205W        W77520  38.955  12.217   0.767
 5206W        W77521  38.456  43.399  11.446
 5207W        W77522  23.193  24.031   1.415
 5208W        W77523  33.876  35.577   4.268
 5209W        W77524  13.646  15.824  10.914
 5210W        W77525  17.201  34.021   4.277
 5211W        W77526  34.015  34.088   4.190
 5212W        W77527  35.890  23.676  13.857
 5213W        W77528  10.277  11.288   0.855
 5214W        W77529  27.010   5.930  10.003
 5215W        W77530  26.069  11.211   0.779
 5216W        W77531  38.885  17.714  11.976
 5217W        W77532   0.923  31.522  11.080
 5218W        W77533   1.380  36.452  11.984
 5219W        W77534  11.242  36.528   3.220
 5220W        W77535  17.227  17.196  10.032
 5221W        W77536  18.096   2.819  14.911
 5222W        W77537  20.581  33.936  11.978
 5223W        W77538  24.533  41.513   0.893
 5224W        W77539  39.539   0.396   0.324
 5225W        W77540  20.650  34.915  14.871
 5226W        W77541  38.940  23.153  12.527
 5227W        W77542  33.983   0.903  12.066
 5228W        W77543  23.585  30.966   3.383
 5229W        W77544   2.818  15.162   1.410
 5230W        W77545  24.048  40.492  11.047
 5231W        W77546  14.231  27.148  11.059
 5232W        W77547  37.542  38.534   3.365
 5233W        W77548   8.335  40.436   3.277
 5234W        W77549  32.057   5.336  12.503
 5235W        W77550  22.211  17.143   0.322
 5236W        W77551  30.505  13.764  12.908
 5237W        W77552  29.932   8.298  12.430
 5238W        W77553  15.208  30.004  11.503
 5239W        W77554   1.785   1.316   3.693
 5240W        W77555  24.541  22.601   3.864
 5241W        W77556   0.831  26.662   3.772
 5242W        W77557  10.371  19.705  14.953
 5243W        W77558  38.351  20.109   0.296
 5244W        W77559  32.125  21.171   0.317
 5245W        W77560  10.706  31.902  13.890
 5246W        W77561  29.123  19.082   3.724
 5247W        W77562  15.265  13.771  13.397
 5248W        W77563  15.734  15.696  10.443
 5249W        W77564  12.655  33.472  12.468
 5250W        W77565   2.417  22.024  14.863
 5251W        W77566  30.466  13.231  14.834
 5252W        W77567  40.412  26.179  11.469
 5253W        W77568  28.454   4.709   2.293
 5254W        W77569   8.187   2.937  10.936
 5255W        W77570  25.533  19.625   4.155
 5256W        W77571  24.017  36.452  13.938
 5257W        W77572  27.503   9.239   0.336
 5258W        W77573  26.675  11.637   2.698
 5259W        W77574  44.414  44.342   1.713
 5260W        W77575  39.470  11.709  10.900
 5261W        W77576  13.632  21.058  11.882
 5262W        W77577  25.510   6.860  12.064
 5263W        W77578  14.229   0.372   3.766
 5264W        W77579  36.551  24.632  12.998
 5265W        W77580   2.252  42.492   4.658
 5266W        W77581  34.605  14.163   4.134
 5267W        W77582  34.888  29.575   2.861
 5268W        W77583  38.503  25.069   2.666
 5269W        W77584   8.387  29.104  11.128
 5270W        W77585  33.952  12.329  13.009
 5271W        W77586  23.495  33.462  12.394
 5272W        W77587  41.954  11.139   1.774
 5273W        W77588  27.485  15.758   2.312
 5274W        W77589  34.473  11.181   4.306
 5275W        W77590  26.964  29.145   1.760
 5276W        W77591  12.145  35.502   4.833
 5277W        W77592  40.455  18.589   1.215
 5278W        W77593   2.827  19.196  12.494
 5279W        W77594   1.301  25.561  11.037
 5280W        W77595  32.098   1.482  11.403
 5281W        W77596  27.536  30.620  14.398
 5282W        W77597   4.938  10.242  14.448
 5283W        W77598  23.016  26.006  10.549
 5284W        W77599  28.571  35.064   1.211
 5285W        W77600  42.951  43.424   3.198
 5286W        W77601  16.610   0.426  12.425
 5287W        W77602  14.125  44.905   4.624
 5288W        W77603  11.650  12.829   0.375
 5289W        W77604  20.701  20.607   4.339
 5290W        W77605  30.037  38.042   0.926
 5291W        W77606   4.256  23.013   4.207
 5292W        W77607  39.856  34.446   3.340
 5293W        W77608  39.020  33.526  13.430
 5294W        W77609   2.930  42.957  10.577
 5295W        W77610   1.352  40.887   0.845
 5296W        W77611   9.364  37.887   2.750
 5297W        W77612   2.275  34.396   1.277
 5298W        W77613   7.330  10.662   1.852
 5299W        W77614   9.316  41.537  14.933
 5300W        W77615   9.717  10.163  13.489
 5301W        W77616  35.969  20.606   2.766
 5302W        W77617   3.766   0.810   4.620
 5303W        W77618  28.104  13.811   1.808
 5304W        W77619  44.785   3.911  13.389
 5305W        W77620   7.182  17.633  12.862
 5306W        W77621  28.963  13.212  12.426
 5307W        W77622  42.444  26.980   0.284
 5308W        W77623  31.069  13.117  10.996
 5309W        W77624  11.299  37.422   2.868
 5310W        W77625  42.377  12.707   3.212
 5311W        W77626  24.640  20.260  13.931
 5312W        W77627  39.423  16.179  11.022
 5313W        W77628   8.680  18.607   2.814
 5314W        W77629  38.939  31.438   0.883
 5315W        W77630  37.077   5.222   2.369
 5316W        W77631  14.648  24.157  10.412
 5317W        W77632   1.797  31.536  11.436
 5318W        W77633  27.500   3.266  10.574
 5319W        W77634  27.544  34.595  12.891
 5320W        W77635  34.043  35.480   3.657
 5321W        W77636   1.453  24.004  11.859
 5322W        W77637  27.526  38.846   4.744
 5323W        W77638  26.200  39.910  12.908
 5324W        W77639  18.216  41.429   9.568
 5325W        W77640  28.545   9.814  10.996
 5326W        W77641  21.089   5.888  12.499
 5327W        W77642  16.131  28.621   4.206
 5328W        W77643  14.718   7.763   0.801
 5329W        W77644  18.211  37.455   3.277
 5330W        W77645  18.610  11.354   0.879
 5331W        W77646  35.872  37.473  11.595
 5332W        W77647  22.167   1.754  13.826
 5333W        W77648  41.790  19.577  11.861
 5334W        W77649   8.842  12.732   3.674
 5335W        W77650  42.363   4.227  11.881
 5336W        W77651  26.996  32.999  14.760
 5337W        W77652  31.593  27.557  12.009
 5338W        W77653  25.118   4.701  10.423
 5339W        W77654  40.339  23.687  14.873
 5340W        W77655  21.187   7.236   3.196
 5341W        W77656  16.259  27.984   3.675
 5342W        W77657  12.744  41.440  14.903
 5343W        W77658  25.536  21.670   1.935
 5344W        W77659  25.522   9.385  10.561
 5345W        W77660   0.983  37.535   2.322
 5346W        W77661  15.706  23.556  13.394
 5347W        W77662   2.254  14.340   4.167
 5348W        W77663  22.549   2.840  13.509
 5349W        W77664  25.198  26.606   0.265
 5350W        W77665  44.971  27.111   4.132
 5351W        W77666  23.048  12.667   4.661
 5352W        W77667  31.021  25.117  10.615
 5353W        W77668  19.062  26.166  13.063
 5354W        W77669  41.937  41.821   1.408
 5355W        W77670  22.523  36.365  11.447
 5356W        W77671  23.494  38.008   3.380
 5357W        W77672  11.861  18.673   9.949
 5358W        W77673  37.060  38.390  12.425
 5359W        W77674   5.214   1.943   3.154
 5360W        W77675  40.013  35.045   0.765
 5361W        W77676  27.544  13.145  11.986
 5362W        W77677  16.731   3.456  14.958
 5363W        W77678  24.093   0.344   0.306
 5364W        W77679   5.322  15.083   1.774
 5365W        W77680  38.532  28.943   0.444
 5366W        W77681  44.438  29.446  13.861
 5367W        W77682  37.850  29.035  12.446
 5368W        W77683  18.071   4.822  13.014
 5369W        W77684  22.724  12.150  14.953
 5370W        W77685   0.484   9.780  11.523
 5371W        W77686  17.651  36.399   2.248
 5372W        W77687  30.008   0.433   0.269
 5373W        W77688  28.077  28.630   3.867
 5374W        W77689  26.053   5.808  10.047
 5375W        W77690  33.096  42.860  13.875
 5376W        W77691  27.586  38.890  13.543
 5377W        W77692  21.730   2.275   4.340
 5378W        W77693   1.736  37.401   4.803
 5379W        W77694  21.110  18.788   0.829
 5380W        W77695  38.529   7.780   0.950
 5381W        W77696  42.007  37.977   0.796
 5382W        W77697   4.729   1.760  11.467
 5383W        W77698   7.276  24.051   3.823
 5384W        W77699   2.822  10.370  11.987
 5385W        W77700  38.909  35.008   2.331
 5386W        W77701  25.580  27.191  12.434
 5387W        W77702  33.072   4.293  10.568
 5388W        W77703   2.432  34.007  10.429
 5389W        W77704  32.574   0.311  10.557
 5390W        W77705   4.388  30.115   4.603
 5391W        W77706   9.160   7.802  10.898
 5392W        W77707   1.881  33.426   2.830
 5393W        W77708  30.020  36.888  13.861
 5394W        W77709  21.076   6.320  12.419
 5395W        W77710  28.578  44.480   0.889
 5396W        W77711  34.938  36.506   3.745
 5397W        W77712  43.832  38.983  10.449
 5398W        W77713   1.408  33.620   4.315
 5399W        W77714  14.103  40.354   4.294
 5400W        W77715  44.395  30.148  14.310
 5401W        W77716  38.931  30.962   0.728
 5402W        W77717  36.562  17.652  13.964
 5403W        W77718  21.550  32.620  10.991
 5404W        W77719  25.503  44.941   1.406
 5405W        W77720   4.421  16.280  12.395
 5406W        W77721   7.848  39.046   1.435
 5407W        W77722  35.598  25.048   0.428
 5408W        W77723  30.980  22.581  11.012
 5409W        W77724  28.959   5.928   2.392
 5410W        W77725  36.349  15.108  11.546
 5411W        W77726  17.563  41.306   4.735
 5412W        W77727   7.282  27.999  10.919
 5413W        W77728  15.776  21.189   0.331
 5414W        W77729  16.588  36.846   3.788
 5415W        W77730  30.652  21.104  10.522
 5416W        W77731  38.396  40.539   3.196
 5417W        W77732  20.729  20.683   1.725
 5418W        W77733  21.632  35.362  13.942
 5419W        W77734  40.360  33.439   0.465
 5420W        W77735  20.173  10.384  11.396
 5421W        W77736  30.081  36.498  12.373
 5422W        W77737  16.082   5.237   2.834
 5423W        W77738  14.189  42.947  13.456
 5424W        W77739   6.245  22.566  14.843
 5425W        W77740   3.866  25.547  10.591
 5426W        W77741  28.931  18.697   4.186
 5427W        W77742   7.382   8.224   2.846
 5428W        W77743  37.882   7.251  11.522
 5429W        W77744   5.841  19.164  13.531
 5430W        W77745   7.397  44.305  14.829
 5431W        W77746  27.611   1.420  12.070
 5432W        W77747  37.017   1.901   1.353
 5433W        W77748  43.010  35.995   3.863
 5434W        W77749  24.091   3.940   0.867
 5435W        W77750  13.652  27.523  12.912
 5436W        W77751   3.948   5.381   4.303
 5437W        W77752  27.680  27.093   0.829
 5438W        W77753  31.146   8.283   0.449
 5439W        W77754  18.769  23.986  12.383
 5440W        W77755   5.846   6.790   4.176
 5441W        W77756  40.972  29.024   4.647
 5442W        W77757  28.184  37.443   3.782
 5443W        W77758  16.180   3.268  12.054
 5444W        W77759  18.193  35.517  13.462
 5445W        W77760  43.825   5.788  14.482
 5446W        W77761  12.156  40.375  14.498
 5447W        W77762  28.506   5.881   5.700
 5448W        W77763  14.193  28.992  13.978
 5449W        W77764  28.569  27.464  10.976
 5450W        W77765  34.972  42.784   1.239
 5451W        W77766  36.017  12.821   2.881
 5452W        W77767  39.056  44.831  14.903
 5453W        W77768  16.665  38.866   4.181
 5454W        W77769  25.196  34.041   4.775
 5455W        W77770  40.989  27.173  11.584
 5456W        W77771  17.730   3.824  13.989
 5457W        W77772   8.773  11.670  14.441
 5458W        W77773   0.480  34.447  14.416
 5459W        W77774  36.924  24.540   4.172
 5460W        W77775   0.853  10.726  10.509
 5461W        W77776  29.935  29.014  12.475
 5462W        W77777   0.927  33.026   2.745
 5463W        W77778  44.465  14.834   2.334
 5464W        W77779   9.290  14.723  12.400
 5465W        W77780  35.526  39.444   3.799
 5466W        W77781  16.710  18.292  10.904
 5467W        W77782   1.930  41.479  10.579
 5468W        W77783  21.078  19.568   3.327
 5469W        W77784  36.442  24.490  11.574
 5470W        W77785  39.552  44.283  13.944
 5471W        W77786  17.730  34.422  14.839
 5472W        W77787   9.789  32.634  13.449
 5473W        W77788  43.914  37.086   2.387
 5474W        W77789  14.214  16.666  11.929
 5475W        W77790  11.862  42.356  13.524
 5476W        W77791   5.257  24.503  10.479
 5477W        W77792  31.494  22.510  14.895
 5478W        W77793  31.520   1.824   0.869
 5479W        W77794  35.000  28.482   1.914
 5480W        W77795   1.847   5.891  13.475
 5481W        W77796  14.277  36.988   4.136
 5482W        W77797   4.410  27.681   3.638
 5483W        W77798  23.013  22.100   0.850
 5484W        W77799  22.614   9.808   3.220
 5485W        W77800   1.851   1.960   1.803
 5486W        W77801   3.296   6.283  14.008
 5487W        W77802  29.640  15.681   1.798
 5488W        W77803  42.833   0.473  13.816
 5489W        W77804  40.495  13.125  11.511
 5490W        W77805  36.932  17.609   2.393
 5491W        W77806  36.003  35.519   0.919
 5492W        W77807   9.875  13.718  10.441
 5493W        W77808   8.376   6.379  13.394
 5494W        W77809  10.756  42.508   4.251
 5495W        W77810  41.818  28.099  13.859
 5496W        W77811  38.903  18.635   5.107
 5497W        W77812   8.752  38.908   2.413
 5498W        W77813  31.034  23.732  12.422
 5499W        W77814  33.606  23.727   3.243
 5500W        W77815  41.931  42.960   3.833
 5501W        W77816  29.570  44.277   3.151
 5502W        W77817  28.670   6.792  14.381
 5503W        W77818  29.533  30.433   1.413
 5504W        W77819   1.278  26.696   4.129
 5505W        W77820  16.112  21.192  14.363
 5506W        W77821  41.468   9.350  14.806
 5507W        W77822  11.356   3.333   0.343
 5508W        W77823  37.523   1.324  12.859
 5509W        W77824  34.953  19.144   3.371
 5510W        W77825  42.428  42.930  11.612
 5511W        W77826  22.182   3.915  10.574
 5512W        W77827  25.687   1.262  11.032
 5513W        W77828  26.644  30.447  12.834
 5514W        W77829  39.892  24.189  10.122
 5515W        W77830  25.027   7.322   2.769
 5516W        W77831  34.515  13.208   4.264
 5517W        W77832  25.199  38.376  14.357
 5518W        W77833  20.528   9.648   0.748
 5519W        W77834  35.364  13.793  13.033
 5520W        W77835  38.509  15.088  10.578
 5521W        W77836   1.404   9.151  10.509
 5522W        W77837  25.030  30.639   0.741
 5523W        W77838  44.001   3.317   3.322
 5524W        W77839  14.299  29.468  14.013
 5525W        W77840   4.698   3.420  13.807
 5526W        W77841  33.458  13.650  10.556
 5527W        W77842  11.707  36.868   2.203
 5528W        W77843   9.827  40.318  12.358
 5529W        W77844  22.035  40.362   0.268
 5530W        W77845  43.863  13.346  12.052
 5531W        W77846  24.678  23.004  11.880
 5532W        W77847  14.242  35.376  10.540
 5533W        W77848  21.514  33.886   3.195
 5534W        W77849   5.411  35.435  13.347
 5535W        W77850  34.485  40.040   3.780
 5536W        W77851  29.159  20.754  14.443
 5537W        W77852  17.145   2.287  14.818
 5538W        W77853   2.810  21.675   0.330
 5539W        W77854  22.159   7.373  12.011
 5540W        W77855  39.819  44.371   0.290
 5541W        W77856  15.670  44.270   3.761
 5542W        W77857  13.829  22.087  11.528
 5543W        W77858  26.604  33.966   1.414
 5544W        W77859  42.296  38.504  10.889
 5545W        W77860  19.184   7.311  10.902
 5546W        W77861  39.895   6.911   2.707
 5547W        W77862  41.801  44.938  12.505
 5548W        W77863   8.305  34.992  13.904
 5549W        W77864  15.725  23.729   0.337
 5550W        W77865  19.563  44.378  11.096
 5551W        W77866  17.227  19.660  10.029
 5552W        W77867   1.458  10.852   0.842
 5553W        W77868  40.038  17.221  11.491
 5554W        W77869  18.269   7.889   3.694
 5555W        W77870  36.927  39.536   0.941
 5556W        W77871  42.992  20.120  11.591
 5557W        W77872  38.471  23.017   2.221
 5558W        W77873   6.756  35.062   2.194
 5559W        W77874  21.201  31.913   0.824
 5560W        W77875  15.285  20.196   0.305
 5561W        W77876  39.006   2.854  10.644
 5562W        W77877  10.152  38.489  13.797
 5563W        W77878  23.494  41.835   3.668
 5564W        W77879   0.402  30.467  14.374
 5565W        W77880  26.984  42.516  12.922
 5566W        W77881  43.970  19.704   3.768
 5567W        W77882  27.181  13.311  14.026
 5568W        W77883  16.318  36.523  12.975
 5569W        W77884  15.800  39.868   2.217
 5570W        W77885   6.330  33.126  13.012
 5571W        W77886  33.961  20.685  13.495
 5572W        W77887  36.858  13.843  13.025
 5573W        W77888   8.296   8.829   2.827
 5574W        W77889   5.212  23.636   3.863
 5575W        W77890  25.019  37.385  10.915
 5576W        W77891  34.370  22.249   4.339
 5577W        W77892   9.711  33.007  12.953
 5578W        W77893  39.934  35.454  10.602
 5579W        W77894  22.107   8.879   0.762
 5580W        W77895   3.320  33.499  14.475
 5581W        W77896  21.513  41.012  14.907
 5582W        W77897  28.631  32.502   2.704
 5583W        W77898  29.954   8.233  14.964
 5584W        W77899  21.035  16.698  13.329
 5585W        W77900  15.086  11.162  11.060
 5586W        W77901  37.923  40.940   3.154
 5587W        W77902   9.856  34.065  11.037
 5588W        W77903   3.758  10.320  14.932
 5589W        W77904  38.467   4.864   4.730
 5590W        W77905  35.906   8.865   2.677
 5591W        W77906  31.469  42.361   2.882
 5592W        W77907  13.729  40.508   4.163
 5593W        W77908   7.233  17.694  10.906
 5594W        W77909  23.597  10.353  14.769
 5595W        W77910  10.686  16.801  14.319
 5596W        W77911  22.561  22.009  11.975
 5597W        W77912  13.258   4.936  10.129
 5598W        W77913  12.148  16.755   5.636
 5599W        W77914  32.914  38.424   0.317
 5600W        W77915   8.690  32.497   4.624
 5601W        W77916   1.972   0.867  14.877
 5602W        W77917  40.008  25.990  11.521
 5603W        W77918  42.777   6.834   3.842
 5604W        W77919  39.533  14.648   2.222
 5605W        W77920  42.910  34.509  13.500
 5606W        W77921   7.229  10.384  14.894
 5607W        W77922  21.745   3.815  12.016
 5608W        W77923  13.285  18.560  14.917
 5609W        W77924   6.305  19.070   1.235
 5610W        W77925  16.182  12.788  13.811
 5611W        W77926  11.758  10.687  14.481
 5612W        W77927  35.015  40.498   4.142
 5613W        W77928   4.412  27.187   4.793
 5614W        W77929   7.378   3.357  13.538
 5615W        W77930  32.896  14.759   4.264
 5616W        W77931  44.339  30.605   1.443
 5617W        W77932  23.991  20.678   2.236
 5618W        W77933  21.103  26.591   4.736
 5619W        W77934  36.451  43.980   0.378
 5620W        W77935  43.015  21.157   1.320
 5621W        W77936   4.282  14.667   2.743
 5622W        W77937  14.167  33.595   4.783
 5623W        W77938  18.169  41.034  14.923
 5624W        W77939  37.443  20.212   2.194
 5625W        W77940   0.410   3.908  13.319
 5626W        W77941  19.236  26.483   1.754
 5627W        W77942  41.798   3.929  14.000
 5628W        W77943  29.482  17.771  14.387
 5629W        W77944  23.555  12.716  14.476
 5630W        W77945   8.338  39.882  10.957
 5631W        W77946  18.158  38.049  14.470
 5632W        W77947  16.217   4.269  13.479
 5633W        W77948  24.515  25.532  14.467
 5634W        W77949  29.535   2.940   3.635
 5635W        W77950  41.802  26.054  10.488
 5636W        W77951  35.418  27.155   3.810
 5637W        W77952   2.882  36.857  11.118
 5638W        W77953  21.157  38.919   3.382
 5639W        W77954  30.949  36.552  12.468
 5640W        W77955   7.687  14.810   1.314
 5641W        W77956   0.355   0.464  10.895
 5642W        W77957  26.113  39.557  12.441
 5643W        W77958   0.968  44.805  11.446
 5644W        W77959  26.109  14.116  11.592
 5645W        W77960  44.903  39.480  12.930
 5646W        W77961  32.485  26.554   4.145
 5647W        W77962  41.897  36.991  13.341
 5648W        W77963  16.645  20.142  12.491
 5649W        W77964  39.448  19.123   2.671
 5650W        W77965  19.766  29.998  13.875
 5651W        W77966  35.899  35.429   1.425
 5652W        W77967   0.880  25.991  14.923
 5653W        W77968   1.305   7.684  11.972
 5654W        W77969  40.918  41.833  12.485
 5655W        W77970  38.976  28.955   4.770
 5656W        W77971  13.291  31.402   1.403
 5657W        W77972  31.458  38.927   3.336
 5658W        W77973  27.660  37.964  12.392
 5659W        W77974  35.948  43.941   1.752
 5660W        W77975  32.516  25.091   3.327
 5661W        W77976  40.809  44.979   4.178
 5662W        W77977   9.763  40.403  13.991
 5663W        W77978  21.118  29.481   1.448
 5664W        W77979  29.545  37.871   0.331
 5665W        W77980  17.063   8.335  11.868
 5666W        W77981  31.980  31.508  14.406
 5667W        W77982  26.542  42.515  14.905
 5668W        W77983  23.137  31.995  14.502
 5669W        W77984  41.448  39.323   3.766
 5670W        W77985   2.426  35.089   3.722
 5671W        W77986   0.983  11.284  13.460
 5672W        W77987  38.984  18.683   0.929
 5673W        W77988  14.745  44.312  13.433
 5674W        W77989   2.763  16.626   2.366
 5675W        W77990   1.747  32.041   2.883
 5676W        W77991  33.480   4.395  10.128
 5677W        W77992   6.368  17.614  11.119
 5678W        W77993  15.086  18.632   1.281
 5679W        W77994  29.607  40.052   0.770
 5680W        W77995   5.706  44.371  10.423
 5681W        W77996   8.701  33.455  14.337
 5682W        W77997  31.458  40.902   1.296
 5683W        W77998  32.098  32.584  14.977
 5684W        W77999  19.602  17.298   3.792
 5685W        W78000  41.814  19.148  14.427
 5686W        W78001  27.048   3.333   1.343
 5687W        W78002   2.798  22.218   0.482
 5688W        W78003  14.642  33.588  11.440
 5689W        W78004   4.329  10.373  11.427
 5690W        W78005  43.789  39.842   2.770
 5691W        W78006  12.286  20.149  12.393
 5692W        W78007  38.932  21.021  11.449
 5693W        W78008  29.098  43.936  13.435
 5694W        W78009  34.980  27.542   3.358
 5695W        W78010   1.394  29.485   0.369
 5696W        W78011  40.532  34.489   1.325
 5697W        W78012  18.636  21.045  13.371
 5698W        W78013  43.289  36.585  11.091
 5699W        W78014   2.302  26.065   0.906
 5700W        W78015  16.187  14.762  14.901
 5701W        W78016  31.909  43.954  13.474
 5702W        W78017  15.188   0.332   4.828
 5703W        W78018  32.913  14.821   3.202
 5704W        W78019  29.087  20.539  12.059
 5705W        W78020   6.704  42.951  14.506
 5706W        W78021  31.579  34.448  14.766
 5707W        W78022  16.298  16.653   1.880
 5708W        W78023   1.411   9.819  14.874
 5709W        W78024  18.672  22.995   0.851
 5710W        W78025  32.119  27.604   4.614
 5711W        W78026   0.764   6.849   1.339
 5712W        W78027   5.321  31.050  11.607
 5713W        W78028  32.038  43.922  10.512
 5714W        W78029  40.031  10.818  11.461
 5715W        W78030  18.613  11.815  10.480
 5716W        W78031  23.235  18.546   3.661
 5717W        W78032  36.507  44.812  10.430
 5718W        W78033  11.673  37.950  12.362
 5719W        W78034  29.164  14.783  14.477
 5720W        W78035  22.149   6.837   3.203
 5721W        W78036   3.440   7.277  13.049
 5722W        W78037   4.254  34.388  14.950
 5723W        W78038  16.114   9.287   4.232
 5724W        W78039   3.354   6.730   2.676
 5725W        W78040  14.275  33.980  13.523
 5726W        W78041   1.897   2.303  10.557
 5727W        W78042  24.052  41.871   1.428
 5728W        W78043  36.348  36.564  13.892
 5729W        W78044   7.306  31.503  13.431
 5730W        W78045   2.830  18.095   1.318
 5731W        W78046  27.515  18.670  12.929
 5732W        W78047  13.225  22.558  11.008
 5733W        W78048   8.398  44.480   4.191
 5734W        W78049  42.349  38.976   4.647
 5735W        W78050  16.569  33.955   4.704
 5736W        W78051  19.264   8.661  14.950
 5737W        W78052  42.452  41.825  12.852
 5738W        W78053  29.491  26.558  10.897
 5739W        W78054  22.738  19.741   5.125
 5740W        W78055  13.155   1.482  10.491
 5741W        W78056   1.832  28.967   4.287
 5742W        W78057  34.493  43.837   2.329
 5743W        W78058  14.211  29.654   0.315
 5744W        W78059  32.027  20.091   1.381
 5745W        W78060   1.335  34.490   9.990
 5746W        W78061  43.910  11.702   0.358
 5747W        W78062  16.703  21.604   0.353
 5748W        W78063  13.156  40.323  14.479
 5749W        W78064  33.999  34.022  13.803
 5750W        W78065  34.049   6.286   0.269
 5751W        W78066  17.134  22.239  13.402
 5752W        W78067   7.312  16.587   0.434
 5753W        W78068  16.252  29.133  12.983
 5754W        W78069  13.701  44.844   3.642
 5755W        W78070  22.233  23.225   4.296
 5756W        W78071   6.856  11.238  12.354
 5757W        W78072  28.498  36.921   0.425
 5758W        W78073  12.819  16.595   9.513
 5759W        W78074  33.130  15.636   0.854
 5760W        W78075  19.231  38.342   9.516
 5761W        W78076   3.922  14.182  12.437
 5762W        W78077  16.675   1.378  12.036
 5763W        W78078  44.863  18.162   1.293
 5764W        W78079  26.179  20.572   0.475
 5765W        W78080  27.052   8.284   3.726
 5766W        W78081  44.351  18.733   3.320
 5767W        W78082  11.760  33.569   2.716
 5768W        W78083  22.648  35.887   4.292
 5769W        W78084  20.768   6.715   2.273
 5770W        W78085  23.645  13.135   2.186
 5771W        W78086  27.498  28.622  12.427
 5772W        W78087   0.869  29.651  10.033
 5773W        W78088  28.035  19.764   2.292
 5774W        W78089  20.569  43.485  12.035
 5775W        W78090  38.521  38.980   1.214
 5776W        W78091  18.230  19.573  10.572
 5777W        W78092  19.770   4.748  11.557
 5778W        W78093  12.178   4.868   4.328
 5779W        W78094  44.003  29.523  14.437
 5780W        W78095   7.289  32.136   0.460
 5781W        W78096  33.445   2.910   0.303
 5782W        W78097  32.602  13.629  13.791
 5783W        W78098  13.620  41.401   4.693
 5784W        W78099   2.803   8.742   3.719
 5785W        W78100  34.524   9.693   0.918
 5786W        W78101  14.628  20.085   3.760
 5787W        W78102  36.038  34.606  13.417
 5788W        W78103  19.623   0.352  14.791
 5789W        W78104  26.559  14.305   2.223
 5790W        W78105  34.380   4.726   4.627
 5791W        W78106  31.628   8.373  12.371
 5792W        W78107  35.428  13.323  14.925
 5793W        W78108  27.511   2.243  10.569
 5794W        W78109  16.577  12.630  11.590
 5795W        W78110  17.754  28.141   5.120
 5796W        W78111   0.379  11.230   0.456
 5797W        W78112  39.560  12.791  11.983
 5798W        W78113  27.978   5.258  14.308
 5799W        W78114   5.234  26.965  11.553
 5800W        W78115  26.584   1.265  10.931
 5801W        W78116  29.993   5.724  14.296
 5802W        W78117   4.810  33.007   0.928
 5803W        W78118  31.484   7.835   3.761
 5804W        W78119  27.034  32.926   3.227
 5805W        W78120   8.377  36.016  12.447
 5806W        W78121   5.255  32.578  12.994
 5807W        W78122  17.091  25.206   1.742
 5808W        W78123  15.643   3.792   1.742
 5809W        W78124  22.051   3.838   4.678
 5810W        W78125  30.917  37.547  11.457
 5811W        W78126  44.939  19.156   3.719
 5812W        W78127  35.534  27.190   1.820
 5813W        W78128   4.267  32.057   0.960
 5814W        W78129   8.804  27.495  11.094
 5815W        W78130  16.204  18.287   4.219
 5816W        W78131  33.113   7.394  13.907
 5817W        W78132  44.773   7.696  10.572
 5818W        W78133  42.897  31.937  10.405
 5819W        W78134   9.167  19.610  10.565
 5820W        W78135   0.875   0.435   2.863
 5821W        W78136  14.204   5.718   3.707
 5822W        W78137  40.376   4.387   1.304
 5823W        W78138   6.413  32.484  12.094
 5824W        W78139  28.559   9.362  12.898
 5825W        W78140  27.625  13.217   4.183
 5826W        W78141   6.367   4.727  12.873
 5827W        W78142   6.339  17.691   1.247
 5828W        W78143  39.420  27.644  12.577
 5829W        W78144   7.368   4.747   2.204
 5830W        W78145   4.740  27.106   0.903
 5831W        W78146  32.004  27.960   4.703
 5832W        W78147   0.337   6.898   0.448
 5833W        W78148  23.991  34.526   4.813
 5834W        W78149  16.124   0.410   1.216
 5835W        W78150  15.111  15.822   1.834
 5836W        W78151  34.008  31.447  11.603
 5837W        W78152  30.491   0.838   0.967
 5838W        W78153  30.938  25.523  12.968
 5839W        W78154  41.937  15.745  12.440
 5840W        W78155  28.596  26.051   3.705
 5841W        W78156  31.104   3.264   4.330
 5842W        W78157   9.224  34.952   1.761
 5843W        W78158  28.582  24.527  13.494
 5844W        W78159  39.031  29.005  13.401
 5845W        W78160  36.543  25.088   4.321
 5846W        W78161  10.200  31.104  11.532
 5847W        W78162   8.213  27.668  11.078
 5848W        W78163  17.556   7.813  12.053
 5849W        W78164  23.085  32.007   4.706
 5850W        W78165  11.830  27.117   4.688
 5851W        W78166  12.796   7.218   2.862
 5852W        W78167   0.828  26.168  13.851
 5853W        W78168  37.893  13.270   4.312
 5854W        W78169  11.304  32.942  14.023
 5855W        W78170  35.506  23.223   4.273
 5856W        W78171  38.510  13.308  12.561
 5857W        W78172  34.093  34.069  11.405
 5858W        W78173  38.448  19.204  13.845
 5859W        W78174   5.331  27.983   2.194
 5860W        W78175  38.961  12.785  11.380
 5861W        W78176  19.249  18.640   0.802
 5862W        W78177   0.813  16.189   3.163
 5863W        W78178  10.874  35.602   1.331
 5864W        W78179   0.814   1.449  10.891
 5865W        W78180  11.177   2.815  11.026
 5866W        W78181   3.289  32.499  13.832
 5867W        W78182  29.085  33.604  10.945
 5868W        W78183  37.420  36.998  12.984
 5869W        W78184  29.147   0.364  10.897
 5870W        W78185  41.363  27.037   1.702
 5871W        W78186  44.264  21.042  10.109
 5872W        W78187  37.498  10.786  10.528
 5873W        W78188  37.830  38.962   3.675
 5874W        W78189  28.495  34.399  11.108
 5875W        W78190  31.940  25.626  13.343
 5876W        W78191  19.079  35.907  14.421
 5877W        W78192  10.373  32.604   3.694
 5878W        W78193  10.360  43.017   1.912
 5879W        W78194  43.271   4.406   2.256
 5880W        W78195  40.980  20.607  10.953
 5881W        W78196  24.091  31.502   1.702
 5882W        W78197  40.998  23.152  12.907
 5883W        W78198   9.780  31.642   1.894
 5884W        W78199  26.483  43.411   0.867
 5885W        W78200  33.107  44.911  10.523
 5886W        W78201  30.623  15.764  11.105
 5887W        W78202  28.953  32.136  11.432
 5888W        W78203  28.590  42.434  10.621
 5889W        W78204  32.540   5.704  11.880
 5890W        W78205   7.848   6.803  14.411
 5891W        W78206  26.016   8.264   3.239
 5892W        W78207   2.378  34.573  14.014
 5893W        W78208  27.041  17.753   0.305
 5894W        W78209  34.391  25.080  11.595
 5895W        W78210   1.288  26.617  11.610
 5896W        W78211  35.021  34.410  11.548
 5897W        W78212  16.204  27.018   1.253
 5898W        W78213   9.261  35.987  14.453
 5899W        W78214  14.733  31.632   1.325
 5900W        W78215  40.521  41.007   3.657
 5901W        W78216   9.266  40.339  14.841
 5902W        W78217  35.868   4.221   3.331
 5903W        W78218  24.168   6.374   4.639
 5904W        W78219  19.104  38.541  11.950
 5905W        W78220   6.423  30.453  12.431
 5906W        W78221  27.622   5.757  13.050
 5907W        W78222  11.142  34.430  12.478
 5908W        W78223  15.170  14.222  14.414
 5909W        W78224   7.264   3.400  11.539
 5910W        W78225   9.227  25.490   0.936
 5911W        W78226  37.041  39.336  10.986
 5912W        W78227  27.515   6.883  11.936
 5913W        W78228  17.069  36.053   4.703
 5914W        W78229  39.560  25.027  13.945
 5915W        W78230  29.025   7.401  13.804
 5916W        W78231  12.238  43.422   3.755
 5917W        W78232   4.774  16.232  11.549
 5918W        W78233  31.015  40.509   3.718
 5919W        W78234  14.170   3.917  13.791
 5920W        W78235  10.276  17.651  10.460
 5921W        W78236  10.255  15.181  12.833
 5922W        W78237  22.059   3.904   0.253
 5923W        W78238  33.539  19.620   4.748
 5924W        W78239  32.109  24.713   1.924
 5925W        W78240   9.337  11.358  11.433
 5926W        W78241   9.816  16.224  12.042
 5927W        W78242   5.705  26.016  12.996
 5928W        W78243  23.650   9.765   2.782
 5929W        W78244   4.746  40.818  14.987
 5930W        W78245  16.628  27.585   5.655
 5931W        W78246  38.046  22.222   1.396
 5932W        W78247  12.252  11.682  10.999
 5933W        W78248  40.466  16.144  10.553
 5934W        W78249  19.137  32.140  12.866
 5935W        W78250  26.199  32.439  14.779
 5936W        W78251  24.175  43.292   4.211
 5937W        W78252  10.359  39.533   4.342
 5938W        W78253  33.111  11.715   2.698
 5939W        W78254  18.187  35.071   1.432
 5940W        W78255  39.465   7.772  11.084
 5941W        W78256   5.907  18.088   1.228
 5942W        W78257  37.920   4.323  12.945
 5943W        W78258  20.205  17.625  14.956
 5944W        W78259  12.834  33.450  10.414
 5945W        W78260  45.000  10.273  12.477
 5946W        W78261  41.350  43.946  14.832
 5947W        W78262  42.368  18.141   1.238
 5948W        W78263   4.725  41.482  12.945
 5949W        W78264   4.336  34.471   4.295
 5950W        W78265  13.610  19.737   3.311
 5951W        W78266   3.793   4.317  11.900
 5952W        W78267  10.197  10.658   2.867
 5953W        W78268  27.575  25.060  12.430
 5954W        W78269  15.285  12.342  12.946
 5955W        W78270  20.522  30.597   1.793
 5956W        W78271   1.893  31.141   0.416
 5957W        W78272   1.310  35.088   1.701
 5958W        W78273  42.025  34.469  10.576
 5959W        W78274  30.962  44.867  11.916
 5960W        W78275  40.478   5.253  10.909
 5961W        W78276   3.460   9.354  13.354
 5962W        W78277   2.920  30.437   0.798
 5963W        W78278   3.934  24.016   4.180
 5964W        W78279  41.442  31.442   3.376
 5965W        W78280  35.983  10.351  12.948
 5966W        W78281  40.494  18.212   2.838
 5967W        W78282  22.679  24.087   2.298
 5968W        W78283   9.706  40.344   3.808
 5969W        W78284  44.474   2.351   3.282
 5970W        W78285  22.558  42.818  10.604
 5971W        W78286   4.828  35.412   0.401
 5972W        W78287  18.565  30.044   3.365
 5973W        W78288   9.696  17.155  14.801
 5974W        W78289   8.287  42.361   0.260
 5975W        W78290  12.171   1.282   0.936
 5976W        W78291  22.075  22.598  10.974
 5977W        W78292  10.328  31.031   0.324
 5978W        W78293  15.756  26.095  14.320
 5979W        W78294   5.766  26.029   4.126
 5980W        W78295  26.524  29.036   2.671
 5981W        W78296  24.638  27.134   4.601
 5982W        W78297  43.504  32.090  14.028
 5983W        W78298  34.393  26.177  12.979
 5984W        W78299  25.201  29.544  10.546
 5985W        W78300   6.903   7.756   0.326
 5986W        W78301  22.610  31.465  12.931
 5987W        W78302  25.088   0.272   4.198
 5988W        W78303   6.304  41.339   4.767
 5989W        W78304  44.467  13.667   0.761
 5990W        W78305  42.491   2.462   0.306
 5991W        W78306  14.704  19.076  10.984
 5992W        W78307  44.336  40.944  13.004
 5993W        W78308  42.825   3.781  12.975
 5994W        W78309  26.984   4.807   2.893
 5995W        W78310   0.470   7.299   0.801
 5996W        W78311  44.861  30.590  12.389
 5997W        W78312  34.389  10.235   3.695
 5998W        W78313  15.633  10.337   1.707
 5999W        W78314  38.851   7.342  13.454
 6000W        W78315  23.643  12.301  14.781
 6001W        W78316   1.816  28.608  14.777
 6002W        W78317   9.842  28.102   4.665
 6003W        W78318  30.626  16.753   1.746
 6004W        W78319   4.702  40.965   0.866
 6005W        W78320  31.100  36.022   1.920
 6006W        W78321  31.479  35.067  11.023
 6007W        W78322  21.697  15.261   1.237
 6008W        W78323  28.675  15.752   2.374
 6009W        W78324  21.262  10.285   1.416
 6010W        W78325  38.824   7.761  10.639
 6011W        W78326  42.860  19.205  14.857
 6012W        W78327   5.245  10.230  10.992
 6013W        W78328   3.333  22.691   0.284
 6014W        W78329   6.224   6.301   2.868
 6015W        W78330  21.045  20.055  11.896
 6016W        W78331  33.076  10.648   4.773
 6017W        W78332  12.362   6.350  12.463
 6018W        W78333  36.945  25.048  13.808
 6019W        W78334  43.989  35.870  14.421
 6020W        W78335   2.924  33.899   4.214
 6021W        W78336  29.639  10.280  12.048
 6022W        W78337  15.675  33.586  11.449
 6023W        W78338  10.770  31.528  10.959
 6024W        W78339  19.555  26.633   0.797
 6025W        W78340  38.061  28.465   3.634
 6026W        W78341  36.048   6.727  12.428
 6027W        W78342   6.353  33.429  13.857
 6028W        W78343  27.979  31.458   1.699
 6029W        W78344  23.589  10.866  13.518
 6030W        W78345  30.963  41.307  10.583
 6031W        W78346  33.993  31.911  11.054
 6032W        W78347  23.031  42.457  10.525
 6033W        W78348  41.297  19.110   0.949
 6034W        W78349   3.808  27.057  12.417
 6035W        W78350  42.367  42.416   0.872
 6036W        W78351  33.036  24.163  13.310
 6037W        W78352   8.261  44.861   2.327
 6038W        W78353  34.411  21.618  13.876
 6039W        W78354   3.449  17.659  10.489
 6040W        W78355  29.074   8.702   2.798
 6041W        W78356   4.262  24.691   4.779
 6042W        W78357   0.299  31.639   1.710
 6043W        W78358   0.913  21.161  14.303
 6044W        W78359  22.194  27.591   3.674
 6045W        W78360  32.046  12.652  14.477
 6046W        W78361  20.058   4.249  14.411
 6047W        W78362   0.433  40.839  11.864
 6048W        W78363  19.251  21.533   0.753
 6049W        W78364  30.519  13.678   1.241
 6050W        W78365  42.513  43.492  12.896
 6051W        W78366  10.314  20.145   4.782
 6052W        W78367   8.775  28.615  14.445
 6053W        W78368  38.996  35.922   5.223
 6054W        W78369  39.356  36.002  10.514
 6055W        W78370  43.947  27.177  13.884
 6056W        W78371  18.177  14.127  12.973
 6057W        W78372  19.267   3.422  12.471
 6058W        W78373  33.996  15.755  14.819
 6059W        W78374  30.605  39.057  14.318
 6060W        W78375  29.602  12.225   2.353
 6061W        W78376  30.417  26.175   4.286
 6062W        W78377   0.281   7.404   0.258
 6063W        W78378  28.445  24.602  13.811
 6064W        W78379  32.408  35.577   2.275
 6065W        W78380   9.790  31.598  10.426
 6066W        W78381  23.620  10.794  14.798
 6067W        W78382   5.797   5.730  13.019
 6068W        W78383  41.035  21.061  12.380
 6069W        W78384  44.932  41.527   0.849
 6070W        W78385  14.186  14.730  10.467
 6071W        W78386  29.959  26.973  14.516
 6072W        W78387  35.027  15.094  12.431
 6073W        W78388   0.456  22.072   2.759
 6074W        W78389  40.385   5.423  12.984
 6075W        W78390  38.068  35.964   5.175
 6076W        W78391  35.087   3.347   4.247
 6077W        W78392  26.186  20.188  12.987
 6078W        W78393  42.833  24.168   3.228
 6079W        W78394  30.958  41.531  12.867
 6080W        W78395   0.286  12.132   1.740
 6081W        W78396  18.571  31.968   9.942
 6082W        W78397   8.807  20.603   0.309
 6083W        W78398  21.244  44.383   5.256
 6084W        W78399  22.558  21.612   0.762
 6085W        W78400  14.223  17.678  12.830
 6086W        W78401  14.682   6.801   0.733
 6087W        W78402  22.220  31.967   4.650
 6088W        W78403   0.270  11.650   5.746
 6089W        W78404  39.058  30.565   0.393
 6090W        W78405  27.050  37.004   0.339
 6091W        W78406  34.474  29.000   0.411
 6092W        W78407  18.737  24.046   3.268
 6093W        W78408  23.505  35.884  13.408
 6094W        W78409  18.120   8.841   0.871
 6095W        W78410  37.421  10.795  13.350
 6096W        W78411  13.288  20.240   4.648
 6097W        W78412   9.713  32.545  11.869
 6098W        W78413  12.316  14.158   5.226
 6099W        W78414  31.050  29.617   0.732
 6100W        W78415  39.526  43.269  10.631
 6101W        W78416  20.209  30.997   3.793
 6102W        W78417  12.665  11.672  12.994
 6103W        W78418   4.307   5.694   0.360
 6104W        W78419  15.814  36.371  12.848
 6105W        W78420  38.022  34.442   2.393
 6106W        W78421  19.729  28.995  10.562
 6107W        W78422  38.457   4.851   2.190
 6108W        W78423  12.222  24.702  10.604
 6109W        W78424  16.622  12.634  13.829
 6110W        W78425   9.160  18.113   2.406
 6111W        W78426  28.952  19.716  13.916
 6112W        W78427   6.422   6.832   3.811
 6113W        W78428  27.685  28.674   2.850
 6114W        W78429  10.383  10.723   0.942
 6115W        W78430   6.410   6.235  10.491
 6116W        W78431  15.712  22.697  12.040
 6117W        W78432  21.049  42.323   4.315
 6118W        W78433   9.824  41.354  13.041
 6119W        W78434  34.464  15.645   0.265
 6120W        W78435   3.282  30.596   0.955
 6121W        W78436  15.700  16.202  14.442
 6122W        W78437  31.041   8.346  10.910
 6123W        W78438   9.668   3.240  12.513
 6124W        W78439  13.656  10.303  11.928
 6125W        W78440   1.342  20.731   4.623
 6126W        W78441  15.586  13.284   4.143
 6127W        W78442  28.136  35.947  11.995
 6128W        W78443  27.592  30.969   2.779
 6129W        W78444  18.178  39.824   3.258
 6130W        W78445  35.445   4.311  11.479
 6131W        W78446  10.823  29.163   4.194
 6132W        W78447  17.209   8.373  12.416
 6133W        W78448   4.369  39.316  14.333
 6134W        W78449  16.803  32.959   0.269
 6135W        W78450  38.464   5.741   2.682
 6136W        W78451  18.657   5.351   2.682
 6137W        W78452  19.241  21.169  12.424
 6138W        W78453  24.056   9.692   0.737
 6139W        W78454  21.640  18.057  12.377
 6140W        W78455  34.403   3.400  12.823
 6141W        W78456  42.913  35.872   1.253
 6142W        W78457  14.308   5.325   2.205
 6143W        W78458   7.250  28.502  14.843
 6144W        W78459   8.218  36.435   2.824
 6145W        W78460  42.343  41.489   3.373
 6146W        W78461  38.978  24.085  14.030
 6147W        W78462  15.211  22.574   4.158
 6148W        W78463  44.315  11.338   1.363
 6149W        W78464  27.116  23.692  12.994
 6150W        W78465  31.915  31.010  11.123
 6151W        W78466  17.080   4.378   1.409
 6152W        W78467   1.835  27.053   0.931
 6153W        W78468  20.196  43.912   1.849
 6154W        W78469  44.806  14.700  12.514
 6155W        W78470  25.578  36.953   1.360
 6156W        W78471  18.768  16.683   4.229
 6157W        W78472   8.825   8.851  11.469
 6158W        W78473  18.122  37.573  13.025
 6159W        W78474  41.921  11.169  13.521
 6160W        W78475  12.627  10.874  14.392
 6161W        W78476  39.817   3.233  14.805
 6162W        W78477  21.039   1.832  14.331
 6163W        W78478  44.805   5.306  10.887
 6164W        W78479  15.780  36.361   0.840
 6165W        W78480  29.084  43.001  10.930
 6166W        W78481   9.195  35.602  10.619
 6167W        W78482  10.707  31.913  11.966
 6168W        W78483  30.543   9.231   4.647
 6169W        W78484  12.344   4.325  14.803
 6170W        W78485  10.865  27.628  13.922
 6171W        W78486  32.455   4.373  11.523
 6172W        W78487  38.444  37.529  12.094
 6173W        W78488  27.949  12.784  13.460
 6174W        W78489   1.843  14.175   0.309
 6175W        W78490  16.288   7.893   3.828
 6176W        W78491  28.970  42.981   4.287
 6177W        W78492  23.153  41.885  10.404
 6178W        W78493  11.317  35.491  11.894
 6179W        W78494  15.223  20.560   2.381
 6180W        W78495  12.613  38.051  13.813
 6181W        W78496  10.358   2.864  13.051
 6182W        W78497  20.648  33.462  10.549
 6183W        W78498   7.781  18.232  10.591
 6184W        W78499  27.976  36.458  11.114
 6185W        W78500  26.070  12.669   3.743
 6186W        W78501   7.221  15.182  10.527
 6187W        W78502  34.954   0.406  14.029
 6188W        W78503   4.790  23.994   2.670
 6189W        W78504  10.314  16.745   4.776
 6190W        W78505  24.111  23.604  10.616
 6191W        W78506  41.369  38.956   2.180
 6192W        W78507  17.602  19.699   1.771
 6193W        W78508  14.124  16.694   3.191
 6194W        W78509  26.600  30.021   2.742
 6195W        W78510  42.981   2.734   2.727
 6196W        W78511  39.943  14.147   0.455
 6197W        W78512  37.954  11.742  12.835
 6198W        W78513   6.885   9.335   0.944
 6199W        W78514  38.885  11.199   3.861
 6200W        W78515  18.268   0.968   3.822
 6201W        W78516  15.761   8.656   2.664
 6202W        W78517  24.110   8.695   3.852
 6203W        W78518  32.551  36.465  11.577
 6204W        W78519  42.328  16.197   0.407
 6205W        W78520  11.272  18.097  11.460
 6206W        W78521  18.730  37.994  11.936
 6207W        W78522  19.685  21.120   4.611
 6208W        W78523   7.888  13.261  14.414
 6209W        W78524  44.874  33.089  13.487
 6210W        W78525  39.866  29.031   1.698
 6211W        W78526  13.744   2.259   0.356
 6212W        W78527  16.647  24.709  12.539
 6213W        W78528  42.349   8.398   0.810
 6214W        W78529  41.510  14.298  12.506
 6215W        W78530   2.947  24.117  12.376
 6216W        W78531  11.322   1.952  10.540
 6217W        W78532  38.443  17.612   0.260
 6218W        W78533  37.923  29.175  13.414
 6219W        W78534   8.215  14.243   1.720
 6220W        W78535  13.196  44.486   2.255
 6221W        W78536  38.983  25.111  12.998
 6222W        W78537  38.066  11.133   4.809
 6223W        W78538  44.906  36.883   2.806
 6224W        W78539  43.311  44.879  14.845
 6225W        W78540  33.379   5.706   3.261
 6226W        W78541  35.103   5.388  14.451
 6227W        W78542  25.708  11.746  14.386
 6228W        W78543   4.882  16.170  10.946
 6229W        W78544  13.692   5.197  14.811
 6230W        W78545  15.257   4.332   3.322
 6231W        W78546  40.982  41.519   2.330
 6232W        W78547  16.797  32.526  11.438
 6233W        W78548  21.263  40.352  13.521
 6234W        W78549  30.596  40.036   4.317
 6235W        W78550  27.676  19.168   0.949
 6236W        W78551  18.674  29.459  14.972
 6237W        W78552  27.130  29.473  11.870
 6238W        W78553  23.054  23.600  13.526
 6239W        W78554   6.711  30.486  12.075
 6240W        W78555  14.832  11.727   4.606
 6241W        W78556  29.532  39.558  11.053
 6242W        W78557  18.248   7.386  11.611
 6243W        W78558  21.589  40.376  13.880
 6244W        W78559  20.235  28.437  14.886
 6245W        W78560   8.255  31.031  11.492
 6246W        W78561  12.126  26.612   4.193
 6247W        W78562  37.437  37.395  12.506
 6248W        W78563  44.933  24.192  13.327
 6249W        W78564  10.639   8.781   0.804
 6250W        W78565   8.402  33.908  14.877
 6251W        W78566  25.103  38.957  12.002
 6252W        W78567   2.886  26.468  10.612
 6253W        W78568  41.887  14.234  10.572
 6254W        W78569   9.649  21.084  13.801
 6255W        W78570  14.702  18.722  10.965
 6256W        W78571  35.970  19.083   3.331
 6257W        W78572   5.332   8.295  10.592
 6258W        W78573  11.671  34.508  11.045
 6259W        W78574  30.419  13.600  11.915
 6260W        W78575  12.640  14.213  10.526
 6261W        W78576  26.558  22.508  14.961
 6262W        W78577  21.101  10.263   2.200
 6263W        W78578  12.134  43.328   4.190
 6264W        W78579  17.647  29.634   3.297
 6265W        W78580   1.921   4.918   1.424
 6266W        W78581  15.807   4.227  13.356
 6267W        W78582   0.331  15.104  13.046
 6268W        W78583  14.207  15.668  12.359
 6269W        W78584  26.135  37.831  14.298
 6270W        W78585  42.987  26.630  10.455
 6271W        W78586  14.155   2.391   3.211
 6272W        W78587  29.046  41.416  13.934
 6273W        W78588  29.023  23.197   4.750
 6274W        W78589   4.430  42.811   4.185
 6275W        W78590  43.494   6.830   2.301
 6276W        W78591  24.069   5.220  11.891
 6277W        W78592  14.097   2.452   3.675
 6278W        W78593  18.686  18.142   4.836
 6279W        W78594  14.623  41.464  14.469
 6280W        W78595  19.200  34.593   3.151
 6281W        W78596  37.408  12.791  14.974
 6282W        W78597   6.905  27.956  11.114
 6283W        W78598  36.584  24.542  14.366
 6284W        W78599  19.095  22.509  13.954
 6285W        W78600  18.665  24.200  11.507
 6286W        W78601  30.920   1.321  14.428
 6287W        W78602  36.046  24.553  14.357
 6288W        W78603  33.046  33.118   1.887
 6289W        W78604  21.253  14.634  11.073
 6290W        W78605  14.146  28.055  11.961
 6291W        W78606   5.799  41.537  12.015
 6292W        W78607  42.866  21.158   4.146
 6293W        W78608   3.734  42.784   2.705
 6294W        W78609  19.737  34.520   2.871
 6295W        W78610   4.213  35.359  13.523
 6296W        W78611  42.857   7.846   4.177
 6297W        W78612  21.231  11.307   2.339
 6298W        W78613  26.138  30.604  11.904
 6299W        W78614  16.760   6.822  10.974
 6300W        W78615  14.816  43.409   4.773
 6301W        W78616  40.534  20.144  14.397
 6302W        W78617  44.423   4.858   9.935
 6303W        W78618  30.624  34.549   1.369
 6304W        W78619   4.205   6.277   1.771
 6305W        W78620  36.925  34.470   3.648
 6306W        W78621  28.448  31.996   5.774
 6307W        W78622   0.986  35.028   0.777
 6308W        W78623  24.109  28.946  10.477
 6309W        W78624  31.119  16.735  12.943
 6310W        W78625  34.545  31.984   5.221
 6311W        W78626  38.376   5.924  13.322
 6312W        W78627  23.174   6.293   3.347
 6313W        W78628  33.394  25.216  11.476
 6314W        W78629  37.888  19.580   0.788
 6315W        W78630  44.982  27.597   1.274
 6316W        W78631  27.068  31.472   4.764
 6317W        W78632  43.453  30.102   3.186
 6318W        W78633  17.623  29.637  11.573
 6319W        W78634  15.752  20.210   4.265
 6320W        W78635   6.353  31.141  14.008
 6321W        W78636  23.569  17.126   4.248
 6322W        W78637  15.197  19.552   3.755
 6323W        W78638  44.838  42.307   2.884
 6324W        W78639  24.101  32.484   0.398
 6325W        W78640  28.110  39.549  14.356
 6326W        W78641  31.063  17.637   4.167
 6327W        W78642  33.612  33.608   2.743
 6328W        W78643   0.899   5.818   1.269
 6329W        W78644  13.149  31.609  10.958
 6330W        W78645  24.719   1.247   4.835
 6331W        W78646  38.438  30.036   3.176
 6332W        W78647   7.190  33.874  14.488
 6333W        W78648   0.411   9.755   0.267
 6334W        W78649  15.792  12.753  14.009
 6335W        W78650  41.948  26.126  13.317
 6336W        W78651  10.866  12.724  10.486
 6337W        W78652  22.195  19.706  10.417
 6338W        W78653  16.191   7.717  10.940
 6339W        W78654  36.397  21.546   2.743
 6340W        W78655   3.410  43.872  12.341
 6341W        W78656   2.324  39.548   1.907
 6342W        W78657  27.965   2.966  10.127
 6343W        W78658  31.595   4.900   0.473
 6344W        W78659  32.506   7.811   1.220
 6345W        W78660  23.055  13.201  12.857
 6346W        W78661  29.483  34.586  13.948
 6347W        W78662   9.816  42.325  11.861
 6348W        W78663  16.296  15.677   2.701
 6349W        W78664  27.135  41.865  14.362
 6350W        W78665  18.631  14.685  13.433
 6351W        W78666  16.727  24.104  11.053
 6352W        W78667   0.954  27.089  14.845
 6353W        W78668  41.800  13.755   1.417
 6354W        W78669  18.596  38.556  13.361
 6355W        W78670   7.298  34.895   0.403
 6356W        W78671  41.974  23.509  13.046
 6357W        W78672  25.164  16.671   0.871
 6358W        W78673  17.734  23.540  11.085
 6359W        W78674  27.111  39.876   2.364
 6360W        W78675  30.014  19.048   1.256
 6361W        W78676  13.719  27.045   3.793
 6362W        W78677   9.329  21.035   4.638
 6363W        W78678  29.553  31.906   4.809
 6364W        W78679   6.783  40.028   0.892
 6365W        W78680  20.618  31.579   4.153
 6366W        W78681  30.615  15.091  10.644
 6367W        W78682  37.351  42.887   0.258
 6368W        W78683  27.146  42.357   0.470
 6369W        W78684  37.912  22.702  14.382
 6370W        W78685  35.029  35.417  14.476
 6371W        W78686  41.005   7.410   2.320
 6372W        W78687  39.973  42.874  10.636
 6373W        W78688  19.718  11.160   9.471
 6374W        W78689  16.217  17.663  14.465
 6375W        W78690  14.620  28.125   2.317
 6376W        W78691  31.598   8.314   0.748
 6377W        W78692  25.049  19.682  11.935
 6378W        W78693   8.684  12.726   2.876
 6379W        W78694   2.401  40.546  12.049
 6380W        W78695   7.247  13.814  10.633
 6381W        W78696   1.845  24.601   1.420
 6382W        W78697  14.119  12.754  14.470
 6383W        W78698  41.039  33.060   0.337
 6384W        W78699  34.563   4.272  12.571
 6385W        W78700   3.954   9.253  10.506
 6386W        W78701  22.196  22.570   0.823
 6387W        W78702  17.080  13.177  10.459
 6388W        W78703  32.564   5.311  13.484
 6389W        W78704  28.076   2.735   2.348
 6390W        W78705  34.068  18.160   4.638
 6391W        W78706  37.868   8.809   0.956
 6392W        W78707   3.889  13.241  12.064
 6393W        W78708   5.816  25.175   0.448
 6394W        W78709  21.176   9.699   1.781
 6395W        W78710  24.059   9.396  14.311
 6396W        W78711  44.349  20.578   0.332
 6397W        W78712  33.437  11.781   2.265
 6398W        W78713  10.655   0.813  10.642
 6399W        W78714   3.427  22.181   3.673
 6400W        W78715  34.892   4.300   2.669
 6401W        W78716  15.319  27.654   0.471
 6402W        W78717  37.941   3.304  12.030
 6403W        W78718  29.550  22.590  10.081
 6404W        W78719  14.752  34.993  13.479
 6405W        W78720  26.006   3.856   3.686
 6406W        W78721   6.703  42.408   1.256
 6407W        W78722  14.734  23.572   2.770
 6408W        W78723  35.903   4.821  10.429
 6409W        W78724   5.833  40.818  11.056
 6410W        W78725  25.484  39.019   2.350
 6411W        W78726  31.637  43.354   4.818
 6412W        W78727   1.898  38.945   3.168
 6413W        W78728   4.902  32.542  12.997
 6414W        W78729   2.801  28.653   0.448
 6415W        W78730  44.379  10.266  11.027
 6416W        W78731  23.087  34.612   0.374
 6417W        W78732  21.714  20.110  11.922
 6418W        W78733  23.078  37.380   4.252
 6419W        W78734  35.483  30.090  11.891
 6420W        W78735   1.839  17.590  13.990
 6421W        W78736  25.125  29.659   1.306
 6422W        W78737   9.171  29.130  12.390
 6423W        W78738  16.778  15.624  12.429
 6424W        W78739  26.976  15.672  10.626
 6425W        W78740   4.791   4.366  10.952
 6426W        W78741   5.195  43.964   1.236
 6427W        W78742  43.764  34.083  13.041
 6428W        W78743  36.946   6.377  13.537
 6429W        W78744  13.785  32.103   0.413
 6430W        W78745  12.125  21.674  10.941
 6431W        W78746  36.357  39.429  14.880
 6432W        W78747   1.816   2.249  13.545
 6433W        W78748   0.858  22.007  10.909
 6434W        W78749  14.140  34.556  14.363
 6435W        W78750  29.511  36.445  13.923
 6436W        W78751  11.783  36.988   1.839
 6437W        W78752  44.426  44.937   0.471
 6438W        W78753  12.205  12.660   4.836
 6439W        W78754  14.239  27.612  13.809
 6440W        W78755   3.729  32.524  13.387
 6441W        W78756  37.549  42.318  10.578
 6442W        W78757  27.483  30.153  10.584
 6443W        W78758   5.264   2.339  10.607
 6444W        W78759  43.826   3.356   2.361
 6445W        W78760  37.845   5.393   3.200
 6446W        W78761   5.409   4.808   1.871
 6447W        W78762  35.063  28.108  12.424
 6448W        W78763  19.570   6.396   3.263
 6449W        W78764  27.599  25.695  14.896
 6450W        W78765  34.983   8.237   3.868
 6451W        W78766  39.454   7.836   1.823
 6452W        W78767  15.758  11.722   5.133
 6453W        W78768  20.635   2.359  11.042
 6454W        W78769  18.073  40.887   0.887
 6455W        W78770  25.661  24.619   0.296
 6456W        W78771  41.028  26.685  10.446
 6457W        W78772  14.795  44.814  10.592
 6458W        W78773  22.250  21.690  10.146
 6459W        W78774  19.075  23.578  13.335
 6460W        W78775   4.801   9.689   1.424
 6461W        W78776  33.027  29.101   1.880
 6462W        W78777   1.277  37.438   3.180
 6463W        W78778  43.391  30.610   1.793
 6464W        W78779  16.318  17.797  12.970
 6465W        W78780   9.680  25.987   0.404
 6466W        W78781  42.845  38.531  10.444
 6467W        W78782  42.005  29.625  12.928
 6468W        W78783  21.084  18.184   0.811
 6469W        W78784  25.127   9.668  12.436
 6470W        W78785  11.298  18.089  11.045
 6471W        W78786   9.884   5.853  13.022
 6472W        W78787  19.696   1.847   0.396
 6473W        W78788  11.282  26.014   4.307
 6474W        W78789  36.473   8.250   0.288
 6475W        W78790  10.304  28.111   4.205
 6476W        W78791  21.570   5.361   4.838
 6477W        W78792  12.819   3.395  10.494
 6478W        W78793  12.806  23.042  13.360
 6479W        W78794  31.927  34.402   3.161
 6480W        W78795  23.014   2.795  14.882
 6481W        W78796  16.217  42.398  10.466
 6482W        W78797   6.375  39.555   2.296
 6483W        W78798  33.035  28.057   2.370
 6484W        W78799  31.028  16.755  14.982
 6485W        W78800  38.893  17.647  10.481
 6486W        W78801  12.239  26.185   4.797
 6487W        W78802  38.044  29.954   3.745
 6488W        W78803  39.452  39.532   2.206
 6489W        W78804   9.364  33.963  14.392
 6490W        W78805  17.307  28.104  10.933
 6491W        W78806  41.800  18.776   4.329
 6492W        W78807  25.213  10.674  13.876
 6493W        W78808  27.628  15.780   4.184
 6494W        W78809   0.959  17.122  14.880
 6495W        W78810   4.403  20.526  10.969
 6496W        W78811  16.216  28.026  11.984
 6497W        W78812  40.370  32.960  14.765
 6498W        W78813  31.543  26.197  14.826
 6499W        W78814   7.735  20.668   4.738
 6500W        W78815  31.991  23.539  11.372
 6501W        W78816  27.968  29.069   1.385
 6502W        W78817  24.980  31.614   1.258
 6503W        W78818  29.932  30.000   1.699
 6504W        W78819   6.428  40.413   0.781
 6505W        W78820  23.647  35.911   4.178
 6506W        W78821  36.864   3.811   1.746
 6507W        W78822  30.980  36.891   4.818
 6508W        W78823  11.845  21.645   1.843
 6509W        W78824  28.008  32.492  14.330
 6510W        W78825   9.199  18.181   3.355
 6511W        W78826  40.425  19.182   3.346
 6512W        W78827  15.768  17.600  12.390
 6513W        W78828   8.748   0.841  12.350
 6514W        W78829  28.496   6.217   4.225
 6515W        W78830  30.652  36.438   1.764
 6516W        W78831  29.148   6.322   2.354
 6517W        W78832  32.109  39.895  12.033
 6518W        W78833  40.973   7.260  10.596
 6519W        W78834   9.343  10.651  12.870
 6520W        W78835   1.942   8.690  14.801
 6521W        W78836  20.057  29.122   3.807
 6522W        W78837  29.537   7.390   3.177
 6523W        W78838  15.184  22.042  13.955
 6524W        W78839  26.094   4.436   1.824
 6525W        W78840   1.418   9.172   1.325
 6526W        W78841   5.337   9.342  13.876
 6527W        W78842  33.549  37.975   2.382
 6528W        W78843   7.212  21.078   4.627
 6529W        W78844  35.986   7.412  12.359
 6530W        W78845  25.563  20.669  13.033
 6531W        W78846  12.266  23.126  13.497
 6532W        W78847  36.880  18.572   2.274
 6533W        W78848  27.680  11.267   1.755
 6534W        W78849  40.422  18.766  11.051
 6535W        W78850  19.554  27.042  10.413
 6536W        W78851  15.774  41.429  10.088
 6537W        W78852   0.982  18.711  12.497
 6538W        W78853  26.543  27.988   0.409
 6539W        W78854  29.468  35.952  10.593
 6540W        W78855  14.640  26.150   4.349
 6541W        W78856  36.937  40.549   2.773
 6542W        W78857  27.130  37.901  12.423
 6543W        W78858  32.630  37.975   1.891
 6544W        W78859  24.667  10.871   4.201
 6545W        W78860  40.403   9.216  13.889
 6546W        W78861  44.313  38.547   4.191
 6547W        W78862  32.611  37.428  11.448
 6548W        W78863  26.143  11.323   2.208
 6549W        W78864  27.123  14.646   1.762
 6550W        W78865   9.227  14.757   2.368
 6551W        W78866  44.948  21.119  14.850
 6552W        W78867  29.499  35.088  10.635
 6553W        W78868  15.748   2.283  13.492
 6554W        W78869  17.201   7.193   4.628
 6555W        W78870  40.831  35.583   0.861
 6556W        W78871  40.017   1.326   4.287
 6557W        W78872   9.792   2.422   3.781
 6558W        W78873  40.522  23.602   3.293
 6559W        W78874  21.545  23.039   2.264
 6560W        W78875  30.650   9.226   4.269
 6561W        W78876  24.111  28.095   4.318
 6562W        W78877  31.954   8.335   0.789
 6563W        W78878  20.742  34.935  11.514
 6564W        W78879   7.815  14.112   2.242
 6565W        W78880  11.256   4.811   2.411
 6566W        W78881  21.751  36.539   1.270
 6567W        W78882  22.565  32.419   2.406
 6568W        W78883  24.065  10.668   4.283
 6569W        W78884   4.428  37.019  10.454
 6570W        W78885  28.635   5.209   0.283
 6571W        W78886  19.277  29.584  10.891
 6572W        W78887  34.559  44.805   2.379
 6573W        W78888  11.201  29.655   4.137
 6574W        W78889  10.369  11.193   3.262
 6575W        W78890  38.557  15.131   2.189
 6576W        W78891  22.055  39.835  10.601
 6577W        W78892   0.364  15.701   2.753
 6578W        W78893  22.508  15.782   1.236
 6579W        W78894   1.269  15.118   1.895
 6580W        W78895  43.287  14.134   1.346
 6581W        W78896   7.910   3.759   2.344
 6582W        W78897  29.550  43.982  13.023
 6583W        W78898  16.081  18.174  12.990
 6584W        W78899  16.745  44.777   1.364
 6585W        W78900  27.521   9.828   3.146
 6586W        W78901  32.049  33.477   3.709
 6587W        W78902  18.210  16.765  14.815
 6588W        W78903  37.978  37.834  12.967
 6589W        W78904  31.941  32.399   2.838
 6590W        W78905  11.360  29.082   1.826
 6591W        W78906   5.396  44.783   0.767
 6592W        W78907  16.200  40.487   1.415
 6593W        W78908  18.115   7.279  14.831
 6594W        W78909  14.805  18.179  13.801
 6595W        W78910  42.835   8.875   2.805
 6596W        W78911  16.570  18.777   0.348
 6597W        W78912  13.663  41.851  14.392
 6598W        W78913  16.664  19.100   3.785
 6599W        W78914  44.838   9.351  14.013
 6600W        W78915  40.978  38.016  13.897
 6601W        W78916  19.770   9.214  12.866
 6602W        W78917  30.120  13.217  12.469
 6603W        W78918  43.413  32.616   0.346
 6604W        W78919  17.588  23.608  11.585
 6605W        W78920   5.932  36.383   3.643
 6606W        W78921  33.893  32.513   0.813
 6607W        W78922  43.845   2.336  12.824
 6608W        W78923  17.188  24.552  10.561
 6609W        W78924  35.876   7.884  12.389
 6610W        W78925  33.921  44.452  14.957
 6611W        W78926   5.235  30.484   3.223
 6612W        W78927  18.223  30.515  14.925
 6613W        W78928   4.719  17.183  14.475
 6614W        W78929  34.425  35.413   1.405
 6615W        W78930  37.462  42.305  13.475
 6616W        W78931  33.084   2.256  14.479
 6617W        W78932  14.677  14.323   1.910
 6618W        W78933  21.567   7.884  12.983
 6619W        W78934  33.930  31.040   4.189
 6620W        W78935  18.732  19.773   2.708
 6621W        W78936  29.013  30.142  12.909
 6622W        W78937  14.274   5.279  11.927
 6623W        W78938  11.132  30.547   3.171
 6624W        W78939   5.229  19.715  10.933
 6625W        W78940  20.654  16.617   2.396
 6626W        W78941  38.058  15.092  12.449
 6627W        W78942  11.136   2.805   4.152
 6628W        W78943  17.716  35.386  13.870
 6629W        W78944  14.709  18.070  14.335
 6630W        W78945  24.015  30.456  10.942
 6631W        W78946  13.235  13.674   1.367
 6632W        W78947  26.150  23.233  14.311
 6633W        W78948  34.020   9.741   4.821
 6634W        W78949  15.652  39.460  14.018
 6635W        W78950   2.874  37.480   2.276
 6636W        W78951   0.802  31.550   1.277
 6637W        W78952  25.156  21.208  12.514
 6638W        W78953   8.335  37.441   2.347
 6639W        W78954  24.648  32.905   4.287
 6640W        W78955  20.763  22.657   4.214
 6641W        W78956  24.037  11.774  13.512
 6642W        W78957  33.103   2.324  12.866
 6643W        W78958  10.298  34.013  14.783
 6644W        W78959  28.177  16.759  14.435
 6645W        W78960   7.818   1.975  13.388
 6646W        W78961  41.871  33.427   0.805
 6647W        W78962  19.114  18.115  12.049
 6648W        W78963   1.823  21.139  14.938
 6649W        W78964  34.490  31.956   4.297
 6650W        W78965   7.765  42.851   0.466
 6651W        W78966  19.577   3.388  14.901
 6652W        W78967  44.432  36.976  13.040
 6653W        W78968  40.421  30.021  11.585
 6654W        W78969  25.038  23.985   3.819
 6655W        W78970  34.950  30.501   5.256
 6656W        W78971  32.100  35.495  14.373
 6657W        W78972  32.466   7.868   1.768
 6658W        W78973  36.986  40.416  12.996
 6659W        W78974  32.129  43.297  14.816
 6660W        W78975  36.076  37.462   5.120
 6661W        W78976  14.148   8.307   1.432
 6662W        W78977  17.631  17.147   1.404
 6663W        W78978   7.876  44.368   1.935
 6664W        W78979   2.261  44.786  12.361
 6665W        W78980  34.396  19.197   0.964
 6666W        W78981  37.935  42.901  14.877
 6667W        W78982  10.316   6.288   4.337
 6668W        W78983  23.526  44.768   0.264
 6669W        W78984  39.414  19.681  14.338
 6670W        W78985   6.384  40.524  10.930
 6671W        W78986  27.991  25.175  13.530
 6672W        W78987  36.386  41.835   5.241
 6673W        W78988  25.162  43.456  10.897
 6674W        W78989  21.103   4.298  11.555
 6675W        W78990  19.123  15.616  12.911
 6676W        W78991  10.332  32.582  14.460
 6677W        W78992  14.237  21.231   3.664
 6678W        W78993   7.337  19.227   1.303
 6679W        W78994  21.237  17.304  13.434
 6680W        W78995   4.317  33.596   4.834
 6681W        W78996  17.222  36.434  13.007
 6682W        W78997  27.491   1.880   2.830
 6683W        W78998  38.029  19.582   0.480
 6684W        W78999   3.227   3.894   4.631
 6685W        W79000  43.310   4.304  12.056
 6686W        W79001   2.951  19.101  13.849
 6687W        W79002  14.269  15.734   2.684
 6688W        W79003  22.024  24.502  11.525
 6689W        W79004  27.032   6.293  11.965
 6690W        W79005  16.741  13.633   4.759
 6691W        W79006  20.767   1.448   0.817
 6692W        W79007  28.991  30.924   0.253
 6693W        W79008  17.738   9.797   2.773
 6694W        W79009  19.137  13.738  13.800
 6695W        W79010  25.997  16.744  12.456
 6696W        W79011  21.088  33.498   3.781
 6697W        W79012  21.739  12.656  13.057
 6698W        W79013  22.712  15.330   3.232
 6699W        W79014  36.090  39.879   0.446
 6700W        W79015   0.432  14.688  14.984
 6701W        W79016  17.163  15.603  12.964
 6702W        W79017  41.827   3.338   0.801
 6703W        W79018  35.011  40.322  14.421
 6704W        W79019  41.365  28.498  14.869
 6705W        W79020  11.805   5.248  10.030
 6706W        W79021  42.842  37.985  14.981
 6707W        W79022   4.239  13.729   1.368
 6708W        W79023  35.986  18.650  11.981
 6709W        W79024  38.474  25.710  14.027
 6710W        W79025  35.030   1.883  13.036
 6711W        W79026  28.632  20.550   4.347
 6712W        W79027  43.338  41.810  10.956
 6713W        W79028  21.750  40.957   4.314
 6714W        W79029  25.583   2.840  12.055
 6715W        W79030  34.877  24.633  13.908
 6716W        W79031  19.604  33.447   4.702
 6717W        W79032  23.174  20.195  14.797
 6718W        W79033  27.581  31.120  12.400
 6719W        W79034   4.704  38.936  12.962
 6720W        W79035  21.041  36.426  14.403
 6721W        W79036  13.150   0.884   3.740
 6722W        W79037  44.464  20.659   1.883
 6723W        W79038  27.170  34.016  13.401
 6724W        W79039  35.060  38.460  11.389
 6725W        W79040   3.843  25.043   3.249
 6726W        W79041  13.352   1.749  13.899
 6727W        W79042  11.372   3.281   3.310
 6728W        W79043   4.209  39.507   3.856
 6729W        W79044  35.597  10.200  14.314
 6730W        W79045  15.789   6.740  13.366
 6731W        W79046  40.046  24.029  12.431
 6732W        W79047   7.702  26.641  10.971
 6733W        W79048  12.639  29.428   4.151
 6734W        W79049  25.167  23.057  14.418
 6735W        W79050  14.689  35.358  12.448
 6736W        W79051   6.754  23.677  11.391
 6737W        W79052  16.617   6.276  13.349
 6738W        W79053  16.654  17.785   0.877
 6739W        W79054  44.009  10.720   3.244
 6740W        W79055  28.566  32.482   1.766
 6741W        W79056  27.068   4.821   2.186
 6742W        W79057  44.476  41.928   4.119
 6743W        W79058  11.654   6.303   4.315
 6744W        W79059  10.309  34.512   1.444
 6745W        W79060   5.400   0.448  13.528
 6746W        W79061  38.056  18.602   2.394
 6747W        W79062  17.731  23.196   1.437
 6748W        W79063   1.266  24.541   0.908
 6749W        W79064   8.271  31.645   3.247
 6750W        W79065  36.347  44.394  11.611
 6751W        W79066   3.396  32.034  13.833
 6752W        W79067   6.353  24.038   4.728
 6753W        W79068  30.611  13.165   4.313
 6754W        W79069  16.721  41.901   3.348
 6755W        W79070  13.120  25.576  10.450
 6756W        W79071   9.834  15.789   1.235
 6757W        W79072  24.511  40.324  13.956
 6758W        W79073  31.467  12.154  12.361
 6759W        W79074  21.596  30.986  12.021
 6760W        W79075   3.719  28.973  13.510
 6761W        W79076  37.429  36.057  11.568
 6762W        W79077  14.775   2.463   3.776
 6763W        W79078  32.579   4.767  10.155
 6764W        W79079   9.647  43.506   1.316
 6765W        W79080   1.435  34.098  11.600
 6766W        W79081   5.709  17.132   4.811
 6767W        W79082  37.466  43.835   4.315
 6768W        W79083  17.791   2.858   1.907
 6769W        W79084  15.736  11.266   3.197
 6770W        W79085  20.267  30.573  14.774
 6771W        W79086  15.822  23.582   2.681
 6772W        W79087   9.227  32.619   4.127
 6773W        W79088   8.202   1.966  11.028
 6774W        W79089  30.645  27.447   1.836
 6775W        W79090  34.594  11.853   1.268
 6776W        W79091  37.013  31.897  11.384
 6777W        W79092  31.901  27.175  12.853
 6778W        W79093   9.688  22.577  13.962
 6779W        W79094  37.969  25.547   1.813
 6780W        W79095  39.534  36.913   4.141
 6781W        W79096  33.030  25.044  14.278
 6782W        W79097  18.217  43.282  14.868
 6783W        W79098  18.100   3.258   2.783
 6784W        W79099  27.184  27.520   0.818
 6785W        W79100  37.046  17.200  13.428
 6786W        W79101  16.728   1.255   3.248
 6787W        W79102   0.450   3.353  11.580
 6788W        W79103  29.657  19.587   2.880
 6789W        W79104  24.494  14.267   1.368
 6790W        W79105  42.379  34.009   2.766
 6791W        W79106  25.478  33.935  11.970
 6792W        W79107  27.524  18.149   4.627
 6793W        W79108  15.130  40.532  13.877
 6794W        W79109  29.949   3.359   0.901
 6795W        W79110  32.126  42.335   0.835
 6796W        W79111  44.889  26.184   1.892
 6797W        W79112  37.442  39.941  13.944
 6798W        W79113   1.458   2.775   3.773
 6799W        W79114  36.057  35.067  10.450
 6800W        W79115   6.750  28.166  12.850
 6801W        W79116  24.136   0.978  12.902
 6802W        W79117   9.310  44.264   9.960
 6803W        W79118  11.235  17.608   2.760
 6804W        W79119  24.131   3.370  14.828
 6805W        W79120  31.132   2.329   1.825
 6806W        W79121   6.743  17.757   0.853
 6807W        W79122   9.746  27.039   4.338
 6808W        W79123   0.389   1.785   0.913
 6809W        W79124   4.380  35.078   1.748
 6810W        W79125   1.470  37.964   1.917
 6811W        W79126  37.900   6.694   0.471
 6812W        W79127  15.102   1.449  13.857
 6813W        W79128  25.178  37.859  10.993
 6814W        W79129  40.823  44.806  13.036
 6815W        W79130   9.393   1.268   1.327
 6816W        W79131  26.585  11.735  11.406
 6817W        W79132  43.370   3.233  12.526
 6818W        W79133  22.535   6.716  10.948
 6819W        W79134  38.562  42.497   4.271
 6820W        W79135  24.128  33.557  13.448
 6821W        W79136  34.895  26.559   4.686
 6822W        W79137  29.034  33.531  13.486
 6823W        W79138  13.191  37.469  10.551
 6824W        W79139  32.098  28.984   2.187
 6825W        W79140  11.636  13.691   2.887
 6826W        W79141  39.014  42.844  12.374
 6827W        W79142   6.224  43.374   1.776
 6828W        W79143  11.348  33.116  12.030
 6829W        W79144   5.902  15.131   0.842
 6830W        W79145  25.595  10.807   2.388
 6831W        W79146  39.391  14.109   4.673
 6832W        W79147  12.637  25.155  14.292
 6833W        W79148  41.338  25.977   4.618
 6834W        W79149  20.081   4.705   0.795
 6835W        W79150  28.506  31.565  11.500
 6836W        W79151  21.561  19.606   1.277
 6837W        W79152   3.847  29.613  12.884
 6838W        W79153  42.797  39.344   4.823
 6839W        W79154  22.697  18.560  14.792
 6840W        W79155  31.623  30.577  14.417
 6841W        W79156  11.624   8.384  12.481
 6842W        W79157  20.032  37.500  13.015
 6843W        W79158  44.964  26.205  11.565
 6844W        W79159  29.633  22.680  13.923
 6845W        W79160   0.357  23.590   2.290
 6846W        W79161  35.466  15.170  11.044
 6847W        W79162  36.856  25.093   5.271
 6848W        W79163  37.871  15.199   1.317
 6849W        W79164  20.641   6.819  11.610
 6850W        W79165   0.988  14.336   3.713
 6851W        W79166  35.601  20.559  12.441
 6852W        W79167   7.393   0.750  11.422
 6853W        W79168   5.378  26.682  11.922
 6854W        W79169  11.685   5.338   0.761
 6855W        W79170  24.131   7.846   2.380
 6856W        W79171   0.416  42.929  13.385
 6857W        W79172  27.469  10.285   1.434
 6858W        W79173   7.415   8.669  13.956
 6859W        W79174  42.941  44.915   3.357
 6860W        W79175  21.625   0.382  13.940
 6861W        W79176  33.902  40.930   2.246
 6862W        W79177  12.197  41.928   2.818
 6863W        W79178  20.120   5.396   2.341
 6864W        W79179  24.080   2.745   2.725
 6865W        W79180   4.905  16.757  11.119
 6866W        W79181  40.845  34.585  13.541
 6867W        W79182  18.631  39.886  11.084
 6868W        W79183  34.525  11.230   1.730
 6869W        W79184  27.953  27.573  14.433
 6870W        W79185  43.426  17.253   3.265
 6871W        W79186  29.519  40.032  11.385
 6872W        W79187  33.982   4.742  13.043
 6873W        W79188  41.881  31.411   1.933
 6874W        W79189  36.065  23.092   4.679
 6875W        W79190  33.448  35.892  12.479
 6876W        W79191  11.663  26.469  11.002
 6877W        W79192   7.875  34.385  13.471
 6878W        W79193   4.890  34.410   2.880
 6879W        W79194  28.485   8.872  14.917
 6880W        W79195   4.443  32.567   3.759
 6881W        W79196  38.350  31.480  11.890
 6882W        W79197  40.504  44.783  11.504
 6883W        W79198  20.188  10.698  14.286
 6884W        W79199  16.598   1.887   3.145
 6885W        W79200  38.058  33.511   4.742
 6886W        W79201  19.665  13.651  11.016
 6887W        W79202  26.202  44.341   0.479
 6888W        W79203  21.231  41.788  12.540
 6889W        W79204  25.111  15.168   3.322
 6890W        W79205  27.025  30.519   4.767
 6891W        W79206  24.117  42.488   4.750
 6892W        W79207   0.300  16.175  14.854
 6893W        W79208  35.063   4.277  11.402
 6894W        W79209   7.720  21.218   2.711
 6895W        W79210  21.629  42.480  14.341
 6896W        W79211  16.619  39.316   9.972
 6897W        W79212  34.994  26.971   0.883
 6898W        W79213  28.094   8.296  12.496
 6899W        W79214  15.741   0.280   4.796
 6900W        W79215   0.842  18.240   5.259
 6901W        W79216  41.333  31.063  12.986
 6902W        W79217  44.352  11.259  12.892
 6903W        W79218  13.144  23.127   1.374
 6904W        W79219  20.620   2.863   2.371
 6905W        W79220  36.001  39.539  12.870
 6906W        W79221   6.732  43.281   3.259
 6907W        W79222  39.012  29.518   4.315
 6908W        W79223  25.113   1.770   4.142
 6909W        W79224  17.098  36.922  10.413
 6910W        W79225  11.301  24.630  11.480
 6911W        W79226  39.371  27.448   2.680
 6912W        W79227   8.883  19.207   4.203
 6913W        W79228  26.025  38.523  14.388
 6914W        W79229  40.304  15.161  14.443
 6915W        W79230  18.544  35.405   1.283
 6916W        W79231  38.856  40.428  12.528
 6917W        W79232  12.251  16.705   2.866
 6918W        W79233  30.529  32.621   2.888
 6919W        W79234   5.695  33.417  14.413
 6920W        W79235  40.798   8.896  11.609
 6921W        W79236  11.817  12.313  11.523
 6922W        W79237  18.243  37.860  11.119
 6923W        W79238  17.088  28.639   1.412
 6924W        W79239  27.994  34.453   5.173
 6925W        W79240  33.921   7.886  14.962
 6926W        W79241  32.907  10.183  11.114
 6927W        W79242  34.111   8.838   4.115
 6928W        W79243   5.293  39.330   2.231
 6929W        W79244   1.739  22.544   4.168
 6930W        W79245   2.799   8.872  11.052
 6931W        W79246  21.169  40.475  12.025
 6932W        W79247  18.586  33.400   2.377
 6933W        W79248  10.862  39.461   2.679
 6934W        W79249  16.761   1.831  11.539
 6935W        W79250   2.312  36.084   3.741
 6936W        W79251   0.251  34.581   4.698
 6937W        W79252   3.260  44.305   1.833
 6938W        W79253   9.156   3.290  13.895
 6939W        W79254  24.036  25.604   1.786
 6940W        W79255  33.586  21.212  10.889
 6941W        W79256   4.278  29.991  10.894
 6942W        W79257  28.456  38.399   2.727
 6943W        W79258   7.907  23.648   1.251
 6944W        W79259  40.835  30.067  12.358
 6945W        W79260  25.629  26.520   3.752
 6946W        W79261   5.216  23.235  13.366
 6947W        W79262   6.208  16.091   0.959
 6948W        W79263  12.838  15.686  12.556
 6949W        W79264  29.155  26.702   4.673
 6950W        W79265  39.810  21.151   3.150
 6951W        W79266  42.410   1.851   0.869
 6952W        W79267   4.290  10.329   3.814
 6953W        W79268   2.805  23.540   0.782
 6954W        W79269  39.530  18.787  12.340
 6955W        W79270  32.497   5.749  11.416
 6956W        W79271  10.726  14.116   1.847
 6957W        W79272  23.495   4.392  14.891
 6958W        W79273  43.923  30.419  12.340
 6959W        W79274  17.618  16.084  12.845
 6960W        W79275  22.241  18.590   4.272
 6961W        W79276  41.302  13.188  11.416
 6962W        W79277  19.241  19.752   0.898
 6963W        W79278  39.552  13.680  14.956
 6964W        W79279  42.957  13.833  12.489
 6965W        W79280  29.954  43.428  10.547
 6966W        W79281   8.333   3.258   3.802
 6967W        W79282  39.558  42.912   0.341
 6968W        W79283  22.053   4.342  10.919
 6969W        W79284  25.580   7.286  11.389
 6970W        W79285   0.288  20.540   3.381
 6971W        W79286  39.525  44.900  10.926
 6972W        W79287  41.535  18.148  13.933
 6973W        W79288  10.779  38.847   4.222
 6974W        W79289  44.822  35.052   4.799
 6975W        W79290   2.295  22.252  10.425
 6976W        W79291  18.738  24.004   0.826
 6977W        W79292  39.417  21.725  11.920
 6978W        W79293  44.894  38.349  13.939
 6979W        W79294  15.281   1.819  11.483
 6980W        W79295  21.713   7.744  14.936
 6981W        W79296  30.474  30.444  12.008
 6982W        W79297   6.228  25.183   0.776
 6983W        W79298  15.234  34.965   1.865
 6984W        W79299  24.548  17.774  13.533
 6985W        W79300  14.131  37.970   3.185
 6986W        W79301  14.605  34.969  12.055
 6987W        W79302  19.103  11.249   0.249
 6988W        W79303  43.878  33.620   1.374
 6989W        W79304  44.783  29.157  13.880
 6990W        W79305  28.985  30.617   0.245
 6991W        W79306  29.562  37.903   1.788
 6992W        W79307  29.446  31.486  13.417
 6993W        W79308  43.346  16.115  13.407
 6994W        W79309  33.602  23.513   2.211
 6995W        W79310  43.994  17.665   3.840
 6996W        W79311   8.261   1.801  14.789
 6997W        W79312  38.942  26.641  13.034
 6998W        W79313   2.781   5.764  13.447
 6999W        W79314  25.985   4.328   9.572
 7000W        W79315  17.600  39.041   4.145
 7001W        W79316  34.015  44.321   3.731
 7002W        W79317  14.701  20.713   0.782
 7003W        W79318  14.177  35.471   2.202
 7004W        W79319  39.881  13.273  10.945
 7005W        W79320  39.846  34.117  12.575
 7006W        W79321   5.338  36.508  14.003
 7007W        W79322  27.198   1.929  12.958
 7008W        W79323   3.354   8.845  14.887
 7009W        W79324   2.255  37.878   3.790
 7010W        W79325  29.668  35.539  13.431
 7011W        W79326   2.339   9.298  13.968
 7012W        W79327   4.311   3.730  13.044
 7013W        W79328   8.199  28.459  11.048
 7014W        W79329  20.578  36.418  13.860
 7015W        W79330  38.964   9.286  13.887
 7016W        W79331  13.816  21.743  11.900
 7017W        W79332  25.038  22.586  14.289
 7018W        W79333  28.120  34.901   1.723
 7019W        W79334  44.979  13.230   2.774
 7020W        W79335   7.381  33.003  12.043
 7021W        W79336   8.339  30.464   2.692
 7022W        W79337  35.496  40.364  10.611
 7023W        W79338  28.179   4.845  11.866
 7024W        W79339   7.251  29.145  13.545
 7025W        W79340  10.160  19.284   5.577
 7026W        W79341  14.622  41.795  11.109
 7027W        W79342  36.883   7.758   4.624
 7028W        W79343   8.865   2.408   3.642
 7029W        W79344  20.769   4.438   3.852
 7030W        W79345   0.914  22.735   0.305
 7031W        W79346  35.542  18.628  14.824
 7032W        W79347   1.850  22.192   0.483
 7033W        W79348  12.818  17.094  12.436
 7034W        W79349   6.335  41.972   3.681
 7035W        W79350  38.863  43.857   2.317
 7036W        W79351  24.110  40.916  12.962
 7037W        W79352  35.395  30.065  13.324
 7038W        W79353  40.809  25.087   9.930
 7039W        W79354  30.574  37.944   4.125
 7040W        W79355  31.149  23.044  12.356
 7041W        W79356  26.597  35.551  11.393
 7042W        W79357  29.568  32.084  14.775
 7043W        W79358  44.967   5.204   1.428
 7044W        W79359   5.373  18.758   2.814
 7045W        W79360  29.479  15.669  10.910
 7046W        W79361  33.451   6.342  12.562
 7047W        W79362   2.807  27.122   1.871
 7048W        W79363  10.294  13.635  11.980
 7049W        W79364  43.347  34.581  12.518
 7050W        W79365   9.295  41.856   0.811
 7051W        W79366  41.879  38.341   0.775
 7052W        W79367  25.512  14.670  14.407
 7053W        W79368  18.196   1.919  13.952
 7054W        W79369   1.805   0.952  11.968
 7055W        W79370  26.988  16.804   3.185
 7056W        W79371  30.998  22.684  12.520
 7057W        W79372  44.963  28.583  11.569
 7058W        W79373  18.296   3.398  12.841
 7059W        W79374  31.577   3.851   0.245
 7060W        W79375  23.996  36.386   4.198
 7061W        W79376  35.997  42.969   1.922
 7062W        W79377  42.293  16.802  10.499
 7063W        W79378  17.765   8.839  12.897
 7064W        W79379  29.071   0.449   1.848
 7065W        W79380  30.039  26.956  13.817
 7066W        W79381   9.239  28.048   1.332
 7067W        W79382   0.789  35.499   4.119
 7068W        W79383  32.615   5.416   1.694
 7069W        W79384  39.059  35.439   0.351
 7070W        W79385   5.854  13.710  14.766
 7071W        W79386  20.238   0.942  10.955
 7072W        W79387  34.024  14.628   4.346
 7073W        W79388  36.088  39.556   4.619
 7074W        W79389  42.432  43.888  12.541
 7075W        W79390   0.758  29.524   4.819
 7076W        W79391  22.552  32.070   9.975
 7077W        W79392  37.397  23.631   4.616
 7078W        W79393  39.410  21.693  10.907
 7079W        W79394  43.810  21.263  12.067
 7080W        W79395  15.717  31.504   1.265
 7081W        W79396  43.359  24.605   2.883
 7082W        W79397  43.461  20.665   4.645
 7083W        W79398   6.686   7.340   3.644
 7084W        W79399  39.050  16.139  10.576
 7085W        W79400  21.203  13.822  10.955
 7086W        W79401  17.180  33.502   3.802
 7087W        W79402  34.999  41.305   0.814
 7088W        W79403   3.289  17.759  12.029
 7089W        W79404   5.690  18.086  13.917
 7090W        W79405  34.103  40.018   4.731
 7091W        W79406  22.740  26.059  12.004
 7092W        W79407  19.674  38.502  13.384
 7093W        W79408  15.793  39.392   4.136
 7094W        W79409  18.738  24.586   2.300
 7095W        W79410  43.994   2.887  11.543
 7096W        W79411  39.499  43.444   2.229
 7097W        W79412  22.104  34.550   3.830
 7098W        W79413  43.818  28.040   0.934
 7099W        W79414  23.138  38.900   0.945
 7100W        W79415  35.882   0.987  12.345
 7101W        W79416  11.357  16.209  14.811
 7102W        W79417  24.037   0.258   2.384
 7103W        W79418  10.160   3.936  13.496
 7104W        W79419  31.641  36.589  10.555
 7105W        W79420  43.883  17.068  10.526
 7106W        W79421  14.658  24.001   2.735
 7107W        W79422   5.211  25.153   3.264
 7108W        W79423  34.034  32.971  13.969
 7109W        W79424  40.885   9.374  13.794
 7110W        W79425  29.619  23.085  10.516
 7111W        W79426   9.856   8.214   2.417
 7112W        W79427  44.912  12.330   1.322
 7113W        W79428   2.959  26.492   2.201
 7114W        W79429   6.816   4.785  13.392
 7115W        W79430   2.393  28.971  13.810
 7116W        W79431  37.390   0.322   1.416
 7117W        W79432   5.858  43.818   1.287
 7118W        W79433   3.935  16.670  11.398
 7119W        W79434  37.998  38.938  10.096
 7120W        W79435   3.900  32.136  14.018
 7121W        W79436  16.730  38.958   1.923
 7122W        W79437  10.827  44.788  14.932
 7123W        W79438  13.204  14.178   1.230
 7124W        W79439  39.930  16.726   1.730
 7125W        W79440  38.568   9.785  10.954
 7126W        W79441  15.668   1.836   4.341
 7127W        W79442  18.267  16.145  14.829
 7128W        W79443  41.378  19.249   2.191
 7129W        W79444  39.933  17.119  11.863
 7130W        W79445  19.096  42.921   0.470
 7131W        W79446   2.456  14.635   4.658
 7132W        W79447   2.888  42.323  11.390
 7133W        W79448  24.090  16.687  11.923
 7134W        W79449  22.147  25.000  10.942
 7135W        W79450  29.537  25.111   1.858
 7136W        W79451  20.083  26.042  10.899
 7137W        W79452   3.863  26.578  14.931
 7138W        W79453  11.712   7.675  12.505
 7139W        W79454  31.122  17.639  14.878
 7140W        W79455   7.724  43.791   2.786
 7141W        W79456  26.479  36.053   4.237
 7142W        W79457  24.185  40.953   3.848
 7143W        W79458  34.926   5.769  14.298
 7144W        W79459  16.695  29.514   4.235
 7145W        W79460  18.579  11.774   9.491
 7146W        W79461   3.841  20.212  11.973
 7147W        W79462  31.433  26.199  11.580
 7148W        W79463  37.017  15.820   1.794
 7149W        W79464  40.917   0.344   1.803
 7150W        W79465  13.797  10.877   2.680
 7151W        W79466  31.648  40.047  11.574
 7152W        W79467  43.369  38.380  14.422
 7153W        W79468  44.491  35.937  14.884
 7154W        W79469  38.914   2.757  12.052
 7155W        W79470  40.850  21.030  13.813
 7156W        W79471  44.360  21.564  13.029
 7157W        W79472  14.797   8.888   3.264
 7158W        W79473  32.559  15.677  11.054
 7159W        W79474  27.045  11.704   1.780
 7160W        W79475  36.916   7.840  14.343
 7161W        W79476  11.335  10.179   1.410
 7162W        W79477  10.807  37.575  12.375
 7163W        W79478  25.021  44.877  12.968
 7164W        W79479   5.265  18.768   4.297
 7165W        W79480  44.435  32.033  11.566
 7166W        W79481  14.705  32.412  14.001
 7167W        W79482  38.441  32.549   2.762
 7168W        W79483   8.791  34.580  14.820
 7169W        W79484  17.258  21.513   1.819
 7170W        W79485  34.002  28.670  12.883
 7171W        W79486   6.357  19.104  12.910
 7172W        W79487  10.182  30.075  11.107
 7173W        W79488  16.615  12.276   0.317
 7174W        W79489  19.130  20.767  14.482
 7175W        W79490   9.322  44.756   4.129
 7176W        W79491  38.820  12.623  12.022
 7177W        W79492  34.075  37.082   0.782
 7178W        W79493  23.658  16.672  12.377
 7179W        W79494  14.820   5.419  13.384
 7180W        W79495   0.892  19.064  13.394
 7181W        W79496  33.998  26.054  12.876
 7182W        W79497  41.300  36.086   4.723
 7183W        W79498  18.557  41.987   0.342
 7184W        W79499  43.390   8.293   2.674
 7185W        W79500  38.449  44.770  10.607
 7186W        W79501   1.916  29.076  11.988
 7187W        W79502   2.758   6.827   3.268
 7188W        W79503   8.802  26.142   1.759
 7189W        W79504  32.916  39.380  12.940
 7190W        W79505  17.640  31.441   3.311
 7191W        W79506  32.044  29.564  14.467
 7192W        W79507  39.902  38.423   2.332
 7193W        W79508  21.724  10.153   3.270
 7194W        W79509  25.033   0.273   3.307
 7195W        W79510  23.612  37.566   0.966
 7196W        W79511  35.925   5.886  12.422
 7197W        W79512   1.461  39.495   2.822
 7198W        W79513  35.427   7.301  11.453
 7199W        W79514  41.810  25.062   3.756
 7200W        W79515  25.217  16.313   4.686
 7201W        W79516   4.788  28.171  14.280
 7202W        W79517  35.947   0.413  12.391
 7203W        W79518   0.798  26.119  12.505
 7204W        W79519  44.492   6.864  14.421
 7205W        W79520  27.518  10.733  14.886
 7206W        W79521   8.791  15.228   3.311
 7207W        W79522  11.149   0.769   0.379
 7208W        W79523  17.299   4.820  14.402
 7209W        W79524  34.010   4.388  14.814
 7210W        W79525  25.213  16.776  13.344
 7211W        W79526  25.049  41.035   2.396
 7212W        W79527  23.528  16.695   2.772
 7213W        W79528  27.040  17.658  11.428
 7214W        W79529  34.095  25.039  14.842
 7215W        W79530  29.999   2.353   2.317
 7216W        W79531  20.214  10.144  13.027
 7217W        W79532   5.274   4.859  12.947
 7218W        W79533   6.678   9.818   3.777
 7219W        W79534  34.535  26.692  12.421
 7220W        W79535  35.537   7.733   0.786
 7221W        W79536  37.436  31.607  14.780
 7222W        W79537  42.304   7.863  13.499
 7223W        W79538  29.014  25.711   3.848
 7224W        W79539  32.069   5.821  14.352
 7225W        W79540  28.933  11.650   2.199
 7226W        W79541  18.266  32.609   4.625
 7227W        W79542  33.564   6.317   2.404
 7228W        W79543  13.680  15.595   1.268
 7229W        W79544   9.868  11.647  13.888
 7230W        W79545   9.799  11.742   0.752
 7231W        W79546  28.523  29.955  14.904
 7232W        W79547  22.604  10.155  13.388
 7233W        W79548  23.560  43.803  12.491
 7234W        W79549  42.810  43.464  10.432
 7235W        W79550  26.062  42.506  10.421
 7236W        W79551  16.186  38.343  13.352
 7237W        W79552   2.462  36.394  10.102
 7238W        W79553  31.120  31.086   0.353
 7239W        W79554  36.953  37.459   4.665
 7240W        W79555  19.132  10.836   4.753
 7241W        W79556  26.139  23.162   2.316
 7242W        W79557  28.434  18.295  11.376
 7243W        W79558  32.928   9.290   0.289
 7244W        W79559  23.115  20.736  13.962
 7245W        W79560  37.974  34.963  12.949
 7246W        W79561  35.504   6.762   2.249
 7247W        W79562   5.828  34.923   1.910
 7248W        W79563  35.013  10.728  11.399
 7249W        W79564  39.382  42.518   4.704
 7250W        W79565  16.715  43.278   1.412
 7251W        W79566  14.248  27.594   0.466
 7252W        W79567  40.853   2.236   2.903
 7253W        W79568   9.366   3.799   1.707
 7254W        W79569  11.758  32.498  14.309
 7255W        W79570  20.178  20.107   4.210
 7256W        W79571   3.721  37.354   4.753
 7257W        W79572  27.174  31.145   2.252
 7258W        W79573  33.975   3.766   0.942
 7259W        W79574  28.447   4.384   2.259
 7260W        W79575   5.216  21.637  13.411
 7261W        W79576  23.035  20.769  11.610
 7262W        W79577   8.855   9.351   3.261
 7263W        W79578  21.205  13.230   2.711
 7264W        W79579  21.661   9.206   3.713
 7265W        W79580  22.614  29.551   2.315
 7266W        W79581  42.880   6.914   4.348
 7267W        W79582  20.541  36.502  12.016
 7268W        W79583   2.357  19.642   3.666
 7269W        W79584  34.000  44.932  13.387
 7270W        W79585  20.098  30.518   5.103
 7271W        W79586  30.588  34.013  14.860
 7272W        W79587  22.027   0.854  12.549
 7273W        W79588  23.513  26.177   1.907
 7274W        W79589   0.369  24.561  11.870
 7275W        W79590  38.870   0.903   2.327
 7276W        W79591   9.876  25.196  14.386
 7277W        W79592  29.172  17.760  11.523
 7278W        W79593  32.459  29.010   2.343
 7279W        W79594  18.768  44.344  11.994
 7280W        W79595  26.579  42.383  14.404
 7281W        W79596  19.073  37.481  10.551
 7282W        W79597  28.161  28.480   2.365
 7283W        W79598  13.137  36.560   4.641
 7284W        W79599  22.742  13.796  12.895
 7285W        W79600  18.141  13.174   3.693
 7286W        W79601  28.169  37.490  10.059
 7287W        W79602   5.322  44.412   4.252
 7288W        W79603  10.747  35.412  13.487
 7289W        W79604   5.693  40.946   2.381
 7290W        W79605  30.931  16.571   4.810
 7291W        W79606  41.331   5.304  12.373
 7292W        W79607  16.625   9.302   1.421
 7293W        W79608   0.267  37.555   3.869
 7294W        W79609  29.518  21.689  13.426
 7295W        W79610   0.413  25.034   0.480
 7296W        W79611  19.191  29.580   1.212
 7297W        W79612   8.901  19.754   4.653
 7298W        W79613   8.391   3.323   0.383
 7299W        W79614  26.122  30.632  14.328
 7300W        W79615  26.624  16.721  10.981
 7301W        W79616  38.510  20.225  12.559
 7302W        W79617  44.758  18.634  11.404
 7303W        W79618   4.789  13.258  12.962
 7304W        W79619  30.029  36.932  13.349
 7305W        W79620  38.917   1.925  14.309
 7306W        W79621   8.177  22.030   3.322
 7307W        W79622  40.977  32.076   1.911
 7308W        W79623  33.546  35.856  10.115
 7309W        W79624  15.251  42.027  13.447
 7310W        W79625  17.124  10.848   5.736
 7311W        W79626   9.180   8.802  13.055
 7312W        W79627  28.582  12.713  14.929
 7313W        W79628   5.219  15.102  13.522
 7314W        W79629  24.096  20.603   3.224
 7315W        W79630  29.921  12.136  11.515
 7316W        W79631  28.068   6.420  14.339
 7317W        W79632  42.486  11.289   2.814
 7318W        W79633   6.739  14.700  11.875
 7319W        W79634  35.929  12.736  14.456
 7320W        W79635  42.988  15.802   2.668
 7321W        W79636  33.458  23.068  12.885
 7322W        W79637   3.258  36.476   1.236
 7323W        W79638  10.737  36.454  13.492
 7324W        W79639  43.897  15.267  14.471
 7325W        W79640  21.115  18.119  14.316
 7326W        W79641  30.992  21.694   2.227
 7327W        W79642  22.700  12.305   1.346
 7328W        W79643  18.057  14.118  11.470
 7329W        W79644  33.094  33.490  13.825
 7330W        W79645   8.898  10.804  11.955
 7331W        W79646  40.005  38.548   1.276
 7332W        W79647  32.072  32.998  10.088
 7333W        W79648  10.262  16.598  14.480
 7334W        W79649  28.102  31.094   2.757
 7335W        W79650  19.091  18.221   3.642
 7336W        W79651  13.642  35.558  12.049
 7337W        W79652  10.281  14.133   2.858
 7338W        W79653  21.611  14.643  14.405
 7339W        W79654  10.344  42.349  10.522
 7340W        W79655  11.844  17.691   0.352
 7341W        W79656  22.641  17.127   0.863
 7342W        W79657  37.014  31.932   2.735
 7343W        W79658  42.518  27.153  11.909
 7344W        W79659   9.173  37.493  10.072
 7345W        W79660  40.915  17.740  13.506
 7346W        W79661  37.035  11.228  11.881
 7347W        W79662  15.604  34.946   9.980
 7348W        W79663  18.618  30.570   5.672
 7349W        W79664  44.808  15.591   1.442
 7350W        W79665   1.410  12.116   5.572
 7351W        W79666  26.187  20.539  10.588
 7352W        W79667  26.684  13.687   3.860
 7353W        W79668  43.284   3.771  12.879
 7354W        W79669  40.835   0.925   1.890
 7355W        W79670  23.515   2.946   1.877
 7356W        W79671  36.548  41.878   3.822
 7357W        W79672  33.542  40.375  13.037
 7358W        W79673  37.577  31.528   2.725
 7359W        W79674  15.640  27.660  11.527
 7360W        W79675  22.665  16.072  12.994
 7361W        W79676   8.834  26.014  14.492
 7362W        W79677  25.657  28.610  11.503
 7363W        W79678  30.464   8.390  14.386
 7364W        W79679  36.543  33.109   0.339
 7365W        W79680   5.266   4.284   3.278
 7366W        W79681  13.314  12.798  11.539
 7367W        W79682   7.286  24.148  12.953
 7368W        W79683  30.650  35.499   1.933
 7369W        W79684  10.762  15.173  13.907
 7370W        W79685  39.014  17.230  12.896
 7371W        W79686   5.825  31.085   2.828
 7372W        W79687  29.096  44.894  12.351
 7373W        W79688  24.544  23.036   3.307
 7374W        W79689  22.092  23.573  14.296
 7375W        W79690   5.222  16.591  12.028
 7376W        W79691  15.229  15.299  11.383
 7377W        W79692   7.804  33.528   0.761
 7378W        W79693  39.823   3.364   3.859
 7379W        W79694  12.290  28.443   1.439
 7380W        W79695   1.361   0.842   4.290
 7381W        W79696  31.605  19.698  12.378
 7382W        W79697  43.482  41.440   0.916
 7383W        W79698  10.234  13.802  10.986
 7384W        W79699  10.726   3.275  14.326
 7385W        W79700   7.755  43.396   4.836
 7386W        W79701  38.877  32.989   3.202
 7387W        W79702  42.973   3.447  12.863
 7388W        W79703   3.849   5.810  11.023
 7389W        W79704  19.560  19.716  14.004
 7390W        W79705  26.082   9.207   2.408
 7391W        W79706  30.928  17.783  12.494
 7392W        W79707   9.766  30.033   0.746
 7393W        W79708  25.995  36.388   2.252
 7394W        W79709  43.459  33.988   2.694
 7395W        W79710   2.933  42.491   2.787
 7396W        W79711   9.392   1.372  14.969
 7397W        W79712   0.338  26.545  13.510
 7398W        W79713  43.426  39.863   3.165
 7399W        W79714   6.689   0.450  14.407
 7400W        W79715   0.353  43.809  12.028
 7401W        W79716  23.034  23.131   3.281
 7402W        W79717  14.297  24.703   0.260
 7403W        W79718  38.996  32.414   4.220
 7404W        W79719  27.965  42.305  13.053
 7405W        W79720  21.666  19.771   3.721
 7406W        W79721  26.002  17.641  14.302
 7407W        W79722  25.664  18.212   1.277
 7408W        W79723  26.951  19.637  13.814
 7409W        W79724   5.712  42.019   1.324
 7410W        W79725   6.356  31.071   3.344
 7411W        W79726  43.901  35.403  13.386
 7412W        W79727   4.218  29.135   0.293
 7413W        W79728  15.809   7.902  11.070
 7414W        W79729  18.664  32.102   3.713
 7415W        W79730   6.355   3.447   2.858
 7416W        W79731  14.603  24.109   3.679
 7417W        W79732   3.243  30.008  11.032
 7418W        W79733  20.136  22.169  14.435
 7419W        W79734  20.688  25.674  11.094
 7420W        W79735  34.505   7.816   1.398
 7421W        W79736  32.040  38.501   2.233
 7422W        W79737  21.107   7.297   3.640
 7423W        W79738  31.912  14.792  11.067
 7424W        W79739  41.482   9.163   3.760
 7425W        W79740  32.110   9.193  13.833
 7426W        W79741   1.874  24.150  10.561
 7427W        W79742   0.494  34.405  13.486
 7428W        W79743  24.099   5.392  12.510
 7429W        W79744   9.261  20.073  11.855
 7430W        W79745  28.944  10.280   1.395
 7431W        W79746  12.852  40.011  14.979
 7432W        W79747  42.827  14.670   2.829
 7433W        W79748  34.015  40.456   4.217
 7434W        W79749   8.862   0.464   0.374
 7435W        W79750  13.301  32.948   1.221
 7436W        W79751  16.173  29.610  11.066
 7437W        W79752  30.544  15.774   3.376
 7438W        W79753  35.867  25.488  13.458
 7439W        W79754  44.847  14.685   1.374
 7440W        W79755  37.065  20.029  14.355
 7441W        W79756  41.040  26.529  13.023
 7442W        W79757  18.601  36.513   3.792
 7443W        W79758   8.218   9.649  14.304
 7444W        W79759  19.646  32.899  11.559
 7445W        W79760   5.828  27.663   1.233
 7446W        W79761   7.297  37.878   4.742
 7447W        W79762  27.953   7.199  11.079
 7448W        W79763  13.135  13.659  14.424
 7449W        W79764  41.487  15.089   1.893
 7450W        W79765   8.792  38.855   3.254
 7451W        W79766  20.214  43.399  12.847
 7452W        W79767  38.921  43.291  13.381
 7453W        W79768  20.053  18.176   0.924
 7454W        W79769  19.279  26.964   4.293
 7455W        W79770  35.441  14.100   4.793
 7456W        W79771  30.949   0.839   4.188
 7457W        W79772  39.413   8.225   3.293
 7458W        W79773  24.686   5.264  13.452
 7459W        W79774  11.345  23.992   2.685
 7460W        W79775  38.834  22.687   4.697
 7461W        W79776   6.723  36.520   3.170
 7462W        W79777   2.259  20.663  14.976
 7463W        W79778   7.252  40.524   4.212
 7464W        W79779  13.742  17.561  14.758
 7465W        W79780  41.837   6.897  13.547
 7466W        W79781  15.593   5.384  14.432
 7467W        W79782  30.464  24.624   4.721
 7468W        W79783  40.797  41.010   0.363
 7469W        W79784  38.400  39.903  12.389
 7470W        W79785  42.928  32.558  13.953
 7471W        W79786  11.272  28.942  10.946
 7472W        W79787  20.222  22.589  11.474
 7473W        W79788  30.608  16.202  10.939
 7474W        W79789  33.043  13.714  14.415
 7475W        W79790  12.790  28.008  10.587
 7476W        W79791   8.343  15.284   2.414
 7477W        W79792   8.778   3.405  10.913
 7478W        W79793  21.745  30.637  14.384
 7479W        W79794  31.068   8.736   4.279
 7480W        W79795   7.413  11.854  10.912
 7481W        W79796  36.843   3.910  11.513
 7482W        W79797  15.099   3.713  12.485
 7483W        W79798  36.981  37.439  13.352
 7484W        W79799  22.097   7.261   0.315
 7485W        W79800  37.568   8.396   4.836
 7486W        W79801  35.415  27.465  12.969
 7487W        W79802  25.512  32.521   9.928
 7488W        W79803  14.665   8.893  13.369
 7489W        W79804   9.156   8.225  14.888
 7490W        W79805   7.844  19.574  13.461
 7491W        W79806  23.508  18.622  12.448
 7492W        W79807  26.695  31.566   0.359
 7493W        W79808  37.035  31.030  14.832
 7494W        W79809  42.933  16.661   0.384
 7495W        W79810  16.707  21.230   1.389
 7496W        W79811   9.344  30.068  14.832
 7497W        W79812  43.502  41.389  14.822
 7498W        W79813  29.644  26.558   2.902
 7499W        W79814   2.307  21.026  13.916
 7500W        W79815   3.224  18.098  13.507
 7501W        W79816   4.841  39.367  12.398
 7502W        W79817  21.737   3.342  12.853
 7503W        W79818   2.405   1.955  10.986
 7504W        W79819  10.679   6.896   2.812
 7505W        W79820  17.649  26.677   4.216
 7506W        W79821  35.413  43.955  12.525
 7507W        W79822  32.432  21.033   1.884
 7508W        W79823  29.500  27.127   4.622
 7509W        W79824   5.373  10.793  12.877
 7510W        W79825  28.675  16.631   2.678
 7511W        W79826  14.159  43.906   2.272
 7512W        W79827   4.422  41.787  11.532
 7513W        W79828   7.220  29.051  11.389
 7514W        W79829  21.203  36.941   4.757
 7515W        W79830  21.755  39.339   2.765
 7516W        W79831  30.009  28.156   1.880
 7517W        W79832  34.077   2.408   4.221
 7518W        W79833  38.395  42.988  12.571
 7519W        W79834  11.260  33.384   3.656
 7520W        W79835  22.545  44.880  12.359
 7521W        W79836   4.773  42.800  11.597
 7522W        W79837   6.727  29.635   4.768
 7523W        W79838  35.392  34.527  10.599
 7524W        W79839  20.556  15.777  13.879
 7525W        W79840  24.139  28.121  13.978
 7526W        W79841  26.079  37.952   0.323
 7527W        W79842   3.347   1.349   4.235
 7528W        W79843   9.368  41.512   2.408
 7529W        W79844  38.466  26.617  10.004
 7530W        W79845  39.505  15.800   1.757
 7531W        W79846  22.720  24.993   1.829
 7532W        W79847   1.459  40.888  14.022
 7533W        W79848  12.202  44.482  10.100
 7534W        W79849  17.615  24.096  13.054
 7535W        W79850  31.637   7.738   4.348
 7536W        W79851   4.904  33.012  13.044
 7537W        W79852  39.058   0.369   4.802
 7538W        W79853  13.694   8.777   2.385
 7539W        W79854  26.975   8.304  14.462
 7540W        W79855  21.046   9.177  10.127
 7541W        W79856  31.647  40.859   4.114
 7542W        W79857  26.137  22.509   4.343
 7543W        W79858  20.566  17.186  14.316
 7544W        W79859  41.405  44.267  12.865
 7545W        W79860   7.868   5.398  10.423
 7546W        W79861  15.230  41.819   3.776
 7547W        W79862  32.950  31.586  13.983
 7548W        W79863  25.652  16.811   3.341
 7549W        W79864  25.477  16.143   4.711
 7550W        W79865   1.870  18.742  12.430
 7551W        W79866   0.793   0.869   2.875
 7552W        W79867  10.868  44.862   4.653
 7553W        W79868  25.609  12.612   2.760
 7554W        W79869  17.202  16.167  13.429
 7555W        W79870  14.655   4.724   3.384
 7556W        W79871  10.270  18.706  11.905
 7557W        W79872  19.609  11.829   4.701
 7558W        W79873  39.043  20.238   3.315
 7559W        W79874  39.959  23.566   2.725
 7560W        W79875  19.615  13.183   5.306
 7561W        W79876   9.163   3.769   4.719
 7562W        W79877  15.157  24.115   4.269
 7563W        W79878  24.524   6.864   1.702
 7564W        W79879  41.833  21.145  13.955
 7565W        W79880  41.530  21.653  10.421
 7566W        W79881  27.480  33.982  10.993
 7567W        W79882  37.445   5.398   4.229
 7568W        W79883  39.926  29.477  11.960
 7569W        W79884  44.895   5.781   0.728
 7570W        W79885  23.046  17.575   0.874
 7571W        W79886  11.624  23.679  13.954
 7572W        W79887  39.042   6.748  11.990
 7573W        W79888  40.924   1.888   2.377
 7574W        W79889  18.599  19.758  13.042
 7575W        W79890  32.519   6.825  13.821
 7576W        W79891  18.663  17.244  10.618
 7577W        W79892  33.129  16.669   0.431
 7578W        W79893  43.371  37.432   4.114
 7579W        W79894  38.889   8.896   4.804
 7580W        W79895  13.228  29.500   4.187
 7581W        W79896  21.073  35.078  12.908
 7582W        W79897  41.004  36.527   3.367
 7583W        W79898  28.115  24.982   0.883
 7584W        W79899  31.511  32.451   4.196
 7585W        W79900  33.474  26.691   4.661
 7586W        W79901   6.198   4.772   0.452
 7587W        W79902  31.900   5.329   4.233
 7588W        W79903  14.161  25.574  12.092
 7589W        W79904   5.221  15.587   4.654
 7590W        W79905   9.797  12.661  10.915
 7591W        W79906   3.320  39.945   1.801
 7592W        W79907  21.757  27.171  13.836
 7593W        W79908   7.900  15.629   2.378
 7594W        W79909   9.250  39.378  14.899
 7595W        W79910  20.263   6.820  14.456
 7596W        W79911   2.868  12.314  11.996
 7597W        W79912  22.006  23.989  11.418
 7598W        W79913  44.491   7.906  11.462
 7599W        W79914  42.510  21.605  13.372
 7600W        W79915  37.013   8.163  11.103
 7601W        W79916  33.886  44.404   0.431
 7602W        W79917  25.485  31.617   4.607
 7603W        W79918  31.019   7.804   1.343
 7604W        W79919   0.798  42.862  14.367
 7605W        W79920  20.620  25.525   3.681
 7606W        W79921  20.110  16.294  12.974
 7607W        W79922  21.225  40.943   4.338
 7608W        W79923  25.697   8.211  13.032
 7609W        W79924   8.761  31.529   3.688
 7610W        W79925   7.719  40.508  14.323
 7611W        W79926   5.916  16.811   3.370
 7612W        W79927   2.952  27.607   3.323
 7613W        W79928  12.132  18.208  13.351
 7614W        W79929   4.892   3.450  10.559
 7615W        W79930  20.134  37.925  12.013
 7616W        W79931  17.285  15.229   2.859
 7617W        W79932   2.836  42.311  13.865
 7618W        W79933   4.223  10.155  12.352
 7619W        W79934  24.218   4.703  10.413
 7620W        W79935  12.734  42.800   1.266
 7621W        W79936  36.409  32.893  10.590
 7622W        W79937   2.361  28.025  11.112
 7623W        W79938  17.669   9.800   4.832
 7624W        W79939  16.730  13.629  13.414
 7625W        W79940   5.320  22.238  12.480
 7626W        W79941   8.860  24.703  12.842
 7627W        W79942  44.490  32.449   2.225
 7628W        W79943  26.083  28.669  10.891
 7629W        W79944  42.442   0.961  13.975
 7630W        W79945   9.360  34.886  14.298
 7631W        W79946   9.153  27.136  12.399
 7632W        W79947   5.842   3.260  12.997
 7633W        W79948  11.240  37.868  12.825
 7634W        W79949  41.319  33.122   2.406
 7635W        W79950   7.278  19.263  13.895
 7636W        W79951  16.161  39.914   2.352
 7637W        W79952   7.707  13.684   4.237
 7638W        W79953   0.480   8.245   3.677
 7639W        W79954   1.919  14.641  12.855
 7640W        W79955  43.824  19.577   3.379
 7641W        W79956  39.370  35.982  14.863
 7642W        W79957  35.998  41.383  14.913
 7643W        W79958  42.789   8.900  12.898
 7644W        W79959  21.025  13.820   4.227
 7645W        W79960   8.826  38.912   0.272
 7646W        W79961   4.449  10.264   4.320
 7647W        W79962  20.621  25.693  12.909
 7648W        W79963  37.457  35.095  12.069
 7649W        W79964  20.097  19.653   3.371
 7650W        W79965  36.365  20.093  12.937
 7651W        W79966  43.859  31.566  13.335
 7652W        W79967  20.063  17.610   3.828
 7653W        W79968  28.946   7.276  10.921
 7654W        W79969   8.736  37.374  11.377
 7655W        W79970  29.626  28.173  14.474
 7656W        W79971  23.111  16.175   2.243
 7657W        W79972  44.790  40.472   4.219
 7658W        W79973  33.606  35.494  12.454
 7659W        W79974   2.865   5.331   0.926
 7660W        W79975  10.336  41.415   1.210
 7661W        W79976   7.789  17.257  11.571
 7662W        W79977  11.633  29.457   3.247
 7663W        W79978  25.021   4.796   0.949
 7664W        W79979  26.471   9.648   2.861
 7665W        W79980  14.204  42.781   1.280
 7666W        W79981   8.165   8.203  10.611
 7667W        W79982  21.713  12.120   3.266
 7668W        W79983  34.111  13.314   1.319
 7669W        W79984   5.233  10.177  10.545
 7670W        W79985   8.307   5.707   4.649
 7671W        W79986  23.994  24.712   4.721
 7672W        W79987  20.719  15.096  13.965
 7673W        W79988  20.114  11.696  11.037
 7674W        W79989  14.670  22.208  12.457
 7675W        W79990  27.023  40.547  12.829
 7676W        W79991  28.649  42.007  10.424
 7677W        W79992  19.690  31.015   4.801
 7678W        W79993  16.210  22.741  12.855
 7679W        W79994  26.089  20.540   2.730
 7680W        W79995  26.512  20.635  10.581
 7681W        W79996  10.269  29.482   0.388
 7682W        W79997  41.939  26.061  13.841
 7683W        W79998  16.622   9.808   4.197
 7684W        W79999   5.921  20.160   4.726
 7685W        W80000   2.453  11.314   1.272
 7686W        W80001  21.575   3.382   0.419
 7687W        W80002  26.482  26.598   5.293
 7688W        W80003  40.397  39.318   4.713
 7689W        W80004  14.281  39.916  14.959
 7690W        W80005  23.732   4.430  14.319
 7691W        W80006   5.289   9.675   4.732
 7692W        W80007  20.268  38.986   3.699
 7693W        W80008  42.493  16.804   3.172
 7694W        W80009   5.782  16.213  14.309
 7695W        W80010  15.653  34.088   1.440
 7696W        W80011  17.593  13.115  11.574
 7697W        W80012  22.016   3.311   1.901
 7698W        W80013  38.561  34.465   3.240
 7699W        W80014  29.550   0.757   1.448
 7700W        W80015  28.103  25.547  12.526
 7701W        W80016  43.472  25.672   0.436
 7702W        W80017   6.332  13.653   2.820
 7703W        W80018  21.200  28.510   1.391
 7704W        W80019  39.884  20.530   4.268
 7705W        W80020  13.274  39.351   1.814
 7706W        W80021   4.920  35.049   4.120
 7707W        W80022  14.599   1.450   0.865
 7708W        W80023  20.653  32.418  11.946
 7709W        W80024  42.796  38.061   4.339
 7710W        W80025  16.119  30.132   4.312
 7711W        W80026   8.337  11.775   3.669
 7712W        W80027  13.126   8.320  10.451
 7713W        W80028  42.345  26.556   0.345
 7714W        W80029  28.484  14.235   1.765
 7715W        W80030  43.295  44.004   3.712
 7716W        W80031   9.350  37.928   3.302
 7717W        W80032   1.451  33.963   5.180
 7718W        W80033  25.074  41.433  14.377
 7719W        W80034   4.332  26.542  13.547
 7720W        W80035   4.287  19.658  14.381
 7721W        W80036  24.486  21.709  13.925
 7722W        W80037  28.111  43.354   2.403
 7723W        W80038   9.732  32.909  10.626
 7724W        W80039  26.199  27.947  13.470
 7725W        W80040  26.026  31.448   2.851
 7726W        W80041  23.149  19.725   4.191
 7727W        W80042   1.861  13.260  10.929
 7728W        W80043  42.823  25.646   4.625
 7729W        W80044  39.395  18.151  10.606
 7730W        W80045  31.433  10.673   4.223
 7731W        W80046   0.319   2.839  14.435
 7732W        W80047   0.473  30.629  13.365
 7733W        W80048   7.789   9.804   1.343
 7734W        W80049   9.839   8.226  13.899
 7735W        W80050   4.943   5.827   2.830
 7736W        W80051  41.915   1.807   1.300
 7737W        W80052  38.406   3.284  10.902
 7738W        W80053  25.176  14.783  14.324
 7739W        W80054  30.140  20.154  13.962
 7740W        W80055  21.262  10.212  13.817
 7741W        W80056  11.299  26.703   2.777
 7742W        W80057   3.721  35.984  11.920
 7743W        W80058  16.279  38.988  14.846
 7744W        W80059  21.127  27.517   3.324
 7745W        W80060   8.181  33.502  11.121
 7746W        W80061  43.872  44.457  11.504
 7747W        W80062  26.647  43.421  14.454
 7748W        W80063  29.622  21.677  12.453
 7749W        W80064   3.324  23.538  12.996
 7750W        W80065   3.790  26.513   2.350
 7751W        W80066  17.704  27.527   0.274
 7752W        W80067  28.447  22.741   1.916
 7753W        W80068  23.239  14.748  13.852
 7754W        W80069  36.008   5.264   1.865
 7755W        W80070  28.649   2.934  10.420
 7756W        W80071  43.820  22.570  12.858
 7757W        W80072  27.522  31.030   4.314
 7758W        W80073   3.410  26.664  13.512
 7759W        W80074  33.412  21.722  13.795
 7760W        W80075  17.145  22.126  10.535
 7761W        W80076   6.332  29.463   1.723
 7762W        W80077  23.613  31.553  14.486
 7763W        W80078  28.508  39.422   1.892
 7764W        W80079  10.341  19.253   1.303
 7765W        W80080  16.785  26.558   2.371
 7766W        W80081  31.937   5.899   4.709
 7767W        W80082  28.528  33.523   0.796
 7768W        W80083  16.789   4.215  14.976
 7769W        W80084  12.630  41.979   4.797
 7770W        W80085  21.052  39.995  13.407
 7771W        W80086  26.017  33.448   4.615
 7772W        W80087   5.838  26.050  14.407
 7773W        W80088  24.062  35.393   0.831
 7774W        W80089   1.249  42.516   2.339
 7775W        W80090   7.408   9.838   4.706
 7776W        W80091  32.906  41.405   3.683
 7777W        W80092  40.871  30.098  11.571
 7778W        W80093  14.756   6.401  10.522
 7779W        W80094  14.688   8.384  10.511
 7780W        W80095  14.610  27.666   1.771
 7781W        W80096  17.711  21.154   0.878
 7782W        W80097  37.882  12.206   0.243
 7783W        W80098  38.408  25.068   3.681
 7784W        W80099   7.218  12.212   3.211
 7785W        W80100  33.911   6.391  10.946
 7786W        W80101   4.316  13.746  12.553
 7787W        W80102  19.553  17.129  13.014
 7788W        W80103  36.844   1.276  14.858
 7789W        W80104   6.684  15.670  12.447
 7790W        W80105  32.491   8.345   4.599
 7791W        W80106   2.766  35.504   2.364
 7792W        W80107   1.364   0.278   0.459
 7793W        W80108   1.376   4.934   1.807
 7794W        W80109   1.733  28.467  11.857
 7795W        W80110  23.493  12.183   3.685
 7796W        W80111  23.659  36.383   3.630
 7797W        W80112   1.343  34.032   3.331
 7798W        W80113  11.762  23.559  11.399
 7799W        W80114  42.319   2.833   3.723
 7800W        W80115  31.149  14.641  12.481
 7801W        W80116  13.182  13.603   2.780
 7802W        W80117  18.662  42.935   4.620
 7803W        W80118  32.484   1.889   2.390
 7804W        W80119  43.872   1.321  12.569
 7805W        W80120  10.801  36.438  12.954
 7806W        W80121  39.497   7.296  14.389
 7807W        W80122  34.415  27.667  13.964
 7808W        W80123   6.426  16.285   4.171
 7809W        W80124  11.368  28.932   4.305
 7810W        W80125   3.298  39.915  10.550
 7811W        W80126  37.503  35.447  13.988
 7812W        W80127  21.670   0.928   1.831
 7813W        W80128  21.105  32.476  10.515
 7814W        W80129  31.905  16.216   4.320
 7815W        W80130  42.024  15.645  11.610
 7816W        W80131  16.179  10.317  14.979
 7817W        W80132  15.119  38.359   3.854
 7818W        W80133  42.479   0.947  11.594
 7819W        W80134   5.316  28.524  14.976
 7820W        W80135  23.084  25.016   4.206
 7821W        W80136  44.353  21.737   1.791
 7822W        W80137  13.841  31.049  13.418
 7823W        W80138  37.560   8.708   2.848
 7824W        W80139  31.481  39.400  12.385
 7825W        W80140   8.326  19.044   4.705
 7826W        W80141   3.453   7.768  13.800
 7827W        W80142   7.667  42.015   2.402
 7828W        W80143  35.022  29.533   4.648
 7829W        W80144  38.479  15.759  10.589
 7830W        W80145  23.151  12.701   3.772
 7831W        W80146  29.056  28.182  11.489
 7832W        W80147   9.222  14.268  11.086
 7833W        W80148  21.137   1.855  10.422
 7834W        W80149  27.194  38.906  11.556
 7835W        W80150  31.622  34.594   2.387
 7836W        W80151  31.976  16.265   3.832
 7837W        W80152  32.506  31.990  14.882
 7838W        W80153   8.302   2.867  14.909
 7839W        W80154  32.492  10.215  14.818
 7840W        W80155   5.404   6.341   3.231
 7841W        W80156   3.773  15.234   4.835
 7842W        W80157  43.431  20.087   4.714
 7843W        W80158  17.748  40.531   2.260
 7844W        W80159  20.605  18.686  13.421
 7845W        W80160  17.589  42.499   1.896
 7846W        W80161   2.941  14.831   2.817
 7847W        W80162  39.895  37.929  13.437
 7848W        W80163   8.705  10.380   2.802
 7849W        W80164  44.470  31.525   2.854
 7850W        W80165  30.425  34.864  13.031
 7851W        W80166   0.440  12.741  11.575
 7852W        W80167  33.471  33.011  14.363
 7853W        W80168  25.169  20.029   2.282
 7854W        W80169  24.980  39.397   2.901
 7855W        W80170  41.922   7.709   5.268
 7856W        W80171   0.409  15.292  11.550
 7857W        W80172  11.791  39.937  14.951
 7858W        W80173  43.476  14.681   1.360
 7859W        W80174  12.704  23.139   4.301
 7860W        W80175  13.328  44.274   1.310
 7861W        W80176  29.509   9.309   2.793
 7862W        W80177  15.647  38.379  11.556
 7863W        W80178  24.082  39.957  10.595
 7864W        W80179   1.783  12.313   0.926
 7865W        W80180  13.231  18.068   1.847
 7866W        W80181  32.105  34.038  13.317
 7867W        W80182  41.908  18.064  13.845
 7868W        W80183  32.406  26.495  11.448
 7869W        W80184   4.365  38.469   1.820
 7870W        W80185  39.822  18.065  11.397
 7871W        W80186  31.543  31.096   3.865
 7872W        W80187  14.231  21.700  14.812
 7873W        W80188   4.259  18.657  13.818
 7874W        W80189  11.634  22.081  14.500
 7875W        W80190  34.014   7.706   3.261
 7876W        W80191  22.676  12.679   1.780
 7877W        W80192  36.871  41.510   3.370
 7878W        W80193  32.999  26.115   1.806
 7879W        W80194  19.068   9.380   3.661
 7880W        W80195  13.738   8.256  13.365
 7881W        W80196   3.221   3.417  11.409
 7882W        W80197  36.414  24.655  13.510
 7883W        W80198  15.242  32.471   2.250
 7884W        W80199  28.986  12.238   3.303
 7885W        W80200   4.794   8.369  11.860
 7886W        W80201  15.198  10.859   4.728
 7887W        W80202  28.579  44.979   3.788
 7888W        W80203  44.002  17.618   2.885
 7889W        W80204  44.859  17.222  10.425
 7890W        W80205  36.492  32.560  11.004
 7891W        W80206  27.660  23.029  14.796
 7892W        W80207  36.429  41.799  13.537
 7893W        W80208  22.124  38.835   4.608
 7894W        W80209  16.170  15.243  11.440
 7895W        W80210  22.248  34.577   3.365
 7896W        W80211  25.998  17.569   2.260
 7897W        W80212  16.602  17.599   2.791
 7898W        W80213  14.144  38.952  14.929
 7899W        W80214  43.811  13.668  12.433
 7900W        W80215  39.363  29.455  14.281
 7901W        W80216  26.659   3.446   0.768
 7902W        W80217  36.416   2.722  10.586
 7903W        W80218  36.568  31.542  11.439
 7904W        W80219  38.976  27.183  10.570
 7905W        W80220  17.204   7.182   9.937
 7906W        W80221  26.206  34.406   1.889
 7907W        W80222  22.062  23.531   0.913
 7908W        W80223  23.602   4.924   0.733
 7909W        W80224  32.977  39.522   1.445
 7910W        W80225  31.406  11.190  13.330
 7911W        W80226  22.207  21.537   9.576
 7912W        W80227  20.249  31.981   0.752
 7913W        W80228  22.602  40.388   0.821
 7914W        W80229  38.381  26.689   3.190
 7915W        W80230  41.979   5.839   2.192
 7916W        W80231  43.416   2.285   1.432
 7917W        W80232  21.637  13.233   1.382
 7918W        W80233  14.691  19.170   1.836
 7919W        W80234   1.376  30.585   4.208
 7920W        W80235  18.776   7.784  11.477
 7921W        W80236  18.630  33.587   1.223
 7922W        W80237  15.579   4.758   3.347
 7923W        W80238   5.874  22.684   1.811
 7924W        W80239  10.227   0.414  11.955
 7925W        W80240  22.105   2.324   2.702
 7926W        W80241   0.856  34.962  10.904
 7927W        W80242  20.587  26.086  10.427
 7928W        W80243  19.579  37.460  10.925
 7929W        W80244  20.248  15.153  14.936
 7930W        W80245  13.807  39.426   4.651
 7931W        W80246  12.670  22.689  11.075
 7932W        W80247  22.731   3.867  13.392
 7933W        W80248  38.916  44.936  12.974
 7934W        W80249  12.638  40.848   1.891
 7935W        W80250  25.676  35.931   0.781
 7936W        W80251  34.613  44.287  10.113
 7937W        W80252   2.354  27.094   1.828
 7938W        W80253  44.396  20.535  14.293
 7939W        W80254  42.856  14.232   4.155
 7940W        W80255  30.031  26.477  12.049
 7941W        W80256   6.771  41.819   2.782
 7942W        W80257  19.677  18.677  12.056
 7943W        W80258   2.316  21.209   1.320
 7944W        W80259  18.761  32.142   1.721
 7945W        W80260  10.795  37.453  12.899
 7946W        W80261  26.500  29.477  12.473
 7947W        W80262   6.305  15.817   5.248
 7948W        W80263  39.925  16.131  14.799
 7949W        W80264  35.009  13.154   1.280
 7950W        W80265  24.599  31.415  10.945
 7951W        W80266  35.994  27.182   4.728
 7952W        W80267  42.296  34.402  14.817
 7953W        W80268   6.726  21.161  12.475
 7954W        W80269  32.999  35.501   4.340
 7955W        W80270  26.607  10.263   5.306
 7956W        W80271  30.074   1.927   2.893
 7957W        W80272  25.511  19.176   1.447
 7958W        W80273  16.137  17.649   3.707
 7959W        W80274   9.677   1.935  11.881
 7960W        W80275  11.666  41.460  14.433
 7961W        W80276  41.858  22.727  10.499
 7962W        W80277  38.451  15.308   1.808
 7963W        W80278   2.373  17.130  14.788
 7964W        W80279   6.825  43.514   2.400
 7965W        W80280  19.077  18.074   4.240
 7966W        W80281  27.127  28.036   4.687
 7967W        W80282  42.010  18.204  14.850
 7968W        W80283  25.515  39.932   2.743
 7969W        W80284   3.317  36.955   2.737
 7970W        W80285  13.782   0.263  11.988
 7971W        W80286   1.871   7.679   3.677
 7972W        W80287  43.326  41.944  12.512
 7973W        W80288  32.052  21.240  10.630
 7974W        W80289  26.003  12.756  14.412
 7975W        W80290  36.861  18.295   4.770
 7976W        W80291  40.942   5.689  12.853
 7977W        W80292  19.630   1.403  11.889
 7978W        W80293  25.622  30.569  13.974
 7979W        W80294  22.535  42.808  14.514
 7980W        W80295  27.499  41.350  14.889
 7981W        W80296  39.422  24.665   1.738
 7982W        W80297  38.043  15.088   1.751
 7983W        W80298  16.667   9.195  11.898
 7984W        W80299  15.594  43.919  14.356
 7985W        W80300  38.517  18.051   0.410
 7986W        W80301   3.870  34.058   3.346
 7987W        W80302  21.063  12.695  10.576
 7988W        W80303  29.578   1.429   3.769
 7989W        W80304  37.972  26.662   2.835
 7990W        W80305  18.292  20.616  12.844
 7991W        W80306   4.233  31.974  13.989
 7992W        W80307  18.783  23.193   2.757
 7993W        W80308  32.515  40.471   0.875
 7994W        W80309  10.370  12.672  13.498
 7995W        W80310  14.142  41.390   4.772
 7996W        W80311  14.604  36.906   2.668
 7997W        W80312  32.577  39.453  13.319
 7998W        W80313  26.536  10.156  11.961
 7999W        W80314  38.916   3.929   2.306
 8000W        W80315  23.543  30.150   0.900
 8001W        W80316  29.448  13.274  12.576
 8002W        W80317  42.336  27.510  10.457
 8003W        W80318  40.020  13.790   0.777
 8004W        W80319  17.628  23.019   4.289
 8005W        W80320  21.536  22.717  11.451
 8006W        W80321  42.823   6.256  11.427
 8007W        W80322  42.930  11.700   2.689
 8008W        W80323  24.721  40.923  14.359
 8009W        W80324  26.207  37.424   3.788
 8010W        W80325  44.973  44.441  12.443
 8011W        W80326  16.654  43.455  12.836
 8012W        W80327  11.263  26.543  14.875
 8013W        W80328   5.303  31.534  10.954
 8014W        W80329  23.118  15.248   1.889
 8015W        W80330   3.941  30.501   3.636
 8016W        W80331  33.430  31.075  12.877
 8017W        W80332   6.683   9.348   4.738
 8018W        W80333  43.458  33.002  13.989
 8019W        W80334   7.810  20.043   1.869
 8020W        W80335  23.192  23.241  10.011
 8021W        W80336  30.511  28.172  12.499
 8022W        W80337  34.111  23.213  10.547
 8023W        W80338  44.445   5.194   2.731
 8024W        W80339  21.263  41.857   1.700
 8025W        W80340  43.768   5.690   4.199
 8026W        W80341   5.425  14.143  13.844
 8027W        W80342  42.801  36.377   1.815
 8028W        W80343   2.790   6.193  14.758
 8029W        W80344   5.284  11.786   0.821
 8030W        W80345  27.467   2.259   0.441
 8031W        W80346   2.340  14.614   0.307
 8032W        W80347  33.071  44.916  13.488
 8033W        W80348  20.646  21.626  12.886
 8034W        W80349   6.713  33.057   3.844
 8035W        W80350  38.070   9.237  12.343
 8036W        W80351   3.284  24.169   3.274
 8037W        W80352  15.802  37.051  13.900
 8038W        W80353  39.433  19.774  11.402
 8039W        W80354  19.728  15.230   0.332
 8040W        W80355  44.441  23.712  12.986
 8041W        W80356  11.269  11.251   1.293
 8042W        W80357  42.315  10.234   2.808
 8043W        W80358  10.223   2.316   2.187
 8044W        W80359  43.468  20.191  11.994
 8045W        W80360  41.359  41.921   3.165
 8046W        W80361  10.861  10.358  11.584
 8047W        W80362  18.160  33.553   1.338
 8048W        W80363  29.956   9.372  11.375
 8049W        W80364   6.299   8.810  14.843
 8050W        W80365  42.481  18.649  13.801
 8051W        W80366  33.519  40.962  13.355
 8052W        W80367  12.787  40.404   4.354
 8053W        W80368  26.077  42.005  11.973
 8054W        W80369  17.117  24.221   3.822
 8055W        W80370   1.463  35.968  11.956
 8056W        W80371  35.391   6.197  12.979
 8057W        W80372  24.178  25.639   1.405
 8058W        W80373  28.618   5.819   9.473
 8059W        W80374   4.441  24.003   2.851
 8060W        W80375  28.441  38.493   3.853
 8061W        W80376  33.445  13.663  13.310
 8062W        W80377   4.384  11.295  14.453
 8063W        W80378  20.115   4.284  12.076
 8064W        W80379  38.956  25.015   1.424
 8065W        W80380  11.188  40.021   1.285
 8066W        W80381   8.183  38.343   3.352
 8067W        W80382  24.981  41.884  14.794
 8068W        W80383  36.437  35.451  13.993
 8069W        W80384  22.504  16.136   1.779
 8070W        W80385  20.539  31.102  13.860
 8071W        W80386  14.638  28.094  14.330
 8072W        W80387  21.733  34.995  11.451
 8073W        W80388  14.113  12.838   3.851
 8074W        W80389  24.003  16.236  12.964
 8075W        W80390  30.629  27.587   0.281
 8076W        W80391   2.294   0.395   1.832
 8077W        W80392  38.484  28.663   2.822
 8078W        W80393  20.721  14.590  12.572
 8079W        W80394  15.178  33.538   2.683
 8080W        W80395  36.060  27.031   1.304
 8081W        W80396  17.702   5.926   2.855
 8082W        W80397  31.556  33.473   3.166
 8083W        W80398  26.976  36.052   5.262
 8084W        W80399  13.800  42.014   4.609
 8085W        W80400  20.148   0.411   1.843
 8086W        W80401  38.875  28.438   3.320
 8087W        W80402  33.429  21.736  13.041
 8088W        W80403  28.078  26.470   3.300
 8089W        W80404  10.643  10.663  10.563
 8090W        W80405   3.785  40.878   1.901
 8091W        W80406  15.600  30.524  14.841
 8092W        W80407  17.756   4.385   3.235
 8093W        W80408  17.242  12.792  12.914
 8094W        W80409  44.329   2.866   4.171
 8095W        W80410   7.255   2.763   1.369
 8096W        W80411   1.358  37.992   3.683
 8097W        W80412  10.304  40.407   3.714
 8098W        W80413   3.296  38.465   0.435
 8099W        W80414  26.590  26.022   4.823
 8100W        W80415  29.459  44.809   3.735
 8101W        W80416   0.811  14.306  12.449
 8102W        W80417  12.832   0.373   3.353
 8103W        W80418  43.774  13.625  11.864
 8104W        W80419   5.382  39.966   4.197
 8105W        W80420   9.863   7.667   4.353
 8106W        W80421  10.765  43.442  13.894
 8107W        W80422  31.109  36.068  12.823
 8108W        W80423  30.526  24.698  14.492
 8109W        W80424  20.216  37.021   2.361
 8110W        W80425  43.278   4.301  11.546
 8111W        W80426  37.466  32.492   4.752
 8112W        W80427   6.381  33.088   4.716
 8113W        W80428  10.870  35.033   1.751
 8114W        W80429  14.760  37.926  14.353
 8115W        W80430  27.575  24.713  11.962
 8116W        W80431  28.181  42.793   1.245
 8117W        W80432  28.444   5.304   5.225
 8118W        W80433   7.394  33.576  14.386
 8119W        W80434  26.122  28.623   3.778
 8120W        W80435  44.315   8.316  14.790
 8121W        W80436   5.279  19.148  11.511
 8122W        W80437   5.898  11.788   0.849
 8123W        W80438  20.244  40.997  11.011
 8124W        W80439  34.911  30.930   2.327
 8125W        W80440  42.459  15.637   4.707
 8126W        W80441  17.630   1.880  11.551
 8127W        W80442  14.629   6.791  12.004
 8128W        W80443  11.245  10.355  12.494
 8129W        W80444  13.313  26.000   2.881
 8130W        W80445  39.866  14.659  10.494
 8131W        W80446  38.542  17.169   2.684
 8132W        W80447  17.728  10.790  14.392
 8133W        W80448   8.167   5.885  12.988
 8134W        W80449  15.610   7.865  12.450
 8135W        W80450   0.808  10.877  11.408
 8136W        W80451  12.137  40.443  14.965
 8137W        W80452  18.613  34.597   0.384
 8138W        W80453  43.817  33.585  14.946
 8139W        W80454   4.317  30.607  11.020
 8140W        W80455  43.335  42.901   0.342
 8141W        W80456  27.004  43.442  13.853
 8142W        W80457  23.588  32.930   2.254
 8143W        W80458   6.847  41.859   2.254
 8144W        W80459  18.671  34.457  11.013
 8145W        W80460  25.070  21.552   0.775
 8146W        W80461  44.285  10.325  13.026
 8147W        W80462  19.749  27.986   3.359
 8148W        W80463   5.340   4.702  13.924
 8149W        W80464  29.011   4.709  12.939
 8150W        W80465  17.653  31.129   2.902
 8151W        W80466   6.788  20.228  11.989
 8152W        W80467  39.521  25.701  13.506
 8153W        W80468  40.307  22.679  14.395
 8154W        W80469  42.015  18.116   4.326
 8155W        W80470   3.252  23.988   1.357
 8156W        W80471  41.028  14.749  13.380
 8157W        W80472  22.724  38.902  11.558
 8158W        W80473   5.892  22.702  13.877
 8159W        W80474  35.544  37.940  11.374
 8160W        W80475  27.658  30.652   3.363
 8161W        W80476  42.408  31.997   0.911
 8162W        W80477  13.709  19.686   0.805
 8163W        W80478  33.477  26.196  12.442
 8164W        W80479  30.416  32.138  11.969
 8165W        W80480  31.534  25.686  11.374
 8166W        W80481  19.106   3.447  14.887
 8167W        W80482  16.145  17.745   0.405
 8168W        W80483  31.036  20.214  13.438
 8169W        W80484  36.997   5.260  10.966
 8170W        W80485  34.903  31.063  11.882
 8171W        W80486  40.331  24.000  11.920
 8172W        W80487  15.774  35.450  10.507
 8173W        W80488  11.241   7.242  12.056
 8174W        W80489  40.392   9.809   1.887
 8175W        W80490  44.890   8.687   0.386
 8176W        W80491  18.734   5.868  12.073
 8177W        W80492  31.947  10.822  13.493
 8178W        W80493  35.047  35.970  11.580
 8179W        W80494  17.098   7.310  14.428
 8180W        W80495  32.986   7.857   0.766
 8181W        W80496  13.651  35.853  12.348
 8182W        W80497  30.643  40.953   0.475
 8183W        W80498  24.511   0.797   4.686
 8184W        W80499  31.610  24.182  14.365
 8185W        W80500  31.903  43.987  10.120
 8186W        W80501  18.078   2.436  13.041
 8187W        W80502  21.093  30.992  12.927
 8188W        W80503  44.498  12.140  14.280
 8189W        W80504   2.427  21.062   4.658
 8190W        W80505  19.166  42.378   3.748
 8191W        W80506  21.602  44.956   2.409
 8192W        W80507   2.762   9.335  11.598
 8193W        W80508  41.857   0.917   2.830
 8194W        W80509  39.317  31.139  13.342
 8195W        W80510   4.790  29.955  12.502
 8196W        W80511  17.212  12.149   4.709
 8197W        W80512  11.790  30.980  12.953
 8198W        W80513   7.196  40.845  11.504
 8199W        W80514   3.787   0.382  11.922
 8200W        W80515  21.682  27.086  12.066
 8201W        W80516   6.252  24.661  11.908
 8202W        W80517  30.565  18.738   4.239
 8203W        W80518   4.395  20.533   4.354
 8204W        W80519  28.653  18.756  13.523
 8205W        W80520   0.264   7.402  13.833
 8206W        W80521  42.517  28.563   0.802
 8207W        W80522   2.729  22.679   2.888
 8208W        W80523  41.488  16.130   0.756
 8209W        W80524   8.789  39.550  11.466
 8210W        W80525  15.816  14.237  11.379
 8211W        W80526  34.096   4.857   0.275
 8212W        W80527  10.274  41.527  12.408
 8213W        W80528   9.851  24.111  14.913
 8214W        W80529  15.750   4.264   3.387
 8215W        W80530  33.072  20.746   1.697
 8216W        W80531  21.651  10.648   0.330
 8217W        W80532   6.321  38.543  14.451
 8218W        W80533  36.522  14.679   1.387
 8219W        W80534  27.600  34.507  10.972
 8220W        W80535  15.664   7.824   2.871
 8221W        W80536  10.203  12.611   3.768
 8222W        W80537  39.031  33.988   4.200
 8223W        W80538   7.364  17.638  11.377
 8224W        W80539  18.708  22.139  12.059
 8225W        W80540   7.770  16.135  12.454
 8226W        W80541   8.247  39.507   2.898
 8227W        W80542   2.464  32.987  14.287
 8228W        W80543  25.195  20.733   1.421
 8229W        W80544  29.498  35.509   1.768
 8230W        W80545   9.351  18.222   3.688
 8231W        W80546  32.516  23.114  13.394
 8232W        W80547  42.519  41.487  10.640
 8233W        W80548  31.589  30.122   2.335
 8234W        W80549  19.742  12.679   4.201
 8235W        W80550   8.372  42.317   2.326
 8236W        W80551   9.284  37.915  12.389
 8237W        W80552  30.030   7.254  10.942
 8238W        W80553  41.535  16.693   0.420
 8239W        W80554  27.509  17.241  14.505
 8240W        W80555   2.355   9.807  12.404
 8241W        W80556   1.461   3.341  12.501
 8242W        W80557   1.444  17.671  12.875
 8243W        W80558  24.214  15.656   4.796
 8244W        W80559  22.044  44.766   0.415
 8245W        W80560   6.340   8.394   0.907
 8246W        W80561  39.514  27.168  11.596
 8247W        W80562   8.725   5.743   1.860
 8248W        W80563  29.025  15.217  13.943
 8249W        W80564  12.786  35.961  14.340
 8250W        W80565  19.717  38.040  10.406
 8251W        W80566  37.500  44.332   4.238
 8252W        W80567  28.466  22.017  10.576
 8253W        W80568  29.029  10.231   9.933
 8254W        W80569  26.955  12.831  14.405
 8255W        W80570  22.744  34.955  10.487
 8256W        W80571  30.621   4.733  12.015
 8257W        W80572   8.864   6.771   0.314
 8258W        W80573  15.167  39.829  12.409
 8259W        W80574  30.476  12.335   4.122
 8260W        W80575  27.661  40.022   3.786
 8261W        W80576  35.098  44.482  12.090
 8262W        W80577   9.750  16.145   0.956
 8263W        W80578  42.937  14.608   2.266
 8264W        W80579  41.968  30.134  12.009
 8265W        W80580  21.552  21.576  12.482
 8266W        W80581  30.447  11.703   2.245
 8267W        W80582   0.252  41.466  13.446
 8268W        W80583  36.941  15.103  10.426
 8269W        W80584  34.871   0.483   3.667
 8270W        W80585  43.885  42.335  14.812
 8271W        W80586  18.217  10.873   1.451
 8272W        W80587  35.935  23.212   3.730
 8273W        W80588  17.735  24.690   1.408
 8274W        W80589  24.651  11.361  12.912
 8275W        W80590   7.384   3.833  10.893
 8276W        W80591  36.575  35.047  12.041
 8277W        W80592   8.800  26.096  10.419
 8278W        W80593  17.666  44.792  10.628
 8279W        W80594  34.934  19.572  10.553
 8280W        W80595  30.917   5.243  11.954
 8281W        W80596  16.086  29.135  13.925
 8282W        W80597  28.145  15.112   0.866
 8283W        W80598  42.875  29.964   4.128
 8284W        W80599  24.028  43.318  14.912
 8285W        W80600  39.862  32.604   0.292
 8286W        W80601  38.398   2.336  13.462
 8287W        W80602  23.636  10.145  10.894
 8288W        W80603   6.907  12.815   2.732
 8289W        W80604  30.104  20.166  11.424
 8290W        W80605  36.041  16.638   4.668
 8291W        W80606  41.999  22.708  14.758
 8292W        W80607  40.858  40.324   0.917
 8293W        W80608  11.639   9.154   4.141
 8294W        W80609  41.941  11.244  14.345
 8295W        W80610  37.423   3.712   3.840
 8296W        W80611  16.307   6.288  13.547
 8297W        W80612  15.581  39.363   4.768
 8298W        W80613  36.416  38.437   0.329
 8299W        W80614  27.033  30.577  12.002
 8300W        W80615  28.559   8.173  12.043
 8301W        W80616  38.415  25.015   0.902
 8302W        W80617  32.971  36.387   0.372
 8303W        W80618  28.154  39.015   3.293
 8304W        W80619  32.017   3.782  12.979
 8305W        W80620  22.561  32.948   0.822
 8306W        W80621  44.384  41.986  11.876
 8307W        W80622  13.343  11.230  10.534
 8308W        W80623   0.317   7.188  11.466
 8309W        W80624  16.081  40.503   0.348
 8310W        W80625  25.707   3.456  14.867
 8311W        W80626  28.486  12.349  13.461
 8312W        W80627  36.061  26.597  11.418
 8313W        W80628  34.943   4.932   3.366
 8314W        W80629  25.496  24.132  14.914
 8315W        W80630  36.993  15.589   1.262
 8316W        W80631  14.172  18.236  12.367
 8317W        W80632  27.165  22.512  11.100
 8318W        W80633  33.986  39.507   0.440
 8319W        W80634  35.469  41.796  12.035
 8320W        W80635   0.333  42.455   3.301
 8321W        W80636  38.518  34.863   1.255
 8322W        W80637  28.584  13.199  11.412
 8323W        W80638  37.389  23.582   4.286
 8324W        W80639  38.380  44.299  12.403
 8325W        W80640  38.973   9.841  13.329
 8326W        W80641   1.855  12.712   3.695
 8327W        W80642  32.961   0.926  13.530
 8328W        W80643  29.462  22.183   4.659
 8329W        W80644  25.216  18.179  11.609
 8330W        W80645  27.178  24.551  13.466
 8331W        W80646  39.399  42.466   1.904
 8332W        W80647  35.450  30.048  10.959
 8333W        W80648  38.061  29.435  13.371
 8334W        W80649  42.285  41.478  12.490
 8335W        W80650  12.754   3.818  14.342
 8336W        W80651  12.357  29.473  14.509
 8337W        W80652  37.896  30.476   0.921
 8338W        W80653  33.506  36.561  11.885
 8339W        W80654  41.825   5.421   2.689
 8340W        W80655  35.504  11.782  10.549
 8341W        W80656  23.645  42.397   0.810
 8342W        W80657   3.327   2.471  13.866
 8343W        W80658  35.494  22.708   3.322
 8344W        W80659   2.365   1.832   3.825
 8345W        W80660  20.152  15.252   2.774
 8346W        W80661  15.159  13.684  10.430
 8347W        W80662   7.338  19.243   2.837
 8348W        W80663  24.018  20.184  13.023
 8349W        W80664  25.694  19.562   0.936
 8350W        W80665  35.444  18.776   1.409
 8351W        W80666   9.775  31.923   1.833
 8352W        W80667   0.912   5.846  14.487
 8353W        W80668   4.871  18.666   1.772
 8354W        W80669   8.244  23.191   0.786
 8355W        W80670  11.187  42.301  11.517
 8356W        W80671   6.894   0.404   3.376
 8357W        W80672   7.260   7.806  13.497
 8358W        W80673  32.516  13.691   3.226
 8359W        W80674  40.960  35.603  13.842
 8360W        W80675  28.442  20.688  10.615
 8361W        W80676  42.969  15.690   0.363
 8362W        W80677  14.745  37.531  12.349
 8363W        W80678  15.750   0.982  11.612
 8364W        W80679  13.313  43.891  10.458
 8365W        W80680   2.810  35.431  10.907
 8366W        W80681  15.106  36.935   3.867
 8367W        W80682  30.004   4.776  12.467
 8368W        W80683  10.237  25.084  12.386
 8369W        W80684  39.060   1.766  11.906
 8370W        W80685  25.644  29.128   1.911
 8371W        W80686  22.091   4.718  13.976
 8372W        W80687  16.096  24.516  13.956
 8373W        W80688  14.205  39.455  11.873
 8374W        W80689  10.193  17.219  11.507
 8375W        W80690  30.958  39.537   1.285
 8376W        W80691  35.552  30.079   4.759
 8377W        W80692  18.719  20.723   0.904
 8378W        W80693  38.519  18.073   2.675
 8379W        W80694   0.351  32.014   2.748
 8380W        W80695   6.420  31.142  10.948
 8381W        W80696  35.500   0.361   4.333
 8382W        W80697  23.033  36.997   0.842
 8383W        W80698   0.389  12.195   0.310
 8384W        W80699  44.803  14.107   0.789
 8385W        W80700  39.977  35.365  11.913
 8386W        W80701  41.327  30.043  14.322
 8387W        W80702   6.385  31.473  13.928
 8388W        W80703   5.390   1.899  14.359
 8389W        W80704  25.505  17.144  10.891
 8390W        W80705  33.488  30.115  11.087
 8391W        W80706  32.452  39.833   1.406
 8392W        W80707  11.646   1.796   0.467
 8393W        W80708  27.534  42.988   2.297
 8394W        W80709  19.660   2.937  14.358
 8395W        W80710  19.285  20.673  14.883
 8396W        W80711  24.054   5.301   0.832
 8397W        W80712  38.003   9.163   1.370
 8398W        W80713  44.941  25.192  12.853
 8399W        W80714  39.034  16.745   2.389
 8400W        W80715   2.438  26.951  11.596
 8401W        W80716   3.826  16.135   3.340
 8402W        W80717  14.657   1.443   2.838
 8403W        W80718   4.751  37.393   5.115
 8404W        W80719  23.540  27.027   1.801
 8405W        W80720  23.168   1.824   1.351
 8406W        W80721  29.174  16.762   1.796
 8407W        W80722  10.773  23.530   3.219
 8408W        W80723  34.424  41.526  13.346
 8409W        W80724  37.974  29.980  11.560
 8410W        W80725  44.975   8.781   3.364
 8411W        W80726  29.988   2.239  13.391
 8412W        W80727  14.596  29.175  10.607
 8413W        W80728   6.313  10.809  14.289
 8414W        W80729  32.595  37.534   1.880
 8415W        W80730  10.740  31.906  11.530
 8416W        W80731   0.300  12.673   3.805
 8417W        W80732   7.288  28.169  13.911
 8418W        W80733  21.653  15.680   0.805
 8419W        W80734  17.799  14.332   0.269
 8420W        W80735  32.063  13.205   1.897
 8421W        W80736   0.450   7.851  13.440
 8422W        W80737   9.223  29.109   3.787
 8423W        W80738  22.649  22.566  10.925
 8424W        W80739   2.841  13.745  13.889
 8425W        W80740  32.433  32.938  11.410
 8426W        W80741   2.435  25.073  11.584
 8427W        W80742  18.231  23.997   1.381
 8428W        W80743  22.243   1.929  12.982
 8429W        W80744  43.355  22.247  14.392
 8430W        W80745  17.768  25.498  14.786
 8431W        W80746  40.950   9.694   3.167
 8432W        W80747  20.608  43.413   4.696
 8433W        W80748  11.258  43.929   3.852
 8434W        W80749  29.156  38.367  13.388
 8435W        W80750  25.134  26.566   0.823
 8436W        W80751  14.634  44.919  11.111
 8437W        W80752  34.593   4.738  14.898
 8438W        W80753  29.596  10.143  10.015
 8439W        W80754  30.579  43.909   1.878
 8440W        W80755   8.248  25.607   1.832
 8441W        W80756  33.911  12.302  12.064
 8442W        W80757  26.116  36.400   4.732
 8443W        W80758  39.394  24.665  10.988
 8444W        W80759  39.945  29.021   2.290
 8445W        W80760  30.445  42.358   4.768
 8446W        W80761  12.195   0.788   0.453
 8447W        W80762  41.508  28.604  12.420
 8448W        W80763  42.352  36.566  11.575
 8449W        W80764   3.441   7.312  10.033
 8450W        W80765   6.285  11.226  13.891
 8451W        W80766  15.221   1.879  11.995
 8452W        W80767  37.893  10.661   1.340
 8453W        W80768  41.429  33.070  11.883
 8454W        W80769  10.222  37.355  10.532
 8455W        W80770   7.668  37.534   2.802
 8456W        W80771  42.904  35.956  11.025
 8457W        W80772  23.714  33.573  11.100
 8458W        W80773  38.892  34.567  13.400
 8459W        W80774  14.676  38.511   4.635
 8460W        W80775  38.481  20.680  11.591
 8461W        W80776  18.096  39.983  14.370
 8462W        W80777  22.103  13.297  13.530
 8463W        W80778   8.815   6.848   0.798
 8464W        W80779  13.204  11.181  14.012
 8465W        W80780   2.409  19.109  12.880
 8466W        W80781  14.272  26.478  11.548
 8467W        W80782  44.389  22.108   4.730
 8468W        W80783  37.431  17.223  11.123
 8469W        W80784   7.694  14.726   4.763
 8470W        W80785  14.126  22.060   0.465
 8471W        W80786  17.720   8.404  12.892
 8472W        W80787  25.506  20.566   2.206
 8473W        W80788  30.497  36.919   3.207
 8474W        W80789   6.375  17.678  11.874
 8475W        W80790  20.243   8.664   5.580
 8476W        W80791  38.824  16.804   4.253
 8477W        W80792   5.818  28.640   0.420
 8478W        W80793  40.316  30.912   0.302
 8479W        W80794  26.984  40.495  13.354
 8480W        W80795  29.551  16.108  11.889
 8481W        W80796  17.633   6.792  12.095
 8482W        W80797   4.749  16.784  13.977
 8483W        W80798  10.860  28.185  12.976
 8484W        W80799   5.360  43.990  13.796
 8485W        W80800   4.270  39.814  13.422
 8486W        W80801  19.116  23.593  12.483
 8487W        W80802  21.709  14.632   3.309
 8488W        W80803  31.962   5.309   2.401
 8489W        W80804  16.652   2.849  11.911
 8490W        W80805  21.517  15.589   1.371
 8491W        W80806  44.271  38.391  14.309
 8492W        W80807  24.103  31.017  12.456
 8493W        W80808  36.041  41.521   2.792
 8494W        W80809  29.621   6.702  10.490
 8495W        W80810  32.894   6.784   0.957
 8496W        W80811   3.868  37.527   2.832
 8497W        W80812  10.812  12.637   4.615
 8498W        W80813  34.951  14.304   2.385
 8499W        W80814   6.420  36.908   0.816
 8500W        W80815  16.307  42.805  10.638
 8501W        W80816  18.768   1.796   0.916
 8502W        W80817   5.765  24.137   2.785
 8503W        W80818  14.116   7.848  14.446
 8504W        W80819   0.251   6.821   3.848
 8505W        W80820   0.887  10.324  14.901
 8506W        W80821  27.004  21.077  10.511
 8507W        W80822  31.936  39.859   1.819
 8508W        W80823   0.866  19.737  11.467
 8509W        W80824  12.689  12.726   2.317
 8510W        W80825  40.964  25.139   5.260
 8511W        W80826  26.594   6.405   5.165
 8512W        W80827  18.604  13.203   0.768
 8513W        W80828  20.631  19.669  11.948
 8514W        W80829  26.963  18.050   2.283
 8515W        W80830  13.294   8.376  14.460
 8516W        W80831  35.384  14.594   4.166
 8517W        W80832  38.935   4.223  10.553
 8518W        W80833  44.417  10.780   4.157
 8519W        W80834  15.608  10.371  10.476
 8520W        W80835   8.791  15.137   2.389
 8521W        W80836  41.356  41.488  14.763
 8522W        W80837  43.949  31.099  11.498
 8523W        W80838  22.730  40.862   4.256
 8524W        W80839   9.888  37.055  11.102
 8525W        W80840  24.207  11.317   3.157
 8526W        W80841  38.039  27.475   2.285
 8527W        W80842  20.601  14.209  13.913
 8528W        W80843  37.837  43.946  11.083
 8529W        W80844  25.153  18.263  10.570
 8530W        W80845   9.672  43.348   0.817
 8531W        W80846  20.092  19.775   2.863
 8532W        W80847   5.422  24.155  14.372
 8533W        W80848  15.817   7.765   1.900
 8534W        W80849   8.350  39.349   0.398
 8535W        W80850  37.492  36.497  13.357
 8536W        W80851  15.109   1.341   2.201
 8537W        W80852  25.576  42.028   0.346
 8538W        W80853  31.567  40.329  12.548
 8539W        W80854   3.854  42.847  14.879
 8540W        W80855  19.620  17.287   2.748
 8541W        W80856   3.768  34.486   0.421
 8542W        W80857  31.554   8.207  11.412
 8543W        W80858   2.863  15.803  11.478
 8544W        W80859  12.282   2.919   2.899
 8545W        W80860  10.147  34.104  13.052
 8546W        W80861   5.402  11.319   1.729
 8547W        W80862  34.576  32.121  14.316
 8548W        W80863  24.994   3.715  11.120
 8549W        W80864  32.124   2.952   3.827
 8550W        W80865  19.714  37.023  10.903
 8551W        W80866  14.149  17.144  12.081
 8552W        W80867   7.674  44.927   2.701
 8553W        W80868  43.853  32.945   3.358
 8554W        W80869  14.176   1.318   3.262
 8555W        W80870   6.724  23.575  13.872
 8556W        W80871  35.941  36.403   1.288
 8557W        W80872  41.464   5.926   2.376
 8558W        W80873  39.483  16.596  13.514
 8559W        W80874   7.723  44.777  11.018
 8560W        W80875  38.349   0.784  14.980
 8561W        W80876  27.467  20.132   4.803
 8562W        W80877  16.113   2.908  11.458
 8563W        W80878   4.862  38.970   2.749
 8564W        W80879  37.432  16.679  12.471
 8565W        W80880   1.354  37.517   0.804
 8566W        W80881  37.430  29.059   2.867
 8567W        W80882  39.427  37.346  13.396
 8568W        W80883  19.271   1.307   2.867
 8569W        W80884   8.706  36.913  11.955
 8570W        W80885   7.808  11.248  13.503
 8571W        W80886  21.682  17.302   4.613
 8572W        W80887   4.710  17.109   4.780
 8573W        W80888  29.601  31.056   4.838
 8574W        W80889  25.603  26.995   0.397
 8575W        W80890   8.197  34.453   1.796
 8576W        W80891  43.508  14.824   3.322
 8577W        W80892  40.305   1.361  12.390
 8578W        W80893  41.887   3.443   2.285
 8579W        W80894  11.235  17.663  10.028
 8580W        W80895  23.011  24.096  12.928
 8581W        W80896  13.180  33.447  11.506
 8582W        W80897  11.801   6.778  14.294
 8583W        W80898  14.632  16.606  13.810
 8584W        W80899  19.108  17.776   3.745
 8585W        W80900   7.778  34.465   1.327
 8586W        W80901  10.693  31.075  14.930
 8587W        W80902  31.944  37.459   0.342
 8588W        W80903  18.753  14.769   4.248
 8589W        W80904  22.085   5.755  11.898
 8590W        W80905   4.379  44.485  11.055
 8591W        W80906  22.541  41.920   1.898
 8592W        W80907  36.428  33.437   4.597
 8593W        W80908   8.174  10.651   0.413
 8594W        W80909  41.525  22.666   2.684
 8595W        W80910   6.791  43.306   4.625
 8596W        W80911  44.447  24.993  10.141
 8597W        W80912   5.853  36.954   3.812
 8598W        W80913  23.516  32.599   4.783
 8599W        W80914  28.135  33.976  11.975
 8600W        W80915  18.136  33.120   1.429
 8601W        W80916  22.133   7.210  13.853
 8602W        W80917  28.499  43.841   2.202
 8603W        W80918  36.875  31.426   4.614
 8604W        W80919  23.225  18.617  10.109
 8605W        W80920   7.827   8.675   1.423
 8606W        W80921  40.914  43.943  14.794
 8607W        W80922  21.529  18.198   3.633
 8608W        W80923  13.747   0.382  14.796
 8609W        W80924   2.427   4.929   1.894
 8610W        W80925  37.053  43.400  10.906
 8611W        W80926  32.564  36.516   1.779
 8612W        W80927  33.978   0.847  13.385
 8613W        W80928   6.817   6.320  13.963
 8614W        W80929  39.382  43.509   1.231
 8615W        W80930   3.279   8.277   3.231
 8616W        W80931  12.689  12.120  14.499
 8617W        W80932  24.598  10.247   0.284
 8618W        W80933  40.469  41.418   3.678
 8619W        W80934  13.805  11.297  13.435
 8620W        W80935  41.457  26.972  14.879
 8621W        W80936   6.391  13.323  11.999
 8622W        W80937   0.766  12.322   1.724
 8623W        W80938  19.144  12.699   3.847
 8624W        W80939   4.926  12.745   2.334
 8625W        W80940  31.975  17.139  14.991
 8626W        W80941  13.751  40.303  14.881
 8627W        W80942   3.338  17.658   4.695
 8628W        W80943   8.789  18.665   9.957
 8629W        W80944  24.157   3.398   3.345
 8630W        W80945  42.414   6.295   2.751
 8631W        W80946  21.545  41.454  11.088
 8632W        W80947  11.253   1.761  13.038
 8633W        W80948  14.331  36.566  14.022
 8634W        W80949  16.128  30.068   1.845
 8635W        W80950  13.128  27.582   3.293
 8636W        W80951  34.370  37.845  13.547
 8637W        W80952  39.938  17.212   2.356
 8638W        W80953  29.062  43.306  13.001
 8639W        W80954  31.048  44.369   4.618
 8640W        W80955   9.345  37.380   1.802
 8641W        W80956  35.512  34.457   0.307
 8642W        W80957  26.044  21.697  10.928
 8643W        W80958  23.492  25.059   3.691
 8644W        W80959  13.330  29.997   2.813
 8645W        W80960  14.176   2.748   2.313
 8646W        W80961  38.374  27.542  13.993
 8647W        W80962  19.656  40.995  13.001
 8648W        W80963  35.451   3.822   3.305
 8649W        W80964  39.360  28.660  14.811
 8650W        W80965  40.442  31.138  13.450
 8651W        W80966  35.507  20.172   1.368
 8652W        W80967  44.456  15.764   2.889
 8653W        W80968   7.740  24.540  12.394
 8654W        W80969  24.713  22.158   4.350
 8655W        W80970  25.498   6.398   2.315
 8656W        W80971  20.220   0.931   1.881
 8657W        W80972  12.746   2.422  12.362
 8658W        W80973  21.758  32.074   0.862
 8659W        W80974  40.960  35.447   1.415
 8660W        W80975  35.051  32.477  13.336
 8661W        W80976  26.056  42.988   3.266
 8662W        W80977   8.212  25.201   0.946
 8663W        W80978  33.119  40.468  12.548
 8664W        W80979   2.470  41.932   0.364
 8665W        W80980   1.320  13.817   2.794
 8666W        W80981  26.701  31.504   1.248
 8667W        W80982   2.829  28.014   3.848
 8668W        W80983   2.296  40.870   0.865
 8669W        W80984  36.975   4.928  11.417
 8670W        W80985  39.842  24.124   3.176
 8671W        W80986  23.167  40.041   0.355
 8672W        W80987  21.098  35.880  12.421
 8673W        W80988  44.803  10.749  13.790
 8674W        W80989  26.024  36.068  12.016
 8675W        W80990  31.107  25.658  14.317
 8676W        W80991  21.066   9.882   1.408
 8677W        W80992   5.426  15.215  14.009
 8678W        W80993   5.826  11.175  14.896
 8679W        W80994  12.351  36.413  12.439
 8680W        W80995  28.961  39.041   4.282
 8681W        W80996  16.233  44.847   3.763
 8682W        W80997  11.661  23.236   2.257
 8683W        W80998  44.791  16.263   1.908
 8684W        W80999   0.308  10.143   2.212
 8685W        W81000   1.334  39.825  11.858
 8686W        W81001   6.308  30.479   4.813
 8687W        W81002  14.687  39.455   2.806
 8688W        W81003  44.485  29.442  11.483
 8689W        W81004   7.376  21.223   4.307
 8690W        W81005  28.646  38.910  11.963
 8691W        W81006  20.684  39.436   2.412
 8692W        W81007  23.018   8.265   4.689
 8693W        W81008   9.268   6.805   3.870
 8694W        W81009  12.662  30.139  14.883
 8695W        W81010  27.091  34.477   3.738
 8696W        W81011  34.102  38.860   0.278
 8697W        W81012  40.811  11.239  12.054
 8698W        W81013  16.261   4.340  14.505
 8699W        W81014   0.434  16.283   1.213
 8700W        W81015  39.961   3.777  11.098
 8701W        W81016  38.571  20.625  10.999
 8702W        W81017  41.503  35.547  11.374
 8703W        W81018   3.872  15.146  13.058
 8704W        W81019  40.517  37.906   4.349
 8705W        W81020  15.136  37.830   1.791
 8706W        W81021  43.930  31.460  10.642
 8707W        W81022  43.865  37.941  13.841
 8708W        W81023  18.081  12.767  13.013
 8709W        W81024  44.398  43.393   2.243
 8710W        W81025   9.268  35.003   2.227
 8711W        W81026   7.396   7.790  14.032
 8712W        W81027  13.673  12.694   4.815
 8713W        W81028   0.964  37.446   9.998
 8714W        W81029  38.915  18.105   4.243
 8715W        W81030  10.381  25.203   1.920
 8716W        W81031  17.650  22.628  12.510
 8717W        W81032   9.853  27.608  13.881
 8718W        W81033  26.466  13.314   2.320
 8719W        W81034  29.941  40.835  14.973
 8720W        W81035  21.125  43.800  10.616
 8721W        W81036  24.174   0.849  11.517
 8722W        W81037  30.945  38.524  14.303
 8723W        W81038  35.039   7.205   2.185
 8724W        W81039  18.677  42.890   3.812
 8725W        W81040  12.673  15.636  11.521
 8726W        W81041  12.730  10.303  12.828
 8727W        W81042  17.605  24.482  13.928
 8728W        W81043   9.359  12.168   4.163
 8729W        W81044  12.650  28.462   0.459
 8730W        W81045  12.808   0.851   2.757
 8731W        W81046  36.493  18.122  13.372
 8732W        W81047  29.011  12.749   1.293
 8733W        W81048  36.543  25.587   1.836
 8734W        W81049   0.901  18.628   3.235
 8735W        W81050   2.875   8.223   1.713
 8736W        W81051  13.653  10.690   0.385
 8737W        W81052  38.017  37.380  11.072
 8738W        W81053  42.418  42.368  14.830
 8739W        W81054  37.027  19.610   2.775
 8740W        W81055  41.020  43.272   4.184
 8741W        W81056  13.768  39.445  14.834
 8742W        W81057   3.779   0.421   1.399
 8743W        W81058  42.972  24.514   3.235
 8744W        W81059  33.006  44.914   1.448
 8745W        W81060  26.147  25.982   4.753
 8746W        W81061  39.356  31.535  10.566
 8747W        W81062  15.132  17.278  11.605
 8748W        W81063  12.669   4.397   0.374
 8749W        W81064  34.451  28.652  13.436
 8750W        W81065  41.487  25.599  12.957
 8751W        W81066  20.587  10.701   0.767
 8752W        W81067  10.773  29.027   3.692
 8753W        W81068  23.704   9.335   4.608
 8754W        W81069  23.666  16.095  11.598
 8755W        W81070  25.515  18.289  14.346
 8756W        W81071   9.324  16.149  13.895
 8757W        W81072  38.838   9.803  10.128
 8758W        W81073   2.900  42.008   2.822
 8759W        W81074  27.146  13.622  14.410
 8760W        W81075   2.320  40.398  12.427
 8761W        W81076  44.775  37.863   3.868
 8762W        W81077  22.736  33.547   3.274
 8763W        W81078  17.263  25.480  12.976
 8764W        W81079  41.437  44.388   0.438
 8765W        W81080  30.063   4.701   0.812
 8766W        W81081  18.173  44.759   1.214
 8767W        W81082  25.192   2.336  13.394
 8768W        W81083   4.395  26.663  11.962
 8769W        W81084  34.534  12.124   3.193
 8770W        W81085  37.441  17.717   4.176
 8771W        W81086  25.139  19.205  10.415
 8772W        W81087  14.307   3.790  10.937
 8773W        W81088  28.163   4.937   1.813
 8774W        W81089   6.811  35.455  11.568
 8775W        W81090  12.302  43.448   2.261
 8776W        W81091  43.788  31.975   4.714
 8777W        W81092  15.704  43.948   0.882
 8778W        W81093  22.633  10.344  12.357
 8779W        W81094  12.195   2.374  13.981
 8780W        W81095   0.773  15.810   2.379
 8781W        W81096  18.219  16.240  11.957
 8782W        W81097  25.976   6.853   3.232
 8783W        W81098  36.589  33.510  14.382
 8784W        W81099  14.781   2.872   0.841
 8785W        W81100   9.772   3.285  10.555
 8786W        W81101  40.416  27.988  12.960
 8787W        W81102  23.669   4.752   0.349
 8788W        W81103  44.879  15.627  12.574
 8789W        W81104  35.964  41.921  14.986
 8790W        W81105   0.319   4.364   0.830
 8791W        W81106  44.269  29.563   5.298
 8792W        W81107   9.162  22.124   0.450
 8793W        W81108  13.734  34.889  10.408
 8794W        W81109  42.317  22.103  13.943
 8795W        W81110  44.865   2.345   3.703
 8796W        W81111  38.908  43.950  11.451
 8797W        W81112   6.235  32.026  13.889
 8798W        W81113  16.316  44.930  14.769
 8799W        W81114  28.012  43.282   4.638
 8800W        W81115  35.385  29.551  14.948
 8801W        W81116  13.765  36.556  14.801
 8802W        W81117  41.363  32.956  11.516
 8803W        W81118  44.903  33.014   1.240
 8804W        W81119  23.171  12.672  12.484
 8805W        W81120  11.237  25.086  11.459
 8806W        W81121  24.164  18.113   4.224
 8807W        W81122  41.384   9.373  13.332
 8808W        W81123  23.065  21.712   3.328
 8809W        W81124  36.521  14.230  11.896
 8810W        W81125  31.595  27.998  10.935
 8811W        W81126   8.371  38.498   1.800
 8812W        W81127   0.451  18.294   4.129
 8813W        W81128  31.009  15.705   0.886
 8814W        W81129  38.476   3.928   4.192
 8815W        W81130  42.837  25.080  11.915
 8816W        W81131   6.677  39.413  12.857
 8817W        W81132   0.357  22.086  14.882
 8818W        W81133  30.112   2.927   0.775
 8819W        W81134  37.354   5.880   0.952
 8820W        W81135   7.379  29.656  12.420
 8821W        W81136  42.019  29.925   1.424
 8822W        W81137   9.658   1.411  14.882
 8823W        W81138   6.241   3.240   2.399
 8824W        W81139  12.624  30.568  12.514
 8825W        W81140  28.000  12.252   4.216
 8826W        W81141  30.593  33.570  11.421
 8827W        W81142  28.001  31.032  14.379
 8828W        W81143  26.561   7.224   1.726
 8829W        W81144  19.049  21.195   1.887
 8830W        W81145  13.145  12.648  11.924
 8831W        W81146  13.159  10.254   2.284
 8832W        W81147  42.016  33.085   2.192
 8833W        W81148  40.817  24.699   3.747
 8834W        W81149  26.023  10.641   0.310
 8835W        W81150  22.143   4.272  11.383
 8836W        W81151  37.075  41.403   2.188
 8837W        W81152  24.696   3.373  10.417
 8838W        W81153  15.134  42.981  14.306
 8839W        W81154  27.445   9.860  11.069
 8840W        W81155  24.544  21.568   5.752
 8841W        W81156  10.304  40.509  11.869
 8842W        W81157  16.634  34.990  14.284
 8843W        W81158  19.199  31.926  12.572
 8844W        W81159  15.624  44.957  10.617
 8845W        W81160  35.107  32.563  10.955
 8846W        W81161  16.628  27.496  11.867
 8847W        W81162   6.405   4.337   2.807
 8848W        W81163  15.589  34.584   1.398
 8849W        W81164  36.873  27.137   3.835
 8850W        W81165  14.321  18.604   3.289
 8851W        W81166  28.131  22.194   1.438
 8852W        W81167  27.578  34.460  11.418
 8853W        W81168  41.512  24.645  13.463
 8854W        W81169  28.183   6.299   1.265
 8855W        W81170   1.293  26.146   3.334
 8856W        W81171  18.199  23.705  12.425
 8857W        W81172   8.357  18.112   0.467
 8858W        W81173  32.940  40.036  12.053
 8859W        W81174  43.004  19.713  14.386
 8860W        W81175  40.408  36.413   1.932
 8861W        W81176  11.795  32.634   1.433
 8862W        W81177  39.413  12.347  14.362
 8863W        W81178   6.723  15.769   2.374
 8864W        W81179  31.616  22.706   4.763
 8865W        W81180   6.822  42.981  10.979
 8866W        W81181  25.079  40.373  10.620
 8867W        W81182  28.496  38.962   4.241
 8868W        W81183  34.007  38.919   3.150
 8869W        W81184   1.328  21.061  10.482
 8870W        W81185   0.456  14.261  13.044
 8871W        W81186  36.524  35.423   1.898
 8872W        W81187  30.047  32.896  13.020
 8873W        W81188  39.876  37.981  12.087
 8874W        W81189  10.818  31.942  12.507
 8875W        W81190  32.056   3.356   5.318
 8876W        W81191  18.764  37.572   5.085
 8877W        W81192   9.845  19.185   5.110
 8878W        W81193   4.706  37.574  14.951
 8879W        W81194  35.110  42.498  11.117
 8880W        W81195  28.670  34.378  14.514
 8881W        W81196  34.383  41.839   2.298
 8882W        W81197  27.107  28.631  13.988
 8883W        W81198  32.081  43.457   4.298
 8884W        W81199  14.636   4.938   0.801
 8885W        W81200  36.444  37.356   3.655
 8886W        W81201  24.610  23.588   3.636
 8887W        W81202  26.052   8.681   1.814
 8888W        W81203  32.936  39.442  10.583
 8889W        W81204  19.579  30.108   4.220
 8890W        W81205  38.901  11.631   2.265
 8891W        W81206  15.218  24.129  10.491
 8892W        W81207  34.882  15.641  12.978
 8893W        W81208  32.597  32.451  14.966
 8894W        W81209  22.012  37.499  13.900
 8895W        W81210   6.331   7.828   0.478
 8896W        W81211  18.660  18.790   3.863
 8897W        W81212  36.991  39.506  10.450
 8898W        W81213  18.182   3.821  12.833
 8899W        W81214  39.957   8.259   2.315
 8900W        W81215  18.763  28.021  13.989
 8901W        W81216  12.117   3.930  10.888
 8902W        W81217  17.255  25.076   0.287
 8903W        W81218  35.109  41.314   1.833
 8904W        W81219  24.492  41.493  12.435
 8905W        W81220   3.322  34.515  10.572
 8906W        W81221  39.482  25.002   2.678
 8907W        W81222  19.565  30.158   4.749
 8908W        W81223  37.973  43.962  12.937
 8909W        W81224   0.395   8.343  10.407
 8910W        W81225  24.210  19.083   2.808
 8911W        W81226  41.867  38.872   5.299
 8912W        W81227  23.673  27.154   0.436
 8913W        W81228   3.723  22.022   4.283
 8914W        W81229  39.813   6.856   3.287
 8915W        W81230   8.754  37.008  12.946
 8916W        W81231   3.720  10.153  12.834
 8917W        W81232  25.565  41.894  12.458
 8918W        W81233  44.906  40.856  12.937
 8919W        W81234   9.807  11.666   2.297
 8920W        W81235  42.995  41.514  11.457
 8921W        W81236  38.070   4.744   2.353
 8922W        W81237   2.809   1.818  13.036
 8923W        W81238  38.534  20.545  10.545
 8924W        W81239   0.907  42.899   2.794
 8925W        W81240   7.188  22.154  13.342
 8926W        W81241  17.727  37.966  11.051
 8927W        W81242  16.129   2.774  12.004
 8928W        W81243   3.425  34.534   4.786
 8929W        W81244  24.984  19.252   4.664
 8930W        W81245   6.207   2.937  13.346
 8931W        W81246  15.728  27.021   2.260
 8932W        W81247  35.991   2.277  11.042
 8933W        W81248  23.115  21.160  12.432
 8934W        W81249   5.890  16.188   1.907
 8935W        W81250  35.360  26.503  13.511
 8936W        W81251  44.339  26.183  12.094
 8937W        W81252  26.044   2.896  14.012
 8938W        W81253  39.470  44.966   3.372
 8939W        W81254  30.548  40.461   2.794
 8940W        W81255   9.339  15.756  13.521
 8941W        W81256   7.249  40.024  13.432
 8942W        W81257  38.016  14.707  14.776
 8943W        W81258  37.897  39.401   2.194
 8944W        W81259  35.039  26.554   5.183
 8945W        W81260  36.392  29.568  12.963
 8946W        W81261  16.658   8.206   4.798
 8947W        W81262  31.494  29.115  10.913
 8948W        W81263   5.744  11.221   2.208
 8949W        W81264  24.494   5.299   1.773
 8950W        W81265  15.201  40.328   2.419
 8951W        W81266  39.869  40.993   2.789
 8952W        W81267  28.019  22.252   0.419
 8953W        W81268  24.211   6.759   0.331
 8954W        W81269   6.682  16.723  14.031
 8955W        W81270  43.873  16.254  11.393
 8956W        W81271   3.242   2.410   0.786
 8957W        W81272  15.102  38.067  14.789
 8958W        W81273  17.219  16.581   2.715
 8959W        W81274  26.572  25.688  10.423
 8960W        W81275  35.892  24.614  11.119
 8961W        W81276   2.893  39.844   4.659
 8962W        W81277  29.949  34.942  11.084
 8963W        W81278  16.595  24.483   2.668
 8964W        W81279  37.482  35.071   3.173
 8965W        W81280  43.849  26.015   4.688
 8966W        W81281  23.119  11.773  13.388
 8967W        W81282  21.665  30.952  10.582
 8968W        W81283   6.816   0.851  13.906
 8969W        W81284  37.064  23.689   1.414
 8970W        W81285  42.462   8.687  13.872
 8971W        W81286   1.305  33.995   0.813
 8972W        W81287   1.821  44.358  13.916
 8973W        W81288   8.859  26.190   1.297
 8974W        W81289  43.899  12.292  10.519
 8975W        W81290  33.404   5.286   2.401
 8976W        W81291  24.600  32.391   1.419
 8977W        W81292   2.802  44.772   2.388
 8978W        W81293   1.320  14.672   0.373
 8979W        W81294  43.338  37.062   2.720
 8980W        W81295  30.981  18.664   4.764
 8981W        W81296  14.239  39.916   3.844
 8982W        W81297  30.502  44.803   1.225
 8983W        W81298  32.125   3.400  12.881
 8984W        W81299  22.711  41.493   3.839
 8985W        W81300  27.637  34.461   5.247
 8986W        W81301  40.001  20.585  14.895
 8987W        W81302  36.986  41.361   4.298
 8988W        W81303  41.312  32.434  12.914
 8989W        W81304  18.718  29.659   0.843
 8990W        W81305  30.969  23.697   0.370
 8991W        W81306   6.241  29.482  10.637
 8992W        W81307   4.245   3.381  11.532
 8993W        W81308  29.524   2.782  14.381
 8994W        W81309   2.364   9.704  11.025
 8995W        W81310  27.048  16.626   1.429
 8996W        W81311   3.801   0.352  13.975
 8997W        W81312  22.075  41.931   2.414
 8998W        W81313   8.223  42.326   2.729
 8999W        W81314  22.627   1.329   2.706
 9000W        W81315   5.235  36.892  12.356
 9001W        W81316   7.395  22.196  14.288
 9002W        W81317   7.899   1.396   4.253
 9003W        W81318  34.109  35.871   0.794
 9004W        W81319  12.711  14.697   1.722
 9005W        W81320  15.787  13.785  13.876
 9006W        W81321  16.768  26.538   3.328
 9007W        W81322  17.144   1.740  13.059
 9008W        W81323  18.069  15.310  14.955
 9009W        W81324  29.592  36.033   1.422
 9010W        W81325  16.796  31.054   3.200
 9011W        W81326  29.435  29.023   1.810
 9012W        W81327   2.272  27.158  14.384
 9013W        W81328  36.860   0.347  10.485
 9014W        W81329  42.307   0.302  12.948
 9015W        W81330   4.905  23.546   3.372
 9016W        W81331  17.754   1.830   4.126
 9017W        W81332  44.282   5.761   4.223
 9018W        W81333  42.014  27.166  12.924
 9019W        W81334  39.423  17.295  14.917
 9020W        W81335  19.261  20.223  14.451
 9021W        W81336  38.501  15.083  11.532
 9022W        W81337   0.983   9.701  13.822
 9023W        W81338  18.595  42.320  12.961
 9024W        W81339   7.261  40.499   2.367
 9025W        W81340  20.214  38.456   9.992
 9026W        W81341  29.058  43.975   4.754
 9027W        W81342  22.119  24.505  12.575
 9028W        W81343  44.972  28.120  12.062
 9029W        W81344   7.353  24.223  10.979
 9030W        W81345  20.156  20.583   0.341
 9031W        W81346  34.575  37.506  13.415
 9032W        W81347  43.462   3.723  13.954
 9033W        W81348  23.697  37.934   4.266
 9034W        W81349  14.808  30.018  14.468
 9035W        W81350  38.953  25.990   4.673
 9036W        W81351  34.470   2.904   2.355
 9037W        W81352  31.599  19.562  13.396
 9038W        W81353  39.065  27.196  11.951
 9039W        W81354  17.183  23.494  12.378
 9040W        W81355  37.429  16.075  13.850
 9041W        W81356  18.749  12.160  10.496
 9042W        W81357  32.562  25.980   0.965
 9043W        W81358  39.446  36.496  13.543
 9044W        W81359   8.385  16.122  12.569
 9045W        W81360  31.571   4.903  10.998
 9046W        W81361  11.266   0.808  10.890
 9047W        W81362  43.353  38.823   0.726
 9048W        W81363  18.570  44.318  10.982
 9049W        W81364  14.799   3.301  11.058
 9050W        W81365  16.778   9.370   9.627
 9051W        W81366  32.894   0.766   3.147
 9052W        W81367  15.604  11.798   0.364
 9053W        W81368  41.805   4.411   0.934
 9054W        W81369   0.804   1.479  13.436
 9055W        W81370   1.788  26.967  13.852
 9056W        W81371   7.331  31.545   0.265
 9057W        W81372  43.937  25.582   0.468
 9058W        W81373  19.247   0.889   1.362
 9059W        W81374  19.227  11.750  11.009
 9060W        W81375  21.188  11.183   3.731
 9061W        W81376  27.688  13.200   2.737
 9062W        W81377  14.787  29.547  12.428
 9063W        W81378  23.000   6.728  12.502
 9064W        W81379  11.182  34.475   0.350
 9065W        W81380  17.700  31.030  10.614
 9066W        W81381  28.078  27.955  10.601
 9067W        W81382  28.671  37.380  10.929
 9068W        W81383  39.384  23.546  12.039
 9069W        W81384  37.857  29.608  13.056
 9070W        W81385  31.631  30.967  11.920
 9071W        W81386  19.561  31.117   2.393
 9072W        W81387  13.332  12.157   0.244
 9073W        W81388  15.261  19.086  13.419
 9074W        W81389  16.305  10.652   4.332
 9075W        W81390   2.359  37.056   4.117
 9076W        W81391  21.680  36.371  14.825
 9077W        W81392  44.420   2.825   3.232
 9078W        W81393  34.030  43.994  14.334
 9079W        W81394  44.313  35.574  10.531
 9080W        W81395  25.706  30.102  14.841
 9081W        W81396  14.787  19.665  14.786
 9082W        W81397  16.202  19.126   1.816
 9083W        W81398  11.170   2.229  12.499
 9084W        W81399  20.597  35.414  11.376
 9085W        W81400   1.237  24.973  10.894
 9086W        W81401  17.779  13.242   2.387
 9087W        W81402  21.228  22.665  13.911
 9088W        W81403   5.293  15.596   2.732
 9089W        W81404  32.112  39.007   1.265
 9090W        W81405  44.917   8.358  11.071
 9091W        W81406   1.735  42.889   3.384
 9092W        W81407   2.898   1.250  14.866
 9093W        W81408  27.463   5.903  14.464
 9094W        W81409  14.114  28.054   0.443
 9095W        W81410  29.492  30.623  10.630
 9096W        W81411  39.036  24.608   4.818
 9097W        W81412  44.930  42.955   3.634
 9098W        W81413  37.551  26.543   1.699
 9099W        W81414  15.180  11.635   3.844
 9100W        W81415  19.549  40.822   9.962
 9101W        W81416  19.198  43.405  11.118
 9102W        W81417  18.786  39.456   4.715
 9103W        W81418  43.940  34.893   2.340
 9104W        W81419  25.057  11.355   1.706
 9105W        W81420  38.510  43.783   3.230
 9106W        W81421   8.720   3.813   0.764
 9107W        W81422   8.307  21.190   1.889
 9108W        W81423   3.405  31.571  13.979
 9109W        W81424  38.377   9.751  11.474
 9110W        W81425  11.751  20.058  14.805
 9111W        W81426  44.790   4.310   0.870
 9112W        W81427  24.581   8.308  10.928
 9113W        W81428  35.448   6.771   1.251
 9114W        W81429   5.328  41.002   3.277
 9115W        W81430  21.517  11.635   2.728
 9116W        W81431   5.731  28.147  14.032
 9117W        W81432  43.931  12.271  14.413
 9118W        W81433  12.820  32.071  12.928
 9119W        W81434  20.212  35.543   1.816
 9120W        W81435  39.556   2.782  14.378
 9121W        W81436  27.042  13.243  14.785
 9122W        W81437  31.129  40.814   4.774
 9123W        W81438  42.383   7.357  11.460
 9124W        W81439  22.664  13.726   2.783
 9125W        W81440   6.339  29.042   4.702
 9126W        W81441   4.305  34.963  13.954
 9127W        W81442  14.139   4.916   3.152
 9128W        W81443  17.775  28.004  12.942
 9129W        W81444  17.126  25.592   0.856
 9130W        W81445  40.026   7.252  12.053
 9131W        W81446   9.303  18.107   1.907
 9132W        W81447  13.338  23.186  11.926
 9133W        W81448   8.276  34.484  10.487
 9134W        W81449  36.000   8.325   1.375
 9135W        W81450  21.124  41.840  11.501
 9136W        W81451   4.407  44.440   0.812
 9137W        W81452   4.748  38.984   5.282
 9138W        W81453  37.056   0.815   4.271
 9139W        W81454   1.365  16.653  11.569
 9140W        W81455   2.924  40.048   1.856
 9141W        W81456   7.188  24.051   2.806
 9142W        W81457  13.680  15.811   3.281
 9143W        W81458  29.949  34.411  11.583
 9144W        W81459  43.342   2.945   4.353
 9145W        W81460  12.782  38.861   1.287
 9146W        W81461  28.073   2.909   3.379
 9147W        W81462  14.683   2.327  12.550
 9148W        W81463   5.881  25.021  13.512
 9149W        W81464   4.751  24.990  11.864
 9150W        W81465   5.868  19.675  14.503
 9151W        W81466  28.656  26.600   4.239
 9152W        W81467  32.516  17.562   2.396
 9153W        W81468  37.440  24.521  11.412
 9154W        W81469  41.831  43.336   1.866
 9155W        W81470  28.172  29.591   1.840
 9156W        W81471   2.429   5.243  13.533
 9157W        W81472  41.506  34.528   3.172
 9158W        W81473  24.697   5.885   4.303
 9159W        W81474  44.879  12.232  12.905
 9160W        W81475  37.402  10.282  12.837
 9161W        W81476  17.605   2.744   1.236
 9162W        W81477  27.131  16.108   0.308
 9163W        W81478  31.557  14.757   4.833
 9164W        W81479  25.103  27.075   1.233
 9165W        W81480  40.331  10.262   3.630
 9166W        W81481  43.502  33.487  14.956
 9167W        W81482  41.450  25.005   2.268
 9168W        W81483  39.528  10.778   4.666
 9169W        W81484  39.337   8.848   4.606
 9170W        W81485  42.525  39.400   0.318
 9171W        W81486  22.153  29.484   0.469
 9172W        W81487  29.006   3.344   0.763
 9173W        W81488  27.058  15.775   3.149
 9174W        W81489   9.317  11.709   3.328
 9175W        W81490  18.585  33.468   4.698
 9176W        W81491  44.503  37.830   3.631
 9177W        W81492  33.103  20.052   3.333
 9178W        W81493   7.361  40.822  10.920
 9179W        W81494   0.838   7.910  14.909
 9180W        W81495  21.069  18.670   2.700
 9181W        W81496   1.872   7.322  11.581
 9182W        W81497  13.269   7.239   1.380
 9183W        W81498  36.473  30.153  13.536
 9184W        W81499  41.478  42.463   3.363
 9185W        W81500   6.270  43.921  11.499
 9186W        W81501  19.576  16.191   1.303
 9187W        W81502   4.788  35.108  14.505
 9188W        W81503  23.131  33.088  14.852
 9189W        W81504  29.530  34.928  12.074
 9190W        W81505  14.208  23.194   3.250
 9191W        W81506  12.259  43.998   0.743
 9192W        W81507   7.677  23.545  13.417
 9193W        W81508  12.163  42.840  13.392
 9194W        W81509  23.038  39.539   2.851
 9195W        W81510   2.460  43.334   3.729
 9196W        W81511  29.057  17.619   1.764
 9197W        W81512  39.325  21.695  13.429
 9198W        W81513  10.801  26.581  13.931
 9199W        W81514  32.396  16.615  12.387
 9200W        W81515  25.071  26.028   0.291
 9201W        W81516  13.846   9.197  11.526
 9202W        W81517  10.815  36.843   4.294
 9203W        W81518   0.856  19.669  14.446
 9204W        W81519  16.619   3.446   1.891
 9205W        W81520   6.776  19.116   3.332
 9206W        W81521  18.273   1.279   0.889
 9207W        W81522  20.032   0.892   0.740
 9208W        W81523  43.437   1.804  14.385
 9209W        W81524  23.668  37.045  11.569
 9210W        W81525  24.716  39.827   3.300
 9211W        W81526   3.784  42.382   2.665
 9212W        W81527  18.637  41.042   3.301
 9213W        W81528  37.387  11.178   2.288
 9214W        W81529  38.965  20.090  10.406
 9215W        W81530  10.257  14.301  11.040
 9216W        W81531  34.601  41.510   4.836
 9217W        W81532  12.266  25.159   2.291
 9218W        W81533   0.760  43.999   2.338
 9219W        W81534  19.603   1.783   3.205
 9220W        W81535  29.155  28.612  14.771
 9221W        W81536  36.076  42.909  13.926
 9222W        W81537   4.814  22.073   2.365
 9223W        W81538  43.316  23.222   1.709
 9224W        W81539  33.421  27.636   3.309
 9225W        W81540  25.163  12.353   3.386
 9226W        W81541  41.398  21.649  14.022
 9227W        W81542  24.011  43.860  11.119
 9228W        W81543   9.780  17.200   3.812
 9229W        W81544  34.048  38.379   3.254
 9230W        W81545  31.036  36.477  11.570
 9231W        W81546  14.803  18.049   1.898
 9232W        W81547  29.559   8.666  12.558
 9233W        W81548  42.351  28.510   1.308
 9234W        W81549  33.049  31.056  14.497
 9235W        W81550  17.599  40.464  11.591
 9236W        W81551  26.958  11.844   3.340
 9237W        W81552  15.191  32.566   0.450
 9238W        W81553  38.032  26.627   2.357
 9239W        W81554  24.145  31.034  14.923
 9240W        W81555  26.094  43.776  13.873
 9241W        W81556  39.049  40.882  10.547
 9242W        W81557  19.283  29.046   4.352
 9243W        W81558  40.026  22.647   3.785
 9244W        W81559   1.936  28.580   0.831
 9245W        W81560  14.661  12.665   5.154
 9246W        W81561  16.139  29.050   0.301
 9247W        W81562   9.293   3.326   5.164
 9248W        W81563  20.676  37.357  13.017
 9249W        W81564  44.498  34.472   4.828
 9250W        W81565  35.088  14.660   2.672
 9251W        W81566  35.519  44.360   4.248
 9252W        W81567   2.832  24.513   2.265
 9253W        W81568  43.951  25.612   2.363
 9254W        W81569   8.741  40.513  12.575
 9255W        W81570  22.649  15.240  10.891
 9256W        W81571  16.233  27.031  13.454
 9257W        W81572  12.771  27.535   2.292
 9258W        W81573  43.853  20.738  14.887
 9259W        W81574  31.595  15.742   1.894
 9260W        W81575  43.850   3.950  13.858
 9261W        W81576  32.903  44.476   2.808
 9262W        W81577   1.827  41.842   3.638
 9263W        W81578   4.769  36.949  12.572
 9264W        W81579   7.402   9.733   4.284
 9265W        W81580  22.547  26.578  11.546
 9266W        W81581  32.410  14.184  12.860
 9267W        W81582  19.261   2.734   1.404
 9268W        W81583  40.995  31.415  11.375
 9269W        W81584  24.044   9.861  11.426
 9270W        W81585  25.212  26.179   1.315
 9271W        W81586  31.480   8.824   1.792
 9272W        W81587   6.201   2.336  11.003
 9273W        W81588  27.052  13.649  13.380
 9274W        W81589  32.576   3.428  13.436
 9275W        W81590  25.484  33.393   0.352
 9276W        W81591  42.451  31.149   2.844
 9277W        W81592  24.003  23.726   4.650
 9278W        W81593  16.303  24.051   1.802
 9279W        W81594  15.786  38.917  12.941
 9280W        W81595  28.644   0.494   2.665
 9281W        W81596  31.090   7.762  13.428
 9282W        W81597   8.248  42.386   4.646
 9283W        W81598  20.249  32.015   2.816
 9284W        W81599  29.506  22.534   5.236
 9285W        W81600  25.151  40.003   0.387
 9286W        W81601  24.170  32.567  14.003
 9287W        W81602   6.214  24.592   3.290
 9288W        W81603   5.738  35.072  10.445
 9289W        W81604   6.731  20.539   2.263
 9290W        W81605   3.336  36.511   0.753
 9291W        W81606  32.118  18.747   1.914
 9292W        W81607  29.606  29.601   0.827
 9293W        W81608   1.419  13.762  14.979
 9294W        W81609  16.267  14.196  14.853
 9295W        W81610  26.208  29.012   2.669
 9296W        W81611   4.235  17.768  12.067
 9297W        W81612  43.959  13.351   2.797
 9298W        W81613  25.120  26.973  10.462
 9299W        W81614  29.658  18.681   3.799
 9300W        W81615  17.652   7.898  13.356
 9301W        W81616   6.776   8.816   3.634
 9302W        W81617  13.150  32.625   4.315
 9303W        W81618  13.317  12.713   1.833
 9304W        W81619  25.030  12.315   0.281
 9305W        W81620   3.450   2.929  10.941
 9306W        W81621  20.095   2.471   4.658
 9307W        W81622  40.904   9.381   1.766
 9308W        W81623   7.369  34.600  11.541
 9309W        W81624   5.708   0.313  13.799
 9310W        W81625  36.518   1.881  12.388
 9311W        W81626  29.545  17.642   1.221
 9312W        W81627  24.692  21.217   0.445
 9313W        W81628  32.529  38.066   4.600
 9314W        W81629   9.310   4.231  12.364
 9315W        W81630  30.560  28.669  11.516
 9316W        W81631   1.409  32.063   4.674
 9317W        W81632  14.694   9.783  10.532
 9318W        W81633  43.410  29.085   5.302
 9319W        W81634  15.258  26.199  11.568
 9320W        W81635  38.028  38.472   1.723
 9321W        W81636  27.167  22.595   4.837
 9322W        W81637  29.019   4.819  11.007
 9323W        W81638  39.481  43.397   0.843
 9324W        W81639  18.606   4.773  11.601
 9325W        W81640  24.629  37.493   3.221
 9326W        W81641   5.248  11.647  11.936
 9327W        W81642  13.302  33.132   4.117
 9328W        W81643   7.231  21.096   2.345
 9329W        W81644   0.376  10.154   2.829
 9330W        W81645  41.897  35.867   2.784
 9331W        W81646  27.081  23.604  11.516
 9332W        W81647   1.959  18.188   3.185
 9333W        W81648   9.800   8.710  14.015
 9334W        W81649  39.993  43.449  13.490
 9335W        W81650  25.522  17.597  12.928
 9336W        W81651  28.939   8.824   4.237
 9337W        W81652  22.675  43.875   4.742
 9338W        W81653  17.115  34.925  13.504
 9339W        W81654  27.049  21.546   1.361
 9340W        W81655  13.136  19.763   3.294
 9341W        W81656   8.342   1.766  13.391
 9342W        W81657  23.534   0.958   1.377
 9343W        W81658  12.833  22.181   2.745
 9344W        W81659  26.027   6.780   0.420
 9345W        W81660  41.810   1.371   0.875
 9346W        W81661  44.922  19.157  11.459
 9347W        W81662  36.458  19.675  14.963
 9348W        W81663   1.301  22.668  11.016
 9349W        W81664  25.511   4.446  10.111
 9350W        W81665  29.501   6.788  11.047
 9351W        W81666   3.397   6.703  13.369
 9352W        W81667  14.103   6.696  11.528
 9353W        W81668   8.844  25.646  11.540
 9354W        W81669  32.082  18.672  14.305
 9355W        W81670  33.056  17.246   4.155
 9356W        W81671  31.123  44.904  10.509
 9357W        W81672  26.610  31.144   0.318
 9358W        W81673  36.040  18.154  12.957
 9359W        W81674  20.723  31.568  12.364
 9360W        W81675   6.739  17.094  13.344
 9361W        W81676   9.679  42.846   3.767
 9362W        W81677  28.122  29.127  11.112
 9363W        W81678  16.765  37.489  13.388
 9364W        W81679  27.981   3.382   2.675
 9365W        W81680   3.253  32.544   0.728
 9366W        W81681  22.665  41.020   1.767
 9367W        W81682   9.760  23.646   1.351
 9368W        W81683  29.127  21.062   1.326
 9369W        W81684  10.247  15.223   3.150
 9370W        W81685  31.634  42.336   1.402
 9371W        W81686  20.143   8.785   1.261
 9372W        W81687  25.088   8.392   1.868
 9373W        W81688  43.855   5.855   3.783
 9374W        W81689  12.168  37.877  10.624
 9375W        W81690  16.774  16.720   3.235
 9376W        W81691  16.218  24.522  10.636
 9377W        W81692  31.134  30.532   9.924
 9378W        W81693  30.468  27.160   1.783
 9379W        W81694  25.553  42.949   2.902
 9380W        W81695  32.925  35.398   0.732
 9381W        W81696  30.933  32.538   3.154
 9382W        W81697  10.196  27.187  11.541
 9383W        W81698  33.460  26.613  12.574
 9384W        W81699  40.355  33.073  14.347
 9385W        W81700   1.345  17.256  13.918
 9386W        W81701  43.365  13.778  13.414
 9387W        W81702  16.663   4.234   1.422
 9388W        W81703  33.392  33.564   4.277
 9389W        W81704  16.600   6.401  11.567
 9390W        W81705  39.023   0.315  13.920
 9391W        W81706  10.150  10.142  11.999
 9392W        W81707  11.804  31.592  10.552
 9393W        W81708  16.146  33.874  10.512
 9394W        W81709   0.769  22.553  10.073
 9395W        W81710  26.990  39.471  14.761
 9396W        W81711   6.736  12.258   3.830
 9397W        W81712  32.434  19.693   3.282
 9398W        W81713   9.770  11.363  14.000
 9399W        W81714  22.165  42.515   4.700
 9400W        W81715  44.458  38.381   2.196
 9401W        W81716  20.041  26.034   4.725
 9402W        W81717  28.640  17.302  12.524
 9403W        W81718  10.764  24.501   0.435
 9404W        W81719  18.075  20.555   0.939
 9405W        W81720  22.181  33.088  13.462
 9406W        W81721  36.950  28.179   4.193
 9407W        W81722  41.348   5.758   3.853
 9408W        W81723  18.740  41.335  11.552
 9409W        W81724  39.810  15.137  14.415
 9410W        W81725  37.360   4.801  14.892
 9411W        W81726  34.496  39.475  12.434
 9412W        W81727  19.210   7.759   0.392
 9413W        W81728   8.212  24.587  14.924
 9414W        W81729  29.634  40.307   3.714
 9415W        W81730  26.487  23.070   3.866
 9416W        W81731  28.666  15.180   3.720
 9417W        W81732  17.752  43.446  12.392
 9418W        W81733  25.208  44.927   0.835
 9419W        W81734   1.756  35.384   2.400
 9420W        W81735  39.001   7.192  12.377
 9421W        W81736  39.411   9.875   3.777
 9422W        W81737  15.307  41.474  13.967
 9423W        W81738  29.987  20.700   1.928
 9424W        W81739  37.925  14.177   3.643
 9425W        W81740   9.193   6.691  11.892
 9426W        W81741   1.413  43.326  11.939
 9427W        W81742  17.159  38.946   5.084
 9428W        W81743   9.353   3.276  14.316
 9429W        W81744  36.992  35.970  13.873
 9430W        W81745  24.641   6.721  12.896
 9431W        W81746   2.765  42.834   1.433
 9432W        W81747  18.627  33.571  13.002
 9433W        W81748  26.005  44.810  13.974
 9434W        W81749   4.799   9.257   4.674
 9435W        W81750  36.412  44.010  12.078
 9436W        W81751  18.196   7.267   0.752
 9437W        W81752  40.850  39.337   2.195
 9438W        W81753  26.655  25.046  11.391
 9439W        W81754   8.193  12.687   1.257
 9440W        W81755  21.559  36.460   0.862
 9441W        W81756   9.204  39.940   1.916
 9442W        W81757  16.150  30.006   0.770
 9443W        W81758   9.288  30.048   2.704
 9444W        W81759  18.607  43.923   4.705
 9445W        W81760   3.730  40.498  10.457
 9446W        W81761   5.830  34.048   3.253
 9447W        W81762  27.587  12.255  14.876
 9448W        W81763  12.785   5.919  13.902
 9449W        W81764  24.530  27.683  12.888
 9450W        W81765  36.963  39.050  13.808
 9451W        W81766  35.479  33.493  14.421
 9452W        W81767  39.958   5.769   3.719
 9453W        W81768  14.247   9.858   1.787
 9454W        W81769   6.756  44.956  12.858
 9455W        W81770  23.726  19.233   5.156
 9456W        W81771  31.466  22.202   3.387
 9457W        W81772  12.740  31.025  12.527
 9458W        W81773   7.849  40.433  14.811
 9459W        W81774   6.828  28.072   1.351
 9460W        W81775  17.230   9.744   4.691
 9461W        W81776  40.484   5.766  11.390
 9462W        W81777  40.877   5.861   4.123
 9463W        W81778  36.575  17.566   1.885
 9464W        W81779   1.939  13.832   0.796
 9465W        W81780  34.528  12.196  11.095
 9466W        W81781  42.485  23.149  13.484
 9467W        W81782  27.111  33.591   3.738
 9468W        W81783  30.045  20.732  11.487
 9469W        W81784  22.080  18.249   0.264
 9470W        W81785  32.001  20.672   3.217
 9471W        W81786   6.288  43.018   2.896
 9472W        W81787  14.695   9.725   3.851
 9473W        W81788   5.920  10.693   0.291
 9474W        W81789  11.852  16.179   4.709
 9475W        W81790  10.368  17.714   0.245
 9476W        W81791  20.109   9.708  10.112
 9477W        W81792   4.342  31.485  11.922
 9478W        W81793  14.240  44.286  10.502
 9479W        W81794  25.654   5.286  10.075
 9480W        W81795  25.529  30.565   2.839
 9481W        W81796  34.035  34.872  11.875
 9482W        W81797   8.220  30.052   3.331
 9483W        W81798  42.447  34.033  10.594
 9484W        W81799  13.276   3.950   1.795
 9485W        W81800  29.561  11.240   0.319
 9486W        W81801  33.962  15.816   1.864
 9487W        W81802  44.989   0.913  11.464
 9488W        W81803   8.768  22.720  12.394
 9489W        W81804   3.357  21.741  12.938
 9490W        W81805  22.244  21.052  13.463
 9491W        W81806   7.741  29.606  14.470
 9492W        W81807  21.263  20.127   4.222
 9493W        W81808  29.528  21.525   3.758
 9494W        W81809  22.128  43.997  11.108
 9495W        W81810  31.968  44.789  11.505
 9496W        W81811  35.002  37.031   1.787
 9497W        W81812   5.748  18.570  13.540
 9498W        W81813  25.023  23.215   0.346
 9499W        W81814  44.781  13.827  14.282
 9500W        W81815  27.042  44.806  10.534
 9501W        W81816  19.116  15.258  14.419
 9502W        W81817   9.771  43.899  13.513
 9503W        W81818  32.077  36.002   2.339
 9504W        W81819  10.855   2.447   4.782
 9505W        W81820  43.925  35.551   1.245
 9506W        W81821  11.817   3.360   1.223
 9507W        W81822  39.927  37.866   3.833
 9508W        W81823  12.190  37.577  12.390
 9509W        W81824  19.758   2.450  11.877
 9510W        W81825  15.188  13.602  12.872
 9511W        W81826  21.741  11.162   4.819
 9512W        W81827  34.965  11.762  10.112
 9513W        W81828  26.102   8.362  14.027
 9514W        W81829  27.559  35.504   4.601
 9515W        W81830  10.202  21.613   1.446
 9516W        W81831  23.046   0.801  12.367
 9517W        W81832  37.434   9.169  14.997
 9518W        W81833  29.519  19.689  11.526
 9519W        W81834   6.789  43.807   4.767
 9520W        W81835  42.026  41.858   4.297
 9521W        W81836  40.886  33.470  11.863
 9522W        W81837  31.049   7.910  10.539
 9523W        W81838  22.160  38.033  12.426
 9524W        W81839  14.720  25.541  11.086
 9525W        W81840  10.161   7.362  12.012
 9526W        W81841  32.575  30.569   9.981
 9527W        W81842  40.993  41.361  13.329
 9528W        W81843  30.091   0.294   4.700
 9529W        W81844  31.404   9.752  11.956
 9530W        W81845   2.847  14.612   0.302
 9531W        W81846   0.335   4.745   1.261
 9532W        W81847  38.964  27.459  11.975
 9533W        W81848  24.159  41.033  13.405
 9534W        W81849  29.170  33.889  14.001
 9535W        W81850  30.602  16.198  12.420
 9536W        W81851  19.633  37.554  10.446
 9537W        W81852   5.340  24.072  11.414
 9538W        W81853  16.713  11.286  13.324
 9539W        W81854  25.520  15.084   2.709
 9540W        W81855   5.330  29.096  13.527
 9541W        W81856   7.846  28.538   2.387
 9542W        W81857  32.885  11.200  13.978
 9543W        W81858  30.157  33.118  14.325
 9544W        W81859  25.554  37.451   3.699
 9545W        W81860   9.694  26.104  11.497
 9546W        W81861  11.729  31.409  14.991
 9547W        W81862  22.547  21.744   9.464
 9548W        W81863  42.435  21.166  10.048
 9549W        W81864  41.949   6.210  12.917
 9550W        W81865  15.709  41.388  14.486
 9551W        W81866   8.240  36.466  12.397
 9552W        W81867  27.577   3.455  11.612
 9553W        W81868  12.310   6.802   2.323
 9554W        W81869  11.788   5.376   4.190
 9555W        W81870  18.269   4.288   4.200
 9556W        W81871   4.338  34.436  13.813
 9557W        W81872  38.961  21.178   2.775
 9558W        W81873  40.547  21.525  12.922
 9559W        W81874  41.943  24.515   1.819
 9560W        W81875  43.867  19.635  10.445
 9561W        W81876  34.523  30.533   4.679
 9562W        W81877  27.103  24.156  11.019
 9563W        W81878  44.971  36.921  11.463
 9564W        W81879   3.755  40.829   4.288
 9565W        W81880  26.461  23.489  13.500
 9566W        W81881  41.404   8.882   0.308
 9567W        W81882  22.169   2.867  11.997
 9568W        W81883  27.008   5.397   4.172
 9569W        W81884  20.524  14.260  14.447
 9570W        W81885  18.778  22.591  14.829
 9571W        W81886  18.281   1.899  11.434
 9572W        W81887  29.133  13.731  13.879
 9573W        W81888  19.731  30.931  14.513
 9574W        W81889  40.412  30.134   3.179
 9575W        W81890  11.222  11.232  14.326
 9576W        W81891  12.282  27.634   4.351
 9577W        W81892  36.927  21.216  14.017
 9578W        W81893  39.324  16.574  10.618
 9579W        W81894   0.471   0.475   3.207
 9580W        W81895  18.782  16.759  11.961
 9581W        W81896  18.752  20.182   4.268
 9582W        W81897  41.409  17.284  11.083
 9583W        W81898  19.225  20.756  12.010
 9584W        W81899   3.796   0.249  12.934
 9585W        W81900  15.146  32.991  14.807
 9586W        W81901  12.136  29.919  11.904
 9587W        W81902  26.614  42.866   3.210
 9588W        W81903  39.886  14.706   0.272
 9589W        W81904  40.499  24.620  13.495
 9590W        W81905  41.481  27.568   3.768
 9591W        W81906  26.092  29.115   3.777
 9592W        W81907  44.358  39.930  13.331
 9593W        W81908  18.706   9.153   3.715
 9594W        W81909  19.623  23.604  14.514
 9595W        W81910  10.220  28.001   1.443
 9596W        W81911   9.862  38.905   4.281
 9597W        W81912  31.546  38.956  10.971
 9598W        W81913  23.614  17.185   3.294
 9599W        W81914  10.166  37.989   0.253
 9600W        W81915  25.534  12.852  12.055
 9601W        W81916  38.936  37.053  13.873
 9602W        W81917  36.933   9.786   0.953
 9603W        W81918  41.297  18.231  10.461
 9604W        W81919   4.310  27.605  14.956
 9605W        W81920  10.297  31.973   3.643
 9606W        W81921  21.662   3.813  14.341
 9607W        W81922  21.601  22.567   1.261
 9608W        W81923  11.763  43.867  10.598
 9609W        W81924  16.678  34.552  12.942
 9610W        W81925  29.663  17.725   2.286
 9611W        W81926  15.301  42.899  12.411
 9612W        W81927  11.169  30.043   1.906
 9613W        W81928  32.072   4.217  11.033
 9614W        W81929  11.700  22.653  14.291
 9615W        W81930  24.227   0.271  12.374
 9616W        W81931  17.608   9.353   0.328
 9617W        W81932   3.778   2.946   2.824
 9618W        W81933  43.998  43.009   3.806
 9619W        W81934  15.646  23.722   2.332
 9620W        W81935  21.577  37.034   0.854
 9621W        W81936   8.380  33.387   1.433
 9622W        W81937  32.424  16.624   4.800
 9623W        W81938  11.861  20.174   0.433
 9624W        W81939  17.564   1.262   1.748
 9625W        W81940  33.569   2.844   2.732
 9626W        W81941   5.277  27.153  14.294
 9627W        W81942  11.178  26.535   4.828
 9628W        W81943   4.324  15.628  14.827
 9629W        W81944  29.424  33.508   3.161
 9630W        W81945  35.511   5.790   1.449
 9631W        W81946   2.830  37.410   3.645
 9632W        W81947  32.084   0.337   2.203
 9633W        W81948   8.374  43.956  12.508
 9634W        W81949  11.848  18.613   1.878
 9635W        W81950  36.961  39.369   0.467
 9636W        W81951  29.943  36.568   2.288
 9637W        W81952  36.069  33.019   3.181
 9638W        W81953  17.231  14.132   3.738
 9639W        W81954  43.472  29.528  10.538
 9640W        W81955  32.040  27.049   3.260
 9641W        W81956   4.212  31.006  11.918
 9642W        W81957  33.914  33.939  12.854
 9643W        W81958  43.513  11.292   5.280
 9644W        W81959   0.797   6.229  14.387
 9645W        W81960  14.247  44.294  14.514
 9646W        W81961   1.344  25.061   2.815
 9647W        W81962   5.392  16.797   4.758
 9648W        W81963  21.143  32.133   9.934
 9649W        W81964  38.354   4.441   3.343
 9650W        W81965  25.510  24.667   3.310
 9651W        W81966  40.974  16.127  11.526
 9652W        W81967  42.024  27.172   2.324
 9653W        W81968  44.318  14.697   1.929
 9654W        W81969  19.042   0.336  10.434
 9655W        W81970  29.976  16.586   3.159
 9656W        W81971  28.058  19.581   3.705
 9657W        W81972  29.427  13.151  12.998
 9658W        W81973   7.808  24.169  14.293
 9659W        W81974   3.302  11.320   0.301
 9660W        W81975  33.585  17.207  10.099
 9661W        W81976  26.526  43.366   4.601
 9662W        W81977  18.562  33.558  14.931
 9663W        W81978  15.209  35.933  11.521
 9664W        W81979  38.003  11.336   0.380
 9665W        W81980  17.268  17.559   1.776
 9666W        W81981   7.825  10.811  14.408
 9667W        W81982  33.471  38.858   3.848
 9668W        W81983  38.465  33.002  11.924
 9669W        W81984   8.687  29.585  13.849
 9670W        W81985  20.041   7.203   3.825
 9671W        W81986  40.926   7.197   3.716
 9672W        W81987  11.244  13.778  12.987
 9673W        W81988  37.513  29.096   4.150
 9674W        W81989  24.607  38.996   9.955
 9675W        W81990  24.501   2.366  10.639
 9676W        W81991  43.425  38.476  13.797
 9677W        W81992  42.398  30.655  10.509
 9678W        W81993  28.557  44.369   3.208
 9679W        W81994  32.918   2.772   4.801
 9680W        W81995   5.858  12.811  11.490
 9681W        W81996  44.370  24.974   5.137
 9682W        W81997   9.841  38.060  14.497
 9683W        W81998   9.265  39.924  12.977
 9684W        W81999  27.950  39.841   2.736
 9685W        W82000   1.390   6.254  11.461
 9686W        W82001  10.805  38.552  12.412
 9687W        W82002  41.457  23.994   0.827
 9688W        W82003   7.908  12.759  14.759
 9689W        W82004   8.340  38.012   3.808
 9690W        W82005   8.795  25.618   0.727
 9691W        W82006  27.074   4.421   4.168
 9692W        W82007  22.699  20.534   4.191
 9693W        W82008   2.797  30.611   0.383
 9694W        W82009  20.103  30.069   0.439
 9695W        W82010   5.423  22.244  14.913
 9696W        W82011   8.336  27.951  13.413
 9697W        W82012  28.053  27.519   0.424
 9698W        W82013  26.645  18.190   4.747
 9699W        W82014   4.261  39.869   0.907
 9700W        W82015  18.208  13.635   4.229
 9701W        W82016  30.106  19.747  11.070
 9702W        W82017  40.354   6.189  11.980
 9703W        W82018   3.783  24.061  10.587
 9704W        W82019  19.191  22.094  14.456
 9705W        W82020  25.176  13.178  10.918
 9706W        W82021   9.801  40.975   2.373
 9707W        W82022  16.259  16.296  14.864
 9708W        W82023   8.310  19.281  12.480
 9709W        W82024  38.936  44.377   3.336
 9710W        W82025  40.837  23.640  14.931
 9711W        W82026  10.752   4.320   3.315
 9712W        W82027  43.380  21.232   0.837
 9713W        W82028  19.236   2.421   3.381
 9714W        W82029  15.808  27.519   0.302
 9715W        W82030  39.033  41.840  11.490
 9716W        W82031  34.991  16.793  12.074
 9717W        W82032  35.598  27.504   2.766
 9718W        W82033  33.071  31.034   1.787
 9719W        W82034  10.214  19.056   0.305
 9720W        W82035  17.711  32.424  14.303
 9721W        W82036  24.632  22.089   0.290
 9722W        W82037   4.732   3.242  14.774
 9723W        W82038  28.528  18.622   0.882
 9724W        W82039  39.327  30.567   4.820
 9725W        W82040  23.236   2.452   1.328
 9726W        W82041   7.812  42.373  11.113
 9727W        W82042  34.440  19.164  13.425
 9728W        W82043  27.646  21.601   2.848
 9729W        W82044  40.488  30.465  13.062
 9730W        W82045  23.009  31.987  13.954
 9731W        W82046   9.284  35.998   1.783
 9732W        W82047   0.285  32.903  11.586
 9733W        W82048  33.005  19.736   2.353
 9734W        W82049   9.249   3.888  12.863
 9735W        W82050  32.022  43.017  12.455
 9736W        W82051  16.223  35.414  10.514
 9737W        W82052  36.071   1.399  13.901
 9738W        W82053  26.627  20.550  12.369
 9739W        W82054  36.456  23.703   1.891
 9740W        W82055  38.448  18.579  10.984
 9741W        W82056  32.593  41.398  13.328
 9742W        W82057  38.959  30.468   3.274
 9743W        W82058   8.739  35.481  10.522
 9744W        W82059  26.065  27.058   2.222
 9745W        W82060  20.267   9.274   0.794
 9746W        W82061  21.115  39.433   4.186
 9747W        W82062  15.183  30.531   0.361
 9748W        W82063  18.559   2.369  13.879
 9749W        W82064  20.225  19.735  10.472
 9750W        W82065  19.198  20.759  12.565
 9751W        W82066  18.140  27.509   3.308
 9752W        W82067   7.356  31.085  14.479
 9753W        W82068  17.273  41.937   3.713
 9754W        W82069  41.355   7.365   4.334
 9755W        W82070  28.976   2.354   1.231
 9756W        W82071  33.543  11.353  13.858
 9757W        W82072  33.992  15.791   3.273
 9758W        W82073   1.833  10.678   5.611
 9759W        W82074  29.480  11.778  12.476
 9760W        W82075  32.916  29.971   3.364
 9761W        W82076  12.223  44.827  14.352
 9762W        W82077  25.149  37.927   3.314
 9763W        W82078   3.930   7.775  10.940
 9764W        W82079  15.753  16.168  11.101
 9765W        W82080  42.452   8.296  11.911
 9766W        W82081   5.738  21.539  11.900
 9767W        W82082   3.241   0.873  12.355
 9768W        W82083  37.987  12.699   4.311
 9769W        W82084  29.669  35.012   0.924
 9770W        W82085   1.921   1.936   2.281
 9771W        W82086  28.041   6.745   4.156
 9772W        W82087   6.270   9.162   0.377
 9773W        W82088  18.720  15.697  11.974
 9774W        W82089  17.283  28.478   0.445
 9775W        W82090  20.684  35.920  13.478
 9776W        W82091  30.509  17.764   1.357
 9777W        W82092  39.337  34.438  11.591
 9778W        W82093  42.912  13.312  13.307
 9779W        W82094  11.335  19.777  10.973
 9780W        W82095  13.198   1.361  11.871
 9781W        W82096  39.490   6.239   4.675
 9782W        W82097  32.406   8.679   2.783
 9783W        W82098   0.391  37.389  11.452
 9784W        W82099  39.870  17.781  13.343
 9785W        W82100  12.128  18.661   0.436
 9786W        W82101  43.409   4.245   0.326
 9787W        W82102  32.391   2.359  11.036
 9788W        W82103  27.495  14.242  14.026
 9789W        W82104   6.754  35.069  13.836
 9790W        W82105  31.121  41.426  13.474
 9791W        W82106   7.337  37.050  14.378
 9792W        W82107  32.617  17.278   0.872
 9793W        W82108  17.279  29.077  13.833
 9794W        W82109   4.286  42.008  11.968
 9795W        W82110  42.455  12.241  13.005
 9796W        W82111  20.746  21.730   1.315
 9797W        W82112  43.791  22.146  11.410
 9798W        W82113  31.941  18.570  10.468
 9799W        W82114  15.794  21.217   2.795
 9800W        W82115   3.758  38.460   3.729
 9801W        W82116  27.991   3.794  12.899
 9802W        W82117   5.865  16.578   0.961
 9803W        W82118  13.105  31.616   3.828
 9804W        W82119  39.875   4.932   2.665
 9805W        W82120  12.676  39.871   4.129
 9806W        W82121  35.464   5.218  12.869
 9807W        W82122  41.983  25.113  14.807
 9808W        W82123  22.236  41.006   2.220
 9809W        W82124  43.800  26.067  14.991
 9810W        W82125  24.126  22.175   0.938
 9811W        W82126  17.738  21.631  14.985
 9812W        W82127  43.797  26.081  13.941
 9813W        W82128  43.322   5.694  14.368
 9814W        W82129   3.448  36.960   1.856
 9815W        W82130  16.807   9.647  13.454
 9816W        W82131  37.402   8.233   2.310
 9817W        W82132   1.311   3.314   4.701
 9818W        W82133  24.180   7.342   1.432
 9819W        W82134   9.252  30.619  13.473
 9820W        W82135  27.636  43.834  11.013
 9821W        W82136  10.138  37.983  12.361
 9822W        W82137  36.974  26.566  14.920
 9823W        W82138  36.034   9.277   2.746
 9824W        W82139  34.013  22.652   3.806
 9825W        W82140  32.520   3.760  11.493
 9826W        W82141  41.391  41.787  10.607
 9827W        W82142  34.540  44.954   3.679
 9828W        W82143  23.995   6.402   4.227
 9829W        W82144   0.830   7.326   4.598
 9830W        W82145  20.553   2.436   0.793
 9831W        W82146  28.661  10.765  11.463
 9832W        W82147  29.074   5.918  14.504
 9833W        W82148   9.680  30.161  12.489
 9834W        W82149  19.568  34.034   2.663
 9835W        W82150  31.503  40.452   0.354
 9836W        W82151  11.233  29.666   2.794
 9837W        W82152  26.037   7.733   1.882
 9838W        W82153  32.059  44.951  13.796
 9839W        W82154  39.560  28.943   2.360
 9840W        W82155   2.296   1.251   3.210
 9841W        W82156  13.145  24.998   1.923
 9842W        W82157   6.882   1.336   3.340
 9843W        W82158  43.006   2.812  10.937
 9844W        W82159  37.022  37.554  11.933
 9845W        W82160  40.543   4.390   4.277
 9846W        W82161   7.699  10.640   1.320
 9847W        W82162   9.762  20.557   0.314
 9848W        W82163  16.212  18.126   3.824
 9849W        W82164  14.764  30.492   5.313
 9850W        W82165  23.121  37.537   5.269
 9851W        W82166  20.055   0.454   0.312
 9852W        W82167  39.530  13.702   1.851
 9853W        W82168  29.052  11.172   0.377
 9854W        W82169  41.909  26.194   4.664
 9855W        W82170  23.094  34.924   0.245
 9856W        W82171   7.345   3.771   0.265
 9857W        W82172  13.747  29.975  11.455
 9858W        W82173  27.630  30.951  14.398
 9859W        W82174  25.702  12.653  10.638
 9860W        W82175  39.973  33.095   0.807
 9861W        W82176  12.775  22.682   0.737
 9862W        W82177  33.565   5.279   2.894
 9863W        W82178  25.216  21.712  11.991
 9864W        W82179   8.842  34.087  14.461
 9865W        W82180  21.138   5.426   4.237
 9866W        W82181  42.287  23.687   0.941
 9867W        W82182  37.569   7.267  11.389
 9868W        W82183  17.239   7.855  10.579
 9869W        W82184  42.333  19.632  14.308
 9870W        W82185  22.056  30.059  13.389
 9871W        W82186   6.326  19.217   3.319
 9872W        W82187  42.792  15.275  13.827
 9873W        W82188  43.470  39.519  13.415
 9874W        W82189  26.978  27.026   1.281
 9875W        W82190  12.256  27.637  11.446
 9876W        W82191   3.912  13.656  10.925
 9877W        W82192  19.281   9.654   2.859
 9878W        W82193  44.998  18.289  11.491
 9879W        W82194  12.299  21.754  12.942
 9880W        W82195   4.308  38.995   1.888
 9881W        W82196  33.075  27.501   1.808
 9882W        W82197  40.914  17.611   0.453
 9883W        W82198  39.901  11.717   4.814
 9884W        W82199  23.641  25.125  11.937
 9885W        W82200  41.375  26.999   3.183
 9886W        W82201  26.043  10.687   4.169
 9887W        W82202  44.865   7.686   4.650
 9888W        W82203  17.270  44.780   1.390
 9889W        W82204  28.135  31.131   3.271
 9890W        W82205  15.740  19.177   0.324
 9891W        W82206  28.643   8.357  10.950
 9892W        W82207  19.773   3.786  10.591
 9893W        W82208   8.798  18.226   2.208
 9894W        W82209  38.915  14.272  12.850
 9895W        W82210  23.500  25.680  14.853
 9896W        W82211  11.253  42.414  10.458
 9897W        W82212  29.567  31.079  11.569
 9898W        W82213  16.184   5.379   2.272
 9899W        W82214  11.715  41.514   2.286
 9900W        W82215  42.890  28.615  11.508
 9901W        W82216  24.603   1.833  11.461
 9902W        W82217  27.995  11.352  14.448
 9903W        W82218  13.781  32.018   2.816
 9904W        W82219  23.085  27.487   1.280
 9905W        W82220  28.153   1.346   0.768
 9906W        W82221  11.659  30.642   1.373
 9907W        W82222  27.541  33.549  10.991
 9908W        W82223  27.612  14.211  14.411
 9909W        W82224   6.195  14.793   2.768
 9910W        W82225  43.382   4.931   0.753
 9911W        W82226  21.523  39.518  13.836
 9912W        W82227  27.618  18.647  14.333
 9913W        W82228   5.406   6.332   1.695
 9914W        W82229  33.898  43.369   4.210
 9915W        W82230  25.205   0.935  10.555
 9916W        W82231  37.542  43.457   3.777
 9917W        W82232   4.752  43.884  14.842
 9918W        W82233  34.883  38.942  11.995
 9919W        W82234  10.242  20.052   1.736
 9920W        W82235  14.810  16.735  10.537
 9921W        W82236   8.703  40.476   1.428
 9922W        W82237  29.571  21.031   2.770
 9923W        W82238  35.507  20.589  13.523
 9924W        W82239  13.311  13.270  13.929
 9925W        W82240  37.872  22.529   4.145
 9926W        W82241  42.810  16.102  13.904
 9927W        W82242  26.962  17.219  10.112
 9928W        W82243  18.093  20.118  13.021
 9929W        W82244   6.782   3.273   0.898
 9930W        W82245  26.697   0.390   1.752
 9931W        W82246  43.776  44.484   0.430
 9932W        W82247  41.813  34.088  13.386
 9933W        W82248  26.029   6.824   1.433
 9934W        W82249  19.775   1.341  12.478
 9935W        W82250   6.242  12.135  11.873
 9936W        W82251   1.247   8.192   0.256
 9937W        W82252  19.212  39.343   3.636
 9938W        W82253  29.171  40.879   3.305
 9939W        W82254  42.987  32.428   3.304
 9940W        W82255  22.591  40.812   0.386
 9941W        W82256  16.130  36.946   4.295
 9942W        W82257  42.363  15.718   3.747
 9943W        W82258  18.076  11.242  12.530
 9944W        W82259  27.560  34.971   2.412
 9945W        W82260  25.709  15.267  13.375
 9946W        W82261  30.485  12.167   0.311
 9947W        W82262  41.832   8.337   1.829
 9948W        W82263  18.768  37.378  11.431
 9949W        W82264  13.828  16.605   2.217
 9950W        W82265  14.223   0.469  10.620
 9951W        W82266  17.078   1.472   3.636
 9952W        W82267   2.743  20.546   0.780
 9953W        W82268   7.905  21.658   1.733
 9954W        W82269  15.177  15.577  13.397
 9955W        W82270  35.414  31.016   4.806
 9956W        W82271  21.234  13.755   0.867
 9957W        W82272  20.198  43.311  14.954
 9958W        W82273  11.373  28.645  10.952
 9959W        W82274   9.878   9.873  14.320
 9960W        W82275  27.093  37.541  13.889
 9961W        W82276  34.539  17.209  13.796
 9962W        W82277  39.443  36.977  12.000
 9963W        W82278   3.721   2.738  10.456
 9964W        W82279   5.761  30.968   1.262
 9965W        W82280   7.366  41.911   0.774
 9966W        W82281  29.477  12.722  14.942
 9967W        W82282   5.731  43.439   4.631
 9968W        W82283  14.644  36.445   1.307
 9969W        W82284  17.092  20.759   0.472
 9970W        W82285  33.929  30.520   0.942
 9971W        W82286  36.430  11.652   3.271
 9972W        W82287  28.157  25.159   4.677
 9973W        W82288   1.787  25.039  14.438
 9974W        W82289  44.457  42.799   1.319
 9975W        W82290  41.854  31.643   3.798
 9976W        W82291   4.924  11.725  12.532
 9977W        W82292  35.362  26.166   4.632
 9978W        W82293  28.078  13.127   4.673
 9979W        W82294  29.923   5.799   4.257
 9980W        W82295  25.556  42.968  12.379
 9981W        W82296  34.992  19.738   4.176
 9982W        W82297   6.301  42.332   0.269
 9983W        W82298   4.446  18.065   0.763
 9984W        W82299  42.860  21.702   3.689
 9985W        W82300   6.701  34.600   3.702
 9986W        W82301  44.873   2.944  14.834
 9987W        W82302  11.634   8.372   0.370
 9988W        W82303  41.016  14.248   2.197
 9989W        W82304  42.503  27.137  11.520
 9990W        W82305  11.234  41.009   0.269
 9991W        W82306  29.612  14.194  13.818
 9992W        W82307  38.924  42.799  10.979
 9993W        W82308  15.717   5.813   0.754
 9994W        W82309  22.727  36.347  12.002
 9995W        W82310  18.642  39.842   2.242
 9996W        W82311   4.371  16.318   2.886
 9997W        W82312  19.123  37.925  11.027
 9998W        W82313  20.649  41.015   0.745
 9999W        W82314  23.506  19.708   1.884
10000W        W82315  22.103  14.131   1.258
10001W        W82316  33.964   2.949  13.420
10002W        W82317  24.711  32.573   3.706
10003W        W82318  22.718  20.598  11.493
10004W        W82319  21.189  16.621   0.469
10005W        W82320  12.661  12.729  10.420
10006W        W82321  38.834  28.053   5.174
10007W        W82322  34.504  21.674   4.271
10008W        W82323  19.672   0.354   2.742
10009W        W82324  40.889   1.845   2.824
10010W        W82325  32.531  41.474  13.911
10011W        W82326   6.241  44.460   5.183
10012W        W82327  20.646  16.211  11.072
10013W        W82328  25.125  40.842   0.823
10014W        W82329  20.079  20.238  13.389
10015W        W82330  17.295  41.824  13.439
10016W        W82331   3.915  44.945  14.995
10017W        W82332  44.326  20.075  11.058
10018W        W82333  23.709   5.216  14.401
10019W        W82334  26.147  39.846   4.114
10020W        W82335  17.748   7.404   0.929
10021W        W82336  19.752  18.293   1.294
10022W        W82337  28.081  11.648   5.245
10023W        W82338  15.662  26.199  13.447
10024W        W82339   6.380  18.718  10.970
10025W        W82340   8.831  12.655   0.806
10026W        W82341  41.958  18.180  11.411
10027W        W82342  43.463  31.548  11.089
10028W        W82343  32.467   9.713   0.753
10029W        W82344  22.059  15.315   2.759
10030W        W82345  27.948   7.403  12.998
10031W        W82346  39.427   1.253   4.799
10032W        W82347  27.639   4.243   4.773
10033W        W82348   1.384  36.453   4.223
10034W        W82349  31.437  28.559  13.464
10035W        W82350  24.703   6.207  10.483
10036W        W82351   5.850  24.105   0.888
10037W        W82352   6.702   1.297  12.939
10038W        W82353  11.823  23.692   4.221
10039W        W82354  40.316  43.427  14.937
10040W        W82355   4.731  38.900  13.368
10041W        W82356  35.987  36.557  13.925
10042W        W82357  38.512  10.786   4.319
10043W        W82358  11.740  26.535   2.403
10044W        W82359  44.934  14.110  12.872
10045W        W82360  20.750  42.781  14.388
10046W        W82361   7.854  18.579   0.806
10047W        W82362   3.264  33.436  12.983
10048W        W82363  34.877  37.449  12.005
10049W        W82364  29.147  11.827  13.356
10050W        W82365  40.456  22.617  11.473
10051W        W82366  11.141  28.020  10.593
10052W        W82367  23.653  25.132   1.351
10053W        W82368  31.621  21.102   2.704
10054W        W82369  27.590   9.729  12.864
10055W        W82370  11.237  18.196   5.250
10056W        W82371  14.172  19.100   2.305
10057W        W82372  10.189  20.599  11.376
10058W        W82373   4.445   6.348   2.290
10059W        W82374  24.496   3.830  14.926
10060W        W82375   8.847  43.975   1.875
10061W        W82376   4.338  29.664  14.467
10062W        W82377   9.757  22.117   1.402
10063W        W82378  10.790  24.110  12.441
10064W        W82379  20.657  41.803   2.897
10065W        W82380  24.161  18.249   2.377
10066W        W82381  10.655   6.192  12.478
10067W        W82382  34.470  40.879   0.943
10068W        W82383  27.544  22.586  12.511
10069W        W82384  42.478  25.066   1.854
10070W        W82385  30.058  13.635   3.201
10071W        W82386  42.355  21.114  13.060
10072W        W82387  18.156  11.365  14.861
10073W        W82388  34.543  37.990   3.630
10074W        W82389  35.974  28.492   1.241
10075W        W82390   6.415  13.213   0.425
10076W        W82391  36.359  23.069  13.406
10077W        W82392   2.250   5.410   0.935
10078W        W82393  12.667  24.118  13.022
10079W        W82394   1.750  36.074  13.524
10080W        W82395  24.088  22.508  13.406
10081W        W82396   7.697  24.543  14.964
10082W        W82397   0.773  35.500  14.925
10083W        W82398   1.963  32.619  12.469
10084W        W82399  28.001   0.389  11.010
10085W        W82400  25.184  24.027  10.954
10086W        W82401  17.685   1.916  14.373
10087W        W82402   6.421  39.013   0.922
10088W        W82403  37.896  38.556   2.876
10089W        W82404  35.068  20.696  12.034
10090W        W82405  20.196  19.687   5.311
10091W        W82406  32.939  29.101  13.980
10092W        W82407   5.931  12.811   0.853
10093W        W82408  44.761  34.986   0.262
10094W        W82409   8.286  23.505  12.385
10095W        W82410   9.837  31.904   4.821
10096W        W82411  22.522  21.536   4.686
10097W        W82412   6.253  15.225   1.760
10098W        W82413  12.330  42.012  13.033
10099W        W82414  29.659  38.853   0.341
10100W        W82415  18.280   8.325   0.781
10101W        W82416   2.725  15.733  10.641
10102W        W82417  34.954  18.275  11.026
10103W        W82418  37.558   7.216  13.987
10104W        W82419  13.649   4.839   0.745
10105W        W82420  14.336  34.604  10.547
10106W        W82421  26.081   7.867  12.942
10107W        W82422  12.662   8.732   3.198
10108W        W82423  17.222  40.924   9.439
10109W        W82424   2.791   9.761   1.267
10110W        W82425  17.738   5.201   4.244
10111W        W82426  25.971  22.013   1.221
10112W        W82427   1.418  17.287   4.288
10113W        W82428   4.704  42.500   3.288
10114W        W82429  43.395  13.120   4.164
10115W        W82430   4.242   3.450   2.402
10116W        W82431  44.928  38.827   1.393
10117W        W82432  35.384   9.255  13.928
10118W        W82433   9.318  42.929   4.703
10119W        W82434  15.759  27.470  14.957
10120W        W82435  16.654  23.496   4.261
10121W        W82436   1.888  39.473  10.900
10122W        W82437  20.177  41.984  11.479
10123W        W82438   2.903  34.118   0.967
10124W        W82439  24.229  38.856  10.080
10125W        W82440  27.107  32.075  12.511
10126W        W82441  38.869  44.375  10.483
10127W        W82442  12.118  28.014  13.986
10128W        W82443  24.557  21.545  13.459
10129W        W82444   6.203  36.455  13.386
10130W        W82445  10.366  20.767  14.414
10131W        W82446  40.493  11.728  13.804
10132W        W82447  44.777  31.125  10.958
10133W        W82448   0.743  21.612  10.925
10134W        W82449  23.670  26.079   3.195
10135W        W82450  37.878   6.358  11.414
10136W        W82451   8.822   3.380   0.734
10137W        W82452   1.934   7.828  12.970
10138W        W82453  40.974  15.800   2.733
10139W        W82454   9.193  35.536  11.068
10140W        W82455   7.181  12.277   1.849
10141W        W82456  37.086   3.290  12.912
10142W        W82457  36.889  16.613   2.861
10143W        W82458  14.215  11.634   4.722
10144W        W82459  35.406  31.129  14.429
10145W        W82460  40.017  25.493   1.347
10146W        W82461   7.365   4.351   4.283
10147W        W82462  37.060  28.555  13.323
10148W        W82463  33.080  20.756   2.355
10149W        W82464  40.341  30.553   4.248
10150W        W82465  15.295  17.567  11.490
10151W        W82466  18.544  23.735  12.027
10152W        W82467  11.675  33.934   3.287
10153W        W82468  30.989  20.706   3.760
10154W        W82469  14.253  22.718  11.028
10155W        W82470   3.221   2.423  13.540
10156W        W82471  42.503  22.647  12.541
10157W        W82472  41.008   9.819   2.358
10158W        W82473  31.021  15.712   1.429
10159W        W82474   6.895  30.144  11.983
10160W        W82475   4.718  34.602   0.251
10161W        W82476  36.455  20.152  13.948
10162W        W82477  31.128  19.260   0.398
10163W        W82478  26.488  14.672   0.764
10164W        W82479   0.961   6.281   4.236
10165W        W82480  26.583   2.381   0.264
10166W        W82481  42.825  14.241   2.244
10167W        W82482  31.111  31.514   0.835
10168W        W82483  33.933  31.584  13.372
10169W        W82484  37.831  36.575  12.580
10170W        W82485  20.146  17.189   3.301
10171W        W82486  28.047   1.944  12.392
10172W        W82487   4.253   0.394  11.983
10173W        W82488  18.219  38.330   1.850
10174W        W82489   5.299  26.036   4.247
10175W        W82490  41.011  40.986   4.120
10176W        W82491  26.502  35.493  14.401
10177W        W82492  38.455  41.906  14.880
10178W        W82493  39.405   8.298  13.010
10179W        W82494  35.086  31.028   3.810
10180W        W82495  15.601  21.548   1.279
10181W        W82496  16.218  28.159   1.228
10182W        W82497  19.107   6.346  12.352
10183W        W82498  34.521  10.280  13.382
10184W        W82499  25.106  24.145  13.463
10185W        W82500   2.905  13.745  14.853
10186W        W82501  42.527  37.363  12.425
10187W        W82502  27.156  11.308  14.434
10188W        W82503  39.861  26.207  10.587
10189W        W82504   5.860   2.758  11.573
10190W        W82505  33.590   9.220   1.241
10191W        W82506  12.215   3.714   1.229
10192W        W82507  19.775  43.914   0.839
10193W        W82508  30.107  32.053   1.421
10194W        W82509  42.350  13.774   3.725
10195W        W82510   8.240  21.075   2.751
10196W        W82511   2.285  10.730  12.513
10197W        W82512  16.812  22.660   4.751
10198W        W82513   2.963  42.484   0.266
10199W        W82514  17.617  10.755  11.107
10200W        W82515  36.538  11.697   9.944
10201W        W82516  36.464  19.564   4.318
10202W        W82517  22.640  34.444   2.414
10203W        W82518  18.680   2.274  11.989
10204W        W82519  25.015  25.154  14.426
10205W        W82520  31.092  27.136  12.892
10206W        W82521  12.309  15.602  13.014
10207W        W82522  41.459   6.416   3.655
10208W        W82523  22.120  25.612   3.644
10209W        W82524  28.529  29.543  12.042
10210W        W82525  12.266  26.617  10.538
10211W        W82526  31.958   6.320   5.177
10212W        W82527  14.152  43.796   0.854
10213W        W82528  29.938  35.023   1.802
10214W        W82529  15.111  37.395  11.128
10215W        W82530  24.617  25.671  10.453
10216W        W82531   7.279  12.320  10.583
10217W        W82532  34.951  33.590  10.639
10218W        W82533  30.947  25.148  11.960
10219W        W82534  24.999  42.461  13.402
10220W        W82535  20.729   3.394  13.876
10221W        W82536   2.788   4.703  12.009
10222W        W82537  18.267  11.285   0.803
10223W        W82538  23.143  15.177   2.320
10224W        W82539  24.996  20.195   4.240
10225W        W82540   7.853   2.887   4.598
10226W        W82541  22.562   9.217  12.357
10227W        W82542  20.685   7.717  11.409
10228W        W82543  11.336  42.017   2.272
10229W        W82544  30.156  13.190   2.667
10230W        W82545  37.374  18.748  10.606
10231W        W82546  15.645  13.691   4.726
10232W        W82547  44.824  30.444   0.797
10233W        W82548  40.885  18.692  13.961
10234W        W82549  20.574  44.977   3.229
10235W        W82550  34.062  17.136  11.450
10236W        W82551  24.525  35.018  12.459
10237W        W82552  26.021  10.657  14.838
10238W        W82553  35.580  40.398   2.808
10239W        W82554  41.479  18.595   3.637
10240W        W82555  41.923  34.611   0.873
10241W        W82556  34.593  21.610  14.944
10242W        W82557  35.061   2.393  13.801
10243W        W82558   6.219  41.816   2.297
10244W        W82559  22.600  18.156   4.761
10245W        W82560  12.650   4.765   4.672
10246W        W82561   2.415  42.288  13.803
10247W        W82562   4.304   6.784   3.690
10248W        W82563  12.359   0.932   2.216
10249W        W82564   9.648   3.375  14.356
10250W        W82565  24.656  43.375   2.271
10251W        W82566   7.397  22.687   0.902
10252W        W82567  10.252  23.138  11.002
10253W        W82568  19.069   0.372  13.346
10254W        W82569   5.324  14.133   3.753
10255W        W82570  21.727   2.728  10.615
10256W        W82571  31.548   0.856   2.266
10257W        W82572  27.510  26.004   1.403
10258W        W82573   0.456   2.263  12.080
10259W        W82574  23.689   9.346  13.330
10260W        W82575  17.088  42.801   1.295
10261W        W82576  42.003  42.505   4.617
10262W        W82577  25.034  30.496  14.295
10263W        W82578  26.612   5.330   3.204
10264W        W82579  35.890  37.364   2.328
10265W        W82580   4.855  31.940  12.482
10266W        W82581   7.809  30.115  12.843
10267W        W82582  14.330  40.530   4.603
10268W        W82583  12.308  34.444  13.487
10269W        W82584  39.811   1.838  11.399
10270W        W82585  13.824  36.448  13.375
10271W        W82586  41.004   2.286   3.192
10272W        W82587  35.986  38.385   1.771
10273W        W82588  32.996   9.314   3.260
10274W        W82589  38.973  20.704   1.269
10275W        W82590  34.938   0.464   0.914
10276W        W82591  11.819  42.969  14.824
10277W        W82592  15.781   7.269  11.875
10278W        W82593  38.375  43.955   1.806
10279W        W82594  23.726  24.690  10.573
10280W        W82595   1.920  19.260  10.407
10281W        W82596  41.862  40.487  11.040
10282W        W82597  43.999   0.470   0.404
10283W        W82598   2.955  26.114  14.437
10284W        W82599   6.737  11.357   3.224
10285W        W82600  40.420  35.592  14.951
10286W        W82601  17.662  17.133  14.795
10287W        W82602  31.580  40.905   0.910
10288W        W82603  11.735  25.037   4.756
10289W        W82604  15.300  14.247   4.630
10290W        W82605  36.036  44.928  11.432
10291W        W82606   2.379  26.485   3.790
10292W        W82607   4.431  15.759   3.860
10293W        W82608  10.817  34.107  12.881
10294W        W82609  10.297   1.458  13.978
10295W        W82610  39.440  20.678   4.619
10296W        W82611  40.548  44.902   4.167
10297W        W82612  34.485  38.891  12.836
10298W        W82613  36.531  23.198   4.305
10299W        W82614  36.928  40.804   0.413
10300W        W82615   8.229  43.887   1.335
10301W        W82616  41.993  25.106  13.959
10302W        W82617   8.760  44.955  11.881
10303W        W82618   5.809  22.672   4.328
10304W        W82619   1.447  29.933   4.210
10305W        W82620  35.013  13.193   3.839
10306W        W82621  36.937  41.883  14.864
10307W        W82622  14.748  37.368   2.409
10308W        W82623  14.182   2.903  11.956
10309W        W82624  36.968  11.828   1.851
10310W        W82625  19.205  18.766  14.932
10311W        W82626  27.994   3.822   1.804
10312W        W82627  21.180  21.235   3.647
10313W        W82628  38.388  28.472  14.462
10314W        W82629  22.106  39.368  12.021
10315W        W82630  40.536  34.895  12.002
10316W        W82631  12.733  12.836  12.976
10317W        W82632  42.836  12.121  13.055
10318W        W82633   5.371   4.402  13.018
10319W        W82634  14.749  34.503   4.337
10320W        W82635   7.747  12.245   3.643
10321W        W82636  22.251  19.276   1.388
10322W        W82637  20.762   6.796   0.262
10323W        W82638  41.328   9.171   2.842
10324W        W82639  43.773  32.432  10.454
10325W        W82640  40.465   0.821  11.882
10326W        W82641  16.189  12.753  12.002
10327W        W82642  28.974  13.218   4.674
10328W        W82643  41.024  32.569   3.339
10329W        W82644  28.929  11.685  11.525
10330W        W82645  14.139  43.805  13.363
10331W        W82646  36.347  30.551   4.168
10332W        W82647  35.061  30.110   0.784
10333W        W82648  42.806  23.696  13.478
10334W        W82649  29.138  28.639   1.755
10335W        W82650   2.959   4.296   2.192
10336W        W82651  40.316  24.038   3.293
10337W        W82652  44.332  26.141  14.772
10338W        W82653  34.554  31.643   0.428
10339W        W82654  41.476  11.767  14.376
10340W        W82655  35.441  18.177   0.811
10341W        W82656  42.002  39.384   2.282
10342W        W82657   2.423  30.000   0.809
10343W        W82658  11.325   1.335   0.915
10344W        W82659  28.179  19.178  10.621
10345W        W82660  33.031  14.720  12.423
10346W        W82661  34.034   8.714   3.366
10347W        W82662   5.286   0.916  13.876
10348W        W82663  40.935  23.043   0.886
10349W        W82664  23.216   9.378   0.278
10350W        W82665  12.361   8.310   1.301
10351W        W82666   8.386  15.174  11.003
10352W        W82667  19.763  34.955   0.960
10353W        W82668  22.100  10.672  14.924
10354W        W82669  31.122  32.970  14.917
10355W        W82670   8.889  35.908  10.435
10356W        W82671  14.778  41.293   3.824
10357W        W82672  16.168  11.867  13.791
10358W        W82673  41.854  15.144  13.486
10359W        W82674  23.729  11.270   3.379
10360W        W82675  25.591  30.444  11.889
10361W        W82676  29.948  44.491  13.048
10362W        W82677   3.734  29.489   0.320
10363W        W82678   6.902  15.712   4.252
10364W        W82679  20.637  44.860  14.475
10365W        W82680  12.770   1.887  10.467
10366W        W82681  27.462  31.905   0.751
10367W        W82682   6.847   4.830  11.388
10368W        W82683  14.724  41.485  14.996
10369W        W82684  11.758  18.191   1.318
10370W        W82685  43.947  42.005   4.316
10371W        W82686  26.671   1.947  10.546
10372W        W82687  16.671  20.053  12.862
10373W        W82688  44.260  18.587   4.661
10374W        W82689  20.030   5.330   2.746
10375W        W82690  43.363  37.381  13.848
10376W        W82691  19.771  41.042  11.996
10377W        W82692  44.488  30.944  12.576
10378W        W82693  12.843  37.423  13.474
10379W        W82694  41.827   0.471   2.375
10380W        W82695  11.775  38.935  10.116
10381W        W82696  22.074  23.547   3.790
10382W        W82697  34.573  27.161   1.868
10383W        W82698  27.489   5.331  12.520
10384W        W82699  13.234  32.621  11.478
10385W        W82700  13.269  17.794  14.488
10386W        W82701  35.101   3.909   0.962
10387W        W82702  24.223  35.360   4.777
10388W        W82703  39.350  38.562   4.215
10389W        W82704  24.634  14.727  11.974
10390W        W82705  33.613  12.279   1.396
10391W        W82706  34.448  19.595   4.189
10392W        W82707  27.575  34.013   1.705
10393W        W82708  37.043  14.709  11.430
10394W        W82709  24.171  36.891   2.719
10395W        W82710  15.132   2.946  11.573
10396W        W82711  31.131   1.792  12.364
10397W        W82712  10.680  25.631  10.455
10398W        W82713  30.140   2.935  11.384
10399W        W82714   8.832   9.863   1.897
10400W        W82715  37.529  13.818   1.782
10401W        W82716   4.711   1.378   2.695
10402W        W82717   5.709   4.785  13.795
10403W        W82718  40.048  14.763   1.321
10404W        W82719   2.447  27.537  13.529
10405W        W82720   6.766  12.842  13.020
10406W        W82721  15.195  41.031  13.528
10407W        W82722  25.481   5.731   4.209
10408W        W82723  10.311  32.974   4.634
10409W        W82724  13.611   3.723   0.435
10410W        W82725  41.022  33.874  13.981
10411W        W82726  20.565   8.760   4.660
10412W        W82727  28.677  20.247  14.904
10413W        W82728  10.647  39.055   2.395
10414W        W82729   6.782  31.008   3.791
10415W        W82730  40.432  10.312  12.033
10416W        W82731   3.239   2.416  13.011
10417W        W82732   0.828  24.087  10.466
10418W        W82733  24.011  32.917  13.482
10419W        W82734  32.472   1.933  12.487
10420W        W82735  34.953  34.471  10.462
10421W        W82736   4.372  31.636   3.344
10422W        W82737   6.403  42.305  11.566
10423W        W82738  13.234  32.031   2.875
10424W        W82739  40.812  17.186  10.889
10425W        W82740  33.048  16.729  13.005
10426W        W82741  20.527  28.452  10.496
10427W        W82742  37.861  40.534  10.509
10428W        W82743  20.561  33.104  13.534
10429W        W82744  36.550  28.016   2.732
10430W        W82745  19.613  26.973   3.252
10431W        W82746  15.689  10.839   1.420
10432W        W82747  13.812  18.561  13.904
10433W        W82748  34.601  22.610   1.903
10434W        W82749  43.764  44.995   2.294
10435W        W82750  22.514   7.686   1.806
10436W        W82751  23.188   9.308  12.452
10437W        W82752   8.855  39.506   3.241
10438W        W82753  15.098   8.324  10.611
10439W        W82754  27.536   7.296   2.739
10440W        W82755   3.802   9.213   4.219
10441W        W82756  42.440  25.978  14.490
10442W        W82757   3.216  22.520  10.913
10443W        W82758   6.759  28.466  13.414
10444W        W82759  21.724  26.519  14.765
10445W        W82760   1.732  16.103   4.616
10446W        W82761  27.189  27.984  14.913
10447W        W82762  25.118  11.684  10.494
10448W        W82763   4.734   5.434  14.819
10449W        W82764  17.303  28.054   3.678
10450W        W82765  12.764  28.160   4.176
10451W        W82766  40.387  13.699  11.046
10452W        W82767  20.703  17.781   3.343
10453W        W82768  34.071  38.407   4.825
10454W        W82769  15.111  21.538  14.766
10455W        W82770   4.717   7.203   3.238
10456W        W82771  14.683  33.489  11.958
10457W        W82772  38.389  16.318  11.475
10458W        W82773   8.880  15.702   2.248
10459W        W82774  10.298  31.467   0.391
10460W        W82775  43.275  10.251   2.762
10461W        W82776  14.220  12.612  13.505
10462W        W82777  22.205  13.287   4.729
10463W        W82778  13.199  20.657   0.784
10464W        W82779   5.267  36.051   1.229
10465W        W82780  43.400  14.752   2.412
10466W        W82781  40.308  43.482   4.644
10467W        W82782  24.092   4.942  12.385
10468W        W82783  16.267  28.187  12.968
10469W        W82784  29.560  20.726  12.021
10470W        W82785  31.101   0.911   2.785
10471W        W82786  20.045  43.765   1.221
10472W        W82787  28.449  21.585  12.569
10473W        W82788  26.141   3.384   4.645
10474W        W82789  40.891  40.505   2.777
10475W        W82790  12.719   4.413   3.213
10476W        W82791  15.760  38.825   5.236
10477W        W82792   4.909  27.017  13.834
10478W        W82793  41.030  28.623  13.863
10479W        W82794  40.840  20.768  12.063
10480W        W82795   5.249   4.912  14.365
10481W        W82796  40.500  41.789   0.417
10482W        W82797  19.778  18.545   1.436
10483W        W82798   4.741   4.910   2.827
10484W        W82799   7.750  32.466  13.476
10485W        W82800  12.682  13.335   4.127
10486W        W82801  30.643   1.420   3.154
10487W        W82802   3.882  25.210  11.870
10488W        W82803  44.957  31.546  13.994
10489W        W82804  40.983  10.214  10.615
10490W        W82805  23.208  44.825   1.363
10491W        W82806  13.281  11.643  14.842
10492W        W82807  30.098  10.708   0.966
10493W        W82808   8.818  24.139   2.309
10494W        W82809  41.903  27.613  12.865
10495W        W82810  16.282  10.776   1.276
10496W        W82811  17.191  40.903   4.214
10497W        W82812  34.574  23.175   0.403
10498W        W82813   3.728  28.972  12.093
10499W        W82814  31.961   0.943  12.033
10500W        W82815   5.825  14.167  14.360
10501W        W82816  11.211   6.414  14.401
10502W        W82817   0.361  38.971   4.200
10503W        W82818   2.953   8.790  13.514
10504W        W82819  31.913   6.230   0.913
10505W        W82820  27.189   4.940  11.978
10506W        W82821  25.014  10.695  14.913
10507W        W82822  26.557  28.619  11.515
10508W        W82823   3.278  14.191  12.058
10509W        W82824  44.798  21.093   2.375
10510W        W82825  41.393   4.227  12.823
10511W        W82826  20.587  39.821  14.762
10512W        W82827  18.266  28.987   0.824
10513W        W82828  27.489  21.583  10.956
10514W        W82829  19.771  31.614   1.297
10515W        W82830  23.526  10.382   1.874
10516W        W82831   8.180  31.463   3.670
10517W        W82832  31.645  27.009  12.573
10518W        W82833   3.407  25.641   3.196
10519W        W82834  30.576  37.568   1.412
10520W        W82835  40.930  41.407   0.943
10521W        W82836   1.934   1.862   4.811
10522W        W82837  21.217  15.596   2.389
10523W        W82838  12.167  32.116   3.709
10524W        W82839   6.726   3.386   1.239
10525W        W82840  25.114  42.834  12.031
10526W        W82841   1.418  15.752  12.077
10527W        W82842  34.369  28.442   4.808
10528W        W82843  22.040  36.039   1.291
10529W        W82844  32.598  18.133  13.372
10530W        W82845   5.814  33.431   0.448
10531W        W82846   6.397  29.129   1.260
10532W        W82847   9.885   5.785  12.079
10533W        W82848  19.570  32.916   1.880
10534W        W82849  11.340   0.957  14.513
10535W        W82850  14.728  25.214   4.135
10536W        W82851  31.982  37.438   9.992
10537W        W82852  27.050  25.573   3.186
10538W        W82853   9.827  26.695   3.680
10539W        W82854  13.736  27.616   3.803
10540W        W82855   5.709  38.864   2.190
10541W        W82856  39.908   0.806   2.813
10542W        W82857  36.065   3.722   3.812
10543W        W82858  40.053  12.676   2.719
10544W        W82859   6.904  36.513   1.266
10545W        W82860   2.255  22.079   2.188
10546W        W82861  33.444  29.444  13.535
10547W        W82862  32.994  23.225  13.384
10548W        W82863  35.954  39.974  12.911
10549W        W82864  35.073   0.759   4.319
10550W        W82865  32.031   4.885   2.214
10551W        W82866  13.660  32.624  14.349
10552W        W82867  22.575  38.906   3.307
10553W        W82868  17.227  40.366   0.941
10554W        W82869   3.711  22.209   1.912
10555W        W82870  18.665  44.931  12.007
10556W        W82871  38.062  16.196   2.731
10557W        W82872  44.488  19.268   4.305
10558W        W82873  11.133  22.212  11.410
10559W        W82874  28.488  25.143   4.712
10560W        W82875  36.979  40.019  11.959
10561W        W82876  39.408  25.036  12.576
10562W        W82877  15.091  43.779  10.431
10563W        W82878  33.484   0.844  11.435
10564W        W82879  41.516   2.287   4.817
10565W        W82880   5.776   9.368  11.973
10566W        W82881  37.462  25.968  11.391
10567W        W82882   5.865  22.135   4.641
10568W        W82883  37.887  27.159   2.838
10569W        W82884  24.483  42.817   4.178
10570W        W82885  22.617   2.253   2.676
10571W        W82886  32.087  20.211  12.826
10572W        W82887  39.504  37.387  10.506
10573W        W82888  40.991   7.842   2.184
10574W        W82889  24.177  24.590  12.580
10575W        W82890  17.768   5.841   4.201
10576W        W82891  44.873  18.662  14.031
10577W        W82892  17.172  22.596  14.874
10578W        W82893  30.085  33.963  12.567
10579W        W82894  10.691  38.509   2.223
10580W        W82895  24.679   6.784  10.524
10581W        W82896  24.569   3.859   2.262
10582W        W82897  40.418  30.479   2.324
10583W        W82898  19.136  29.973  11.400
10584W        W82899  24.005  35.944   1.386
10585W        W82900  24.723  26.963   3.336
10586W        W82901  28.130  28.482   1.313
10587W        W82902  11.856  39.997  13.841
10588W        W82903   4.298  11.649  13.972
10589W        W82904   0.297   3.743   1.317
10590W        W82905  37.501  14.768   3.361
10591W        W82906  36.473   2.372   4.209
10592W        W82907   2.265  35.874   0.889
10593W        W82908  25.633  13.692  14.991
10594W        W82909  22.735  25.156   5.220
10595W        W82910  22.641  38.550  11.400
10596W        W82911  24.094  10.207   1.848
10597W        W82912  27.170  33.507   4.631
10598W        W82913  25.049   9.858   2.688
10599W        W82914  25.008  24.008  12.348
10600W        W82915  34.502   8.281  12.541
10601W        W82916   4.244   7.895  11.047
10602W        W82917  39.450   6.234  11.433
10603W        W82918  42.979  26.509  13.438
10604W        W82919   4.834  41.984   3.715
10605W        W82920   8.219  30.985  11.893
10606W        W82921  30.652  15.616   0.269
10607W        W82922  29.539  16.095  14.800
10608W        W82923  21.612  43.349  11.060
10609W        W82924  44.949  21.254   0.280
10610W        W82925  12.675  39.334  11.961
10611W        W82926  26.114  19.138  13.449
10612W        W82927  35.455  16.243   1.729
10613W        W82928  32.102  43.800  12.926
10614W        W82929  32.110  28.619   0.412
10615W        W82930  25.177  31.028  14.794
10616W        W82931  34.950   5.333  14.027
10617W        W82932  30.619  32.097  14.761
10618W        W82933  15.687  11.284   2.264
10619W        W82934  19.581  27.551   4.649
10620W        W82935   9.325   9.826   1.285
10621W        W82936   2.290  10.717  14.965
10622W        W82937  21.065   2.415   3.767
10623W        W82938  16.172  15.686   0.935
10624W        W82939  11.798  13.630  12.407
10625W        W82940  15.748  26.111   2.701
10626W        W82941  18.771  44.327   2.896
10627W        W82942   1.955  26.606   1.824
10628W        W82943  10.309  35.502   0.870
10629W        W82944  31.980   3.379  12.536
10630W        W82945  41.980  19.747   5.264
10631W        W82946   0.790  38.961  10.150
10632W        W82947  17.600  10.374  11.552
10633W        W82948  35.563   7.176  12.453
10634W        W82949  38.367  26.097   3.247
10635W        W82950  33.584   6.706  13.359
10636W        W82951  25.012   9.737   0.846
10637W        W82952  33.092  34.534   1.737
10638W        W82953   6.757  18.275  14.435
10639W        W82954  41.399   6.830   2.902
10640W        W82955  27.112  13.266  10.433
10641W        W82956  18.161  18.615  13.840
10642W        W82957  26.147  25.136   2.670
10643W        W82958  44.822  22.251  11.412
10644W        W82959   2.851  16.784  14.484
10645W        W82960  32.058   0.888  10.441
10646W        W82961  32.949  41.354  11.128
10647W        W82962  35.031  18.286   2.193
10648W        W82963  30.606  17.797   0.365
10649W        W82964   7.890  19.627  10.645
10650W        W82965  15.147   6.705   1.397
10651W        W82966  15.678   6.761  10.984
10652W        W82967   8.781   2.282   1.398
10653W        W82968  22.179  16.221  14.916
10654W        W82969  21.643   8.397  11.435
10655W        W82970  37.530   1.280  14.797
10656W        W82971  25.707  32.455   2.744
10657W        W82972  36.524   8.228  14.344
10658W        W82973  30.907  33.904  14.462
10659W        W82974  43.371  25.484   1.384
10660W        W82975   0.748  12.201  11.607
10661W        W82976   7.278  43.803  10.548
10662W        W82977  40.499  32.594   2.663
10663W        W82978   1.809  33.438   3.669
10664W        W82979  25.115  32.550  11.866
10665W        W82980   5.311  12.687   4.665
10666W        W82981  42.393   4.852   0.954
10667W        W82982  16.586  31.440   9.575
10668W        W82983  21.164  32.896  10.159
10669W        W82984  30.613  40.869  14.942
10670W        W82985  22.051  21.653   5.632
10671W        W82986   9.740  28.621  14.771
10672W        W82987  14.187  23.514  11.915
10673W        W82988  27.103   9.247   3.642
10674W        W82989  40.915  22.540  12.437
10675W        W82990  20.081  30.416  10.907
10676W        W82991   4.781  15.295   0.387
10677W        W82992   7.205   8.844   0.364
10678W        W82993  12.241  21.041   1.776
10679W        W82994   2.342   6.193  14.012
10680W        W82995  24.575  35.418   0.327
10681W        W82996  18.602  31.646  13.355
10682W        W82997  27.674   2.895  14.941
10683W        W82998  44.425  12.744  11.902
10684W        W82999  25.504  37.442  12.977
10685W        W83000  21.549  20.090  13.385
10686W        W83001  21.233  37.076  11.992
10687W        W83002  33.000  42.489   4.712
10688W        W83003   1.964  10.232  10.483
10689W        W83004  34.518  42.873   4.828
10690W        W83005  22.222  10.181   0.293
10691W        W83006  28.061   3.856  13.436
10692W        W83007  26.552  23.032  14.865
10693W        W83008  24.979  13.259   4.270
10694W        W83009  38.910  13.187   4.323
10695W        W83010   8.393  10.863  10.615
10696W        W83011  12.630  40.955  11.028
10697W        W83012  35.963  16.222   3.153
10698W        W83013   8.399  25.597  10.587
10699W        W83014  10.705  44.355  13.818
10700W        W83015  30.999  16.291   3.669
10701W        W83016  15.299  24.606  14.841
10702W        W83017   2.825  11.218  14.401
10703W        W83018  10.784   1.889  11.469
10704W        W83019   9.216  27.092   0.923
10705W        W83020  39.424   7.721  10.529
10706W        W83021  12.681  31.478   1.930
10707W        W83022  25.113  22.049   2.224
10708W        W83023  39.489  10.647  12.965
10709W        W83024  32.471  44.968  11.937
10710W        W83025  41.866  30.516   3.799
10711W        W83026  11.286  39.407  11.893
10712W        W83027  34.598  37.038   1.227
10713W        W83028  41.819  27.114  13.331
10714W        W83029  42.332   4.258  12.556
10715W        W83030  12.240  26.650   4.788
10716W        W83031  22.124  41.428   3.189
10717W        W83032  22.611   4.837  10.629
10718W        W83033  11.259   3.750  14.844
10719W        W83034  40.351  10.765  13.995
10720W        W83035  42.469   3.832   3.276
10721W        W83036  24.228  42.021  11.099
10722W        W83037  36.980  10.255  11.030
10723W        W83038   5.896  12.152  11.400
10724W        W83039  12.267   6.767   4.350
10725W        W83040  20.674  23.151   3.206
10726W        W83041  28.181   8.736  11.582
10727W        W83042  17.170  33.557  10.554
10728W        W83043  35.378  16.723  10.526
10729W        W83044  22.081  40.457   3.354
10730W        W83045  19.694  37.938  12.047
10731W        W83046  21.517  36.490  10.605
10732W        W83047  42.417  32.101  10.539
10733W        W83048  28.576  36.518   1.830
10734W        W83049  13.269  44.777  14.796
10735W        W83050   7.789  29.457   1.898
10736W        W83051   3.955   7.269  12.540
10737W        W83052  43.366   4.344   2.837
10738W        W83053   0.360   9.750   5.641
10739W        W83054  32.956  19.537   0.902
10740W        W83055  40.438   2.264   4.833
10741W        W83056   7.207   1.295   0.816
10742W        W83057   9.726  37.447  13.941
10743W        W83058  17.264  10.351  12.074
10744W        W83059   8.397  14.132   4.264
10745W        W83060  27.140  42.910  12.953
10746W        W83061  29.635  20.215  12.562
10747W        W83062  23.668  25.183   4.303
10748W        W83063  12.154  32.900   4.710
10749W        W83064  34.002  25.185  13.005
10750W        W83065  23.612  18.556   1.262
10751W        W83066   5.905  16.072  13.520
10752W        W83067  26.637   9.207  12.487
10753W        W83068  12.332   8.892  11.574
10754W        W83069  36.053  36.424  14.284
10755W        W83070  41.414  29.427   1.271
10756W        W83071  10.282  36.919   0.354
10757W        W83072  41.841   9.735   3.343
10758W        W83073  44.260  30.997  12.937
10759W        W83074  24.150  42.908  14.456
10760W        W83075   6.854   4.313  11.512
10761W        W83076  22.190   0.936  13.419
10762W        W83077  23.125  24.693  11.386
10763W        W83078  11.761  33.439   2.386
10764W        W83079  20.051  40.905   1.300
10765W        W83080  13.274  39.445  12.434
10766W        W83081  32.016  31.562  14.030
10767W        W83082  35.022   6.397   3.856
10768W        W83083   5.866  29.564  12.530
10769W        W83084  42.931  43.916  10.608
10770W        W83085  29.541  34.451  13.050
10771W        W83086  37.918  17.202   0.746
10772W        W83087  18.629   5.817  12.553
10773W        W83088  36.493  13.112  11.555
10774W        W83089   1.256  44.296  13.851
10775W        W83090  30.637  20.151  12.019
10776W        W83091  22.717   2.939   4.682
10777W        W83092  14.285  32.430   0.416
10778W        W83093  33.418  42.021  11.462
10779W        W83094   1.300  21.226  11.407
10780W        W83095  23.066  44.423  11.447
10781W        W83096   3.867  28.597   2.369
10782W        W83097  40.415  39.433  11.389
10783W        W83098  38.865  16.210  14.944
10784W        W83099  19.249   5.901   1.266
10785W        W83100  25.992  20.237   3.650
10786W        W83101  42.332  22.017  14.329
10787W        W83102  32.577   3.849  11.994
10788W        W83103   9.694  42.953  13.045
10789W        W83104  25.072  15.328  11.413
10790W        W83105   6.249  29.583   2.860
10791W        W83106  28.671  30.604  11.996
10792W        W83107  11.636   8.360  14.497
10793W        W83108   7.295  35.513  11.026
10794W        W83109  37.834  44.992   0.871
10795W        W83110  41.343  11.223  10.489
10796W        W83111   9.360  11.146   3.833
10797W        W83112  34.918  27.005   1.762
10798W        W83113   0.279   7.839  12.577
10799W        W83114   6.353  22.602   5.180
10800W        W83115  34.392  43.358   1.251
10801W        W83116   2.880  28.034   0.830
10802W        W83117  34.117  17.266  14.014
10803W        W83118  16.083  39.964   0.912
10804W        W83119  40.348  39.363  13.480
10805W        W83120  27.092  27.160   4.283
10806W        W83121   8.844  16.748  14.769
10807W        W83122  20.681  28.056   3.630
10808W        W83123  23.176  14.187  10.888
10809W        W83124   2.333  32.545   3.198
10810W        W83125  32.035   9.724  10.419
10811W        W83126   3.367   2.431   2.253
10812W        W83127  18.748   2.874   0.417
10813W        W83128  24.213  38.348   4.228
10814W        W83129   5.786  24.599   2.415
10815W        W83130  35.866   6.306   1.751
10816W        W83131  21.246  19.047  11.107
10817W        W83132  23.600  11.771  14.936
10818W        W83133  17.695  38.067   3.301
10819W        W83134  12.172  10.700   0.277
10820W        W83135  38.927   7.288   4.622
10821W        W83136  23.196  43.900  12.513
10822W        W83137  16.645   7.877  12.420
10823W        W83138  11.137  24.134  11.391
10824W        W83139  43.997   5.313  10.423
10825W        W83140  15.604   7.401  13.975
10826W        W83141  39.943   6.841  13.335
10827W        W83142  28.977  20.631  12.358
10828W        W83143  21.261  20.557  13.048
10829W        W83144  29.561  13.116  14.345
10830W        W83145  37.486  22.182  10.960
10831W        W83146  27.603  15.207  13.002
10832W        W83147   4.843  10.143  12.831
10833W        W83148  36.374  21.543  14.944
10834W        W83149  15.206  10.274   2.330
10835W        W83150  22.653  18.212  12.458
10836W        W83151  34.438  31.580   0.843
10837W        W83152  26.154   7.307   2.883
10838W        W83153  44.452  33.040   1.780
10839W        W83154  18.686  39.988   5.159
10840W        W83155  11.291  18.755  12.920
10841W        W83156  22.624  29.083   1.833
10842W        W83157   8.382  25.039   1.814
10843W        W83158  20.632  27.610   1.905
10844W        W83159   4.720  43.860   0.400
10845W        W83160  42.389  12.740   3.746
10846W        W83161  13.821  38.883   0.949
10847W        W83162  37.998  32.569  11.958
10848W        W83163  31.617  24.560  10.988
10849W        W83164  14.294   9.680   4.825
10850W        W83165  39.049  43.810  13.411
10851W        W83166  30.995  32.473  14.869
10852W        W83167  36.552  29.615  11.418
10853W        W83168  34.040  13.817   1.844
10854W        W83169  28.103  11.192  13.911
10855W        W83170  23.131   9.865  14.763
10856W        W83171  17.753  20.141   2.704
10857W        W83172  30.495  21.048   3.865
10858W        W83173  42.501   2.938  14.295
10859W        W83174  15.325  25.564  13.497
10860W        W83175  21.669   1.970   0.460
10861W        W83176   6.856  16.153  10.645
10862W        W83177  15.254  22.723  11.480
10863W        W83178  18.076  25.614   1.846
10864W        W83179  33.611  16.614  11.561
10865W        W83180  38.517   1.966  11.033
10866W        W83181  30.574  43.370  10.422
10867W        W83182  39.341  32.053  14.423
10868W        W83183  35.578   6.830  14.503
10869W        W83184  25.137  35.527  13.449
10870W        W83185  44.378  35.992   0.853
10871W        W83186   3.343  37.932  11.528
10872W        W83187  21.067  23.000   2.345
10873W        W83188  16.081  40.305   3.762
10874W        W83189   6.838  28.936   1.745
10875W        W83190   1.470  25.658   1.865
10876W        W83191  29.546  16.670  13.961
10877W        W83192  11.638  34.374  12.849
10878W        W83193  22.522  43.448  14.468
10879W        W83194  31.122  37.355  12.429
10880W        W83195   7.823  13.262   1.815
10881W        W83196  32.979  10.677  14.909
10882W        W83197   4.449  12.117   1.333
10883W        W83198  14.669  36.521   4.199
10884W        W83199   3.953  16.124   0.742
10885W        W83200  37.036  16.805  12.580
10886W        W83201  20.597  31.519  13.313
10887W        W83202  17.158  32.904   4.316
10888W        W83203  32.484  20.658  11.906
10889W        W83204  36.887  18.114   0.850
10890W        W83205  44.891  15.149   1.294
10891W        W83206  19.742  11.814   1.877
10892W        W83207  24.674  42.354   2.242
10893W        W83208   8.746  15.209   1.375
10894W        W83209  18.050   3.720  12.559
10895W        W83210  17.699   3.284   3.160
10896W        W83211   7.757  15.290  11.389
10897W        W83212  17.282  23.021  12.379
10898W        W83213   7.255  37.940   0.946
10899W        W83214  32.039  31.047  13.014
10900W        W83215  41.336  24.540   2.841
10901W        W83216  24.566  29.459   4.672
10902W        W83217  17.771  10.849   3.154
10903W        W83218  27.484   7.323   1.894
10904W        W83219  40.973  16.784   4.197
10905W        W83220  36.857  34.564   1.333
10906W        W83221  14.231  11.726  14.795
10907W        W83222  23.019  19.246  11.972
10908W        W83223  26.005  40.414  13.463
10909W        W83224  10.201  24.150   4.801
10910W        W83225  39.937  21.706  10.984
10911W        W83226  42.388   5.851  10.581
10912W        W83227  33.419  38.474  13.995
10913W        W83228  33.122  23.708  11.075
10914W        W83229   3.302   5.925  13.807
10915W        W83230  12.333  15.790   0.882
10916W        W83231  12.660  32.026   3.192
10917W        W83232  12.333  19.548   0.844
10918W        W83233  18.202  35.434  13.870
10919W        W83234   3.847  14.233  13.429
10920W        W83235  37.962  16.135  14.298
10921W        W83236  21.137  42.857  13.343
10922W        W83237  44.310   3.899  13.414
10923W        W83238  37.965   8.305   2.206
10924W        W83239   6.354  17.644  13.493
10925W        W83240  23.100  36.015  14.485
10926W        W83241   8.787  38.061   1.232
10927W        W83242  14.281   0.489  14.837
10928W        W83243  43.002  11.834   9.922
10929W        W83244  13.655  10.701  11.895
10930W        W83245  44.455  24.975   0.357
10931W        W83246  35.396  17.802  11.564
10932W        W83247  13.239  34.033  14.830
10933W        W83248   9.314  17.283   1.342
10934W        W83249  11.312  10.683   1.250
10935W        W83250   4.352  43.933  13.919
10936W        W83251   7.697  11.642  14.016
10937W        W83252  10.698   8.240   1.292
10938W        W83253  29.655  34.453  10.467
10939W        W83254  28.060   5.900   3.774
10940W        W83255  36.912   9.653  14.956
10941W        W83256  15.195  28.495  10.412
10942W        W83257  20.532  22.605  14.783
10943W        W83258  19.196  36.530  12.339
10944W        W83259  33.543  22.601  14.482
10945W        W83260   6.903  34.024   4.799
10946W        W83261  39.843   5.796  10.415
10947W        W83262   2.432  31.919  10.992
10948W        W83263  12.667  38.829  14.501
10949W        W83264   8.875  26.627   1.831
10950W        W83265  27.054   1.341   2.877
10951W        W83266   5.282  33.012   3.226
10952W        W83267  41.906  30.622   4.199
10953W        W83268  23.075  42.935   4.263
10954W        W83269  10.286   5.214   2.874
10955W        W83270   5.360  35.101  14.488
10956W        W83271  29.657  19.618   0.346
10957W        W83272  44.918  13.186   3.789
10958W        W83273   8.368  40.857  10.897
10959W        W83274   1.304   5.318   2.253
10960W        W83275  37.976  21.251   0.850
10961W        W83276   0.775  37.883  13.881
10962W        W83277  31.557  13.716   4.630
10963W        W83278   1.913  25.154   3.165
10964W        W83279  42.454  14.233   3.204
10965W        W83280  38.931  30.960  10.429
10966W        W83281  42.015  12.256  14.456
10967W        W83282  15.717  41.312   4.620
10968W        W83283   4.864   2.814  11.018
10969W        W83284   3.330  10.721   0.838
10970W        W83285  20.553  44.263  14.478
10971W        W83286   4.306  10.734   4.730
10972W        W83287  11.718   9.741   3.652
10973W        W83288  23.992  17.708  13.059
10974W        W83289  28.135  43.401  12.486
10975W        W83290  34.068  23.518   4.236
10976W        W83291  19.248  40.952   5.740
10977W        W83292  17.272  44.501  10.921
10978W        W83293  33.469  12.855   2.700
10979W        W83294   3.289  15.679   0.775
10980W        W83295  37.570  41.333   9.984
10981W        W83296  29.042   2.906   0.274
10982W        W83297   5.376  43.928   3.262
10983W        W83298  32.142  17.693  12.369
10984W        W83299  35.909  36.420   4.285
10985W        W83300  37.450  15.754  13.849
10986W        W83301  29.164  37.898  10.623
10987W        W83302  37.570  37.540  13.006
10988W        W83303  11.756  32.956  10.894
10989W        W83304  22.559  21.070   5.106
10990W        W83305  13.141  23.513  12.845
10991W        W83306  10.376  31.120   3.859
10992W        W83307  18.694  39.417   1.705
10993W        W83308  21.630  43.777   3.213
10994W        W83309  26.010  30.153   4.687
10995W        W83310  11.209  19.762   9.499
10996W        W83311  15.822  28.461   4.608
10997W        W83312   2.775   3.452  10.610
10998W        W83313  21.169  43.316  12.968
10999W        W83314  20.607  33.520   0.391
11000W        W83315  41.976  33.005  12.061
11001W        W83316  21.709  35.495  13.044
11002W        W83317   5.928  25.180  11.865
11003W        W83318  42.501  24.138   4.293
11004W        W83319  36.581   4.700  11.894
11005W        W83320  41.532  12.633   3.190
11006W        W83321  15.173  35.883   0.270
11007W        W83322  20.540  13.286   1.352
11008W        W83323  23.023   2.941  13.851
11009W        W83324  13.314  29.603  14.422
11010W        W83325  31.636  12.845   2.232
11011W        W83326  16.716  20.704  14.497
11012W        W83327  43.497  27.143   1.750
11013W        W83328  30.460  41.985   4.346
11014W        W83329  16.141  43.799  11.568
11015W        W83330  44.301  15.745   1.763
11016W        W83331   6.888  40.490   0.412
11017W        W83332  41.356  39.340   4.616
11018W        W83333  40.424  34.967  10.579
11019W        W83334  25.186  21.558   0.353
11020W        W83335  22.712  37.864   2.856
11021W        W83336  34.596   4.254   1.424
11022W        W83337  25.987  32.463  11.979
11023W        W83338  14.676  30.954   1.935
11024W        W83339   9.383  10.202   2.891
11025W        W83340  12.265   7.684  11.076
11026W        W83341   1.953  16.785  13.926
11027W        W83342  12.206  13.604   2.766
11028W        W83343   4.937  32.546  14.354
11029W        W83344  35.486   5.912  11.380
11030W        W83345  13.771  37.838  12.960
11031W        W83346  34.899  38.439   3.831
11032W        W83347  44.357  25.175  12.857
11033W        W83348  19.063  43.449   4.795
11034W        W83349  28.101  32.109  13.493
11035W        W83350   6.279  35.450  14.919
11036W        W83351   7.370  21.144   1.429
11037W        W83352  28.439  13.832  12.051
11038W        W83353  21.037  27.571  13.525
11039W        W83354  23.625  19.540  10.022
11040W        W83355  18.111  13.272   1.696
11041W        W83356  43.365  35.466  11.939
11042W        W83357  27.489  15.086   4.623
11043W        W83358  43.979   0.789   2.703
11044W        W83359  24.645  11.866  11.403
11045W        W83360   4.248  42.401  10.925
11046W        W83361  19.723   1.325   3.784
11047W        W83362  30.020   4.763   2.696
11048W        W83363  15.605  35.399  13.944
11049W        W83364  31.131  39.323   3.732
11050W        W83365   8.833  12.335   0.898
11051W        W83366  17.588  30.570  10.141
11052W        W83367  32.091  29.017   0.870
11053W        W83368   7.885  41.358  11.385
11054W        W83369  39.338   6.195  12.865
11055W        W83370  33.451  22.061   5.237
11056W        W83371  28.476   9.172   0.365
11057W        W83372  14.651  13.803   1.257
11058W        W83373  36.590  24.506   0.760
11059W        W83374  37.490  44.318  11.040
11060W        W83375  24.123   3.720  12.545
11061W        W83376  12.797  30.154   1.768
11062W        W83377  25.565  26.572  14.796
11063W        W83378  15.664  37.439  10.566
11064W        W83379  14.635  27.645   3.324
11065W        W83380  15.123  39.061   2.768
11066W        W83381  14.333   8.692   0.836
11067W        W83382  20.167  25.052   0.467
11068W        W83383  12.812   0.988   4.347
11069W        W83384  10.667  41.342  13.464
11070W        W83385  12.224   6.684   1.340
11071W        W83386   6.346  41.292  14.867
11072W        W83387  44.313  17.622   3.679
11073W        W83388  25.035  33.903  12.832
11074W        W83389  20.591  13.339  11.572
11075W        W83390  11.358  11.779   2.182
11076W        W83391  26.108   1.849   3.809
11077W        W83392  28.055  20.095  12.419
11078W        W83393   7.317   6.778   1.444
11079W        W83394  13.314  18.262   0.351
11080W        W83395  27.579  20.607   3.293
11081W        W83396  17.653  31.088   0.341
11082W        W83397  42.873  42.499  13.339
11083W        W83398  29.937  25.106   1.383
11084W        W83399  21.235  14.648   2.239
11085W        W83400  41.359  30.561  12.896
11086W        W83401  40.464   3.901  12.377
11087W        W83402   7.669  14.731  14.820
11088W        W83403  23.196  36.053  12.830
11089W        W83404  38.982  41.458  11.605
11090W        W83405   6.257   0.362  12.908
11091W        W83406   3.409  20.244  14.785
11092W        W83407  30.631   1.940  11.085
11093W        W83408   5.783   9.280  10.523
11094W        W83409  18.241   6.215  13.845
11095W        W83410  20.705  13.836   4.750
11096W        W83411  12.298  32.039  13.854
11097W        W83412  24.055   0.771   1.924
11098W        W83413  28.463  37.857   1.419
11099W        W83414  28.636   4.809   5.646
11100W        W83415   1.929  31.471   2.783
11101W        W83416  11.244  20.263   4.290
11102W        W83417  30.126  11.204  10.550
11103W        W83418  28.075   4.252  13.547
11104W        W83419  43.971  11.813  14.280
11105W        W83420  13.320  33.560  14.445
11106W        W83421  36.093  33.895  12.934
11107W        W83422  30.549  43.972   0.243
11108W        W83423  19.605  29.974   0.252
11109W        W83424  19.753  11.194   5.639
11110W        W83425  33.428  21.113  11.606
11111W        W83426  14.315   5.763  13.382
11112W        W83427  32.452   3.793  13.422
11113W        W83428  13.807  33.476  13.834
11114W        W83429  16.800  15.290  11.896
11115W        W83430  36.055  35.064   2.719
11116W        W83431  19.280  14.101   1.401
11117W        W83432  12.271  39.879   1.285
11118W        W83433  33.626  29.436  11.602
11119W        W83434   4.896  31.619  11.418
11120W        W83435   2.805   3.293   1.212
11121W        W83436  14.624  28.006   1.394
11122W        W83437  26.173  23.996   1.381
11123W        W83438  35.055   5.920  11.057
11124W        W83439  32.014  11.655  14.990
11125W        W83440  13.118  32.965   2.874
11126W        W83441  34.373  36.016  13.950
11127W        W83442   5.430  41.861  10.636
11128W        W83443  10.824  34.607   2.834
11129W        W83444  25.596  10.359   4.214
11130W        W83445  38.486  29.082   4.737
11131W        W83446  32.621  22.133  11.865
11132W        W83447   6.797  11.260  14.307
11133W        W83448  27.960  21.517  12.852
11134W        W83449  28.990   0.899  11.428
11135W        W83450  23.663  29.985  11.527
11136W        W83451  16.711  37.843   0.890
11137W        W83452  34.981   4.255   0.858
11138W        W83453  21.644  34.412  12.858
11139W        W83454  23.736  25.654  13.794
11140W        W83455   0.345  30.447   3.635
11141W        W83456  36.591  10.181  12.834
11142W        W83457   9.710  27.165  12.951
11143W        W83458  23.118   2.888   0.963
11144W        W83459  12.191  42.813   0.849
11145W        W83460  18.211  44.475   1.769
11146W        W83461  18.579  36.379   5.125
11147W        W83462  24.663  12.786   3.782
11148W        W83463   3.373   8.816   2.199
11149W        W83464  22.013  37.870   2.711
11150W        W83465  33.958   4.901   0.786
11151W        W83466   9.712  16.117   2.902
11152W        W83467  36.009  28.649   2.272
11153W        W83468  21.693  34.942  14.365
11154W        W83469  41.399  14.203  14.411
11155W        W83470  11.841   4.773   3.652
11156W        W83471  20.203  34.040  13.813
11157W        W83472  25.471  16.575  11.927
11158W        W83473  20.155  30.470  11.516
11159W        W83474   5.424  20.176  12.994
11160W        W83475  28.162  17.725   4.732
11161W        W83476   2.459   7.277   1.780
11162W        W83477  34.613  14.305  14.421
11163W        W83478   1.773  43.334   4.773
11164W        W83479  20.267  39.462   4.122
11165W        W83480  11.137  32.043   2.322
11166W        W83481  41.525   0.398   1.913
11167W        W83482  42.898  22.030   3.847
11168W        W83483  35.953  34.877   1.840
11169W        W83484  19.113  34.947  11.438
11170W        W83485  13.150  25.531   2.402
11171W        W83486  30.968  11.232  13.042
11172W        W83487  13.705  30.998   0.375
11173W        W83488  19.234  24.636  11.571
11174W        W83489  36.489  21.538   1.310
11175W        W83490  31.906  11.681  13.023
11176W        W83491  37.502  12.263   0.463
11177W        W83492   0.932  43.316   1.928
11178W        W83493  16.741  37.938  12.857
11179W        W83494   9.385   8.183   3.290
11180W        W83495  16.760  11.292  14.832
11181W        W83496   9.393  43.467   0.356
11182W        W83497   5.750  23.616   0.436
11183W        W83498   6.791  43.387  13.327
11184W        W83499   1.451  41.389   3.704
11185W        W83500   2.375  37.390  12.994
11186W        W83501  11.165   1.264   4.281
11187W        W83502   1.331  32.411   4.609
11188W        W83503  36.486  23.226   2.667
11189W        W83504  43.012  18.604   5.273
11190W        W83505  28.658  23.507   4.793
11191W        W83506   4.709  13.757   4.204
11192W        W83507  33.403  39.959   4.674
11193W        W83508  38.035  41.956  11.889
11194W        W83509   8.296   9.391   1.326
11195W        W83510  23.679   4.862  14.806
11196W        W83511  15.798  12.714  10.137
11197W        W83512  29.448   7.811   2.888
11198W        W83513  12.209  43.887  14.512
11199W        W83514  36.554  31.481   1.391
11200W        W83515  22.701  25.471   1.839
11201W        W83516  12.651  23.640  12.022
11202W        W83517   5.779  44.865  10.452
11203W        W83518  42.351  25.057   0.380
11204W        W83519  31.004   6.786   1.699
11205W        W83520   0.354   2.238  14.936
11206W        W83521  28.676  41.393  10.545
11207W        W83522  44.946  37.073  13.536
11208W        W83523  13.616  10.234  10.988
11209W        W83524   5.382  19.237   0.345
11210W        W83525  44.356  17.253   4.820
11211W        W83526  30.463  12.798  13.981
11212W        W83527  31.629  43.796  14.852
11213W        W83528  27.982   8.161  10.635
11214W        W83529  33.484  15.691   0.916
11215W        W83530  20.624  30.521  11.504
11216W        W83531  20.032  24.538   4.835
11217W        W83532  27.007   9.324  10.909
11218W        W83533   9.186  41.875  11.021
11219W        W83534  14.728  11.168   1.841
11220W        W83535   8.845  19.683  12.017
11221W        W83536  22.520  30.651  14.442
11222W        W83537  13.815   7.397  12.985
11223W        W83538  17.611   2.881  13.344
11224W        W83539  24.986  27.578  11.454
11225W        W83540   5.724   1.874  13.313
11226W        W83541  40.981   5.781   1.725
11227W        W83542  17.740  43.909   0.432
11228W        W83543  10.139  38.847   4.159
11229W        W83544  42.324  27.982   4.147
11230W        W83545  33.967  31.126  10.521
11231W        W83546  19.544  30.645   1.917
11232W        W83547   7.264  27.985  14.761
11233W        W83548  42.392  38.898  12.912
11234W        W83549  37.463  25.671   3.163
11235W        W83550  20.055  23.699   2.773
11236W        W83551  36.009  18.213   2.277
11237W        W83552  33.055  40.317   1.833
11238W        W83553  42.856   8.280  11.907
11239W        W83554  39.510  15.620   2.783
11240W        W83555  27.516  13.290  13.346
11241W        W83556  24.665   2.296  12.373
11242W        W83557  29.987   2.237  12.432
11243W        W83558  21.576  24.502  10.434
11244W        W83559  42.359   1.893  14.914
11245W        W83560  17.287  14.803   3.298
11246W        W83561  12.741  28.167  11.121
11247W        W83562  23.583  24.629  13.836
11248W        W83563  34.876  39.380  11.489
11249W        W83564   3.237  42.418   4.679
11250W        W83565  34.503   9.646   2.867
11251W        W83566   8.215  40.512  13.518
11252W        W83567  39.931  34.079  11.879
11253W        W83568  28.035  33.091   3.709
11254W        W83569  12.347   2.768   4.835
11255W        W83570  32.083   3.726   0.906
11256W        W83571   3.832   7.193   3.271
11257W        W83572  35.532  32.019  12.860
11258W        W83573  32.577  35.374   4.708
11259W        W83574   0.393  24.632   0.348
11260W        W83575  43.339  22.728   3.832
11261W        W83576   3.318  42.026   4.269
11262W        W83577   7.779  43.288  13.982
11263W        W83578   9.686  44.264  11.549
11264W        W83579  22.721  35.376   1.799
11265W        W83580  44.921   6.422  14.359
11266W        W83581  28.504  24.635   2.230
11267W        W83582  25.180   9.649  11.489
11268W        W83583  23.240  11.313   2.278
11269W        W83584  24.673  14.278  12.578
11270W        W83585  43.341  15.592   0.728
11271W        W83586  20.158   5.693  13.822
11272W        W83587   5.439  39.918   1.745
11273W        W83588  15.310   5.741  12.053
11274W        W83589   9.764  31.114  13.057
11275W        W83590  26.536  36.363  13.404
11276W        W83591  41.446  14.136  14.879
11277W        W83592  26.658  40.048  14.827
11278W        W83593   6.896  10.749  12.958
11279W        W83594  35.983  12.315   3.182
11280W        W83595  41.457  42.484  10.634
11281W        W83596  41.030   0.257  14.928
11282W        W83597   8.722  34.961   2.668
11283W        W83598  28.668  10.221  11.466
11284W        W83599  30.582  43.319   4.637
11285W        W83600  25.532  29.146  11.489
11286W        W83601  25.136  36.939   2.773
11287W        W83602   9.849  29.480  14.284
11288W        W83603  13.655  43.905   1.253
11289W        W83604   6.785  32.397  11.377
11290W        W83605  15.165  21.100   1.370
11291W        W83606  42.847  28.118  11.506
11292W        W83607  16.224  12.126   2.287
11293W        W83608  18.767  23.210  14.283
11294W        W83609  12.762  17.666   4.300
11295W        W83610  18.586   3.879   0.751
11296W        W83611  40.303  24.542  11.072
11297W        W83612   3.775  25.052   3.657
11298W        W83613  23.044  13.270  11.431
11299W        W83614  14.595  28.987  10.980
11300W        W83615  43.457  15.232   0.917
11301W        W83616  24.550  32.128  14.329
11302W        W83617   7.270  30.523  12.903
11303W        W83618  23.593  38.510  13.905
11304W        W83619  15.307  26.009   2.279
11305W        W83620   9.212  34.372  14.476
11306W        W83621  34.399  39.955  11.929
11307W        W83622  36.493   6.298   1.218
11308W        W83623   2.918  24.718   3.684
11309W        W83624   1.444  33.071  11.099
11310W        W83625  19.678   5.385   2.892
11311W        W83626  41.500  33.953   3.750
11312W        W83627  44.970  29.658  12.059
11313W        W83628  33.491  41.356  10.051
11314W        W83629  25.970  11.347  14.785
11315W        W83630  28.645  23.138  14.876
11316W        W83631  36.890  10.695  12.385
11317W        W83632  23.598  27.125  10.977
11318W        W83633  13.761  28.629  12.986
11319W        W83634  35.597  34.116   4.168
11320W        W83635  21.708  25.483   1.350
11321W        W83636  40.901   2.872   2.798
11322W        W83637  19.762  44.965   4.342
11323W        W83638  29.654  41.865   4.732
11324W        W83639   9.315  33.604  11.060
11325W        W83640  32.535  27.069  13.361
11326W        W83641  41.397  10.796   2.690
11327W        W83642  15.689   1.886   1.738
11328W        W83643  32.951  16.256   3.197
11329W        W83644  12.637  19.066  14.311
11330W        W83645  14.681  14.173   3.660
11331W        W83646  37.932  11.272   0.880
11332W        W83647  26.205   4.337   2.750
11333W        W83648  25.604   4.810  10.993
11334W        W83649  38.840   7.823  13.359
11335W        W83650  35.598  32.960   0.262
11336W        W83651  21.736  38.464  12.361
11337W        W83652  19.639   4.852   0.825
11338W        W83653  15.286  42.990  11.375
11339W        W83654  15.751  42.346  11.569
11340W        W83655   1.284  32.514   2.384
11341W        W83656  39.461  40.506   3.636
11342W        W83657  29.985  36.461  11.510
11343W        W83658  10.321  29.120  11.530
11344W        W83659  29.663  18.126  11.056
11345W        W83660  12.785   3.287   2.758
11346W        W83661  18.072  22.505   2.238
11347W        W83662  28.999   1.295   0.471
11348W        W83663   8.220  18.599   1.398
11349W        W83664  36.496  41.484  14.404
11350W        W83665  20.066  12.803   3.695
11351W        W83666  37.962  13.641  13.349
11352W        W83667  10.296  24.555  14.319
11353W        W83668  41.445   8.304   3.330
11354W        W83669  12.807  16.080   2.850
11355W        W83670   4.412  33.959  11.393
11356W        W83671   1.367  32.025  14.400
11357W        W83672  39.476  23.155   2.394
11358W        W83673  32.402  42.986   0.965
11359W        W83674   7.825  35.918  14.422
11360W        W83675  13.771   9.311  14.857
11361W        W83676  14.337  24.035  14.877
11362W        W83677   1.348  41.469  14.484
11363W        W83678  30.980  34.447   0.330
11364W        W83679   8.401   7.867   3.181
11365W        W83680  31.560  19.729  14.922
11366W        W83681  18.654   8.237   3.822
11367W        W83682  22.519  27.989   4.224
11368W        W83683   4.354  20.767  11.503
11369W        W83684  25.981  22.192  14.345
11370W        W83685  26.974  17.220   1.251
11371W        W83686  24.533  10.863  12.010
11372W        W83687  30.631  35.881  13.323
11373W        W83688  31.922  31.575  10.586
11374W        W83689  22.646  44.773   3.289
11375W        W83690  37.367  35.384   2.324
11376W        W83691  18.599   0.251   1.728
11377W        W83692  17.155   3.309  10.637
11378W        W83693  32.049  18.679   1.334
11379W        W83694  21.585  31.996   9.991
11380W        W83695  37.945  25.487  11.462
11381W        W83696   1.879   4.302  13.496
11382W        W83697  23.008  31.489  12.494
11383W        W83698  25.992   0.825  13.806
11384W        W83699  35.534  13.631  13.796
11385W        W83700  13.339   3.398  13.507
11386W        W83701  43.459  37.525  10.551
11387W        W83702  43.511   1.257  13.974
11388W        W83703   7.209  24.718  14.870
11389W        W83704  23.668  12.815   0.792
11390W        W83705  40.494  32.003   0.956
11391W        W83706  34.907  12.713  12.080
11392W        W83707  17.709  24.506  12.035
11393W        W83708  25.615  37.866   0.413
11394W        W83709  19.153  42.987   4.197
11395W        W83710  23.024  14.180  14.377
11396W        W83711  30.110  31.004   4.665
11397W        W83712  22.147  30.617   4.188
11398W        W83713  24.177  36.094  12.368
11399W        W83714  31.604  34.945  12.980
11400W        W83715  15.167  35.491  12.350
11401W        W83716  22.672   8.364   4.693
11402W        W83717  31.588   1.827  11.436
11403W        W83718  40.867  35.420  13.473
11404W        W83719  13.136  32.555  13.496
11405W        W83720  11.287  25.996  12.095
11406W        W83721  24.181  15.706   3.371
11407W        W83722  34.481  25.645  13.471
11408W        W83723  19.704   7.319  13.384
11409W        W83724  29.924  23.082  10.967
11410W        W83725  30.572  23.113   3.724
11411W        W83726   3.799  13.317   2.410
11412W        W83727  30.499  20.041  11.473
11413W        W83728  36.878  31.083   3.634
11414W        W83729  28.507  33.034  11.568
11415W        W83730  28.502  22.676   1.321
11416W        W83731  40.833  18.211  12.419
11417W        W83732  18.193  44.418  14.897
11418W        W83733  27.646  44.479  13.387
11419W        W83734   3.778  28.025  14.428
11420W        W83735  14.285  31.071  13.521
11421W        W83736  40.958  39.064  13.865
11422W        W83737  30.623   2.437  14.912
11423W        W83738   9.845   9.290   0.261
11424W        W83739   8.763   3.227  14.276
11425W        W83740  11.858  11.621   1.764
11426W        W83741  30.628   6.316  11.029
11427W        W83742  20.191  20.132   2.775
11428W        W83743   9.701  39.044   2.242
11429W        W83744  32.458  19.276   4.641
11430W        W83745   5.262  33.021   4.710
11431W        W83746  10.314  25.542   2.245
11432W        W83747  22.681  34.876  14.371
11433W        W83748  34.372  14.338  13.496
11434W        W83749  10.364   8.221  12.094
11435W        W83750  18.162  13.846  13.430
11436W        W83751  31.470  17.642   3.670
11437W        W83752  27.547  20.233  10.460
11438W        W83753  28.039   0.758  11.520
11439W        W83754  31.912  12.672   1.803
11440W        W83755  34.022  41.533  12.489
11441W        W83756  15.269  17.593  10.432
11442W        W83757  28.050   7.298   0.729
11443W        W83758  24.001  33.568   4.200
11444W        W83759  38.044  38.880   1.743
11445W        W83760  18.221  44.301   0.903
11446W        W83761   1.279   0.458  11.994
11447W        W83762  31.022  19.242  14.472
11448W        W83763  43.785  19.730  11.391
11449W        W83764  12.230  22.188  12.867
11450W        W83765  13.197  30.483   3.839
11451W        W83766  18.144  24.578  10.587
11452W        W83767  17.233  25.194  10.041
11453W        W83768   5.290  34.926   1.855
11454W        W83769   8.180  37.830  12.924
11455W        W83770  10.876  36.024  10.498
11456W        W83771  24.984  30.451  12.921
11457W        W83772  21.742  27.483  13.492
11458W        W83773  32.469  44.871   2.299
11459W        W83774  17.128  35.474  11.000
11460W        W83775  29.100  11.785   1.866
11461W        W83776   6.891   6.772   2.277
11462W        W83777   0.932   1.846  14.380
11463W        W83778  21.263  14.682  10.404
11464W        W83779  12.214   9.802   2.366
11465W        W83780  43.848  25.132  11.125
11466W        W83781   7.362  26.073  12.984
11467W        W83782  32.493  19.546  13.955
11468W        W83783  40.943  37.882   2.776
11469W        W83784  19.183  34.591  10.954
11470W        W83785  33.537  36.435  13.039
11471W        W83786   7.287  36.857  11.010
11472W        W83787   0.408  18.647  11.070
11473W        W83788   0.482  18.212  12.521
11474W        W83789  20.047  12.350   0.472
11475W        W83790  30.064  30.963  13.368
11476W        W83791  26.107  30.050  14.981
11477W        W83792  44.799  11.704  11.971
11478W        W83793  13.164  39.444  13.391
11479W        W83794  43.873  34.386   1.255
11480W        W83795  15.122  34.869  12.984
11481W        W83796  13.227  17.700   2.759
11482W        W83797   2.304   8.318  12.927
11483W        W83798   9.394  11.706  14.405
11484W        W83799  40.545  31.520   2.678
11485W        W83800   6.816  20.197  10.963
11486W        W83801  15.782   3.352  12.496
11487W        W83802  39.429   4.392  10.942
11488W        W83803  44.967  35.567   5.107
11489W        W83804  16.313   7.717  12.003
11490W        W83805  21.020  25.125   4.811
11491W        W83806   8.349  28.159   3.808
11492W        W83807  35.436   5.390   3.851
11493W        W83808   4.413  23.051   3.844
11494W        W83809   4.791  37.533  12.861
11495W        W83810  40.848  42.963  12.076
11496W        W83811  27.491  19.597   3.867
11497W        W83812  23.116  30.060   2.412
11498W        W83813  21.061   6.697   4.636
11499W        W83814   4.326  18.562  12.369
11500W        W83815  33.592  33.538  10.959
11501W        W83816   1.380  23.636   2.755
11502W        W83817  27.142  24.026   4.133
11503W        W83818  20.666   9.216   4.778
11504W        W83819  24.497  37.886  10.997
11505W        W83820  22.083  27.195  11.484
11506W        W83821  13.840   2.859  14.399
11507W        W83822   7.383  37.068   0.907
11508W        W83823  19.764  24.480  12.094
11509W        W83824  14.206   8.173   3.761
11510W        W83825   9.868  34.502   0.753
11511W        W83826  13.135  40.984   3.259
11512W        W83827  29.535  19.243  11.906
11513W        W83828  38.374  19.637   0.941
11514W        W83829  15.099  28.021  13.814
11515W        W83830  10.363  17.151  10.502
11516W        W83831  40.458  14.313  14.394
11517W        W83832  18.677   4.807  14.511
11518W        W83833  34.111   0.357  11.894
11519W        W83834  33.587   0.900  13.446
11520W        W83835   4.390  13.845   1.841
11521W        W83836  33.093  15.747  11.528
11522W        W83837  23.614  37.395   1.918
11523W        W83838  42.776  10.769   4.222
11524W        W83839  24.590  20.159  12.867
11525W        W83840   8.391  30.528   1.799
11526W        W83841  15.649   3.825   4.632
11527W        W83842  22.725  20.245   1.291
11528W        W83843  10.252  23.555  12.485
11529W        W83844  14.806  17.124   2.734
11530W        W83845  32.141  43.472  10.539
11531W        W83846  38.495   1.813   1.751
11532W        W83847  44.851  21.630  11.055
11533W        W83848  36.570  13.718   4.213
11534W        W83849   5.928  23.648   4.619
11535W        W83850  37.421   9.695  14.795
11536W        W83851  22.595   3.833   2.872
11537W        W83852  21.593  22.696  10.561
11538W        W83853  17.795  12.318  14.487
11539W        W83854   6.417   0.437  12.045
11540W        W83855  26.175  36.557   3.702
11541W        W83856   8.720   6.844  12.972
11542W        W83857   8.675  31.064  12.468
11543W        W83858  32.498  37.969  10.405
11544W        W83859  25.514  26.515  12.520
11545W        W83860  41.952  33.567   1.267
11546W        W83861  12.327  15.803   0.465
11547W        W83862   6.323   7.287  11.488
11548W        W83863  20.153  27.485   0.815
11549W        W83864  30.602  13.160   1.841
11550W        W83865   4.797  23.579   0.466
11551W        W83866  35.866  19.643   3.244
11552W        W83867  22.111   1.295   3.716
11553W        W83868  29.951   3.364   1.361
11554W        W83869  17.741  34.993  10.548
11555W        W83870  18.150  27.192   0.446
11556W        W83871  14.308  28.013   4.832
11557W        W83872  18.725  28.473   0.774
11558W        W83873  30.422  39.338   0.746
11559W        W83874  33.051  29.149   2.254
11560W        W83875   6.859  43.467   2.773
11561W        W83876  25.634  34.976  12.840
11562W        W83877  44.775  34.553   5.275
11563W        W83878  26.511  33.985   0.784
11564W        W83879  19.214   8.184   4.140
11565W        W83880  38.371  42.481   2.889
11566W        W83881  29.085   4.325  13.992
11567W        W83882  29.463  23.214  10.992
11568W        W83883  44.272  28.010   3.290
11569W        W83884   1.327  18.774   2.212
11570W        W83885  20.755   2.353   4.652
11571W        W83886  16.251  26.665  12.883
11572W        W83887  29.622  23.699  12.491
11573W        W83888  25.145   5.403   1.327
11574W        W83889   3.421  26.130  11.011
11575W        W83890  41.495  18.244  12.566
11576W        W83891  10.149  28.964  11.098
11577W        W83892   8.831  32.008  12.845
11578W        W83893  36.506  25.549  14.465
11579W        W83894  15.286  20.071  12.370
11580W        W83895  13.240  24.546  14.319
11581W        W83896  16.281  15.251  11.945
11582W        W83897  34.999  44.855   0.348
11583W        W83898  28.046  42.349  14.501
11584W        W83899  17.155  39.859  12.074
11585W        W83900  14.655  14.652   4.753
11586W        W83901  36.460  15.089   3.647
11587W        W83902  16.152  33.465  14.398
11588W        W83903  28.077  43.972   1.929
11589W        W83904   7.723  44.757  14.442
11590W        W83905  39.932  17.723   3.291
11591W        W83906  21.073  19.097   4.832
11592W        W83907  35.925  44.481  11.463
11593W        W83908  23.120  37.984   3.725
11594W        W83909  21.623  43.358   3.294
11595W        W83910   1.361  14.138   0.447
11596W        W83911  10.325  41.791   1.820
11597W        W83912   3.342  23.134  14.975
11598W        W83913  38.358  14.799   2.294
11599W        W83914  12.139  30.921  14.914
11600W        W83915   1.470  27.560   2.903
11601W        W83916  13.676  31.543  14.958
11602W        W83917  31.498  42.523  11.089
11603W        W83918  26.160  21.031  11.444
11604W        W83919   0.297  35.554   3.752
11605W        W83920  17.600  38.029  13.392
11606W        W83921  31.446   3.233  12.075
11607W        W83922  23.668  42.381   2.372
11608W        W83923  12.304  27.113   1.900
11609W        W83924  42.861  31.105  13.548
11610W        W83925  15.708  10.366   4.208
11611W        W83926   1.286   2.387   4.316
11612W        W83927  24.024  44.904  14.382
11613W        W83928  25.558  21.590  11.538
11614W        W83929  43.810  24.189  10.959
11615W        W83930   1.736  13.713   1.401
11616W        W83931  24.986  35.446   2.854
11617W        W83932  37.901  30.536   0.440
11618W        W83933  18.055  38.504   4.219
11619W        W83934  16.607  23.217  13.793
11620W        W83935  32.083  42.376  13.841
11621W        W83936  23.614  38.407   0.468
11622W        W83937  17.121  13.820  10.933
11623W        W83938  18.654  33.597   2.748
11624W        W83939  17.772   8.893  11.452
11625W        W83940  37.011   0.262   4.697
11626W        W83941   7.767  27.970  13.320
11627W        W83942   5.248   0.266   2.218
11628W        W83943   5.744  26.457   4.159
11629W        W83944  24.992  34.382   1.291
11630W        W83945  27.973  17.743  13.890
11631W        W83946  42.288  21.101   2.367
11632W        W83947  34.994   6.288  14.419
11633W        W83948  30.518  15.275  14.322
11634W        W83949  27.085  14.783  12.021
11635W        W83950   0.845   6.720   4.350
11636W        W83951   9.830  38.360  14.416
11637W        W83952   1.964   8.809   3.852
11638W        W83953  40.399  39.495  14.005
11639W        W83954   7.309   4.304  12.889
11640W        W83955  43.791  37.014  11.495
11641W        W83956  14.800  42.359  11.584
11642W        W83957  36.376   2.443   1.342
11643W        W83958  36.360  24.688  11.904
11644W        W83959  26.957  32.437  12.018
11645W        W83960  10.805  43.410  12.878
11646W        W83961  16.123   9.323   0.382
11647W        W83962  12.794  40.316  13.426
11648W        W83963   7.366  22.600   2.760
11649W        W83964   9.203   5.388  13.397
11650W        W83965  31.466  18.607  10.498
11651W        W83966  21.728  29.439  10.515
11652W        W83967   0.461  22.093   3.677
11653W        W83968  21.525   2.260  10.958
11654W        W83969  32.489  16.780   4.287
11655W        W83970  26.612  36.850  14.431
11656W        W83971  14.706  32.554  13.440
11657W        W83972  43.951  11.660   5.255
11658W        W83973  26.036  34.567  13.393
11659W        W83974  13.110  14.765   3.817
11660W        W83975  16.136  37.888  14.334
11661W        W83976  12.362  38.352   3.709
11662W        W83977   5.419  40.378   2.238
11663W        W83978   1.881  25.129   3.854
11664W        W83979  38.898  12.242   3.258
11665W        W83980  26.044  40.048   3.841
11666W        W83981  33.544  35.396   1.925
11667W        W83982  12.658  40.832  10.535
11668W        W83983   2.843   0.420   1.926
11669W        W83984   1.923   6.256  12.023
11670W        W83985  31.114  10.757  12.399
11671W        W83986   1.294  32.526   0.894
11672W        W83987  43.922  44.333   0.964
11673W        W83988  35.886  39.319   1.316
11674W        W83989   3.797  37.349  10.499
11675W        W83990  39.883  32.027   3.844
11676W        W83991  29.953  39.477  14.777
11677W        W83992  18.063  35.951   2.394
11678W        W83993   1.739  31.452   3.206
11679W        W83994   8.305  39.030   3.213
11680W        W83995  12.831  35.010   0.442
11681W        W83996  36.041  27.950  11.948
11682W        W83997  15.669  37.008  10.480
11683W        W83998  24.141  10.852  12.947
11684W        W83999  27.180  12.781   0.472
11685W        W84000  40.386  24.679  14.818
11686W        W84001  37.435  24.004  14.884
11687W        W84002  32.393  12.658  10.969
11688W        W84003  20.623  28.001  14.851
11689W        W84004   4.231   6.836  14.938
11690W        W84005   5.736  11.345  12.954
11691W        W84006  22.136  18.769   1.288
11692W        W84007   3.325  15.186  12.061
11693W        W84008  29.428   3.446  11.065
11694W        W84009   3.883  29.539   2.368
11695W        W84010  36.913  24.046   1.931
11696W        W84011  30.948  25.572  10.474
11697W        W84012  15.651  14.727  13.833
11698W        W84013  35.058  43.014  11.953
11699W        W84014  32.080  23.221   2.374
11700W        W84015   3.313   5.391   3.199
11701W        W84016  44.416   3.803   4.232
11702W        W84017  18.093  27.636  13.816
11703W        W84018  17.741   2.820   3.164
11704W        W84019  34.391   0.351  10.995
11705W        W84020  18.166  10.762   5.176
11706W        W84021  32.567  35.962  13.809
11707W        W84022  37.528  11.717  14.329
11708W        W84023   3.379  13.809  12.555
11709W        W84024  16.619  40.798  13.902
11710W        W84025  33.461   8.792  10.490
11711W        W84026  41.016  13.351  11.127
11712W        W84027  38.378  12.232   3.250
11713W        W84028  36.875  11.160   0.436
11714W        W84029   3.716   3.418   2.694
11715W        W84030  32.903   2.861  12.401
11716W        W84031  34.915  37.050  10.632
11717W        W84032  10.361   5.813   3.668
11718W        W84033  28.086  34.869   5.236
11719W        W84034  34.610  33.079   3.722
11720W        W84035  44.872  33.442  10.587
11721W        W84036  33.485  12.228   3.201
11722W        W84037  13.279  15.767  10.462
11723W        W84038  28.514   6.342   1.332
11724W        W84039   7.277  40.503   1.296
11725W        W84040  23.057  34.024   3.699
11726W        W84041  11.285   4.806  14.935
11727W        W84042  15.264  16.098  12.567
11728W        W84043  11.295  17.159   0.834
11729W        W84044  28.496  10.845  10.888
11730W        W84045  25.033  42.395   3.695
11731W        W84046   4.375   9.246  14.384
11732W        W84047  18.196  28.070   2.803
11733W        W84048  34.895  31.957   1.800
11734W        W84049  13.160  26.063  11.534
11735W        W84050  40.374   3.932  10.543
11736W        W84051  27.676  44.851  14.285
11737W        W84052   4.708   9.810  14.892
11738W        W84053  43.896  18.751   4.244
11739W        W84054  11.275  10.191  11.972
11740W        W84055   7.381   7.809  14.828
11741W        W84056   6.889  35.037   3.284
11742W        W84057   7.369  32.424  14.804
11743W        W84058   0.972   7.666   4.275
11744W        W84059  39.934  10.743  14.297
11745W        W84060  18.087  20.603  12.384
11746W        W84061  11.752   0.802  10.980
11747W        W84062  42.429  40.451  14.816
11748W        W84063  19.079  19.682  11.103
11749W        W84064  15.292  35.576   1.225
11750W        W84065  11.660  10.197  14.456
11751W        W84066  24.021   5.225  10.985
11752W        W84067  28.105   0.918  10.997
11753W        W84068  25.619   9.884  11.069
11754W        W84069  12.837  27.598  12.339
11755W        W84070  19.225  21.086  13.973
11756W        W84071   1.447  10.210  12.874
11757W        W84072  35.415   1.843  11.595
11758W        W84073  26.653   3.933   4.238
11759W        W84074  27.446  35.481  11.515
11760W        W84075  17.729   4.317   4.228
11761W        W84076  24.050  10.871   0.346
11762W        W84077   7.831  40.849  12.087
11763W        W84078  21.255  34.996  13.861
11764W        W84079  13.280  21.689  10.578
11765W        W84080   0.436  35.592  11.592
11766W        W84081  44.363  40.516   5.124
11767W        W84082  36.553  13.837   0.335
11768W        W84083  39.869  35.909  14.852
11769W        W84084   2.281  17.159  10.616
11770W        W84085   2.349   7.672   0.278
11771W        W84086  33.501  43.977  11.549
11772W        W84087  20.176  40.375   0.865
11773W        W84088  20.143  11.286   0.378
11774W        W84089  26.609  32.517   1.889
11775W        W84090  17.720  22.571  14.433
11776W        W84091   4.813  44.283   4.660
11777W        W84092  17.648  36.849   0.915
11778W        W84093  12.787  32.978  13.858
11779W        W84094  18.188  21.207   4.296
11780W        W84095   2.757  29.171   4.764
11781W        W84096   0.450  14.702  13.799
11782W        W84097  16.728  22.084  11.863
11783W        W84098  44.915  16.596  10.954
11784W        W84099  32.946  11.823   3.675
11785W        W84100  19.259  27.148  12.030
11786W        W84101   1.422  19.225   1.724
11787W        W84102   6.855  39.325  10.987
11788W        W84103   5.850   7.401   4.146
11789W        W84104  22.233   0.474  14.761
11790W        W84105   4.896  16.665  11.415
11791W        W84106  30.456  21.701  13.973
11792W        W84107  41.826   7.306  10.005
11793W        W84108   8.320  12.118   2.186
11794W        W84109  36.484  21.744  12.385
11795W        W84110   1.856  15.204  10.577
11796W        W84111  36.951   0.399   2.733
11797W        W84112  12.742  13.316   5.250
11798W        W84113  36.977  43.322  10.550
11799W        W84114  37.497   2.860   2.262
11800W        W84115  16.243   4.880  14.846
11801W        W84116  30.084  23.490  12.885
11802W        W84117  37.469   5.361  14.374
11803W        W84118  42.991  19.129   0.482
11804W        W84119   8.676  38.429   4.286
11805W        W84120   7.906   8.791  14.513
11806W        W84121   1.481  24.091   2.663
11807W        W84122  15.579   2.390   4.754
11808W        W84123  43.406  32.087  13.428
11809W        W84124   2.365   2.888  13.984
11810W        W84125  22.729   7.191   0.310
11811W        W84126  27.125  11.768  12.859
11812W        W84127   0.486  35.860  11.568
11813W        W84128  15.788   4.434   4.282
11814W        W84129   9.851  41.996  14.402
11815W        W84130  28.567  41.925   3.320
11816W        W84131  38.052  21.592  11.493
11817W        W84132  39.332  18.608   4.808
11818W        W84133   0.259  33.971  14.771
11819W        W84134   1.908  41.387   0.462
11820W        W84135   9.736  17.689  10.589
11821W        W84136   3.747  13.177   3.172
11822W        W84137  30.996  29.988  13.543
11823W        W84138  33.058   7.797   4.823
11824W        W84139  38.400  15.730  11.023
11825W        W84140  44.268  26.467  10.626
11826W        W84141  38.502  20.140  13.925
11827W        W84142   2.892  36.039  12.871
11828W        W84143  10.375  19.546   4.806
11829W        W84144  29.443  21.090  12.030
11830W        W84145  35.557  24.135  13.444
11831W        W84146  37.337  29.986   4.777
11832W        W84147  18.161  29.627   0.252
11833W        W84148  40.365  29.938   4.209
11834W        W84149  29.153  11.692   3.375
11835W        W84150  15.221  23.083  11.123
11836W        W84151  18.667  29.024  11.000
11837W        W84152  14.795  44.318   3.313
11838W        W84153   5.852  22.530   4.622
11839W        W84154  40.913  18.189  13.978
11840W        W84155  10.661  44.269  12.907
11841W        W84156  38.438  30.068   0.786
11842W        W84157  44.454  12.202   2.889
11843W        W84158  39.944  24.071   0.436
11844W        W84159  10.673   7.262   1.830
11845W        W84160   7.852  27.186  10.997
11846W        W84161  33.544  23.668  12.552
11847W        W84162   4.268  43.955   4.314
11848W        W84163  42.024   7.221  11.524
11849W        W84164  19.166  15.286   1.227
11850W        W84165   2.783  34.103  10.906
11851W        W84166  36.071   4.336   2.737
11852W        W84167  41.459   1.384  13.019
11853W        W84168  25.658  23.674   4.809
11854W        W84169  29.082  34.053   5.246
11855W        W84170   6.427  19.065  10.939
11856W        W84171  40.987  30.560   0.752
11857W        W84172   3.286   7.248  13.361
11858W        W84173  25.160  26.622  14.858
11859W        W84174  34.116   7.208  14.828
11860W        W84175  34.453  18.167   2.709
11861W        W84176  13.655  22.160  11.890
11862W        W84177  39.365  25.057   2.276
11863W        W84178  25.689  35.071  10.624
11864W        W84179  37.049  10.142  12.577
11865W        W84180  13.608  26.608   1.439
11866W        W84181  33.488  15.626   1.906
11867W        W84182  30.959   5.776  13.963
11868W        W84183  31.556  24.502  14.284
11869W        W84184   6.789  10.351  14.913
11870W        W84185  41.845  43.894  12.527
11871W        W84186   4.449  31.464   2.296
11872W        W84187  15.264  35.019  12.473
11873W        W84188  33.974  44.839  10.954
11874W        W84189  27.197  24.563   2.802
11875W        W84190  12.289   7.814  13.060
11876W        W84191  41.832  12.158   0.882
11877W        W84192  26.655  20.211  11.114
11878W        W84193  27.046   8.890  12.899
11879W        W84194  39.058   1.970   4.115
11880W        W84195  37.559  31.088   2.824
11881W        W84196  38.430  17.706  13.994
11882W        W84197  43.948  41.530   4.264
11883W        W84198  30.643  26.530   3.693
11884W        W84199  23.644  44.936   2.856
11885W        W84200  20.152  13.668   3.160
11886W        W84201  30.028   5.748   0.317
11887W        W84202   7.260  19.226  12.002
11888W        W84203   5.422  34.049  14.503
11889W        W84204  30.055  20.079   4.688
11890W        W84205  14.321   3.248  10.507
11891W        W84206  24.699  35.414  12.510
11892W        W84207   1.801  43.445  13.491
11893W        W84208   2.899   6.280   1.924
11894W        W84209  11.138   6.776  14.875
11895W        W84210  31.045  25.659   3.214
11896W        W84211   7.375  16.286  13.798
11897W        W84212  22.540  26.146  14.820
11898W        W84213  30.105  36.065  14.023
11899W        W84214  39.424  25.628   2.310
11900W        W84215  32.028  43.876   0.260
11901W        W84216  14.790   1.260  14.444
11902W        W84217   3.420  41.515  12.455
11903W        W84218  22.523  15.221  12.043
11904W        W84219  17.676   0.883  12.562
11905W        W84220   3.721   7.680  13.915
11906W        W84221  29.447  41.934  14.324
11907W        W84222  25.681   7.711   0.775
11908W        W84223   8.781  24.997  11.881
11909W        W84224  33.520  40.386  14.919
11910W        W84225  13.289  17.752  10.572
11911W        W84226  11.737  30.057  12.096
11912W        W84227   5.877   1.964  10.624
11913W        W84228  26.670  42.311  10.923
11914W        W84229  38.456   7.272  14.832
11915W        W84230  38.328   2.840  10.494
11916W        W84231  17.154  25.074   4.318
11917W        W84232  23.171  24.678  14.825
11918W        W84233   7.666  26.009  11.886
11919W        W84234  40.393   0.405   2.754
11920W        W84235   9.878   3.747   1.884
11921W        W84236  20.534  24.137   1.283
11922W        W84237  41.903   0.941  14.291
11923W        W84238  30.523  20.050  12.386
11924W        W84239  43.817  23.601   0.899
11925W        W84240  13.167  10.241  14.276
11926W        W84241  19.175  16.598   3.228
11927W        W84242  12.615  22.162   1.813
11928W        W84243  38.524  42.997   0.880
11929W        W84244  11.353  10.241  13.855
11930W        W84245  25.702  24.480  12.438
11931W        W84246  41.813  32.500   3.703
11932W        W84247   7.855  18.203   4.737
11933W        W84248  15.738  30.454   4.155
11934W        W84249   0.267   6.355  10.981
11935W        W84250  29.449   2.470  14.798
11936W        W84251   8.280  30.916  13.345
11937W        W84252  14.697   9.206  10.547
11938W        W84253  21.643  11.160   3.356
11939W        W84254  12.228   5.860  14.026
11940W        W84255   5.293  35.025   2.828
11941W        W84256  10.651   1.432  11.070
11942W        W84257  35.377  40.379  11.456
11943W        W84258  27.966  27.446   1.694
11944W        W84259  18.668   0.773  10.592
11945W        W84260  26.510   2.461   4.732
11946W        W84261  22.073  16.221  12.895
11947W        W84262  12.275  28.147  14.885
11948W        W84263   5.761  30.133  11.990
11949W        W84264  24.154  23.079   3.368
11950W        W84265  19.250  44.979   2.864
11951W        W84266  21.150   6.890  11.958
11952W        W84267   3.756  28.573   4.208
11953W        W84268  16.708  38.487  14.784
11954W        W84269  37.542  23.660  11.971
11955W        W84270  37.965  42.940   0.883
11956W        W84271  35.957  28.605   3.259
11957W        W84272  40.376  19.779  11.081
11958W        W84273  30.576  31.402   2.370
11959W        W84274  13.643  12.125   1.400
11960W        W84275  38.408  19.234   4.611
11961W        W84276  24.694  27.113  10.408
11962W        W84277  17.096  43.902   2.337
11963W        W84278  28.632  41.306   2.851
11964W        W84279  20.059  12.770   5.272
11965W        W84280  17.226   5.807  13.449
11966W        W84281  26.093  40.456  12.529
11967W        W84282  23.164  23.569  14.762
11968W        W84283  32.527   4.264  13.358
11969W        W84284  44.331  14.624   0.271
11970W        W84285  43.312   9.324  12.454
11971W        W84286  32.067  39.355   2.860
11972W        W84287  12.710   6.846  12.370
11973W        W84288   3.726  30.926  14.452
11974W        W84289  20.205  20.767  10.442
11975W        W84290  11.127  13.147  14.389
11976W        W84291  29.021  32.570   4.148
11977W        W84292  11.690  30.935  11.450
11978W        W84293  27.585  18.671  11.537
11979W        W84294  33.976   2.786  10.427
11980W        W84295   3.409  28.589   1.721
11981W        W84296   9.797  18.195  10.973
11982W        W84297  11.739  13.734   0.951
11983W        W84298  24.556   0.983  12.492
11984W        W84299  24.071  39.407   0.816
11985W        W84300  25.670  37.994   4.613
11986W        W84301   5.795  36.888   2.810
11987W        W84302  32.053   9.882  11.891
11988W        W84303   7.823  30.483   3.863
11989W        W84304  21.124  39.993   4.189
11990W        W84305  35.854  37.925   4.264
11991W        W84306  28.035   9.358  11.919
11992W        W84307  19.118   5.417   1.310
11993W        W84308  18.187  38.878  11.972
11994W        W84309   0.475   6.749  13.480
11995W        W84310   1.888  20.266  11.892
11996W        W84311  19.097  31.482  14.839
11997W        W84312  12.793   4.242  11.497
11998W        W84313  16.187  17.179  12.345
11999W        W84314  43.481   1.831  10.643
12000W        W84315   7.307  13.345  11.883
12001W        W84316   0.887  23.727  14.952
12002W        W84317  28.648  16.613  13.828
12003W        W84318  37.952  28.086  13.996
12004W        W84319   0.263  20.551  14.773
12005W        W84320  40.015  44.284  11.974
12006W        W84321   7.715   3.718  11.379
12007W        W84322   1.350  25.493  14.310
12008W        W84323   4.308  31.427   1.873
12009W        W84324  23.596  22.059   1.810
12010W        W84325   9.785   7.911   0.353
12011W        W84326  34.084  39.064  10.515
12012W        W84327  41.985  34.391  12.069
12013W        W84328   7.183  42.893  14.441
12014W        W84329  42.778  39.410   0.288
12015W        W84330   7.388  34.901   2.317
12016W        W84331   6.882  31.093  10.530
12017W        W84332  14.710  24.703   3.223
12018W        W84333  17.123   6.871   0.480
12019W        W84334  29.617  17.293  14.409
12020W        W84335   0.480   2.453   4.253
12021W        W84336   8.260  29.558   2.693
12022W        W84337  24.611  27.101  14.906
12023W        W84338   1.399  27.535  13.811
12024W        W84339  41.936  20.592  11.857
12025W        W84340  34.865  40.525  12.084
12026W        W84341  31.618  26.176   2.387
12027W        W84342  43.995  40.813   4.174
12028W        W84343  16.225  19.162   3.709
12029W        W84344  17.096  40.021   2.236
12030W        W84345  11.334  13.806   0.425
12031W        W84346  28.541  11.838  11.446
12032W        W84347  27.081  19.044   0.290
12033W        W84348  14.798  15.317  10.478
12034W        W84349  10.699  24.611   4.242
12035W        W84350  30.011  24.721  12.968
12036W        W84351  27.595  20.567  10.423
12037W        W84352  43.870  15.223  10.945
12038W        W84353  12.209   1.428   2.235
12039W        W84354  26.175  34.519   3.745
12040W        W84355  37.865  37.393  13.504
12041W        W84356   7.393   1.364  10.578
12042W        W84357  36.416  17.745  10.638
12043W        W84358   8.897  35.949  14.464
12044W        W84359  23.722  40.947   1.745
12045W        W84360   0.778   6.777   0.832
12046W        W84361  17.610  12.342   1.833
12047W        W84362  41.364  15.276   1.296
12048W        W84363  41.007  15.590   0.788
12049W        W84364   9.227  40.309  13.039
12050W        W84365  16.605  35.043   3.764
12051W        W84366  33.557  33.527   4.758
12052W        W84367  12.791  16.721   5.170
12053W        W84368  11.789  31.550   0.811
12054W        W84369  39.051  19.230   0.444
12055W        W84370  25.025  14.312  12.521
12056W        W84371  11.222   1.322  14.417
12057W        W84372  12.125  19.636  12.849
12058W        W84373  34.491  15.210   0.426
12059W        W84374  11.138   5.226   0.339
12060W        W84375  24.013  17.286   1.764
12061W        W84376  33.063  33.911   1.354
12062W        W84377  36.915  34.947  12.858
12063W        W84378   9.725  14.183   0.927
12064W        W84379  18.660   1.253   1.922
12065W        W84380  26.096  41.034   0.310
12066W        W84381  26.113   3.357   4.223
12067W        W84382  21.636  19.155   4.338
12068W        W84383  15.739  40.536   4.132
12069W        W84384  14.820  34.994   1.763
12070W        W84385   4.226  12.849  11.869
12071W        W84386  11.827   1.302   1.847
12072W        W84387  28.644  43.377  13.544
12073W        W84388  32.937   2.354  13.430
12074W        W84389   1.821  19.571  11.375
12075W        W84390  18.778  37.049  13.848
12076W        W84391  30.578   1.799   2.297
12077W        W84392  38.999  15.763  10.636
12078W        W84393   2.962  20.132   4.748
12079W        W84394  23.144  27.639   0.285
12080W        W84395  26.460  20.245   0.766
12081W        W84396  19.066  23.132   4.288
12082W        W84397  20.077  35.073  11.899
12083W        W84398   0.763  10.251  12.348
12084W        W84399  24.487  18.674  12.531
12085W        W84400  35.969  17.189   4.619
12086W        W84401   8.203  29.996  10.929
12087W        W84402  23.703  41.495   2.793
12088W        W84403  30.606  10.771   2.854
12089W        W84404  24.484  41.496   4.810
12090W        W84405  44.463  34.379   3.788
12091W        W84406   3.816   0.248  13.388
12092W        W84407   5.711  11.273  13.351
12093W        W84408  29.525  31.136   0.426
12094W        W84409  41.963  35.571   0.322
12095W        W84410  41.537  26.605  14.300
12096W        W84411   1.387  26.641  10.575
12097W        W84412  16.230  24.084   3.650
12098W        W84413   9.747   6.400  14.843
12099W        W84414   3.854  44.931   3.665
12100W        W84415   7.411  43.484   2.220
12101W        W84416  17.663   6.203  13.412
12102W        W84417  23.716  14.228  11.916
12103W        W84418  11.267  20.102   4.687
12104W        W84419  42.504  21.074  10.476
12105W        W84420   8.233  22.154  12.020
12106W        W84421  34.982  40.445   0.913
12107W        W84422  34.934  42.968  14.398
12108W        W84423  22.740  31.030   1.930
12109W        W84424   9.697  40.505   1.379
12110W        W84425  27.053  28.057  12.853
12111W        W84426  21.131  12.337   0.403
12112W        W84427  41.425  41.431   0.242
12113W        W84428  35.962   3.414  10.486
12114W        W84429  26.538  11.706   3.258
12115W        W84430   4.288  22.685  14.804
12116W        W84431  13.796  44.274   0.946
12117W        W84432  35.416  18.209  13.499
12118W        W84433  25.596  21.181  14.809
12119W        W84434  12.813  39.490  11.110
12120W        W84435  16.765  34.456   0.247
12121W        W84436  39.326  27.063   3.369
12122W        W84437  35.595   6.259   1.410
12123W        W84438  39.910   2.471  12.498
12124W        W84439  29.556  33.454  12.432
12125W        W84440  38.848  16.731   3.825
12126W        W84441  12.322  32.498  10.459
12127W        W84442  22.029  24.573  12.053
12128W        W84443   9.155   8.357   3.692
12129W        W84444  13.727  10.312   2.378
12130W        W84445   0.320  29.059   2.829
12131W        W84446   9.699  36.859  14.303
12132W        W84447  35.477   4.915   0.966
12133W        W84448  23.022   0.279   4.300
12134W        W84449  35.440  38.428  10.424
12135W        W84450  16.661  20.611  10.577
12136W        W84451  36.561  15.726  10.146
12137W        W84452  43.874  17.613   4.175
12138W        W84453  33.466  22.210   3.698
12139W        W84454  20.524  10.143   4.700
12140W        W84455   9.392   3.283  11.859
12141W        W84456  34.073  18.682   3.805
12142W        W84457  31.920  31.136  13.987
12143W        W84458  22.528  37.464  11.039
12144W        W84459  29.150   0.766  12.830
12145W        W84460  28.076  36.098   5.235
12146W        W84461  14.619  25.612  13.445
12147W        W84462  18.624  20.263   4.770
12148W        W84463  30.510  30.097   0.819
12149W        W84464  11.371  25.073   0.323
12150W        W84465  20.102  40.460  11.994
12151W        W84466   8.858  42.894   3.226
12152W        W84467   5.880  28.061  14.884
12153W        W84468   1.483  18.281   3.200
12154W        W84469   7.721  32.972   4.269
12155W        W84470  13.817  43.362   1.787
12156W        W84471  20.041  31.102   1.409
12157W        W84472  17.634  22.198  12.444
12158W        W84473   1.467  28.463   0.961
12159W        W84474   0.381  29.025  10.446
12160W        W84475   3.352  13.729   0.402
12161W        W84476  34.008  12.732  12.514
12162W        W84477   0.856   0.859   1.419
12163W        W84478  21.169  10.269  10.937
12164W        W84479   2.783   6.262  14.472
12165W        W84480  23.524  24.529   2.722
12166W        W84481   4.326  42.849   2.898
12167W        W84482  43.451  36.074  11.602
12168W        W84483  31.581  22.519  13.915
12169W        W84484   6.854   4.723   0.260
12170W        W84485  44.938  42.873   4.207
12171W        W84486   9.643  18.186   3.679
12172W        W84487  20.044  11.321  11.430
12173W        W84488  31.991   7.696   0.940
12174W        W84489  24.127   1.392  13.917
12175W        W84490  16.587  11.699  13.024
12176W        W84491  31.051  10.228   5.089
12177W        W84492  33.450   7.723  12.017
12178W        W84493  40.044  25.621   5.197
12179W        W84494  23.557  16.657   4.326
12180W        W84495  17.155  16.600   4.722
12181W        W84496  23.701  35.946   1.863
12182W        W84497   9.339  38.435   2.234
12183W        W84498  34.531  40.470   4.730
12184W        W84499  28.940  27.508   2.801
12185W        W84500  32.101   7.842  11.898
12186W        W84501  44.264  43.510  14.510
12187W        W84502   1.870   7.726   4.281
12188W        W84503  28.009  32.495   0.403
12189W        W84504  11.837  22.594   4.185
12190W        W84505  32.140   2.890   0.802
12191W        W84506  14.333  36.090   2.820
12192W        W84507  16.783  16.203   0.947
12193W        W84508  40.343  16.573  12.400
12194W        W84509  12.266  21.113  11.541
12195W        W84510  43.936  34.031   0.832
12196W        W84511   6.699  10.195  11.513
12197W        W84512  36.951  39.454  13.449
12198W        W84513  44.948   8.688   3.769
12199W        W84514  29.961  19.547  11.942
12200W        W84515  39.362  33.021   3.726
12201W        W84516  20.211  40.502  13.039
12202W        W84517  22.568  25.130   4.131
12203W        W84518  42.000  16.684   4.283
12204W        W84519  38.501  22.211   1.932
12205W        W84520   1.815  29.616  13.520
12206W        W84521  43.363  38.906  13.002
12207W        W84522  38.517  31.054   3.258
12208W        W84523  23.088  19.565  11.857
12209W        W84524  12.186  28.954  14.948
12210W        W84525  20.271  26.617   4.755
12211W        W84526   3.344  41.321   0.945
12212W        W84527  33.582   8.701   2.186
12213W        W84528  12.138   9.281   1.784
12214W        W84529  26.703  19.574  13.491
12215W        W84530  30.574  15.684   5.128
12216W        W84531  10.208  10.804   1.859
12217W        W84532  42.783  24.179   4.814
12218W        W84533  22.117  14.327  12.504
12219W        W84534   8.891  10.364   1.387
12220W        W84535  23.521  25.606  11.381
12221W        W84536  29.668  31.026  10.949
12222W        W84537  19.545   4.367   4.820
12223W        W84538  39.914  29.121  12.557
12224W        W84539  34.045   5.759   3.191
12225W        W84540  25.549  29.541   1.771
12226W        W84541  24.167  42.326  13.806
12227W        W84542  31.551  37.379   2.681
12228W        W84543  16.647   7.856  10.446
12229W        W84544  40.041  35.379   2.894
12230W        W84545  10.254  21.231   1.881
12231W        W84546  15.148  20.617  11.453
12232W        W84547  35.041  20.124   1.825
12233W        W84548   2.296  36.568  13.498
12234W        W84549  28.002  40.408  12.086
12235W        W84550  14.807   3.915  13.401
12236W        W84551  22.137  33.094   4.114
12237W        W84552  40.976  43.952   3.314
12238W        W84553   0.478  16.254  10.419
12239W        W84554   1.894  41.459   4.632
12240W        W84555  40.809  16.257  10.616
12241W        W84556  20.106  19.165  13.949
12242W        W84557  34.591  13.761  11.124
12243W        W84558  36.434   9.768  11.511
12244W        W84559  14.833  34.961   3.198
12245W        W84560   1.360  44.794  12.066
12246W        W84561  25.206  33.907   1.716
12247W        W84562  35.955  19.544   4.173
12248W        W84563  27.155  35.016  13.353
12249W        W84564   8.662   2.927   3.177
12250W        W84565   2.295  16.666   4.649
12251W        W84566  44.364  16.651   1.832
12252W        W84567   3.378  42.921   0.745
12253W        W84568  28.116  20.730  11.911
12254W        W84569  32.429  18.201  12.940
12255W        W84570  40.415  20.163   0.316
12256W        W84571  16.285  35.451  12.525
12257W        W84572  20.607  35.047   1.369
12258W        W84573   4.383   8.884  12.482
12259W        W84574  36.458   3.838  13.463
12260W        W84575  19.776   8.712   4.245
12261W        W84576   7.367  39.334  11.447
12262W        W84577  15.257  44.921   1.406
12263W        W84578  28.663  26.167  14.376
12264W        W84579  36.539   1.307   0.359
12265W        W84580   2.349  29.949  11.881
12266W        W84581  12.128  18.774   1.385
12267W        W84582  24.132  26.102   3.703
12268W        W84583  12.838  27.172  14.359
12269W        W84584  35.569  17.277   1.898
12270W        W84585  26.015  36.054  14.999
12271W        W84586  26.110   6.356   2.689
12272W        W84587   0.824  17.782  13.026
12273W        W84588  42.814  40.528  12.061
12274W        W84589  37.844   9.761  10.934
12275W        W84590  23.040   9.694   1.366
12276W        W84591  26.156  19.175  14.958
12277W        W84592  31.114  20.191   4.142
12278W        W84593  28.602  39.385  10.588
12279W        W84594  27.474   8.690  13.418
12280W        W84595  10.829  30.475   2.862
12281W        W84596  39.540  27.956   4.151
12282W        W84597  37.927   7.338   3.275
12283W        W84598  21.567  10.286   2.776
12284W        W84599  15.271   7.674  11.456
12285W        W84600  39.060  41.857   1.904
12286W        W84601  23.509  13.220  13.336
12287W        W84602   5.224  36.970   3.286
12288W        W84603  30.022   3.258  11.557
12289W        W84604  32.585   0.824   3.244
12290W        W84605  20.586  25.544  14.376
12291W        W84606  30.594   9.182  11.859
12292W        W84607  17.567  25.080  14.429
12293W        W84608  23.692  18.241  14.380
12294W        W84609   0.807  36.875   0.343
12295W        W84610   7.416  34.394  13.030
12296W        W84611  33.906  15.181  12.987
12297W        W84612  18.253  16.691  13.390
12298W        W84613  29.089  38.835  14.296
12299W        W84614  11.313   8.684  13.923
12300W        W84615  28.175  40.808   3.735
12301W        W84616  43.771  43.834   1.885
12302W        W84617  16.802  18.768  13.058
12303W        W84618  29.458  23.601   3.370
12304W        W84619  38.891   9.821   2.744
12305W        W84620   5.739  36.436   0.413
12306W        W84621  41.937  28.124  14.395
12307W        W84622  15.639  32.396   1.820
12308W        W84623  31.051  16.795   2.871
12309W        W84624  10.166   8.707   0.945
12310W        W84625  32.049  27.573   1.754
12311W        W84626  44.996  31.586   3.637
12312W        W84627   3.792  26.625   2.681
12313W        W84628   4.444  36.981   1.277
12314W        W84629  35.059   3.953  14.339
12315W        W84630  25.180   2.875   0.793
12316W        W84631   9.285  36.500   1.446
12317W        W84632  21.238  37.884   1.234
12318W        W84633  17.155  32.897  10.514
12319W        W84634   7.297   2.894   1.797
12320W        W84635  37.505  34.567   0.857
12321W        W84636  36.580  16.715  13.994
12322W        W84637  38.419  16.582  13.514
12323W        W84638   8.274  33.071   1.791
12324W        W84639   2.226  24.128   4.315
12325W        W84640   4.217  17.064   0.735
12326W        W84641  16.791  10.687   5.641
12327W        W84642  33.600   1.345  13.372
12328W        W84643  26.579  30.076   1.741
12329W        W84644   3.315  12.348   0.273
12330W        W84645   5.215  19.061   1.802
12331W        W84646  32.490  36.920  14.827
12332W        W84647  30.568   5.717  14.914
12333W        W84648  15.727  35.013  10.921
12334W        W84649   8.405  20.647  10.926
12335W        W84650  32.130  29.614  11.928
12336W        W84651   8.209  38.498   4.711
12337W        W84652  16.749  20.161   0.253
12338W        W84653  31.981  25.986  11.955
12339W        W84654   0.983  42.524   4.655
12340W        W84655  31.056  33.061   1.840
12341W        W84656  12.751  24.217   1.351
12342W        W84657   9.259  19.214  14.999
12343W        W84658  32.416   7.678   2.262
12344W        W84659  33.931  43.404   1.927
12345W        W84660  22.533  41.959  12.965
12346W        W84661   6.869   4.923  14.319
12347W        W84662   6.799  12.198  13.007
12348W        W84663  15.762   0.356   2.411
12349W        W84664   9.328  39.314   3.778
12350W        W84665  20.756  10.231  13.930
12351W        W84666  39.528  23.990   3.743
12352W        W84667  39.934  17.594   3.777
12353W        W84668  18.082  28.172   4.335
12354W        W84669  31.980   3.309  10.552
12355W        W84670   5.236  37.894  10.440
12356W        W84671  19.633   8.190  11.476
12357W        W84672   9.304  43.390   3.234
12358W        W84673  34.531   9.874   3.322
12359W        W84674   5.838   7.216   3.234
12360W        W84675  19.234  42.797   0.795
12361W        W84676   3.733  31.139  10.461
12362W        W84677  28.088  14.751   4.684
12363W        W84678  35.038  44.964  10.521
12364W        W84679  24.016   9.361   3.261
12365W        W84680   6.813  40.969   0.866
12366W        W84681  30.592  32.943  11.484
12367W        W84682  24.580  27.511  14.969
12368W        W84683  27.670  19.231  12.403
12369W        W84684  32.052  33.994  13.993
12370W        W84685  14.804  27.554   1.300
12371W        W84686  39.491  34.002  14.421
12372W        W84687  10.746  37.359   5.166
12373W        W84688   4.402  14.677  13.057
12374W        W84689   2.818   7.715  13.022
12375W        W84690  16.734  19.245  13.948
12376W        W84691  25.707  25.060  13.051
12377W        W84692  15.777  10.868   0.936
12378W        W84693  25.079  32.500  12.557
12379W        W84694  33.004  35.452  13.489
12380W        W84695  27.588  39.354  14.001
12381W        W84696   1.968   3.386   2.882
12382W        W84697  17.583  39.058  10.528
12383W        W84698  24.020  20.185  13.874
12384W        W84699  25.102  35.956   1.255
12385W        W84700  15.184  20.091   2.726
12386W        W84701   1.403  31.045   0.851
12387W        W84702   0.765  11.754   3.355
12388W        W84703  27.508  39.448   3.353
12389W        W84704  27.482   8.864  12.895
12390W        W84705  39.909  21.198   1.309
12391W        W84706  21.690   6.834   2.261
12392W        W84707   2.307  17.161   1.837
12393W        W84708  27.595   1.295  11.067
12394W        W84709  29.121   5.884   5.129
12395W        W84710  18.183  14.308  13.840
12396W        W84711   5.829   5.811   3.328
12397W        W84712  28.064   2.837  12.393
12398W        W84713   7.901  10.816  14.951
12399W        W84714   2.282   6.833  10.981
12400W        W84715  16.311  31.145   2.742
12401W        W84716  22.707  33.429  10.462
12402W        W84717   1.912  15.101   4.823
12403W        W84718  42.866  13.810  11.608
12404W        W84719   2.959  20.226   3.771
12405W        W84720  23.020  19.056   2.300
12406W        W84721  13.140  13.711   3.707
12407W        W84722   4.248  13.678   3.255
12408W        W84723  24.116  34.888   4.625
12409W        W84724  23.526  32.474   0.452
12410W        W84725  20.041  24.044   1.448
12411W        W84726  17.292  33.115   3.278
12412W        W84727   0.453  25.979   4.198
12413W        W84728  12.615   9.209   4.273
12414W        W84729  24.541  12.812  14.999
12415W        W84730  27.686   0.258  14.996
12416W        W84731  18.160  33.113  13.042
12417W        W84732   3.887  39.350  10.920
12418W        W84733  39.523  29.152  10.988
12419W        W84734  35.579  35.021   3.174
12420W        W84735  33.099  30.553  14.467
12421W        W84736   0.441  26.655   3.230
12422W        W84737   2.947  10.190  13.333
12423W        W84738  36.859  36.578  13.865
12424W        W84739   1.248  23.696  14.886
12425W        W84740  36.454  18.706  12.360
12426W        W84741  16.093   6.373   2.684
12427W        W84742  19.158  35.416  13.034
12428W        W84743   4.758  26.481   0.921
12429W        W84744  31.988   4.439   0.478
12430W        W84745  21.621  25.687  14.769
12431W        W84746  11.694  35.056   0.847
12432W        W84747   8.669  40.410  14.855
12433W        W84748  30.018   6.219   1.754
12434W        W84749  30.953  17.229  12.979
12435W        W84750  43.930  13.757   3.262
12436W        W84751  21.575  43.018   3.835
12437W        W84752  16.265  21.127  10.118
12438W        W84753  35.552  26.992   1.264
12439W        W84754  14.640  24.078   4.822
12440W        W84755  43.401  11.233   1.401
12441W        W84756   2.287  36.536   0.747
12442W        W84757  14.702  27.646  11.955
12443W        W84758  26.558   6.415   1.229
12444W        W84759  14.260   2.339   0.731
12445W        W84760  27.065  13.218   0.911
12446W        W84761  33.011   4.773  13.309
12447W        W84762  37.837  26.514   4.659
12448W        W84763  13.107  23.159   3.731
12449W        W84764   0.371   1.243   0.858
12450W        W84765  27.451  14.322  10.495
12451W        W84766  25.543  44.267   2.362
12452W        W84767  39.822   5.421  14.327
12453W        W84768  22.055  16.749  14.358
12454W        W84769   2.444  17.160   1.442
12455W        W84770  44.767  41.960   2.730
12456W        W84771  14.163  36.015   4.799
12457W        W84772  18.763  36.548  14.449
12458W        W84773   3.360  41.449   1.923
12459W        W84774  12.256  30.581  13.492
12460W        W84775  41.526   9.704  13.340
12461W        W84776   9.831  34.537   2.273
12462W        W84777  24.520  10.204   1.307
12463W        W84778  41.016  39.371  13.410
12464W        W84779  25.995  17.673   3.634
12465W        W84780  26.971  32.487  14.848
12466W        W84781  15.262  37.982  13.538
12467W        W84782  11.149  21.624  11.531
12468W        W84783  16.642  15.596  11.872
12469W        W84784   2.800  25.980  12.541
12470W        W84785  11.779  34.880  10.899
12471W        W84786  26.701  36.585  12.842
12472W        W84787  19.618  11.655   4.135
12473W        W84788   7.846  31.056   0.259
12474W        W84789  28.592  20.211   3.708
12475W        W84790  28.026   4.304  10.913
12476W        W84791  17.210  11.784   3.870
12477W        W84792  37.856  10.201   2.224
12478W        W84793  20.626   2.853   4.717
12479W        W84794  26.977   7.194  10.891
12480W        W84795   3.831  14.789  13.959
12481W        W84796  29.575  36.454  14.319
12482W        W84797  41.393   9.721   1.788
12483W        W84798   4.762  19.553  12.937
12484W        W84799  41.016  40.447  13.536
12485W        W84800  37.847   4.824   3.225
12486W        W84801   0.266  28.944  12.096
12487W        W84802  11.331   5.697   0.747
12488W        W84803  25.612  30.629  10.484
12489W        W84804   5.797  21.212  13.449
12490W        W84805  32.591  33.996   3.675
12491W        W84806   3.854  40.441  12.480
12492W        W84807  44.960  38.409   0.813
12493W        W84808  23.160  12.128   1.227
12494W        W84809  34.529  23.061   1.899
12495W        W84810  26.998  41.433   2.902
12496W        W84811  12.683  27.056  10.906
12497W        W84812  39.452  24.495   3.706
12498W        W84813   1.350  29.140   3.161
12499W        W84814  37.553  31.564   4.325
12500W        W84815  19.141   8.739   2.335
12501W        W84816  27.180  42.007  13.036
12502W        W84817  28.487   1.310  13.834
12503W        W84818  30.515  36.035  11.593
12504W        W84819  33.104  26.031   1.290
12505W        W84820  12.249  44.853   3.731
12506W        W84821   1.955   5.850  10.506
12507W        W84822  10.690  24.181   4.728
12508W        W84823  25.007   4.352   1.818
12509W        W84824  28.619  15.170  13.513
12510W        W84825  20.228   8.697   4.165
12511W        W84826  11.356  24.605  13.324
12512W        W84827  32.010   0.851  11.605
12513W        W84828  35.092  17.632   4.169
12514W        W84829   2.458  34.407  10.929
12515W        W84830  18.707  21.553   1.233
12516W        W84831  27.973  43.018   1.697
12517W        W84832  14.627   0.762   0.849
12518W        W84833  21.089  43.421   3.254
12519W        W84834   5.750  42.966  14.311
12520W        W84835  19.579  37.914  11.397
12521W        W84836   3.225  35.888  11.033
12522W        W84837  42.471  18.590   3.335
12523W        W84838   5.754  14.592  13.793
12524W        W84839  23.152  10.683  12.548
12525W        W84840  24.028  19.203   2.193
12526W        W84841  13.608   0.861   0.762
12527W        W84842  30.620   2.906  11.063
12528W        W84843   0.339  41.815   4.775
12529W        W84844  23.223  28.123  12.509
12530W        W84845  11.759  24.583  12.925
12531W        W84846  13.191  38.827  14.414
12532W        W84847  23.599  23.597   4.807
12533W        W84848  15.778  32.943   3.223
12534W        W84849  32.927   1.455  11.460
12535W        W84850  32.954  20.029  13.319
12536W        W84851  18.064  43.954   3.693
12537W        W84852  20.033   2.920  13.817
12538W        W84853   9.382  12.727  11.399
12539W        W84854  44.999  25.130   0.950
12540W        W84855  41.035  31.537  12.546
12541W        W84856  12.260  39.852   2.325
12542W        W84857  25.983  33.613   0.439
12543W        W84858   8.857   2.251   4.699
12544W        W84859  11.795  20.229   9.983
12545W        W84860  20.235  29.643  10.572
12546W        W84861  13.786  28.059  14.925
12547W        W84862   2.808   0.764  12.512
12548W        W84863  14.692  28.026  13.930
12549W        W84864  44.315   7.709  13.820
12550W        W84865   4.399  19.161  13.526
12551W        W84866  29.141  11.218  13.328
12552W        W84867  23.199  18.703  12.001
12553W        W84868  31.910  11.290   3.358
12554W        W84869  37.074  26.980   4.146
12555W        W84870  34.865  16.710  14.276
12556W        W84871  16.794   4.734  11.506
12557W        W84872  27.565  36.869   3.814
12558W        W84873  36.390   0.330   3.791
12559W        W84874  11.756  26.955  13.423
12560W        W84875   9.341   9.881  11.045
12561W        W84876  35.486   5.244  14.424
12562W        W84877  17.752  29.098  10.575
12563W        W84878  15.087  35.502   2.277
12564W        W84879  34.436  17.264  14.309
12565W        W84880  10.289  15.751   2.419
12566W        W84881  16.762  40.023   0.936
12567W        W84882  43.509  42.972   1.865
12568W        W84883  35.078   3.295  11.953
12569W        W84884  38.864  24.524   0.376
12570W        W84885  35.535  13.617   3.189
12571W        W84886   6.291  15.807  12.451
12572W        W84887  36.981  27.048  10.499
12573W        W84888  31.092  40.414  11.538
12574W        W84889  14.107   2.806   4.692
12575W        W84890  14.340   8.193   4.316
12576W        W84891   3.249  29.082   0.831
12577W        W84892  18.129  36.095  13.875
12578W        W84893  34.428  38.876  13.989
12579W        W84894  10.172  16.207   2.782
12580W        W84895  31.977  24.976   2.893
12581W        W84896  16.604  13.687   0.748
12582W        W84897  35.474  42.903   2.335
12583W        W84898  26.487  13.117   5.278
12584W        W84899  23.018  40.381  10.932
12585W        W84900   8.777  37.556  13.816
12586W        W84901   7.851  30.070  13.835
12587W        W84902   5.414  28.008  12.066
12588W        W84903  10.869  34.945  13.858
12589W        W84904  44.310  34.369  11.412
12590W        W84905  22.673  12.671   4.319
12591W        W84906   6.240   3.934  12.571
12592W        W84907  13.635  13.212  10.918
12593W        W84908   2.234  34.998  13.862
12594W        W84909  21.131  39.396   2.355
12595W        W84910   6.318  31.485  12.575
12596W        W84911  28.107  40.857   1.405
12597W        W84912  11.708  39.042  10.611
12598W        W84913  42.023  41.404  14.984
12599W        W84914  17.063  21.033   2.289
12600W        W84915  24.615  33.575   0.907
12601W        W84916  17.581  20.170  14.858
12602W        W84917  15.709  33.563   4.135
12603W        W84918  24.485  37.019  13.005
12604W        W84919   4.939  16.726   1.244
12605W        W84920  15.284   9.863   2.835
12606W        W84921  26.972   3.258   2.282
12607W        W84922   3.942  36.480   2.393
12608W        W84923   2.263  34.034  14.330
12609W        W84924  16.206  18.177  12.578
12610W        W84925  13.801   4.793   4.615
12611W        W84926  23.196  30.008  12.512
12612W        W84927  15.159  19.087   0.483
12613W        W84928   5.414  43.316   1.332
12614W        W84929  13.270  29.105   2.846
12615W        W84930  26.470  30.935  11.431
12616W        W84931   0.913  25.578   4.141
12617W        W84932   6.338  30.470  13.531
12618W        W84933  23.223   5.776  12.889
12619W        W84934   6.321  27.551   0.274
12620W        W84935  31.515  17.719   0.464
12621W        W84936  22.151  36.530   0.360
12622W        W84937  27.470  17.600  12.834
12623W        W84938   0.809  24.191   3.274
12624W        W84939  10.861  15.266  13.394
12625W        W84940  19.192  39.036   3.253
12626W        W84941   9.779  25.571  11.018
12627W        W84942  13.295  42.505   2.375
12628W        W84943  10.803  23.560  11.886
12629W        W84944   2.453  40.872  11.045
12630W        W84945  39.051   2.954  12.911
12631W        W84946  22.123  16.731   4.163
12632W        W84947  39.521  24.225   5.181
12633W        W84948  43.445   9.787  11.070
12634W        W84949  18.719  40.995  12.839
12635W        W84950  28.067   6.755  12.452
12636W        W84951  44.498  43.445  10.635
12637W        W84952  21.042  43.870   1.389
12638W        W84953  29.575   8.399   3.848
12639W        W84954   7.811  28.668  13.482
12640W        W84955  37.954   7.765  10.431
12641W        W84956  15.603  39.871  14.338
12642W        W84957  16.240  35.474   4.334
12643W        W84958  10.837  17.749   0.927
12644W        W84959  14.149  30.588  11.026
12645W        W84960  40.461  15.817  14.492
12646W        W84961  33.875  33.107   3.773
12647W        W84962   6.834  21.579  14.977
12648W        W84963  10.813  27.516  13.422
12649W        W84964  22.140   3.393   1.235
12650W        W84965  43.448  37.040  14.762
12651W        W84966  17.266   0.940   0.246
12652W        W84967  25.113  13.813  11.539
12653W        W84968  35.899  37.005   3.818
12654W        W84969  11.239  29.465  12.977
12655W        W84970  15.675  40.887   0.882
12656W        W84971  21.237  30.529   1.895
12657W        W84972  20.658   8.687  10.113
12658W        W84973  40.909  10.846   2.313
12659W        W84974  40.390  18.108   3.221
12660W        W84975  42.494   6.908  14.322
12661W        W84976  28.527  16.647  11.876
12662W        W84977  37.067   4.774   9.945
12663W        W84978  38.427  27.499  12.488
12664W        W84979  13.745  28.545  14.865
12665W        W84980  32.520   6.420  14.907
12666W        W84981  18.293  44.814  11.485
12667W        W84982  13.209   2.294   1.250
12668W        W84983  32.533  30.959   2.895
12669W        W84984  13.349  39.854   1.883
12670W        W84985   2.828   2.237  11.404
12671W        W84986  16.741   1.329   1.764
12672W        W84987  16.279  38.966   9.593
12673W        W84988  26.143  29.086  14.014
12674W        W84989  35.102  14.184  11.453
12675W        W84990   3.924  42.516  12.425
12676W        W84991   7.793  18.202  12.441
12677W        W84992  24.589  36.994   1.782
12678W        W84993  18.743  42.012  10.028
12679W        W84994  22.190   9.722   2.751
12680W        W84995   6.350  30.096   0.393
12681W        W84996   1.965   4.858  13.806
12682W        W84997  10.301  10.265   2.791
12683W        W84998  35.436  12.317   1.900
12684W        W84999  25.477  11.362   2.269
12685W        W85000  34.950  25.194  13.934
12686W        W85001   6.791   1.957   4.291
12687W        W85002  37.401  23.614  13.834
12688W        W85003  25.047  39.827   1.402
12689W        W85004  40.906   6.269  11.608
12690W        W85005  26.618  44.505  13.996
12691W        W85006  22.508   2.868   1.439
12692W        W85007   2.385   7.348  13.342
12693W        W85008  19.113  27.563   1.717
12694W        W85009  26.015  18.242   1.235
12695W        W85010  17.791  30.498   1.721
12696W        W85011  25.135  33.405   1.381
12697W        W85012   7.244  16.588   0.773
12698W        W85013  28.453  33.540   4.133
12699W        W85014  14.287  30.026   4.799
12700W        W85015  10.803  20.564  12.518
12701W        W85016  44.002   5.826   2.378
12702W        W85017   7.794   4.895   5.308
12703W        W85018   8.194  36.421  11.592
12704W        W85019   9.174  14.834   1.743
12705W        W85020  35.387  15.644   0.323
12706W        W85021   2.285  16.675   0.478
12707W        W85022   8.238  13.820  12.965
12708W        W85023  36.475  13.141  12.435
12709W        W85024  10.752  31.449   3.359
12710W        W85025  37.989  41.803   1.247
12711W        W85026  42.844  22.570   0.354
12712W        W85027  29.945  26.703  13.339
12713W        W85028  20.600   6.215  14.844
12714W        W85029  11.285  13.210  13.043
12715W        W85030   6.820  19.606  12.489
12716W        W85031   8.249   9.315   0.780
12717W        W85032  39.504  26.137  13.427
12718W        W85033  11.808  17.142   9.995
12719W        W85034   8.272  44.790  12.406
12720W        W85035  44.976  12.325   2.877
12721W        W85036  42.946  40.967   4.837
12722W        W85037  39.050  25.662  13.337
12723W        W85038  37.531   6.727   1.274
12724W        W85039  16.639  24.683   0.306
12725W        W85040  16.784  34.502   2.783
12726W        W85041  17.685   1.309   3.768
12727W        W85042  27.658  38.971  10.944
12728W        W85043  22.536   7.241   0.737
12729W        W85044  28.006  17.111   1.879
12730W        W85045  30.659   2.844   2.301
12731W        W85046  31.952  30.598  11.604
12732W        W85047   8.796  15.690   4.744
12733W        W85048  28.973  34.520   4.203
12734W        W85049  37.517  35.441  11.478
12735W        W85050  36.888  44.504  12.372
12736W        W85051  22.636   8.372   1.810
12737W        W85052   6.866   9.225   3.789
12738W        W85053  24.621  27.991  13.885
12739W        W85054  14.604  14.738   1.790
12740W        W85055  41.969  23.165  14.000
12741W        W85056  33.580   4.844   3.856
12742W        W85057  23.221  34.117   2.318
12743W        W85058  20.185  18.066   3.156
12744W        W85059  17.771  12.178  14.835
12745W        W85060  25.681  32.894   5.195
12746W        W85061   3.324  36.867  14.915
12747W        W85062  25.087  15.691   0.453
12748W        W85063   0.821   6.322   5.230
12749W        W85064   0.886   7.243   3.242
12750W        W85065   1.886  39.821  12.553
12751W        W85066  19.162  14.304  13.881
12752W        W85067  40.353   4.240   0.362
12753W        W85068  17.624  31.620   0.290
12754W        W85069   7.865  41.809  11.910
12755W        W85070  11.859   4.855  13.507
12756W        W85071  36.869  11.139  13.034
12757W        W85072  23.057  28.526  11.109
12758W        W85073   7.352  14.712   0.734
12759W        W85074  30.423  44.345  13.508
12760W        W85075   9.829  36.001  11.603
12761W        W85076  30.584  20.707   4.775
12762W        W85077  20.642  36.399  13.042
12763W        W85078  37.899   3.881   1.932
12764W        W85079   2.412  40.022  11.084
12765W        W85080  44.285   8.725   3.170
12766W        W85081   0.280  25.536  13.377
12767W        W85082  36.466   5.912  14.940
12768W        W85083  22.200  37.538   3.672
12769W        W85084  26.636   0.474  10.945
12770W        W85085  22.047  33.022  12.575
12771W        W85086   0.419  16.694   1.306
12772W        W85087  22.196   8.769  11.446
12773W        W85088   9.645  17.303   4.815
12774W        W85089  44.855  21.147  12.529
12775W        W85090   4.401   8.379   1.239
12776W        W85091  16.086  19.779   4.753
12777W        W85092  25.673  16.156  12.994
12778W        W85093  31.527  20.749  12.896
12779W        W85094  14.173   7.328   3.754
12780W        W85095  36.851  14.171   2.263
12781W        W85096  38.358  23.564   4.601
12782W        W85097  43.984   1.976  11.018
12783W        W85098  15.193  27.621   2.332
12784W        W85099  36.003  16.632  13.933
12785W        W85100   1.866   5.754  11.017
12786W        W85101   8.687  26.088   0.467
12787W        W85102  27.949  12.297  14.297
12788W        W85103  44.762   3.382  14.952
12789W        W85104   6.349  29.502   0.909
12790W        W85105  25.976  34.090  13.315
12791W        W85106   7.703   2.403  10.595
12792W        W85107  16.643  24.704   4.124
12793W        W85108  37.860  41.936   4.739
12794W        W85109  18.269  10.247   1.922
12795W        W85110  41.531  37.372  13.810
12796W        W85111  14.609   5.767  13.424
12797W        W85112  11.283   1.838  11.461
12798W        W85113  42.378  27.682  14.316
12799W        W85114  25.615   2.287  14.393
12800W        W85115  42.389  12.145  13.445
12801W        W85116  37.832   4.823   4.818
12802W        W85117   4.445  17.682   3.768
12803W        W85118  28.617  25.512  10.920
12804W        W85119  38.016  31.080   4.712
12805W        W85120  29.942  43.368  14.308
12806W        W85121   4.857  42.974   2.835
12807W        W85122  35.997  40.967   3.685
12808W        W85123  17.106  10.784  10.948
12809W        W85124  28.640   9.365  12.088
12810W        W85125  36.932  20.761  12.841
12811W        W85126  44.915   4.446  10.985
12812W        W85127  41.009  13.765   4.655
12813W        W85128  10.836   4.206   4.292
12814W        W85129  32.400  32.038   4.624
12815W        W85130  43.344  10.708   2.309
12816W        W85131  22.559  37.527  10.459
12817W        W85132  42.789  15.610  14.961
12818W        W85133  12.718  12.615   4.617
12819W        W85134  18.681   9.222  10.415
12820W        W85135  39.347  27.475  11.604
12821W        W85136  44.842  16.162  10.507
12822W        W85137  42.353  33.054  11.921
12823W        W85138  36.374   5.795   0.371
12824W        W85139  32.015  21.670   3.689
12825W        W85140  29.044  40.896   4.209
12826W        W85141  28.563   5.743  12.378
12827W        W85142  19.620  25.501  11.555
12828W        W85143  22.070   3.804  11.526
12829W        W85144  24.005  27.974   4.647
12830W        W85145  14.818  13.699  12.037
12831W        W85146  27.538   3.866  12.913
12832W        W85147   1.857  38.429  13.061
12833W        W85148  24.524   4.313  12.518
12834W        W85149  10.803  21.552   0.404
12835W        W85150  37.366  21.192   4.282
12836W        W85151  29.471  38.919   2.306
12837W        W85152   8.241  32.925  10.955
12838W        W85153  25.194  20.258  11.390
12839W        W85154  26.074  27.562   0.410
12840W        W85155  21.533   5.426  11.126
12841W        W85156  12.816  25.506  14.998
12842W        W85157  43.340   9.310  14.362
12843W        W85158  35.910  26.966   0.957
12844W        W85159   2.911  26.642   3.196
12845W        W85160  29.639  43.464  12.555
12846W        W85161  23.575  25.015  11.120
12847W        W85162  35.582  42.921   2.884
12848W        W85163  12.669  40.478   2.382
12849W        W85164  24.026  43.390   3.368
12850W        W85165  22.018  39.316   2.328
12851W        W85166  36.515   3.753   1.906
12852W        W85167  43.432  40.453  10.437
12853W        W85168  19.153  14.266   4.718
12854W        W85169   7.299  25.547  14.897
12855W        W85170  11.788  34.023  12.456
12856W        W85171  22.153   3.825   1.315
12857W        W85172  42.959  44.922   2.241
12858W        W85173  28.134   2.458   4.651
12859W        W85174  28.465  38.498  14.495
12860W        W85175  17.589  10.214  10.024
12861W        W85176  44.922  36.955   1.394
12862W        W85177  11.372  43.330  11.549
12863W        W85178  10.240   7.363  10.992
12864W        W85179  22.734  25.504  12.424
12865W        W85180  23.539   9.805  10.893
12866W        W85181  41.975  16.698   1.813
12867W        W85182  25.497  13.645   0.422
12868W        W85183  36.516  18.655   2.248
12869W        W85184  36.501  11.133   4.183
12870W        W85185  41.339  11.672  12.537
12871W        W85186   0.848  41.513  14.418
12872W        W85187  39.431  32.058  11.128
12873W        W85188  12.244  10.719  11.388
12874W        W85189   8.688  39.401  14.871
12875W        W85190  11.370   1.427  13.843
12876W        W85191   7.758  26.980   0.414
12877W        W85192  15.263  26.668   3.356
12878W        W85193  31.642  32.415  11.031
12879W        W85194   8.172  11.286  14.503
12880W        W85195  14.717  26.502   3.315
12881W        W85196  12.700  10.744   2.314
12882W        W85197  21.061  44.829   0.441
12883W        W85198   2.367   9.367   4.693
12884W        W85199  30.645  25.104  14.969
12885W        W85200  16.710  23.496  13.048
12886W        W85201   2.434  17.778   0.838
12887W        W85202   8.840  12.643  13.983
12888W        W85203  17.165  43.996   9.963
12889W        W85204   9.222  31.454   3.823
12890W        W85205   7.253   6.719   0.871
12891W        W85206  22.145  14.108  12.878
12892W        W85207  16.605  11.248  14.452
12893W        W85208  41.352  32.423  13.364
12894W        W85209  30.546   8.334  11.441
12895W        W85210  40.464  42.933  12.056
12896W        W85211  28.943   0.855  12.456
12897W        W85212  12.196  15.088  12.340
12898W        W85213  14.313  14.261  14.790
12899W        W85214  23.053  31.511   1.719
12900W        W85215  44.955  32.005   2.868
12901W        W85216   7.352  18.201   1.271
12902W        W85217  44.366  10.850  11.008
12903W        W85218  34.080  41.536  13.327
12904W        W85219  28.108  25.208  10.088
12905W        W85220  42.877  21.749   4.757
12906W        W85221  35.096  10.729  14.467
12907W        W85222  41.913  17.581   0.953
12908W        W85223   0.480  29.108   0.860
12909W        W85224  25.996   2.794   2.782
12910W        W85225  31.574  41.884   1.265
12911W        W85226  34.099  26.177   2.698
12912W        W85227  13.138  44.452  13.426
12913W        W85228   0.837  44.907   3.193
12914W        W85229  43.456  28.630   2.714
12915W        W85230   2.360  36.068   1.333
12916W        W85231  42.827  21.662   1.322
12917W        W85232  32.109  36.580  11.952
12918W        W85233  23.149  27.051   1.414
12919W        W85234  44.968  41.040   3.677
12920W        W85235  21.741  41.524   0.892
12921W        W85236   1.770  14.664  11.021
12922W        W85237  23.638   9.671   0.405
12923W        W85238  37.078  29.069   1.926
12924W        W85239  15.596  23.526   1.854
12925W        W85240  35.548  37.395  13.375
12926W        W85241  31.052  36.083  11.606
12927W        W85242  38.870  20.607  13.878
12928W        W85243   7.712  38.018  14.806
12929W        W85244  19.158  39.513   5.274
12930W        W85245  17.253  22.518  10.470
12931W        W85246  20.225   6.744  14.869
12932W        W85247  10.260  13.621   0.821
12933W        W85248  11.668  15.287  11.121
12934W        W85249  21.165  22.201  13.018
12935W        W85250   1.406  27.950  14.376
12936W        W85251  14.639  42.866  11.373
12937W        W85252  44.465  28.469  13.931
12938W        W85253  40.918   0.262  12.040
12939W        W85254  43.420   2.458   2.300
12940W        W85255  25.175  10.332  13.516
12941W        W85256  29.140   3.870  10.623
12942W        W85257  28.650  28.090   4.774
12943W        W85258  19.240  27.089   2.830
12944W        W85259  28.600  35.425  11.514
12945W        W85260   9.228  12.216  11.885
12946W        W85261   7.406  44.920   3.336
12947W        W85262   7.361  36.971  10.548
12948W        W85263  28.514  36.460   3.752
12949W        W85264  33.449  34.077   5.106
12950W        W85265   8.258  21.180  13.362
12951W        W85266  30.506   1.366  13.979
12952W        W85267   5.790  14.792  12.421
12953W        W85268  32.441   8.691  13.439
12954W        W85269   0.413   8.213   3.358
12955W        W85270  19.566   6.236  10.976
12956W        W85271  29.980  26.181   3.743
12957W        W85272  33.932  42.847   0.906
12958W        W85273  24.663  29.122   1.377
12959W        W85274  30.911  16.192  12.053
12960W        W85275  45.000  36.044  11.515
12961W        W85276  25.067  27.631   3.187
12962W        W85277  22.590  13.785   0.347
12963W        W85278  17.210  31.963   1.326
12964W        W85279   7.840  15.285   2.764
12965W        W85280  33.398  21.607  10.533
12966W        W85281  36.864  19.116  11.932
12967W        W85282  38.997  19.766   1.743
12968W        W85283  35.946  36.552   2.357
12969W        W85284  32.070   1.390   2.281
12970W        W85285   8.335  15.206  13.343
12971W        W85286  41.431  17.295   4.721
12972W        W85287   4.401  30.578  10.465
12973W        W85288  31.918  27.162  10.564
12974W        W85289  11.674  26.480   1.294
12975W        W85290   3.741  18.552   3.251
12976W        W85291  38.382  40.963  11.885
12977W        W85292  22.628  25.024  10.945
12978W        W85293  28.950  32.037   0.823
12979W        W85294  31.643  33.126   3.341
12980W        W85295  42.797  15.620   0.795
12981W        W85296  10.255   1.768  14.389
12982W        W85297   7.248  44.322  10.024
12983W        W85298  34.387  42.775   4.210
12984W        W85299  26.545   1.825  11.601
12985W        W85300  30.934  44.874   4.764
12986W        W85301   0.834   5.267   3.174
12987W        W85302  12.779  34.964  11.458
12988W        W85303  14.721   8.177   0.802
12989W        W85304   5.913   8.254  13.852
12990W        W85305   6.859   1.758   2.784
12991W        W85306  19.074  26.667   2.756
12992W        W85307  22.739   3.382  13.797
12993W        W85308   4.822  13.190  12.042
12994W        W85309  37.413  29.978   3.251
12995W        W85310   1.242  18.062   4.803
12996W        W85311   2.827  13.121   3.225
12997W        W85312  12.296  12.119  12.986
12998W        W85313  27.022   4.890  12.518
12999W        W85314  41.870  26.631  11.972
13000W        W85315  27.145  44.492   0.754
13001W        W85316  28.047  31.109  10.600
13002W        W85317  37.887  18.599  12.528
13003W        W85318  27.610  26.530  12.372
13004W        W85319  14.724  20.142  13.837
13005W        W85320  41.454  26.082  11.111
13006W        W85321  26.610  24.177  12.970
13007W        W85322  12.200   7.352  12.948
13008W        W85323  16.285  21.137  12.418
13009W        W85324  25.209  21.628   9.649
13010W        W85325  21.714  21.219   3.641
13011W        W85326  21.162   3.376  14.468
13012W        W85327  32.051  28.455  12.903
13013W        W85328  34.591  18.618  12.922
13014W        W85329   5.278  14.210   4.219
13015W        W85330  32.916   3.403   1.861
13016W        W85331  33.035  43.287  14.431
13017W        W85332   0.297  32.410  13.330
13018W        W85333  32.462  39.495  11.122
13019W        W85334   3.259   1.444   0.381
13020W        W85335  35.581  29.426   3.686
13021W        W85336  12.312   8.230  13.431
13022W        W85337   6.383  33.484  10.534
13023W        W85338  14.820  17.697   4.202
13024W        W85339  14.268  28.528   2.180
13025W        W85340   3.758  23.084   3.368
13026W        W85341   8.730   6.713  13.446
13027W        W85342  20.699  30.422   0.382
13028W        W85343  39.349  36.452   0.252
13029W        W85344  27.978  25.614   1.412
13030W        W85345   1.961  13.641   2.348
13031W        W85346   8.792  16.248  13.007
13032W        W85347  13.164  36.483   3.247
13033W        W85348  27.476  16.303  11.573
13034W        W85349  16.743  23.679  14.456
13035W        W85350  11.859  18.765  13.494
13036W        W85351   9.761  34.527   4.659
13037W        W85352  23.085  14.767  12.461
13038W        W85353  27.563  41.889   0.935
13039W        W85354  24.101  32.445   1.916
13040W        W85355  34.034  14.708   2.232
13041W        W85356  20.566  19.756  11.553
13042W        W85357  11.352   0.272   2.687
13043W        W85358  22.531  40.472   2.287
13044W        W85359   5.716   9.324   4.670
13045W        W85360  29.158  25.219   2.361
13046W        W85361  11.731  31.125  13.348
13047W        W85362  18.604  20.672  10.973
13048W        W85363  14.182  13.838  11.403
13049W        W85364  29.981   8.405  12.835
13050W        W85365  13.237  43.823  11.988
13051W        W85366  13.200   3.728  12.939
13052W        W85367  32.978  31.412   3.186
13053W        W85368  12.750  39.898  13.044
13054W        W85369  19.166   7.275  11.951
13055W        W85370   4.383  44.321   1.397
13056W        W85371   4.228   9.828  12.394
13057W        W85372  29.600   1.452   1.429
13058W        W85373  28.564  27.075   1.439
13059W        W85374   5.305  12.298   0.442
13060W        W85375   7.403   3.805   3.689
13061W        W85376  33.940   3.258   3.822
13062W        W85377  21.024   0.753  12.512
13063W        W85378  44.919  14.687  13.328
13064W        W85379  17.100  27.511  10.112
13065W        W85380  26.600  34.905   4.278
13066W        W85381  26.984  18.615   1.900
13067W        W85382  39.519   5.214   2.351
13068W        W85383  36.516  39.002   5.248
13069W        W85384  19.213  38.870   3.704
13070W        W85385   5.364  39.403  12.052
13071W        W85386  21.121   5.705  12.072
13072W        W85387  30.539  11.851  11.382
13073W        W85388  43.425   1.252   3.851
13074W        W85389  30.144  20.591   1.442
13075W        W85390  26.114  21.652  10.444
13076W        W85391  22.223  18.277   3.685
13077W        W85392  44.805   4.231   4.651
13078W        W85393   4.337   6.824  11.048
13079W        W85394   5.231  19.247   0.910
13080W        W85395  44.995  33.912  14.460
13081W        W85396  17.798  27.532  13.417
13082W        W85397   3.770  10.384  13.421
13083W        W85398   7.839  30.068  14.873
13084W        W85399  35.357  24.663   0.270
13085W        W85400  26.591   3.754   9.640
13086W        W85401  21.537  44.297  12.572
13087W        W85402  27.539  24.163  14.845
13088W        W85403  16.157  33.883  12.572
13089W        W85404  17.199   9.341   9.445
13090W        W85405  37.034  31.512  14.952
13091W        W85406   6.380   1.860   3.834
13092W        W85407  43.825  23.586   1.317
13093W        W85408  28.015  15.663   0.948
13094W        W85409  36.014   6.714  11.883
13095W        W85410  34.021  35.058   1.923
13096W        W85411  28.065  41.945  14.388
13097W        W85412  24.146  25.109  10.145
13098W        W85413  25.000  37.414  14.964
13099W        W85414  24.665  43.453  14.904
13100W        W85415  25.548  38.889   3.870
13101W        W85416   7.351   3.341  14.425
13102W        W85417   1.950  37.838  13.029
13103W        W85418  12.634  32.614   4.703
13104W        W85419  12.622  44.857  14.003
13105W        W85420  10.210   4.854   1.793
13106W        W85421  26.205  27.982   1.388
13107W        W85422   8.310  14.598   1.343
13108W        W85423   8.258   8.679  13.349
13109W        W85424  26.093  16.317   2.679
13110W        W85425  29.067  18.758  12.066
13111W        W85426  36.895  11.652   3.693
13112W        W85427  21.217  26.061   1.856
13113W        W85428  43.885  43.771  12.023
13114W        W85429   2.812  32.597   1.399
13115W        W85430  17.297   5.912  12.041
13116W        W85431   2.417  11.835   3.369
13117W        W85432  43.994  17.244  10.940
13118W        W85433   5.886  16.598  14.902
13119W        W85434  34.115   8.300   1.814
13120W        W85435   4.234  37.855  12.839
13121W        W85436  10.807  23.079  13.857
13122W        W85437   3.320  40.460  13.375
13123W        W85438   7.761  26.054  13.418
13124W        W85439  43.313  13.717   0.392
13125W        W85440  33.532  41.476   2.388
13126W        W85441  26.480   9.662  14.009
13127W        W85442  30.081  40.439  12.026
13128W        W85443  33.894  35.052  13.840
13129W        W85444  36.463  43.800   3.796
13130W        W85445  11.651  44.961   3.632
13131W        W85446   9.365  32.608  10.563
13132W        W85447  40.383  19.252   4.280
13133W        W85448  17.593  32.014  10.981
13134W        W85449  21.553   5.348  14.367
13135W        W85450  29.548  11.722   1.367
13136W        W85451  24.994  34.027  11.912
13137W        W85452  20.621  10.634   3.277
13138W        W85453   9.198  14.255  10.094
13139W        W85454   3.335  14.203   2.243
13140W        W85455  44.753  40.397  11.375
13141W        W85456  43.818  41.517  11.470
13142W        W85457  10.747   3.230   0.786
13143W        W85458  11.656  35.085   3.758
13144W        W85459  42.966  27.097   5.139
13145W        W85460  34.116   5.384  12.980
13146W        W85461  21.247   3.422   4.648
13147W        W85462  13.731  36.903  14.863
13148W        W85463  10.360  43.881  10.927
13149W        W85464   7.317  34.591  11.094
13150W        W85465  12.350  21.152   1.306
13151W        W85466  44.465  41.515  12.421
13152W        W85467  23.507  17.168   3.647
13153W        W85468  30.061  23.083   3.333
13154W        W85469   5.787   9.676   1.220
13155W        W85470  39.518  41.503  13.918
13156W        W85471   1.405   8.388  13.974
13157W        W85472  44.812  10.771   0.955
13158W        W85473  25.977  38.509  10.573
13159W        W85474  18.735  37.508   2.696
13160W        W85475  32.140  27.626  10.954
13161W        W85476  24.191  16.755  10.963
13162W        W85477   1.265   3.732   1.881
13163W        W85478  29.145  13.248  14.499
13164W        W85479  24.708   8.328  12.493
13165W        W85480   8.400  33.090   3.854
13166W        W85481  37.051  25.080  12.463
13167W        W85482  21.226   8.390   4.612
13168W        W85483   0.332  37.054  12.489
13169W        W85484   8.244   6.904  11.052
13170W        W85485   9.268   7.751  13.502
13171W        W85486   0.883  40.814   1.928
13172W        W85487  13.114  28.945   4.284
13173W        W85488   8.170  41.922   3.675
13174W        W85489  44.792  17.791  11.378
13175W        W85490   4.875   8.793   0.801
13176W        W85491   7.360   0.840  12.436
13177W        W85492  35.470  15.270   3.151
13178W        W85493  28.100  34.436  12.031
13179W        W85494  16.239   4.733   3.309
13180W        W85495  13.655  24.505   2.323
13181W        W85496  11.703  13.748   2.261
13182W        W85497  13.130  43.381   2.717
13183W        W85498  27.660  16.630  12.869
13184W        W85499  22.706  12.296  11.864
13185W        W85500  12.189  25.081   1.751
13186W        W85501  41.792  16.264   3.730
13187W        W85502  40.522  22.033  10.584
13188W        W85503  35.986   1.847   4.716
13189W        W85504   1.823  18.221  13.328
13190W        W85505  33.475  18.202  13.356
13191W        W85506  32.495  29.001  12.476
13192W        W85507  43.868  18.724   0.784
13193W        W85508  19.282  29.578  13.913
13194W        W85509  42.953  35.939   0.850
13195W        W85510  42.317  14.101  10.552
13196W        W85511   9.167  27.158   2.254
13197W        W85512  42.468  19.112   4.681
13198W        W85513  33.976  35.089   0.436
13199W        W85514  11.737  28.527   3.215
13200W        W85515  18.139  27.164   4.707
13201W        W85516  23.582  15.705   3.737
13202W        W85517  31.492  16.210  11.588
13203W        W85518  36.855  11.847  13.325
13204W        W85519  38.990  13.273   3.356
13205W        W85520  42.878   1.768   0.810
13206W        W85521  11.243  39.550  14.372
13207W        W85522   5.278  28.510  10.905
13208W        W85523  14.781  26.157  13.897
13209W        W85524  39.825  35.056   3.259
13210W        W85525   4.857  31.995  10.612
13211W        W85526  32.112   0.291  14.363
13212W        W85527  40.403   4.942  11.964
13213W        W85528  10.315  32.949   4.207
13214W        W85529  29.129   0.354  10.583
13215W        W85530  20.049  41.030  14.408
13216W        W85531  41.299  12.268   4.792
13217W        W85532   5.202  31.960  14.470
13218W        W85533  36.985  20.638   4.813
13219W        W85534   8.307  43.974   0.938
13220W        W85535  27.012  15.724   2.665
13221W        W85536  18.682  19.177   2.861
13222W        W85537   5.386   8.162  11.993
13223W        W85538   2.433  29.566   2.796
13224W        W85539  25.028  13.340   0.951
13225W        W85540  20.135  23.566   2.237
13226W        W85541  27.020  41.402  13.398
13227W        W85542  18.240  33.494   2.355
13228W        W85543  20.103  18.587   9.947
13229W        W85544  18.071  11.211   2.200
13230W        W85545   0.462  13.153  12.508
13231W        W85546  20.113  29.669   3.725
13232W        W85547  32.128  23.693  13.462
13233W        W85548   9.346  18.721  13.974
13234W        W85549  24.661  18.665  14.887
13235W        W85550  20.740  14.330   4.755
13236W        W85551  13.772   7.378   4.648
13237W        W85552  33.122  14.699  12.999
13238W        W85553  12.273   8.714  10.943
13239W        W85554  29.432   0.308  10.478
13240W        W85555  17.239  35.468  10.564
13241W        W85556  15.095  42.872   2.816
13242W        W85557   9.319  20.719  14.398
13243W        W85558  28.570  10.329  14.839
13244W        W85559  43.856  28.940   0.948
13245W        W85560  35.855  24.973   3.175
13246W        W85561  33.083  32.032   3.219
13247W        W85562  29.603  12.318  11.542
13248W        W85563   3.894   3.265   0.327
13249W        W85564  19.133  28.981  11.873
13250W        W85565  25.220   1.295   4.263
13251W        W85566  31.417  26.117  14.291
13252W        W85567  20.670  33.939  12.444
13253W        W85568   2.455  37.421  10.453
13254W        W85569  26.989   6.208  10.508
13255W        W85570   1.790  33.039   4.269
13256W        W85571  13.813  24.067   4.756
13257W        W85572  25.469   6.693   0.405
13258W        W85573   7.375  42.820  12.473
13259W        W85574  24.118   6.739  10.919
13260W        W85575   9.808  25.968  12.959
13261W        W85576   9.151   9.849   0.773
13262W        W85577  19.732   2.251  12.383
13263W        W85578  34.864   0.854  10.510
13264W        W85579  12.688  22.555  13.409
13265W        W85580  31.571  27.016   2.672
13266W        W85581  30.021   8.797  11.430
13267W        W85582  24.540  19.679  11.887
13268W        W85583  42.941  28.109   0.344
13269W        W85584  10.352  38.824  13.369
13270W        W85585  39.330  10.637  12.093
13271W        W85586  31.131   1.331  10.942
13272W        W85587  35.500  28.665  14.903
13273W        W85588  30.580   1.786  14.357
13274W        W85589  43.925  28.946  12.497
13275W        W85590  44.352  42.862   0.897
13276W        W85591  32.958  33.043  13.351
13277W        W85592  30.071  43.432  11.533
13278W        W85593  35.099  29.501   1.772
13279W        W85594  24.569  26.155   3.721
13280W        W85595  30.907  12.694  12.939
13281W        W85596  35.029  43.372  14.876
13282W        W85597  33.096  22.059  12.962
13283W        W85598  44.788  26.019   0.771
13284W        W85599  22.226  20.721  11.987
13285W        W85600  24.989  24.973   1.743
13286W        W85601  24.023  13.600  12.373
13287W        W85602   2.888  23.993  11.403
13288W        W85603  18.571  13.333   2.308
13289W        W85604  25.633   6.299  13.443
13290W        W85605  38.437  35.860   0.913
13291W        W85606  24.181  23.040   4.282
13292W        W85607  31.939  19.210   1.271
13293W        W85608  32.409  30.919   2.313
13294W        W85609  13.702  40.900  14.936
13295W        W85610  44.488  10.815   2.332
13296W        W85611   9.345  13.832   2.403
13297W        W85612  37.347  35.945   1.413
13298W        W85613  19.237  13.688   4.328
13299W        W85614  14.690  23.567   0.829
13300W        W85615   2.870  33.014   3.737
13301W        W85616  16.781  29.029   1.316
13302W        W85617  19.097  21.756   3.629
13303W        W85618  23.606  38.437   3.281
13304W        W85619  19.072  22.574   0.409
13305W        W85620   5.760  19.245  14.909
13306W        W85621  36.557  12.680   4.137
13307W        W85622  44.817  38.500   2.338
13308W        W85623  33.042  11.638  12.053
13309W        W85624   3.951  10.365   0.790
13310W        W85625  10.857  30.025   4.339
13311W        W85626  12.237  21.607  14.439
13312W        W85627  21.096   8.674   5.254
13313W        W85628   5.249  41.486   1.338
13314W        W85629  11.756  38.378   0.877
13315W        W85630  34.560  14.687   1.753
13316W        W85631  37.513  42.919   3.653
13317W        W85632  16.257  33.131  12.076
13318W        W85633   7.727  26.082   3.309
13319W        W85634  22.700  19.587   4.657
13320W        W85635  39.358  39.375  11.868
13321W        W85636  31.059  14.099  10.432
13322W        W85637  28.111   9.393  11.455
13323W        W85638   7.840  37.351   4.800
13324W        W85639  44.863  27.594   4.707
13325W        W85640  39.397  32.475   0.453
13326W        W85641   2.866  40.908  11.104
13327W        W85642  18.105  19.212  14.970
13328W        W85643  28.608  28.574  13.957
13329W        W85644  10.784  22.074  13.891
13330W        W85645  17.623  42.935   3.821
13331W        W85646  40.323  42.853  14.778
13332W        W85647   0.914   1.801   1.764
13333W        W85648  40.816   5.340  13.347
13334W        W85649  32.507  39.824  14.353
13335W        W85650  11.229   0.451   3.700
13336W        W85651   3.915  41.936   1.751
13337W        W85652  40.884  21.050  11.093
13338W        W85653  42.381   7.798   3.250
13339W        W85654  25.185  31.616  10.911
13340W        W85655  10.199  36.531  13.967
13341W        W85656   4.363  24.162  13.451
13342W        W85657  34.012  20.728  12.005
13343W        W85658  17.563  30.916   5.791
13344W        W85659   4.323  37.035  14.991
13345W        W85660  38.027  43.928   1.379
13346W        W85661   8.675  25.498   0.437
13347W        W85662  36.841  28.606   3.751
13348W        W85663  17.626  33.588   4.174
13349W        W85664  14.313  21.201  14.870
13350W        W85665  18.784  30.566   4.268
13351W        W85666  30.066  19.655  12.351
13352W        W85667  26.672  29.500  10.567
13353W        W85668  24.717  38.045   4.133
13354W        W85669  36.586   7.389   2.820
13355W        W85670  24.662  41.834  11.955
13356W        W85671  18.275   4.738   0.270
13357W        W85672  28.013  33.915  10.887
13358W        W85673  26.158  20.652  13.421
13359W        W85674   8.700   5.691   4.806
13360W        W85675  17.765  17.581  13.855
13361W        W85676  18.067   7.273   3.334
13362W        W85677   7.312  38.031   3.236
13363W        W85678  19.267  43.400  10.622
13364W        W85679  27.626  21.663  10.528
13365W        W85680   0.459   5.392   3.274
13366W        W85681  39.503  25.139   0.358
13367W        W85682  12.671   0.760  14.870
13368W        W85683  19.718  20.653  14.437
13369W        W85684   9.293  40.981   1.421
13370W        W85685   0.846  28.127  10.161
13371W        W85686  12.854  33.574  13.014
13372W        W85687   6.342  19.687  14.891
13373W        W85688  17.574  37.508  13.510
13374W        W85689   2.355  17.180  11.576
13375W        W85690   0.815   6.887  12.563
13376W        W85691   7.786  16.766   0.413
13377W        W85692  41.032  21.131   1.804
13378W        W85693  28.498  18.769  14.897
13379W        W85694   3.759   6.328   0.262
13380W        W85695  34.952  16.240   2.776
13381W        W85696  24.661  40.999  14.775
13382W        W85697  23.549  13.659  13.962
13383W        W85698  31.419   0.913   3.797
13384W        W85699  17.775  23.536  14.503
13385W        W85700  41.939   3.246   0.285
13386W        W85701  44.966   0.436  13.425
13387W        W85702  23.732  19.117  12.557
13388W        W85703   1.240  35.963  11.558
13389W        W85704  36.560  22.683   1.256
13390W        W85705  31.133  13.227   0.412
13391W        W85706  22.022   8.382   4.733
13392W        W85707   1.894  30.645   4.643
13393W        W85708  34.511  39.468  14.443
13394W        W85709   3.881   9.175   1.843
13395W        W85710  16.245   1.888  10.536
13396W        W85711  30.994  33.453   1.256
13397W        W85712   0.311  42.846  11.020
13398W        W85713   3.403   3.415   4.334
13399W        W85714  15.587   3.382  10.116
13400W        W85715  18.272   7.193   1.368
13401W        W85716  27.983  11.152   0.266
13402W        W85717   9.391  10.797   3.163
13403W        W85718  35.529  28.452   2.236
13404W        W85719  33.617  10.811   2.730
13405W        W85720   7.839  14.654  12.391
13406W        W85721  23.702  20.107  10.007
13407W        W85722  12.835  29.543   3.811
13408W        W85723  16.772   2.948   4.804
13409W        W85724  35.071  15.191   3.668
13410W        W85725   5.420  21.102  11.432
13411W        W85726  33.398  20.247   3.206
13412W        W85727  18.187   6.324  12.935
13413W        W85728   1.389  18.110  14.476
13414W        W85729   7.196  38.402  12.455
13415W        W85730  38.865  28.450  10.455
13416W        W85731  37.518   3.791   1.260
13417W        W85732  30.017  40.468   1.733
13418W        W85733   4.751  42.931  10.560
13419W        W85734  32.001  23.641   3.224
13420W        W85735   2.914   3.761  10.561
13421W        W85736   5.416  33.995   4.346
13422W        W85737  33.430  37.998   4.300
13423W        W85738  42.812  16.076  13.043
13424W        W85739  30.081  25.615  14.802
13425W        W85740  29.536  31.645   0.457
13426W        W85741   4.709   7.357  11.492
13427W        W85742  42.828  21.123  11.468
13428W        W85743   6.353   4.450   4.651
13429W        W85744  32.947  43.380   1.232
13430W        W85745  20.203  36.059  10.493
13431W        W85746  30.578  38.478   1.760
13432W        W85747  18.213  40.045  14.775
13433W        W85748   6.376   6.694   4.287
13434W        W85749  21.168  43.440  12.472
13435W        W85750   7.778  36.417  10.467
13436W        W85751  39.878  20.217  13.804
13437W        W85752  18.247  28.149   1.930
13438W        W85753  35.101  27.505  11.004
13439W        W85754  35.591  41.814  13.951
13440W        W85755  17.182   9.708   2.846
13441W        W85756  32.636   7.220  13.810
13442W        W85757  10.870   0.410   0.895
13443W        W85758  17.762  17.630  12.901
13444W        W85759  33.478  19.693   2.205
13445W        W85760  37.532  29.995   0.415
13446W        W85761  18.547  26.072  11.882
13447W        W85762  15.776   5.795  13.338
13448W        W85763  12.663   2.855   0.404
13449W        W85764  26.961  20.687  13.045
13450W        W85765  19.061   8.247   9.563
13451W        W85766   3.461  36.076  10.435
13452W        W85767  42.335  29.015   3.746
13453W        W85768  44.278   2.851   1.429
13454W        W85769  20.162  24.096  12.966
13455W        W85770  26.630  17.212   0.388
13456W        W85771  26.004  32.539   2.355
13457W        W85772  21.079  40.394   4.153
13458W        W85773  25.568  36.890   2.328
13459W        W85774  28.578  33.954   3.758
13460W        W85775  33.437   9.777   2.297
13461W        W85776  22.137  16.081   1.295
13462W        W85777   9.849  25.507  14.334
13463W        W85778  31.935  31.123   4.715
13464W        W85779  21.575   4.924  10.130
13465W        W85780  10.819  23.541   4.288
13466W        W85781  27.538  28.031  11.924
13467W        W85782   1.836  29.651  13.862
13468W        W85783  24.625  29.613  10.471
13469W        W85784   3.272   7.335   4.682
13470W        W85785  10.704   6.358   1.387
13471W        W85786   7.804   9.839   4.639
13472W        W85787  29.489  16.132   4.808
13473W        W85788  22.536   2.942   2.322
13474W        W85789  24.516  36.406  13.993
13475W        W85790  34.434  31.621   1.714
13476W        W85791  44.494  38.491  11.600
13477W        W85792  13.126  29.052  12.445
13478W        W85793  38.528   4.842   2.669
13479W        W85794  13.136  42.847  10.993
13480W        W85795  25.115   9.840   0.299
13481W        W85796  41.401  41.970   0.868
13482W        W85797  21.588  37.044  11.400
13483W        W85798   7.297  15.146   1.263
13484W        W85799  19.076  25.709  12.833
13485W        W85800  38.536  37.954   4.353
13486W        W85801  20.592  28.951   3.867
13487W        W85802  29.449  26.465  11.925
13488W        W85803  23.162  29.528   4.291
13489W        W85804  30.590  12.652   3.792
13490W        W85805  35.471   0.858  12.845
13491W        W85806  41.494  19.139   3.839
13492W        W85807  35.581  24.712  10.957
13493W        W85808   4.323  26.668   0.244
13494W        W85809   6.251   6.784   2.269
13495W        W85810   2.744  26.202   1.297
13496W        W85811  20.077   4.779   4.298
13497W        W85812  33.498  26.553  14.845
13498W        W85813  29.518  40.038  14.289
13499W        W85814  34.099  21.619   1.794
13500W        W85815  18.127  38.518  11.937
13501W        W85816  13.213  39.464  10.947
13502W        W85817  30.494   2.747  12.383
13503W        W85818  30.614  36.913  12.862
13504W        W85819  26.509   0.317   3.230
13505W        W85820  18.166  19.750   4.722
13506W        W85821  36.934   3.759  13.803
13507W        W85822  10.714  35.997   4.324
13508W        W85823  10.362   2.423   3.857
13509W        W85824  37.347  35.599   2.769
13510W        W85825  36.913  16.796  11.871
13511W        W85826  14.139  44.436   1.872
13512W        W85827  38.955  11.687  14.932
13513W        W85828  43.863  27.639  13.046
13514W        W85829  36.575   6.325  11.942
13515W        W85830  43.380   4.803  12.054
13516W        W85831  16.652  23.539  13.792
13517W        W85832  11.671  19.662  11.019
13518W        W85833  12.845  40.964  11.414
13519W        W85834  39.824  36.522   0.848
13520W        W85835   1.267  11.272  10.597
13521W        W85836  39.352  24.040   1.793
13522W        W85837  13.704  43.907   1.775
13523W        W85838   5.853  26.584  12.382
13524W        W85839  44.331   9.324  12.926
13525W        W85840  14.762  13.130   1.871
13526W        W85841  34.387  34.031   1.406
13527W        W85842   0.816  29.534   3.362
13528W        W85843   1.773  15.141   3.180
13529W        W85844  28.572   7.819   0.750
13530W        W85845  44.807  39.848   1.451
13531W        W85846  24.635  23.704   0.907
13532W        W85847  13.126  36.956  13.511
13533W        W85848  40.346   0.348  10.577
13534W        W85849  44.959  19.623   4.660
13535W        W85850  37.556  20.652  14.413
13536W        W85851  43.886  19.659   1.812
13537W        W85852  13.155  18.204   3.304
13538W        W85853  20.582  39.877   2.308
13539W        W85854  25.016  25.606   4.779
13540W        W85855  35.480   1.833   2.822
13541W        W85856  38.972  12.153  14.776
13542W        W85857  36.480  16.307  12.344
13543W        W85858  25.616  19.549  10.017
13544W        W85859  19.256  44.857   0.444
13545W        W85860  40.371  12.757  10.912
13546W        W85861   7.703  10.267   4.627
13547W        W85862  30.445   4.393  13.325
13548W        W85863   8.299  20.530   2.183
13549W        W85864  22.190  44.948  12.862
13550W        W85865  15.706  39.549   3.159
13551W        W85866  20.575  21.683   3.252
13552W        W85867  44.279  28.601  14.893
13553W        W85868   5.374  13.133  13.507
13554W        W85869  11.745   0.865   1.798
13555W        W85870  14.326   1.298  11.456
13556W        W85871  13.614  10.743  12.924
13557W        W85872  26.070  29.131  14.776
13558W        W85873  13.649   6.226   4.827
13559W        W85874  26.147  30.082  11.103
13560W        W85875  29.955  12.244   3.725
13561W        W85876  27.156  23.110   3.778
13562W        W85877   2.942  11.731  14.372
13563W        W85878  28.176  26.143   0.762
13564W        W85879  34.474  27.564   0.775
13565W        W85880   0.466  38.523   4.116
13566W        W85881  28.112   6.240  13.393
13567W        W85882  44.956  30.504  14.288
13568W        W85883   2.429  35.491   5.199
13569W        W85884  25.657  35.364  12.085
13570W        W85885   2.829  36.349   0.258
13571W        W85886  17.132  26.957   4.228
13572W        W85887  39.926   8.897   3.316
13573W        W85888  33.620  12.125  12.453
13574W        W85889  44.814  27.599   3.357
13575W        W85890  35.941  41.007   1.210
13576W        W85891  38.930  13.135  13.943
13577W        W85892  42.395   5.403   0.959
13578W        W85893  28.518  24.641   4.808
13579W        W85894  33.961   5.721   0.363
13580W        W85895  39.936  27.469   0.317
13581W        W85896  39.420  19.604  12.387
13582W        W85897  35.978   0.902  14.379
13583W        W85898  38.532  32.486  11.428
13584W        W85899  22.538  10.826  13.034
13585W        W85900   3.219  43.289   2.856
13586W        W85901   5.255  13.673  14.435
13587W        W85902   8.396  12.837  10.631
13588W        W85903  13.172   1.889   2.780
13589W        W85904   1.873   5.867   3.650
13590W        W85905  37.084  28.541   2.779
13591W        W85906  13.268  25.500  14.424
13592W        W85907  33.615   7.366   1.340
13593W        W85908  27.972   5.784  10.152
13594W        W85909   3.280  29.564   4.759
13595W        W85910  26.637  20.067  14.867
13596W        W85911  26.626  18.579  10.414
13597W        W85912   4.896  26.206   4.630
13598W        W85913  41.859  14.595   0.364
13599W        W85914  24.137  40.313  13.499
13600W        W85915   7.314  38.931  11.092
13601W        W85916   7.748  40.852   0.894
13602W        W85917  11.862   3.889  14.473
13603W        W85918  43.822  32.018  13.939
13604W        W85919   5.800  13.633  10.467
13605W        W85920  38.944  34.058   1.909
13606W        W85921  28.629  18.647  14.315
13607W        W85922  19.199  30.948  12.950
13608W        W85923  19.165   7.323  12.570
13609W        W85924   4.790  29.611  13.985
13610W        W85925  29.508  31.570   1.245
13611W        W85926  27.015   7.900  11.993
13612W        W85927  21.220  39.357   3.748
13613W        W85928   2.451  13.823   4.160
13614W        W85929   9.303  12.224  10.977
13615W        W85930  11.671  44.464   3.811
13616W        W85931  43.806  36.080   0.957
13617W        W85932  38.457   4.917  12.528
13618W        W85933  17.278   6.891  13.429
13619W        W85934   5.784  11.810  14.382
13620W        W85935   3.438  15.102   2.253
13621W        W85936   1.777   2.933  12.020
13622W        W85937  32.921  37.054   0.901
13623W        W85938   1.482  33.041  11.609
13624W        W85939  21.678  34.081  10.584
13625W        W85940  29.602  25.044  11.432
13626W        W85941  10.873   0.468   4.194
13627W        W85942  31.128  17.646   1.890
13628W        W85943  33.608   6.216   4.641
13629W        W85944  28.992  40.368   2.722
13630W        W85945  28.108  33.405   4.217
13631W        W85946  29.546  25.622   2.802
13632W        W85947   6.274  29.164  12.397
13633W        W85948  14.692  27.640  14.898
13634W        W85949  10.188   8.677   3.307
13635W        W85950  43.899   7.417   4.810
13636W        W85951  35.446  22.029   1.281
13637W        W85952  27.075  27.501   2.188
13638W        W85953  10.289  39.517  12.500
13639W        W85954  31.635  27.548  13.465
13640W        W85955  20.674  27.145  11.931
13641W        W85956  23.011  20.590   3.814
13642W        W85957  24.043  29.135  12.845
13643W        W85958  23.704  25.525   1.769
13644W        W85959  12.256   3.363  12.529
13645W        W85960  10.140  34.015  10.440
13646W        W85961  12.138  17.114  12.004
13647W        W85962  14.328  25.607   3.688
13648W        W85963  42.915   3.460  10.597
13649W        W85964  31.408   5.687   3.678
13650W        W85965   4.924  20.769  11.955
13651W        W85966  23.160  33.381  12.027
13652W        W85967  13.790  20.215  12.934
13653W        W85968   7.276  16.702  11.413
13654W        W85969  32.627  26.008  12.992
13655W        W85970  26.600  28.094  10.555
13656W        W85971  11.668  21.085  11.075
13657W        W85972  43.329  29.016  12.547
13658W        W85973  21.183  19.069  14.887
13659W        W85974  31.135  39.969   3.675
13660W        W85975   3.284  29.138   2.403
13661W        W85976  25.020  36.029   2.862
13662W        W85977   0.762  10.305   4.602
13663W        W85978  12.666  30.654   0.834
13664W        W85979  11.652  24.572  10.464
13665W        W85980  16.222  34.416  10.586
13666W        W85981   2.874   9.175   0.766
13667W        W85982  44.842  13.701   2.669
13668W        W85983  34.583  26.492   2.668
13669W        W85984  11.203  22.696  11.375
13670W        W85985  33.510  44.363   5.266
13671W        W85986  11.749  21.144   2.376
13672W        W85987  15.154  19.223  13.846
13673W        W85988   2.884   2.449  10.451
13674W        W85989  28.494   5.769   4.661
13675W        W85990  26.498  25.047   2.709
13676W        W85991  23.128  43.915   2.779
13677W        W85992   1.259  18.667  11.580
13678W        W85993  36.014  30.452   3.785
13679W        W85994  35.908   6.381   4.123
13680W        W85995  21.607  23.637  11.420
13681W        W85996  18.088  15.677  13.801
13682W        W85997  32.441  34.555   1.364
13683W        W85998  39.028  30.476  14.904
13684W        W85999  36.405  31.431  12.518
13685W        W86000   0.459  27.941   2.885
13686W        W86001   3.768  17.660   3.288
13687W        W86002   1.857  31.537   1.333
13688W        W86003  33.619  14.189  13.390
13689W        W86004  26.079   5.798  12.973
13690W        W86005  33.984   2.767  11.094
13691W        W86006   5.786  16.725  12.370
13692W        W86007  40.452  27.599  13.802
13693W        W86008  11.304  33.121   3.764
13694W        W86009  37.398  31.992   4.818
13695W        W86010  44.389   3.450   9.992
13696W        W86011   1.266  15.315  14.001
13697W        W86012  17.682  29.111  12.022
13698W        W86013  19.595  35.433   2.687
13699W        W86014   7.211  10.864   0.338
13700W        W86015  15.599   9.693   2.669
13701W        W86016  31.068   8.163  10.500
13702W        W86017  27.191   8.713   0.838
13703W        W86018  44.974  35.902   9.923
13704W        W86019   4.703   3.907  12.942
13705W        W86020  14.107  16.753   0.441
13706W        W86021  22.212  29.479  10.943
13707W        W86022  36.510  25.032   1.701
13708W        W86023  31.639  25.577  14.772
13709W        W86024   0.452  38.468   0.345
13710W        W86025  23.995  12.122   3.214
13711W        W86026  33.892  43.392  12.022
13712W        W86027   2.747  28.952  13.394
13713W        W86028  41.503  33.488   1.778
13714W        W86029  19.281  44.336   3.643
13715W        W86030  44.461  12.270  12.547
13716W        W86031  28.071  45.000  13.856
13717W        W86032  25.984  19.593   0.454
13718W        W86033   8.797   1.318   1.925
13719W        W86034  24.048  30.421  12.851
13720W        W86035  24.129  10.336  11.424
13721W        W86036   1.365  21.676  14.321
13722W        W86037  15.759  33.546   0.850
13723W        W86038  40.524  29.919   1.795
13724W        W86039  35.860  27.003   2.673
13725W        W86040  13.724  31.420  14.311
13726W        W86041  35.067  22.066   3.852
13727W        W86042   2.840   6.775   1.412
13728W        W86043   1.331   3.846  14.281
13729W        W86044  29.965  40.954   0.475
13730W        W86045  42.420  14.720  13.501
13731W        W86046  24.037  13.171   4.165
13732W        W86047   2.457  16.601   3.347
13733W        W86048   8.240  36.923   1.369
13734W        W86049  37.550   5.390  12.986
13735W        W86050  13.157  39.483  11.493
13736W        W86051  12.356  36.997  12.475
13737W        W86052  23.731  24.581   3.228
13738W        W86053  30.994  12.652   5.212
13739W        W86054  10.716  34.562  12.866
13740W        W86055  18.169  36.586   4.173
13741W        W86056  22.128   2.767   0.793
13742W        W86057  28.497  14.109   0.414
13743W        W86058  34.548  27.608  14.375
13744W        W86059  12.279  31.146   2.770
13745W        W86060   0.845  14.786  10.410
13746W        W86061  30.419  24.653  12.026
13747W        W86062  38.995  40.934   1.696
13748W        W86063  41.511  14.603  10.982
13749W        W86064  39.548  33.121  11.541
13750W        W86065   8.271   4.892  11.037
13751W        W86066  15.302  38.996  14.881
13752W        W86067   6.213   8.292   0.393
13753W        W86068  36.849  13.243   4.622
13754W        W86069  38.901  20.556  10.100
13755W        W86070   1.431   9.691   5.101
13756W        W86071   2.420  26.066  14.282
13757W        W86072   1.416  16.796  14.485
13758W        W86073  27.184  34.383  10.038
13759W        W86074  42.449   8.816   1.761
13760W        W86075  42.501   6.296  11.936
13761W        W86076  13.678  15.744   2.755
13762W        W86077  29.589   6.267   0.278
13763W        W86078  27.636   5.783   5.135
13764W        W86079  35.873  35.949   3.632
13765W        W86080   9.644  30.023   4.810
13766W        W86081  25.208  31.956   3.843
13767W        W86082  11.660   7.700  11.463
13768W        W86083  29.974  30.544   4.239
13769W        W86084   2.388  17.690   1.704
13770W        W86085   4.790  11.260  10.465
13771W        W86086  12.302  41.386   2.889
13772W        W86087  13.791  14.824  11.953
13773W        W86088   7.668  17.782  12.894
13774W        W86089  22.012  27.592   2.415
13775W        W86090  41.318  31.902   2.278
13776W        W86091   6.361  21.163   2.383
13777W        W86092  20.602   5.920  11.606
13778W        W86093  32.934  41.836  11.066
13779W        W86094   1.824  28.112  12.359
13780W        W86095  14.653  23.042  11.498
13781W        W86096  37.034  28.575   4.310
13782W        W86097  31.964  14.111  13.050
13783W        W86098  23.704  34.512  14.823
13784W        W86099  39.825  22.661  11.584
13785W        W86100   8.677  44.761   4.124
13786W        W86101  20.575  44.923  11.863
13787W        W86102  35.030  18.686  12.935
13788W        W86103   9.879  17.692   4.154
13789W        W86104  43.927  27.183  12.087
13790W        W86105   6.703  41.028  10.625
13791W        W86106   8.729  32.633   1.711
13792W        W86107  30.151  42.793   1.223
13793W        W86108  34.441  22.165  12.969
13794W        W86109  23.594  44.400   9.954
13795W        W86110  23.027  43.354  11.904
13796W        W86111  22.169   7.416  11.478
13797W        W86112  16.573  39.837  10.928
13798W        W86113  11.191  42.926   1.346
13799W        W86114  42.870  24.980   2.700
13800W        W86115  29.527  27.559   4.200
13801W        W86116   9.793   6.370  13.412
13802W        W86117  19.098  32.131   3.813
13803W        W86118  43.407  27.107  11.387
13804W        W86119  35.941  36.462  11.871
13805W        W86120  20.663   6.399   0.416
13806W        W86121  16.188  22.502   3.366
13807W        W86122  12.325  26.606  12.457
13808W        W86123  27.524  10.228   4.176
13809W        W86124  26.564  27.006   1.883
13810W        W86125  12.270  14.309   1.229
13811W        W86126  31.460   5.837  13.518
13812W        W86127  11.133  23.129   2.829
13813W        W86128   8.238  20.615   0.811
13814W        W86129  44.456  25.969   2.274
13815W        W86130  25.515  34.607   0.259
13816W        W86131  39.363  42.446  11.400
13817W        W86132  33.565  18.547  12.889
13818W        W86133  12.306  25.018  13.321
13819W        W86134   7.267   4.870  11.417
13820W        W86135  31.129  37.059   3.664
13821W        W86136  11.247  32.550  13.997
13822W        W86137  24.711  31.093   4.193
13823W        W86138  32.029  15.310   4.648
13824W        W86139  31.045  16.306  11.605
13825W        W86140  22.565  25.479  14.934
13826W        W86141  44.761   9.184  12.410
13827W        W86142  35.493   8.389  12.553
13828W        W86143   7.400  19.542  14.880
13829W        W86144   7.753  13.627  12.879
13830W        W86145  14.102  30.124   4.291
13831W        W86146   4.944  17.222   2.222
13832W        W86147  21.688  15.611  10.487
13833W        W86148   9.871  13.323   4.137
13834W        W86149  36.496  32.610   3.692
13835W        W86150   0.322  12.296   2.211
13836W        W86151  12.731  17.245   2.815
13837W        W86152  20.645  26.083   2.274
13838W        W86153  22.137  40.870  12.081
13839W        W86154  28.555  24.610  10.602
13840W        W86155  34.440  15.092  12.570
13841W        W86156  29.576  23.231   3.752
13842W        W86157  30.623  20.642  11.023
13843W        W86158  13.117  23.525  13.867
13844W        W86159   8.176  40.054  14.933
13845W        W86160  18.137  28.525   2.317
13846W        W86161  36.017  42.334  12.525
13847W        W86162  36.564  36.076  13.405
13848W        W86163  36.060  28.640   1.813
13849W        W86164  32.974  23.567   2.379
13850W        W86165  32.029  25.635  11.105
13851W        W86166   0.389  29.994   4.279
13852W        W86167  12.616  11.326  12.344
13853W        W86168  23.026   7.689   2.305
13854W        W86169  38.990  20.727   1.791
13855W        W86170  13.192  10.733   0.959
13856W        W86171  19.138  38.926   5.291
13857W        W86172   6.319  13.620  13.530
13858W        W86173  25.972  31.963  12.416
13859W        W86174  19.150  10.152   2.752
13860W        W86175  42.886  39.971  11.906
13861W        W86176  32.892  37.348   1.793
13862W        W86177  36.459  43.286   2.261
13863W        W86178  11.690  27.594   1.880
13864W        W86179  14.280  44.409  14.854
13865W        W86180  31.113  37.555   0.323
13866W        W86181  39.440  11.230   0.831
13867W        W86182  15.190  29.505  11.957
13868W        W86183  23.240  20.122   3.199
13869W        W86184  38.959  16.169  14.481
13870W        W86185  12.236  40.931  10.925
13871W        W86186  16.689   6.188  12.523
13872W        W86187  40.504  13.730  14.383
13873W        W86188  29.062   3.793  10.933
13874W        W86189  23.676  27.465   2.179
13875W        W86190   6.912   4.292   3.712
13876W        W86191   4.783   8.373  14.916
13877W        W86192  20.077   1.754   3.275
13878W        W86193  12.154  19.163   5.157
13879W        W86194  40.415  38.419   3.716
13880W        W86195  41.846  35.433   2.417
13881W        W86196  42.784   6.227  10.563
13882W        W86197  12.251  42.853  11.443
13883W        W86198  40.830   5.756   2.220
13884W        W86199  22.192  40.377   0.847
13885W        W86200  38.018   4.315  10.939
13886W        W86201   1.874  24.614  12.933
13887W        W86202  35.933  27.073   4.135
13888W        W86203  23.160  18.555   1.347
13889W        W86204   4.276  33.447  11.032
13890W        W86205  16.314   1.309   0.388
13891W        W86206  22.233  12.706   1.431
13892W        W86207  39.495   6.869  14.410
13893W        W86208  40.303  10.340   0.897
13894W        W86209  21.544  35.019  10.413
13895W        W86210  22.019  26.144   4.775
13896W        W86211  41.875  33.086   3.769
13897W        W86212   4.908  24.084  11.544
13898W        W86213   2.920   3.741  11.948
13899W        W86214   3.286   6.244   1.317
13900W        W86215  31.434  17.250  13.034
13901W        W86216  16.764  38.482   0.450
13902W        W86217  35.970  28.562  11.999
13903W        W86218  28.985  18.202   4.620
13904W        W86219  12.227  37.411  11.998
13905W        W86220  31.464   8.683  11.956
13906W        W86221  16.690   9.670   5.101
13907W        W86222  30.951  25.639   4.776
13908W        W86223  13.123  19.755   5.210
13909W        W86224  33.120  12.809  10.416
13910W        W86225   5.894  34.917   0.845
13911W        W86226   2.789  43.022   3.356
13912W        W86227  29.557  42.368  12.039
13913W        W86228  14.125   2.255  14.442
13914W        W86229  37.078  35.939   3.868
13915W        W86230  31.965   6.921  12.953
13916W        W86231   8.726   7.408  14.891
13917W        W86232  24.195  23.505  12.409
13918W        W86233   2.824  25.655  12.022
13919W        W86234   5.696  21.193  14.401
13920W        W86235  21.147  36.988  13.348
13921W        W86236   8.253  21.597  10.893
13922W        W86237   8.220   1.362  13.547
13923W        W86238  25.083  12.251   4.125
13924W        W86239  37.025  32.393  11.451
13925W        W86240  20.674  36.371  14.985
13926W        W86241  32.404  26.977   0.847
13927W        W86242  44.776  35.890  13.059
13928W        W86243   3.320  17.186  11.079
13929W        W86244  20.096  34.916   0.842
13930W        W86245  44.877   8.894  11.102
13931W        W86246  20.616  43.830  12.509
13932W        W86247   2.344  31.069   2.328
13933W        W86248  37.993  10.148   3.674
13934W        W86249  21.711  21.223  13.389
13935W        W86250   7.302  13.133   1.266
13936W        W86251  26.140   8.678   5.270
13937W        W86252  31.121  40.484  13.868
13938W        W86253  20.740   8.349  12.886
13939W        W86254  39.447  32.128   3.845
13940W        W86255  37.398  21.044   2.843
13941W        W86256  23.004  39.441   2.402
13942W        W86257   9.721  32.914   4.739
13943W        W86258   2.846   4.379  13.863
13944W        W86259   4.875  20.028  11.486
13945W        W86260   0.897  12.834   1.881
13946W        W86261  12.148  18.227  14.848
13947W        W86262  38.018  23.557   4.598
13948W        W86263  10.800  18.631   9.625
13949W        W86264  24.549  37.082  14.505
13950W        W86265  16.614   5.722   4.685
13951W        W86266  36.946  28.581  13.027
13952W        W86267  43.343  21.610   4.755
13953W        W86268   3.429   3.314   3.704
13954W        W86269  21.239  25.668   1.404
13955W        W86270  16.712   7.363  14.487
13956W        W86271   7.767  42.952  13.446
13957W        W86272   7.282  27.457  11.909
13958W        W86273  14.649  44.947   1.238
13959W        W86274  29.580  19.053  14.937
13960W        W86275  41.847  27.020  11.888
13961W        W86276  16.226  15.752  10.476
13962W        W86277  24.632   2.949   0.788
13963W        W86278   4.218  10.302   2.269
13964W        W86279  28.934   0.323   4.802
13965W        W86280  16.153   5.893  10.540
13966W        W86281  13.108  41.997   1.803
13967W        W86282  38.015  43.783   0.940
13968W        W86283   6.263   3.322  10.969
13969W        W86284  24.060   4.867   4.791
13970W        W86285  34.094   8.258  12.373
13971W        W86286  38.379  29.981   0.364
13972W        W86287  17.708  41.865   9.647
13973W        W86288  17.586   8.358  11.499
13974W        W86289  44.950   1.262   3.299
13975W        W86290  18.788  25.049  12.561
13976W        W86291  13.167  16.220   1.360
13977W        W86292  10.866  17.187  13.969
13978W        W86293  16.179  16.239  12.019
13979W        W86294  14.683  41.358   0.276
13980W        W86295  23.090   6.269   4.698
13981W        W86296  33.405  42.957   1.840
13982W        W86297  20.205  23.124  14.005
13983W        W86298  16.215  10.813  11.980
13984W        W86299  37.904   7.239  14.771
13985W        W86300   9.685  41.293   2.234
13986W        W86301  21.718  17.271  11.096
13987W        W86302   4.780   0.335  12.034
13988W        W86303  13.802  19.230  14.999
13989W        W86304   0.971  19.717  12.958
13990W        W86305   7.729  21.107  14.008
13991W        W86306  15.185  13.220   2.662
13992W        W86307  25.571   2.273  12.064
13993W        W86308  42.885  21.215  14.849
13994W        W86309  17.556  34.016   4.688
13995W        W86310  34.058  32.442  11.571
13996W        W86311  36.855  28.565   2.306
13997W        W86312  23.639  12.792  12.462
13998W        W86313  23.622  20.237   3.652
13999W        W86314  11.654   0.346  14.295
14000W        W86315  34.453  27.087  13.889
14001W        W86316  44.009   2.236   0.833
14002W        W86317   5.789  40.422   1.255
14003W        W86318  38.042  16.314   4.808
14004W        W86319  22.055  34.012   0.907
14005W        W86320   4.934  10.642   1.324
14006W        W86321  17.615   2.833  12.964
14007W        W86322   8.874  28.499   0.321
14008W        W86323   3.883  35.889   1.720
14009W        W86324  11.647  40.460  10.631
14010W        W86325  38.973  30.603  11.883
14011W        W86326  37.570  37.864  14.856
14012W        W86327  22.045  10.791  12.477
14013W        W86328  17.756   5.770   1.342
14014W        W86329  32.024   4.730  14.511
14015W        W86330  10.636   0.349   2.902
14016W        W86331  22.704   7.749   4.689
14017W        W86332  41.905   9.366   4.632
14018W        W86333  17.194  13.183  13.430
14019W        W86334  34.414  13.106   2.211
14020W        W86335  15.763  37.463   2.807
14021W        W86336   9.752  30.155  14.005
14022W        W86337   2.299  23.700   0.342
14023W        W86338  27.003  34.017  14.893
14024W        W86339  31.122   3.784   4.824
14025W        W86340  40.016  16.667   0.922
14026W        W86341  11.282  31.623  11.378
14027W        W86342  24.670  40.021  10.543
14028W        W86343  21.174  27.498   0.467
14029W        W86344  24.982  17.562   4.622
14030W        W86345  23.136  23.162   0.728
14031W        W86346  24.673  37.373   1.759
14032W        W86347  35.532  13.616  13.545
14033W        W86348   2.870  35.860   3.228
14034W        W86349  10.821  18.776  12.418
14035W        W86350  32.944  23.640  12.908
14036W        W86351  15.582  36.497   1.855
14037W        W86352  44.404  32.886  13.977
14038W        W86353   9.873  26.682  10.919
14039W        W86354  20.034  38.387   2.178
14040W        W86355   8.394   0.913   1.293
14041W        W86356  19.725   7.747  13.912
14042W        W86357  32.042   6.853  13.975
14043W        W86358  12.154  25.117  14.374
14044W        W86359  17.612   9.328  10.054
14045W        W86360   2.459  22.063   1.887
14046W        W86361  24.498  44.972  13.060
14047W        W86362  41.479   1.323   1.711
14048W        W86363  41.883  26.664  13.992
14049W        W86364  11.827  28.004   1.894
14050W        W86365   7.809  39.986   0.441
14051W        W86366  42.892   5.333  10.994
14052W        W86367  41.961  40.909   4.217
14053W        W86368   2.922   5.262   2.396
14054W        W86369  24.560  25.504  12.062
14055W        W86370  35.520  20.643   2.233
14056W        W86371  43.322   3.338   3.813
14057W        W86372   9.329  31.090   3.168
14058W        W86373  38.912  25.154  14.461
14059W        W86374  27.036  36.863  13.537
14060W        W86375  38.485   0.418  11.875
14061W        W86376   1.825   2.747   4.645
14062W        W86377  31.475   4.282   2.794
14063W        W86378  10.746  44.407   4.735
14064W        W86379  42.291  41.485  11.412
14065W        W86380  36.021  23.596   4.344
14066W        W86381  18.191   7.390  12.008
14067W        W86382   6.345  43.987  10.475
14068W        W86383  15.721   6.745   2.789
14069W        W86384  22.087  20.688   5.202
14070W        W86385  42.375  24.041  11.860
14071W        W86386  37.341  28.144   3.306
14072W        W86387  41.998  42.782  14.354
14073W        W86388  36.407  38.963  11.487
14074W        W86389  27.655  28.051   3.679
14075W        W86390  37.998  10.303   2.844
14076W        W86391  29.617  19.581  13.848
14077W        W86392   5.736   3.392  13.478
14078W        W86393  38.918  21.521   0.311
14079W        W86394  34.044  38.842   0.905
14080W        W86395   0.883  26.552   5.211
14081W        W86396   8.269  26.652  14.960
14082W        W86397  36.412  43.422   1.421
14083W        W86398  37.906  15.598  11.994
14084W        W86399  42.993  12.685   4.206
14085W        W86400  12.215   6.220  12.955
14086W        W86401  12.248  31.933   4.787
14087W        W86402  24.521  42.836  12.008
14088W        W86403  26.490  31.422  12.394
14089W        W86404  13.107  12.273   4.616
14090W        W86405  15.616  22.024   2.680
14091W        W86406   6.235   3.810  11.606
14092W        W86407  16.202   5.410  14.803
14093W        W86408  15.608  42.340   5.222
14094W        W86409  15.643  17.745  11.997
14095W        W86410  27.131  20.207  10.423
14096W        W86411  10.354  44.808  13.989
14097W        W86412  28.574  21.727  10.542
14098W        W86413   0.889  20.136   1.256
14099W        W86414   1.432  43.310  14.809
14100W        W86415  31.526  15.710  11.993
14101W        W86416   3.370   6.255   4.725
14102W        W86417  25.513  28.672   1.295
14103W        W86418   7.226  15.291   2.259
14104W        W86419  43.460  23.985  11.125
14105W        W86420  17.116  19.579   0.770
14106W        W86421  18.226  39.853   4.274
14107W        W86422  10.263  13.696  14.484
14108W        W86423  11.640  31.601  12.388
14109W        W86424  16.157  40.945  11.550
14110W        W86425   5.251   9.370  11.411
14111W        W86426   6.358  28.465   4.639
14112W        W86427  25.675  13.262   4.735
14113W        W86428   8.686   3.355   1.428
14114W        W86429  43.340  13.696   4.314
14115W        W86430   6.739  40.413  14.798
14116W        W86431  43.779  33.022   3.737
14117W        W86432  27.685  38.514   3.386
14118W        W86433  10.284  24.081  12.868
14119W        W86434  37.947  19.169   2.741
14120W        W86435  14.702  42.346   0.746
14121W        W86436  42.838   9.673  13.825
14122W        W86437  37.559  32.084   3.333
14123W        W86438   5.326  28.119   1.885
14124W        W86439   8.694   3.253  10.421
14125W        W86440  29.127   7.735  13.894
14126W        W86441  44.472  17.062   2.235
14127W        W86442  41.892   8.855  10.630
14128W        W86443  43.769  16.638   3.379
14129W        W86444   3.771  21.188   0.956
14130W        W86445   8.799  29.020  10.124
14131W        W86446  18.629  25.554   1.343
14132W        W86447  33.545  19.699   0.879
14133W        W86448  15.151  39.538   1.314
14134W        W86449  22.720  32.074   1.901
14135W        W86450  37.069  32.962  11.525
14136W        W86451  19.553   1.319   0.454
14137W        W86452  27.494  39.434   1.422
14138W        W86453   0.807  12.242  11.071
14139W        W86454  35.589   0.861  12.423
14140W        W86455  17.578  11.751   3.829
14141W        W86456  25.656  36.911  12.872
14142W        W86457  15.238  15.146   1.883
14143W        W86458  18.752  39.486   1.355
14144W        W86459  30.574  32.986  14.387
14145W        W86460  15.088  39.433   4.619
14146W        W86461  39.891  13.816  14.780
14147W        W86462  25.619  35.972   1.288
14148W        W86463   9.696   0.911  14.458
14149W        W86464  28.506  22.089  13.884
14150W        W86465  42.396  20.079  11.107
14151W        W86466   8.277  15.627   0.351
14152W        W86467  29.052  41.985  11.431
14153W        W86468   7.305  43.385   3.285
14154W        W86469   2.447  25.205  12.048
14155W        W86470   6.701   0.872   0.907
14156W        W86471  26.010  12.234  13.891
14157W        W86472   1.747  18.169  12.096
14158W        W86473  22.054  10.638   0.814
14159W        W86474  23.511   7.287   3.347
14160W        W86475  34.057  32.127  13.011
14161W        W86476  13.319   0.804   3.366
14162W        W86477   0.420  18.065   2.848
14163W        W86478  39.355  29.579   2.878
14164W        W86479  11.127  32.955  12.405
14165W        W86480  12.350  31.521  10.510
14166W        W86481  41.849  28.665  13.481
14167W        W86482  39.844  30.465  13.928
14168W        W86483  38.975   1.387  14.299
14169W        W86484   2.823   8.850   4.694
14170W        W86485  11.235   0.494  13.429
14171W        W86486   6.828  34.522   4.263
14172W        W86487  42.364  32.535   4.342
14173W        W86488  40.454  27.454  12.514
14174W        W86489  12.844  15.265  12.862
14175W        W86490  27.143  29.088  13.988
14176W        W86491  12.230   0.429   0.790
14177W        W86492  20.229  32.622   2.286
14178W        W86493  36.939  30.931  12.872
14179W        W86494   5.780  24.495   3.310
14180W        W86495  40.353  21.553  11.384
14181W        W86496   0.941  11.633  14.351
14182W        W86497   2.837   5.308   1.337
14183W        W86498  24.078   0.328  11.936
14184W        W86499  39.944  31.991  13.844
14185W        W86500  22.582  38.356   4.809
14186W        W86501  43.921  23.616   1.696
14187W        W86502   5.379  41.394   3.721
14188W        W86503  33.994  26.536   4.282
14189W        W86504  37.914  18.700   0.348
14190W        W86505  23.064  21.581  13.331
14191W        W86506  34.391   5.287   0.897
14192W        W86507  28.010  19.737   0.477
14193W        W86508  15.212  29.049   3.738
14194W        W86509   5.370  26.567   4.775
14195W        W86510  34.070  39.864  12.940
14196W        W86511   2.939  24.986   4.634
14197W        W86512   9.389  37.524  13.505
14198W        W86513  28.163  24.179   1.843
14199W        W86514  12.330  26.599   1.389
14200W        W86515  33.074  25.060  14.781
14201W        W86516  41.853  10.162  12.468
14202W        W86517   5.797   2.738  14.324
14203W        W86518  33.025  37.898  11.379
14204W        W86519  38.391   0.481  14.761
14205W        W86520   9.234  11.659  13.486
14206W        W86521  38.449   1.415   2.383
14207W        W86522  32.007   0.288  11.995
14208W        W86523  35.976  36.553  10.624
14209W        W86524  19.065  13.824   1.306
14210W        W86525  33.518  12.754   3.861
14211W        W86526  14.307  12.847   3.245
14212W        W86527   3.403  44.294   3.265
14213W        W86528  44.493  35.051   9.923
14214W        W86529   4.745   8.352   0.882
14215W        W86530   6.213   8.677   1.838
14216W        W86531  19.047   2.743  14.297
14217W        W86532  42.909   4.218  11.126
14218W        W86533  37.974  31.572   4.209
14219W        W86534  39.893  21.642  13.865
14220W        W86535   3.775  12.259  11.528
14221W        W86536  21.610  22.071  12.977
14222W        W86537   3.882   4.285   3.727
14223W        W86538  20.760  19.068  12.347
14224W        W86539  29.583  21.591   1.265
14225W        W86540  42.457  18.679  12.922
14226W        W86541  15.687  22.044   3.382
14227W        W86542  17.076  39.873   5.290
14228W        W86543  11.679  28.016   2.746
14229W        W86544  13.163  18.706   1.729
14230W        W86545  35.957  29.922   1.889
14231W        W86546  41.425  25.710   2.676
14232W        W86547  26.099  25.642  11.984
14233W        W86548   5.271   7.878  14.796
14234W        W86549  22.083  37.034  10.522
14235W        W86550   0.329  14.605  13.450
14236W        W86551  19.729   7.683   0.400
14237W        W86552  23.553   7.897  10.593
14238W        W86553   1.364  40.414   3.286
14239W        W86554  36.540   1.300  13.336
14240W        W86555  28.079  28.930   1.707
14241W        W86556  43.006  26.989   1.232
14242W        W86557  35.033  12.725  11.070
14243W        W86558   5.869  36.065  13.502
14244W        W86559  44.908   9.176   3.224
14245W        W86560   0.858   0.919  13.509
14246W        W86561  31.904  40.040  10.049
14247W        W86562  16.205  17.183   3.329
14248W        W86563  22.118   6.324   1.274
14249W        W86564  42.403  25.470   2.246
14250W        W86565   8.353  12.815   0.916
14251W        W86566  31.014  31.615   2.876
14252W        W86567   8.202   7.720  12.065
14253W        W86568  39.964   1.926  12.457
14254W        W86569  25.219  30.113   1.859
14255W        W86570  27.638  12.322   3.739
14256W        W86571  18.709  28.670   4.191
14257W        W86572  31.095  44.896   2.326
14258W        W86573  34.068  32.528   3.280
14259W        W86574  25.582  30.153   4.729
14260W        W86575  11.833  40.390  12.982
14261W        W86576  21.188  26.458   3.366
14262W        W86577   7.320  27.567   1.446
14263W        W86578  22.029  20.567  12.448
14264W        W86579  22.738  18.549   4.162
14265W        W86580  32.480  44.400  11.017
14266W        W86581  29.967  20.268  10.440
14267W        W86582  14.323   6.219  14.408
14268W        W86583  30.460  37.339   3.283
14269W        W86584   1.388  16.153  12.867
14270W        W86585   6.884  33.893  10.934
14271W        W86586  37.374   7.817   2.725
14272W        W86587   8.870  25.193  10.631
14273W        W86588   1.467   6.885  13.828
14274W        W86589  15.206   4.417  13.455
14275W        W86590  21.163   7.277  11.108
14276W        W86591  23.048  28.050   0.951
14277W        W86592  32.054   8.214  10.937
14278W        W86593  10.649   1.795   3.186
14279W        W86594   1.782  38.052  14.019
14280W        W86595  35.444  36.434  10.479
14281W        W86596  39.531   3.272   4.180
14282W        W86597  11.208   7.873  13.049
14283W        W86598   3.914  18.074   3.368
14284W        W86599   6.402  27.973  14.818
14285W        W86600  16.265  20.602   3.784
14286W        W86601  21.666  33.556  11.045
14287W        W86602   3.258   7.742  14.473
14288W        W86603  34.908  26.693  12.440
14289W        W86604  31.031  21.529   0.902
14290W        W86605   6.733  12.282  13.372
14291W        W86606  20.614  15.694   2.878
14292W        W86607  13.759  25.966  12.918
14293W        W86608  43.359  39.486   4.632
14294W        W86609  31.594  33.013   4.340
14295W        W86610   6.270   6.231  14.885
14296W        W86611  13.280   5.368  14.365
14297W        W86612   9.266  35.861  13.506
14298W        W86613   0.364   6.370  11.500
14299W        W86614   6.729  12.216   4.836
14300W        W86615  23.552  22.075  13.053
14301W        W86616  26.060   7.903   3.842
14302W        W86617  31.974  27.685  12.091
14303W        W86618  33.546   0.925   2.308
14304W        W86619  39.875  12.357  13.421
14305W        W86620  21.617  35.938  10.910
14306W        W86621  32.430  32.045  10.490
14307W        W86622  44.845  32.543  13.846
14308W        W86623  19.120  31.498  10.914
14309W        W86624  39.811   2.857  12.843
14310W        W86625   1.797  16.130  13.485
14311W        W86626  39.315  33.495  13.000
14312W        W86627   8.217  23.506  14.397
14313W        W86628   2.878  10.188  11.102
14314W        W86629  36.501  16.756  13.362
14315W        W86630  14.158  13.232  12.505
14316W        W86631  14.198  26.522   0.863
14317W        W86632  28.616   0.814   0.905
14318W        W86633  35.426   7.670   4.722
14319W        W86634  22.084  12.133   2.801
14320W        W86635  15.617  40.318  10.902
14321W        W86636  28.542  21.535   2.310
14322W        W86637  23.027  33.552  12.546
14323W        W86638   0.379  10.273   0.926
14324W        W86639  10.716  21.032   1.714
14325W        W86640   9.172  34.924   0.756
14326W        W86641  41.803   8.225   4.143
14327W        W86642  28.566  40.439   3.745
14328W        W86643   9.756  26.207  13.822
14329W        W86644   4.845  27.999   4.786
14330W        W86645  11.216  31.113  12.845
14331W        W86646   1.434  37.040   2.743
14332W        W86647  42.353  35.905  13.035
14333W        W86648  19.214  11.635  10.084
14334W        W86649  26.666  21.061  11.590
14335W        W86650   6.770  30.649   4.189
14336W        W86651  40.401  44.356  13.515
14337W        W86652  17.640   1.890   2.397
14338W        W86653  42.830  38.890   1.899
14339W        W86654   4.324   5.275   1.264
14340W        W86655  28.173  25.026  10.551
14341W        W86656  38.909  29.573  13.508
14342W        W86657  34.465   2.905  14.923
14343W        W86658  24.053  10.356   3.184
14344W        W86659  12.196   2.746   4.227
14345W        W86660  43.310  28.170   4.783
14346W        W86661  20.265  12.729   4.725
14347W        W86662  18.156   6.724   0.831
14348W        W86663  12.217  12.723  11.571
14349W        W86664  22.558  26.622  14.955
14350W        W86665   1.763  29.491   0.294
14351W        W86666  35.373   7.401  13.842
14352W        W86667   1.240  11.285  13.525
14353W        W86668  21.707  34.868  12.545
14354W        W86669   9.724  33.995   0.468
14355W        W86670   9.730  34.873  11.888
14356W        W86671  27.652   8.374  14.987
14357W        W86672  29.095  35.466   0.838
14358W        W86673  21.057  28.437   3.658
14359W        W86674  22.656  39.900   4.168
14360W        W86675  41.908  13.796  10.454
14361W        W86676  17.757  12.777  12.539
14362W        W86677  15.667  33.462  10.511
14363W        W86678  18.254  20.052   3.776
14364W        W86679  36.852  18.613   3.353
14365W        W86680  22.130  31.558   4.222
14366W        W86681   0.886  28.512  12.568
14367W        W86682  14.251  15.127   3.309
14368W        W86683  41.011  33.570  14.834
14369W        W86684  27.631   1.818   0.369
14370W        W86685  17.285  35.562   3.649
14371W        W86686  32.118   7.388   0.901
14372W        W86687  22.160  23.100  10.508
14373W        W86688  23.120  25.986   4.635
14374W        W86689  19.074  23.126  14.789
14375W        W86690  41.920  17.152  14.780
14376W        W86691  42.492  39.360   1.785
14377W        W86692  10.671  25.046  10.455
14378W        W86693   6.410  19.757  11.380
14379W        W86694   6.850   1.895  13.832
14380W        W86695  41.481  40.848   0.335
14381W        W86696  18.252  25.970   1.876
14382W        W86697  29.607  30.522   5.233
14383W        W86698  23.141  39.954   1.252
14384W        W86699   5.783   6.802  10.590
14385W        W86700  23.615  20.757   4.686
14386W        W86701  26.049  16.573   1.834
14387W        W86702   2.432  24.624   4.835
14388W        W86703   2.825   7.890  10.610
14389W        W86704  42.369  28.488   3.633
14390W        W86705  40.940  18.251  11.865
14391W        W86706  27.561   9.672  11.981
14392W        W86707  16.792  42.444   0.397
14393W        W86708   0.868  16.188   4.674
14394W        W86709  33.478  12.349  14.341
14395W        W86710  12.293  18.078   3.251
14396W        W86711  10.852  12.813   3.828
14397W        W86712  19.725  11.746  12.944
14398W        W86713  31.550  36.436  11.025
14399W        W86714  10.245  42.349   4.649
14400W        W86715   4.700  37.514   4.303
14401W        W86716  35.598  30.477  14.340
14402W        W86717   8.729  41.808   0.459
14403W        W86718  33.514  26.087   0.784
14404W        W86719  20.687  29.988  13.034
14405W        W86720  12.120  20.120   3.686
14406W        W86721  25.979  18.701   4.341
14407W        W86722  24.003   2.248   0.478
14408W        W86723  33.061  19.096   1.786
14409W        W86724   8.833  37.015  12.537
14410W        W86725  17.262  35.598   3.204
14411W        W86726  34.419   5.797  11.478
14412W        W86727  40.436   2.234  11.460
14413W        W86728  20.090  41.507   1.886
14414W        W86729  33.451  25.061  11.028
14415W        W86730  12.317  15.715  14.883
14416W        W86731  44.819  43.853  11.093
14417W        W86732  35.529   6.768   4.228
14418W        W86733   8.315  18.591   3.724
14419W        W86734   2.426  33.130   2.871
14420W        W86735   3.379  42.881  12.094
14421W        W86736  32.924  15.789   2.894
14422W        W86737  18.742   9.884  14.491
14423W        W86738   8.792   5.403   3.779
14424W        W86739  10.783  42.991   4.719
14425W        W86740  35.922  15.583   1.711
14426W        W86741  39.422  14.628  13.403
14427W        W86742  44.842  39.818   3.736
14428W        W86743  38.946  44.801  12.373
14429W        W86744  16.666  12.121  12.951
14430W        W86745   2.307  32.583  11.451
14431W        W86746  16.119   9.780   3.750
14432W        W86747   8.893  35.371   3.799
14433W        W86748  18.143  40.367   3.367
14434W        W86749  42.410  42.837   0.789
14435W        W86750  22.674  21.072   1.314
14436W        W86751  17.661  28.442  10.405
14437W        W86752  22.099  27.039   2.405
14438W        W86753  38.888  17.167  11.059
14439W        W86754  35.899  19.117   0.340
14440W        W86755   2.864  40.541   3.147
14441W        W86756  12.158  44.474   1.428
14442W        W86757  40.524  17.574  12.567
14443W        W86758  36.938  39.823   0.741
14444W        W86759   5.382   4.248  14.952
14445W        W86760  22.017   3.949   0.836
14446W        W86761  41.348  36.006  10.519
14447W        W86762  21.629  40.006   0.823
14448W        W86763  37.472  26.558  14.298
14449W        W86764  36.501  38.023   2.280
14450W        W86765  28.984  12.328  13.482
14451W        W86766  43.474   4.233   1.700
14452W        W86767   9.880   8.870  13.500
14453W        W86768   4.853  41.445   1.803
14454W        W86769   1.400  16.588  13.812
14455W        W86770  13.180   2.433   1.727
14456W        W86771  31.050  23.142  11.992
14457W        W86772   3.948  28.625   0.843
14458W        W86773  27.514  42.402   1.214
14459W        W86774  31.460  43.426   4.186
14460W        W86775  44.457  30.993  12.045
14461W        W86776  24.572  12.116  10.945
14462W        W86777  43.898   0.829   2.215
14463W        W86778  24.144  43.954  14.363
14464W        W86779   4.282  40.486  14.987
14465W        W86780  21.022  41.531  11.978
14466W        W86781  17.581  12.242   4.722
14467W        W86782  14.324  31.557  10.896
14468W        W86783  17.270  10.276   1.896
14469W        W86784  10.189  19.645  11.498
14470W        W86785  20.531   4.256  10.595
14471W        W86786  14.611  11.358  14.936
14472W        W86787  25.118  33.532   3.660
14473W        W86788   4.236  37.458   0.421
14474W        W86789  30.446  35.457  12.340
14475W        W86790  20.270   9.244   4.160
14476W        W86791  30.118  32.030  14.977
14477W        W86792  34.019  25.548   0.271
14478W        W86793   1.855  10.720  11.992
14479W        W86794  30.056  11.647   3.238
14480W        W86795  16.234  17.690   2.662
14481W        W86796  34.077  14.770   4.759
14482W        W86797   4.860  19.157  13.345
14483W        W86798   1.956  18.283  14.019
14484W        W86799  32.143   0.443   1.389
14485W        W86800   3.718   8.389  11.452
14486W        W86801  36.974  21.705  12.082
14487W        W86802  31.079  39.995  11.938
14488W        W86803  25.039  43.911  12.558
14489W        W86804  10.736  18.715   1.371
14490W        W86805   0.257  10.722  11.871
14491W        W86806  38.477   9.864  13.949
14492W        W86807  12.238  39.557   1.737
14493W        W86808  44.280   7.204   5.296
14494W        W86809  33.121  38.335  13.879
14495W        W86810  41.990  17.784   3.666
14496W        W86811  29.468  31.944   2.370
14497W        W86812  19.256  11.345  12.944
14498W        W86813   4.235  33.903   4.794
14499W        W86814  37.945  43.767   0.307
14500W        W86815  10.194  10.239  14.026
14501W        W86816  19.637  12.276   4.122
14502W        W86817  29.588   8.369  14.846
14503W        W86818  11.230  28.603  12.493
14504W        W86819  12.775  34.036  14.498
14505W        W86820  41.796  20.539  11.530
14506W        W86821  34.919  34.439   4.163
14507W        W86822   0.307  27.993   3.677
14508W        W86823  22.044  37.045  10.899
14509W        W86824   9.791   5.708   0.283
14510W        W86825   9.831  31.534   2.894
14511W        W86826  24.066   3.397  14.480
14512W        W86827  43.426  32.591  14.891
14513W        W86828  32.067  40.457  10.608
14514W        W86829  11.769  29.031  10.080
14515W        W86830  16.126  34.413   4.814
14516W        W86831  28.075   3.760   4.818
14517W        W86832  17.101  12.131   3.762
14518W        W86833  23.602  21.687  13.324
14519W        W86834  20.272  21.709  11.470
14520W        W86835  37.026  42.813   5.210
14521W        W86836  12.690  35.470  14.013
14522W        W86837  21.749  17.561  13.463
14523W        W86838  36.377  13.737  14.797
14524W        W86839  10.170  18.184  13.940
14525W        W86840  22.522  15.314  13.854
14526W        W86841  37.442  12.213   3.640
14527W        W86842   7.335  14.232   2.797
14528W        W86843  16.236  35.023   3.277
14529W        W86844  34.929  30.095   1.839
14530W        W86845   0.971   3.880   2.398
14531W        W86846  22.651  37.950  12.471
14532W        W86847  23.597  14.733  10.439
14533W        W86848   0.782  19.603  12.467
14534W        W86849  43.852  33.904   0.410
14535W        W86850   0.393  35.995   2.376
14536W        W86851  37.830   8.179   4.728
14537W        W86852  39.338  32.113  13.366
14538W        W86853  13.189  37.065  14.353
14539W        W86854  23.013  23.722  12.545
14540W        W86855  10.343  25.701   0.935
14541W        W86856  40.806  42.981  10.947
14542W        W86857  21.117  31.489   2.183
14543W        W86858  13.164  14.666   4.639
14544W        W86859  32.611  14.221  12.349
14545W        W86860  26.019  31.541  12.561
14546W        W86861  36.870  23.022  13.527
14547W        W86862  31.957   3.850   0.295
14548W        W86863  17.210  19.129   0.446
14549W        W86864  22.044  43.809  13.998
14550W        W86865   3.281  28.181  12.854
14551W        W86866  11.358  42.281  14.924
14552W        W86867   0.903  42.926   3.334
14553W        W86868  15.636   4.392   1.300
14554W        W86869  29.053  13.155  10.457
14555W        W86870  40.048   7.877  12.005
14556W        W86871  29.556  12.639   1.804
14557W        W86872  30.415  41.338  13.311
14558W        W86873  28.129   5.757  13.467
14559W        W86874  29.570  18.689   3.192
14560W        W86875  28.661  21.257  10.159
14561W        W86876  14.127  41.330  11.126
14562W        W86877  20.631  40.812   0.341
14563W        W86878  15.186   9.240  14.982
14564W        W86879  42.813  30.596  11.882
14565W        W86880   0.457   5.413   3.780
14566W        W86881   5.207  20.145  11.942
14567W        W86882  27.503  35.969   0.338
14568W        W86883  10.357  30.133  10.413
14569W        W86884  27.587  13.269  15.000
14570W        W86885  44.500   7.332  13.363
14571W        W86886   4.217  42.512  14.992
14572W        W86887  16.147  35.103  13.461
14573W        W86888   4.304  21.047   0.787
14574W        W86889  10.202   7.801   4.169
14575W        W86890  18.754   5.227   3.791
14576W        W86891  16.655   2.756  12.945
14577W        W86892  42.306  32.127   2.329
14578W        W86893  23.648  14.749   0.957
14579W        W86894  16.176  26.643   4.133
14580W        W86895  28.164  20.223  11.935
14581W        W86896  27.949  36.367  12.466
14582W        W86897  20.533  21.185  13.477
14583W        W86898  16.107  18.595   4.728
14584W        W86899  10.256  27.522   1.918
14585W        W86900  12.705  37.836  11.549
14586W        W86901   4.414  25.095   3.679
14587W        W86902  18.082  21.210   3.774
14588W        W86903   4.705   0.811   1.345
14589W        W86904  11.130  34.555  14.499
14590W        W86905  13.682  13.656  12.439
14591W        W86906  38.068  22.645  12.564
14592W        W86907  34.591  24.048   1.327
14593W        W86908   5.250   8.835   5.184
14594W        W86909   7.311  12.624   4.742
14595W        W86910  40.032  28.102  11.480
14596W        W86911  42.842  34.918   2.779
14597W        W86912   7.238  32.081   0.879
14598W        W86913  23.993  42.901   1.241
14599W        W86914   2.720  19.670  14.805
14600W        W86915  21.214  43.857   4.151
14601W        W86916  10.761  32.563   1.428
14602W        W86917   7.304   7.857  14.444
14603W        W86918  16.283   7.172  14.449
14604W        W86919  40.459   8.808  12.905
14605W        W86920  31.616   0.849   0.823
14606W        W86921  27.114  19.140  12.943
14607W        W86922   6.815  28.097  13.928
14608W        W86923  39.425  17.268   1.315
14609W        W86924  30.583  10.268  14.485
14610W        W86925  18.281  33.473  11.529
14611W        W86926  11.241   5.363  11.005
14612W        W86927  34.115   4.292   4.819
14613W        W86928  10.740  32.104   3.685
14614W        W86929  17.217   5.197   4.129
14615W        W86930  32.977  32.573   2.815
14616W        W86931  15.328  11.719   3.203
14617W        W86932  13.609  32.631   0.933
14618W        W86933  16.253   6.679   1.310
14619W        W86934   0.450  41.502   3.761
14620W        W86935  34.978  11.854  12.370
14621W        W86936  43.411   2.428  14.406
14622W        W86937   3.813   9.364  11.036
14623W        W86938  25.200  32.023  11.896
14624W        W86939   1.293  39.382   3.282
14625W        W86940  41.486  29.664  14.292
14626W        W86941  39.415  14.707  10.895
14627W        W86942  44.477   7.747   1.274
14628W        W86943   9.350  34.460   1.794
14629W        W86944  37.365  13.680  10.418
14630W        W86945  21.201   8.863  13.822
14631W        W86946  10.196  27.168  14.029
14632W        W86947  36.379   7.344   1.223
14633W        W86948   1.772   0.788   4.115
14634W        W86949  12.631  18.742  10.410
14635W        W86950  40.850  41.043  14.470
14636W        W86951  14.817  17.716   1.885
14637W        W86952  21.077  31.639  14.843
14638W        W86953   5.356  28.589   3.706
14639W        W86954  22.632  35.463   4.602
14640W        W86955  17.300   8.817   3.156
14641W        W86956  36.895  13.249   0.803
14642W        W86957  39.995   4.838  14.999
14643W        W86958   6.187  43.489   2.215
14644W        W86959  19.605  29.978   3.740
14645W        W86960  30.625   0.437   2.697
14646W        W86961   5.785  39.362  12.832
14647W        W86962  39.487  29.484  12.973
14648W        W86963   0.853  23.696  14.511
14649W        W86964  10.685  30.023   0.346
14650W        W86965  30.480   5.872  12.367
14651W        W86966  16.253  29.508   5.291
14652W        W86967   2.901   7.771  14.961
14653W        W86968  39.527  32.967  11.884
14654W        W86969  23.104  13.741  14.886
14655W        W86970  13.273  21.109  13.964
14656W        W86971  41.473  43.414  10.925
14657W        W86972   7.843   3.802   3.791
14658W        W86973   1.248  26.100   3.797
14659W        W86974  40.332  17.769   2.354
14660W        W86975  20.063  35.950  13.938
14661W        W86976  40.457  26.653  12.924
14662W        W86977  12.801  14.135  14.969
14663W        W86978  21.623   4.316  11.956
14664W        W86979  37.848  10.189  14.346
14665W        W86980   2.957  10.348  12.828
14666W        W86981   5.760  36.964  10.608
14667W        W86982   7.360  26.524  11.486
14668W        W86983  24.124  14.257  12.039
14669W        W86984   0.355  39.543  10.910
14670W        W86985  24.056  20.032  12.414
14671W        W86986  13.649   7.411  11.012
14672W        W86987  28.487  27.158  13.333
14673W        W86988  27.634  24.221  11.104
14674W        W86989  33.481  27.506   2.837
14675W        W86990  13.255  32.046   4.146
14676W        W86991  17.297  36.047   9.924
14677W        W86992   0.382  15.705  11.875
14678W        W86993  15.794  33.999   4.779
14679W        W86994   2.953   4.879  10.110
14680W        W86995  14.748  20.664  12.918
14681W        W86996   2.924  26.957  14.382
14682W        W86997  41.788  13.663   0.886
14683W        W86998   6.290  32.975   2.269
14684W        W86999  11.150  22.251   1.835
14685W        W87000  26.015   6.727  12.911
14686W        W87001   5.912  27.055   0.420
14687W        W87002  41.328   9.350   1.223
14688W        W87003  25.543  22.529  12.383
14689W        W87004  33.577  12.772  10.043
14690W        W87005   3.781  42.300   0.422
14691W        W87006  36.532   7.312   2.320
14692W        W87007  33.938   3.325  11.414
14693W        W87008   4.849  33.599   4.287
14694W        W87009  19.597  18.264  13.834
14695W        W87010  33.469  43.442  13.388
14696W        W87011  37.461  17.207   3.848
14697W        W87012   0.463  19.208   3.176
14698W        W87013  15.586  35.561  14.283
14699W        W87014  35.358  21.264  11.402
14700W        W87015   3.733  29.475  11.904
14701W        W87016  25.646  25.471   2.275
14702W        W87017  34.498   2.872   1.753
14703W        W87018  34.016   4.717  10.575
14704W        W87019  36.979  27.020   4.610
14705W        W87020  24.085  44.918  13.832
14706W        W87021  25.989  14.709   3.300
14707W        W87022  26.476  19.622   2.811
14708W        W87023  35.548   0.905   2.362
14709W        W87024  25.492  42.355   0.800
14710W        W87025  43.471   3.444  14.967
14711W        W87026  18.615  14.230  14.319
14712W        W87027  19.699  16.729   4.607
14713W        W87028  21.249  36.476   4.658
14714W        W87029  33.466   2.874   4.801
14715W        W87030   3.378  15.114   3.241
14716W        W87031  20.544  38.821  10.510
14717W        W87032   9.667  24.657   0.305
14718W        W87033  16.685   6.714   4.602
14719W        W87034  27.497  27.512  14.993
14720W        W87035  13.221  29.438   4.747
14721W        W87036  40.347  18.258   1.317
14722W        W87037  33.505   4.789   2.710
14723W        W87038  12.123  40.542   2.288
14724W        W87039  36.462  30.614  11.430
14725W        W87040   2.359  13.797  10.969
14726W        W87041  38.917  23.005   0.244
14727W        W87042  42.816  40.456   5.159
14728W        W87043  44.866  33.502   0.871
14729W        W87044   9.270  33.057  10.909
14730W        W87045  31.596  38.826   2.714
14731W        W87046  44.965  19.100   1.713
14732W        W87047  33.390  24.715  12.516
14733W        W87048  14.213  34.031   3.180
14734W        W87049  36.546  11.357   1.288
14735W        W87050  10.669  41.364   5.113
14736W        W87051  11.362   9.838   1.250
14737W        W87052   6.262  30.133  11.035
14738W        W87053  40.328  38.965   2.779
14739W        W87054  29.563   0.781  14.461
14740W        W87055  35.909  36.939   3.151
14741W        W87056   8.687  31.566  14.010
14742W        W87057  30.601  29.449   1.359
14743W        W87058  41.896   5.315  13.915
14744W        W87059  29.510  42.431   4.324
14745W        W87060  12.768  38.474   2.847
14746W        W87061   0.290  39.535  10.628
14747W        W87062   1.956  29.150  12.370
14748W        W87063  30.413  34.083  12.059
14749W        W87064  39.346  36.366   1.706
14750W        W87065  40.478  16.610   1.923
14751W        W87066  30.541  14.212   2.883
14752W        W87067  13.194   2.762  10.895
14753W        W87068  16.769  25.595  11.937
14754W        W87069  44.344  10.810  13.955
14755W        W87070   3.855  12.148  14.889
14756W        W87071  31.966   4.339   2.361
14757W        W87072  21.083  21.748   4.212
14758W        W87073  23.055  35.485  13.529
14759W        W87074  40.989  43.478   0.280
14760W        W87075  28.140   1.332  13.852
14761W        W87076   4.806  23.605  10.635
14762W        W87077  29.554   0.989   1.771
14763W        W87078  38.870  39.415  10.909
14764W        W87079   6.239  31.611   4.252
14765W        W87080  22.052   4.849   2.405
14766W        W87081  20.614  37.020  10.910
14767W        W87082  14.105  32.491  10.593
14768W        W87083   3.372  35.453   2.319
14769W        W87084   6.732  30.955   1.784
14770W        W87085  32.520  25.064  10.458
14771W        W87086  26.620  19.220   4.218
14772W        W87087  44.891  37.555  14.855
14773W        W87088   7.734   3.258   4.114
14774W        W87089  30.060  34.477   3.155
14775W        W87090  18.759  41.865   1.740
14776W        W87091  30.624  18.260   4.315
14777W        W87092  39.392  39.369  11.601
14778W        W87093  26.588   0.388  13.860
14779W        W87094  23.546  39.444  11.065
14780W        W87095   5.870  35.988  11.478
14781W        W87096  18.057   4.877   1.231
14782W        W87097  15.114  20.164   3.862
14783W        W87098   1.480  35.388  14.878
14784W        W87099  33.505  27.059   2.681
14785W        W87100   3.916  23.701  10.947
14786W        W87101  39.479  37.885  13.860
14787W        W87102  32.048   0.302   1.756
14788W        W87103  10.852  32.630  13.472
14789W        W87104  32.072  25.089  10.042
14790W        W87105   9.223  39.834  12.443
14791W        W87106  18.675  32.568   4.152
14792W        W87107  41.338  43.376  10.432
14793W        W87108  41.492  39.321   2.222
14794W        W87109  44.308  11.822  10.520
14795W        W87110   0.894   2.871   3.248
14796W        W87111  25.625  16.299  11.910
14797W        W87112  10.777   1.308  11.453
14798W        W87113  25.979  26.607   3.236
14799W        W87114  10.209  12.697  11.499
14800W        W87115  24.552  17.202  11.938
14801W        W87116  24.592  18.121   3.676
14802W        W87117   3.786  44.338  11.377
14803W        W87118  37.518  19.169   3.632
14804W        W87119  22.693  31.906   0.403
14805W        W87120  38.533  24.142  10.944
14806W        W87121  37.341  27.582   4.254
14807W        W87122  39.375  40.954   2.869
14808W        W87123  41.903   9.665  11.035
14809W        W87124  22.500  24.503  10.594
14810W        W87125  35.880  33.999   1.243
14811W        W87126   7.689  27.169  14.832
14812W        W87127  13.266   4.237   1.368
14813W        W87128  18.120  34.425   3.859
14814W        W87129  33.942  14.833  12.553
14815W        W87130  44.776  12.281   2.187
14816W        W87131   5.313  12.324   2.413
14817W        W87132   8.337  35.038   0.428
14818W        W87133  44.784  38.823  11.537
14819W        W87134   2.255  23.207   2.699
14820W        W87135   1.434  43.992  13.862
14821W        W87136  10.183   1.881  11.542
14822W        W87137  42.874  32.608   3.858
14823W        W87138  29.040  12.768  13.310
14824W        W87139   3.902  36.509   0.860
14825W        W87140  17.563  19.776  12.540
14826W        W87141   8.272   6.687  14.428
14827W        W87142  38.369  26.637  13.793
14828W        W87143  41.976   8.240  14.408
14829W        W87144  29.098  33.022   0.308
14830W        W87145   6.921   7.734  11.403
14831W        W87146  14.274  31.443   3.670
14832W        W87147  22.518  42.008  13.523
14833W        W87148  42.372   2.906  11.508
14834W        W87149  27.057  23.135   0.318
14835W        W87150  34.018   0.332  11.568
14836W        W87151  14.194  13.305   2.275
14837W        W87152   7.297  25.993   3.824
14838W        W87153  20.196  26.473   3.315
14839W        W87154   2.919  31.964   4.791
14840W        W87155  32.076   1.743  14.487
14841W        W87156   6.404  16.305  13.806
14842W        W87157   5.836  15.311  10.450
14843W        W87158  33.914  32.452   3.776
14844W        W87159  30.419  11.195  13.394
14845W        W87160  16.126   4.382   1.769
14846W        W87161  43.382  18.684  14.759
14847W        W87162  37.854  31.499   2.299
14848W        W87163  15.254  23.036   1.363
14849W        W87164  37.009  22.222  12.013
14850W        W87165  31.905  43.333   4.782
14851W        W87166   5.342  32.979   1.328
14852W        W87167  33.926   0.454  12.914
14853W        W87168  11.268  44.856   1.898
14854W        W87169  11.149  36.083   3.348
14855W        W87170   8.696  42.883   4.641
14856W        W87171  42.889  38.076   0.801
14857W        W87172  41.409  30.487   1.270
14858W        W87173  24.047   3.358   4.645
14859W        W87174   9.160  44.001   3.701
14860W        W87175  36.917  10.800   3.697
14861W        W87176  37.563  29.512  10.550
14862W        W87177  38.942  16.282   4.813
14863W        W87178  17.257  25.502   3.810
14864W        W87179  15.794  33.527  10.963
14865W        W87180  27.611  23.608  12.381
14866W        W87181  37.866  17.132   3.830
14867W        W87182  31.514  18.709   1.275
14868W        W87183   6.889  26.516  13.337
14869W        W87184  43.854  34.512   4.834
14870W        W87185  19.079  36.495   2.196
14871W        W87186  31.913  11.750   0.413
14872W        W87187  44.415  13.180   1.302
14873W        W87188   0.809  16.765   1.410
14874W        W87189  39.469   9.223   2.240
14875W        W87190   9.158   5.336   0.747
14876W        W87191  26.632   6.366  14.323
14877W        W87192  29.535  17.218   3.789
14878W        W87193   7.361  28.621   3.369
14879W        W87194   6.891  21.160   1.921
14880W        W87195   4.314  16.218  13.865
14881W        W87196  16.304  43.993   2.753
14882W        W87197  32.495  15.187   2.220
14883W        W87198  29.959   1.440   0.440
14884W        W87199  41.881  30.918  10.628
14885W        W87200   6.296  20.210  10.572
14886W        W87201  27.549   6.217   5.128
14887W        W87202  34.417  31.127  14.411
14888W        W87203  29.655  13.177   3.850
14889W        W87204   3.754   1.894   4.233
14890W        W87205  26.651   8.779   1.398
14891W        W87206  13.249  33.992   0.323
14892W        W87207  33.439  28.078   1.925
14893W        W87208  33.598  28.653   3.291
14894W        W87209  21.127   5.436   1.270
14895W        W87210  13.232  35.025  12.448
14896W        W87211  43.453  20.085  14.838
14897W        W87212  42.955  42.520   3.636
14898W        W87213  26.174  12.238  13.510
14899W        W87214  25.713  12.210   0.770
14900W        W87215  17.097  42.370  10.551
14901W        W87216  28.018  11.750  13.941
14902W        W87217  12.706   8.804   3.750
14903W        W87218   5.392  30.926  14.914
14904W        W87219  22.511  33.521  14.502
14905W        W87220  23.114  34.118  12.353
14906W        W87221  18.610  32.631   0.472
14907W        W87222  30.060   2.936  12.050
14908W        W87223  41.954  18.085  13.324
14909W        W87224  21.230  35.549  11.580
14910W        W87225  19.254  33.058   0.835
14911W        W87226  29.649  18.591   0.866
14912W        W87227   5.758  13.746  12.484
14913W        W87228  21.717  36.418  12.896
14914W        W87229  36.515  42.924  10.616
14915W        W87230  31.581  35.093   3.257
14916W        W87231   7.711  22.064  13.975
14917W        W87232  21.536  22.596   4.825
14918W        W87233  17.280  32.476   2.869
14919W        W87234  16.741  30.163   3.847
14920W        W87235   8.730  26.145  12.518
14921W        W87236  19.222  41.525   4.735
14922W        W87237  17.721  13.336   1.855
14923W        W87238   4.313   2.745  14.968
14924W        W87239  37.500  37.914  12.982
14925W        W87240   3.396  38.439   4.679
14926W        W87241  30.519  17.138  12.985
14927W        W87242  16.680   1.414   2.413
14928W        W87243   8.789  13.737   3.744
14929W        W87244   7.409  28.518  12.852
14930W        W87245   2.817  36.848   0.420
14931W        W87246  19.656  15.699  14.488
14932W        W87247  30.995  27.453  10.947
14933W        W87248   5.381   0.360   0.287
14934W        W87249  33.888  38.933   2.230
14935W        W87250   8.192  10.267   0.822
14936W        W87251   1.892  44.846  13.890
14937W        W87252   8.180   2.321   1.909
14938W        W87253  19.642  15.780  11.444
14939W        W87254  31.053  20.663  12.509
14940W        W87255  33.400  30.150  12.503
14941W        W87256  38.062  20.248   0.960
14942W        W87257  15.590  42.010  10.426
14943W        W87258  13.769  22.539   3.649
14944W        W87259   2.387  30.960   0.805
14945W        W87260  23.570  44.809   0.808
14946W        W87261   7.890   6.702   4.204
14947W        W87262  22.531   0.387   1.726
14948W        W87263  27.676  44.485  11.521
14949W        W87264  42.808  28.580  12.985
14950W        W87265  15.745  27.446  13.456
14951W        W87266  23.512  31.572  11.592
14952W        W87267   4.907   5.235  11.975
14953W        W87268  41.304  34.000   0.892
14954W        W87269  11.837  16.196  14.897
14955W        W87270  42.920  39.066  10.563
14956W        W87271  13.687  36.359  13.976
14957W        W87272  33.577  26.164   3.726
14958W        W87273  32.571  43.309   1.302
14959W        W87274   7.342  34.496   2.243
14960W        W87275  37.887   4.718  11.571
14961W        W87276  43.946  38.500  11.438
14962W        W87277   5.785  36.891  13.033
14963W        W87278  36.050  30.563  11.086
14964W        W87279  43.412  27.190   4.217
14965W        W87280  13.331   8.358   3.171
14966W        W87281  32.535  15.283  13.983
14967W        W87282  12.198  31.922  12.935
14968W        W87283  12.348   1.773  12.350
14969W        W87284   9.188  32.909   0.471
14970W        W87285  43.864  26.510   2.396
14971W        W87286  22.237  44.457  13.856
14972W        W87287  12.325  42.435  13.882
14973W        W87288  41.825  27.476   4.295
14974W        W87289  30.559  15.703  11.454
14975W        W87290  11.791  20.576  10.117
14976W        W87291  26.148   8.162   2.356
14977W        W87292  14.202   7.333  14.493
14978W        W87293  22.717  32.141  11.483
14979W        W87294  18.281  31.052  11.948
14980W        W87295  24.098  18.059   9.930
14981W        W87296  19.081   8.315  13.384
14982W        W87297  39.813  10.333   3.710
14983W        W87298   2.860   7.252  14.873
14984W        W87299  27.178   0.312  14.904
14985W        W87300  30.506  10.378  13.993
14986W        W87301  30.977  37.456   1.212
14987W        W87302  39.321  24.043   2.187
14988W        W87303  17.596  24.070   4.818
14989W        W87304   9.203  26.576   1.211
14990W        W87305  16.296   9.860   0.255
14991W        W87306  17.170  25.058  14.509
14992W        W87307  39.835   8.230  14.469
14993W        W87308   5.762   7.789  12.359
14994W        W87309  25.998  14.668   2.721
14995W        W87310  27.542   9.678  14.866
14996W        W87311  42.392  36.581  13.438
14997W        W87312  16.229  13.738   1.321
14998W        W87313  32.937  19.236  14.805
14999W        W87314   3.746  15.137   2.679
15000W        W87315   2.412   8.774   3.772
15001W        W87316   2.226   1.473  11.385
15002W        W87317  32.443  34.017   0.751
15003W        W87318  34.056   1.439   3.632
15004W        W87319  13.205  37.535  11.059
15005W        W87320  39.360  36.866  13.401
15006W        W87321  31.085   6.317   2.283
15007W        W87322  44.915  28.152  13.539
15008W        W87323  16.714  22.011   4.200
15009W        W87324  27.043  36.388  10.900
15010W        W87325  18.213  40.464   2.784
15011W        W87326  17.264  30.040   1.901
15012W        W87327  41.969  21.075   1.299
15013W        W87328   5.221  35.394   4.211
15014W        W87329   0.976  24.495   0.749
15015W        W87330  40.468  11.320   1.866
15016W        W87331  24.091  37.505   3.689
15017W        W87332  11.214   1.879  14.906
15018W        W87333  16.625  26.559  10.003
15019W        W87334   1.300  38.369   3.298
15020W        W87335  23.230  12.816  11.593
15021W        W87336  19.628  14.183   5.261
15022W        W87337  14.605  22.228   0.735
15023W        W87338   8.762  28.629  12.908
15024W        W87339  39.443  26.592   3.703
15025W        W87340  14.663  16.582   2.742
15026W        W87341  12.275  41.516   3.800
15027W        W87342  32.128  38.834  13.973
15028W        W87343   7.748  38.940  12.966
15029W        W87344  33.489  41.823   0.858
15030W        W87345  17.629   8.876   5.685
15031W        W87346  31.984  21.639   0.856
15032W        W87347  30.592  38.415   4.827
15033W        W87348  15.824  13.320  10.909
15034W        W87349   4.322   0.777  10.896
15035W        W87350  40.822  28.111   0.876
15036W        W87351  31.525  14.261  12.885
15037W        W87352  42.809  40.961   3.230
15038W        W87353   3.834  42.835   3.332
15039W        W87354  29.003  20.040   2.212
15040W        W87355  18.755  44.984  10.618
15041W        W87356  27.149  24.091  13.978
15042W        W87357  20.229  15.109   1.712
15043W        W87358   9.376  39.057  10.063
15044W        W87359   4.405  41.828   2.220
15045W        W87360  41.400  23.101  10.504
15046W        W87361  43.405  18.715  13.017
15047W        W87362   9.259  18.558  11.031
15048W        W87363   1.356   4.800  10.099
15049W        W87364   0.333  11.756  12.565
15050W        W87365  42.887   6.898   1.407
15051W        W87366  29.936  37.511   1.725
15052W        W87367  25.606  26.556  13.425
15053W        W87368  22.211  27.602  13.884
15054W        W87369  13.230  43.485   1.912
15055W        W87370  36.996  38.074  11.901
15056W        W87371   8.818  42.928  12.974
15057W        W87372  38.565  42.873   3.643
15058W        W87373  10.654   9.845  10.976
15059W        W87374  12.781  33.435   1.821
15060W        W87375  35.940  33.576  12.087
15061W        W87376  26.189   0.952  14.399
15062W        W87377  17.123  38.891   3.857
15063W        W87378  32.634   8.820  10.118
15064W        W87379  23.497  18.236   1.708
15065W        W87380  18.097  10.324   0.873
15066W        W87381   9.674  15.663   2.387
15067W        W87382  29.499  15.153   1.775
15068W        W87383  27.547  24.534  14.016
15069W        W87384  40.992  14.298   3.669
15070W        W87385  44.448  34.041   2.841
15071W        W87386  13.754  40.308  10.932
15072W        W87387   8.270  12.798  11.592
15073W        W87388  31.404  11.623  12.040
15074W        W87389  42.028  44.419   3.676
15075W        W87390  26.560  44.308  10.016
15076W        W87391  43.335   4.740  10.556
15077W        W87392  24.073  29.932  14.436
15078W        W87393  15.710  44.933  13.916
15079W        W87394  34.970  37.891  10.532
15080W        W87395  18.679  24.598  14.321
15081W        W87396  43.836  38.017  12.951
15082W        W87397  31.553  12.704   4.316
15083W        W87398  20.239  15.757  11.010
15084W        W87399   0.824  18.279  12.050
15085W        W87400  37.923  30.971   2.769
15086W        W87401  22.036  29.579  14.408
15087W        W87402  30.513  11.668   1.370
15088W        W87403   9.306   2.467   1.260
15089W        W87404  27.620  44.309  14.986
15090W        W87405  12.245   7.297   1.869
15091W        W87406  33.954  30.626  13.314
15092W        W87407  31.537  41.980  13.806
15093W        W87408  16.095   0.888   4.239
15094W        W87409  35.499   5.341   1.776
15095W        W87410  31.933  15.100  12.389
15096W        W87411  31.024  31.026   3.326
15097W        W87412  42.933  14.615  14.288
15098W        W87413   6.864  16.202  13.536
15099W        W87414   4.708  18.067   3.806
15100W        W87415   0.296  36.037  11.945
15101W        W87416  19.115   4.391  14.934
15102W        W87417  24.138  12.351   1.713
15103W        W87418  29.504  28.608  11.555
15104W        W87419  19.212  41.996   2.304
15105W        W87420  34.502  10.821  12.899
15106W        W87421  41.532   9.805   1.409
15107W        W87422  10.246  25.628  13.799
15108W        W87423  11.727  38.003  14.957
15109W        W87424  32.436  23.499  11.890
15110W        W87425  18.225  21.111   1.266
15111W        W87426  39.982  11.811   0.806
15112W        W87427  15.746  20.251  13.949
15113W        W87428  35.952  42.450  13.874
15114W        W87429  14.598  42.982   3.230
15115W        W87430  15.305  32.035  12.536
15116W        W87431  43.304   4.378  12.481
15117W        W87432  14.247  17.176   0.726
15118W        W87433  16.310   9.172  11.908
15119W        W87434  41.933  44.811   2.803
15120W        W87435  37.001  24.588  14.852
15121W        W87436  42.402  32.924  13.911
15122W        W87437  16.791  11.650  12.389
15123W        W87438  40.440  43.503  11.068
15124W        W87439   6.810  10.186   4.804
15125W        W87440  32.914  28.669   4.230
15126W        W87441   3.815  39.451   3.162
15127W        W87442  23.202  13.231  10.506
15128W        W87443  36.585  29.442   2.342
15129W        W87444  20.152  24.605   0.369
15130W        W87445  44.990  10.860  11.539
15131W        W87446  12.145  29.516   4.264
15132W        W87447  44.753   0.903   3.858
15133W        W87448   6.814  36.941  12.525
15134W        W87449  30.027   6.793   0.302
15135W        W87450  14.216  41.537   3.308
15136W        W87451  25.013  42.309  13.892
15137W        W87452  37.027  23.609   5.802
15138W        W87453  23.552  18.240   2.386
15139W        W87454   1.967  39.499   4.617
15140W        W87455  34.452  31.606   2.875
15141W        W87456  44.850  42.007   2.372
15142W        W87457  18.189   9.287   2.370
15143W        W87458  37.526  10.255   2.794
15144W        W87459  21.726  26.175   2.724
15145W        W87460   3.339  42.430   3.174
15146W        W87461  39.814  21.621   2.220
15147W        W87462  21.226  16.585   4.322
15148W        W87463  15.215  12.821  10.916
15149W        W87464   9.338  36.496  11.559
15150W        W87465   2.741  40.479  13.478
15151W        W87466  41.799  41.416   0.766
15152W        W87467  38.975  30.161  11.470
15153W        W87468   3.428  10.334  14.318
15154W        W87469  22.606  25.079   0.364
15155W        W87470  10.297  10.718  14.911
15156W        W87471   4.841  25.523  11.880
15157W        W87472   5.249  17.703   3.843
15158W        W87473  39.924  32.524  11.498
15159W        W87474  28.453  42.306   1.776
15160W        W87475  21.613  14.110  14.388
15161W        W87476   6.799   3.274  11.093
15162W        W87477  40.318  39.000  11.103
15163W        W87478  30.552  34.119   2.860
15164W        W87479  19.679   9.333  13.434
15165W        W87480   9.696  25.002  14.024
15166W        W87481  38.433  44.435  13.987
15167W        W87482  40.409   5.793   0.390
15168W        W87483  36.034  19.589  10.423
15169W        W87484  15.600  28.163   3.827
15170W        W87485  15.699   2.941  11.871
15171W        W87486  10.641  32.528   1.869
15172W        W87487  31.629  31.513  14.764
15173W        W87488  14.810   2.335  11.919
15174W        W87489  41.828  41.034  14.879
15175W        W87490  30.090  22.710   0.364
15176W        W87491   3.875  29.037  11.032
15177W        W87492  16.168   6.856   3.849
15178W        W87493   5.812  20.567   1.728
15179W        W87494  43.442   8.273   4.283
15180W        W87495  19.270  12.803   0.812
15181W        W87496  21.579   3.310   5.107
15182W        W87497  34.531   9.853  14.343
15183W        W87498  12.272  10.787  14.790
15184W        W87499  21.186   3.744  12.340
15185W        W87500  41.446  43.447   4.723
15186W        W87501  32.564  16.685   3.357
15187W        W87502   4.818  38.483  14.378
15188W        W87503  44.495  13.282   3.692
15189W        W87504   8.728   6.755  14.405
15190W        W87505  43.978  12.765  14.884
15191W        W87506  21.173  43.330  11.434
15192W        W87507  23.026  24.533   2.287
15193W        W87508  18.055   3.713  11.918
15194W        W87509  36.018  33.389  13.408
15195W        W87510  26.604  36.407  10.947
15196W        W87511   1.806   4.746  10.911
15197W        W87512  38.347  27.955   4.326
15198W        W87513  11.654  27.515  14.956
15199W        W87514   6.762  42.002  14.884
15200W        W87515  29.945  23.195  14.032
15201W        W87516  14.829  31.526  11.856
15202W        W87517  20.695  41.787  14.417
15203W        W87518  20.175   8.239   3.834
15204W        W87519   5.261  34.455   1.416
15205W        W87520   0.343  32.511   1.871
15206W        W87521   0.744  25.197  11.517
15207W        W87522  42.024  23.559   0.479
15208W        W87523  42.004  25.180  11.887
15209W        W87524   1.973  32.004   0.381
15210W        W87525   2.423  41.513   4.683
15211W        W87526  25.996   4.389   0.794
15212W        W87527  28.490  36.510  10.628
15213W        W87528  26.543  33.938   3.686
15214W        W87529  38.501  24.105  11.930
15215W        W87530  29.523  19.727   1.238
15216W        W87531  26.502  44.821  10.923
15217W        W87532  38.835  37.415  12.835
15218W        W87533  14.112  38.541  12.874
15219W        W87534   8.884  19.171   3.344
15220W        W87535  14.339  35.936  13.938
15221W        W87536  25.616  22.131  13.411
15222W        W87537  37.915  21.746  13.468
15223W        W87538  19.241  21.530   4.158
15224W        W87539  35.035  33.515  13.817
15225W        W87540  35.073   5.760   0.397
15226W        W87541  21.537  21.531   2.303
15227W        W87542  10.835  16.591   0.835
15228W        W87543  22.694  26.068   3.721
15229W        W87544   2.964  13.318  10.563
15230W        W87545   7.889  13.233   0.773
15231W        W87546  16.130  22.072  12.473
15232W        W87547   0.286  26.492  10.532
15233W        W87548   9.889  43.494  14.789
15234W        W87549  43.342  19.677  11.547
15235W        W87550   4.355  24.069  10.949
15236W        W87551  27.051   1.885   2.335
15237W        W87552  13.290  10.696  13.867
15238W        W87553  42.786   9.148  13.820
15239W        W87554  16.132  33.021  14.009
15240W        W87555  18.643  29.069   4.641
15241W        W87556  37.877   0.843   0.336
15242W        W87557  13.281  13.610  11.014
15243W        W87558   8.666  37.408  11.861
15244W        W87559  27.662  35.422   0.776
15245W        W87560  34.077  10.739   2.893
15246W        W87561   3.241  40.440   1.898
15247W        W87562  12.851  24.608   4.696
15248W        W87563  10.814  21.614   1.914
15249W        W87564  28.601  12.257   4.136
15250W        W87565  41.460  15.133   2.828
15251W        W87566  38.384  19.234   1.835
15252W        W87567  15.723  36.991   3.364
15253W        W87568   1.335  36.406   3.740
15254W        W87569  27.664  29.463   4.208
15255W        W87570  40.522  37.954  14.430
15256W        W87571   5.845  44.400   4.200
15257W        W87572  11.786   7.683   1.384
15258W        W87573  18.770  27.999  13.421
15259W        W87574  20.752  38.365  12.418
15260W        W87575  35.494  35.532   2.255
15261W        W87576  13.159  22.177   2.343
15262W        W87577  19.585  30.658  12.444
15263W        W87578  14.247   5.240   0.750
15264W        W87579  28.475  44.972  13.026
15265W        W87580  25.044  26.620  11.950
15266W        W87581  10.745  17.306   0.734
15267W        W87582   2.810  10.684  13.359
15268W        W87583  35.482  23.523  10.480
15269W        W87584  18.274  41.840  14.365
15270W        W87585  34.111  36.422   3.711
15271W        W87586  25.057  34.044   0.844
15272W        W87587  16.798  27.181  13.947
15273W        W87588  14.669  31.529   3.243
15274W        W87589  38.351  34.590  11.428
15275W        W87590  29.978   1.248   1.373
15276W        W87591  31.618  23.162  12.383
15277W        W87592  27.484   3.758   2.366
15278W        W87593   9.174   5.228   1.735
15279W        W87594  17.206  18.627   1.299
15280W        W87595  24.600  11.745   0.830
15281W        W87596   9.835   8.170  12.843
15282W        W87597   7.196  27.567   2.295
15283W        W87598  10.149  36.843   1.909
15284W        W87599  11.275   3.768   2.266
15285W        W87600  30.139  40.013  10.922
15286W        W87601   0.335   3.217   3.333
15287W        W87602  26.982  33.876  10.419
15288W        W87603  41.350   4.860  13.316
15289W        W87604  44.845  33.484   2.872
15290W        W87605  15.695   9.660  10.634
15291W        W87606  18.688  19.656  13.318
15292W        W87607  30.632  43.008   3.183
15293W        W87608  31.062  18.762   2.743
15294W        W87609  17.262  11.645   9.926
15295W        W87610   7.200  15.258   0.453
15296W        W87611  23.221   2.319   2.234
15297W        W87612   5.338  30.128  13.486
15298W        W87613  44.424  10.179  10.608
15299W        W87614  29.593  43.276  14.446
15300W        W87615   2.913  32.618  14.764
15301W        W87616  13.188   4.211   0.948
15302W        W87617  16.096  44.294   1.720
15303W        W87618  12.115  17.670  13.535
15304W        W87619  29.432   3.273   4.700
15305W        W87620  44.910  23.238  11.480
15306W        W87621  42.434  38.918   1.731
15307W        W87622  20.677   8.328   2.236
15308W        W87623   6.741  25.168  12.849
15309W        W87624   1.341  20.720  11.880
15310W        W87625  42.464  18.081   0.789
15311W        W87626  35.917  40.818   4.727
15312W        W87627  42.010  27.494   2.207
15313W        W87628  15.662  37.050   4.203
15314W        W87629  40.990  22.527   3.151
15315W        W87630   2.784  36.958  10.571
15316W        W87631  23.191  30.427  12.831
15317W        W87632   5.762  30.436   2.739
15318W        W87633  20.757  24.525  11.522
15319W        W87634   3.744  34.908  11.924
15320W        W87635  21.563  37.037  12.508
15321W        W87636  27.032   0.929  14.990
15322W        W87637   6.263  29.491  12.833
15323W        W87638  26.473   7.264  11.064
15324W        W87639  31.150  22.726  13.892
15325W        W87640  33.531  37.417   3.799
15326W        W87641   6.904  37.421  10.899
15327W        W87642  30.962  24.667   0.414
15328W        W87643  11.364  32.100  13.530
15329W        W87644  28.676   4.412   3.789
15330W        W87645  12.614   8.225  12.403
15331W        W87646  16.237  31.078   1.348
15332W        W87647  37.370  39.390  13.540
15333W        W87648  37.908   6.839   3.801
15334W        W87649  41.507  31.496  11.036
15335W        W87650  31.043  16.257   2.392
15336W        W87651  38.447  37.832   0.473
15337W        W87652  12.178  24.984   0.291
15338W        W87653  11.296  29.093   1.446
15339W        W87654  40.525  14.711   4.794
15340W        W87655  38.456  28.046   2.892
15341W        W87656  16.747  26.513   1.761
15342W        W87657  21.605   8.289  10.515
15343W        W87658   2.433  31.492  14.466
15344W        W87659  34.904   3.796  14.824
15345W        W87660   7.875  44.279   1.365
15346W        W87661  33.504  37.836  12.354
15347W        W87662  10.290  37.476   1.214
15348W        W87663  16.249  34.415   4.332
15349W        W87664  40.540  44.315   4.623
15350W        W87665  39.552  44.754  14.507
15351W        W87666   6.282  26.155  11.917
15352W        W87667  29.656  21.078   0.462
15353W        W87668  32.061  16.206   4.598
15354W        W87669  34.887  18.097  11.859
15355W        W87670  39.899  33.507   3.271
15356W        W87671  44.803  13.172   5.695
15357W        W87672   5.818   6.288   1.817
15358W        W87673  17.115   9.864   0.770
15359W        W87674  18.125   4.228  12.464
15360W        W87675   8.172  21.228   3.210
15361W        W87676   9.226  38.362  11.093
15362W        W87677   9.673  22.534   3.275
15363W        W87678  12.288  40.458  13.922
15364W        W87679  36.375  16.077  13.379
15365W        W87680  37.347  22.698  13.988
15366W        W87681  44.003  36.483  13.831
15367W        W87682  44.475  28.670  10.405
15368W        W87683   2.406  41.788  10.901
15369W        W87684   7.393  42.497  10.642
15370W        W87685  21.071  26.963   3.638
15371W        W87686  36.427  29.174   3.656
15372W        W87687  11.276  22.584  13.816
15373W        W87688   0.390  41.326   3.244
15374W        W87689  17.230  28.627  14.455
15375W        W87690  16.654  40.349  10.441
15376W        W87691  33.555  42.524   3.720
15377W        W87692  30.156  42.853   2.888
15378W        W87693   1.901  24.643  13.959
15379W        W87694  37.854  34.036  12.526
15380W        W87695   9.813  25.975   1.757
15381W        W87696   6.189  15.725   1.815
15382W        W87697   7.894  42.997  11.866
15383W        W87698  25.582  42.428  12.433
15384W        W87699  31.627   1.415   3.833
15385W        W87700  38.393  34.942  11.379
15386W        W87701   0.975   0.924   2.418
15387W        W87702  38.829  16.124  12.951
15388W        W87703  43.425  31.526   3.669
15389W        W87704  32.591  26.084   2.301
15390W        W87705   4.771  36.077  13.836
15391W        W87706  22.995   1.921  10.607
15392W        W87707   3.827  22.683  11.462
15393W        W87708  32.885  26.584   3.223
15394W        W87709  10.198  35.095  11.473
15395W        W87710  24.613   7.203  12.555
15396W        W87711  12.283  33.584  14.367
15397W        W87712  41.425   8.870   0.847
15398W        W87713  32.004  31.607   2.188
15399W        W87714  39.458  32.117   1.212
15400W        W87715  33.916  36.366   1.786
15401W        W87716  35.393  39.544   3.219
15402W        W87717   1.399  21.247   1.308
15403W        W87718  37.012  32.940   2.235
15404W        W87719  42.887  22.150  13.933
15405W        W87720  25.550  25.165  14.461
15406W        W87721  25.986   0.295   2.315
15407W        W87722  18.597  30.491  12.429
15408W        W87723   0.329   4.423   4.272
15409W        W87724   9.775  13.795   4.183
15410W        W87725  36.988  36.471  14.498
15411W        W87726  40.825  36.051   4.685
15412W        W87727  27.525  35.470   2.770
15413W        W87728  38.886  26.679  11.994
15414W        W87729  24.108  38.531   1.737
15415W        W87730  34.442  24.981   1.724
15416W        W87731   7.215  29.574   4.230
15417W        W87732  43.484  21.034   1.929
15418W        W87733  20.757  31.049   2.881
15419W        W87734   3.890  41.968   1.215
15420W        W87735   5.782   4.439   4.719
15421W        W87736   4.873  29.666   0.322
15422W        W87737  11.705  17.234   4.724
15423W        W87738  20.145  33.419   0.825
15424W        W87739  11.682  31.014  10.569
15425W        W87740  11.260  18.250  12.924
15426W        W87741   5.828   4.902   4.133
15427W        W87742  20.598  40.440  12.551
15428W        W87743  31.039  43.840   2.383
15429W        W87744   2.322  42.356   1.219
15430W        W87745  32.394  33.393   3.719
15431W        W87746  22.034  40.461  12.832
15432W        W87747  11.630   5.769  10.140
15433W        W87748  44.317  15.748   3.259
15434W        W87749  30.466  29.959   1.893
15435W        W87750  34.568  26.700   0.341
15436W        W87751  16.725   0.919   3.209
15437W        W87752  36.020  40.863   1.717
15438W        W87753  15.730  36.373  11.437
15439W        W87754   7.266  19.677   2.259
15440W        W87755  42.304  41.923  10.620
15441W        W87756  22.677   5.745   4.220
15442W        W87757  19.175  22.659   0.892
15443W        W87758   0.316  21.203   0.885
15444W        W87759   7.396   7.772  10.974
15445W        W87760  44.007   0.921  11.947
15446W        W87761  27.039  24.060  13.437
15447W        W87762  32.564  25.172   5.286
15448W        W87763  29.616   4.242   3.237
15449W        W87764   1.365  10.239  11.491
15450W        W87765  36.508  23.533  13.514
15451W        W87766  34.482   8.277   3.777
15452W        W87767  28.543  38.332  11.985
15453W        W87768  43.950   3.819  12.457
15454W        W87769   1.847   4.942  10.462
15455W        W87770  40.894  25.529  14.489
15456W        W87771   4.710  19.241  11.104
15457W        W87772   2.248  27.161  14.918
15458W        W87773  25.673   9.706   3.379
15459W        W87774  22.622  31.569   0.934
15460W        W87775   8.327  12.205   4.818
15461W        W87776  32.127  15.318   0.296
15462W        W87777  25.484  31.979   1.373
15463W        W87778  26.507  14.214   4.652
15464W        W87779  12.306  27.116  10.626
15465W        W87780  14.333  35.491   4.161
15466W        W87781  27.528  32.132  11.997
15467W        W87782  36.480   8.813   5.290
15468W        W87783  22.744  38.859  12.906
15469W        W87784  43.345  33.609  14.378
15470W        W87785  11.226  26.655   4.211
15471W        W87786   2.375  36.508   3.357
15472W        W87787  10.860  18.757   2.826
15473W        W87788  37.578  42.923  13.824
15474W        W87789  11.792  36.394  14.771
15475W        W87790   9.774  38.847  11.501
15476W        W87791  42.780  37.342   1.792
15477W        W87792  32.046  41.437   3.834
15478W        W87793  10.635   8.694  13.851
15479W        W87794  19.165  40.431   5.234
15480W        W87795  25.714  26.179   4.217
15481W        W87796  22.692  31.416  11.500
15482W        W87797  26.561   7.343  14.442
15483W        W87798  30.497  12.796  13.450
15484W        W87799  19.638  32.538  13.875
15485W        W87800   3.365  22.147   2.784
15486W        W87801  33.623   2.297  13.315
15487W        W87802   2.765  16.651  14.768
15488W        W87803   4.336  14.203  12.885
15489W        W87804  37.571   8.755  14.810
15490W        W87805  10.261  38.337   0.276
15491W        W87806  31.914   3.222  11.379
15492W        W87807  14.765  12.806  12.831
15493W        W87808  14.165  23.068   1.707
15494W        W87809  37.905  33.575   3.631
15495W        W87810  44.913  13.750  10.537
15496W        W87811  24.222  44.282   3.354
15497W        W87812  20.672  12.620   1.752
15498W        W87813  12.815  22.635  12.376
15499W        W87814  39.864  34.962  13.014
15500W        W87815  23.673  11.714  11.379
15501W        W87816   0.877  34.392   1.852
15502W        W87817  24.015   6.818  12.555
15503W        W87818  44.265  10.791   1.881
15504W        W87819  38.070  13.273   3.634
15505W        W87820  37.893  34.521  14.305
15506W        W87821  44.846  30.600   2.303
15507W        W87822  36.005   6.803   1.392
15508W        W87823  32.635  22.224   2.800
15509W        W87824  34.047  41.524  10.892
15510W        W87825  25.962  40.487   0.813
15511W        W87826  44.010  38.430   2.873
15512W        W87827  41.017  34.574  11.479
15513W        W87828  22.074  17.118   2.878
15514W        W87829  19.163  38.509   2.845
15515W        W87830  19.172  43.803   0.243
15516W        W87831  43.390  38.458  10.898
15517W        W87832  44.310   3.755   1.218
15518W        W87833  31.404  25.538   1.926
15519W        W87834  37.365   1.482   4.327
15520W        W87835  24.039  35.944   5.158
15521W        W87836  22.540  17.636  13.933
15522W        W87837  19.174  12.318   3.237
15523W        W87838   4.899  37.886  14.506
15524W        W87839  28.457  11.695   4.187
15525W        W87840  26.138   0.842   1.862
15526W        W87841   9.155  44.375  13.359
15527W        W87842  26.162  23.513   2.388
15528W        W87843  35.577  42.494  10.599
15529W        W87844  30.442  11.353  14.478
15530W        W87845  12.140  37.071   1.293
15531W        W87846  43.354  13.765  14.894
15532W        W87847   8.865  40.945  11.047
15533W        W87848   5.927  27.585   0.420
15534W        W87849  13.120  42.466  11.371
15535W        W87850  29.539  10.270   2.760
15536W        W87851  16.242  25.574   1.862
15537W        W87852  40.361   7.274  13.968
15538W        W87853   3.822  36.910  13.917
15539W        W87854  25.500  41.814   3.320
15540W        W87855  22.104  31.444   2.387
15541W        W87856  14.730   1.923  11.482
15542W        W87857   7.677  28.441  14.493
15543W        W87858  16.655   4.427   3.350
15544W        W87859  19.549  39.856   9.487
15545W        W87860  16.810  19.683  11.963
15546W        W87861   1.477  24.607  12.490
15547W        W87862  37.537  40.852  10.545
15548W        W87863  21.580  34.493   2.725
15549W        W87864  32.126  18.227   4.755
15550W        W87865  34.883  37.914  13.313
15551W        W87866  15.284  37.860   4.338
15552W        W87867   9.179  15.774  11.966
15553W        W87868   4.855  24.683   2.788
15554W        W87869  43.976  41.373   2.788
15555W        W87870  42.383  30.010   4.827
15556W        W87871   1.262   5.211   3.327
15557W        W87872  20.691  39.354   1.922
15558W        W87873   0.437   9.225  12.396
15559W        W87874   9.862  42.844  14.349
15560W        W87875  23.086  43.275  11.419
15561W        W87876  34.569  15.321  14.821
15562W        W87877  28.159  26.604  14.284
15563W        W87878   8.864  11.734   2.787
15564W        W87879  14.100  24.534  12.390
15565W        W87880  37.383  44.336   1.918
15566W        W87881  27.978   0.479  11.505
15567W        W87882   5.417  24.705   3.199
15568W        W87883  14.120  33.604  12.462
15569W        W87884   0.787   7.671  12.046
15570W        W87885  27.096  25.992  13.845
15571W        W87886  39.890  14.328   3.231
15572W        W87887  32.552   6.857   0.810
15573W        W87888  19.758  38.331  12.978
15574W        W87889  26.659  21.693   2.236
15575W        W87890   1.310  26.095  10.976
15576W        W87891  41.529  13.621  14.889
15577W        W87892   8.740  18.156  11.904
15578W        W87893  25.519  23.044  14.481
15579W        W87894  26.963  41.924  11.559
15580W        W87895  23.684  35.991   2.697
15581W        W87896  31.601   6.344   3.308
15582W        W87897  10.150  44.278  10.928
15583W        W87898   4.332  16.790   2.814
15584W        W87899  20.589  44.362   4.601
15585W        W87900  20.748   8.707  12.858
15586W        W87901  35.379  30.159  14.419
15587W        W87902  26.505   4.849   4.171
15588W        W87903  42.875  20.047  14.410
15589W        W87904  24.200  26.669  13.491
15590W        W87905  18.558  12.646  11.120
15591W        W87906  31.047  35.917  11.923
15592W        W87907   3.315   8.725   2.834
15593W        W87908  31.126   3.425  14.442
15594W        W87909   7.697  17.587  10.944
15595W        W87910  11.246  14.126   0.436
15596W        W87911   5.296   4.934   3.738
15597W        W87912  15.210  25.089   4.817
15598W        W87913  41.501  40.370   0.748
15599W        W87914  40.358   9.886   0.460
15600W        W87915  19.232   6.904  12.983
15601W        W87916   1.340   4.822   3.206
15602W        W87917   4.413   5.740  10.615
15603W        W87918  35.990  22.227  10.535
15604W        W87919   2.835  24.064   4.674
15605W        W87920  37.466  44.852   1.387
15606W        W87921  22.707  28.528  10.407
15607W        W87922  24.517  22.524  11.031
15608W        W87923  35.905  13.786  11.994
15609W        W87924   1.765  21.635   0.435
15610W        W87925   7.682  22.610   0.875
15611W        W87926  16.796  40.352  12.426
15612W        W87927  42.923  14.665  11.110
15613W        W87928   0.941  24.106   1.269
15614W        W87929  39.407   7.334  11.074
15615W        W87930  37.033  25.643   0.892
15616W        W87931  16.698   6.771  14.429
15617W        W87932  18.255  19.622   4.228
15618W        W87933  34.108  10.338   4.636
15619W        W87934   9.277  41.306  12.423
15620W        W87935  15.762  31.020   3.696
15621W        W87936  35.063  11.145  10.515
15622W        W87937  10.833  32.036  10.409
15623W        W87938  24.055  30.496   4.156
15624W        W87939   4.396  26.083  14.832
15625W        W87940  31.548  36.033  10.595
15626W        W87941  44.930   9.863   3.655
15627W        W87942   5.713  22.160   4.280
15628W        W87943   5.289  13.339   1.353
15629W        W87944  38.496  41.002   0.822
15630W        W87945  29.504   0.836   3.861
15631W        W87946  17.091  31.487   3.645
15632W        W87947   0.364  11.145  13.858
15633W        W87948  23.227  11.794   4.773
15634W        W87949  13.628   6.683  10.632
15635W        W87950  16.126  24.603   2.887
15636W        W87951  22.682  26.011  10.625
15637W        W87952   3.288  10.382  12.348
15638W        W87953  42.293  11.317   1.930
15639W        W87954  33.492  35.080  13.329
15640W        W87955  27.015  18.630   3.277
15641W        W87956  24.651  35.386  10.611
15642W        W87957  27.998   9.284  14.952
15643W        W87958  34.486  42.407   1.882
15644W        W87959  42.390  20.719   3.833
15645W        W87960  15.169  25.488  10.577
15646W        W87961  34.607  24.668  11.005
15647W        W87962  34.406  14.653   4.198
15648W        W87963  11.233  35.393  12.498
15649W        W87964  10.379  40.386  10.437
15650W        W87965  34.899  44.890  14.825
15651W        W87966   1.877  23.018  13.041
15652W        W87967  15.687  28.078   2.890
15653W        W87968   1.853  37.016   2.351
15654W        W87969  21.724   6.910  12.080
15655W        W87970  19.280  29.614   0.327
15656W        W87971  29.062   1.395  14.439
15657W        W87972  29.159  23.510   3.656
15658W        W87973   7.413  10.872  11.489
15659W        W87974  16.756  14.115   2.237
15660W        W87975   1.379  10.680  13.322
15661W        W87976  13.769  33.593  10.532
15662W        W87977  44.295  12.731  10.078
15663W        W87978  10.734   8.299  12.073
15664W        W87979  42.891   8.699  14.314
15665W        W87980  31.968  20.579  14.303
15666W        W87981  31.001   3.419   3.778
15667W        W87982  20.037  32.131   4.716
15668W        W87983   5.841  43.377  13.922
15669W        W87984   0.943  34.903   4.601
15670W        W87985   1.278  25.116  12.952
15671W        W87986   0.283  34.081  12.924
15672W        W87987  23.635  20.120  12.025
15673W        W87988   9.775  39.449   3.802
15674W        W87989   9.346   3.327   2.809
15675W        W87990  15.689  19.163  13.491
15676W        W87991  20.196  36.537  12.579
15677W        W87992  25.117  20.606   0.757
15678W        W87993  44.765  25.164  13.337
15679W        W87994  14.187   4.254  14.793
15680W        W87995  36.431  13.110   5.318
15681W        W87996  37.413  34.428  13.965
15682W        W87997  33.535  27.074   0.447
15683W        W87998  35.049   5.254   2.768
15684W        W87999  23.630  22.198   2.793
15685W        W88000  34.869  40.993  11.551
15686W        W88001  17.717  21.738   3.650
15687W        W88002  41.847  12.628  12.466
15688W        W88003  24.141  43.318   0.788
15689W        W88004  13.693  21.171  12.523
15690W        W88005  14.607  22.638  12.866
15691W        W88006  43.938  41.336  13.444
15692W        W88007   2.963  24.011  13.480
15693W        W88008   2.892   3.443   1.819
15694W        W88009  24.039  27.500  10.590
15695W        W88010  16.628  31.083   5.689
15696W        W88011   5.816   4.439  10.440
15697W        W88012   2.830   6.264   1.413
15698W        W88013  18.722  17.165   2.212
15699W        W88014  20.727  34.875  12.062
15700W        W88015  29.464  29.131   2.218
15701W        W88016  37.347  20.695   0.269
15702W        W88017  22.185  21.612  10.434
15703W        W88018  18.205  42.819   3.687
15704W        W88019  35.038  30.453   2.677
15705W        W88020  42.455   6.709   0.323
15706W        W88021  38.002  30.657  13.398
15707W        W88022   5.787  11.686   1.914
15708W        W88023  29.152  15.687  11.565
15709W        W88024  28.024   8.827   3.672
15710W        W88025   5.879  13.265   3.729
15711W        W88026  15.642  13.688   1.708
15712W        W88027  19.243  34.431   3.866
15713W        W88028  35.898  26.166   0.824
15714W        W88029  16.304   1.373   3.655
15715W        W88030  21.256   8.356   2.872
15716W        W88031  38.525  41.327   1.752
15717W        W88032  26.692  21.094   4.125
15718W        W88033  26.142  24.689   0.741
15719W        W88034  25.556  27.991   4.721
15720W        W88035   4.855  34.925   3.824
15721W        W88036  26.697  44.943   3.148
15722W        W88037  20.200  13.302  11.612
15723W        W88038  38.025  33.010  13.852
15724W        W88039  14.328  37.511   3.342
15725W        W88040  33.974  24.725  10.619
15726W        W88041  21.220  28.457   1.749
15727W        W88042   0.342   0.476   4.818
15728W        W88043  38.920  39.353  10.628
15729W        W88044  14.232   4.243  13.897
15730W        W88045  43.432  39.382   1.795
15731W        W88046   2.315   9.703   4.803
15732W        W88047   3.447  33.414   4.639
15733W        W88048   7.251   7.837  11.980
15734W        W88049  12.734  18.100   4.608
15735W        W88050   5.314  24.184  13.044
15736W        W88051  18.222  11.855   3.282
15737W        W88052  23.163  36.036   1.859
15738W        W88053  35.491  36.580  13.326
15739W        W88054  42.393  24.693   4.737
15740W        W88055   3.875   3.814   1.216
15741W        W88056  41.961  41.526   2.278
15742W        W88057  26.671  20.670  14.912
15743W        W88058   1.390  20.034  10.441
15744W        W88059  10.140  44.765   2.817
15745W        W88060   8.861   4.316  10.556
15746W        W88061  30.930  42.977  12.980
15747W        W88062  30.647   6.328  14.796
15748W        W88063  30.034   6.204   1.357
15749W        W88064  28.984  31.577  10.035
15750W        W88065  43.829  19.046   2.303
15751W        W88066   7.255   9.848   3.750
15752W        W88067  21.544  42.962   2.311
15753W        W88068  32.890  12.346   2.759
15754W        W88069  26.530  15.238  11.381
15755W        W88070  38.467  18.722   1.760
15756W        W88071   1.300  15.664   1.415
15757W        W88072  17.749  14.819   4.179
15758W        W88073  29.131  35.853  12.052
15759W        W88074  20.707   8.716   2.824
15760W        W88075  34.043   0.331  10.622
15761W        W88076  42.283  22.228   1.273
15762W        W88077  20.555  37.935  14.863
15763W        W88078  41.309   4.747   4.757
15764W        W88079  16.077  40.003  12.005
15765W        W88080  39.468  14.244  14.314
15766W        W88081  39.059   2.231   4.121
15767W        W88082  31.612  23.518   3.340
15768W        W88083  42.379  25.546  13.312
15769W        W88084  22.164  26.126   4.287
15770W        W88085  28.665  28.598  10.637
15771W        W88086   3.760  16.727  14.386
15772W        W88087  12.353  34.417   4.225
15773W        W88088  10.189  11.684  11.882
15774W        W88089  17.724  44.481  10.097
15775W        W88090   6.246  19.602   0.890
15776W        W88091  37.390  31.406  11.940
15777W        W88092   9.645   7.324   0.482
15778W        W88093  41.443   5.690   4.353
15779W        W88094  31.645  24.569   3.862
15780W        W88095  28.986  24.036  10.988
15781W        W88096   0.820   9.372   3.772
15782W        W88097   0.972  39.941   0.873
15783W        W88098  40.895  36.442   4.343
15784W        W88099  29.616  16.151  13.867
15785W        W88100  17.564   4.717   1.800
15786W        W88101  44.331  22.672  11.863
15787W        W88102  37.834   7.376  11.860
15788W        W88103  28.639   3.261  13.536
15789W        W88104  23.076   7.197  11.598
15790W        W88105  39.834  22.659  12.464
15791W        W88106  31.140  37.878  13.050
15792W        W88107   4.860  29.040  12.464
15793W        W88108  32.412  23.729  12.565
15794W        W88109  18.594  28.057   1.908
15795W        W88110   6.881  37.903   1.302
15796W        W88111  38.371  16.684   1.297
15797W        W88112  27.117  26.083   2.848
15798W        W88113  35.543  13.349  13.965
15799W        W88114   1.759  24.117   2.213
15800W        W88115  18.588  25.121   4.719
15801W        W88116  18.780  37.545   9.994
15802W        W88117  21.713  13.204   4.828
15803W        W88118  12.241   9.367   2.321
15804W        W88119  40.324  35.093   0.291
15805W        W88120   3.796  23.232  13.387
15806W        W88121  18.682   1.269  10.529
15807W        W88122  15.671  16.760   1.226
15808W        W88123  10.685  14.649   4.240
15809W        W88124  25.081  11.766  13.393
15810W        W88125   8.406  22.648   2.388
15811W        W88126  10.253  18.208  10.538
15812W        W88127   0.778  29.602  12.438
15813W        W88128  20.631  22.086  12.445
15814W        W88129  41.538   5.692  11.475
15815W        W88130  33.581  31.125   0.805
15816W        W88131   5.377  29.666   1.404
15817W        W88132   6.286  21.588  14.456
15818W        W88133  32.045  44.940   2.198
15819W        W88134  14.128   9.220   3.818
15820W        W88135  16.283  38.883  11.127
15821W        W88136  42.373  23.677  12.426
15822W        W88137   8.397  11.181  13.884
15823W        W88138   5.362  12.758   2.271
15824W        W88139   3.785  42.410  11.417
15825W        W88140  39.846   2.278  10.596
15826W        W88141   4.373  13.306   4.176
15827W        W88142  22.651  16.241  11.007
15828W        W88143  37.530  13.759   3.202
15829W        W88144  43.363   6.257  12.572
15830W        W88145  15.114  25.665  11.928
15831W        W88146   3.927  33.073  12.868
15832W        W88147   3.776  14.743   1.904
15833W        W88148   1.804  39.969  10.534
15834W        W88149  12.125  16.680   5.221
15835W        W88150  24.584   6.763  10.993
15836W        W88151  12.198  35.082  13.994
15837W        W88152  32.466  12.618  12.347
15838W        W88153   6.881  32.396   0.889
15839W        W88154  27.147  18.601  12.558
15840W        W88155  39.947  25.055  13.061
15841W        W88156  20.636  39.867   1.359
15842W        W88157  27.650  25.503  10.578
15843W        W88158  19.118  25.130   4.648
15844W        W88159   7.184   6.913   2.662
15845W        W88160  18.119  28.933   2.243
15846W        W88161  44.472  29.982  11.038
15847W        W88162  28.564  41.833   0.310
15848W        W88163  29.507  26.205  11.006
15849W        W88164  17.627  36.536  11.423
15850W        W88165  37.974   2.400  12.370
15851W        W88166  42.935  22.021  14.809
15852W        W88167  33.105  25.053   3.205
15853W        W88168  16.221  10.224  10.567
15854W        W88169  38.408   5.866  14.366
15855W        W88170   8.344  25.180   1.361
15856W        W88171  16.085  29.477   1.244
15857W        W88172  20.210  41.355   2.250
15858W        W88173   1.851  20.263   4.719
15859W        W88174   2.877   5.412  12.042
15860W        W88175  18.254  21.115  13.930
15861W        W88176  40.861   0.872  10.586
15862W        W88177  23.238   1.837  14.305
15863W        W88178  38.908   4.387   3.715
15864W        W88179  37.998  35.941   0.376
15865W        W88180   9.788  42.894  13.329
15866W        W88181   2.385   3.364   4.310
15867W        W88182  23.040   8.324  13.449
15868W        W88183  29.568  32.141   0.751
15869W        W88184  19.748  12.794  12.904
15870W        W88185  30.076  39.912  10.530
15871W        W88186  43.299  15.710   9.960
15872W        W88187   9.886  42.302  10.570
15873W        W88188  44.454   0.944   1.358
15874W        W88189   9.236  19.170  13.487
15875W        W88190   1.298   6.869  11.972
15876W        W88191  38.526   6.395   3.298
15877W        W88192  22.641   6.765  10.118
15878W        W88193   2.778   5.827   0.384
15879W        W88194  11.666   5.321   0.475
15880W        W88195  35.587  30.964  12.897
15881W        W88196   9.231  37.026   4.240
15882W        W88197  35.387  29.652  11.967
15883W        W88198  23.085  32.404  14.763
15884W        W88199  30.540  38.516   3.708
15885W        W88200   7.715  32.088  14.510
15886W        W88201  32.057  18.235  13.407
15887W        W88202  34.458  24.113   0.863
15888W        W88203  38.065   9.872  14.964
15889W        W88204  21.026   9.364   2.750
15890W        W88205   8.354  38.420  11.500
15891W        W88206  26.978  23.148   3.282
15892W        W88207  11.230   6.849   3.222
15893W        W88208  42.935   6.765  12.070
15894W        W88209   0.250  20.640  13.392
15895W        W88210  21.644   0.311  11.992
15896W        W88211  23.057  41.333   4.707
15897W        W88212  42.897   0.283  10.947
15898W        W88213  35.929  38.432   3.179
15899W        W88214  26.675   4.701   1.275
15900W        W88215  25.638  10.634   3.811
15901W        W88216  15.100   7.272   0.862
15902W        W88217  12.735  22.594   2.845
15903W        W88218  33.056  29.528   1.364
15904W        W88219   8.277   9.727  13.346
15905W        W88220   8.853  29.572   4.313
15906W        W88221  33.099  22.163  13.457
15907W        W88222  25.095  17.591  13.460
15908W        W88223  32.448   5.759   3.811
15909W        W88224  44.498  12.841   1.702
15910W        W88225   9.723  26.568  14.502
15911W        W88226   0.783  19.680   1.221
15912W        W88227  32.986  40.524  11.077
15913W        W88228  16.099  42.508   3.207
15914W        W88229  44.419  11.695   9.990
15915W        W88230   3.732  30.948   3.376
15916W        W88231  38.058  25.593  13.992
15917W        W88232  37.992  44.418  12.364
15918W        W88233  20.568   9.853   2.720
15919W        W88234  17.639  10.167  14.759
15920W        W88235  25.066  29.438  13.845
15921W        W88236   9.676  10.351   1.888
15922W        W88237  34.609  12.678   3.365
15923W        W88238  21.612  41.024   3.327
15924W        W88239  25.561  10.854  12.094
15925W        W88240  28.100   3.353   3.651
15926W        W88241   9.186   5.265   4.217
15927W        W88242  21.093  25.173   2.314
15928W        W88243  34.518   1.934  11.020
15929W        W88244  12.325  44.310  14.976
15930W        W88245  43.917  41.298  11.864
15931W        W88246  35.002   1.462  10.900
15932W        W88247  33.535  21.679  14.287
15933W        W88248  11.863  22.501   5.268
15934W        W88249  18.050   2.419  10.434
15935W        W88250  44.965  27.026   1.729
15936W        W88251  15.099  43.873   0.844
15937W        W88252  17.745   3.747   1.416
15938W        W88253  24.545  42.784  13.815
15939W        W88254  31.098  38.952  10.571
15940W        W88255  35.441  12.846  11.898
15941W        W88256  25.556  19.261   3.744
15942W        W88257  24.125  37.567  14.351
15943W        W88258   4.710  32.922  11.380
15944W        W88259  29.475   5.921   3.724
15945W        W88260  36.881  17.705  14.948
15946W        W88261  43.353  22.177   1.796
15947W        W88262  43.491  19.724  12.012
15948W        W88263  15.757  26.125   4.785
15949W        W88264  39.426   8.347  13.426
15950W        W88265  41.019  34.957  12.414
15951W        W88266  34.574  14.174  13.047
15952W        W88267  12.681   2.773   2.356
15953W        W88268  25.539  34.902   2.318
15954W        W88269   0.835  24.606  14.319
15955W        W88270  30.558   0.784   4.151
15956W        W88271  21.628   1.265   1.817
15957W        W88272  41.356   3.226  12.451
15958W        W88273   0.352  15.270   0.476
15959W        W88274  41.999  12.258   4.162
15960W        W88275  14.732  19.675  11.126
15961W        W88276  41.353  37.467  10.440
15962W        W88277   4.901  24.062  14.852
15963W        W88278   1.390   2.894   2.899
15964W        W88279   0.836  14.242   0.248
15965W        W88280  18.206   7.723  13.883
15966W        W88281  14.803  26.610  13.310
15967W        W88282  12.643  12.615  11.862
15968W        W88283  35.102  31.037   1.697
15969W        W88284  36.436   8.387   1.266
15970W        W88285  14.722   3.382   3.813
15971W        W88286  25.620  14.205   1.724
15972W        W88287  16.587  15.592   3.365
15973W        W88288   1.293  44.462   4.256
15974W        W88289  33.004   7.272  11.473
15975W        W88290  35.513  20.029  11.956
15976W        W88291  43.831  10.841  11.522
15977W        W88292  33.919  41.408   0.935
15978W        W88293  17.730  24.494  10.963
15979W        W88294  39.828  28.606  13.497
15980W        W88295  30.102  11.799   2.773
15981W        W88296  40.541  36.544  11.893
15982W        W88297  12.651   3.803   0.366
15983W        W88298  29.560  37.942  14.278
15984W        W88299  25.138  22.169   0.732
15985W        W88300  31.427  17.117   4.690
15986W        W88301  37.416  43.416  13.432
15987W        W88302  24.707  17.597   1.322
15988W        W88303  31.136  14.660  14.427
15989W        W88304  32.046   3.423   4.263
15990W        W88305  26.543  38.403   3.248
15991W        W88306  27.454  30.577   2.795
15992W        W88307  17.652   3.370   2.875
15993W        W88308  44.826  10.334  12.057
15994W        W88309  14.314  24.702  11.606
15995W        W88310  22.116  35.073  10.923
15996W        W88311  33.500  12.815  11.595
15997W        W88312  25.136   6.345   0.417
15998W        W88313  20.078  10.640   5.760
15999W        W88314   7.257   7.346  10.612
16000W        W88315  34.369  25.962  13.461
16001W        W88316  38.962  14.773  13.829
16002W        W88317   7.676  32.037  14.810
16003W        W88318  34.941  19.241   4.820
16004W        W88319  19.046   4.402  10.548
16005W        W88320   6.206   6.798   4.815
16006W        W88321  26.106  25.099  13.355
16007W        W88322   1.738  12.298   0.400
16008W        W88323  33.459   1.374   2.272
16009W        W88324  16.730  22.622   1.889
16010W        W88325  33.124  43.780   0.383
16011W        W88326  10.298  16.186  10.096
16012W        W88327  26.143   0.399  10.448
16013W        W88328  39.891   2.352  13.429
16014W        W88329  36.985  16.649  13.932
16015W        W88330  15.635  42.499   2.290
16016W        W88331   6.422   1.909  13.020
16017W        W88332   0.864  14.670  12.459
16018W        W88333  12.148  31.080  12.037
16019W        W88334  18.590   2.950   2.693
16020W        W88335  33.992  33.975   2.792
16021W        W88336   0.902   8.305  11.455
16022W        W88337  33.473  34.429   4.128
16023W        W88338   6.873   0.463   2.735
16024W        W88339   6.425  13.214   0.926
16025W        W88340  27.012  23.681  11.081
16026W        W88341  43.505  39.523   2.224
16027W        W88342   0.760  30.111   3.203
16028W        W88343   2.901  23.180  11.037
16029W        W88344   8.700   7.199  10.088
16030W        W88345  33.074  30.432   1.807
16031W        W88346  23.039  27.949  13.051
16032W        W88347  25.625  23.568  10.075
16033W        W88348  14.154  29.045  12.531
16034W        W88349   7.417  12.672   1.934
16035W        W88350   3.433  21.218   3.341
16036W        W88351   3.719  32.476  10.483
16037W        W88352   1.862   2.248  14.965
16038W        W88353  34.120  22.025   0.760
16039W        W88354   1.332  10.278   0.368
16040W        W88355  32.487  22.691  14.400
16041W        W88356  29.024  29.101  11.567
16042W        W88357   6.855   4.913   3.747
16043W        W88358  14.645   6.185  13.877
16044W        W88359  39.989  44.313   3.255
16045W        W88360  44.308  18.708  13.980
16046W        W88361  32.572  20.531   1.785
16047W        W88362  31.948  44.497  11.007
16048W        W88363  43.423   7.692  14.850
16049W        W88364   5.795  12.744   0.271
16050W        W88365   9.322  38.382   3.277
16051W        W88366  38.398  25.468  12.934
16052W        W88367   6.427  28.138  12.824
16053W        W88368  28.159  37.404   3.328
16054W        W88369  26.171  40.877  11.082
16055W        W88370  29.563   6.826   2.386
16056W        W88371  25.030  31.898   1.820
16057W        W88372  19.548  33.928  10.491
16058W        W88373  43.416  13.617   2.848
16059W        W88374  29.025  36.871  14.013
16060W        W88375   8.386  12.140   1.697
16061W        W88376  28.160   9.806   0.859
16062W        W88377  22.077  23.090  12.402
16063W        W88378  39.368  30.047   3.780
16064W        W88379  24.532  41.964   4.628
16065W        W88380  43.400  25.121   4.829
16066W        W88381  39.060  14.318  12.084
16067W        W88382  35.461   6.308  12.544
16068W        W88383   6.185  13.108  13.360
16069W        W88384  26.032  26.142   2.318
16070W        W88385  10.221  39.957   3.854
16071W        W88386  13.801  23.038  10.489
16072W        W88387  36.357  34.536  14.765
16073W        W88388  30.639   3.237  13.031
16074W        W88389  14.270  38.327  10.519
16075W        W88390  22.740  10.177   0.270
16076W        W88391   1.361  37.407  10.600
16077W        W88392   9.794  12.616   2.211
16078W        W88393  24.039   9.302   4.750
16079W        W88394  25.144   9.289  14.910
16080W        W88395  44.394  30.089  14.864
16081W        W88396  27.174  34.029   4.157
16082W        W88397  10.236  26.111  10.529
16083W        W88398  33.518  22.606  11.088
16084W        W88399  30.996  18.106   0.739
16085W        W88400  44.916  29.148   1.706
16086W        W88401   0.488  43.820  11.113
16087W        W88402   5.836  17.160  13.855
16088W        W88403  12.148   6.238   1.328
16089W        W88404  23.110  22.584   0.958
16090W        W88405  23.067   3.776   1.416
16091W        W88406   8.198  39.857  11.475
16092W        W88407  11.699  33.479  13.350
16093W        W88408  38.452   2.904  12.883
16094W        W88409  20.552  37.473   0.937
16095W        W88410  40.370  11.840   3.261
16096W        W88411  31.978  10.635  12.858
16097W        W88412  12.310  38.988  14.430
16098W        W88413  40.979  44.472  11.014
16099W        W88414  31.579  28.144   4.699
16100W        W88415  27.090   8.301   4.306
16101W        W88416  37.365  43.489  10.569
16102W        W88417   2.298  30.066   3.841
16103W        W88418   9.284  12.714  11.980
16104W        W88419  38.882  26.046  12.952
16105W        W88420  39.814  19.198  12.903
16106W        W88421  24.068  32.142   3.667
16107W        W88422   2.378  34.531  10.511
16108W        W88423   0.484  32.128  13.839
16109W        W88424  44.261  23.233   4.668
16110W        W88425  40.331  42.460  12.890
16111W        W88426  26.674  40.917   4.750
16112W        W88427  13.191  41.936   0.384
16113W        W88428  25.010  30.973  12.450
16114W        W88429  42.012   9.349  13.965
16115W        W88430   1.896   1.815   1.355
16116W        W88431  36.886  16.746  14.297
16117W        W88432  17.786  40.350  14.328
16118W        W88433  30.624  30.617  10.979
16119W        W88434  15.110  39.011   4.143
16120W        W88435   0.975  25.156   0.805
16121W        W88436   5.432  32.505  10.510
16122W        W88437  25.998  17.802  13.346
16123W        W88438  28.499   0.987  13.367
16124W        W88439  40.016  28.019  14.324
16125W        W88440   4.708   7.786  14.451
16126W        W88441   9.188  23.542  14.470
16127W        W88442  42.012  15.207  12.537
16128W        W88443  31.969  13.209   4.244
16129W        W88444  10.797  29.638  14.787
16130W        W88445  15.777  19.546  13.897
16131W        W88446   5.911  26.578   4.759
16132W        W88447  35.375  35.410  11.498
16133W        W88448  32.891  23.207  14.858
16134W        W88449  37.978  18.644  12.011
16135W        W88450  41.008  39.062   9.961
16136W        W88451   2.402  28.445  14.426
16137W        W88452  42.421  41.034   3.812
16138W        W88453  24.071   8.784   2.895
16139W        W88454  13.750  16.665  12.845
16140W        W88455  32.524  34.083  12.880
16141W        W88456   8.196  15.702   5.221
16142W        W88457  30.962  20.666  12.897
16143W        W88458  24.019  28.980   0.731
16144W        W88459  19.628  31.984   2.709
16145W        W88460  31.626  40.858   2.768
16146W        W88461   1.438  32.975   2.765
16147W        W88462  17.221   7.814  12.899
16148W        W88463  39.011  24.501   4.310
16149W        W88464  18.777  15.087   1.830
16150W        W88465   9.375  24.989  14.919
16151W        W88466   1.893  17.085  12.529
16152W        W88467  18.115  10.184   0.383
16153W        W88468  15.698  31.927  10.063
16154W        W88469  18.700  30.597  10.153
16155W        W88470  23.008   8.389  11.380
16156W        W88471  23.574  36.971   1.282
16157W        W88472  21.214   8.172   0.405
16158W        W88473  37.972  13.228   3.335
16159W        W88474  43.498  19.123   0.954
16160W        W88475  31.624  18.147  14.844
16161W        W88476  35.007  13.112  11.008
16162W        W88477  36.578  19.096  14.854
16163W        W88478  25.984  32.041  14.911
16164W        W88479  40.974  28.949  13.316
16165W        W88480   7.788  13.169  12.420
16166W        W88481  34.451  41.468  13.039
16167W        W88482  14.254  25.167  11.396
16168W        W88483   0.365  18.244  10.563
16169W        W88484  38.549  28.593  10.951
16170W        W88485   1.862  34.879  11.015
16171W        W88486  15.149   4.876  12.987
16172W        W88487  40.905  15.270  13.366
16173W        W88488  44.274  19.147  11.942
16174W        W88489   4.842  20.077  10.498
16175W        W88490  23.652  15.195   0.910
16176W        W88491   7.311  14.632   3.757
16177W        W88492  42.423   0.263  14.433
16178W        W88493  10.208  32.584   1.401
16179W        W88494  18.582  41.349  10.567
16180W        W88495  27.487   5.265   3.635
16181W        W88496  10.780  42.859   5.229
16182W        W88497  32.625  26.572   4.676
16183W        W88498   6.357  17.724  11.390
16184W        W88499  14.610  16.249   4.220
16185W        W88500  29.094  25.089  11.010
16186W        W88501   3.411  37.861   0.355
16187W        W88502  15.257  20.578  10.495
16188W        W88503   5.301  11.317  13.369
16189W        W88504   7.869  18.714  13.461
16190W        W88505   8.761   0.278   4.293
16191W        W88506  30.920  19.263  13.880
16192W        W88507  12.718  20.233   0.846
16193W        W88508  30.634  24.707   3.827
16194W        W88509  13.645  38.555  10.507
16195W        W88510   7.214   9.692  13.319
16196W        W88511  38.841  23.240  13.472
16197W        W88512   0.943  23.660   4.759
16198W        W88513  19.593  44.396   4.302
16199W        W88514  29.933   5.288   0.765
16200W        W88515  29.950  12.658  14.321
16201W        W88516   1.250  30.953   3.660
16202W        W88517  40.845  42.357  14.356
16203W        W88518   7.899   7.407  11.960
16204W        W88519  11.179   5.263   1.318
16205W        W88520  40.543   7.882   2.260
16206W        W88521  36.542  18.658  11.608
16207W        W88522  42.881  39.556   4.324
16208W        W88523   0.339  42.883  14.840
16209W        W88524  31.571  44.355  10.494
16210W        W88525  11.643  26.963  10.957
16211W        W88526   0.931  32.033   0.280
16212W        W88527  13.257  38.919   5.181
16213W        W88528  26.542  18.661  12.345
16214W        W88529  25.571  43.877  14.956
16215W        W88530  15.178  22.057   2.279
16216W        W88531  40.954  33.612   3.833
16217W        W88532  22.211  27.193  14.784
16218W        W88533  33.576  35.077   1.372
16219W        W88534  40.826  15.281  10.911
16220W        W88535  17.605  32.940   0.308
16221W        W88536  30.066  11.183   4.349
16222W        W88537  31.613  17.777   0.847
16223W        W88538  13.283  24.716   1.770
16224W        W88539  38.412   2.836   1.379
16225W        W88540  28.934  44.989  13.026
16226W        W88541  14.231  28.999  11.036
16227W        W88542  17.102   8.213  11.513
16228W        W88543   6.827   9.859   2.809
16229W        W88544  38.949   3.424  13.989
16230W        W88545  17.293  22.643   2.250
16231W        W88546  40.381  26.542  14.300
16232W        W88547  15.265  30.431   3.811
16233W        W88548  12.810  34.939   3.370
16234W        W88549  24.040  44.278   0.267
16235W        W88550  41.872  37.375  14.297
16236W        W88551  44.753  26.488  14.990
16237W        W88552   1.385   8.785  10.568
16238W        W88553  11.774  35.933   4.676
16239W        W88554  41.354  32.025   1.894
16240W        W88555  37.374  41.994   1.891
16241W        W88556  13.837  15.284  11.119
16242W        W88557   4.804  39.455  12.914
16243W        W88558  24.717  34.593   4.619
16244W        W88559  41.001  37.881  12.401
16245W        W88560  17.190  36.494   2.828
16246W        W88561  43.814  19.090  10.603
16247W        W88562   9.842  17.640  14.356
16248W        W88563  31.021  12.229  10.995
16249W        W88564  31.142  44.854  12.551
16250W        W88565  24.007   7.752   0.348
16251W        W88566  18.062  42.484   0.836
16252W        W88567  16.226  18.720   0.826
16253W        W88568  16.103  12.690   3.706
16254W        W88569  44.841  38.372   4.281
16255W        W88570  25.100  14.233  14.977
16256W        W88571  35.084  25.209   2.193
16257W        W88572  36.417   3.336  10.039
16258W        W88573  37.913  18.152   0.869
16259W        W88574  28.651  18.279   4.835
16260W        W88575  32.102  37.843  10.499
16261W        W88576  35.487  35.031  13.365
16262W        W88577  22.620  29.613  11.087
16263W        W88578  22.050  36.018  12.353
16264W        W88579  13.303  26.571   2.793
16265W        W88580  34.535  16.764  13.392
16266W        W88581  13.212  44.328   0.339
16267W        W88582  39.360  43.021  13.416
16268W        W88583  34.886   1.443   1.728
16269W        W88584  15.699   4.208  14.851
16270W        W88585   3.733   4.436  10.523
16271W        W88586  38.337  10.873   4.651
16272W        W88587  14.750  43.999   1.827
16273W        W88588  30.945  42.982  14.508
16274W        W88589  35.969  17.224   0.880
16275W        W88590  26.504   0.799  14.332
16276W        W88591  11.646  40.844  13.482
16277W        W88592  26.056  42.871   5.108
16278W        W88593  26.687   4.433  14.317
16279W        W88594   3.780  11.737  14.362
16280W        W88595  13.264   4.354   2.851
16281W        W88596   6.330  11.858  12.357
16282W        W88597   1.283  26.046  11.921
16283W        W88598  30.094   5.236   1.755
16284W        W88599  31.450  23.701  14.384
16285W        W88600   9.673  33.610  12.492
16286W        W88601  20.662  34.117  14.336
16287W        W88602   9.881  39.990  13.510
16288W        W88603  33.412   3.804  10.406
16289W        W88604  29.022  26.118   1.339
16290W        W88605   4.822  16.780   0.950
16291W        W88606   3.225  15.148   4.334
16292W        W88607   6.183   4.816   2.751
16293W        W88608  43.768  35.544   2.333
16294W        W88609  29.461  41.356  11.390
16295W        W88610  13.663  26.029   4.257
16296W        W88611   2.303   1.759  14.899
16297W        W88612  36.937  30.955   3.265
16298W        W88613  21.654  44.373   3.857
16299W        W88614   2.408   5.204   1.450
16300W        W88615  36.045  37.548   1.706
16301W        W88616   4.774   4.443   4.663
16302W        W88617   6.824  44.469  14.416
16303W        W88618  42.971  12.361  11.493
16304W        W88619  19.560  32.984   1.260
16305W        W88620  19.179  22.731  11.601
16306W        W88621  30.934  38.535   4.127
16307W        W88622   3.461  36.913   1.450
16308W        W88623  10.227  42.431  11.598
16309W        W88624  38.451  30.563   1.888
16310W        W88625  44.963  16.307   4.265
16311W        W88626   5.894  39.397  11.601
16312W        W88627  37.380  33.478   1.753
16313W        W88628   9.832   4.211  10.461
16314W        W88629  11.717   2.253  11.600
16315W        W88630  31.434  14.649   3.684
16316W        W88631   9.673  35.403   0.448
16317W        W88632  11.716  42.835  10.009
16318W        W88633  23.600  27.074   4.678
16319W        W88634  25.518  33.929   0.398
16320W        W88635  14.155   1.954  12.418
16321W        W88636  17.629  22.701  11.016
16322W        W88637   3.720  24.178   1.774
16323W        W88638  10.673  32.527   2.244
16324W        W88639  32.080  16.629  10.637
16325W        W88640  30.123  25.694   4.665
16326W        W88641  29.483   2.425   3.733
16327W        W88642  26.071   6.817  10.899
16328W        W88643  23.240  18.687  11.410
16329W        W88644  27.480  35.914   2.744
16330W        W88645   6.268  35.539   2.362
16331W        W88646  32.913  33.123   3.277
16332W        W88647  16.199  32.450  14.888
16333W        W88648  14.337  21.202  10.548
16334W        W88649  37.044   7.314  11.895
16335W        W88650  43.292  17.205  12.932
16336W        W88651  40.849  10.794  11.487
16337W        W88652  34.570  27.677  11.521
16338W        W88653   6.717  38.397  10.973
16339W        W88654   7.892  39.343   1.449
16340W        W88655  39.958  29.057   3.838
16341W        W88656  22.207  43.891  14.406
16342W        W88657  17.075  30.446   3.266
16343W        W88658  39.961  34.987  12.542
16344W        W88659  23.100  25.147  14.824
16345W        W88660  12.299  17.726  14.466
16346W        W88661  17.307  27.178  13.324
16347W        W88662  37.985  14.705  14.355
16348W        W88663  36.575  12.232   1.240
16349W        W88664  25.147  32.588   2.277
16350W        W88665  44.306  21.610   0.894
16351W        W88666  38.948  10.312  13.444
16352W        W88667  25.999  38.819   2.738
16353W        W88668  27.596  20.206  13.444
16354W        W88669   5.907  20.268  11.472
16355W        W88670  41.817   1.734  11.004
16356W        W88671  26.640  44.291   0.416
16357W        W88672  27.155   0.789  12.561
16358W        W88673  19.246  43.843  13.472
16359W        W88674  17.703  35.020  12.901
16360W        W88675  23.124  19.620  10.964
16361W        W88676  36.908  24.193  12.439
16362W        W88677   7.257  44.429   1.385
16363W        W88678   0.934  33.909  13.378
16364W        W88679   8.390  20.715  14.444
16365W        W88680   0.470  32.547   0.868
16366W        W88681   7.245  21.695   2.710
16367W        W88682  13.794  22.235   3.787
16368W        W88683  33.386  19.051  14.441
16369W        W88684  32.571   5.870   4.697
16370W        W88685  41.442  11.217   1.345
16371W        W88686  24.688  17.236  13.948
16372W        W88687  18.271  24.717   1.300
16373W        W88688  29.628  34.449  12.008
16374W        W88689   4.722  43.886   3.195
16375W        W88690  30.019  44.392  14.457
16376W        W88691  38.471  16.758  10.985
16377W        W88692  18.599  29.065  12.055
16378W        W88693  40.530  26.476   0.826
16379W        W88694  26.164  10.273   3.734
16380W        W88695  28.577   1.883   0.323
16381W        W88696  12.731   9.327  12.013
16382W        W88697  16.793  12.316   3.186
16383W        W88698   7.866   9.224  12.977
16384W        W88699  26.179   6.720   3.661
16385W        W88700  15.324  16.573   4.828
16386W        W88701  12.146  39.494   4.606
16387W        W88702  11.249   1.286  12.097
16388W        W88703  22.073   7.833   3.273
16389W        W88704  12.151  28.004   3.305
16390W        W88705  21.118   0.279   3.762
16391W        W88706  32.009  23.097  11.551
16392W        W88707  23.667  26.674   2.758
16393W        W88708  42.458  10.808  12.996
16394W        W88709   6.912   1.260  13.860
16395W        W88710  12.734   8.279   4.350
16396W        W88711  30.582  28.947   0.888
16397W        W88712  38.347   0.978  14.286
16398W        W88713   0.923  44.985   0.914
16399W        W88714  41.335  14.179   3.809
16400W        W88715  10.780  14.334   3.826
16401W        W88716  22.589  33.076   2.314
16402W        W88717   4.264  37.538   2.872
16403W        W88718   1.862  31.090  12.973
16404W        W88719  44.360  40.431  13.887
16405W        W88720   7.810  15.671   1.845
16406W        W88721   7.210  38.357   0.383
16407W        W88722  29.457  24.134   0.341
16408W        W88723  40.932  41.827   1.373
16409W        W88724  20.071  29.946  13.346
16410W        W88725  42.828  15.315  12.417
16411W        W88726   9.884   5.423  14.991
16412W        W88727  15.200  18.076   3.808
16413W        W88728  16.203   8.195   3.265
16414W        W88729   6.203  43.282   4.792
16415W        W88730  41.418  10.761   3.314
16416W        W88731  22.636  27.992  11.463
16417W        W88732  35.602  19.559  12.393
16418W        W88733  33.473   1.261  13.931
16419W        W88734  40.993  32.392   0.797
16420W        W88735  36.582   3.861   4.813
16421W        W88736  42.332  12.848   2.206
16422W        W88737   9.337   7.727  11.960
16423W        W88738  33.605  19.664   0.277
16424W        W88739  44.448   0.813   1.788
16425W        W88740  26.046  16.258   2.345
16426W        W88741  25.582  22.734  10.904
16427W        W88742  12.650  18.643   5.257
16428W        W88743  26.062  17.753   2.858
16429W        W88744   0.770  15.626   4.708
16430W        W88745  39.510   7.259   5.108
16431W        W88746  27.499  32.443   3.307
16432W        W88747  16.258  32.562   0.369
16433W        W88748  32.930   0.977  12.834
16434W        W88749  36.025   9.784  10.414
16435W        W88750   4.767  17.742   4.837
16436W        W88751  34.916  19.186  14.449
16437W        W88752   7.408  10.319  12.361
16438W        W88753  33.931  27.080  13.321
16439W        W88754   0.965   5.257  13.319
16440W        W88755   1.919  11.852  14.348
16441W        W88756  21.071   3.347   2.673
16442W        W88757  42.284  10.209   2.196
16443W        W88758  43.950   9.838  13.467
16444W        W88759  29.601  28.176   1.210
16445W        W88760  40.911  33.046   4.170
16446W        W88761  37.028  33.910   3.241
16447W        W88762  43.892  16.773  11.997
16448W        W88763   3.815   0.300  11.013
16449W        W88764  44.475   4.266   3.277
16450W        W88765  18.658  30.637   3.860
16451W        W88766  16.257   4.810  12.527
16452W        W88767  14.098   4.849  12.040
16453W        W88768  31.042  11.865  10.959
16454W        W88769   2.899  27.967  11.104
16455W        W88770  19.574  44.001   3.241
16456W        W88771  28.507   7.324   2.793
16457W        W88772   4.419  16.185  12.874
16458W        W88773  20.763  12.177  14.466
16459W        W88774  10.277  27.990   2.769
16460W        W88775  22.548   3.854  12.393
16461W        W88776  18.641  25.085   3.246
16462W        W88777   2.320  40.418  13.905
16463W        W88778   0.450  38.391   1.713
16464W        W88779  31.977  19.090  11.558
16465W        W88780  40.409  14.620  14.961
16466W        W88781  41.504  11.301  12.371
16467W        W88782  28.441  39.345  11.107
16468W        W88783   6.817  33.009   1.361
16469W        W88784   0.362  20.143  10.904
16470W        W88785  23.518  22.101  10.454
16471W        W88786   6.705  21.639   2.760
16472W        W88787  43.512  24.542   3.690
16473W        W88788  18.273  28.483  11.954
16474W        W88789  17.205  36.874  13.444
16475W        W88790  18.738  18.743   3.226
16476W        W88791  16.250  39.898   3.147
16477W        W88792   1.926  42.423   4.799
16478W        W88793  14.316  36.004  11.604
16479W        W88794  21.213   1.877  12.878
16480W        W88795  10.374  14.610  14.875
16481W        W88796  19.602  27.617  14.460
16482W        W88797  21.184   4.725   0.900
16483W        W88798  19.689   1.419  10.469
16484W        W88799  23.658  29.158   2.352
16485W        W88800  42.917  35.421   3.155
16486W        W88801  19.137  27.107  13.043
16487W        W88802  40.375   3.388  14.889
16488W        W88803  25.214  29.529  10.962
16489W        W88804  20.182  32.944  13.908
16490W        W88805  21.558   0.939  10.478
16491W        W88806  32.955   4.854  12.407
16492W        W88807  15.180  29.464  11.011
16493W        W88808   9.690  23.653  14.828
16494W        W88809  23.022  39.429  14.494
16495W        W88810   7.275  31.107  12.475
16496W        W88811  18.782   5.435   0.809
16497W        W88812  13.674   1.818   4.791
16498W        W88813   6.887  43.306   0.480
16499W        W88814  14.308  16.704   0.937
16500W        W88815  39.061  25.187   5.135
16501W        W88816   4.928  14.765   4.294
16502W        W88817  41.513  26.701   3.361
16503W        W88818  14.322   0.923  12.915
16504W        W88819   6.815  34.431   2.768
16505W        W88820  44.818   0.888  11.069
16506W        W88821  27.571   8.666   1.783
16507W        W88822  24.719  44.009  13.435
16508W        W88823  19.751   0.939  13.324
16509W        W88824  27.532  40.995  10.456
16510W        W88825  23.667   7.673  11.083
16511W        W88826  33.450   7.782  11.065
16512W        W88827  12.209  25.018   4.728
16513W        W88828  22.529   1.242   3.726
16514W        W88829   7.306   7.311  12.863
16515W        W88830  34.050  34.911   0.819
16516W        W88831   9.756  42.818   3.366
16517W        W88832   8.357  41.502   3.731
16518W        W88833  23.097  25.142  12.886
16519W        W88834  20.689  40.940  14.846
16520W        W88835  42.479  12.313  11.880
16521W        W88836   7.185  31.907  13.041
16522W        W88837  12.647  10.700  14.922
16523W        W88838  38.560  10.343   1.804
16524W        W88839  35.013  25.649   0.355
16525W        W88840  43.269   7.710   0.285
16526W        W88841   9.781  11.157   1.855
16527W        W88842  34.028  34.114   2.286
16528W        W88843  33.103  30.505  10.614
16529W        W88844   8.277  23.174   3.749
16530W        W88845   8.674  39.401   2.220
16531W        W88846  31.088  22.697   3.699
16532W        W88847  32.966  27.642  12.972
16533W        W88848  35.578  15.682  10.604
16534W        W88849  11.172  44.312   1.265
16535W        W88850  37.437  28.150   5.244
16536W        W88851  23.728  16.211  11.886
16537W        W88852  34.520  36.540   0.460
16538W        W88853   2.844  42.287  10.901
16539W        W88854   6.809  15.220   4.231
16540W        W88855   7.819  24.515  11.986
16541W        W88856   9.844  28.536  11.885
16542W        W88857  13.603   3.709  13.855
16543W        W88858  19.279  36.477  11.539
16544W        W88859  30.569  43.305  11.439
16545W        W88860  14.195  34.035  11.889
16546W        W88861   9.781  39.465  11.425
16547W        W88862  43.834  13.818   1.709
16548W        W88863  32.115  30.069  11.089
16549W        W88864  27.062  30.524   4.344
16550W        W88865  17.696  28.093  14.912
16551W        W88866  16.769  18.696  12.399
16552W        W88867  30.493  36.503  12.005
16553W        W88868  34.912  24.493   3.380
16554W        W88869   5.263  18.556   3.369
16555W        W88870  12.328  42.021   3.149
16556W        W88871  27.169  18.624  14.856
16557W        W88872   6.328   8.277  14.934
16558W        W88873   6.839  20.072   1.351
16559W        W88874  44.000  31.525  12.063
16560W        W88875  28.141  36.035  10.964
16561W        W88876  39.930  14.162  10.562
16562W        W88877  27.169  30.113   4.672
16563W        W88878  11.847  38.511  11.997
16564W        W88879  24.723   9.395  13.341
16565W        W88880  26.572  24.227   2.684
16566W        W88881  40.314  35.477   4.161
16567W        W88882  14.631   3.331   1.292
16568W        W88883  21.574  23.673   4.349
16569W        W88884   7.406  12.277  13.468
16570W        W88885  21.601   0.897   0.441
16571W        W88886  36.446  41.935  14.984
16572W        W88887   5.751  20.580  14.795
16573W        W88888  28.518  11.169   0.281
16574W        W88889  27.611  36.013   2.283
16575W        W88890  39.010  28.983  14.377
16576W        W88891  28.145   0.830  10.428
16577W        W88892  31.416  18.547   4.329
16578W        W88893  22.587   3.817   3.794
16579W        W88894  35.546   6.908   1.831
16580W        W88895  38.847  43.386  14.505
16581W        W88896  42.281  16.676  13.473
16582W        W88897   6.217  35.886   0.306
16583W        W88898  24.026  14.320  13.509
16584W        W88899   2.778   3.790   3.325
16585W        W88900  31.637   9.879   0.438
16586W        W88901  41.883  38.531   0.406
16587W        W88902  16.571  35.084  10.569
16588W        W88903  39.380  28.134  12.012
16589W        W88904  15.631  10.806   4.835
16590W        W88905  41.489   0.831   3.288
16591W        W88906  33.037  34.380  14.879
16592W        W88907  25.625  24.586   0.830
16593W        W88908  25.650  42.960  10.969
16594W        W88909  11.655  20.596  13.528
16595W        W88910  39.019  26.035  11.385
16596W        W88911  26.568  42.392  12.551
16597W        W88912  29.606  41.808  12.901
16598W        W88913  11.342  16.699  12.986
16599W        W88914   9.336   0.959   2.672
16600W        W88915   7.339   0.487   4.324
16601W        W88916  44.811  15.608   3.860
16602W        W88917   6.311  22.228  12.856
16603W        W88918   6.200  30.635  14.868
16604W        W88919  31.548  30.934  12.956
16605W        W88920  14.632  23.091  14.907
16606W        W88921   2.290  33.500   4.757
16607W        W88922  20.162  33.060  11.605
16608W        W88923  12.315  32.554  12.546
16609W        W88924   0.952  33.883   2.902
16610W        W88925  44.836   1.797   4.263
16611W        W88926  35.889   2.237  10.448
16612W        W88927  36.497  14.774  13.034
16613W        W88928  13.715  39.553   2.356
16614W        W88929  15.194  31.130  11.094
16615W        W88930  42.453  17.677   4.638
16616W        W88931  37.341  18.685  11.963
16617W        W88932  21.564  23.142  14.841
16618W        W88933   0.881  15.088   1.803
16619W        W88934  14.787  30.549  12.014
16620W        W88935  41.822   7.379  12.414
16621W        W88936   0.840  35.930  10.134
16622W        W88937  40.914   0.424  10.571
16623W        W88938  37.000  37.021  11.860
16624W        W88939  33.604  32.059   2.409
16625W        W88940  30.048  36.960   2.416
16626W        W88941  26.003  35.866  10.903
16627W        W88942  21.614  29.142   0.259
16628W        W88943  22.646  44.377   2.332
16629W        W88944   8.889   8.193   2.729
16630W        W88945  31.946  23.034   2.715
16631W        W88946  36.954  24.014  14.506
16632W        W88947  20.190   2.280  12.526
16633W        W88948  40.030   8.822   4.804
16634W        W88949  21.121  19.077   1.858
16635W        W88950  19.187  13.107  13.307
16636W        W88951   6.718  14.207   4.318
16637W        W88952  27.985  21.747   4.244
16638W        W88953  32.406  12.735  11.600
16639W        W88954  15.217  24.226   4.762
16640W        W88955   2.409  15.666   2.265
16641W        W88956  42.480  37.040   2.203
16642W        W88957  16.704   6.394  14.283
16643W        W88958  35.389  30.525   1.773
16644W        W88959  11.228  36.048   1.235
16645W        W88960  28.591  26.679  11.882
16646W        W88961   1.240  15.771   9.998
16647W        W88962  31.559   3.392   2.720
16648W        W88963  21.069  35.530  12.935
16649W        W88964  31.947  32.071  14.333
16650W        W88965  22.246  43.386   0.359
16651W        W88966  13.722  27.605   2.390
16652W        W88967  40.970  16.799   0.432
16653W        W88968   8.881  37.081   2.834
16654W        W88969   5.392  23.080   3.289
16655W        W88970  37.438  12.285  12.955
16656W        W88971  17.251  10.759  13.514
16657W        W88972  33.993  17.104  11.871
16658W        W88973  21.599  38.481   4.822
16659W        W88974   8.819  41.417  11.591
16660W        W88975  17.676  17.589   1.330
16661W        W88976  30.463  31.918   2.346
16662W        W88977  29.597  27.606   2.757
16663W        W88978  34.520  20.707   3.661
16664W        W88979  23.126   1.446   2.185
16665W        W88980  33.448  24.225   9.982
16666W        W88981   5.249  10.856  13.975
16667W        W88982   9.644  20.561   4.761
16668W        W88983  15.633  40.470  14.820
16669W        W88984  24.484  39.997   2.232
16670W        W88985  26.123  10.666   4.619
16671W        W88986  34.093   7.374   2.784
16672W        W88987  33.010   6.703   3.352
16673W        W88988  39.931   8.681   0.265
16674W        W88989  30.445  40.362   5.298
16675W        W88990  27.079   6.850   0.916
16676W        W88991  21.694   0.464  12.958
16677W        W88992  30.539  42.980  14.359
16678W        W88993  20.236  13.822  12.573
16679W        W88994  25.655  30.613  12.388
16680W        W88995  14.625   8.404   2.401
16681W        W88996  20.751  10.310  11.062
16682W        W88997  37.882   5.329  11.882
16683W        W88998  24.115  27.687  13.825
16684W        W88999   9.227  41.466  13.520
16685W        W89000  27.176  14.714   3.809
16686W        W89001  36.018  22.640   3.193
16687W        W89002  12.286   0.428  13.840
16688W        W89003  25.555  44.755  14.805
16689W        W89004   7.370  16.134   1.935
16690W        W89005   7.255   1.794  13.938
16691W        W89006  23.711  12.841  11.057
16692W        W89007  37.358  10.663   4.156
16693W        W89008  37.905  40.894  10.618
16694W        W89009  26.991  20.176   0.360
16695W        W89010  32.619  27.002   2.253
16696W        W89011  18.758  24.589   1.285
16697W        W89012  44.817  43.442   3.693
16698W        W89013  15.267  28.107   4.192
16699W        W89014   0.277  23.496   0.748
16700W        W89015  42.408   4.252  13.840
16701W        W89016   6.765  32.633   3.766
16702W        W89017  38.034   5.902  14.920
16703W        W89018  15.316  34.526   4.677
16704W        W89019  43.346  31.640  12.406
16705W        W89020   2.777  32.079   2.395
16706W        W89021  20.718   1.780  12.857
16707W        W89022  14.312  40.346  11.466
16708W        W89023  38.015  19.549   3.263
16709W        W89024  20.682  33.088  14.895
16710W        W89025  36.359  28.670   3.338
16711W        W89026  21.716  27.041  13.472
16712W        W89027  37.884  39.371  10.898
16713W        W89028  39.042  43.380   4.343
16714W        W89029  24.126   9.362   4.238
16715W        W89030  19.579  13.613   0.277
16716W        W89031  13.242   3.278  14.284
16717W        W89032   4.444  33.931   3.665
16718W        W89033  12.670  43.937  10.420
16719W        W89034   2.816  13.734  13.480
16720W        W89035  27.020  38.912   4.290
16721W        W89036  25.469  14.638  12.008
16722W        W89037  10.227   5.771   2.278
16723W        W89038  33.583  11.244  14.936
16724W        W89039  35.910  21.146   4.282
16725W        W89040  29.510   9.875   3.317
16726W        W89041  17.684   4.850   4.258
16727W        W89042   2.960  41.432   3.372
16728W        W89043   4.792  42.404  14.774
16729W        W89044  13.215  32.033   2.355
16730W        W89045  17.567  22.040  11.424
16731W        W89046  34.962  13.198   0.393
16732W        W89047  10.185  10.237  14.869
16733W        W89048  33.018  22.996  12.499
16734W        W89049   8.253  35.108   4.266
16735W        W89050  12.262   7.800  10.505
16736W        W89051   0.873  35.899  13.797
16737W        W89052  15.234  30.529  14.462
16738W        W89053  36.976  13.646  10.448
16739W        W89054  43.846  16.267  13.060
16740W        W89055   0.811   0.742  14.837
16741W        W89056  38.381  33.435  12.998
16742W        W89057  23.588   6.226   0.461
16743W        W89058   2.940   9.888  13.989
16744W        W89059  44.881   7.728   0.796
16745W        W89060   2.927   9.833   3.227
16746W        W89061  22.059  17.091   3.644
16747W        W89062   1.731   2.802  12.848
16748W        W89063  41.426  12.848   1.847
16749W        W89064  30.109  41.482  12.474
16750W        W89065  10.183  36.507   2.305
16751W        W89066   3.804  34.607   0.770
16752W        W89067  17.211  42.801  12.870
16753W        W89068  12.624  30.422  11.374
16754W        W89069  14.616   0.906  11.459
16755W        W89070  12.276  10.356  12.883
16756W        W89071  41.824   6.204  12.349
16757W        W89072  35.982  41.490   2.209
16758W        W89073   8.772  29.134  13.908
16759W        W89074  42.837   4.777   3.736
16760W        W89075  27.542  37.565  12.016
16761W        W89076  19.170  38.885  11.037
16762W        W89077  44.987  11.269   2.867
16763W        W89078   0.776  37.836   3.763
16764W        W89079  25.489  15.759   0.246
16765W        W89080   7.692  44.833  12.999
16766W        W89081  38.368  33.552   1.803
16767W        W89082  27.177  26.703  14.819
16768W        W89083  43.001   0.369   3.156
16769W        W89084  34.525  44.432   3.176
16770W        W89085  34.461  40.352  13.405
16771W        W89086  31.451  26.700   2.898
16772W        W89087  33.568  17.295   4.293
16773W        W89088  17.694  40.888  13.800
16774W        W89089  40.916  29.000   4.151
16775W        W89090   4.805  19.219  14.358
16776W        W89091  12.342  29.947   4.808
16777W        W89092  26.481  16.579  12.421
16778W        W89093  28.623  38.951   4.749
16779W        W89094   9.852  27.597  13.428
16780W        W89095  17.619  42.462   0.272
16781W        W89096   1.301   1.948  12.547
16782W        W89097  17.123  44.320  12.566
16783W        W89098  43.776  26.035  14.417
16784W        W89099  25.172   8.252   2.403
16785W        W89100   0.329  38.421  14.811
16786W        W89101  43.866   5.755  11.037
16787W        W89102  39.403   4.859  12.537
16788W        W89103  17.571  18.285   3.338
16789W        W89104  22.616  14.221  11.470
16790W        W89105   3.830  39.827  13.864
16791W        W89106  40.922  42.418  12.427
16792W        W89107  37.901  27.659  12.477
16793W        W89108  26.670  26.614   1.381
16794W        W89109  39.055  32.478  12.507
16795W        W89110   1.771  26.174  11.914
16796W        W89111  23.023  36.364   4.789
16797W        W89112  15.328   7.695   0.928
16798W        W89113  28.139   2.248   2.762
16799W        W89114  25.691  35.986  13.950
16800W        W89115  14.785  14.106   1.342
16801W        W89116  42.457   4.809   2.368
16802W        W89117  42.473  20.268   4.134
16803W        W89118   0.939  33.041   0.250
16804W        W89119   6.375  27.629   3.668
16805W        W89120  19.120   6.828   2.214
16806W        W89121  42.469  13.643  10.575
16807W        W89122  31.070  30.043   2.209
16808W        W89123   9.150  12.140   3.382
16809W        W89124  34.917  10.319   3.254
16810W        W89125  40.833  29.147   3.730
16811W        W89126   9.220  25.477   1.920
16812W        W89127   0.898  22.503  11.548
16813W        W89128  31.452  12.740   0.828
16814W        W89129  12.739  42.319   3.146
16815W        W89130   8.399  31.145  14.881
16816W        W89131  20.191  17.578   1.920
16817W        W89132  18.572   5.914   2.714
16818W        W89133  33.896  31.962  12.079
16819W        W89134  22.509  41.351  14.881
16820W        W89135  23.650  15.292   2.780
16821W        W89136  43.975  14.698  13.319
16822W        W89137  19.117  18.582   4.642
16823W        W89138   5.907  41.793   4.332
16824W        W89139   6.232  44.262  10.092
16825W        W89140  33.579  11.761  13.839
16826W        W89141   5.699  42.443  14.506
16827W        W89142  20.596  40.839   1.831
16828W        W89143   9.656  28.095  10.540
16829W        W89144   4.861  20.261  13.873
16830W        W89145   5.270  21.255   3.835
16831W        W89146  27.077   5.852  13.883
16832W        W89147  25.573  44.825  13.440
16833W        W89148  17.112  32.027  13.907
16834W        W89149  34.542  29.100   4.601
16835W        W89150   1.874  13.652  11.612
16836W        W89151  22.718  41.509  14.454
16837W        W89152   7.753  16.579   2.381
16838W        W89153  25.064  25.492  12.411
16839W        W89154   1.801   9.370  10.643
16840W        W89155  32.402  22.243  13.997
16841W        W89156   1.787   7.310  12.029
16842W        W89157  32.569   6.280   2.727
16843W        W89158  29.119  44.486   3.858
16844W        W89159  24.158  43.325  13.794
16845W        W89160   6.755  32.424  12.995
16846W        W89161  19.765   1.809  14.789
16847W        W89162  19.770  17.101  13.495
16848W        W89163  10.325  23.163  14.949
16849W        W89164   6.261   0.823  12.086
16850W        W89165  20.083  22.564   0.260
16851W        W89166  15.610  40.810   3.241
16852W        W89167  15.141  10.841   1.890
16853W        W89168   6.291  41.892  14.304
16854W        W89169  44.927  17.715   1.797
16855W        W89170  42.959   5.255  14.866
16856W        W89171  25.027  26.156   2.801
16857W        W89172   6.351  25.022  11.009
16858W        W89173   5.292   1.444   3.713
16859W        W89174   9.785  28.560   1.211
16860W        W89175  36.898  17.219  10.541
16861W        W89176   7.908  41.807   3.242
16862W        W89177  14.202  26.984   1.861
16863W        W89178  19.148  17.073   4.757
16864W        W89179  27.023  14.239   0.877
16865W        W89180   1.442   9.792   2.406
16866W        W89181  22.642  33.113   4.328
16867W        W89182   2.429  19.091  14.005
16868W        W89183  34.596  30.105   2.801
16869W        W89184  44.354   4.428  14.915
16870W        W89185   8.216   1.774   3.661
16871W        W89186  21.735   4.859  14.330
16872W        W89187  38.940  37.066  14.440
16873W        W89188   4.262   1.898   3.233
16874W        W89189  21.657  22.540   1.746
16875W        W89190   7.205  38.067   0.277
16876W        W89191  34.002  25.471  12.525
16877W        W89192  42.977   7.177  13.809
16878W        W89193  36.002  20.597  11.127
16879W        W89194  28.641   8.793   4.227
16880W        W89195  37.038   2.863  14.875
16881W        W89196  17.787  21.643  14.408
16882W        W89197  28.561  31.476   9.494
16883W        W89198  17.628  22.213  13.055
16884W        W89199   9.240  13.709   4.202
16885W        W89200  22.726  43.379   2.851
16886W        W89201   2.824  37.032  14.961
16887W        W89202  13.757  42.952   1.921
16888W        W89203  25.566  42.939  10.408
16889W        W89204  35.081  18.787  14.805
16890W        W89205   7.398  44.457  13.491
16891W        W89206  34.879  24.146  12.536
16892W        W89207   2.388  10.819  13.794
16893W        W89208  20.060  25.695  14.784
16894W        W89209  29.628   3.402  11.550
16895W        W89210  34.892   7.848   3.741
16896W        W89211  41.035  36.492   0.318
16897W        W89212  43.391  10.771   1.789
16898W        W89213  26.629  25.010  14.286
16899W        W89214  28.651   0.975   0.374
16900W        W89215   6.214  22.681   2.828
16901W        W89216  42.011   4.208   4.224
16902W        W89217   4.890  19.715   2.828
16903W        W89218  36.468  23.648  14.806
16904W        W89219  32.068   4.739   5.216
16905W        W89220  13.305   8.675  10.044
16906W        W89221  39.438   4.259   3.287
16907W        W89222  38.521   7.363  11.567
16908W        W89223  42.894   1.896   2.794
16909W        W89224  14.638  30.156  12.479
16910W        W89225  32.426  15.730   1.866
16911W        W89226  15.759  44.761   2.803
16912W        W89227  30.086  13.605   0.384
16913W        W89228  18.721  11.731  13.950
16914W        W89229  39.983  10.648  12.060
16915W        W89230   7.768   3.946  14.952
16916W        W89231   9.745  33.089   4.160
16917W        W89232  37.382   5.692  10.996
16918W        W89233   9.797  26.500  13.531
16919W        W89234  24.678  27.998  11.502
16920W        W89235   4.724  17.575  12.059
16921W        W89236  33.609  20.147   4.274
16922W        W89237  39.455  33.044  12.971
16923W        W89238  23.700  35.982   3.783
16924W        W89239  33.887  42.476   2.331
16925W        W89240   5.776  33.118   4.620
16926W        W89241  34.521   9.376  12.825
16927W        W89242  43.989   5.317   2.803
16928W        W89243  39.808   5.282   3.730
16929W        W89244  37.037  41.426  13.862
16930W        W89245  36.590  23.139  10.625
16931W        W89246  22.170  20.252  10.956
16932W        W89247   7.407   7.746  11.398
16933W        W89248   2.746   2.736  12.068
16934W        W89249  33.388  18.552  13.424
16935W        W89250  19.763  22.238  11.052
16936W        W89251  41.428  26.654   0.793
16937W        W89252   4.854   1.834  10.504
16938W        W89253  35.980  41.906   0.290
16939W        W89254   8.862  29.933   2.840
16940W        W89255  27.170  20.064   4.753
16941W        W89256  27.113  31.485   2.772
16942W        W89257   7.708  25.004   9.996
16943W        W89258  42.015  34.436   0.377
16944W        W89259  26.199  32.575   3.725
16945W        W89260  17.598  11.742   2.362
16946W        W89261  35.597   9.187  11.502
16947W        W89262  37.940  44.761  14.764
16948W        W89263  21.627  21.713   5.682
16949W        W89264  18.061  35.379  10.513
16950W        W89265  41.801  39.534   1.314
16951W        W89266  35.466  39.825   1.397
16952W        W89267  39.033   9.844  14.963
16953W        W89268  41.299   4.321   3.801
16954W        W89269   3.767  18.246  13.832
16955W        W89270  18.785  13.306   1.409
16956W        W89271  23.580  22.628   1.767
16957W        W89272  41.521   6.757  13.832
16958W        W89273  13.780  16.643   4.677
16959W        W89274   2.838  32.038   4.156
16960W        W89275  38.879  33.574   2.854
16961W        W89276  17.599  16.161  14.337
16962W        W89277  39.052  32.946   1.697
16963W        W89278   1.283  42.841   4.797
16964W        W89279  25.212   2.354  10.575
16965W        W89280   8.831  24.982   2.370
16966W        W89281  32.458  12.189  11.062
16967W        W89282  17.198  19.579  14.427
16968W        W89283  43.513  14.748   4.688
16969W        W89284  18.209  10.244  11.489
16970W        W89285  27.983   1.870  10.618
16971W        W89286  22.179   2.371   0.878
16972W        W89287   2.461  42.506   2.741
16973W        W89288  19.718  39.469   4.257
16974W        W89289   4.299  28.967  12.544
16975W        W89290  34.436   1.389   1.802
16976W        W89291  22.219   1.450  12.060
16977W        W89292  24.151  18.287   5.311
16978W        W89293  36.375  30.420  14.795
16979W        W89294   7.227  40.008   0.741
16980W        W89295  41.340  13.646  11.506
16981W        W89296  26.589  22.154   3.867
16982W        W89297  27.002  26.595   2.298
16983W        W89298  31.615  19.211   3.191
16984W        W89299  41.935  21.186  14.806
16985W        W89300  13.171  13.785  13.434
16986W        W89301  17.666   7.873   1.739
16987W        W89302  20.153   6.365   2.408
16988W        W89303  31.911   6.831   3.824
16989W        W89304  14.594  10.154   4.168
16990W        W89305  20.534   0.483   3.228
16991W        W89306  27.482  17.625   0.842
16992W        W89307  16.704  29.652  12.940
16993W        W89308  32.634   2.357   3.387
16994W        W89309  41.333  18.223  14.461
16995W        W89310  38.046  16.620   1.924
16996W        W89311   8.197  13.635  10.897
16997W        W89312  34.383  27.957  14.773
16998W        W89313   6.745  42.871  10.492
16999W        W89314  39.510  29.044   4.616
17000W        W89315   3.894   6.741   2.684
17001W        W89316  44.934   9.742  10.951
17002W        W89317  22.067   6.797   1.319
17003W        W89318  31.905  19.094   0.911
17004W        W89319  21.758  31.041   4.618
17005W        W89320  41.920  10.211   4.320
17006W        W89321  22.208  18.732   4.624
17007W        W89322  33.090  13.653  13.907
17008W        W89323  31.107  19.074   3.742
17009W        W89324  32.058  14.306   0.330
17010W        W89325  43.868  24.178  10.586
17011W        W89326  34.047  28.132  11.086
17012W        W89327  26.050  30.026   2.665
17013W        W89328   2.735  13.778   3.383
17014W        W89329   2.402   0.926   3.744
17015W        W89330  17.706  12.125  10.640
17016W        W89331  36.512  24.157  12.039
17017W        W89332   7.340  23.111   0.904
17018W        W89333  29.668   4.230   2.340
17019W        W89334  33.621  27.635  10.965
17020W        W89335  24.187  20.128   3.230
17021W        W89336  28.965  10.345  12.579
17022W        W89337   9.729   3.379  10.938
17023W        W89338  20.555  40.989   3.691
17024W        W89339  26.587  20.235   4.247
17025W        W89340   5.354  13.343  10.550
17026W        W89341  13.192  30.045   1.779
17027W        W89342  44.477  44.298  13.943
17028W        W89343  35.536   1.811  14.928
17029W        W89344  37.015  14.199   3.229
17030W        W89345  15.718  41.980   3.247
17031W        W89346  12.809   3.317   1.786
17032W        W89347  36.365  12.224   1.766
17033W        W89348  43.792  30.634   1.760
17034W        W89349  10.842  40.943  14.970
17035W        W89350   1.779   6.713  10.527
17036W        W89351  35.516   8.859   3.811
17037W        W89352  30.586  26.136  11.476
17038W        W89353  29.920  35.437   0.303
17039W        W89354  35.923  27.689   4.721
17040W        W89355  39.514   1.323  12.541
17041W        W89356   2.250  28.147   4.708
17042W        W89357  14.095   7.866   1.451
17043W        W89358  33.600  31.530   0.258
17044W        W89359  20.753  44.438   2.893
17045W        W89360  39.932  11.339   0.457
17046W        W89361  32.543  43.872  14.287
17047W        W89362  11.688  33.876  12.988
17048W        W89363  13.685  41.530   4.216
17049W        W89364  19.064   3.319   0.445
17050W        W89365  30.514  33.437   2.216
17051W        W89366   0.328  44.421  11.082
17052W        W89367  38.886   6.744   4.244
17053W        W89368  25.100  17.135   2.344
17054W        W89369   2.403  10.720  10.448
17055W        W89370  10.332  41.993  11.093
17056W        W89371  18.651  27.626   1.366
17057W        W89372   9.690   0.356  10.586
17058W        W89373  33.911  18.717   1.339
17059W        W89374  35.384  30.996  13.527
17060W        W89375   9.269  16.080   0.967
17061W        W89376  26.114  18.067  13.904
17062W        W89377  23.646   1.829  11.901
17063W        W89378   5.330  29.109   1.853
17064W        W89379  31.419  41.358   2.236
17065W        W89380  36.016  21.218  10.517
17066W        W89381  12.285  43.424   0.751
17067W        W89382  44.423  41.405  12.938
17068W        W89383   2.927  33.420   0.270
17069W        W89384  15.152  15.705  10.627
17070W        W89385  35.981  27.663   2.704
17071W        W89386  37.516  18.590  14.794
17072W        W89387  21.112  31.578   4.181
17073W        W89388  33.558  42.980   0.349
17074W        W89389  31.515  36.383   1.789
17075W        W89390  31.496  23.190   3.829
17076W        W89391  32.510   6.243  13.492
17077W        W89392  14.307   5.921   2.205
17078W        W89393  17.619  43.848   2.835
17079W        W89394   1.411  18.084  14.852
17080W        W89395   1.755  32.534   0.330
17081W        W89396  30.115  44.922  14.299
17082W        W89397   1.884  15.104  11.381
17083W        W89398  37.336  31.609  12.575
17084W        W89399  17.223  21.239  11.476
17085W        W89400  28.603   3.716  10.626
17086W        W89401  12.244  38.563   1.764
17087W        W89402  36.434  12.691  11.093
17088W        W89403  16.297  14.590  13.449
17089W        W89404  20.749  30.134  10.608
17090W        W89405  27.154  26.126  13.057
17091W        W89406  40.979  30.642   4.736
17092W        W89407  30.959   1.422  14.929
17093W        W89408   6.371  36.919   2.709
17094W        W89409  28.587  31.492  12.834
17095W        W89410  31.612  10.266   4.808
17096W        W89411  27.166  27.067   3.219
17097W        W89412  34.930  38.364  11.055
17098W        W89413  29.173  26.058   3.672
17099W        W89414  28.615  12.318   1.753
17100W        W89415  14.117  16.311  13.356
17101W        W89416   4.305  33.391   1.254
17102W        W89417   7.381  17.563  10.446
17103W        W89418  26.637   5.421   2.675
17104W        W89419  29.938  44.346   3.169
17105W        W89420  44.325  25.099   1.321
17106W        W89421  14.614   1.951  11.884
17107W        W89422  38.018  31.944   1.432
17108W        W89423   7.911  39.359   4.819
17109W        W89424  16.604   0.841  10.903
17110W        W89425  36.440  40.331   2.789
17111W        W89426  33.581   6.876   2.360
17112W        W89427  38.511  42.465  13.547
17113W        W89428  35.455  12.241   1.438
17114W        W89429  35.376  36.572   2.237
17115W        W89430  12.227  34.981  10.540
17116W        W89431   5.272   6.865  13.889
17117W        W89432  10.290  18.281  11.509
17118W        W89433  40.932  25.531  12.481
17119W        W89434  28.442  42.442   2.197
17120W        W89435  13.214  31.495   0.347
17121W        W89436  44.385  31.993  11.108
17122W        W89437   1.929   7.222  14.018
17123W        W89438  22.570  43.287   1.747
17124W        W89439  10.826  28.486  11.559
17125W        W89440  19.198  29.924  14.392
17126W        W89441  13.688   3.230   0.481
17127W        W89442  28.500  23.006   4.768
17128W        W89443  16.723  44.319  13.933
17129W        W89444  43.378  11.286   5.758
17130W        W89445  26.161  44.279   4.754
17131W        W89446   7.765   7.255   2.686
17132W        W89447  39.478  34.018  12.447
17133W        W89448  44.476  33.465   2.276
17134W        W89449  15.207  37.999   2.811
17135W        W89450  27.019   3.244   4.807
17136W        W89451  25.001  30.587   2.220
17137W        W89452   5.348  39.556  13.926
17138W        W89453  35.552   6.389   2.679
17139W        W89454  23.715   6.269  14.009
17140W        W89455  34.873   9.737   3.688
17141W        W89456  20.184  18.662  14.997
17142W        W89457  27.112   6.849  11.999
17143W        W89458  43.331   9.262   4.310
17144W        W89459  15.813  13.144   2.734
17145W        W89460   7.893  37.022  14.767
17146W        W89461  24.126  25.491  10.935
17147W        W89462  12.289  33.514  11.579
17148W        W89463  28.116  44.441  10.640
17149W        W89464   3.328   4.372  12.387
17150W        W89465   1.753  19.117  14.506
17151W        W89466  44.836  14.764   2.885
17152W        W89467  28.513  21.078  10.952
17153W        W89468  31.437   1.369   2.760
17154W        W89469  42.349  33.618   4.179
17155W        W89470   0.898  43.843   2.837
17156W        W89471  43.270  18.053  14.009
17157W        W89472  37.053  35.529   3.672
17158W        W89473  35.869   6.876  10.545
17159W        W89474  37.351  43.011  10.922
17160W        W89475  26.206  28.971  12.951
17161W        W89476  10.827  41.926   1.289
17162W        W89477  21.064  20.046   0.764
17163W        W89478  42.020  31.643   1.251
17164W        W89479   3.945  26.548  12.058
17165W        W89480  35.369  36.006  11.562
17166W        W89481  14.649  17.626   2.261
17167W        W89482  17.061   0.805   5.318
17168W        W89483   7.876  40.502  11.920
17169W        W89484  14.146   6.253   3.767
17170W        W89485  13.667  14.792   2.316
17171W        W89486   2.248  22.081   4.769
17172W        W89487  20.624  20.031  13.338
17173W        W89488  23.196  21.166   1.895
17174W        W89489  26.142  35.036   4.348
17175W        W89490  39.327  28.133   2.294
17176W        W89491  35.904  43.292  12.910
17177W        W89492   1.256  40.471  10.625
17178W        W89493  26.465  10.209  13.003
17179W        W89494   0.784   5.435  12.423
17180W        W89495  24.140   8.187   2.320
17181W        W89496   2.382  29.523  10.065
17182W        W89497  25.622  41.364  13.967
17183W        W89498  36.354  36.509  13.486
17184W        W89499  19.715   6.736   3.638
17185W        W89500  41.351  16.671   2.815
17186W        W89501  28.089  23.233   0.800
17187W        W89502   4.432   9.836   0.449
17188W        W89503  34.895   6.803   4.793
17189W        W89504   6.189  29.587  11.004
17190W        W89505  28.543  22.119   3.151
17191W        W89506  35.546  32.627  12.840
17192W        W89507  10.198  44.365  14.759
17193W        W89508  15.693   4.891  11.546
17194W        W89509  16.209  15.242   2.311
17195W        W89510   2.873  41.787  12.978
17196W        W89511  32.407  19.750  12.404
17197W        W89512  15.284  29.447  13.481
17198W        W89513  39.030  23.495  13.040
17199W        W89514  12.151   3.849  10.512
17200W        W89515   0.953   9.674  10.960
17201W        W89516  33.535  35.075  13.021
17202W        W89517   1.889  25.622  12.458
17203W        W89518  10.689   1.407  12.414
17204W        W89519   6.254  24.142   3.190
17205W        W89520  31.485  40.447   4.733
17206W        W89521  27.554  10.241  11.951
17207W        W89522  28.155  21.700  13.878
17208W        W89523  12.837   2.734  10.531
17209W        W89524  14.717  10.234  11.584
17210W        W89525   2.310   9.737   4.254
17211W        W89526  31.117  43.852   0.890
17212W        W89527  24.523  34.446   2.814
17213W        W89528   4.416  39.461  11.121
17214W        W89529  22.722  29.993  13.040
17215W        W89530  16.244  25.615   1.262
17216W        W89531  44.463  35.364   1.920
17217W        W89532  21.180  11.818   1.223
17218W        W89533   0.824  42.423   2.335
17219W        W89534  22.139  14.598  11.572
17220W        W89535  28.558  18.067  12.516
17221W        W89536   5.805  40.871   3.641
17222W        W89537  11.183   6.727  12.898
17223W        W89538  40.342  16.708  13.540
17224W        W89539  43.842  30.987   2.767
17225W        W89540   1.456  42.402  12.572
17226W        W89541  20.739  16.670  11.016
17227W        W89542  34.965  43.354   4.653
17228W        W89543  39.454  26.177   2.259
17229W        W89544  11.346  41.808  12.381
17230W        W89545  18.680  16.297   1.394
17231W        W89546  27.482  23.530   2.200
17232W        W89547  27.992  24.563   3.724
17233W        W89548  11.279  40.507   3.636
17234W        W89549  29.594  41.440  14.024
17235W        W89550  21.702  24.127   4.613
17236W        W89551  11.817  19.584   0.260
17237W        W89552  43.328   9.226  13.467
17238W        W89553  17.270   8.289   1.868
17239W        W89554  12.127  23.212  12.409
17240W        W89555  31.635  38.563  13.518
17241W        W89556  31.140  27.627   3.316
17242W        W89557   2.247  20.703   4.217
17243W        W89558   9.180  43.515   1.236
17244W        W89559  13.629  13.764   4.693
17245W        W89560   8.179  24.064   4.197
17246W        W89561  15.580  32.622  14.332
17247W        W89562  42.471  36.420   0.415
17248W        W89563  34.450  41.860  13.965
17249W        W89564   3.839  31.552   1.768
17250W        W89565   9.207  18.218  14.315
17251W        W89566   1.338  21.606   0.277
17252W        W89567  44.429   7.775   1.726
17253W        W89568   2.809   9.217   3.372
17254W        W89569  19.636   3.840   4.144
17255W        W89570  36.385  43.997  12.984
17256W        W89571  28.168  10.158  14.324
17257W        W89572  39.912  14.628  12.390
17258W        W89573  34.871   9.798  13.817
17259W        W89574  38.519  43.366   3.322
17260W        W89575  42.870   7.222  12.975
17261W        W89576  14.600   6.233   2.705
17262W        W89577  39.423  35.449   0.878
17263W        W89578  26.018   1.787  14.294
17264W        W89579  36.438  28.080  13.454
17265W        W89580  25.065  42.002  13.392
17266W        W89581  16.154   4.770   1.846
17267W        W89582  16.737  29.008  11.049
17268W        W89583  14.817  22.511  10.106
17269W        W89584  20.051  15.618   4.801
17270W        W89585   1.482  24.482   1.886
17271W        W89586  25.560   4.779   3.288
17272W        W89587  43.337  17.592  14.513
17273W        W89588  16.217  43.388  12.547
17274W        W89589  27.077  16.612   4.824
17275W        W89590  24.672  36.397  14.281
17276W        W89591  29.464  35.080   3.242
17277W        W89592   3.426  32.421  10.519
17278W        W89593   7.726  42.487   3.693
17279W        W89594  44.326  25.148  14.830
17280W        W89595  13.683  35.539   1.864
17281W        W89596  26.574  41.989  13.462
17282W        W89597  25.524   3.753  11.104
17283W        W89598  29.973  23.083  10.610
17284W        W89599   0.861   9.726  14.429
17285W        W89600   0.331  20.169   2.695
17286W        W89601  35.953   4.270   2.196
17287W        W89602  40.944  20.737  13.503
17288W        W89603  35.494  25.019   0.897
17289W        W89604   8.350   8.173  12.565
17290W        W89605  36.040  36.581   0.401
17291W        W89606  37.520  18.750  14.383
17292W        W89607  41.823  10.331  12.978
17293W        W89608  29.669  40.974   2.726
17294W        W89609  36.347  20.635   1.260
17295W        W89610  25.043   8.804   3.387
17296W        W89611   8.223  12.269  10.593
17297W        W89612  36.466  32.939  12.939
17298W        W89613  26.977  11.278  14.921
17299W        W89614  27.564  36.087  10.963
17300W        W89615  15.674   0.427   4.323
17301W        W89616  25.705  39.022  11.899
17302W        W89617  19.224  10.638   5.664
17303W        W89618  23.516  39.037  10.914
17304W        W89619  38.488  13.138  13.847
17305W        W89620   3.246  29.501  14.029
17306W        W89621  34.041  30.972   4.609
17307W        W89622  42.920   5.355   3.352
17308W        W89623   4.827  25.594   3.788
17309W        W89624  11.649  40.036   4.203
17310W        W89625  20.208   7.849   4.344
17311W        W89626  17.571  16.661   2.661
17312W        W89627  11.186   7.677   1.813
17313W        W89628  12.666   7.731   2.374
17314W        W89629  18.553  23.209   4.114
17315W        W89630  41.430  25.541  14.014
17316W        W89631  11.726  21.533   2.417
17317W        W89632  10.382  31.966   1.230
17318W        W89633  41.981  13.177   4.725
17319W        W89634  20.694  33.526  13.912
17320W        W89635  19.195  14.116   2.407
17321W        W89636   8.175  11.623  13.893
17322W        W89637  16.292  14.314  13.019
17323W        W89638   8.403  15.662   2.839
17324W        W89639  29.488  35.490  12.476
17325W        W89640   3.829   6.848  13.359
17326W        W89641  11.336  38.547   4.779
17327W        W89642   0.443  15.146  10.458
17328W        W89643  32.556  30.480  12.464
17329W        W89644  18.055   9.383  12.540
17330W        W89645  10.185  23.155  13.955
17331W        W89646   5.882   3.364  10.486
17332W        W89647  42.901   0.388  12.962
17333W        W89648  41.509  37.073   1.393
17334W        W89649  38.865  18.744  12.376
17335W        W89650   9.313  41.008  11.983
17336W        W89651  15.780  23.054   0.380
17337W        W89652  42.032   0.331  11.451
17338W        W89653  44.474  22.585   3.233
17339W        W89654  41.371  10.287  12.967
17340W        W89655  35.412  22.220   3.756
17341W        W89656  15.618  42.283  14.931
17342W        W89657  41.894  10.256   1.217
17343W        W89658  42.289   9.246   3.813
17344W        W89659  36.067  19.727  10.899
17345W        W89660   8.404  21.193   5.310
17346W        W89661  15.235   9.230  13.532
17347W        W89662   3.457   1.377  10.902
17348W        W89663  44.396  12.850   0.300
17349W        W89664  13.323  25.484   1.334
17350W        W89665  39.941   5.765  14.493
17351W        W89666  27.472   1.940  10.940
17352W        W89667   8.385  26.122  12.429
17353W        W89668   4.225  19.085   2.306
17354W        W89669  14.195  23.578  12.346
17355W        W89670  38.989  13.293  11.440
17356W        W89671  41.821  43.943   3.756
17357W        W89672  33.875  15.204   2.814
17358W        W89673  23.049  40.890   4.169
17359W        W89674  29.549  35.446   1.244
17360W        W89675  16.762   4.265  10.557
17361W        W89676  44.403  17.140   5.112
17362W        W89677  33.388   2.449  11.902
17363W        W89678   3.299  41.964   1.445
17364W        W89679  31.489  30.088   3.298
17365W        W89680  29.018  44.976  11.932
17366W        W89681  43.482   6.858   4.803
17367W        W89682  37.920  25.649   1.293
17368W        W89683   4.869   9.314  10.580
17369W        W89684  18.572  31.539   0.840
17370W        W89685  36.379  16.161   2.895
17371W        W89686  22.731  21.752   3.758
17372W        W89687  18.102  29.157  10.472
17373W        W89688   5.397  36.420  11.451
17374W        W89689  13.682  28.550  13.418
17375W        W89690   5.337  26.618   0.828
17376W        W89691  37.867  17.651  11.019
17377W        W89692  11.240  23.517   4.230
17378W        W89693  24.117   8.246  12.366
17379W        W89694  32.039   1.954  12.399
17380W        W89695  43.852   4.855  13.846
17381W        W89696  36.909  29.521  13.813
17382W        W89697  37.925  20.030  12.561
17383W        W89698  25.560  10.676   0.752
17384W        W89699  24.098  29.639   1.292
17385W        W89700  17.794  12.838   0.750
17386W        W89701  42.369  43.784   3.745
17387W        W89702  39.545  37.028  12.984
17388W        W89703  42.462  31.908   3.644
17389W        W89704  22.650  44.390  13.331
17390W        W89705  31.999  20.649   1.723
17391W        W89706  15.613  14.814   1.884
17392W        W89707  41.451   3.747   4.780
17393W        W89708  42.989  26.055   1.704
17394W        W89709  23.021  13.154  13.375
17395W        W89710  11.716  13.773  11.957
17396W        W89711  35.948   0.465   3.339
17397W        W89712  12.305   3.460   1.771
17398W        W89713  39.994   9.890   4.658
17399W        W89714  25.500  24.031   1.241
17400W        W89715   4.939  19.653   4.267
17401W        W89716  11.154  33.954   2.765
17402W        W89717  11.691  41.032   2.754
17403W        W89718  36.575   2.448  13.920
17404W        W89719  23.600  42.294  14.321
17405W        W89720  31.480  35.372  12.921
17406W        W89721  12.790  39.908  13.404
17407W        W89722  27.959  17.176   0.781
17408W        W89723   6.754  38.355   4.168
17409W        W89724  26.626  32.458  13.479
17410W        W89725  15.129  19.572   1.322
17411W        W89726  12.134  18.107   1.286
17412W        W89727   3.938  20.716   0.337
17413W        W89728  28.573   5.363   3.858
17414W        W89729  43.344   1.915   4.342
17415W        W89730  18.294  12.310  10.006
17416W        W89731  27.049  31.599  13.052
17417W        W89732  40.356   2.301  11.096
17418W        W89733   0.837  25.160   1.910
17419W        W89734  44.979   2.349   1.913
17420W        W89735  15.140   4.866  10.903
17421W        W89736  39.387  43.508  14.017
17422W        W89737   4.244   4.858   4.245
17423W        W89738   2.734  30.943  11.428
17424W        W89739   0.432  37.517  14.512
17425W        W89740  32.111   2.840   2.689
17426W        W89741   7.389  34.868   0.783
17427W        W89742   9.644   4.788   3.246
17428W        W89743  42.802  29.451   1.895
17429W        W89744  25.072   6.256  13.058
17430W        W89745  26.666  44.498   5.184
17431W        W89746  43.999   2.408   3.337
17432W        W89747  34.935  27.964  12.075
17433W        W89748   1.920  35.042   4.313
17434W        W89749  13.246   5.201  11.899
17435W        W89750  28.949  15.272   2.409
17436W        W89751  20.615   7.172  12.839
17437W        W89752  29.652  33.930   4.176
17438W        W89753   9.197  31.099  11.560
17439W        W89754  26.060  30.002  12.039
17440W        W89755  21.592  24.028   1.321
17441W        W89756   2.833  29.478   1.766
17442W        W89757  43.359  23.736   0.880
17443W        W89758  10.350  38.411  10.134
17444W        W89759   7.415  43.969   2.221
17445W        W89760  34.930  41.377   1.255
17446W        W89761   3.460  19.206  11.080
17447W        W89762   3.316  34.408  13.898
17448W        W89763  25.084  44.287  11.482
17449W        W89764  33.380   0.427   3.244
17450W        W89765   9.334   7.344   2.865
17451W        W89766  44.268  39.952   2.182
17452W        W89767  25.631  30.916  12.433
17453W        W89768  41.824  22.540   5.201
17454W        W89769  41.825  21.143  10.437
17455W        W89770  29.640  33.474  12.890
17456W        W89771  27.584  10.215  13.894
17457W        W89772  35.036  14.299  10.890
17458W        W89773  11.371  44.355  14.406
17459W        W89774  10.818   4.387  13.898
17460W        W89775  10.690   2.905   2.772
17461W        W89776  13.792  21.537  14.861
17462W        W89777  16.310  38.567  11.940
17463W        W89778  44.498  41.968  13.523
17464W        W89779  14.165  28.051   1.732
17465W        W89780  33.466  11.261   9.946
17466W        W89781  38.516  15.188   3.674
17467W        W89782  44.447   1.775  11.036
17468W        W89783  18.175  19.274  11.522
17469W        W89784  10.739  40.425   9.964
17470W        W89785  40.444  35.364   1.821
17471W        W89786   3.805  15.638   2.302
17472W        W89787   7.305  19.202  12.367
17473W        W89788  18.095   8.804  13.926
17474W        W89789  24.999  25.077  12.934
17475W        W89790  15.650  39.315   1.822
17476W        W89791  14.218  19.591   4.759
17477W        W89792  15.804  28.500  14.466
17478W        W89793  27.092  36.401   3.716
17479W        W89794  37.952  16.585   0.848
17480W        W89795   1.328  43.304  13.972
17481W        W89796  44.411   4.319  14.354
17482W        W89797  33.385  29.471  14.499
17483W        W89798   1.468  20.592  12.897
17484W        W89799  22.065  21.138  13.954
17485W        W89800  25.557  25.671   3.793
17486W        W89801  24.717  35.537   1.709
17487W        W89802  43.443   8.178   2.232
17488W        W89803   7.337  14.618   2.699
17489W        W89804  27.139  18.740   0.372
17490W        W89805  31.452  27.028   1.871
17491W        W89806  22.098  34.396   1.858
17492W        W89807   8.817  17.790   4.775
17493W        W89808  37.361  28.648  14.822
17494W        W89809  16.666  39.459   0.321
17495W        W89810   2.258  28.529   3.640
17496W        W89811  44.928  18.561   4.287
17497W        W89812  23.588  34.440   0.434
17498W        W89813   5.822  13.766   0.886
17499W        W89814  39.501   2.428   0.893
17500W        W89815  33.413  34.006   3.221
17501W        W89816  31.535  30.936   3.156
17502W        W89817  30.543   0.421  13.928
17503W        W89818   1.419  39.996  12.986
17504W        W89819  34.449   3.747  11.082
17505W        W89820  12.709   1.382   2.898
17506W        W89821  21.531  24.532  13.518
17507W        W89822  35.882  21.695  12.356
17508W        W89823  19.241  26.690   0.375
17509W        W89824  27.098  39.449   4.683
17510W        W89825  24.168   5.355   3.725
17511W        W89826  33.057  17.187   4.798
17512W        W89827  10.798  37.467   1.260
17513W        W89828   8.186  26.975   2.328
17514W        W89829   1.396  34.539   2.340
17515W        W89830   5.352  22.233   1.404
17516W        W89831  26.966  14.663   3.266
17517W        W89832  38.061  44.369   2.358
17518W        W89833  24.618   2.764   0.263
17519W        W89834  17.174  29.640  10.130
17520W        W89835   3.871   0.887  13.017
17521W        W89836  43.363  27.122   3.831
17522W        W89837  37.861  13.197  11.395
17523W        W89838  20.242  15.763  14.762
17524W        W89839  24.080   5.898   1.225
17525W        W89840  21.073   7.273   0.752
17526W        W89841   6.689  16.702   0.315
17527W        W89842  15.283  32.084  13.342
17528W        W89843   9.212  33.596  11.458
17529W        W89844  15.128  40.336   2.737
17530W        W89845  36.894   7.315  12.541
17531W        W89846  40.520  16.317   3.379
17532W        W89847  15.235  21.208  10.577
17533W        W89848  23.597   1.802   4.178
17534W        W89849  36.472   4.929   4.752
17535W        W89850  17.602   1.481   1.370
17536W        W89851  10.321  27.153   3.171
17537W        W89852  20.721   9.295  13.324
17538W        W89853  44.280   2.727  12.485
17539W        W89854  18.658  29.077  10.420
17540W        W89855  30.922   8.660  10.022
17541W        W89856  12.239  21.736  10.483
17542W        W89857   0.350   3.368   4.829
17543W        W89858  11.716  40.994   0.915
17544W        W89859  18.619  36.962   1.284
17545W        W89860  19.052  35.421  13.403
17546W        W89861  33.995  12.306   0.921
17547W        W89862   3.364  19.063   4.720
17548W        W89863  11.712  40.538   1.903
17549W        W89864  20.699  39.381   3.236
17550W        W89865   2.908  14.304   3.243
17551W        W89866  37.535  31.020   3.212
17552W        W89867  11.157  24.203  12.481
17553W        W89868  30.456   2.726   3.780
17554W        W89869  38.550  31.566  14.446
17555W        W89870  42.445  22.622   0.457
17556W        W89871  23.997  33.410  11.027
17557W        W89872  15.778  31.903   1.892
17558W        W89873  26.486  21.748  11.467
17559W        W89874   7.249  14.096   1.449
17560W        W89875  43.855  28.157   2.281
17561W        W89876   3.363   7.197   3.260
17562W        W89877  33.589   6.241   3.655
17563W        W89878  42.432  33.596   0.402
17564W        W89879  34.902  28.502   0.272
17565W        W89880  32.998  23.718  12.518
17566W        W89881   4.241  43.833  14.482
17567W        W89882  37.004  32.496  12.033
17568W        W89883  40.512  29.070   1.810
17569W        W89884  33.950  23.089  14.806
17570W        W89885  31.603  10.686  10.414
17571W        W89886  12.118  10.846  14.511
17572W        W89887  25.478   0.809   2.853
17573W        W89888  32.410   0.803  13.857
17574W        W89889  25.638   7.875  10.439
17575W        W89890  27.080  18.257   3.384
17576W        W89891   6.871  23.495   1.248
17577W        W89892   5.195  30.517  14.009
17578W        W89893  19.735  24.555  12.904
17579W        W89894  41.918  27.102   3.781
17580W        W89895   1.339  27.584   0.310
17581W        W89896  34.933  11.186   4.790
17582W        W89897  21.745   7.244   1.920
17583W        W89898  31.624   4.874  14.998
17584W        W89899  16.300   4.388   4.283
17585W        W89900  19.045  28.044   0.427
17586W        W89901  36.556  19.567  13.831
17587W        W89902  15.718  32.007   3.860
17588W        W89903  34.612  42.314   4.768
17589W        W89904  42.784   7.743   3.266
17590W        W89905  31.020   4.203  11.975
17591W        W89906   3.728  27.557   0.944
17592W        W89907   0.893  29.626   3.680
17593W        W89908  25.105  41.999  14.370
17594W        W89909  23.632   5.437   1.369
17595W        W89910  22.557   8.210  13.990
17596W        W89911  24.570   4.216  10.436
17597W        W89912  41.805  43.385  10.959
17598W        W89913  32.006  29.593   3.685
17599W        W89914   9.770  14.120   1.422
17600W        W89915  31.104  14.103   4.838
17601W        W89916  34.455  20.650  13.964
17602W        W89917  13.113  21.206   1.905
17603W        W89918  43.949   7.372  11.039
17604W        W89919   0.914  41.002   1.421
17605W        W89920  32.017   2.880  13.025
17606W        W89921  13.289   9.728  14.944
17607W        W89922   1.464  40.866  14.432
17608W        W89923  18.240  33.404   3.827
17609W        W89924   7.304  35.576  14.832
17610W        W89925   2.893  14.133   0.823
17611W        W89926  22.145  15.577   3.286
17612W        W89927  12.735  42.885  10.437
17613W        W89928   2.721  31.496   3.306
17614W        W89929   8.715  32.569   0.434
17615W        W89930  42.785   7.213  10.557
17616W        W89931  23.653  33.052  14.299
17617W        W89932  43.943  39.392   4.802
17618W        W89933  38.441  35.425  14.983
17619W        W89934  13.825   7.884  13.005
17620W        W89935  36.884   3.242   3.867
17621W        W89936   9.340   8.851   1.840
17622W        W89937   5.772  33.934   0.410
17623W        W89938  44.923  37.380  13.360
17624W        W89939  29.622  35.487   4.189
17625W        W89940  34.959  13.176   2.370
17626W        W89941   3.361  44.011   1.279
17627W        W89942  41.341  23.525  10.983
17628W        W89943   8.302   9.164   1.814
17629W        W89944   6.763   6.730  11.584
17630W        W89945  43.953  10.824   5.291
17631W        W89946  17.233   1.784  13.462
17632W        W89947  29.572  39.423  12.018
17633W        W89948  41.973  30.147  13.481
17634W        W89949  23.576   2.340  13.439
17635W        W89950  34.507  12.247  12.933
17636W        W89951  15.772  15.254  14.838
17637W        W89952  19.679   8.860   0.764
17638W        W89953  37.411  38.829   1.891
17639W        W89954   9.233   5.406   0.397
17640W        W89955  12.162   3.461  10.139
17641W        W89956  35.901  38.337  13.951
17642W        W89957   3.318  25.479  12.085
17643W        W89958  16.157  33.486   0.796
17644W        W89959  24.516  11.360  11.948
17645W        W89960  31.518  11.652   1.367
17646W        W89961  21.061   6.387   4.173
17647W        W89962  13.779  13.196   4.728
17648W        W89963   4.415  30.941   4.623
17649W        W89964  39.434  22.247   2.353
17650W        W89965   0.373  37.418  10.925
17651W        W89966   0.466   5.373   0.884
17652W        W89967  20.050  28.641  14.440
17653W        W89968  29.583  19.139  12.422
17654W        W89969  33.052   8.729  11.478
17655W        W89970  39.497  25.559   0.454
17656W        W89971  22.105  32.986   0.950
17657W        W89972  22.153   3.265   4.667
17658W        W89973  28.987  10.202  13.322
17659W        W89974   6.275  44.981   0.344
17660W        W89975  17.700  29.506   1.311
17661W        W89976   5.277  38.479   2.200
17662W        W89977  15.190  13.713   4.226
17663W        W89978   3.731   1.767  12.025
17664W        W89979   5.707  13.175  12.884
17665W        W89980   5.780  25.972  10.992
17666W        W89981  38.366  43.895   4.308
17667W        W89982   1.438  15.697   2.756
17668W        W89983   6.735  17.117  12.037
17669W        W89984   5.753   1.425  12.577
17670W        W89985   3.884  33.424   0.410
17671W        W89986   3.296   2.318   2.901
17672W        W89987   8.369  12.343   2.757
17673W        W89988  38.025   2.436  13.042
17674W        W89989  13.745  42.803   2.197
17675W        W89990  39.426  40.982   1.309
17676W        W89991  41.535  19.168   0.365
17677W        W89992  43.883   1.282   4.267
17678W        W89993  15.113  19.616  11.964
17679W        W89994  17.086   3.352   5.152
17680W        W89995  23.100   9.310   4.723
17681W        W89996   7.319  20.144   0.851
17682W        W89997  13.108   8.160   4.662
17683W        W89998  44.430  15.726  14.806
17684W        W89999  33.059  17.747  12.345
17685W        W90000  33.894  37.568  10.470
17686W        W90001  36.563  26.043  11.019
17687W        W90002  10.315  27.461  10.093
17688W        W90003  28.957   1.441  12.484
17689W        W90004  11.242  38.964   3.327
17690W        W90005  16.745  36.414   3.630
17691W        W90006  17.694  41.347  10.599
17692W        W90007  40.446  10.306  10.946
17693W        W90008  23.071  17.256   2.407
17694W        W90009   1.400  34.950   4.735
17695W        W90010  10.299   0.324  13.478
17696W        W90011  23.539  37.851   2.848
17697W        W90012  30.074  24.021  11.889
17698W        W90013  10.743  32.057   1.763
17699W        W90014  12.228  10.154  14.448
17700W        W90015  12.294  39.369  14.368
17701W        W90016  43.007   4.918  10.032
17702W        W90017  12.725  19.690  14.284
17703W        W90018   5.323   5.811   0.304
17704W        W90019  27.091   2.291   4.343
17705W        W90020  14.263  22.514   4.255
17706W        W90021   0.821  22.038  14.469
17707W        W90022  35.555  39.537   4.168
17708W        W90023  26.998  18.141  14.799
17709W        W90024  41.419  34.583  13.321
17710W        W90025  34.422   1.754  12.046
17711W        W90026  30.652  37.918  13.376
17712W        W90027   9.655  13.833   2.748
17713W        W90028  24.024   7.331  13.927
17714W        W90029  11.676  32.097  12.429
17715W        W90030  25.064  39.868   4.761
17716W        W90031  20.571   5.337  13.049
17717W        W90032  43.369  34.545  14.873
17718W        W90033  32.139  19.546   0.770
17719W        W90034   4.272  10.655  14.932
17720W        W90035  32.047  21.524  10.581
17721W        W90036  14.240  10.141  12.544
17722W        W90037  14.329  32.116   1.444
17723W        W90038  21.630  29.165   4.299
17724W        W90039   1.483  26.674   3.696
17725W        W90040   5.402  16.653  10.538
17726W        W90041   1.307  40.332   4.735
17727W        W90042  37.907  42.940  14.504
17728W        W90043   2.879  12.333   0.417
17729W        W90044  41.020  20.193   4.743
17730W        W90045  16.619  33.581   4.824
17731W        W90046  23.623  23.680  11.587
17732W        W90047  43.295  37.403   0.830
17733W        W90048  29.124  27.667   1.746
17734W        W90049  44.762  34.515   4.770
17735W        W90050  43.462   2.833   1.783
17736W        W90051   9.332  21.183  14.998
17737W        W90052  27.056  25.713  14.298
17738W        W90053  40.863  25.201   0.827
17739W        W90054  37.910  42.014  13.850
17740W        W90055  31.424  19.111   3.756
17741W        W90056  34.392  39.495  11.935
17742W        W90057  43.908   3.793   2.827
17743W        W90058  39.022  38.903   5.096
17744W        W90059   7.185  15.086  14.351
17745W        W90060  11.368  25.641   4.348
17746W        W90061  37.576  21.173  13.854
17747W        W90062   3.278  17.201   2.409
17748W        W90063  31.148  42.904  13.428
17749W        W90064  30.057  24.197   0.350
17750W        W90065   6.209  22.576  11.492
17751W        W90066   0.399  22.587  12.525
17752W        W90067   0.796   7.893   4.726
17753W        W90068  37.925   8.804  14.979
17754W        W90069   8.691  41.353  12.519
17755W        W90070  15.648  30.571  13.335
17756W        W90071  20.757   7.411   3.260
17757W        W90072  31.441  14.154   2.219
17758W        W90073  13.245  44.477   1.919
17759W        W90074  39.535  38.375  13.904
17760W        W90075  32.131  18.105  12.982
17761W        W90076  26.665  15.771   2.374
17762W        W90077  14.125  17.301  11.587
17763W        W90078   2.759  23.702  11.955
17764W        W90079  25.527  41.967   2.299
17765W        W90080  21.746  41.360   0.269
17766W        W90081  19.565  22.611   3.735
17767W        W90082  30.563  18.629  12.961
17768W        W90083  18.189   6.185  10.415
17769W        W90084  13.794  18.290   3.729
17770W        W90085  15.668  23.020   4.147
17771W        W90086  33.544  32.890  13.356
17772W        W90087   1.818  27.055  14.421
17773W        W90088  21.146  17.126  14.984
17774W        W90089  28.002  28.137   4.317
17775W        W90090   7.249  44.970   0.313
17776W        W90091  44.772  31.992  13.919
17777W        W90092  32.433  26.557  13.999
17778W        W90093  40.548   3.728  13.900
17779W        W90094  41.037  34.399  14.281
17780W        W90095  35.424  31.086  14.911
17781W        W90096  18.212  33.883  13.914
17782W        W90097  28.171  20.712   3.284
17783W        W90098  20.635  41.331  13.484
17784W        W90099  25.652  43.008  13.399
17785W        W90100  39.985  25.630  14.025
17786W        W90101  12.139   1.474  12.501
17787W        W90102  11.699   0.839  13.814
17788W        W90103   6.238  15.610  12.950
17789W        W90104   7.781  13.259   4.629
17790W        W90105   2.860  24.023   3.809
17791W        W90106   9.191  24.024  13.804
17792W        W90107  35.403  24.559   2.362
17793W        W90108   2.872  41.487   0.381
17794W        W90109  34.543  10.328   0.833
17795W        W90110  37.041  27.126  14.820
17796W        W90111  22.151  38.499   4.173
17797W        W90112  16.664   8.263  10.466
17798W        W90113  41.369  44.456   1.733
17799W        W90114  40.478  32.957   3.839
17800W        W90115  26.571  15.703   5.194
17801W        W90116  29.614  32.553   3.845
17802W        W90117  35.424  19.690  11.953
17803W        W90118  23.052  37.342  10.998
17804W        W90119  24.530  12.703   0.306
17805W        W90120  23.133  34.941   1.876
17806W        W90121  25.146  14.225  14.400
17807W        W90122  23.194  41.808  12.899
17808W        W90123   2.940  17.752  14.314
17809W        W90124   5.860  40.896   1.763
17810W        W90125  26.657  35.935   1.933
17811W        W90126  26.169  25.083  10.513
17812W        W90127   7.409  15.112   3.720
17813W        W90128  12.635  27.137  12.948
17814W        W90129  24.980   6.717   2.661
17815W        W90130  14.171  15.755   4.750
17816W        W90131  25.645  14.589   2.695
17817W        W90132  19.779  34.593  14.924
17818W        W90133  17.643  27.661  14.277
17819W        W90134  34.873  15.613  10.898
17820W        W90135  24.705  29.579  12.895
17821W        W90136  26.972  44.817  13.932
17822W        W90137  27.031  40.377  10.520
17823W        W90138   7.171  17.083  12.424
17824W        W90139  21.182  34.072   2.215
17825W        W90140  15.157  33.016   1.344
17826W        W90141   6.185  25.105  13.424
17827W        W90142  30.568  14.311   2.244
17828W        W90143  43.506  29.156   0.888
17829W        W90144  34.463   4.729  11.054
17830W        W90145  42.827  38.828   3.715
17831W        W90146  36.528  12.665   1.382
17832W        W90147  32.932  44.801   0.383
17833W        W90148   4.939  42.013  11.519
17834W        W90149   5.781   1.368   3.269
17835W        W90150  43.289  17.265  11.059
17836W        W90151  16.751  39.431   1.232
17837W        W90152  32.994  40.445   2.377
17838W        W90153  39.371   1.422  14.944
17839W        W90154   7.401   7.819   2.223
17840W        W90155  11.257  26.683   3.680
17841W        W90156  16.100   4.945   0.883
17842W        W90157   9.728  27.551  10.624
17843W        W90158   6.237  38.047   2.731
17844W        W90159  36.874  12.793   3.632
17845W        W90160   3.304  43.293  12.956
17846W        W90161   4.941  41.354  10.996
17847W        W90162   9.159  27.496  11.046
17848W        W90163  13.764   7.215  10.506
17849W        W90164  43.947   8.883   3.353
17850W        W90165  36.403  11.693   2.798
17851W        W90166  11.328  28.594  11.579
17852W        W90167  26.606  36.353   4.610
17853W        W90168  24.091  16.579  10.471
17854W        W90169  35.472   3.237   1.342
17855W        W90170  39.905  29.145   0.757
17856W        W90171  23.207  18.638  10.941
17857W        W90172  27.508  38.335  11.398
17858W        W90173  25.714  26.651  10.002
17859W        W90174  17.715  39.512  11.492
17860W        W90175  32.417  22.213  14.486
17861W        W90176  14.263  11.325  10.603
17862W        W90177  36.499  38.931   3.375
17863W        W90178  23.010   2.764   1.397
17864W        W90179  44.883  22.655  12.887
17865W        W90180  19.679   4.369  14.344
17866W        W90181  34.037  28.029   0.244
17867W        W90182  37.030  30.046  12.010
17868W        W90183  35.904  37.988  11.538
17869W        W90184  19.180   3.281  10.045
17870W        W90185  26.670   3.802  13.339
17871W        W90186   5.726  20.042  11.125
17872W        W90187   7.708  44.999   2.250
17873W        W90188  38.019   8.178   3.652
17874W        W90189  14.333   9.835   4.186
17875W        W90190  10.632   1.451   4.691
17876W        W90191  15.686  17.612   4.235
17877W        W90192  10.855   3.746  12.969
17878W        W90193  23.556  40.335  13.820
17879W        W90194  22.218  10.167  11.525
17880W        W90195   8.337  34.883  10.521
17881W        W90196   4.237  13.644  13.443
17882W        W90197  10.179   4.722  14.873
17883W        W90198  22.575   2.323  12.993
17884W        W90199  19.250  33.477   4.731
17885W        W90200  31.435  36.893   4.351
17886W        W90201  15.123  25.625   2.814
17887W        W90202   5.208  41.490  10.542
17888W        W90203  15.098   1.373   4.271
17889W        W90204  34.535  17.100  13.532
17890W        W90205  32.516  18.121   0.300
17891W        W90206  37.346  42.486   0.809
17892W        W90207  26.159  21.722  11.435
17893W        W90208  31.966  35.927  12.545
17894W        W90209  40.360  33.951   0.310
17895W        W90210  34.020  35.368  13.948
17896W        W90211  23.509  43.977   2.662
17897W        W90212  34.060  37.029  11.578
17898W        W90213  35.974  38.973  10.409
17899W        W90214  31.931   6.222  13.320
17900W        W90215  17.169  16.647   3.273
17901W        W90216  32.120  40.826   3.187
17902W        W90217  21.124  41.037  12.374
17903W        W90218  27.039  28.504   1.738
17904W        W90219   1.399  26.697  14.279
17905W        W90220  26.527   0.877   3.156
17906W        W90221  38.974   9.875   2.398
17907W        W90222  41.446  43.353  13.540
17908W        W90223  44.483  19.213  14.828
17909W        W90224  21.146  43.790  13.311
17910W        W90225  24.973  35.472  12.379
17911W        W90226  28.621  44.475   2.347
17912W        W90227  33.914  20.685  11.071
17913W        W90228  18.694  10.384   3.203
17914W        W90229  41.888  34.381   4.261
17915W        W90230  10.739  21.518  10.421
17916W        W90231   9.150  22.091   2.734
17917W        W90232   8.311  42.431  12.874
17918W        W90233   0.888   3.336  14.478
17919W        W90234  14.647  18.289   3.204
17920W        W90235   6.714  12.205   0.880
17921W        W90236  22.717   3.418  12.867
17922W        W90237  30.075   7.780  12.940
17923W        W90238  17.064  43.895  10.542
17924W        W90239  20.568   0.807  13.015
17925W        W90240  13.341   6.705  11.081
17926W        W90241  11.232  42.402   4.658
17927W        W90242   9.782   4.378   0.400
17928W        W90243  17.232   5.740   0.929
17929W        W90244  40.947  43.004  12.444
17930W        W90245   4.941   4.289   1.391
17931W        W90246  33.405   4.275  12.070
17932W        W90247  30.914   2.399   4.688
17933W        W90248  42.907  31.642  13.484
17934W        W90249  35.599   7.762  11.982
17935W        W90250  28.112  25.076  12.570
17936W        W90251  34.502  40.329  11.502
17937W        W90252  19.749   2.333   3.226
17938W        W90253  13.716   1.409   3.761
17939W        W90254  40.401  10.715  11.540
17940W        W90255  42.515  23.006  13.938
17941W        W90256  37.513  26.129   0.806
17942W        W90257   9.718  42.025   3.305
17943W        W90258  23.112  30.041  13.817
17944W        W90259   2.746  43.795   3.339
17945W        W90260   2.332  20.654   4.663
17946W        W90261  44.425  27.651   3.838
17947W        W90262   4.751   2.741   0.866
17948W        W90263  19.599  27.131  13.945
17949W        W90264  33.403  14.661   4.806
17950W        W90265   0.859  24.510  12.835
17951W        W90266   1.248  40.978   1.855
17952W        W90267   8.835  22.706  13.883
17953W        W90268   5.268  26.631  12.545
17954W        W90269  28.048  14.243   1.426
17955W        W90270  27.134  25.707  14.018
17956W        W90271  26.542  38.345  13.506
17957W        W90272  37.495   4.348  10.523
17958W        W90273   8.843  42.326   4.117
17959W        W90274  43.928  33.568   0.963
17960W        W90275   1.483  24.979   1.880
17961W        W90276  23.059   5.436   2.187
17962W        W90277  43.782  16.109   2.374
17963W        W90278  22.540  13.257   9.934
17964W        W90279  25.184  12.251   2.377
17965W        W90280  27.479   7.673   4.177
17966W        W90281   6.249  12.746   4.604
17967W        W90282  11.241  28.148   2.353
17968W        W90283  28.617  31.428   1.714
17969W        W90284  42.932  44.458  12.050
17970W        W90285  32.016  31.897  11.941
17971W        W90286   0.810  30.509   0.271
17972W        W90287  35.915  39.471  13.314
17973W        W90288  38.045  11.653   1.874
17974W        W90289  14.756   8.844   2.774
17975W        W90290  13.312  15.800  12.954
17976W        W90291  11.683  33.490  14.815
17977W        W90292   3.219   0.787  11.111
17978W        W90293   3.241  10.708   3.667
17979W        W90294  23.149  24.093  10.601
17980W        W90295   1.858  25.054  10.903
17981W        W90296   3.257  19.747  12.523
17982W        W90297  23.730   6.785  13.031
17983W        W90298  10.262  28.000  11.959
17984W        W90299  19.631  15.822  10.945
17985W        W90300   4.893  26.583  13.838
17986W        W90301  32.394  25.644  14.278
17987W        W90302  40.943  21.643   4.123
17988W        W90303   0.321  28.617  13.851
17989W        W90304  13.831  16.217  12.020
17990W        W90305  19.576  19.068   4.791
17991W        W90306  28.566  40.302   1.787
17992W        W90307   4.749  41.965   0.804
17993W        W90308   6.345   0.863   2.895
17994W        W90309   2.949  33.963  14.821
17995W        W90310  42.298  17.293   2.670
17996W        W90311  25.567   4.391   1.770
17997W        W90312   2.426  15.239  13.050
17998W        W90313  44.338  18.785  12.000
17999W        W90314  28.480   3.890  14.890
18000W        W90315  41.490  38.983   0.842
18001W        W90316  33.051   3.288  12.372
18002W        W90317  42.512  14.262   2.694
18003W        W90318  22.696  20.697   5.176
18004W        W90319  20.704   4.877  11.039
18005W        W90320   9.816  40.806   1.898
18006W        W90321  18.661  34.972   4.188
18007W        W90322  26.544  32.087   9.572
18008W        W90323   6.901  34.517   4.657
18009W        W90324   1.409  18.635  14.028
18010W        W90325  15.776  28.187   0.398
18011W        W90326   4.411  13.301  14.885
18012W        W90327  30.927  18.745   0.257
18013W        W90328  35.595  11.308  10.926
18014W        W90329  20.659   1.891   2.830
18015W        W90330  42.404  40.393   4.623
18016W        W90331  15.818  29.039  10.569
18017W        W90332   7.708  35.956   4.798
18018W        W90333  24.592  36.088   4.183
18019W        W90334   3.742  27.641  14.378
18020W        W90335  22.118  38.549   0.395
18021W        W90336  35.535  17.205  11.492
18022W        W90337  36.960  29.925  12.339
18023W        W90338  26.984  30.983   2.787
18024W        W90339  29.496  31.597   3.786
18025W        W90340  36.451  29.157   2.189
18026W        W90341  20.609   1.907   2.240
18027W        W90342  29.580  22.680  10.608
18028W        W90343  20.106  11.753  10.096
18029W        W90344   2.945   0.940  10.498
18030W        W90345  44.451   1.947  14.470
18031W        W90346  15.248  26.478  10.035
18032W        W90347   8.405  14.632   3.241
18033W        W90348   0.812   4.426  11.463
18034W        W90349  31.493   9.159  11.976
18035W        W90350  20.127  15.315   2.375
18036W        W90351  13.750   5.376   0.853
18037W        W90352  30.090  11.176   3.374
18038W        W90353   3.337  32.062   0.854
18039W        W90354  38.927  10.670  10.483
18040W        W90355   9.273  28.665  12.076
18041W        W90356  27.447  43.442  13.020
18042W        W90357  29.006  31.007  11.377
18043W        W90358  19.703  23.491   3.153
18044W        W90359  12.188  17.303  10.012
18045W        W90360  40.328  27.603   3.351
18046W        W90361  36.447  14.663   2.223
18047W        W90362   9.873  39.982   4.648
18048W        W90363  41.899  39.859   3.281
18049W        W90364  19.652  28.615  14.826
18050W        W90365  20.185   4.744   5.276
18051W        W90366   8.309  17.103  14.276
18052W        W90367  13.827   1.808  13.384
18053W        W90368  35.504  40.523   2.367
18054W        W90369  19.545  13.108   4.764
18055W        W90370  31.154  38.484  13.356
18056W        W90371   9.214  11.632  14.848
18057W        W90372   4.718   1.391   0.847
18058W        W90373  42.779  11.738   1.721
18059W        W90374   0.395  14.676   4.607
18060W        W90375  37.038  35.889   3.309
18061W        W90376   8.873  31.998  11.121
18062W        W90377   6.286   6.277   3.673
18063W        W90378  19.688   5.715   4.221
18064W        W90379  17.276  13.690  10.415
18065W        W90380   2.301   0.440   1.254
18066W        W90381  23.510  35.932   0.244
18067W        W90382  42.983   9.759   1.795
18068W        W90383  22.713  31.438  13.953
18069W        W90384  35.939  21.179   3.170
18070W        W90385  41.513   9.297  11.942
18071W        W90386  40.535  14.179   3.865
18072W        W90387  29.125  10.657   3.842
18073W        W90388  42.499   9.235  14.313
18074W        W90389  37.928  12.749   2.807
18075W        W90390  10.650  32.088   1.285
18076W        W90391  28.110  11.757  12.043
18077W        W90392  35.363  42.949   4.779
18078W        W90393   7.910  40.520  10.426
18079W        W90394   1.429  43.844   4.304
18080W        W90395  42.335  33.016   1.233
18081W        W90396  20.230  30.634   3.740
18082W        W90397  11.800  42.343   1.352
18083W        W90398  27.186  35.939  12.375
18084W        W90399  27.493  26.661  13.392
18085W        W90400  11.164   0.396  11.980
18086W        W90401  39.513  44.801  13.460
18087W        W90402  24.997   5.432   9.957
18088W        W90403  12.646  43.773  14.434
18089W        W90404  27.528  15.136  11.480
18090W        W90405  32.126  10.681   3.693
18091W        W90406  23.079   6.351  14.463
18092W        W90407  29.547  15.664  10.153
18093W        W90408  38.942  29.146  12.864
18094W        W90409   2.883   3.831  14.353
18095W        W90410  14.588  19.144  10.426
18096W        W90411  29.173  28.459   2.394
18097W        W90412   5.728   3.937   1.437
18098W        W90413  41.489  12.633   3.835
18099W        W90414   9.713  38.539   3.810
18100W        W90415  15.245  24.138   0.270
18101W        W90416  42.361  19.110  10.904
18102W        W90417  43.861  27.454  11.929
18103W        W90418  29.964  42.781  11.049
18104W        W90419   1.940  20.767  13.337
18105W        W90420  32.056  12.773   4.311
18106W        W90421  29.104  43.816   2.417
18107W        W90422   4.443   2.379   1.277
18108W        W90423  21.057  41.304  14.408
18109W        W90424   7.188  43.999   1.803
18110W        W90425  33.517  32.044   0.932
18111W        W90426  24.523  37.897   1.780
18112W        W90427  43.477  37.339   1.783
18113W        W90428  23.567   2.373  14.851
18114W        W90429   8.890  23.496  11.065
18115W        W90430  12.850  31.907  13.808
18116W        W90431  20.697  44.917   1.862
18117W        W90432   0.461  21.570   0.831
18118W        W90433  18.138  40.996   1.217
18119W        W90434  25.117  24.666  14.288
18120W        W90435   5.361  38.833  13.312
18121W        W90436  32.557  32.564   1.745
18122W        W90437  19.635   3.892   0.838
18123W        W90438  33.398  36.088   4.125
18124W        W90439   8.295  38.510   0.308
18125W        W90440  20.558  41.305  14.919
18126W        W90441  36.575  28.999  11.383
18127W        W90442  23.493  42.283  12.414
18128W        W90443  30.611  19.242  12.947
18129W        W90444  34.374  38.406  11.601
18130W        W90445  10.711  11.353  11.067
18131W        W90446   4.749   6.919  14.961
18132W        W90447  24.068  35.059  14.480
18133W        W90448  27.169   1.281  11.922
18134W        W90449   0.948  15.203   4.209
18135W        W90450  24.490  33.381   4.350
18136W        W90451  25.036   4.351   1.381
18137W        W90452   5.760  24.562  14.027
18138W        W90453  24.568  16.171  14.317
18139W        W90454  18.123   6.749  13.462
18140W        W90455  33.412  30.625   3.281
18141W        W90456  23.105  39.410  12.499
18142W        W90457  24.053  26.525   5.138
18143W        W90458  11.256  29.592   3.320
18144W        W90459  39.890  37.367   3.631
18145W        W90460  41.432  22.239  14.004
18146W        W90461  32.458   3.406  10.146
18147W        W90462   6.739  37.478   3.634
18148W        W90463  22.044  42.356  14.867
18149W        W90464   0.947   2.418  13.405
18150W        W90465   7.270  33.127  12.980
18151W        W90466  37.890  12.837  14.432
18152W        W90467  34.994  22.189  14.412
18153W        W90468  36.049  18.677   4.766
18154W        W90469  21.092  19.738   0.854
18155W        W90470  36.896  17.664   3.170
18156W        W90471   9.761  38.872  12.843
18157W        W90472  27.499  22.542  14.945
18158W        W90473  21.537  35.474   3.657
18159W        W90474  18.584  21.090   2.397
18160W        W90475  43.983  34.399   4.310
18161W        W90476  44.847   8.693  14.446
18162W        W90477  37.939   1.394  13.310
18163W        W90478   0.318  35.859  10.552
18164W        W90479   9.241  27.517   4.328
18165W        W90480  32.444  37.990  11.007
18166W        W90481  37.528  27.527   3.751
18167W        W90482  39.353  24.055  14.766
18168W        W90483   0.962  14.174  11.013
18169W        W90484  19.282   3.894  14.437
18170W        W90485  27.002   6.715   1.865
18171W        W90486   6.867  22.660   2.342
18172W        W90487  40.940  22.117   0.848
18173W        W90488  18.560  10.811   2.825
18174W        W90489  22.178  34.539   2.686
18175W        W90490   4.818  24.577  10.408
18176W        W90491   4.235   2.393   0.924
18177W        W90492  33.568  32.068  12.438
18178W        W90493  42.837  14.119  12.555
18179W        W90494  23.035  10.684  11.900
18180W        W90495  25.007   2.248   4.293
18181W        W90496   9.815  41.366  11.053
18182W        W90497  25.674  26.528   0.905
18183W        W90498   6.731   0.309   0.466
18184W        W90499  37.982  30.050   1.886
18185W        W90500   2.407  40.329   4.159
18186W        W90501  34.921  15.587   0.845
18187W        W90502  12.683  22.682   0.340
18188W        W90503  11.249  32.568   2.200
18189W        W90504  23.544  30.107   3.791
18190W        W90505  20.547   1.320  14.461
18191W        W90506   2.330  23.689   1.908
18192W        W90507  32.528  38.841  13.390
18193W        W90508  38.921  41.852   1.287
18194W        W90509  15.201  33.391  11.129
18195W        W90510  34.867  27.018   2.845
18196W        W90511  17.239  38.381   9.993
18197W        W90512  30.080  21.175   2.399
18198W        W90513   5.920  18.142   1.859
18199W        W90514  14.275  11.831  11.023
18200W        W90515  39.496   7.726  12.506
18201W        W90516  19.566  23.674   4.694
18202W        W90517   8.361  10.733   1.447
18203W        W90518  40.464   8.231  12.879
18204W        W90519  38.072  27.662  13.405
18205W        W90520  18.277   4.433  13.425
18206W        W90521  41.333  42.287   2.208
18207W        W90522   0.435  22.158   0.915
18208W        W90523  39.357   9.313  11.569
18209W        W90524  37.519  13.599   0.349
18210W        W90525  23.725  10.803  10.587
18211W        W90526  19.664  38.351  10.489
18212W        W90527  34.083  37.423  14.938
18213W        W90528  24.153  38.344  11.129
18214W        W90529  29.969  22.649   4.824
18215W        W90530  31.147  21.258  10.489
18216W        W90531  23.590  21.264  11.062
18217W        W90532  38.554  41.436  12.882
18218W        W90533   0.942  35.548   1.838
18219W        W90534  32.946  19.059  12.961
18220W        W90535  10.221  28.184  10.002
18221W        W90536  40.337  13.684   0.256
18222W        W90537   7.803  13.767  13.845
18223W        W90538   5.856   0.839   1.833
18224W        W90539  14.659  36.039  13.368
18225W        W90540  10.832   8.715  13.484
18226W        W90541  41.870  21.094  10.113
18227W        W90542  22.037  33.386  11.043
18228W        W90543  23.714  33.511  11.442
18229W        W90544  18.703  26.998   0.292
18230W        W90545  29.146  14.613   2.748
18231W        W90546  42.981  42.913   4.641
18232W        W90547  16.197  13.275  12.509
18233W        W90548  20.165  38.956  14.948
18234W        W90549  42.825  36.366   5.242
18235W        W90550  22.604   2.750   3.251
18236W        W90551  31.582   5.748  14.793
18237W        W90552   5.199   7.687  11.542
18238W        W90553  13.238   4.346  15.000
18239W        W90554   8.757   5.733   2.298
18240W        W90555  13.705  31.502   1.251
18241W        W90556   0.469  33.028  13.437
18242W        W90557  13.751  23.703   1.860
18243W        W90558  28.143  28.132   1.235
18244W        W90559   9.204  28.595   4.248
18245W        W90560  35.054  38.383  13.516
18246W        W90561   3.219  24.531  14.768
18247W        W90562  39.397  43.000  14.990
18248W        W90563  11.640  26.603  13.012
18249W        W90564  40.394  19.756   1.284
18250W        W90565  35.883  34.037  12.376
18251W        W90566  28.640  27.528  12.466
18252W        W90567  39.389  29.589  11.523
18253W        W90568  22.588  41.891   0.857
18254W        W90569  10.193  19.588  12.475
18255W        W90570  44.959  23.547   2.345
18256W        W90571  32.023  30.966  11.604
18257W        W90572  17.126  14.588   4.651
18258W        W90573   8.658  14.164  11.513
18259W        W90574  15.269  10.851  14.508
18260W        W90575  11.328   8.370  11.883
18261W        W90576  14.130   6.816  11.059
18262W        W90577  27.182  40.467   4.280
18263W        W90578   4.941   2.407  12.479
18264W        W90579   8.231  40.819   0.270
18265W        W90580   5.903   2.770  14.818
18266W        W90581  18.644  17.160  12.944
18267W        W90582  12.290  11.193  13.808
18268W        W90583  30.567  24.710   2.805
18269W        W90584  30.120   3.798  14.966
18270W        W90585  20.224  14.691   4.680
18271W        W90586   3.397  43.416   2.261
18272W        W90587  28.108  27.595  11.559
18273W        W90588  34.927  16.073  11.609
18274W        W90589  21.686  13.730  12.467
18275W        W90590  35.362  39.995   4.808
18276W        W90591   9.369  37.967   1.247
18277W        W90592  11.663  41.821  10.537
18278W        W90593  30.084  39.322   3.237
18279W        W90594  19.051  11.819   3.280
18280W        W90595  35.040  19.277   0.276
18281W        W90596  19.620  25.705   0.763
18282W        W90597  42.861  11.716   1.212
18283W        W90598  34.032  33.596  14.357
18284W        W90599  42.933   4.250   1.389
18285W        W90600  18.698   3.886   1.420
18286W        W90601  28.477  13.735   0.902
18287W        W90602  13.636  17.233   4.190
18288W        W90603  42.287  14.316  14.282
18289W        W90604  42.836  34.892   2.381
18290W        W90605  14.142  37.088   0.729
18291W        W90606  34.585  32.115  12.060
18292W        W90607  16.268  14.137   4.262
18293W        W90608  42.866  20.030   3.313
18294W        W90609   3.358  26.554   1.282
18295W        W90610   1.805  22.210  10.988
18296W        W90611  14.163   9.229  11.869
18297W        W90612  37.415  18.200   2.249
18298W        W90613  10.830  19.250  11.611
18299W        W90614  14.732  30.471   3.294
18300W        W90615   5.743  15.162   3.267
18301W        W90616  16.199  39.531  10.936
18302W        W90617  17.651  29.456   4.208
18303W        W90618   7.410  11.775  12.962
18304W        W90619   4.331  34.052  12.057
18305W        W90620  22.055  12.230   4.167
18306W        W90621   4.247  18.758  14.495
18307W        W90622  11.370   4.271   0.478
18308W        W90623  15.615  20.156  11.382
18309W        W90624  14.592  17.101  10.155
18310W        W90625  28.568   7.903  13.461
18311W        W90626   8.398  10.156  12.836
18312W        W90627   3.282  18.690   2.783
18313W        W90628   5.894  34.914   2.752
18314W        W90629  41.342  29.650   0.407
18315W        W90630  10.656  24.714  12.470
18316W        W90631   5.740  29.936   4.226
18317W        W90632  15.102   0.442  14.828
18318W        W90633  31.430  31.900   0.802
18319W        W90634   1.273   9.212   0.273
18320W        W90635  44.803  18.759   1.855
18321W        W90636  32.573  38.008  13.366
18322W        W90637   4.905  33.001  12.498
18323W        W90638  42.502   3.450   2.201
18324W        W90639  38.877  33.393   0.254
18325W        W90640  33.968  40.965  13.533
18326W        W90641  15.105   6.328   2.280
18327W        W90642  32.582  31.993  11.066
18328W        W90643  10.151   9.696  11.535
18329W        W90644  17.725   3.271  11.062
18330W        W90645  13.335  22.666   1.739
18331W        W90646  42.364  10.158  12.469
18332W        W90647  30.648  33.502   0.417
18333W        W90648  28.976   0.858   1.255
18334W        W90649  27.125  41.928  14.974
18335W        W90650  36.398  40.931   2.182
18336W        W90651  41.946   4.439   2.701
18337W        W90652  35.038  14.188  12.439
18338W        W90653  12.692  43.273  14.438
18339W        W90654   0.457   5.933   4.615
18340W        W90655  40.362  10.314  11.604
18341W        W90656  18.770  10.723  12.954
18342W        W90657   6.187  24.156  10.033
18343W        W90658  15.619   5.288  10.611
18344W        W90659  25.146  15.301   2.729
18345W        W90660  38.557  36.574   0.365
18346W        W90661  36.426   1.751  13.395
18347W        W90662   7.860   1.866  10.516
18348W        W90663   1.292  40.051  14.791
18349W        W90664  35.571  30.973   0.371
18350W        W90665  18.627  16.186   4.190
18351W        W90666  39.042  42.489  11.434
18352W        W90667  33.096  38.500   1.211
18353W        W90668   0.751  14.786  14.513
18354W        W90669  18.748  38.552   1.450
18355W        W90670  39.041  14.805   0.473
18356W        W90671  10.693   4.917   2.330
18357W        W90672   4.337  34.906   2.782
18358W        W90673  22.013  21.075   1.708
18359W        W90674  29.921  38.470   3.683
18360W        W90675   5.856  43.289   4.315
18361W        W90676  23.070  40.443   2.715
18362W        W90677  21.028  27.144   0.890
18363W        W90678  40.817  25.981  11.545
18364W        W90679  28.482  24.688   4.330
18365W        W90680   9.704  16.310  12.559
18366W        W90681   5.791  33.512  11.034
18367W        W90682  34.908  15.140   4.793
18368W        W90683  19.162  17.108  11.412
18369W        W90684   2.868   6.781   4.597
18370W        W90685  22.696  28.929  10.623
18371W        W90686  26.202  33.049  13.952
18372W        W90687  11.842  10.654  12.001
18373W        W90688  13.751  41.325  11.461
18374W        W90689   8.870   7.249  12.427
18375W        W90690  20.523  42.850  11.981
18376W        W90691  14.633  41.524  12.831
18377W        W90692  39.478  29.054  11.462
18378W        W90693   6.782  42.990   5.240
18379W        W90694  34.608  43.953  13.924
18380W        W90695  30.639  26.100   0.817
18381W        W90696  24.210   3.731  10.943
18382W        W90697  18.086  41.403  12.356
18383W        W90698  25.056  27.485  14.516
18384W        W90699   4.216  43.914  11.580
18385W        W90700  16.630  39.006   5.646
18386W        W90701  40.482  19.537  11.462
18387W        W90702  32.407  44.841   4.681
18388W        W90703  43.790   5.314   3.326
18389W        W90704  16.784   9.199  14.864
18390W        W90705   7.809  12.282   2.759
18391W        W90706  11.346  17.674   2.342
18392W        W90707  33.915  11.638   1.758
18393W        W90708  43.344  23.568   5.091
18394W        W90709  36.928   2.884  10.932
18395W        W90710  16.194  42.794   4.728
18396W        W90711  20.234  15.781  12.389
18397W        W90712  27.129  15.598  12.939
18398W        W90713  36.583  29.634   0.400
18399W        W90714  25.480  23.736   4.146
18400W        W90715   4.835  28.090  12.007
18401W        W90716  34.437   0.338  14.832
18402W        W90717  43.351  43.366  14.417
18403W        W90718  36.392  22.063   2.884
18404W        W90719   5.749   3.766  14.856
18405W        W90720   1.419  26.985   3.165
18406W        W90721  13.676  34.525  11.041
18407W        W90722  16.622  24.639  13.991
18408W        W90723  43.396  15.153   1.698
18409W        W90724  28.169  37.459   0.434
18410W        W90725  40.839  17.224  14.348
18411W        W90726  32.445  37.395   1.428
18412W        W90727  43.400  36.465  13.531
18413W        W90728  14.835  26.143  14.498
18414W        W90729  28.660  19.598   1.877
18415W        W90730  37.955  41.399  11.952
18416W        W90731   4.782   0.320  14.396
18417W        W90732  11.363   3.768   1.383
18418W        W90733   2.397  15.690   0.736
18419W        W90734   2.741  33.879  11.991
18420W        W90735  29.055  22.689   1.879
18421W        W90736  25.068  14.594  12.970
18422W        W90737  20.674  38.538  11.127
18423W        W90738  41.932  44.772  10.642
18424W        W90739  21.606  20.157  14.469
18425W        W90740  35.360  11.155   1.417
18426W        W90741  27.156  31.083  13.468
18427W        W90742  44.997   0.491  13.059
18428W        W90743  38.943  42.946  14.805
18429W        W90744  13.150  40.511   5.143
18430W        W90745  35.007  31.647   4.690
18431W        W90746  11.706  34.524  14.793
18432W        W90747  15.101  34.493   0.787
18433W        W90748   0.754  12.317   4.295
18434W        W90749   9.351   8.185  12.963
18435W        W90750   8.333  35.872  11.984
18436W        W90751  37.534  22.085  11.562
18437W        W90752   3.399  40.314  11.609
18438W        W90753   5.245   6.744   3.748
18439W        W90754  10.651  12.807   5.100
18440W        W90755  25.494  39.008   0.339
18441W        W90756  23.706  37.483   1.293
18442W        W90757   2.406  21.618   3.231
18443W        W90758   7.198  41.030  12.451
18444W        W90759  18.758   3.877  14.892
18445W        W90760  43.892  12.233   1.771
18446W        W90761  17.164  22.715  12.513
18447W        W90762  41.828  35.505   2.821
18448W        W90763  13.731  13.825  12.008
18449W        W90764  29.996  44.338   2.662
18450W        W90765  40.014   7.667   3.381
18451W        W90766   0.748  15.198  13.962
18452W        W90767  19.261   4.438   1.727
18453W        W90768  21.724  16.630   1.422
18454W        W90769  26.978   3.327  13.052
18455W        W90770   2.849  19.566   1.407
18456W        W90771  44.897   3.743  12.392
18457W        W90772  14.600  19.073  11.529
18458W        W90773  38.479  10.271  12.851
18459W        W90774  14.110  13.816   0.438
18460W        W90775  36.870  43.790  13.840
18461W        W90776  42.409  29.434   1.704
18462W        W90777  41.858  43.941  14.292
18463W        W90778  24.107  22.165  11.426
18464W        W90779  42.391  27.108  14.447
18465W        W90780  17.296  15.750  11.033
18466W        W90781  24.525   8.755   0.727
18467W        W90782  40.910  40.876  10.939
18468W        W90783  18.195  24.605  14.763
18469W        W90784  18.179  29.546   4.714
18470W        W90785  28.967  39.934   0.259
18471W        W90786  33.548  33.421  14.357
18472W        W90787  40.012  32.402   0.798
18473W        W90788  36.464  24.497   3.689
18474W        W90789  25.679  10.705   1.927
18475W        W90790   0.912   9.792  11.959
18476W        W90791  32.932  30.060   4.310
18477W        W90792  15.092   6.270  10.888
18478W        W90793  24.541  41.482   3.828
18479W        W90794   7.216  14.612  13.037
18480W        W90795  10.643  10.294  12.472
18481W        W90796  41.011  12.683  10.621
18482W        W90797  34.546  17.774  10.452
18483W        W90798  25.704  41.388  13.063
18484W        W90799  21.533   4.926  14.030
18485W        W90800  16.650  35.449   2.728
18486W        W90801   2.282  23.547   4.136
18487W        W90802  20.274  10.867   4.324
18488W        W90803  30.459  14.133   4.247
18489W        W90804  22.120   6.197  14.291
18490W        W90805   3.940  14.207  11.072
18491W        W90806  28.478  16.163  14.947
18492W        W90807  25.200   3.365   1.801
18493W        W90808   4.224   6.336   3.245
18494W        W90809  25.208  36.909   3.335
18495W        W90810  33.894  38.443  14.286
18496W        W90811  30.419   6.710  13.488
18497W        W90812   6.300   9.795   2.276
18498W        W90813  30.001   3.834  12.365
18499W        W90814   0.396  21.199  14.834
18500W        W90815  43.932   3.718   3.715
18501W        W90816  20.578  17.769  12.489
18502W        W90817  35.575  17.290  14.888
18503W        W90818  27.480  11.710   4.835
18504W        W90819  10.285  37.439  12.531
18505W        W90820  21.236   7.815  14.959
18506W        W90821  31.917  27.021   0.864
18507W        W90822   4.789  12.256  12.825
18508W        W90823  39.995  41.504  11.862
18509W        W90824  37.083  18.590   2.682
18510W        W90825  19.155  36.010  12.057
18511W        W90826   9.194  27.138  10.512
18512W        W90827  37.856  24.693  12.013
18513W        W90828  12.339  24.536  13.800
18514W        W90829  28.061  32.573  10.589
18515W        W90830   3.412  17.114   3.386
18516W        W90831   5.898  40.478  13.473
18517W        W90832  13.770  24.029   2.734
18518W        W90833  11.752   3.270   4.287
18519W        W90834  35.043  36.430   4.711
18520W        W90835  16.154  36.938  14.906
18521W        W90836   6.396  19.136  14.004
18522W        W90837  10.866   9.305   3.856
18523W        W90838  14.302  17.570   0.793
18524W        W90839  19.739  39.485   4.625
18525W        W90840  25.660  17.242   0.734
18526W        W90841  16.685  22.735   0.954
18527W        W90842   0.465   5.803   1.248
18528W        W90843  30.950  23.509  10.910
18529W        W90844  25.079   3.780  13.522
18530W        W90845  41.311  44.392  13.443
18531W        W90846  13.109  24.489  10.550
18532W        W90847  27.468  42.968  12.517
18533W        W90848   4.737  21.019   5.143
18534W        W90849  16.670  13.787  11.049
18535W        W90850  33.960  36.464   2.355
18536W        W90851  24.590   0.459   1.251
18537W        W90852  20.605  36.013  12.507
18538W        W90853  16.096  21.647  13.937
18539W        W90854  31.935  39.475  11.423
18540W        W90855   3.854  42.870  11.546
18541W        W90856  10.703   4.925  13.441
18542W        W90857  36.959   9.350  13.894
18543W        W90858  34.867  31.432  12.496
18544W        W90859  26.700   8.182  14.940
18545W        W90860   4.260  44.320   2.744
18546W        W90861  18.734  38.967  14.861
18547W        W90862  34.055  13.116  14.918
18548W        W90863   4.922   4.219  13.881
18549W        W90864   1.468  42.883   5.231
18550W        W90865  28.681  30.911   2.305
18551W        W90866  30.648   5.228  11.037
18552W        W90867  25.668  34.501   3.320
18553W        W90868  28.519  17.768  10.405
18554W        W90869   6.904  37.496   1.446
18555W        W90870  29.645   5.222   0.346
18556W        W90871  30.079  33.965   0.760
18557W        W90872  14.682   6.888   4.742
18558W        W90873  37.469  41.354  12.079
18559W        W90874   0.304  42.783  10.475
18560W        W90875  31.147   0.808  13.354
18561W        W90876  17.679  24.210  10.502
18562W        W90877  31.410  38.922  14.470
18563W        W90878  18.660  28.032  10.058
18564W        W90879  40.861  44.900   2.788
18565W        W90880  44.877   0.971  14.013
18566W        W90881   1.321  14.657   2.401
18567W        W90882  16.601   0.457   1.852
18568W        W90883  10.742  39.948  11.603
18569W        W90884  26.045  31.453   3.854
18570W        W90885  19.261  38.961  12.351
18571W        W90886   3.878  26.994   2.339
18572W        W90887  44.985  10.278   1.739
18573W        W90888  17.689  11.240  12.538
18574W        W90889  24.058  26.175  13.530
18575W        W90890  22.197   7.780  14.959
18576W        W90891   8.222  11.254  11.553
18577W        W90892  33.932  42.440   3.819
18578W        W90893   5.412   1.334   2.227
18579W        W90894   4.332  39.519  11.371
18580W        W90895  36.014  12.350   4.660
18581W        W90896  17.680  39.553  13.378
18582W        W90897  42.507  44.885   1.252
18583W        W90898   7.763   6.854  12.976
18584W        W90899   8.401   0.892   2.401
18585W        W90900  28.110  21.155   5.154
18586W        W90901  24.697  41.885  11.063
18587W        W90902  27.027   0.464   3.863
18588W        W90903  41.438  18.567  11.124
18589W        W90904  28.140   0.774   3.327
18590W        W90905   1.332  31.432   0.919
18591W        W90906   0.865  13.790   2.765
18592W        W90907  20.681  29.618  11.601
18593W        W90908  36.372   8.382   3.331
18594W        W90909   6.748  10.857   4.197
18595W        W90910  19.551  10.309  13.891
18596W        W90911   0.764  27.528   4.278
18597W        W90912  17.622  44.923   2.250
18598W        W90913   6.365  35.970  10.970
18599W        W90914   0.860  36.560   2.291
18600W        W90915  27.196  42.522   1.930
18601W        W90916   6.309  39.944   1.870
18602W        W90917  33.053  37.979  14.314
18603W        W90918  34.910  40.493   3.249
18604W        W90919   0.287  10.652   1.253
18605W        W90920  30.596  39.445   3.243
18606W        W90921  35.950  14.282   3.183
18607W        W90922  18.768  22.636  14.004
18608W        W90923   4.762  32.893   3.232
18609W        W90924  38.038   3.944   2.728
18610W        W90925  24.156  12.701   0.461
18611W        W90926   3.851  22.536   0.777
18612W        W90927  17.769  37.386  12.859
18613W        W90928  25.712  36.513   2.828
18614W        W90929  35.025  33.560  12.575
18615W        W90930  30.624   6.726   1.404
18616W        W90931   1.472  44.827   0.359
18617W        W90932  20.567   2.771   0.357
18618W        W90933  15.692   4.323  14.415
18619W        W90934  24.652  33.985   3.661
18620W        W90935  12.674   0.910  12.442
18621W        W90936  40.546  37.454  10.947
18622W        W90937  42.491  13.761  14.354
18623W        W90938  43.807  35.075  11.863
18624W        W90939  26.497  12.126   2.354
18625W        W90940  27.942   3.834  14.937
18626W        W90941   1.904  42.961  13.517
18627W        W90942  18.196  19.259   3.252
18628W        W90943  10.782   1.378  13.993
18629W        W90944  41.940  31.587  12.379
18630W        W90945  43.916  41.000   0.289
18631W        W90946  12.272  28.181   2.229
18632W        W90947  27.603  18.068   3.845
18633W        W90948  20.668   6.688  13.960
18634W        W90949  36.866  13.212  14.758
18635W        W90950  24.160  29.554   1.836
18636W        W90951  43.391  24.580   0.761
18637W        W90952  39.859  11.684   4.319
18638W        W90953  34.030  29.586  11.509
18639W        W90954  17.626  14.241   0.827
18640W        W90955  25.015  16.207   2.804
18641W        W90956  42.923  24.214   3.786
18642W        W90957   2.386  24.160   0.282
18643W        W90958   5.252  24.509  13.363
18644W        W90959  39.514  36.467   0.954
18645W        W90960  19.087  42.466  14.894
18646W        W90961  37.437  28.681   0.920
18647W        W90962  18.584  18.239  11.124
18648W        W90963  29.427  38.414  14.410
18649W        W90964  42.516  40.803  14.791
18650W        W90965  38.477  37.526  13.007
18651W        W90966  33.014  10.727  13.461
18652W        W90967  43.382   8.249  14.431
18653W        W90968  40.034  12.695   4.143
18654W        W90969   4.446  39.450  10.477
18655W        W90970  11.838  26.702   1.878
18656W        W90971  16.107  18.221  13.505
18657W        W90972   4.247  13.746  14.367
18658W        W90973   0.974  30.469   2.710
18659W        W90974  10.753  12.644   1.351
18660W        W90975  35.432   9.842   0.900
18661W        W90976  10.819  42.790   1.901
18662W        W90977  20.184   6.312   3.660
18663W        W90978  38.431  42.460  12.501
18664W        W90979   6.855  28.499   3.203
18665W        W90980  22.683  16.715   3.657
18666W        W90981  27.123  20.737   2.761
18667W        W90982   0.307  30.605   0.273
18668W        W90983  35.480   4.942   4.219
18669W        W90984  23.010   6.278   4.278
18670W        W90985  26.089  34.603  12.406
18671W        W90986  33.897  18.589   3.248
18672W        W90987  30.996  25.710   0.286
18673W        W90988  44.259  30.067   4.776
18674W        W90989  27.165  14.610   0.376
18675W        W90990  19.146  30.028   4.139
18676W        W90991  18.293  38.459   9.588
18677W        W90992   0.915  24.719   1.321
18678W        W90993  10.206   8.263   4.191
18679W        W90994  43.945   8.304  12.536
18680W        W90995  28.986  17.709   4.674
18681W        W90996  38.353  12.300   1.787
18682W        W90997  22.119   2.400   0.320
18683W        W90998  38.444  11.145  11.952
18684W        W90999  10.187  32.434  11.555
18685W        W91000  28.590  24.218   3.174
18686W        W91001  31.074  24.105  11.605
18687W        W91002  33.905   8.750  14.879
18688W        W91003  17.060   5.409  11.566
18689W        W91004   1.901   2.944  12.344
18690W        W91005   2.851   9.354  14.494
18691W        W91006  19.772  29.984  12.093
18692W        W91007  22.736  44.468   0.754
18693W        W91008  28.636   0.817   2.306
18694W        W91009  40.501   6.785   3.341
18695W        W91010   5.279  14.699   2.337
18696W        W91011  16.599  17.282   1.446
18697W        W91012  30.095  25.011  13.484
18698W        W91013  41.015   3.389  14.477
18699W        W91014   9.242  17.161  12.071
18700W        W91015   3.734  20.188  13.957
18701W        W91016  34.610   0.910   3.731
18702W        W91017  31.131   5.325  14.777
18703W        W91018  22.630  43.312  13.834
18704W        W91019  21.052  19.144  13.044
18705W        W91020  37.433  32.137   2.704
18706W        W91021  24.634  41.036   2.695
18707W        W91022  10.282   4.863  11.985
18708W        W91023  31.126  38.072  14.920
18709W        W91024  35.530  11.738   3.161
18710W        W91025   8.345  26.079   0.874
18711W        W91026  31.953   5.772  11.986
18712W        W91027  10.289  22.207  10.506
18713W        W91028  29.961  19.710  13.001
18714W        W91029  29.983  19.053  12.077
18715W        W91030  39.484  36.411   1.250
18716W        W91031  21.594  31.946  13.492
18717W        W91032  15.638  31.639  10.517
18718W        W91033  26.553  17.182  11.536
18719W        W91034  42.526  41.819  14.444
18720W        W91035  34.611  19.687   0.326
18721W        W91036   0.908  17.191   4.147
18722W        W91037  38.398  20.578  12.392
18723W        W91038  40.531  31.996  10.579
18724W        W91039  13.615  39.402  11.112
18725W        W91040  41.319  34.369  12.894
18726W        W91041  10.201  25.663   3.727
18727W        W91042  19.062  31.404  13.461
18728W        W91043   0.907  39.832   2.263
18729W        W91044  18.662  26.694  10.972
18730W        W91045  20.637  24.132   0.782
18731W        W91046   2.249  17.563   3.639
18732W        W91047  19.103  19.242   4.184
18733W        W91048  14.720  28.680  13.387
18734W        W91049  18.173   3.258   3.210
18735W        W91050  12.707  27.603   2.816
18736W        W91051  24.230  15.634  12.927
18737W        W91052  30.034  24.175  10.637
18738W        W91053  32.605   0.475   4.723
18739W        W91054  13.144  20.055  11.933
18740W        W91055  34.085  14.684   2.776
18741W        W91056  13.207  42.798   1.336
18742W        W91057  28.606  17.622  12.082
18743W        W91058  35.971  16.637   2.303
18744W        W91059  22.694   7.222  11.565
18745W        W91060  30.429  19.550   3.359
18746W        W91061  12.647   4.409   2.802
18747W        W91062  19.668  43.797   2.824
18748W        W91063  21.052  32.955  11.035
18749W        W91064  27.458   7.791   2.751
18750W        W91065  28.994  28.039   0.784
18751W        W91066  14.663   2.260   1.880
18752W        W91067  28.580  41.468   4.610
18753W        W91068  20.050  28.527   3.352
18754W        W91069  17.192  29.978  12.975
18755W        W91070  10.846  23.196   0.377
18756W        W91071  30.952  31.448  14.464
18757W        W91072  30.107   6.283   2.731
18758W        W91073   0.976   2.903   4.303
18759W        W91074  33.580   6.327   3.274
18760W        W91075  25.670  28.971   9.979
18761W        W91076  36.560  35.563   3.374
18762W        W91077  43.962  44.826  14.008
18763W        W91078  36.074   0.806   0.448
18764W        W91079  41.417  17.796  12.401
18765W        W91080  31.606  44.311  12.054
18766W        W91081  15.652  22.072  14.021
18767W        W91082  15.169   8.669  14.961
18768W        W91083  44.844  41.925  12.996
18769W        W91084  30.633  18.217  13.833
18770W        W91085   6.409  16.235  11.560
18771W        W91086  20.714  29.435   1.386
18772W        W91087  32.028  24.113   1.248
18773W        W91088  24.020  13.833  14.474
18774W        W91089  33.598  43.831   4.664
18775W        W91090  23.607   1.279  13.891
18776W        W91091  29.500   9.700  11.110
18777W        W91092  10.292  42.300  14.927
18778W        W91093   8.266  41.310  12.349
18779W        W91094  11.727   4.795   1.811
18780W        W91095  21.098  21.188   4.828
18781W        W91096   8.170  23.591   2.187
18782W        W91097   9.339  35.431   4.268
18783W        W91098  29.513  27.620   1.733
18784W        W91099  29.666  22.583   0.918
18785W        W91100  13.135  19.565   0.289
18786W        W91101  31.630   4.846   1.385
18787W        W91102  32.948  40.396   3.799
18788W        W91103  12.191  30.626   0.465
18789W        W91104   9.326  33.130   2.278
18790W        W91105  11.371  38.923   1.262
18791W        W91106  36.383  24.071  11.074
18792W        W91107  39.362  10.155  14.380
18793W        W91108  24.698  44.493  11.983
18794W        W91109  17.156  27.566   3.159
18795W        W91110  27.551  41.304  11.592
18796W        W91111  41.298   6.830   4.773
18797W        W91112  19.148  33.082  14.858
18798W        W91113  44.430  13.725   4.797
18799W        W91114  38.865   3.828  11.885
18800W        W91115   7.398   6.684  12.005
18801W        W91116  21.615  12.831  12.505
18802W        W91117  16.642  13.641  13.977
18803W        W91118  34.953  36.561  11.988
18804W        W91119  44.373  36.591   0.383
18805W        W91120  15.216  37.385  14.758
18806W        W91121  31.099  27.032   4.627
18807W        W91122   4.394  14.150  12.088
18808W        W91123  13.699  44.942   2.882
18809W        W91124   1.406  31.131   1.370
18810W        W91125  44.463  22.028  11.118
18811W        W91126  36.980  14.323   0.882
18812W        W91127   3.953   1.748  13.462
18813W        W91128  36.089  12.193  11.089
18814W        W91129  36.945  15.776  14.923
18815W        W91130   5.200  16.079  12.546
18816W        W91131  24.684  33.051  11.512
18817W        W91132  19.074  10.375  13.366
18818W        W91133  26.556  36.093  11.566
18819W        W91134  23.710  10.812   4.151
18820W        W91135  27.571  28.016  13.963
18821W        W91136   2.741  42.369  14.914
18822W        W91137  37.579  36.528  10.553
18823W        W91138  12.692  12.722   0.251
18824W        W91139  10.365  34.422   3.153
18825W        W91140  16.757  13.302  10.497
18826W        W91141  39.531  13.661  10.954
18827W        W91142  11.228   1.275  14.884
18828W        W91143  23.191  14.699   2.893
18829W        W91144   0.279  23.589  14.452
18830W        W91145  24.575  20.744  14.864
18831W        W91146   9.688  13.764  14.873
18832W        W91147   3.385  33.995   2.198
18833W        W91148  10.257  14.833  12.047
18834W        W91149  41.938  28.004  11.549
18835W        W91150  13.316   0.905  12.559
18836W        W91151  23.685  43.771   0.791
18837W        W91152  25.609  13.681  13.419
18838W        W91153   8.354  35.094  13.018
18839W        W91154  22.680  43.392   3.647
18840W        W91155  16.813  24.696  12.043
18841W        W91156  34.104  35.487  13.513
18842W        W91157  14.237   2.233  14.997
18843W        W91158  32.920   8.802   1.273
18844W        W91159  23.198  29.640  13.818
18845W        W91160   0.295  39.460  14.956
18846W        W91161  36.899   2.236  10.914
18847W        W91162  37.506  41.890  11.453
18848W        W91163   0.369  11.804  13.002
18849W        W91164  28.606  33.514   9.646
18850W        W91165  18.643  43.420  11.519
18851W        W91166  22.187  44.463  11.496
18852W        W91167  19.672  37.581   0.385
18853W        W91168  17.582  22.666   1.911
18854W        W91169  34.015  10.156   1.444
18855W        W91170  40.977   7.316  11.578
18856W        W91171  33.549  12.176   2.899
18857W        W91172  15.189  12.306  14.311
18858W        W91173  29.106   5.323   4.174
18859W        W91174  28.090  43.016   5.294
18860W        W91175  22.708  29.549  14.300
18861W        W91176  40.360  33.610  12.824
18862W        W91177  21.518  11.828   3.296
18863W        W91178   6.919  39.809  13.038
18864W        W91179  18.274   6.423  11.496
18865W        W91180  35.037  17.251  14.391
18866W        W91181  30.642   6.207  13.377
18867W        W91182  43.421   0.871   0.793
18868W        W91183  43.979  42.512  13.870
18869W        W91184  15.647   3.715   2.787
18870W        W91185  28.946   1.752   4.138
18871W        W91186  12.312   4.419  13.802
18872W        W91187  10.335  43.858  11.866
18873W        W91188  15.316  28.121  13.441
18874W        W91189  28.452   9.865   4.197
18875W        W91190  25.011  22.742   5.133
18876W        W91191  22.073  33.046   1.227
18877W        W91192  37.439  37.941   2.774
18878W        W91193   0.766  28.134   1.412
18879W        W91194  17.299   8.269   3.376
18880W        W91195  37.021  23.669   3.778
18881W        W91196  23.108  18.144   5.148
18882W        W91197   2.385  32.013   2.838
18883W        W91198  11.705  39.949   0.410
18884W        W91199  43.824  11.757   3.689
18885W        W91200   3.407   0.816   1.428
18886W        W91201  36.903  21.144   2.873
18887W        W91202  30.118  20.169   2.178
18888W        W91203  10.287   2.862   1.743
18889W        W91204  18.608  27.014  13.950
18890W        W91205  15.285  24.091   0.951
18891W        W91206   1.923   4.934   3.699
18892W        W91207  26.557  21.661   3.848
18893W        W91208   8.201  21.632  11.988
18894W        W91209   5.371  43.457  12.431
18895W        W91210  10.202   0.787   5.315
18896W        W91211  31.991  20.219  10.942
18897W        W91212  36.478  12.847   2.217
18898W        W91213  41.839  14.264  11.120
18899W        W91214  19.623  35.853   2.717
18900W        W91215  19.199   2.304  13.453
18901W        W91216  13.310  27.190  11.923
18902W        W91217   4.932  33.955  12.982
18903W        W91218  16.602  41.932   2.758
18904W        W91219   1.868   3.893  10.442
18905W        W91220   1.284  14.594   4.343
18906W        W91221   1.353  29.986  11.005
18907W        W91222  18.168  34.430   2.372
18908W        W91223  24.606  18.745  11.888
18909W        W91224  26.070  14.810  14.423
18910W        W91225  33.116  20.111  10.625
18911W        W91226   4.943   9.788   0.781
18912W        W91227  13.696  37.375   1.796
18913W        W91228   4.935  38.948   0.813
18914W        W91229  15.271  36.487  13.429
18915W        W91230  11.827  36.972  11.053
18916W        W91231   4.254  19.076   0.308
18917W        W91232  13.121   6.381  12.553
18918W        W91233  18.783   0.937  10.131
18919W        W91234  22.587  36.011   0.363
18920W        W91235  37.412  37.988  10.965
18921W        W91236  13.174  29.041   2.334
18922W        W91237  35.879  28.942   0.321
18923W        W91238  18.666  24.191  10.517
18924W        W91239  43.957  32.607   0.254
18925W        W91240  42.866   9.176   1.358
18926W        W91241   7.692  44.862  11.950
18927W        W91242  43.489  27.029  14.414
18928W        W91243   9.664  25.625  12.486
18929W        W91244  33.888  21.609   2.684
18930W        W91245  33.399  10.697  10.888
18931W        W91246  27.059  30.412   1.221
18932W        W91247  36.092   3.259  14.452
18933W        W91248  15.578  18.098  13.867
18934W        W91249  15.756   9.779  11.050
18935W        W91250  12.763  10.355  13.860
18936W        W91251  21.236  44.759   3.838
18937W        W91252  17.111  20.632   1.917
18938W        W91253  32.892  14.592  12.023
18939W        W91254  18.607  31.439  11.945
18940W        W91255  15.185  35.384   3.672
18941W        W91256  37.087  15.215  14.291
18942W        W91257  27.142  37.482   3.352
18943W        W91258  12.698   6.406   3.268
18944W        W91259  25.184  32.037   1.238
18945W        W91260   9.827   2.344   2.789
18946W        W91261  35.464  22.041  14.430
18947W        W91262   9.274  17.138   9.484
18948W        W91263   6.915  22.164   2.767
18949W        W91264  24.200   9.750  13.874
18950W        W91265   6.314   3.830   3.845
18951W        W91266  11.154  36.475  14.420
18952W        W91267  35.059  32.029   2.357
18953W        W91268  36.406   5.717   3.731
18954W        W91269  17.647  27.944   0.255
18955W        W91270  32.998  30.985  12.078
18956W        W91271  37.381  25.009   4.139
18957W        W91272  32.525   1.884  13.525
18958W        W91273  23.528  34.483   3.377
18959W        W91274  44.825  29.478  14.363
18960W        W91275  31.514  14.195  14.867
18961W        W91276   6.389  37.500   3.860
18962W        W91277  44.359  44.296  11.474
18963W        W91278  35.024  32.033  12.877
18964W        W91279  27.658   7.879   4.606
18965W        W91280  15.792  41.431   0.845
18966W        W91281  24.054  37.887   1.891
18967W        W91282   8.385  28.661   3.698
18968W        W91283   1.922  18.654   2.396
18969W        W91284  32.576  30.102  10.957
18970W        W91285  42.875   1.403   0.878
18971W        W91286  39.006   5.867   3.852
18972W        W91287  29.113  10.646  14.810
18973W        W91288   1.381  27.186  10.590
18974W        W91289  31.909  41.860  10.901
18975W        W91290   2.739  30.083  12.514
18976W        W91291  10.140  22.655  13.829
18977W        W91292  10.306  41.502   2.672
18978W        W91293  31.404  27.196   1.218
18979W        W91294  35.991  33.451   4.128
18980W        W91295  40.525  32.460  13.063
18981W        W91296  40.354  30.652   2.819
18982W        W91297   5.833  30.480   0.394
18983W        W91298  26.966  31.537  13.544
18984W        W91299   6.762  36.579   1.725
18985W        W91300  32.962  26.475   1.437
18986W        W91301  14.280  22.185   3.325
18987W        W91302  25.581   9.333   4.717
18988W        W91303  35.488  24.696   0.840
18989W        W91304  41.346  17.283  12.419
18990W        W91305  32.935  18.250   1.715
18991W        W91306  23.725  34.584  11.926
18992W        W91307  10.811  40.042  13.853
18993W        W91308   0.322  37.016  14.464
18994W        W91309  32.407  20.696  11.576
18995W        W91310  25.058  13.775  11.960
18996W        W91311  34.055  43.918  13.895
18997W        W91312  15.195  42.466   3.651
18998W        W91313  12.238   1.387   4.805
18999W        W91314  21.648  20.537   4.158
19000W        W91315   6.419  11.166   2.359
19001W        W91316  41.841  37.517   1.725
19002W        W91317  44.279  31.142  10.516
19003W        W91318  11.277   2.420   1.780
19004W        W91319   6.229  40.928  13.860
19005W        W91320   3.445  15.657   1.308
19006W        W91321  17.295  36.433   1.356
19007W        W91322  11.332  33.046   1.857
19008W        W91323  14.802   7.695  13.324
19009W        W91324  37.865   3.452   4.188
19010W        W91325  41.886  15.681   3.796
19011W        W91326  13.174   5.327   2.866
19012W        W91327  19.229  20.566   4.691
19013W        W91328   1.255  11.823  10.963
19014W        W91329   4.824   5.278  10.944
19015W        W91330  31.462  42.797  13.456
19016W        W91331  32.008  40.033   4.619
19017W        W91332  17.197  19.678  13.456
19018W        W91333  26.574  44.850   3.730
19019W        W91334  13.641   9.246   1.756
19020W        W91335   9.749   6.401   1.864
19021W        W91336  38.535  23.557   9.557
19022W        W91337  43.382  20.702   4.341
19023W        W91338  39.830  37.444   0.802
19024W        W91339  21.022  19.654  10.557
19025W        W91340  44.417  17.561  11.964
19026W        W91341   6.897  38.458  14.816
19027W        W91342   2.341  34.073   1.443
19028W        W91343  17.209   4.390  12.541
19029W        W91344   4.293  12.779  14.442
19030W        W91345  37.461  38.473  13.926
19031W        W91346  44.975   8.354   0.393
19032W        W91347  29.549   2.374   2.341
19033W        W91348   5.825  41.849   1.905
19034W        W91349  32.469   9.817  14.011
19035W        W91350  11.750   9.711   0.339
19036W        W91351  36.025  37.460  13.948
19037W        W91352  36.913  30.081  14.455
19038W        W91353  42.028   2.951  13.483
19039W        W91354  18.601   7.799  10.430
19040W        W91355  24.558  22.034   5.302
19041W        W91356  27.035  23.563  14.988
19042W        W91357  14.235  36.510  13.031
19043W        W91358  42.923  21.724   4.194
19044W        W91359  15.746   6.689   2.292
19045W        W91360  33.383  28.438  13.863
19046W        W91361   2.749  17.251  10.415
19047W        W91362  38.435  30.568  11.925
19048W        W91363   2.284  41.922   4.204
19049W        W91364  17.243  39.823   4.656
19050W        W91365  17.234  10.357  14.007
19051W        W91366  10.325  13.785  11.379
19052W        W91367  10.724  39.950   0.769
19053W        W91368  20.682  40.934  13.868
19054W        W91369  12.278  39.812   2.830
19055W        W91370  21.545  33.109  13.865
19056W        W91371   1.900  13.259   0.281
19057W        W91372  31.984  29.918  13.520
19058W        W91373   3.238  34.578  11.904
19059W        W91374  22.516  36.398   3.266
19060W        W91375  41.386  37.028  10.600
19061W        W91376  39.900  14.100  13.315
19062W        W91377  42.347  33.877  13.983
19063W        W91378  41.956   4.331   0.343
19064W        W91379  37.971  11.187  11.883
19065W        W91380  11.693   0.816  14.505
19066W        W91381  19.692  10.276   3.380
19067W        W91382  33.946  21.055  13.538
19068W        W91383  32.098   3.381   0.308
19069W        W91384  28.522  12.303  12.440
19070W        W91385  11.159  41.008  14.295
19071W        W91386   8.866  23.575   2.780
19072W        W91387  38.331  38.001   3.243
19073W        W91388  37.005  31.557  12.365
19074W        W91389  26.176  41.428   3.869
19075W        W91390   8.211  42.389  13.501
19076W        W91391   5.338   1.857  13.796
19077W        W91392  10.175   2.463   1.397
19078W        W91393  21.140  13.208   2.356
19079W        W91394  17.632  28.526  12.993
19080W        W91395  10.181  23.546   0.849
19081W        W91396  10.324  10.294   3.259
19082W        W91397  39.415  39.405   0.816
19083W        W91398  17.154  38.891  11.025
19084W        W91399  10.203   4.239  14.418
19085W        W91400  27.662   9.788   4.199
19086W        W91401  25.127  17.736  14.861
19087W        W91402  42.341  31.069   3.159
19088W        W91403   7.792  29.094  12.478
19089W        W91404  39.348  15.096  10.524
19090W        W91405  21.547  24.047  12.018
19091W        W91406  15.774  32.499  11.374
19092W        W91407   7.703  26.033   2.877
19093W        W91408  44.486  21.190  11.084
19094W        W91409   5.336  19.172   2.331
19095W        W91410   8.782  40.810  10.522
19096W        W91411  24.222  17.114  10.610
19097W        W91412   0.948  16.627   0.321
19098W        W91413  10.243  17.593   4.700
19099W        W91414   5.730   4.734  12.462
19100W        W91415  40.917  25.220   2.339
19101W        W91416  37.504  14.293   0.795
19102W        W91417  37.064  39.057  12.859
19103W        W91418  14.126  42.987   1.760
19104W        W91419  31.059   2.435  12.843
19105W        W91420  12.636  31.492   0.410
19106W        W91421  31.059  31.992  13.964
19107W        W91422  16.604   7.177  13.365
19108W        W91423   1.772  23.106   4.634
19109W        W91424  10.188  35.534  12.874
19110W        W91425   6.362   7.366  10.417
19111W        W91426  18.274  32.009   0.462
19112W        W91427  18.268  38.048   0.960
19113W        W91428  32.474   4.790   4.669
19114W        W91429   7.714  17.116  12.505
19115W        W91430  18.119  43.991  14.834
19116W        W91431  22.134  28.096  13.023
19117W        W91432  17.604  33.104   4.237
19118W        W91433  20.682  34.470  11.438
19119W        W91434  16.597  31.524   2.671
19120W        W91435   6.833  12.136  12.023
19121W        W91436  19.717  43.269  14.387
19122W        W91437  11.367  38.875   0.312
19123W        W91438  34.047  22.106   0.342
19124W        W91439  27.940  19.755  11.928
19125W        W91440  15.288  26.587   0.757
19126W        W91441   1.298   4.241  12.579
19127W        W91442   4.325  17.285   0.438
19128W        W91443  25.660  10.210   3.828
19129W        W91444  20.163  10.372   1.837
19130W        W91445  19.062  35.438   1.902
19131W        W91446  19.622   0.364  14.372
19132W        W91447  42.795   9.788   2.742
19133W        W91448  28.626  17.108   3.658
19134W        W91449  26.456  13.829   2.263
19135W        W91450  39.891   1.288   4.712
19136W        W91451  21.554  31.486  14.324
19137W        W91452   9.848  28.962   2.318
19138W        W91453  25.098  22.572   0.460
19139W        W91454   2.282   6.804  14.398
19140W        W91455  31.505   1.751   2.211
19141W        W91456  15.217   4.237  12.483
19142W        W91457   1.430  23.194  12.411
19143W        W91458  31.500  44.983   0.478
19144W        W91459  43.317  34.899  12.342
19145W        W91460  39.815  38.822  12.847
19146W        W91461  33.955   2.860   4.635
19147W        W91462   3.793  31.496   4.623
19148W        W91463   1.357   2.397   1.326
19149W        W91464  25.102  42.815  10.968
19150W        W91465   3.855  44.930  10.639
19151W        W91466  12.119  44.278   4.121
19152W        W91467  32.107  44.914  10.598
19153W        W91468  18.265  38.056   9.567
19154W        W91469  35.068  28.046   2.314
19155W        W91470  14.604   0.925  13.000
19156W        W91471  30.129  11.279  13.491
19157W        W91472  15.721  36.541   2.791
19158W        W91473  41.996  40.473  11.597
19159W        W91474  41.398  26.628  13.413
19160W        W91475  18.773  19.590  13.808
19161W        W91476  14.735  22.690   4.266
19162W        W91477   5.772  16.213  12.837
19163W        W91478  15.214   8.255  13.494
19164W        W91479   5.281  30.025   2.186
19165W        W91480  30.966  24.572   3.225
19166W        W91481  27.639  34.441  14.829
19167W        W91482   3.817  18.056  11.515
19168W        W91483  19.257   7.681  10.571
19169W        W91484   0.988  38.353   2.417
19170W        W91485  32.517   5.894  10.610
19171W        W91486  37.574  44.281   0.253
19172W        W91487  44.993   2.959   4.760
19173W        W91488  12.205  37.480  10.560
19174W        W91489  19.602  18.150  11.906
19175W        W91490   6.184  39.860  10.128
19176W        W91491  40.012  32.944   0.461
19177W        W91492  24.596  29.111   3.867
19178W        W91493  24.196  29.958  12.344
19179W        W91494  37.059  28.020   3.844
19180W        W91495  20.202  25.131  11.965
19181W        W91496   8.654   0.909   3.750
19182W        W91497  10.350   6.278   0.458
19183W        W91498  21.519   1.405  10.540
19184W        W91499  10.196  32.940  12.487
19185W        W91500  33.576   1.924   1.428
19186W        W91501  15.134   6.388   3.355
19187W        W91502   8.240  35.513   3.658
19188W        W91503  31.452  22.178  11.456
19189W        W91504  31.077   2.234  13.881
19190W        W91505  38.536  11.855  11.866
19191W        W91506  25.479  33.006  11.493
19192W        W91507  35.395  25.027  13.893
19193W        W91508   5.431   5.858  11.128
19194W        W91509  10.860   7.781  13.359
19195W        W91510   2.826  16.183   0.308
19196W        W91511   7.372  26.150  14.846
19197W        W91512  15.608  41.537   3.742
19198W        W91513  36.420  12.247   3.660
19199W        W91514  29.595  44.821   2.409
19200W        W91515  25.120  28.159   3.642
19201W        W91516   6.273  33.018   1.232
19202W        W91517  39.034  29.537  11.081
19203W        W91518   8.184  43.915   0.417
19204W        W91519  21.167  31.929  12.442
19205W        W91520  25.046  37.023  13.806
19206W        W91521  37.489  37.010  10.444
19207W        W91522  15.758  32.489   4.832
19208W        W91523  10.702  41.442   2.785
19209W        W91524  13.760   2.768   4.599
19210W        W91525  41.427  20.527  13.946
19211W        W91526  21.635   4.429   3.707
19212W        W91527  30.017  40.945  12.355
19213W        W91528  25.522  30.463   0.877
19214W        W91529  38.482   0.443   2.683
19215W        W91530  26.963  33.952  10.944
19216W        W91531  34.082  29.428  12.060
19217W        W91532  31.465  15.281  13.925
19218W        W91533  28.574  33.901   1.846
19219W        W91534  19.563  36.848   3.641
19220W        W91535   1.445  38.945   0.357
19221W        W91536  17.141  22.067   2.853
19222W        W91537   9.781  18.564   2.396
19223W        W91538  32.025  41.529  14.466
19224W        W91539   9.228  33.033  14.926
19225W        W91540   0.838  31.033  10.533
19226W        W91541  27.669  37.569  13.395
19227W        W91542  12.219   5.886   2.216
19228W        W91543   7.779  24.032   1.437
19229W        W91544  23.539  30.009   1.791
19230W        W91545  19.257  11.294  12.408
19231W        W91546  25.694  11.773  13.813
19232W        W91547  36.579  19.264   4.695
19233W        W91548  29.024  33.902   3.717
19234W        W91549   3.742  35.483  14.780
19235W        W91550   3.845  26.147  11.611
19236W        W91551   4.898  18.073  10.494
19237W        W91552   3.257  28.648   3.281
19238W        W91553  15.675  14.691  10.472
19239W        W91554  17.780   6.275  12.493
19240W        W91555  27.112  36.387  11.391
19241W        W91556  20.591  26.123   3.251
19242W        W91557   0.893  32.967  14.480
19243W        W91558   1.352   8.744   3.294
19244W        W91559  12.150  22.606   3.834
19245W        W91560  40.911  35.884  12.380
19246W        W91561   2.263  22.549  10.521
19247W        W91562   8.866   1.312   3.835
19248W        W91563  26.580  41.358   3.274
19249W        W91564  39.346  14.682  12.361
19250W        W91565  40.923  37.405   4.308
19251W        W91566  10.774   4.816   1.816
19252W        W91567  42.865  24.479   1.831
19253W        W91568  34.969  23.129   2.674
19254W        W91569  20.568   0.307   2.229
19255W        W91570  43.430  11.761   0.275
19256W        W91571  30.088   6.381  11.427
19257W        W91572   0.937  21.575  11.461
19258W        W91573  13.810   3.392   3.697
19259W        W91574  32.533  33.487   4.639
19260W        W91575  13.255  22.734   4.831
19261W        W91576  13.156  20.759   3.815
19262W        W91577  40.522  30.935  13.974
19263W        W91578  18.544  22.141  14.440
19264W        W91579  32.629  16.785  11.054
19265W        W91580  11.371  30.605  14.764
19266W        W91581  26.100  14.722   0.860
19267W        W91582  28.940   5.346   3.842
19268W        W91583  31.033   4.415   2.872
19269W        W91584  41.345  25.075  11.034
19270W        W91585  16.800  14.598  12.342
19271W        W91586  13.788  29.630   4.147
19272W        W91587  18.238  28.166  12.041
19273W        W91588  41.373   0.781  14.433
19274W        W91589  30.001  24.023  13.931
19275W        W91590  27.652  36.042  14.967
19276W        W91591   5.310   9.341   3.798
19277W        W91592  19.634  31.568   2.863
19278W        W91593  13.313   4.730   3.297
19279W        W91594  42.978  17.197   0.825
19280W        W91595  21.671  27.014  12.434
19281W        W91596  22.234  39.448   3.805
19282W        W91597   1.403  35.914  12.456
19283W        W91598  27.666  26.186  11.413
19284W        W91599   6.760  33.948   2.723
19285W        W91600  18.178  42.459  14.327
19286W        W91601  17.619  32.480   2.675
19287W        W91602  15.116  44.468   1.408
19288W        W91603  29.073  41.995   2.293
19289W        W91604  12.633   2.391   4.683
19290W        W91605  39.889  27.671   1.257
19291W        W91606  21.518  22.166   3.182
19292W        W91607  19.637  36.399   0.361
19293W        W91608  26.584  38.399   0.433
19294W        W91609  33.585   7.220   2.399
19295W        W91610   3.917  43.990   0.813
19296W        W91611  17.778  24.034   0.450
19297W        W91612   9.315  12.158   3.718
19298W        W91613  26.199  11.755  14.960
19299W        W91614  33.978  37.937   1.370
19300W        W91615  28.068  19.065   3.296
19301W        W91616   4.268   8.664  11.595
19302W        W91617  25.176  40.448   2.858
19303W        W91618   5.690  24.194   0.315
19304W        W91619  23.072  36.848  14.957
19305W        W91620   0.378  27.539  14.330
19306W        W91621  27.191  22.603   2.799
19307W        W91622  36.984  25.660  12.880
19308W        W91623   2.854  30.539  12.465
19309W        W91624   1.943   8.328  14.851
19310W        W91625   8.851  13.276   4.273
19311W        W91626  30.500  11.222   2.256
19312W        W91627  34.544  18.256  12.825
19313W        W91628  42.332  10.688   4.176
19314W        W91629  15.602   1.388  13.941
19315W        W91630   7.687   5.335   1.215
19316W        W91631  16.641  35.481  12.059
19317W        W91632  41.937  43.295   1.232
19318W        W91633  43.409   7.234  14.319
19319W        W91634  24.551  38.333   0.768
19320W        W91635   6.371  25.581   1.357
19321W        W91636  22.592  21.126   0.465
19322W        W91637  13.673  23.568  11.983
19323W        W91638  37.375  39.339  14.278
19324W        W91639  38.068  39.444   4.143
19325W        W91640  15.187  28.164   1.363
19326W        W91641  20.174   2.344   1.219
19327W        W91642  39.375  11.195  14.290
19328W        W91643  16.770  12.778   2.698
19329W        W91644  21.523   8.326  13.399
19330W        W91645   5.888   6.257   4.783
19331W        W91646  24.680  38.332   3.229
19332W        W91647  43.967   5.749  12.519
19333W        W91648  39.353   5.331  12.029
19334W        W91649  38.852  31.952   0.910
19335W        W91650  27.021  34.508  14.433
19336W        W91651  11.231   1.350   2.222
19337W        W91652  38.003  15.309   0.932
19338W        W91653  27.507   5.828  10.552
19339W        W91654  17.668  14.765   3.202
19340W        W91655  35.582  39.034   4.601
19341W        W91656   5.765   8.807  11.955
19342W        W91657   8.705  43.310   3.801
19343W        W91658  11.710  20.253   0.736
19344W        W91659  10.839  25.493  11.581
19345W        W91660  36.925   6.845  14.475
19346W        W91661  20.735  42.984   0.842
19347W        W91662  11.866  23.224  12.502
19348W        W91663  19.595  32.016   1.315
19349W        W91664   8.387   3.411  14.759
19350W        W91665  28.589  38.044   4.750
19351W        W91666  35.063  14.280   4.598
19352W        W91667  25.029   9.797   4.354
19353W        W91668  44.879  12.827  14.897
19354W        W91669  11.357  36.972  14.507
19355W        W91670  43.478  30.966  13.486
19356W        W91671  24.187   2.964   3.157
19357W        W91672  32.548  23.172  14.991
19358W        W91673   1.762  44.827  12.531
19359W        W91674   8.825  37.918   3.848
19360W        W91675  36.063   1.343  11.389
19361W        W91676  16.807   0.309  10.415
19362W        W91677  40.309  24.168   1.835
19363W        W91678   2.322   8.781   4.224
19364W        W91679  12.177  24.175  12.012
19365W        W91680  28.098  19.727  13.835
19366W        W91681  15.304  26.617   0.393
19367W        W91682   2.915  34.436   4.673
19368W        W91683  34.378  29.095  11.910
19369W        W91684  30.928  25.208  13.540
19370W        W91685  38.547  11.197  11.084
19371W        W91686  18.188  14.787  10.418
19372W        W91687  15.129  27.447  14.935
19373W        W91688  10.353  27.047   0.293
19374W        W91689  12.243  26.521  11.122
19375W        W91690  16.709  29.431   4.691
19376W        W91691  26.494  27.052   4.807
19377W        W91692  41.859  17.762  12.000
19378W        W91693  20.747  10.275  10.417
19379W        W91694   8.283  35.507   1.394
19380W        W91695  34.461  36.852  12.348
19381W        W91696  10.652  20.528  11.855
19382W        W91697  18.734  27.024  11.091
19383W        W91698  44.964  21.047  11.534
19384W        W91699  17.755   5.391   1.829
19385W        W91700  18.085  11.361   1.886
19386W        W91701  30.550  32.571   0.411
19387W        W91702  24.203  44.939  11.864
19388W        W91703  16.243  20.646  11.122
19389W        W91704  10.144  27.679  11.003
19390W        W91705   8.339  36.922  12.431
19391W        W91706  37.925  15.769  10.512
19392W        W91707  29.060  36.899  13.493
19393W        W91708  44.871   2.350  12.435
19394W        W91709  27.692  41.536  12.916
19395W        W91710  28.966  25.672   4.619
19396W        W91711  27.979  22.533  14.384
19397W        W91712  40.456   3.320   2.693
19398W        W91713  21.582  30.590  13.521
19399W        W91714  21.146  13.204  12.852
19400W        W91715  42.435  38.372  10.461
19401W        W91716  11.194  20.589   3.666
19402W        W91717   5.286  41.984  11.939
19403W        W91718  43.968  17.647   2.372
19404W        W91719   9.257   1.459   4.219
19405W        W91720   4.380   9.176  12.823
19406W        W91721  31.034   1.373  10.445
19407W        W91722  22.241  25.535   2.816
19408W        W91723  24.565  37.505   3.766
19409W        W91724  44.384   7.697  12.916
19410W        W91725  20.751  34.926   3.276
19411W        W91726  29.017  33.038   3.362
19412W        W91727  37.985  42.924  12.950
19413W        W91728  24.006  16.205   2.667
19414W        W91729  43.386  20.658  14.414
19415W        W91730  43.304  33.613  13.016
19416W        W91731  12.139   7.339  12.069
19417W        W91732   7.369   9.731   2.753
19418W        W91733  11.239  24.630   1.809
19419W        W91734  18.070  37.504   0.386
19420W        W91735  12.149  38.016   4.598
19421W        W91736  33.557   6.707   4.732
19422W        W91737   2.346  40.802  13.820
19423W        W91738  37.430  37.383   3.163
19424W        W91739  14.830  11.710  12.508
19425W        W91740  19.648  28.620  12.568
19426W        W91741  11.348   0.903  13.546
19427W        W91742  23.677  10.173  12.021
19428W        W91743   4.942  43.399  10.472
19429W        W91744  42.473   2.316  10.592
19430W        W91745  43.016  27.147  13.900
19431W        W91746  23.569  14.621   4.118
19432W        W91747  39.365  28.551   4.615
19433W        W91748  35.947  33.616   2.206
19434W        W91749  42.362  24.513  11.924
19435W        W91750  22.721   0.454   2.741
19436W        W91751   3.941   3.317   3.780
19437W        W91752   5.395  36.397   1.841
19438W        W91753  10.779  20.040  10.141
19439W        W91754  19.161  33.945   2.369
19440W        W91755  41.811  15.671   0.866
19441W        W91756  28.619  24.526  12.452
19442W        W91757  17.296  29.463  12.558
19443W        W91758   0.746   1.259  10.446
19444W        W91759  19.205   3.394  11.539
19445W        W91760   6.212  13.739  12.430
19446W        W91761   8.705   0.284   1.370
19447W        W91762  34.065  43.884   1.387
19448W        W91763  37.492  19.128   0.333
19449W        W91764  25.541  16.088  11.607
19450W        W91765  31.111  22.569   2.248
19451W        W91766  11.844  39.452  13.360
19452W        W91767  39.409  43.365   3.189
19453W        W91768  13.743  40.470   3.206
19454W        W91769  11.672  18.700  11.453
19455W        W91770  39.899  44.398  11.420
19456W        W91771  13.207  27.125   1.747
19457W        W91772  42.807   9.706   4.736
19458W        W91773   6.761  23.688   4.798
19459W        W91774  12.219  32.502   3.274
19460W        W91775  42.341   7.715  14.491
19461W        W91776  12.839  11.868   4.729
19462W        W91777  23.021  14.822   0.737
19463W        W91778  15.677  33.562   1.257
19464W        W91779  34.614  33.046  13.041
19465W        W91780  20.169  42.918   4.349
19466W        W91781  32.436  32.022   9.981
19467W        W91782   8.298  15.274   4.644
19468W        W91783  28.070  11.164   3.725
19469W        W91784  21.687  41.954   1.911
19470W        W91785  15.259  35.543  11.949
19471W        W91786   6.688  43.853  12.407
19472W        W91787  17.732  40.028   4.187
19473W        W91788   2.777  18.588  12.851
19474W        W91789  35.020   9.386   1.214
19475W        W91790  18.545  35.085  10.458
19476W        W91791   8.686   6.287  13.014
19477W        W91792  33.106  14.239   4.639
19478W        W91793  19.185  34.393   4.663
19479W        W91794  15.587  19.074  11.559
19480W        W91795  18.673  15.593  14.001
19481W        W91796  14.719  37.363   4.714
19482W        W91797   4.877  18.107   0.287
19483W        W91798  36.017  43.002   3.791
19484W        W91799  26.480  41.497  12.401
19485W        W91800   4.940  33.468   3.817
19486W        W91801  29.104  20.154   4.287
19487W        W91802  30.598  12.638  11.440
19488W        W91803  34.046   0.303   1.269
19489W        W91804  29.538  31.932  10.117
19490W        W91805   9.761  19.285   1.314
19491W        W91806  27.180  18.544   4.765
19492W        W91807   7.703  17.149  14.437
19493W        W91808  32.049  28.634  13.806
19494W        W91809  39.883  10.240  13.309
19495W        W91810  28.107   0.356  10.429
19496W        W91811   3.802   4.331   1.818
19497W        W91812  41.938  35.981   5.275
19498W        W91813  41.518   7.265  14.808
19499W        W91814  13.203  36.867  14.905
19500W        W91815   4.274  10.302  14.001
19501W        W91816  44.412  23.190  14.790
19502W        W91817  44.781  41.400   4.181
19503W        W91818  25.549  29.000  14.471
19504W        W91819  41.309  33.395  12.830
19505W        W91820  31.907  23.184  13.058
19506W        W91821  29.565  29.092  14.020
19507W        W91822  20.119  42.523  11.469
19508W        W91823  29.163   1.321   4.208
19509W        W91824  18.272   4.747   1.779
19510W        W91825  44.009  23.035   3.324
19511W        W91826   7.374  25.048  13.519
19512W        W91827  14.272  23.695   0.930
19513W        W91828  28.519  40.486  12.378
19514W        W91829  13.291   0.483   1.721
19515W        W91830  26.653  15.274  12.935
19516W        W91831  43.891  31.016   1.846
19517W        W91832  18.666   8.280  12.033
19518W        W91833  41.500   2.295   1.213
19519W        W91834   3.767   8.754   0.900
19520W        W91835  29.922  24.041  14.372
19521W        W91836   0.871   0.883  10.463
19522W        W91837  20.225  40.954  11.548
19523W        W91838  23.100  36.999   3.639
19524W        W91839  26.977  21.673  11.952
19525W        W91840  44.975   4.889  14.962
19526W        W91841  33.902  20.097  10.558
19527W        W91842  42.778  21.060   2.313
19528W        W91843  12.842  18.193  13.822
19529W        W91844  24.672  20.099  12.376
19530W        W91845  15.786  14.795   3.293
19531W        W91846  15.259   0.900  12.028
19532W        W91847  22.519  36.982   4.674
19533W        W91848  36.423   9.838   2.233
19534W        W91849  24.551   1.736  14.785
19535W        W91850   3.270  33.911   3.192
19536W        W91851  29.166  33.954   0.817
19537W        W91852  20.272  26.021   3.370
19538W        W91853   3.873  28.567   0.458
19539W        W91854  29.993  42.495   3.849
19540W        W91855  16.638  11.324   0.751
19541W        W91856   3.394  14.116  12.839
19542W        W91857  14.292   4.794   5.299
19543W        W91858  12.168  40.819  12.865
19544W        W91859   2.442  34.441   5.116
19545W        W91860  26.121   1.957   2.309
19546W        W91861  35.366  21.548   1.441
19547W        W91862  42.373   0.315  13.876
19548W        W91863  17.565   7.321  11.048
19549W        W91864   7.898  35.021  11.091
19550W        W91865  20.039  24.214  11.401
19551W        W91866  30.073  39.449  13.424
19552W        W91867  27.082  11.218   2.272
19553W        W91868  35.556  17.715  13.307
19554W        W91869  16.722  31.505  13.521
19555W        W91870  36.986  24.065   0.895
19556W        W91871  29.553  22.671   2.266
19557W        W91872   4.449  11.219   2.791
19558W        W91873  12.122  28.578  14.474
19559W        W91874   7.683  22.560  14.023
19560W        W91875  25.123  30.147  12.084
19561W        W91876  11.168  33.977  12.456
19562W        W91877  29.599  32.420   4.193
19563W        W91878  30.036  39.825   0.852
19564W        W91879   4.297  44.959   2.306
19565W        W91880   9.840  16.622   0.755
19566W        W91881  30.601  23.593  12.571
19567W        W91882   6.893  39.826   4.196
19568W        W91883  22.737  14.173  12.544
19569W        W91884  20.085  35.425   0.752
19570W        W91885   2.754  14.115  11.863
19571W        W91886  42.831  33.104  10.926
19572W        W91887  22.181  34.389  10.944
19573W        W91888  11.794  31.559   3.636
19574W        W91889  41.527  35.026  12.457
19575W        W91890  31.562  21.237  14.483
19576W        W91891  17.655  12.848   1.835
19577W        W91892  33.601  14.293   0.360
19578W        W91893   3.890  15.231   4.349
19579W        W91894  31.634   3.325  14.280
19580W        W91895  15.117  28.953   4.234
19581W        W91896   0.407   5.377  12.026
19582W        W91897  42.403   4.763   4.695
19583W        W91898   2.240  37.981  10.900
19584W        W91899  30.558  24.510  11.103
19585W        W91900  19.088  18.645  14.318
19586W        W91901  19.677  34.120   3.167
19587W        W91902  37.506  20.702   2.305
19588W        W91903  19.116   6.872  14.846
19589W        W91904  19.598  40.021   2.391
19590W        W91905   5.688  37.484  12.578
19591W        W91906  14.678  38.385   0.343
19592W        W91907  39.486  37.871  11.929
19593W        W91908  20.557  40.964   4.725
19594W        W91909  41.345  23.715   2.820
19595W        W91910  32.509   5.856  14.298
19596W        W91911   8.715  37.466   0.479
19597W        W91912  30.542  32.569   0.810
19598W        W91913  37.450  10.169   1.711
19599W        W91914  22.643  12.181  10.576
19600W        W91915  29.128   8.795  11.427
19601W        W91916  15.113  24.150  12.526
19602W        W91917  24.098   1.238   3.242
19603W        W91918  33.075   5.401   0.346
19604W        W91919  11.326   5.311   0.794
19605W        W91920  28.092  41.954  11.031
19606W        W91921  44.369   0.391   3.279
19607W        W91922  25.497  32.948   1.369
19608W        W91923  10.166  21.681  12.395
19609W        W91924   2.892  41.831   3.366
19610W        W91925  33.533   5.298   3.270
19611W        W91926  30.051  43.338  13.054
19612W        W91927   3.709  30.465  12.886
19613W        W91928  27.078   0.847   3.253
19614W        W91929  11.174   2.403  12.014
19615W        W91930  33.569  24.170   3.159
19616W        W91931   8.303  41.916  10.972
19617W        W91932  34.411  29.564   1.448
19618W        W91933   4.415   8.840   4.780
19619W        W91934  24.015  24.197   1.357
19620W        W91935   9.853  18.082   3.311
19621W        W91936  44.819  14.257   2.278
19622W        W91937  31.969   1.765   3.311
19623W        W91938  25.086  14.231  13.352
19624W        W91939  30.632  26.676   0.750
19625W        W91940  28.045  14.150   3.685
19626W        W91941  25.644  41.471   2.667
19627W        W91942  10.730   6.382  12.984
19628W        W91943  36.066  14.110   2.666
19629W        W91944   7.348  44.358  14.275
19630W        W91945  15.768   9.870  14.404
19631W        W91946   9.182  27.109  14.364
19632W        W91947  22.633  11.828   0.265
19633W        W91948  43.909  21.741  13.402
19634W        W91949   9.311  14.253   0.895
19635W        W91950  30.454   0.454   4.222
19636W        W91951  31.972  25.550   4.342
19637W        W91952  18.138  12.307   1.892
19638W        W91953  44.321  29.991  13.838
19639W        W91954   2.291  14.101   3.713
19640W        W91955   5.331  41.970   0.891
19641W        W91956   2.759  29.081  11.862
19642W        W91957  14.702   7.757   0.262
19643W        W91958  26.080  36.932  10.934
19644W        W91959  41.817   3.376  11.129
19645W        W91960  15.234  43.324  14.968
19646W        W91961  29.055   9.341   0.452
19647W        W91962  35.512   2.950   1.409
19648W        W91963   1.364  33.564  11.855
19649W        W91964  16.609  41.379   0.416
19650W        W91965  16.126  20.141  14.484
19651W        W91966  19.742  21.055   1.442
19652W        W91967   7.350  15.661  12.054
19653W        W91968  42.859  17.119  13.850
19654W        W91969  24.067  26.697  13.883
19655W        W91970  44.825  43.785   1.348
19656W        W91971  30.023   5.267  11.026
19657W        W91972  24.043  12.818  11.606
19658W        W91973   4.321   2.825   2.212
19659W        W91974  12.141  27.016  14.363
19660W        W91975  42.903   3.231  12.094
19661W        W91976   3.291  37.566   1.743
19662W        W91977  17.750  38.385  12.826
19663W        W91978  11.660  21.244   3.866
19664W        W91979  44.438  38.829   0.380
19665W        W91980   4.869  31.953   2.287
19666W        W91981  27.996  23.499  12.496
19667W        W91982   7.399  20.627  13.845
19668W        W91983  28.114  36.359   3.371
19669W        W91984  28.574  34.064   1.313
19670W        W91985  27.660  26.990  10.909
19671W        W91986  18.709  40.936   0.840
19672W        W91987  39.943  24.097   2.808
19673W        W91988  39.840  23.217  10.605
19674W        W91989   0.275  39.436   2.392
19675W        W91990  30.551   2.424   3.317
19676W        W91991   2.941  33.463   0.898
19677W        W91992   3.283  11.627   4.225
19678W        W91993  25.669  13.296   4.166
19679W        W91994   2.726  35.091  11.517
19680W        W91995  25.649  24.645   4.676
19681W        W91996  40.423  34.472  10.094
19682W        W91997  40.422  25.471   2.689
19683W        W91998  25.170   7.699   3.154
19684W        W91999  28.463   1.785  10.562
19685W        W92000  21.570  19.749   0.758
19686W        W92001  32.583  22.227  13.468
19687W        W92002   7.351   3.227  12.500
19688W        W92003  31.903   1.295   0.365
19689W        W92004  11.651  23.172   2.801
19690W        W92005   4.438   0.324   3.837
19691W        W92006  10.155  13.169   0.375
19692W        W92007  10.246   9.658  10.505
19693W        W92008  35.043  40.806  14.970
19694W        W92009  26.532  37.404  12.576
19695W        W92010  22.055  35.396  13.513
19696W        W92011   8.313  28.079   1.273
19697W        W92012  38.437  22.071   3.360
19698W        W92013  43.835  28.175  12.475
19699W        W92014  42.937  41.508   4.148
19700W        W92015  36.478   0.492  14.496
19701W        W92016  13.829  36.999  11.379
19702W        W92017  44.873  19.682  12.460
19703W        W92018  35.919  39.011   3.659
19704W        W92019  24.185  32.935   3.804
19705W        W92020   4.328  33.549   3.300
19706W        W92021  18.629  39.411   2.295
19707W        W92022  43.008  22.157  12.489
19708W        W92023   0.799  30.489   0.922
19709W        W92024  10.340  20.125   0.381
19710W        W92025  39.339  24.179   0.422
19711W        W92026   0.288  35.372  14.314
19712W        W92027   0.261  32.015  12.945
19713W        W92028   7.736  43.370  14.337
19714W        W92029  38.546  33.569  11.610
19715W        W92030   0.944   0.893  14.429
19716W        W92031  12.313  28.480  10.534
19717W        W92032  25.039  41.524  13.905
19718W        W92033  12.770  23.104   2.293
19719W        W92034   4.716   5.872   4.276
19720W        W92035  38.045  36.497   0.804
19721W        W92036  15.793  15.622  13.481
19722W        W92037  29.569  20.052  12.090
19723W        W92038  15.636   7.908   3.321
19724W        W92039   0.839  10.753  12.452
19725W        W92040  34.510  36.046   1.728
19726W        W92041  12.300  20.578   0.261
19727W        W92042   9.150   2.421   1.886
19728W        W92043  38.842   4.427   0.735
19729W        W92044  30.622  37.995  14.360
19730W        W92045  29.535  26.617  13.837
19731W        W92046  21.251  33.512  11.983
19732W        W92047  13.107  18.069  11.999
19733W        W92048  32.408  14.321  14.880
19734W        W92049   1.844  11.839  10.907
19735W        W92050  12.820  17.293   4.719
19736W        W92051  35.091  20.206   3.677
19737W        W92052  22.166  25.061   1.876
19738W        W92053   1.884  11.209  11.510
19739W        W92054  44.969  38.039   2.871
19740W        W92055  20.593  40.046  14.365
19741W        W92056  13.704  42.378   4.277
19742W        W92057  39.490  41.898  14.956
19743W        W92058  15.152  25.521   1.215
19744W        W92059  22.590  21.261  12.537
19745W        W92060  36.901   5.797   1.222
19746W        W92061  31.487  22.503   3.682
19747W        W92062  21.154  15.621   0.769
19748W        W92063  38.963  14.599  10.961
19749W        W92064   3.356  42.527   1.886
19750W        W92065  19.202  13.692   0.918
19751W        W92066  39.463   3.817  11.547
19752W        W92067  13.110  32.955   0.268
19753W        W92068   1.958   3.433  13.449
19754W        W92069   7.391  31.056   2.882
19755W        W92070   7.220  13.840  14.470
19756W        W92071  23.735  28.942  12.977
19757W        W92072  35.536  28.125  12.867
19758W        W92073  31.578   6.256  11.059
19759W        W92074  15.721  34.989   4.294
19760W        W92075  39.478  19.048   4.327
19761W        W92076   9.803  40.481  11.099
19762W        W92077  34.903  18.561   4.169
19763W        W92078  42.796  43.988   3.732
19764W        W92079  20.074  12.829   2.678
19765W        W92080   4.793  10.789   1.729
19766W        W92081  15.699  39.370  13.008
19767W        W92082   1.927   3.753   4.750
19768W        W92083  36.400  19.554   4.824
19769W        W92084   3.819  22.551   1.842
19770W        W92085  37.035  38.493   4.114
19771W        W92086  11.734  25.711  12.079
19772W        W92087   9.752  41.792  10.584
19773W        W92088  32.091   2.288   1.387
19774W        W92089  40.511  42.869   5.234
19775W        W92090   7.728  12.300  12.391
19776W        W92091  14.829  42.465   2.729
19777W        W92092  36.532  37.934  12.459
19778W        W92093  23.681  11.651  13.389
19779W        W92094  42.343   8.765  11.495
19780W        W92095  41.878   6.414  14.874
19781W        W92096  36.899  22.206  12.946
19782W        W92097   5.322   1.447   4.173
19783W        W92098   8.177   3.750  10.620
19784W        W92099  22.147   9.808   0.827
19785W        W92100   1.967  22.703   2.769
19786W        W92101  19.658  35.886  14.421
19787W        W92102   5.275  17.214   0.249
19788W        W92103  37.443   3.758  10.536
19789W        W92104   4.800  34.523   2.313
19790W        W92105   7.302  29.079  14.831
19791W        W92106   9.741  11.320   3.707
19792W        W92107  28.104  22.185   4.288
19793W        W92108  13.282  26.512  11.591
19794W        W92109  23.692  43.347   4.826
19795W        W92110  20.604  44.400   3.306
19796W        W92111  19.734  40.986   1.888
19797W        W92112  20.738  27.181   3.295
19798W        W92113   8.245  28.969  12.922
19799W        W92114   5.206  10.841  10.978
19800W        W92115  41.480   6.887  12.999
19801W        W92116   4.228  31.003  13.961
19802W        W92117   2.812  16.139  11.908
19803W        W92118  13.795  43.873  11.375
19804W        W92119  14.112  41.382  13.038
19805W        W92120  25.636  14.784   2.266
19806W        W92121  24.031  12.792  12.347
19807W        W92122  43.004  17.196  12.995
19808W        W92123  19.074   1.762   2.217
19809W        W92124   2.417  22.231   0.854
19810W        W92125   2.741   3.429  13.958
19811W        W92126  24.020  25.472   3.642
19812W        W92127  26.154  41.454  10.485
19813W        W92128  19.661   7.360   4.224
19814W        W92129  34.992  32.449  12.449
19815W        W92130  44.480   3.233   0.957
19816W        W92131  43.855  32.900   1.398
19817W        W92132   2.867  39.919  13.844
19818W        W92133  10.217  29.930  11.913
19819W        W92134   3.251  34.416   0.797
19820W        W92135  30.636  27.489  10.622
19821W        W92136  28.959  22.126   3.240
19822W        W92137  28.667  43.469   3.365
19823W        W92138  33.994   6.397   2.183
19824W        W92139  42.859  32.909   0.826
19825W        W92140  41.519  40.002  10.956
19826W        W92141  18.627  19.654   1.875
19827W        W92142  33.981  33.005   4.262
19828W        W92143  26.157  40.540  10.590
19829W        W92144  22.573  17.697   3.839
19830W        W92145   5.417  42.013   1.708
19831W        W92146  40.372  44.968  11.879
19832W        W92147  32.904  34.948  11.069
19833W        W92148  29.035  28.577  13.542
19834W        W92149  37.529  33.380   2.765
19835W        W92150  41.409  11.636   1.311
19836W        W92151  35.037  33.103  10.431
19837W        W92152   8.835  39.837   2.868
19838W        W92153  42.509  43.010  14.334
19839W        W92154  44.429  14.301   0.802
19840W        W92155  21.722  13.692   4.693
19841W        W92156  18.141   9.165   2.789
19842W        W92157  38.412   3.783   1.310
19843W        W92158  20.211   1.802   0.266
19844W        W92159   5.271  21.676  13.004
19845W        W92160  42.346  16.628   0.428
19846W        W92161  20.631  42.480  14.871
19847W        W92162  43.799  38.055   3.742
19848W        W92163  31.444   1.808  10.608
19849W        W92164  37.535  14.767  10.962
19850W        W92165  36.916   0.318   0.344
19851W        W92166  25.539  10.331  10.458
19852W        W92167   8.732  43.795  12.927
19853W        W92168  21.525   3.733  13.814
19854W        W92169  43.326  25.674   4.707
19855W        W92170  37.472  42.909   5.263
19856W        W92171   4.300   6.293  10.938
19857W        W92172  27.083  18.211  13.829
19858W        W92173   4.750  23.200  11.889
19859W        W92174  18.615  14.629   0.863
19860W        W92175  42.791  34.071  13.396
19861W        W92176  34.392  32.607  12.862
19862W        W92177  11.765   6.238   1.288
19863W        W92178  36.529  33.997   2.897
19864W        W92179  37.904  28.059   2.841
19865W        W92180  20.156  13.643   0.397
19866W        W92181  42.294  24.986  11.536
19867W        W92182  10.763  17.563   5.277
19868W        W92183   5.433   5.373  12.580
19869W        W92184   5.826  34.425  12.055
19870W        W92185  23.623  20.591  14.967
19871W        W92186  23.124   3.423   3.808
19872W        W92187  24.661  24.998  10.965
19873W        W92188  14.094  20.205  11.408
19874W        W92189   5.377  35.603   2.418
19875W        W92190   0.404  19.058  12.885
19876W        W92191  10.304  40.466  12.508
19877W        W92192  33.454  43.888  11.077
19878W        W92193  18.710  28.502   5.153
19879W        W92194  27.038  32.465   1.304
19880W        W92195   7.851  28.603   0.874
19881W        W92196  44.821  44.409   3.259
19882W        W92197   7.337  31.570  14.380
19883W        W92198  31.637  28.081  11.398
19884W        W92199  37.831  28.457  12.875
19885W        W92200  28.438   9.181   1.863
19886W        W92201  33.993  19.693   1.805
19887W        W92202   5.256  33.505  10.910
19888W        W92203   3.250  16.182  10.411
19889W        W92204  29.123  42.866   3.205
19890W        W92205  16.655   7.888  14.450
19891W        W92206  42.468  11.840  11.406
19892W        W92207  32.406  28.097   0.346
19893W        W92208  17.234  42.782   3.147
19894W        W92209  35.459  11.848   4.649
19895W        W92210  27.130  33.033   0.940
19896W        W92211  23.500  37.379  13.535
19897W        W92212  31.512  34.961  13.521
19898W        W92213   6.335  12.279   1.767
19899W        W92214  42.469   6.359  10.946
19900W        W92215  33.004   4.298   2.894
19901W        W92216  31.589  40.383   2.744
19902W        W92217  38.058  18.573  14.894
19903W        W92218  32.450  11.341  10.938
19904W        W92219  27.668  20.733   0.943
19905W        W92220  21.083   8.779   0.767
19906W        W92221  43.906  10.270   2.273
19907W        W92222  37.999   3.270   2.862
19908W        W92223   0.389  33.093   0.302
19909W        W92224   4.767  28.545   3.835
19910W        W92225  28.526  30.112  10.488
19911W        W92226  42.022  42.831  11.125
19912W        W92227   4.227  39.355   2.851
19913W        W92228  24.132  23.575  13.943
19914W        W92229  35.538  41.788  14.385
19915W        W92230  18.685  26.639   0.743
19916W        W92231  10.656  29.632  11.404
19917W        W92232  29.104  17.156  13.364
19918W        W92233   3.267  29.519  13.378
19919W        W92234  24.549  23.077  13.546
19920W        W92235  40.328  40.918  10.527
19921W        W92236  30.423  30.156   4.785
19922W        W92237  33.931  20.665  13.979
19923W        W92238  38.530  18.202   4.227
19924W        W92239  31.040  10.293  10.501
19925W        W92240   8.898   4.754   2.318
19926W        W92241  39.518  23.670  12.412
19927W        W92242  34.502   2.950  11.124
19928W        W92243  37.082  20.682   2.685
19929W        W92244  43.011  24.992   1.259
19930W        W92245  33.051  21.635   1.892
19931W        W92246  14.599  15.180  10.969
19932W        W92247  27.639   3.801  10.977
19933W        W92248  21.086   5.285  14.793
19934W        W92249  12.201   6.230  11.500
19935W        W92250   6.902  12.831   0.458
19936W        W92251  32.915  11.741  13.386
19937W        W92252  39.356   5.432   4.758
19938W        W92253   3.843   9.819   4.626
19939W        W92254  25.196  28.063  13.364
19940W        W92255   8.683  40.498  12.936
19941W        W92256  26.466  14.127  13.946
19942W        W92257   8.338  24.582   3.276
19943W        W92258  21.058  33.537  14.810
19944W        W92259  17.093  39.351   0.950
19945W        W92260  17.709   4.700   1.409
19946W        W92261  11.205  34.027  11.405
19947W        W92262  11.164  30.923  14.942
19948W        W92263  15.280  14.709   0.288
19949W        W92264  21.698  38.414  12.052
19950W        W92265   7.197  21.657   4.346
19951W        W92266  37.402  37.560   4.332
19952W        W92267   5.893  22.500   0.366
19953W        W92268  33.494  16.119  12.060
19954W        W92269  15.102  39.027  13.966
19955W        W92270  28.618   0.491   0.752
19956W        W92271  25.495  44.955  12.863
19957W        W92272  42.996  12.116  14.436
19958W        W92273   9.154  15.117   0.262
19959W        W92274  32.137  33.975  11.883
19960W        W92275  37.912   7.858   3.326
19961W        W92276   3.291  21.131  11.128
19962W        W92277  25.540  25.631   0.277
19963W        W92278  38.342  14.329   0.425
19964W        W92279  27.953   4.271  13.019
19965W        W92280  33.913   5.204   4.212
19966W        W92281  24.071  28.573  12.547
19967W        W92282  32.544  20.194  13.825
19968W        W92283  29.030  11.225  12.989
19969W        W92284  18.276  25.572  13.823
19970W        W92285   9.222   8.686   2.289
19971W        W92286   6.915  20.259  10.513
19972W        W92287  44.974  26.195  13.046
19973W        W92288  27.139   5.806  13.350
19974W        W92289  30.561  10.277  12.364
19975W        W92290  18.734   2.902  14.400
19976W        W92291  22.651  25.206  10.144
19977W        W92292  32.616  27.941  10.104
19978W        W92293  30.624  15.256  12.879
19979W        W92294  27.660  38.478  14.307
19980W        W92295  37.343   8.300   3.654
19981W        W92296  11.735  20.644   1.881
19982W        W92297   4.713   7.862   0.464
19983W        W92298  26.101   5.258  11.001
19984W        W92299  10.675  18.759  11.531
19985W        W92300  24.170  13.163  11.542
19986W        W92301  23.108  32.606   0.757
19987W        W92302  10.786  32.885   0.740
19988W        W92303  35.030  35.461  10.644
19989W        W92304  15.719  31.412  11.080
19990W        W92305  40.389  17.213  13.038
19991W        W92306  17.117   8.862   4.660
19992W        W92307   1.889  21.741   4.306
19993W        W92308  11.674  34.004  13.534
19994W        W92309   9.207  10.786   2.262
19995W        W92310  17.797   4.288   3.861
19996W        W92311   7.222  15.655  11.520
19997W        W92312  11.643  43.407  12.501
19998W        W92313  13.735  41.362   0.333
19999W        W92314  37.946  17.128  15.000
20000W        W92315  25.618  39.930  11.513
20001W        W92316   1.903  40.923   3.157
20002W        W92317  37.343  32.086   4.160
20003W        W92318  40.912  34.523   3.650
20004W        W92319  24.655  14.166  10.626
20005W        W92320  42.481   9.862  12.977
20006W        W92321  35.546   4.232  10.576
20007W        W92322   2.230  38.939   4.628
20008W        W92323  35.363   2.780   1.860
20009W        W92324  41.488  16.586  14.793
20010W        W92325  15.579   1.916  14.999
20011W        W92326  17.742  21.034  10.898
20012W        W92327  33.972  18.769  10.583
20013W        W92328   9.247  26.069   3.639
20014W        W92329  30.603   9.208   1.814
20015W        W92330  40.879  19.688   1.799
20016W        W92331  19.685  21.086   3.196
20017W        W92332  42.829  25.167  14.457
20018W        W92333  38.975  37.843  14.961
20019W        W92334  44.762  29.130   3.346
20020W        W92335  20.124  25.072  14.836
20021W        W92336   5.898   9.330   3.631
20022W        W92337   1.417  36.086   5.638
20023W        W92338  35.930  24.083   2.341
20024W        W92339  40.319  15.634  13.381
20025W        W92340  18.631  29.518  12.381
20026W        W92341   2.874  12.295  12.886
20027W        W92342  12.313  33.907  10.472
20028W        W92343   5.713  19.660   1.826
20029W        W92344  40.877  15.668  13.038
20030W        W92345   4.811  23.026  12.377
20031W        W92346   6.332  38.952  12.876
20032W        W92347  19.180   3.880   3.864
20033W        W92348  43.984  22.166   0.859
20034W        W92349  12.198  17.221   0.837
20035W        W92350  30.657  42.312  11.935
20036W        W92351  13.736  41.443  13.005
20037W        W92352  33.540   1.308   0.355
20038W        W92353  13.708   5.262   1.316
20039W        W92354  14.634  22.157   1.924
20040W        W92355  30.910  40.454   4.741
20041W        W92356   7.229  42.954   1.274
20042W        W92357  41.033  38.937   1.892
20043W        W92358  15.762  10.316   2.214
20044W        W92359   9.883   3.836  12.385
20045W        W92360  20.740  17.648  13.978
20046W        W92361  27.607   3.321  14.476
20047W        W92362  31.481  39.816  12.890
20048W        W92363  16.240   4.384  12.936
20049W        W92364  14.148  20.624   2.842
20050W        W92365   3.281  31.564  13.043
20051W        W92366  33.386  44.800  12.046
20052W        W92367  37.886  22.568  11.907
20053W        W92368  16.312  35.975   3.384
20054W        W92369  12.666  44.416   1.385
20055W        W92370  32.073  39.432  12.991
20056W        W92371   2.303  11.322   5.800
20057W        W92372  32.399  28.638  11.496
20058W        W92373  12.301  23.003  11.930
20059W        W92374  16.652  43.374  12.536
20060W        W92375  27.193  21.232  12.360
20061W        W92376  39.445   2.727   1.248
20062W        W92377  37.533  37.079   2.406
20063W        W92378   8.384  31.458  13.821
20064W        W92379  33.526  35.374  13.043
20065W        W92380   9.887  27.141  13.923
20066W        W92381  18.193   3.307   1.741
20067W        W92382  16.241   5.325   4.145
20068W        W92383  44.938   9.205   0.408
20069W        W92384  28.107  34.561   4.198
20070W        W92385  23.618  29.026   3.318
20071W        W92386  32.507  20.071  11.604
20072W        W92387  19.653   7.706  12.575
20073W        W92388  21.221   9.201   0.265
20074W        W92389  21.595   2.256  11.402
20075W        W92390  27.090  24.674   1.248
20076W        W92391  12.309  11.803  11.422
20077W        W92392  20.554  37.911  10.972
20078W        W92393  16.115  36.898   3.781
20079W        W92394  16.174   0.937  13.346
20080W        W92395  15.653  13.203  12.367
20081W        W92396  41.799  39.319   4.219
20082W        W92397  26.501  30.965   5.134
20083W        W92398  23.571  38.866  12.981
20084W        W92399  25.676  41.322   4.660
20085W        W92400  43.817  36.530   4.218
20086W        W92401   5.743   8.317   1.797
20087W        W92402   2.292  17.620  13.331
20088W        W92403  35.005  32.511  12.060
20089W        W92404  18.665  14.652   0.359
20090W        W92405  32.925   1.809  10.595
20091W        W92406  32.457  29.074  14.325
20092W        W92407  12.252  13.810   2.232
20093W        W92408  23.039  40.497  14.979
20094W        W92409  24.187   3.895  11.942
20095W        W92410   3.880  44.359   2.776
20096W        W92411   6.275  28.084   5.287
20097W        W92412   7.852  42.430   4.304
20098W        W92413  24.997  44.496  12.465
20099W        W92414  31.144  41.805   2.359
20100W        W92415  43.347  28.546  13.907
20101W        W92416  11.303  20.638   3.268
20102W        W92417  29.666   2.946   0.799
20103W        W92418  40.495   5.282  11.391
20104W        W92419  20.733  36.416  11.429
20105W        W92420   2.843  22.061  13.005
20106W        W92421  44.269   0.377   4.145
20107W        W92422   0.749  16.159  13.947
20108W        W92423   8.743  19.120   1.860
20109W        W92424   9.804  10.857  13.527
20110W        W92425   5.291  40.860  14.496
20111W        W92426   1.845  19.055   1.933
20112W        W92427  15.763  32.031   2.664
20113W        W92428  41.908   3.351   3.843
20114W        W92429  30.973  43.331  14.005
20115W        W92430  22.106  16.769   4.616
20116W        W92431  10.164  28.491   1.908
20117W        W92432  43.926  25.467  11.374
20118W        W92433  43.507  16.633  11.871
20119W        W92434  13.140   4.356  10.545
20120W        W92435  44.310  33.107  10.953
20121W        W92436  17.640  33.448   1.720
20122W        W92437  42.800  28.038   3.790
20123W        W92438  16.141  33.020  13.019
20124W        W92439  14.629  26.489  13.969
20125W        W92440  18.650  38.916  11.935
20126W        W92441   6.739  32.983  12.889
20127W        W92442  20.592  19.103   2.370
20128W        W92443  19.087  30.145   1.707
20129W        W92444   6.185   6.396  13.490
20130W        W92445  43.784   6.828   3.700
20131W        W92446   6.796  21.114   2.193
20132W        W92447  35.516  18.127  14.921
20133W        W92448  32.554   3.734   3.237
20134W        W92449  26.494  41.844   2.850
20135W        W92450  39.853  12.288  14.368
20136W        W92451  12.717   3.850  12.070
20137W        W92452   8.363   7.743   2.219
20138W        W92453  44.856  30.120  14.816
20139W        W92454  20.694  16.106   1.820
20140W        W92455  23.171  39.948   1.797
20141W        W92456   2.807  25.680   1.326
20142W        W92457   2.442  38.821  10.478
20143W        W92458  16.733  26.077   0.480
20144W        W92459   2.746  17.647   2.874
20145W        W92460  20.558   6.374   2.709
20146W        W92461   1.861  31.951  11.394
20147W        W92462   3.327  27.955   2.310
20148W        W92463  35.596   2.389   1.424
20149W        W92464  31.082  10.645  14.774
20150W        W92465  28.111  44.965   0.949
20151W        W92466   6.729  26.081  11.974
20152W        W92467  23.540  25.086   3.319
20153W        W92468   7.245   8.294  14.810
20154W        W92469  14.675   0.767   0.442
20155W        W92470  16.174  36.060   0.961
20156W        W92471  18.119  35.402  14.353
20157W        W92472  32.894  31.978   4.770
20158W        W92473  19.235  17.710   1.331
20159W        W92474  36.523  32.507  10.410
20160W        W92475   5.347  37.386   4.161
20161W        W92476  10.714  38.029  11.461
20162W        W92477  23.048   7.817  13.834
20163W        W92478  36.445  13.747   1.894
20164W        W92479  13.159   2.389   5.218
20165W        W92480  12.843   4.722   3.154
20166W        W92481   9.741  30.109   3.756
20167W        W92482  31.599   3.762   4.831
20168W        W92483  44.269  41.361  11.586
20169W        W92484  28.136   8.334   4.117
20170W        W92485  34.977  16.244  14.966
20171W        W92486  31.103   3.873   2.406
20172W        W92487  18.626  11.632   4.662
20173W        W92488   1.780  21.176   3.756
20174W        W92489  26.197   9.341   1.837
20175W        W92490  16.729  35.374  11.443
20176W        W92491  15.276  43.822   1.397
20177W        W92492   2.882  33.098   2.814
20178W        W92493   3.364  44.334  12.933
20179W        W92494  22.682  13.293  13.971
20180W        W92495  43.497   2.279   0.420
20181W        W92496   5.315  33.551  12.466
20182W        W92497  33.418  30.035  14.497
20183W        W92498  31.009  40.974   4.326
20184W        W92499  42.925   2.876   1.443
20185W        W92500  44.342  14.711   3.279
20186W        W92501  19.268  13.126   3.823
20187W        W92502  19.767  29.655   2.784
20188W        W92503  31.597  43.483  14.282
20189W        W92504  24.999   6.363  14.333
20190W        W92505  18.154  39.063  12.404
20191W        W92506  10.761   7.768  10.514
20192W        W92507  28.058  35.579   1.710
20193W        W92508  35.037   1.970  14.832
20194W        W92509   3.709  18.605   2.236
20195W        W92510  18.216  24.027  12.368
20196W        W92511  41.801  17.068   4.210
20197W        W92512   7.803  15.105  10.918
20198W        W92513  22.578  43.969   2.367
20199W        W92514  31.613   5.423  11.385
20200W        W92515   8.307  39.329   3.199
20201W        W92516  32.603  12.704   1.801
20202W        W92517  21.685  18.064  13.351
20203W        W92518  42.289   0.760   0.339
20204W        W92519   8.827  27.469  14.396
20205W        W92520  18.287   2.357   1.357
20206W        W92521  43.773   6.753   2.346
20207W        W92522  26.976  16.622   0.255
20208W        W92523  32.585  25.533   3.834
20209W        W92524  42.024  21.726   4.287
20210W        W92525  33.513  32.123  13.413
20211W        W92526  18.076   4.363  10.922
20212W        W92527  11.286  16.812   4.348
20213W        W92528   0.883   6.183   2.375
20214W        W92529  41.830  11.310   2.854
20215W        W92530  16.225  31.645  10.966
20216W        W92531  20.077  37.999  12.555
20217W        W92532  34.898  21.614  13.358
20218W        W92533  29.494  35.376  14.827
20219W        W92534  10.176  44.422   2.842
20220W        W92535   6.250  38.866  14.949
20221W        W92536  19.671  25.663  12.889
20222W        W92537  34.866   0.769   0.884
20223W        W92538  39.899  16.809   2.824
20224W        W92539  22.598  15.626   2.870
20225W        W92540  26.497  37.025   3.339
20226W        W92541  32.534  16.277  11.957
20227W        W92542  40.988  42.015  11.415
20228W        W92543  21.738  12.712  11.393
20229W        W92544  30.160  37.535  13.993
20230W        W92545  13.796   9.171  11.078
20231W        W92546  36.450  11.742  14.344
20232W        W92547  25.551   4.326  11.612
20233W        W92548   4.352   8.288  13.825
20234W        W92549  32.451  40.810  10.546
20235W        W92550  21.145  28.533   4.117
20236W        W92551   8.868  15.318   0.440
20237W        W92552  19.134  42.983  13.060
20238W        W92553  33.984  22.605   0.272
20239W        W92554   7.683  22.662   0.426
20240W        W92555  14.589  16.700  10.958
20241W        W92556   5.868  40.401  14.958
20242W        W92557  37.358  25.008   5.166
20243W        W92558  29.609   5.306   4.192
20244W        W92559  42.474  20.194  12.084
20245W        W92560  24.709  22.567  14.026
20246W        W92561   4.731  22.033  11.046
20247W        W92562  23.602   1.882  14.472
20248W        W92563  25.991  23.616   0.377
20249W        W92564  13.341   8.741   1.908
20250W        W92565  15.690  25.623  11.418
20251W        W92566  31.490   3.276   3.825
20252W        W92567  39.474   1.405  12.986
20253W        W92568  37.969   6.714   3.364
20254W        W92569  17.565   8.365   5.656
20255W        W92570  33.470   0.975   3.302
20256W        W92571   9.832   4.361  11.970
20257W        W92572   7.777  43.993  12.407
20258W        W92573  13.621  43.778  12.954
20259W        W92574  28.061  22.565  13.354
20260W        W92575  36.956  16.280   0.347
20261W        W92576  34.894   1.931  10.976
20262W        W92577  28.145  15.250  12.975
20263W        W92578  13.143  26.660   3.798
20264W        W92579  40.519  18.194  14.955
20265W        W92580   4.388  40.486  14.286
20266W        W92581  33.046  42.873  11.081
20267W        W92582   4.747  28.160   4.201
20268W        W92583  25.570  37.455   0.884
20269W        W92584  19.248  10.810   3.777
20270W        W92585  29.089  14.168   0.800
20271W        W92586   9.316  22.142   0.862
20272W        W92587  22.248  40.852   0.895
20273W        W92588  36.097   9.303  10.408
20274W        W92589   3.846  12.814   0.871
20275W        W92590   0.468  28.652  14.367
20276W        W92591   1.913  12.295   4.767
20277W        W92592  42.354  33.587  13.383
20278W        W92593  17.102  12.647  13.870
20279W        W92594  11.329  20.125  12.503
20280W        W92595  31.961  30.522   3.375
20281W        W92596  36.072   5.849  10.566
20282W        W92597  22.117  11.358  14.435
20283W        W92598  26.003  10.287  12.410
20284W        W92599  14.313  42.511   2.194
20285W        W92600  33.561  24.031   2.781
20286W        W92601  33.620  24.628   2.875
20287W        W92602  37.874  23.099   1.429
20288W        W92603  11.857  17.712   0.927
20289W        W92604  18.227   7.339  10.595
20290W        W92605  31.442  42.419   3.328
20291W        W92606   4.750  39.892  12.838
20292W        W92607  24.988  17.145  14.971
20293W        W92608  37.488  18.678  11.549
20294W        W92609  37.558  23.605   2.900
20295W        W92610  37.901  22.234  11.992
20296W        W92611  27.460  10.201  14.375
20297W        W92612  11.203  33.615   0.280
20298W        W92613   1.864  24.594   4.230
20299W        W92614  32.026  37.062  10.922
20300W        W92615  43.315  19.775   4.172
20301W        W92616  27.197  22.057  12.946
20302W        W92617  13.120  11.248  14.882
20303W        W92618  15.085  14.125   3.378
20304W        W92619   8.705   1.454  12.466
20305W        W92620  14.200  31.991   3.698
20306W        W92621  41.441  19.630  12.397
20307W        W92622  33.462   0.773  11.901
20308W        W92623  24.991  10.834   1.805
20309W        W92624  20.107  14.115   4.757
20310W        W92625  26.112  21.253  13.500
20311W        W92626   5.780  36.034   4.288
20312W        W92627   8.798   1.976   2.317
20313W        W92628  40.434  23.067  13.821
20314W        W92629  22.217  39.062   4.268
20315W        W92630  26.478   7.890  11.891
20316W        W92631   9.216  38.342   2.870
20317W        W92632   2.771  28.008  12.854
20318W        W92633   0.328  10.140   3.692
20319W        W92634  28.015  36.478   1.749
20320W        W92635   2.944  26.510  13.518
20321W        W92636  42.883  25.651   4.167
20322W        W92637   2.334  31.559   0.450
20323W        W92638  40.449  24.718   1.802
20324W        W92639  12.136  19.209   2.735
20325W        W92640  32.446  27.668   3.843
20326W        W92641  10.277  24.141   2.887
20327W        W92642  31.543   2.725   2.288
20328W        W92643  36.901   9.236  14.989
20329W        W92644  36.584  21.722  14.415
20330W        W92645  44.478  18.246  14.910
20331W        W92646   3.288  23.027   2.358
20332W        W92647  15.611   4.394   3.855
20333W        W92648  43.822  15.729  12.401
20334W        W92649  14.606   6.679   3.235
20335W        W92650  16.666  33.604   1.293
20336W        W92651  38.019   8.195  12.842
20337W        W92652  34.591  21.652   3.363
20338W        W92653   6.304  19.109  10.540
20339W        W92654   1.353  35.972   2.403
20340W        W92655  17.305  43.013  10.546
20341W        W92656  13.793   5.730   2.685
20342W        W92657   2.358  35.454   3.363
20343W        W92658  26.137   0.967   4.320
20344W        W92659  32.928  32.552  13.522
20345W        W92660  19.761   5.197   0.346
20346W        W92661   7.199   2.936   3.173
20347W        W92662  40.805  44.390  11.896
20348W        W92663  25.024  39.497   3.251
20349W        W92664  41.988  30.586   2.253
20350W        W92665  18.096  38.538   0.909
20351W        W92666  27.641   4.703   3.656
20352W        W92667  43.844  24.215  11.915
20353W        W92668  13.741  18.737   0.843
20354W        W92669  42.808  23.490   0.735
20355W        W92670   7.184   2.361   4.269
20356W        W92671  10.203  29.425  14.821
20357W        W92672  41.850  22.611   2.207
20358W        W92673  34.462  17.720  14.441
20359W        W92674   6.820  11.755  12.424
20360W        W92675  40.537  16.658  14.763
20361W        W92676  19.139   7.188  13.826
20362W        W92677  11.219   0.798  13.978
20363W        W92678  14.145   8.706  12.484
20364W        W92679  26.053  40.972  13.033
20365W        W92680  22.689  44.501   0.383
20366W        W92681   9.711  21.557  12.472
20367W        W92682  19.188  19.174  13.052
20368W        W92683  18.701  20.114  13.410
20369W        W92684  40.023  13.654  14.025
20370W        W92685  20.086  13.286   4.747
20371W        W92686   1.381  35.955   3.160
20372W        W92687  11.786  18.157  11.515
20373W        W92688   8.697  17.586  14.777
20374W        W92689  17.068  15.225  14.315
20375W        W92690  23.552  22.029   5.697
20376W        W92691  31.034  39.378  13.362
20377W        W92692  28.646  39.514   4.270
20378W        W92693  33.500  33.532   2.317
20379W        W92694   8.701   2.832   4.192
20380W        W92695  29.615  22.671   4.260
20381W        W92696   4.440  21.019  10.435
20382W        W92697  22.114   9.202   3.358
20383W        W92698  39.484  12.820   4.183
20384W        W92699  17.569  17.576   3.669
20385W        W92700   3.828  41.968  14.312
20386W        W92701  29.954  16.128   0.933
20387W        W92702  31.560  33.508  13.802
20388W        W92703  42.281  21.261  14.032
20389W        W92704   3.321  36.379   2.210
20390W        W92705   2.290  10.328   1.904
20391W        W92706   6.715  31.408   1.245
20392W        W92707  17.254   1.356  11.381
20393W        W92708   4.777   4.328   2.741
20394W        W92709  43.388  13.308   2.365
20395W        W92710  11.753  40.365  14.885
20396W        W92711  24.134  13.290  13.401
20397W        W92712  40.843  28.111  14.298
20398W        W92713   0.407  19.058  11.002
20399W        W92714  17.714  19.194   0.733
20400W        W92715  16.627   5.736   2.723
20401W        W92716  28.616  37.451   1.769
20402W        W92717  31.452   1.880   4.258
20403W        W92718  28.164  13.726  11.928
20404W        W92719  42.785  19.780  11.390
20405W        W92720  24.629  36.092  10.489
20406W        W92721  30.566  17.069  12.566
20407W        W92722  14.278  17.796  11.535
20408W        W92723  10.786  11.273  13.874
20409W        W92724  41.970   9.690  14.370
20410W        W92725  20.111   4.938   2.766
20411W        W92726   6.734   5.819   1.358
20412W        W92727  10.747  42.017   1.834
20413W        W92728  12.844  33.971   1.782
20414W        W92729  31.044  41.000   2.243
20415W        W92730  32.910  38.824   4.644
20416W        W92731  29.035  11.179   3.691
20417W        W92732  43.445  34.414   0.732
20418W        W92733  33.463   2.806   4.268
20419W        W92734   9.172   5.426  12.466
20420W        W92735  18.127   0.794   2.327
20421W        W92736  17.586  30.934  14.988
20422W        W92737  21.076  30.644  10.545
20423W        W92738   3.451  30.920   0.479
20424W        W92739  37.410   6.804   3.826
20425W        W92740   2.728  21.232   3.258
20426W        W92741   2.362   5.424   3.674
20427W        W92742  21.742  42.974   1.246
20428W        W92743  19.136   8.285   5.774
20429W        W92744  35.601   3.229   4.641
20430W        W92745  22.547  43.363   4.751
20431W        W92746  33.106  23.176   0.384
20432W        W92747  10.208   0.755  12.086
20433W        W92748  16.146  38.502   5.144
20434W        W92749  34.551  37.524   1.783
20435W        W92750  43.942  28.147   1.332
20436W        W92751  34.595  31.112  11.106
20437W        W92752  15.705   0.949  12.987
20438W        W92753  23.638   5.755  13.949
20439W        W92754  41.921  30.532  14.966
20440W        W92755  36.445  18.569   4.645
20441W        W92756  15.148  29.461  10.142
20442W        W92757  40.812  13.748  11.519
20443W        W92758   3.397  32.951  10.448
20444W        W92759  11.315  27.029   1.435
20445W        W92760  19.726  37.358   5.092
20446W        W92761  12.361  36.925   4.180
20447W        W92762  32.392  17.173   1.225
20448W        W92763  13.613   5.905   3.220
20449W        W92764  25.576  37.579  10.113
20450W        W92765  15.815  41.909   0.444
20451W        W92766  32.504  22.191  10.488
20452W        W92767  36.397  18.765   5.232
20453W        W92768  12.744  27.632  10.994
20454W        W92769  21.210  39.808   0.441
20455W        W92770  34.378  12.635   1.897
20456W        W92771   1.820  31.426  12.040
20457W        W92772   7.831  19.218  12.469
20458W        W92773  18.050  17.589  10.406
20459W        W92774  27.127  30.910  12.048
20460W        W92775  18.565  17.741  11.024
20461W        W92776   6.362  29.057  11.086
20462W        W92777   4.751   1.299  13.518
20463W        W92778  44.343  25.554  10.475
20464W        W92779   9.833  19.560   0.956
20465W        W92780   7.370   0.406  12.530
20466W        W92781  30.443  25.126  11.102
20467W        W92782  11.251  15.694   1.449
20468W        W92783  30.051   9.329   4.698
20469W        W92784  39.416   2.942   3.666
20470W        W92785  40.923  29.448   0.284
20471W        W92786   7.723  27.017   4.770
20472W        W92787   7.309  42.432   3.762
20473W        W92788  42.423  24.578   2.230
20474W        W92789  25.536   6.203   1.897
20475W        W92790  38.860  28.542   1.798
20476W        W92791   0.480   3.352  14.954
20477W        W92792  26.142  23.567  14.467
20478W        W92793  43.471  24.080  12.027
20479W        W92794  44.391  31.648  10.925
20480W        W92795  34.956  25.195   0.944
20481W        W92796  32.902  13.118  12.520
20482W        W92797  13.275  28.605  12.841
20483W        W92798  30.104  38.546   3.279
20484W        W92799  17.672  23.185  10.423
20485W        W92800  41.343  18.762  12.906
20486W        W92801  23.080   8.684   2.808
20487W        W92802  28.538  30.422   4.328
20488W        W92803  10.842  12.738   2.838
20489W        W92804  38.879   4.786   5.116
20490W        W92805  32.900   6.885  12.939
20491W        W92806  40.829  26.648   1.446
20492W        W92807  26.097  40.833  14.505
20493W        W92808  44.466  16.213   4.304
20494W        W92809  38.069  24.098   4.276
20495W        W92810  33.017  25.483   4.792
20496W        W92811  17.619  35.487   0.809
20497W        W92812  10.670  17.668  13.372
20498W        W92813   9.788  14.641   0.744
20499W        W92814  19.710  22.200  13.823
20500W        W92815  33.403  35.366   2.881
20501W        W92816  31.567  24.007   4.301
20502W        W92817  35.103   2.868   1.779
20503W        W92818  17.276  36.430  11.397
20504W        W92819  38.378   7.185   1.331
20505W        W92820   5.436   7.197  12.021
20506W        W92821  36.025  33.893   0.291
20507W        W92822  17.272   3.822  12.516
20508W        W92823  23.018  20.659  14.499
20509W        W92824  31.930  27.477  10.084
20510W        W92825  29.659  29.448   1.329
20511W        W92826   1.908  26.545   4.226
20512W        W92827  23.735  26.509   3.296
20513W        W92828  36.518  32.536  13.850
20514W        W92829  27.611  17.728  13.983
20515W        W92830  44.295  44.365  10.950
20516W        W92831  16.742  33.414  14.406
20517W        W92832   3.243  30.049  13.307
20518W        W92833  16.699  25.601  14.376
20519W        W92834  29.036  40.407   4.218
20520W        W92835  35.084  32.476   3.772
20521W        W92836  30.583  20.658   1.310
20522W        W92837  11.327  39.488   4.707
20523W        W92838  27.623  39.937  10.627
20524W        W92839  43.399  17.750  12.877
20525W        W92840  36.949  22.582   2.335
20526W        W92841  44.293  24.603  11.500
20527W        W92842  13.815   1.301   3.273
20528W        W92843  23.025  24.087   0.256
20529W        W92844  19.200  26.159   1.925
20530W        W92845  18.690  11.224   1.768
20531W        W92846  30.086  11.367  13.885
20532W        W92847   5.876   6.230   0.796
20533W        W92848  17.259   9.661  14.002
20534W        W92849  26.595   2.862  14.316
20535W        W92850  26.082   7.391  12.999
20536W        W92851   1.881  15.747   4.290
20537W        W92852  31.480  36.009  12.880
20538W        W92853   5.237   5.815   4.749
20539W        W92854  31.461  24.681   3.217
20540W        W92855   3.840   6.306  14.294
20541W        W92856  19.760  14.128   4.767
20542W        W92857   9.737  26.041  12.075
20543W        W92858  14.221   2.938  13.890
20544W        W92859  28.105  28.945   5.250
20545W        W92860  12.125   3.442   3.821
20546W        W92861  17.301  38.460   2.785
20547W        W92862   5.782  27.554  11.942
20548W        W92863   4.341   2.892  10.928
20549W        W92864  30.908  14.138  12.057
20550W        W92865  40.306  17.726  14.010
20551W        W92866   3.243  38.016  13.338
20552W        W92867  33.900  29.134   2.895
20553W        W92868  17.130  33.916  13.908
20554W        W92869   6.290  31.121   4.680
20555W        W92870  18.549  24.616  11.412
20556W        W92871  17.196  17.570  11.427
20557W        W92872  38.869   9.247  12.494
20558W        W92873  11.309   6.827  14.340
20559W        W92874  41.805   7.875  11.027
20560W        W92875  30.427  41.830  14.842
20561W        W92876  15.105  27.176  13.044
20562W        W92877  10.840  36.925  11.881
20563W        W92878  13.637  27.174  13.029
20564W        W92879   3.419  40.530   0.746
20565W        W92880  32.516   0.396  12.890
20566W        W92881  40.390  31.604  11.985
20567W        W92882  23.225  18.250  12.547
20568W        W92883  25.713  26.038   3.636
20569W        W92884   4.266  36.846   0.323
20570W        W92885  13.680  17.161  13.024
20571W        W92886  20.253  36.091   3.261
20572W        W92887  22.680  25.524  10.613
20573W        W92888  18.710  27.595  11.904
20574W        W92889  19.050  31.113   3.184
20575W        W92890  37.859  26.156  12.080
20576W        W92891   9.286  41.995  11.373
20577W        W92892  33.981  13.815   3.191
20578W        W92893  19.565  26.966  12.071
20579W        W92894  10.212  41.369  13.386
20580W        W92895  16.594  37.837  13.910
20581W        W92896  21.248  23.547   2.896
20582W        W92897  30.609  16.781  10.543
20583W        W92898  18.646  14.668  14.308
20584W        W92899  19.541  36.043  13.515
20585W        W92900  38.391  25.675   9.943
20586W        W92901   2.743  24.530  12.566
20587W        W92902  31.004  35.427   0.833
20588W        W92903  19.550   1.869  12.068
20589W        W92904   3.394  28.556  11.563
20590W        W92905  18.673  41.942  14.989
20591W        W92906  19.627  40.473   3.226
20592W        W92907  33.476  27.038  12.427
20593W        W92908  22.212  35.022   3.735
20594W        W92909   1.950  13.331  13.496
20595W        W92910  24.711   4.346  11.429
20596W        W92911  35.047  20.099   0.246
20597W        W92912  25.116   1.323  11.937
20598W        W92913  27.144   3.293   0.429
20599W        W92914   0.385   0.425  14.842
20600W        W92915  41.806  16.669  12.971
20601W        W92916  38.503  12.189   0.917
20602W        W92917  26.673  12.239  14.957
20603W        W92918   4.842   6.813   3.681
20604W        W92919  27.498  39.825  11.065
20605W        W92920  20.657  29.956   0.911
20606W        W92921  29.154   7.228  10.485
20607W        W92922   7.714  38.854  10.981
20608W        W92923  26.019  30.644   0.826
20609W        W92924  14.811  14.314  14.385
20610W        W92925   3.913  28.487  13.375
20611W        W92926  41.821  37.049   2.827
20612W        W92927  23.583  22.742   0.388
20613W        W92928   3.436   3.758   3.712
20614W        W92929  12.168  25.489  13.970
20615W        W92930  38.892  38.517   3.787
20616W        W92931  25.053  29.137  13.964
20617W        W92932   9.847  20.134   3.643
20618W        W92933  42.513  22.541   3.286
20619W        W92934  30.070  29.009  10.892
20620W        W92935  24.994  20.546   3.735
20621W        W92936  26.077  23.503  14.941
20622W        W92937  35.891  16.297  12.387
20623W        W92938   7.811   1.417  14.900
20624W        W92939  10.745  29.067   2.209
20625W        W92940   9.755  23.614   2.803
20626W        W92941  17.592  34.951  10.965
20627W        W92942  31.995  42.363  13.389
20628W        W92943  15.777  36.358   4.804
20629W        W92944   3.403  24.124  12.035
20630W        W92945   6.302   4.728   3.718
20631W        W92946  17.756  32.453  13.342
20632W        W92947   5.207  43.007   0.425
20633W        W92948   9.849  30.152  12.001
20634W        W92949   5.828  20.743  12.496
20635W        W92950   4.895  17.656  14.944
20636W        W92951  18.056   9.701  13.807
20637W        W92952  39.012  17.669   2.869
20638W        W92953  35.468  11.195  10.526
20639W        W92954  13.788  40.853  14.491
20640W        W92955  37.004  43.795   0.843
20641W        W92956  34.940  25.140   0.436
20642W        W92957  42.501   7.313   2.321
20643W        W92958   2.355   5.274  12.356
20644W        W92959  34.469  15.756   3.164
20645W        W92960  35.931  14.682  10.581
20646W        W92961  30.515  10.783  10.983
20647W        W92962   5.408  42.327   4.613
20648W        W92963  30.113  11.265   2.872
20649W        W92964  38.854  33.616  14.378
20650W        W92965  38.906  10.821  12.885
20651W        W92966  35.588  40.340   0.901
20652W        W92967  35.564  36.579   3.646
20653W        W92968  13.746  35.483  10.586
20654W        W92969  21.529   7.342  11.441
20655W        W92970  30.081  18.577   3.273
20656W        W92971  24.635  28.680  13.957
20657W        W92972  44.369  32.900   0.879
20658W        W92973  25.703   5.770   1.429
20659W        W92974  26.048  13.221   4.639
20660W        W92975  41.841  25.567  12.517
20661W        W92976   6.787   0.384  14.805
20662W        W92977  33.512  34.038   4.319
20663W        W92978  11.275  18.747  13.328
20664W        W92979   0.869   3.219   5.098
20665W        W92980   5.227  33.066  12.069
20666W        W92981  14.829  34.884  10.526
20667W        W92982  34.116  20.238  13.968
20668W        W92983  24.126  24.578   1.875
20669W        W92984  44.436  44.815   2.226
20670W        W92985  36.382  25.629   2.372
20671W        W92986  27.071  14.664  12.892
20672W        W92987  44.996  30.562   1.930
20673W        W92988  16.243   3.330   3.249
20674W        W92989  30.063  28.517  12.410
20675W        W92990   6.356  33.515  12.832
20676W        W92991   3.314  11.668  13.036
20677W        W92992  25.550   8.393   1.791
20678W        W92993  38.493  25.963  11.427
20679W        W92994  38.941  15.799   2.417
20680W        W92995  19.062   8.168  11.457
20681W        W92996  26.992  20.717   2.272
20682W        W92997  14.293  16.258  14.383
20683W        W92998  15.744  12.785   1.760
20684W        W92999  39.967  34.450  12.422
20685W        W93000  19.175  44.278  12.070
20686W        W93001  27.152  30.075  10.559
20687W        W93002   4.337  34.924  13.404
20688W        W93003  27.946  24.512   2.801
20689W        W93004  42.523   8.728   0.803
20690W        W93005  28.618  42.391  14.941
20691W        W93006   1.841  35.038   1.910
20692W        W93007  44.499  44.842  11.507
20693W        W93008  22.559  20.693   4.667
20694W        W93009  14.291  11.371  13.880
20695W        W93010   2.249  12.713   3.823
20696W        W93011  23.082   9.761  12.360
20697W        W93012  24.486  22.589   0.905
20698W        W93013  12.746  10.781   0.380
20699W        W93014  25.628  33.463  10.418
20700W        W93015  17.582   9.302  11.911
20701W        W93016  11.688  18.728  14.834
20702W        W93017  13.795  44.393   1.704
20703W        W93018  44.295  13.331   1.774
20704W        W93019  12.163  15.112   2.293
20705W        W93020  16.233  31.979   2.670
20706W        W93021   7.719  41.369   4.196
20707W        W93022  32.459  20.218  12.065
20708W        W93023  36.385  35.037   3.226
20709W        W93024  30.497   0.789  12.534
20710W        W93025  19.051  29.603   2.673
20711W        W93026  15.648  37.488  11.430
20712W        W93027  27.488  18.722  10.983
20713W        W93028  14.110   0.975   4.739
20714W        W93029  27.173  35.869  14.429
20715W        W93030  13.605  14.174   1.362
20716W        W93031  37.919   0.482  11.857
20717W        W93032  19.061  24.551  12.500
20718W        W93033  39.921  26.141  14.964
20719W        W93034  15.148  34.119  12.478
20720W        W93035  26.673  11.659  14.988
20721W        W93036  30.460  28.064  13.514
20722W        W93037   1.969  25.563   4.116
20723W        W93038  41.032  10.315  11.059
20724W        W93039   0.459  37.362  14.809
20725W        W93040  12.626  10.251   1.399
20726W        W93041  36.583  25.049  13.803
20727W        W93042  23.004  31.084  11.960
20728W        W93043  27.186   7.295   4.688
20729W        W93044  36.466   6.862   4.682
20730W        W93045  42.885  26.665   1.341
20731W        W93046   4.356   6.896  14.332
20732W        W93047  19.671  32.540   1.294
20733W        W93048   1.412   9.229  11.415
20734W        W93049  15.228  27.101   2.390
20735W        W93050  16.739  34.871  10.930
20736W        W93051  27.082  44.792   4.181
20737W        W93052  20.111  41.968  12.992
20738W        W93053  36.904  28.527   0.477
20739W        W93054  11.810  19.160   0.852
20740W        W93055  32.993  21.107   3.352
20741W        W93056   6.713  24.130  11.030
20742W        W93057   4.418   8.292  12.872
20743W        W93058   3.436  11.859   0.780
20744W        W93059   6.332  21.749  11.901
20745W        W93060  28.127  33.875  12.471
20746W        W93061   2.355  29.012   2.846
20747W        W93062  38.416  33.576   2.282
20748W        W93063  43.440  38.038  14.499
20749W        W93064  14.680  16.644  12.838
20750W        W93065  28.599   0.444  12.501
20751W        W93066  41.318  30.037   0.475
20752W        W93067   7.717  44.379  14.807
20753W        W93068  17.619  40.909   5.110
20754W        W93069  42.435  23.490   4.719
20755W        W93070  16.144  29.106  10.498
20756W        W93071  24.699  18.269  13.854
20757W        W93072  16.572  26.676   4.628
20758W        W93073  12.814  40.011   1.276
20759W        W93074  19.284  34.886   1.872
20760W        W93075  28.444  22.600  11.583
20761W        W93076   2.867  44.432  10.635
20762W        W93077  18.128   4.238   2.837
20763W        W93078  21.196  20.740   1.886
20764W        W93079   4.229  18.220  10.887
20765W        W93080  15.685  30.996  12.549
20766W        W93081  24.143  22.680   2.816
20767W        W93082   0.813  33.959  14.964
20768W        W93083  39.439  37.386   3.241
20769W        W93084  29.979  32.928   0.758
20770W        W93085  39.395  15.219   2.753
20771W        W93086   0.809  19.061  11.373
20772W        W93087   8.859   8.288  13.362
20773W        W93088  24.037  42.990  13.331
20774W        W93089  20.031  23.174   1.724
20775W        W93090  42.012  10.733   0.367
20776W        W93091  12.664  29.527  10.497
20777W        W93092   1.429  36.534   4.814
20778W        W93093  16.640   5.201  10.633
20779W        W93094   6.400  37.566   4.265
20780W        W93095   9.257   2.754   4.328
20781W        W93096  12.837  14.794  12.023
20782W        W93097  37.568  31.955   5.208
20783W        W93098  33.521  22.553  11.903
20784W        W93099   5.305  23.518  10.975
20785W        W93100  22.582  37.401   2.795
20786W        W93101  44.268  21.083  13.524
20787W        W93102  41.822  28.127   1.742
20788W        W93103   7.324  30.653   2.274
20789W        W93104  12.678   1.732  14.870
20790W        W93105  27.038  27.158  13.321
20791W        W93106  40.541  19.181  14.992
20792W        W93107  14.251  32.096   1.855
20793W        W93108  20.246   3.783  11.877
20794W        W93109  29.963  30.061   4.838
20795W        W93110  10.293   3.896  14.006
20796W        W93111  28.613  25.091  13.458
20797W        W93112  26.024  42.953   1.435
20798W        W93113  31.634  25.082  11.007
20799W        W93114  20.088   1.867   2.705
20800W        W93115  37.848  14.806   3.273
20801W        W93116  34.539  25.175   2.780
20802W        W93117  42.951  16.659  14.989
20803W        W93118  11.274  13.738   0.764
20804W        W93119  16.158  11.220   1.888
20805W        W93120  25.987  23.083  14.828
20806W        W93121  37.892   7.254   5.288
20807W        W93122  40.050  44.773  10.487
20808W        W93123  23.209   4.421   4.619
20809W        W93124  39.512  24.591   4.125
20810W        W93125  23.687  38.934   4.704
20811W        W93126  43.930  12.311   4.205
20812W        W93127  36.543  37.029   2.241
20813W        W93128  37.913  22.570   3.310
20814W        W93129  19.671  34.901  14.464
20815W        W93130   0.751   6.207   4.791
20816W        W93131  28.464  32.434   5.135
20817W        W93132  15.615   6.699   4.709
20818W        W93133  19.280  11.823  14.293
20819W        W93134  11.141  34.930   3.282
20820W        W93135  31.464  34.490   4.131
20821W        W93136  22.133   1.912   2.367
20822W        W93137   1.435  23.093   0.831
20823W        W93138   8.176  40.373   4.344
20824W        W93139  42.990  43.980  14.800
20825W        W93140  27.085  26.969   1.817
20826W        W93141  10.793   6.855  14.861
20827W        W93142  30.055  43.773   0.280
20828W        W93143   6.225   2.906   0.323
20829W        W93144  26.112  23.647   1.777
20830W        W93145  12.655  36.961  11.535
20831W        W93146   1.247  21.630  12.848
20832W        W93147   1.910  17.256   0.806
20833W        W93148   6.295  28.066   2.345
20834W        W93149   9.841  44.767   2.184
20835W        W93150  23.199   3.275   4.311
20836W        W93151  16.707  23.599  10.558
20837W        W93152   3.901   4.757   2.859
20838W        W93153  34.082  19.658   1.270
20839W        W93154  38.399  26.630  13.383
20840W        W93155   6.373  35.971  12.475
20841W        W93156   6.801  24.521   2.310
20842W        W93157  38.012  25.992  11.453
20843W        W93158  25.472  13.297   3.232
20844W        W93159  35.873   4.300   4.820
20845W        W93160  14.755  34.051  12.922
20846W        W93161   5.833  23.149  14.276
20847W        W93162  40.023   9.801  14.307
20848W        W93163   8.239  44.343  12.083
20849W        W93164   7.747  29.117   1.853
20850W        W93165  24.604  44.972   1.419
20851W        W93166  32.515  35.368  12.362
20852W        W93167  18.549   5.885   3.287
20853W        W93168  32.587  22.249   1.359
20854W        W93169  24.159   1.859   1.275
20855W        W93170  43.815  29.172   1.837
20856W        W93171  22.205  27.140  11.920
20857W        W93172  27.478  40.539  13.046
20858W        W93173  28.117  15.269  13.348
20859W        W93174  26.616  43.959  11.899
20860W        W93175  33.387   4.749  12.948
20861W        W93176   8.371  43.853   3.728
20862W        W93177  22.222   1.464   2.736
20863W        W93178  35.531  43.848  10.555
20864W        W93179  29.067  21.719  10.573
20865W        W93180  42.375  23.992   1.713
20866W        W93181  27.525  22.026  14.818
20867W        W93182  10.779  36.958  12.979
20868W        W93183  41.300  39.972   3.231
20869W        W93184   1.765   4.367   3.733
20870W        W93185  22.693  15.217  10.018
20871W        W93186  25.170  23.144   3.289
20872W        W93187  39.506  24.533  13.357
20873W        W93188  27.132   4.756   3.631
20874W        W93189  15.104   6.306  13.960
20875W        W93190  38.025  17.665  13.811
20876W        W93191  38.489   0.824  11.044
20877W        W93192  32.593  31.907   4.243
20878W        W93193  29.146  34.481   3.309
20879W        W93194   5.729  19.737  10.425
20880W        W93195   2.814  11.145   2.292
20881W        W93196  44.813   8.294  11.578
20882W        W93197   4.367  32.509   4.329
20883W        W93198  41.871  38.839  14.442
20884W        W93199  33.905  43.313  12.871
20885W        W93200  36.509   0.879  11.927
20886W        W93201  20.158  15.236  13.439
20887W        W93202  34.950  21.583  10.892
20888W        W93203  44.290  34.955  14.380
20889W        W93204  39.493  22.507  12.495
20890W        W93205  38.847  34.078   3.299
20891W        W93206  44.275  38.952   2.810
20892W        W93207   7.904  26.092   3.667
20893W        W93208  32.979  16.577   0.764
20894W        W93209   6.774  18.103  11.108
20895W        W93210  12.149   1.895  13.034
20896W        W93211   2.841   2.917   2.377
20897W        W93212  21.727  10.666  12.490
20898W        W93213  26.169  22.549   4.665
20899W        W93214   3.877  19.115   2.753
20900W        W93215  12.132  14.833  12.841
20901W        W93216  44.394  37.940  11.543
20902W        W93217  42.801   5.388  12.471
20903W        W93218   1.870  22.219   0.857
20904W        W93219  32.519   3.323  10.948
20905W        W93220  12.334  43.349  12.488
20906W        W93221   3.305   1.267   4.634
20907W        W93222   7.884  24.143   3.732
20908W        W93223  13.255  13.195  10.483
20909W        W93224  25.073  20.091   9.524
20910W        W93225  17.243  29.637  13.421
20911W        W93226  38.928  42.444   0.293
20912W        W93227  33.554  35.386  11.880
20913W        W93228  31.993  32.988   1.781
20914W        W93229   7.332  39.928   0.352
20915W        W93230  42.457  30.534  13.487
20916W        W93231  20.530  11.776   2.854
20917W        W93232   1.956  26.959   0.430
20918W        W93233  33.105   0.303  13.836
20919W        W93234   4.706  12.737  12.369
20920W        W93235  35.919  21.655   1.914
20921W        W93236  37.991  10.685   2.198
20922W        W93237   2.724  34.474  10.964
20923W        W93238  27.623  42.026   1.230
20924W        W93239  42.784  13.599   4.805
20925W        W93240  15.273  37.853   0.441
20926W        W93241  26.574  29.509   0.392
20927W        W93242  27.042  30.512   1.884
20928W        W93243  10.705  32.897  12.902
20929W        W93244   4.283  13.187   0.841
20930W        W93245  29.426  38.379   3.355
20931W        W93246  37.047  43.501   0.770
20932W        W93247  34.010   9.844   1.788
20933W        W93248  38.457   8.656   0.455
20934W        W93249   9.828  28.045   0.479
20935W        W93250  16.810   7.291  13.864
20936W        W93251  12.697  42.013  12.919
20937W        W93252  15.612  34.938  14.296
20938W        W93253  26.072  25.711  13.391
20939W        W93254   1.294  42.983  11.993
20940W        W93255  37.430  23.105   4.205
20941W        W93256  18.623  13.109  11.046
20942W        W93257  27.570   9.339   4.655
20943W        W93258  22.745  15.284  11.542
20944W        W93259  27.495  36.482  10.644
20945W        W93260   0.272  24.007  14.353
20946W        W93261  44.278   8.168   2.831
20947W        W93262   5.301  19.668   0.394
20948W        W93263  18.125  24.206   4.699
20949W        W93264   1.344  26.559   1.767
20950W        W93265  14.760  24.658  13.022
20951W        W93266  19.718  35.917  13.923
20952W        W93267  11.638   2.269  11.120
20953W        W93268   0.901  31.553  14.811
20954W        W93269  40.000  35.953   1.260
20955W        W93270  19.591  11.833   0.874
20956W        W93271   8.160  14.292  11.047
20957W        W93272  23.564  34.082   2.829
20958W        W93273  27.134  15.100  11.440
20959W        W93274   4.420  30.133   1.358
20960W        W93275  23.119  20.707  12.864
20961W        W93276  29.503  30.438  10.061
20962W        W93277  18.759  35.569  14.891
20963W        W93278  44.859  25.504  11.558
20964W        W93279  37.007  43.853   1.251
20965W        W93280   5.283  21.656   2.331
20966W        W93281   4.761  29.126  12.077
20967W        W93282   1.865  42.793   3.725
20968W        W93283  36.927  34.933   1.245
20969W        W93284   5.252  34.389   0.808
20970W        W93285  18.176  34.081  10.559
20971W        W93286  17.798  39.554   3.692
20972W        W93287  29.515  27.187   0.466
20973W        W93288  20.051   7.803   3.386
20974W        W93289  25.523  22.545   4.291
20975W        W93290  39.047  26.563   2.346
20976W        W93291  35.013  37.494   1.871
20977W        W93292  36.846  33.461  10.990
20978W        W93293  27.472  13.721   0.414
20979W        W93294  24.678  39.522  14.346
20980W        W93295  32.907  10.188   2.730
20981W        W93296  31.032  39.835   1.903
20982W        W93297  37.452  40.444  13.410
20983W        W93298   8.288  40.048   1.794
20984W        W93299  19.639  39.927   3.319
20985W        W93300   0.822  26.995   0.313
20986W        W93301  42.947  27.494  11.543
20987W        W93302   1.955  26.534   3.654
20988W        W93303  29.132   0.747   2.765
20989W        W93304  41.965  14.214   0.314
20990W        W93305   6.918  13.670  12.918
20991W        W93306  40.911   9.696  11.390
20992W        W93307  35.919  35.915   4.341
20993W        W93308   2.450  39.812  13.039
20994W        W93309  17.225   4.905   4.251
20995W        W93310  17.186  34.951   2.686
20996W        W93311  19.154  30.037   2.237
20997W        W93312  31.525  32.098  12.422
20998W        W93313  39.363   6.323   4.141
20999W        W93314  25.002  36.864  12.356
21000W        W93315  28.488  11.846   0.407
21001W        W93316  19.593  16.309   1.741
21002W        W93317  39.859  44.447   4.284
21003W        W93318  25.161  30.414  12.409
21004W        W93319  35.987  43.385   1.446
21005W        W93320   3.800  30.127   0.379
21006W        W93321  35.934  11.270  12.442
21007W        W93322  24.138  35.409  12.061
21008W        W93323  22.662   6.419  14.320
21009W        W93324  22.647   3.934  11.446
21010W        W93325  36.456  10.379   1.779
21011W        W93326  14.733   6.743   2.365
21012W        W93327  36.399  34.100   0.733
21013W        W93328  44.787  34.514  11.873
21014W        W93329   6.236   8.207  14.452
21015W        W93330  12.840  18.229  14.902
21016W        W93331  20.202   1.458  13.868
21017W        W93332  12.682   4.727  11.025
21018W        W93333  31.433  16.287  12.060
21019W        W93334  10.182  25.473   2.824
21020W        W93335  13.651  39.040  14.928
21021W        W93336  12.724  36.412   3.713
21022W        W93337  25.167  26.512  12.880
21023W        W93338  42.463  22.213   1.929
21024W        W93339  44.953  43.378   0.768
21025W        W93340  17.236   3.336  13.504
21026W        W93341  32.409  40.839   1.387
21027W        W93342   8.727   2.885  12.998
21028W        W93343  35.455  40.040  12.859
21029W        W93344  28.935  37.875  11.872
21030W        W93345   0.426  13.761  13.827
21031W        W93346  32.894  21.148  14.857
21032W        W93347  34.868   7.796  12.415
21033W        W93348  21.021  36.980  10.996
21034W        W93349   5.834  32.133  14.772
21035W        W93350  36.039  44.340  14.785
21036W        W93351  41.027  33.588   1.214
21037W        W93352  29.089  16.161   1.349
21038W        W93353  40.464  24.187  12.856
21039W        W93354  22.222   3.340  13.876
21040W        W93355  42.325  11.796  14.781
21041W        W93356  32.114  15.260  10.934
21042W        W93357  31.112   2.351   2.281
21043W        W93358   2.763  12.130  11.493
21044W        W93359   4.238  35.879   3.229
21045W        W93360   1.921  24.069   4.168
21046W        W93361   5.760   0.975  10.454
21047W        W93362  40.872  24.616   2.766
21048W        W93363   0.839  44.292   0.756
21049W        W93364  41.988  38.479  11.083
21050W        W93365   9.887  36.396   1.827
21051W        W93366  12.266   3.770   0.393
21052W        W93367  42.403  25.597   3.199
21053W        W93368  35.445   9.818  12.943
21054W        W93369   0.816  19.756   3.735
21055W        W93370  37.450  10.767   0.290
21056W        W93371   0.840  34.889   2.808
21057W        W93372  29.430  32.514  10.548
21058W        W93373   0.985  42.518  13.467
21059W        W93374  11.693  26.600  14.925
21060W        W93375  33.073  41.411  13.437
21061W        W93376   3.360  23.988   2.330
21062W        W93377  31.127  16.578  14.457
21063W        W93378  44.895  21.599   4.628
21064W        W93379  10.338  28.658  11.582
21065W        W93380  23.214  31.060  12.509
21066W        W93381  38.514  24.230   1.768
21067W        W93382   6.838  20.267   4.215
21068W        W93383   1.738  42.917   4.638
21069W        W93384  10.183  28.516   3.652
21070W        W93385  44.893  19.608   0.760
21071W        W93386  29.638  23.728  10.404
21072W        W93387   3.305  15.223  11.080
21073W        W93388   9.262  16.157   4.710
21074W        W93389   3.866   5.868  12.498
21075W        W93390  19.092  12.781  11.478
21076W        W93391  32.461  14.333   3.293
21077W        W93392  12.735  36.409  12.519
21078W        W93393  23.995  44.907  10.418
21079W        W93394  26.960  39.048   2.212
21080W        W93395  20.574  41.986   0.876
21081W        W93396  42.825  12.248   0.756
21082W        W93397  40.527  24.105  10.029
21083W        W93398  17.211  14.331   0.948
21084W        W93399  15.701  39.544   2.839
21085W        W93400   0.831  32.583  13.854
21086W        W93401   8.858   6.302   2.374
21087W        W93402  41.839  16.131   4.339
21088W        W93403  42.473  32.636   2.881
21089W        W93404  12.794  14.283  11.429
21090W        W93405  32.072  29.471   3.193
21091W        W93406  11.367   3.833   2.812
21092W        W93407   9.696  38.521  14.836
21093W        W93408  21.719  13.141   1.926
21094W        W93409   9.204  12.721   1.411
21095W        W93410  15.249   2.854   3.226
21096W        W93411  16.618  16.234   1.261
21097W        W93412   3.792  42.298   3.744
21098W        W93413  17.162  37.932  12.545
21099W        W93414  22.006   0.903  12.823
21100W        W93415  17.070   9.360  12.387
21101W        W93416  22.180  27.988  10.948
21102W        W93417  19.641  30.915  11.485
21103W        W93418  35.474  21.615   3.297
21104W        W93419   6.680  20.131  13.017
21105W        W93420  42.416   7.688  13.046
21106W        W93421  42.826  15.605  11.886
21107W        W93422  35.014  14.291   9.946
21108W        W93423  42.374  16.789  13.860
21109W        W93424  33.020  37.858  14.943
21110W        W93425  34.534  10.810  10.927
21111W        W93426  17.627   9.156   5.313
21112W        W93427  23.021   5.761  11.102
21113W        W93428  16.799  18.667  11.599
21114W        W93429   5.219  17.798   1.858
21115W        W93430  34.532  41.456   1.776
21116W        W93431  23.063  19.706  14.798
21117W        W93432   7.828  18.130   2.878
21118W        W93433  14.725  35.910   4.139
21119W        W93434  19.538   0.982  11.925
21120W        W93435  37.458  40.412   2.247
21121W        W93436  24.122  34.883  12.361
21122W        W93437  16.682   1.929  12.884
21123W        W93438  24.001  28.476   0.768
21124W        W93439  44.287  37.080   2.369
21125W        W93440   4.729   3.229   0.758
21126W        W93441  40.946   4.357  11.074
21127W        W93442  39.045  22.528  11.033
21128W        W93443  36.995  21.157  14.979
21129W        W93444  15.138  28.144  10.940
21130W        W93445  35.456  44.465   3.720
21131W        W93446   6.902  12.807   2.293
21132W        W93447  11.751   1.840  14.283
21133W        W93448  19.230  28.588   1.752
21134W        W93449  18.134  31.915   3.157
21135W        W93450  41.840   9.166  11.554
21136W        W93451   6.204   1.458  14.275
21137W        W93452  18.719  24.050   4.123
21138W        W93453   8.761  22.046   4.789
21139W        W93454  15.782  24.687  10.508
21140W        W93455  36.415  17.631  11.544
21141W        W93456   4.750  34.454  12.530
21142W        W93457  20.744  31.555  11.891
21143W        W93458  23.720  34.932  12.474
21144W        W93459  24.693  36.026   2.376
21145W        W93460  24.017   7.259  14.929
21146W        W93461  31.896  34.603  14.315
21147W        W93462  42.412  13.692   4.636
21148W        W93463   7.332  43.888  13.381
21149W        W93464  20.201  23.668  14.371
21150W        W93465  15.264  13.264  14.759
21151W        W93466  13.258  44.418  13.796
21152W        W93467  11.739  44.480  12.905
21153W        W93468  16.178  18.665  10.644
21154W        W93469  17.573  34.905  11.585
21155W        W93470  40.326  40.861  13.539
21156W        W93471   4.310   9.156   4.259
21157W        W93472  23.231  43.443   1.867
21158W        W93473  41.460  20.128  13.434
21159W        W93474  15.599  42.810   3.326
21160W        W93475   2.729  12.319  13.830
21161W        W93476  14.592  11.796   2.675
21162W        W93477  42.385  21.023   3.343
21163W        W93478  36.469   5.920   2.764
21164W        W93479  33.522  11.331   3.277
21165W        W93480   9.858   7.889  10.507
21166W        W93481  14.703  26.970   0.795
21167W        W93482  29.628  10.239  13.923
21168W        W93483  35.541   1.881   3.840
21169W        W93484  26.187  18.191  13.308
21170W        W93485  27.076  43.851   4.783
21171W        W93486   8.810   2.783  10.633
21172W        W93487   7.889  26.133   4.616
21173W        W93488  27.123  14.228   4.216
21174W        W93489   5.293  19.577  10.492
21175W        W93490  42.023   9.172   3.716
21176W        W93491   9.722  33.607   4.177
21177W        W93492  16.215  23.150  10.640
21178W        W93493  28.649  38.433   4.153
21179W        W93494  32.462   8.364   1.327
21180W        W93495  43.829  37.468  12.047
21181W        W93496   2.227  28.590  13.932
21182W        W93497  16.126  15.810   3.234
21183W        W93498   6.793  32.504  11.857
21184W        W93499   4.884  26.004  13.371
21185W        W93500  13.202   5.870   2.229
21186W        W93501  24.086  26.477  10.503
21187W        W93502  18.771  32.118   2.713
21188W        W93503  29.960  15.323   2.331
21189W        W93504   2.819  17.238   4.604
21190W        W93505  36.079  38.528  14.992
21191W        W93506  16.186  19.719  12.418
21192W        W93507  20.110  41.481  10.494
21193W        W93508   9.853  18.269  13.973
21194W        W93509  30.078  33.457  12.849
21195W        W93510  29.612  25.174   1.394
21196W        W93511  37.562  35.413   0.801
21197W        W93512  20.163  32.130  14.774
21198W        W93513   2.292   2.775  13.532
21199W        W93514  24.138  24.139   5.249
21200W        W93515  11.784   4.265  10.633
21201W        W93516  26.161   0.330  13.402
21202W        W93517  20.714   8.226   1.311
21203W        W93518  12.212  24.195   1.254
21204W        W93519  28.563  28.964  12.523
21205W        W93520  35.522  44.482  13.542
21206W        W93521  34.414  13.191   1.271
21207W        W93522   4.923  30.050   1.286
21208W        W93523  18.694  30.060  14.404
21209W        W93524  10.200  41.337   0.877
21210W        W93525   3.379  44.313  11.865
21211W        W93526   0.759   2.888   0.474
21212W        W93527  19.189  34.510  14.515
21213W        W93528  18.231   8.893   2.664
21214W        W93529  33.963  32.584   4.149
21215W        W93530  34.865  28.620  12.909
21216W        W93531  41.498  22.710  14.337
21217W        W93532  42.372   1.945  10.983
21218W        W93533  25.211   8.327  14.881
21219W        W93534  12.178  11.868  14.009
21220W        W93535  22.637  28.000  13.839
21221W        W93536   6.690  35.412  10.425
21222W        W93537  28.986   4.364   4.733
21223W        W93538  24.490  36.389   1.246
21224W        W93539   7.728  28.485   0.309
21225W        W93540  26.608  26.665  10.944
21226W        W93541  38.918  11.625   4.787
21227W        W93542  17.653   4.705  11.915
21228W        W93543  27.009  24.577   4.792
21229W        W93544   8.891  17.663   0.314
21230W        W93545  30.461  23.998   2.308
21231W        W93546  26.162  23.221   4.648
21232W        W93547  40.033  32.621   1.795
21233W        W93548  31.009   5.932  12.066
21234W        W93549  30.919   2.862  11.011
21235W        W93550  17.770   5.248  10.520
21236W        W93551   5.870   7.821  13.320
21237W        W93552  28.179  43.006   2.210
21238W        W93553  22.579  23.183  14.976
21239W        W93554  41.839  39.497  11.421
21240W        W93555  11.155  17.752  10.979
21241W        W93556  41.890  26.030  12.427
21242W        W93557   8.264   1.333   1.388
21243W        W93558  37.923   7.385  13.536
21244W        W93559  20.596  15.207  11.499
21245W        W93560   0.835   6.377  11.519
21246W        W93561   0.953  20.752   3.776
21247W        W93562  39.479  13.698   0.737
21248W        W93563   0.347  40.952  11.449
21249W        W93564   4.326  17.557   4.680
21250W        W93565  25.681  28.440  13.893
21251W        W93566  42.810  36.572  11.544
21252W        W93567  13.121  38.891   4.674
21253W        W93568  15.260  13.637   3.693
21254W        W93569  18.596  27.659   4.689
21255W        W93570  12.239  44.757   3.253
21256W        W93571   5.267   6.896  14.942
21257W        W93572  11.634  16.723  13.476
21258W        W93573  36.443  11.751   3.869
21259W        W93574  24.117   3.436  10.481
21260W        W93575  27.072  10.257  13.507
21261W        W93576  29.457  38.416   4.182
21262W        W93577  29.003  24.092  10.450
21263W        W93578  35.363  24.073  12.942
21264W        W93579   7.877   6.865   1.232
21265W        W93580  13.149   7.843  13.407
21266W        W93581  14.831  16.105   4.660
21267W        W93582  22.548  27.051  14.946
21268W        W93583   5.279  12.325   0.867
21269W        W93584  37.371  17.660  10.522
21270W        W93585  29.502   5.388   2.689
21271W        W93586  17.282  23.657   3.328
21272W        W93587   9.847  28.982  14.474
21273W        W93588  28.649  28.979   3.244
21274W        W93589  44.924  12.791  12.845
21275W        W93590  21.727  22.624   2.377
21276W        W93591  16.273  25.707  10.500
21277W        W93592   2.271  29.637   0.768
21278W        W93593  24.162  23.012  13.324
21279W        W93594  39.989  22.211  10.922
21280W        W93595  28.124  12.664   1.433
21281W        W93596  15.191   8.864   2.822
21282W        W93597  16.094  32.086  12.884
21283W        W93598  26.051  31.003   4.155
21284W        W93599  38.887  22.142   3.301
21285W        W93600  38.547  36.521  14.781
21286W        W93601  34.464  29.636   1.928
21287W        W93602  16.165  17.271  14.798
21288W        W93603  37.847  11.847  13.876
21289W        W93604  30.580  33.030   3.263
21290W        W93605  35.944  29.468  11.569
21291W        W93606  33.568  35.436   0.957
21292W        W93607   8.321  32.545  13.505
21293W        W93608  18.695  41.436   3.160
21294W        W93609  25.217  28.024   0.851
21295W        W93610  12.778  31.924   3.743
21296W        W93611  36.008  27.087   5.266
21297W        W93612  13.288   5.708  10.515
21298W        W93613  21.745   4.298  12.928
21299W        W93614  28.481  37.041   1.334
21300W        W93615  14.261  34.045   0.459
21301W        W93616  37.001  13.347  14.347
21302W        W93617   5.867  44.904   3.634
21303W        W93618   8.723  18.152   5.256
21304W        W93619  23.222  26.054   0.332
21305W        W93620  36.551   3.844   3.730
21306W        W93621  37.391  18.289   2.820
21307W        W93622   3.270  43.478   4.330
21308W        W93623  20.756  40.969  13.002
21309W        W93624  12.807   7.194   3.823
21310W        W93625  18.077  33.035   4.735
21311W        W93626  41.858  39.385   0.961
21312W        W93627  19.056  13.712   1.802
21313W        W93628  18.546  33.035   1.297
21314W        W93629  11.214  19.214   4.723
21315W        W93630   9.285  17.154  10.581
21316W        W93631  27.638  40.387   0.904
21317W        W93632  33.087  34.075  14.802
21318W        W93633  28.473  43.856  11.027
21319W        W93634  24.599  24.121   1.866
21320W        W93635  37.532  28.040  13.317
21321W        W93636  25.583  32.502   1.373
21322W        W93637  32.408  32.945  13.012
21323W        W93638  16.170  35.566   1.838
21324W        W93639  19.119  25.547   0.955
21325W        W93640  26.023  32.417  14.018
21326W        W93641  44.319  20.175  11.395
21327W        W93642   4.298   2.461  14.877
21328W        W93643  16.739   8.720   0.457
21329W        W93644  10.781  30.089   1.254
21330W        W93645  10.723  33.040   1.861
21331W        W93646   0.742  39.958  14.769
21332W        W93647   6.223  27.968  10.496
21333W        W93648  15.140  14.340   0.275
21334W        W93649  18.098  32.994   0.272
21335W        W93650  17.627   8.743   2.855
21336W        W93651   0.383   8.305   4.684
21337W        W93652   3.461  16.169  12.910
21338W        W93653  21.206   3.219  13.823
21339W        W93654   0.859  13.639   0.455
21340W        W93655  36.549  41.448   1.903
21341W        W93656  29.952  41.889  13.362
21342W        W93657   6.921   5.729  12.048
21343W        W93658  22.054   9.368  10.642
21344W        W93659  28.998  17.166   1.807
21345W        W93660  17.157  43.299   3.213
21346W        W93661  20.263  38.541  14.765
21347W        W93662  24.571  22.697   0.252
21348W        W93663  15.163   3.349  14.840
21349W        W93664   0.258  40.887  12.849
21350W        W93665   7.894  18.163   2.274
21351W        W93666  37.054  12.360   0.805
21352W        W93667  39.371   9.183   4.284
21353W        W93668  40.812  35.061  11.427
21354W        W93669  20.221  26.691  14.794
21355W        W93670  26.006  40.525  11.983
21356W        W93671  37.467  10.354  13.916
21357W        W93672  18.232   0.931   2.766
21358W        W93673  42.478  35.861  13.919
21359W        W93674   8.281  33.449  10.424
21360W        W93675   8.164  11.225   1.229
21361W        W93676  17.555  33.396   2.399
21362W        W93677  32.533  32.914  13.408
21363W        W93678  41.800   2.255   0.888
21364W        W93679  39.063  26.501  13.528
21365W        W93680  40.958  29.941   0.931
21366W        W93681   7.392   6.807  14.916
21367W        W93682  38.029   9.864  13.340
21368W        W93683  33.884  36.052  11.400
21369W        W93684  31.965   5.214   1.421
21370W        W93685  21.110  32.456  12.082
21371W        W93686  43.391  13.684   3.240
21372W        W93687   9.264  10.383   0.937
21373W        W93688  23.660  16.621  11.877
21374W        W93689  13.229   0.431   0.805
21375W        W93690   6.223  40.355  13.444
21376W        W93691  15.816   4.340  12.537
21377W        W93692  14.766  20.702   1.275
21378W        W93693   5.294   9.394  13.311
21379W        W93694  31.065  16.208  12.565
21380W        W93695   1.940   1.279  11.040
21381W        W93696   6.191   5.744   4.233
21382W        W93697  15.666  19.173  12.409
21383W        W93698  11.364   7.331   4.697
21384W        W93699  37.407   6.392  13.342
21385W        W93700  21.657  40.479   3.649
21386W        W93701  12.629  21.070  12.533
21387W        W93702   2.727  33.507  14.471
21388W        W93703  21.071  25.195  11.949
21389W        W93704  13.602  40.988  11.989
21390W        W93705  27.577  26.133   3.151
21391W        W93706  18.609  29.138  14.391
21392W        W93707  32.931  37.496  13.014
21393W        W93708  40.458   6.190   2.666
21394W        W93709  27.601  25.534  13.417
21395W        W93710  25.579  23.662  13.345
21396W        W93711   9.871  44.934   3.696
21397W        W93712  13.788   2.291   3.333
21398W        W93713  28.937   3.938   0.407
21399W        W93714  17.563  11.648   0.771
21400W        W93715  30.157  16.795   1.384
21401W        W93716  35.462  43.918  11.550
21402W        W93717  24.982  17.117   4.161
21403W        W93718  14.736   7.176  10.038
21404W        W93719  25.121   4.236   0.265
21405W        W93720  23.690   5.264  11.067
21406W        W93721   1.750  11.282   4.270
21407W        W93722   9.786  14.094   5.148
21408W        W93723   5.908  37.912   2.873
21409W        W93724   5.195  10.314   2.825
21410W        W93725  43.868  16.682   2.235
21411W        W93726  17.601  32.026   3.297
21412W        W93727   2.259   5.355   3.289
21413W        W93728  11.173  42.870   3.784
21414W        W93729  16.589   9.386  11.518
21415W        W93730  29.513  28.065  13.411
21416W        W93731   4.860  40.491  13.320
21417W        W93732   9.308  16.745  13.415
21418W        W93733  25.978  26.100   2.766
21419W        W93734  43.495  16.801   2.367
21420W        W93735  10.301  10.253   3.744
21421W        W93736  37.058  18.097  11.569
21422W        W93737  36.422  27.654   0.483
21423W        W93738  15.285  34.984  14.929
21424W        W93739  32.939  21.254   4.839
21425W        W93740  14.806  14.799  13.423
21426W        W93741  36.347  32.981  12.543
21427W        W93742  35.491  32.610   0.366
21428W        W93743  35.010  14.763   1.254
21429W        W93744  29.980  43.799  13.806
21430W        W93745  30.090  44.009  10.622
21431W        W93746  20.553  31.403   3.149
21432W        W93747  19.681   8.861  14.297
21433W        W93748  13.308   6.291  11.578
21434W        W93749   1.838  14.269  13.368
21435W        W93750   4.912   8.687   4.129
21436W        W93751  36.943  36.918   4.827
21437W        W93752  15.305  31.143  11.502
21438W        W93753  30.011  24.517   3.330
21439W        W93754   1.270  43.960   1.855
21440W        W93755  25.471  36.510  11.971
21441W        W93756  29.557   0.348  11.068
21442W        W93757  16.250  30.516  12.342
21443W        W93758  19.582  43.990   3.755
21444W        W93759  11.341  44.892   2.337
21445W        W93760  18.222  44.968  10.993
21446W        W93761  12.298  26.635  12.848
21447W        W93762  24.568  11.262   4.317
21448W        W93763  13.190  26.671   3.184
21449W        W93764  39.533  13.351   2.303
21450W        W93765   5.243  33.386   9.922
21451W        W93766  35.473  30.650  10.626
21452W        W93767  21.525   4.874  13.352
21453W        W93768  24.680  11.371  14.391
21454W        W93769   2.250   3.415  11.030
21455W        W93770  23.496  12.293   1.781
21456W        W93771  10.285   5.377  11.451
21457W        W93772  17.178   2.843  12.089
21458W        W93773  25.487   8.842   5.226
21459W        W93774  13.766  43.282   4.696
21460W        W93775  30.442  44.929  12.514
21461W        W93776  11.331  31.486  13.314
21462W        W93777   8.167  35.001   4.773
21463W        W93778  15.584   7.319   9.967
21464W        W93779  26.578  22.237  10.940
21465W        W93780  41.913  31.925  11.025
21466W        W93781  43.339   6.708  11.128
21467W        W93782  29.137  19.683  13.029
21468W        W93783  44.971  17.630   3.289
21469W        W93784  19.665  17.728  12.379
21470W        W93785  33.622  14.593  14.400
21471W        W93786  35.415  35.908   3.702
21472W        W93787   8.834  33.472   0.264
21473W        W93788  43.797  38.431   3.310
21474W        W93789  27.527  44.778   0.475
21475W        W93790  40.925  30.446   1.265
21476W        W93791  15.632  29.572   0.897
21477W        W93792  37.413  15.216   3.317
21478W        W93793  34.876  38.326   3.324
21479W        W93794  37.357  26.530  10.040
21480W        W93795  29.580   1.958   2.774
21481W        W93796  40.385  32.616  13.932
21482W        W93797  18.284  38.404  10.606
21483W        W93798  28.638  41.815  12.043
21484W        W93799   0.752  11.713   4.303
21485W        W93800   3.933  22.166   3.826
21486W        W93801  22.054  19.583   3.196
21487W        W93802  41.986  26.504  14.435
21488W        W93803  12.799   6.687  13.962
21489W        W93804   4.911  25.214   0.354
21490W        W93805  35.390  26.585  11.572
21491W        W93806   2.764  24.154   2.195
21492W        W93807  44.404   0.871  12.580
21493W        W93808  10.709  33.489  11.463
21494W        W93809  28.070   9.860  12.397
21495W        W93810  15.733  43.361  13.532
21496W        W93811   8.177   8.864   0.340
21497W        W93812  17.166  26.599  12.383
21498W        W93813  21.614  15.622   1.803
21499W        W93814  17.257  13.800  14.455
21500W        W93815  12.158  34.925  14.761
21501W        W93816  36.047  26.574  11.932
21502W        W93817  15.152  13.700   2.330
21503W        W93818  42.855   4.854   3.238
21504W        W93819  36.484  34.379  13.050
21505W        W93820  23.700  23.547  10.461
21506W        W93821  24.588   9.791  11.561
21507W        W93822  16.085   3.941   1.785
21508W        W93823  35.094   9.862   1.238
21509W        W93824   7.402  10.314  13.386
21510W        W93825  19.628  22.109   4.783
21511W        W93826  30.132  26.176   1.929
21512W        W93827  30.640  24.662  13.827
21513W        W93828  24.084  28.177   2.279
21514W        W93829   0.792   0.494  14.321
21515W        W93830   2.883  16.101  13.401
21516W        W93831  33.919   0.358  14.780
21517W        W93832   2.346  26.488   4.353
21518W        W93833  13.271   6.201  11.874
21519W        W93834  43.434   8.665  10.556
21520W        W93835  43.497  20.683  13.387
21521W        W93836  23.608  44.794  14.882
21522W        W93837  14.737  32.050  14.287
21523W        W93838  28.992  31.445  12.869
21524W        W93839  24.626  38.883  10.899
21525W        W93840   5.769  22.013  13.009
21526W        W93841  35.446  38.062   2.878
21527W        W93842   2.868  26.694  10.158
21528W        W93843  38.325  19.677  11.088
21529W        W93844  13.347  13.663   4.184
21530W        W93845  28.080  15.657  12.398
21531W        W93846  32.976  19.599  13.319
21532W        W93847  33.503  37.847  14.434
21533W        W93848   6.270  39.511   2.824
21534W        W93849   8.262  30.653   4.158
21535W        W93850  20.102   9.367   2.843
21536W        W93851  30.039   5.706  12.893
21537W        W93852  37.878  19.713   2.213
21538W        W93853  24.718  36.845   2.391
21539W        W93854  42.425  21.564   4.610
21540W        W93855   7.226   1.431  12.944
21541W        W93856  29.976  41.465  14.460
21542W        W93857  23.710  27.018  13.897
21543W        W93858  27.975  41.971   2.355
21544W        W93859  10.144  35.916   5.286
21545W        W93860   7.704  40.973  11.455
21546W        W93861   2.849   4.235  12.374
21547W        W93862   2.864  32.474  11.504
21548W        W93863  17.235  20.662  10.630
21549W        W93864  14.700  23.498  13.046
21550W        W93865  12.815  16.117   3.867
21551W        W93866  38.377  40.467   4.156
21552W        W93867  28.469   3.217   9.998
21553W        W93868  23.214  40.405   1.818
21554W        W93869  26.504  33.426   2.735
21555W        W93870   0.949  29.109   4.655
21556W        W93871  27.652  35.410   4.344
21557W        W93872   7.878  24.231  13.362
21558W        W93873   9.348  14.654  11.449
21559W        W93874  41.297  13.251   2.888
21560W        W93875  34.924  15.239  10.445
21561W        W93876  13.275  28.085   5.081
21562W        W93877  19.714   6.808   4.635
21563W        W93878  19.107  10.879   9.527
21564W        W93879  21.149  37.469  10.910
21565W        W93880  12.240  17.248   3.160
21566W        W93881  42.806  32.010  14.353
21567W        W93882  27.593   7.679   1.744
21568W        W93883  27.601  30.443   1.254
21569W        W93884  40.992  35.852  11.909
21570W        W93885  24.213  34.933   0.306
21571W        W93886  15.606  40.831  13.447
21572W        W93887  35.874  41.476   0.332
21573W        W93888   7.849   8.834   3.299
21574W        W93889  20.184  13.280  12.847
21575W        W93890  41.983  22.571  12.447
21576W        W93891  18.613  10.862   4.665
21577W        W93892  27.036   2.723  13.032
21578W        W93893  33.464  38.507   0.474
21579W        W93894  16.180   9.795  13.855
21580W        W93895  15.303  38.870  14.338
21581W        W93896  21.603  34.462  14.330
21582W        W93897   7.269  13.290  14.842
21583W        W93898   9.806  24.075  12.392
21584W        W93899   6.815  33.469   0.332
21585W        W93900  21.726  28.506  14.013
21586W        W93901  26.579  19.266  12.938
21587W        W93902  10.817   0.355  10.968
21588W        W93903  33.950  40.367   3.146
21589W        W93904  32.636  16.278   1.300
21590W        W93905  43.901  36.539  14.336
21591W        W93906   2.857  12.618  14.977
21592W        W93907   0.338  39.850   4.832
21593W        W93908  12.723  27.170   0.938
21594W        W93909  40.972  31.056   4.835
21595W        W93910  26.129   9.876   0.356
21596W        W93911   8.842  42.788  14.835
21597W        W93912  35.594  38.516  14.847
21598W        W93913  19.076   4.445  12.982
21599W        W93914  12.769  26.589  14.014
21600W        W93915  19.123  41.533   3.304
21601W        W93916  12.341  32.932   0.831
21602W        W93917   1.270   3.777  10.963
21603W        W93918  34.555  37.875  11.527
21604W        W93919  27.560  33.008   2.847
21605W        W93920  18.784   2.829   3.304
21606W        W93921   4.225  26.086   2.382
21607W        W93922  32.496  19.557   2.831
21608W        W93923  37.866   4.303   3.688
21609W        W93924  14.772   2.906  12.368
21610W        W93925  33.537   3.380   0.254
21611W        W93926   6.204  33.035  10.513
21612W        W93927   0.464  27.008  13.973
21613W        W93928  42.508   9.763   4.182
21614W        W93929  38.836   3.427  11.027
21615W        W93930  10.153  22.501  11.584
21616W        W93931  15.684  21.196   2.227
21617W        W93932  18.652  30.539   2.371
21618W        W93933  10.366  21.121   2.333
21619W        W93934  20.708  11.189   2.230
21620W        W93935  21.036  21.624   1.270
21621W        W93936  17.782  20.606  14.463
21622W        W93937  37.426   6.238   1.343
21623W        W93938   4.426   3.425  14.407
21624W        W93939   3.259  40.989  10.627
21625W        W93940  16.153   6.701  14.762
21626W        W93941  41.417  33.568   5.304
21627W        W93942  28.664  38.537   0.388
21628W        W93943  33.468  10.358  14.452
21629W        W93944  11.696  26.464  13.349
21630W        W93945  16.315  41.786   3.387
21631W        W93946  42.301  34.595   2.802
21632W        W93947   4.813   9.711  10.060
21633W        W93948   8.833  10.800   1.450
21634W        W93949  27.981  44.354   2.808
21635W        W93950  36.966  28.175  12.047
21636W        W93951  18.652  10.664   4.288
21637W        W93952   8.239   7.279   0.280
21638W        W93953   9.779  43.860  14.490
21639W        W93954  21.667   9.665  13.850
21640W        W93955  16.138  19.154  11.908
21641W        W93956  28.017  19.052   4.223
21642W        W93957  24.490   6.216  14.899
21643W        W93958  29.461  40.527  13.414
21644W        W93959  11.684  40.308  14.290
21645W        W93960  19.776   6.228   0.414
21646W        W93961  19.671  11.362   4.224
21647W        W93962  26.683  23.226   0.261
21648W        W93963  43.778   4.817   4.279
21649W        W93964  10.355  18.119   3.272
21650W        W93965  16.163  43.901  12.049
21651W        W93966  29.516  32.980  12.859
21652W        W93967  32.959  36.929  10.586
21653W        W93968   4.282   2.348  13.486
21654W        W93969  13.267   4.333   2.200
21655W        W93970  32.523  13.169  14.491
21656W        W93971  12.349   8.821   0.868
21657W        W93972   0.265   3.381   2.662
21658W        W93973   8.221  34.470  13.406
21659W        W93974  42.849  22.713   2.742
21660W        W93975  21.208  28.079  13.355
21661W        W93976  23.505  19.685   0.265
21662W        W93977  37.000  15.709  11.065
21663W        W93978  29.458  15.784   0.788
21664W        W93979  36.003  14.739   2.846
21665W        W93980  14.808   4.384  13.988
21666W        W93981  32.121   6.755   4.288
21667W        W93982  23.683  32.513   3.838
21668W        W93983   6.231   0.818   2.208
21669W        W93984  12.312  40.405   1.224
21670W        W93985   8.800  41.428  11.004
21671W        W93986  43.844   4.924   3.321
21672W        W93987  37.540   3.933  14.493
21673W        W93988  37.581   6.233  14.403
21674W        W93989  11.137  11.739  10.411
21675W        W93990   9.166  23.670   1.233
21676W        W93991  43.970  40.474  14.449
21677W        W93992  20.675  34.468   1.811
21678W        W93993  41.491  15.672  13.001
21679W        W93994  26.084   8.339  14.786
21680W        W93995   2.430  31.927  13.446
21681W        W93996  35.855   1.432  10.920
21682W        W93997  13.125  15.100   2.862
21683W        W93998   2.356   6.397   4.777
21684W        W93999  39.848   0.267  11.963
21685W        W94000  26.595  36.549   1.277
21686W        W94001  25.563   4.245   2.322
21687W        W94002  16.130  31.086  13.851
21688W        W94003  33.411   8.824  14.868
21689W        W94004  18.730  35.577  10.960
21690W        W94005  24.215   0.897  11.940
21691W        W94006  34.402  11.735  11.400
21692W        W94007  31.967  17.698   4.208
21693W        W94008  16.601  39.904   1.281
21694W        W94009  41.951  44.269  14.455
21695W        W94010  33.543  42.009   4.191
21696W        W94011  34.077  18.558  11.996
21697W        W94012   2.722   8.236   3.299
21698W        W94013  31.929  42.878  14.365
21699W        W94014  44.448  44.324   3.151
21700W        W94015  34.925  12.238   4.150
21701W        W94016  42.987  43.789  11.417
21702W        W94017  18.635  32.481  13.938
21703W        W94018   3.868   3.278   1.369
21704W        W94019  26.579   0.404  13.532
21705W        W94020   4.222  33.107  14.460
21706W        W94021  39.049  12.633  14.448
21707W        W94022  12.673   5.930   4.706
21708W        W94023  11.228   3.772  10.908
21709W        W94024  25.008  23.034   2.269
21710W        W94025  27.988  44.374   4.154
21711W        W94026  10.353  36.581   1.733
21712W        W94027  30.429  41.419   4.794
21713W        W94028  19.132  12.268  10.617
21714W        W94029  41.842  24.520  12.362
21715W        W94030   7.763  33.028   1.349
21716W        W94031  39.439   7.814   2.363
21717W        W94032  31.480   3.391  11.060
21718W        W94033   7.313  16.715   4.130
21719W        W94034  42.334   0.790   0.816
21720W        W94035  32.036  26.659  11.901
21721W        W94036  43.482  11.838   1.910
21722W        W94037   9.782   6.765   2.414
21723W        W94038  31.507   7.317  13.011
21724W        W94039  16.101   8.761   2.837
21725W        W94040  32.440  23.656   3.866
21726W        W94041  23.638  38.913   1.786
21727W        W94042  31.045  25.532   2.342
21728W        W94043   0.332  22.620   3.790
21729W        W94044  14.335   5.270  11.007
21730W        W94045  39.316  26.620  13.894
21731W        W94046   2.329  27.086   0.727
21732W        W94047  25.208  36.939  10.973
21733W        W94048  22.146  42.293  11.597
21734W        W94049  19.048  13.786  14.999
21735W        W94050  19.619  38.340   0.842
21736W        W94051  31.095  13.237   0.965
21737W        W94052   6.198  30.642   9.943
21738W        W94053  36.921  32.007   1.288
21739W        W94054  40.308  10.182  12.566
21740W        W94055  15.748  42.978   4.306
21741W        W94056  44.281   2.431   1.694
21742W        W94057   5.239  33.991   1.776
21743W        W94058   8.199  34.538  13.949
21744W        W94059  15.651   6.261   2.291
21745W        W94060  21.729  28.438  10.446
21746W        W94061  14.292  20.580   4.814
21747W        W94062   5.407  13.115   1.707
21748W        W94063   5.792  41.406   3.634
21749W        W94064  21.249  33.997   4.741
21750W        W94065  11.761   6.270   3.707
21751W        W94066  12.135   9.298  14.013
21752W        W94067  44.987  13.312   0.363
21753W        W94068  14.323   3.767   0.795
21754W        W94069  41.392  22.205   1.751
21755W        W94070   0.762   0.801  12.002
21756W        W94071   3.754  24.579   3.224
21757W        W94072  22.077  36.359  11.416
21758W        W94073  41.462  20.564   2.318
21759W        W94074  15.260   1.265   1.826
21760W        W94075  40.404  31.432   4.637
21761W        W94076  18.263  13.637  12.392
21762W        W94077  21.104  40.859   3.686
21763W        W94078  43.809  12.268   3.383
21764W        W94079  26.641  22.173  11.582
21765W        W94080  32.487  30.561   2.708
21766W        W94081  42.003   3.803   2.804
21767W        W94082  21.524  42.925  10.569
21768W        W94083  36.860  40.832  11.051
21769W        W94084  18.721   8.351  14.887
21770W        W94085   9.652  42.497  14.857
21771W        W94086  27.608  12.771  14.927
21772W        W94087  43.344   6.335   4.641
21773W        W94088   1.414   8.181  11.037
21774W        W94089  33.401  24.002  14.928
21775W        W94090  36.456  43.509   4.125
21776W        W94091  28.496   2.758  11.026
21777W        W94092  37.045  15.208   1.335
21778W        W94093  40.510  36.486   3.232
21779W        W94094  10.280  30.547   0.818
21780W        W94095  19.108  18.212   0.385
21781W        W94096   2.233  21.259  12.035
21782W        W94097   1.949   2.432   3.812
21783W        W94098  39.847   8.347  13.819
21784W        W94099   6.827  21.154  13.799
21785W        W94100  42.343  28.577  13.414
21786W        W94101   3.821  31.593  12.063
21787W        W94102  14.831  18.587   2.786
21788W        W94103  14.669  10.279  13.854
21789W        W94104   2.329  11.157   0.895
21790W        W94105  16.773  19.058   2.305
21791W        W94106   0.859   4.823   3.149
21792W        W94107  30.149   7.802   4.614
21793W        W94108  29.508  39.967   2.394
21794W        W94109  25.713  26.663  10.633
21795W        W94110   7.203  38.003  12.459
21796W        W94111   5.771  29.651  14.295
21797W        W94112  28.473  30.927  13.429
21798W        W94113  19.271  27.155  10.467
21799W        W94114  14.678  37.914   1.353
21800W        W94115  11.850   4.916   2.191
21801W        W94116  44.886  36.434  13.448
21802W        W94117  17.710   5.827   3.192
21803W        W94118   3.880  25.639  12.844
21804W        W94119  41.038  31.553  12.985
21805W        W94120   1.355  42.506   3.722
21806W        W94121  44.832  26.582   4.678
21807W        W94122  26.529  44.418   3.300
21808W        W94123   5.828  20.735  14.467
21809W        W94124   9.807  16.680   3.297
21810W        W94125  16.076  30.598   4.308
21811W        W94126  12.665  34.536  11.116
21812W        W94127  21.559  43.479  13.792
21813W        W94128  16.668  20.759  14.813
21814W        W94129   7.177  30.095  10.934
21815W        W94130  16.168  22.155   0.358
21816W        W94131  33.055   8.852  12.888
21817W        W94132  40.444  44.486  11.944
21818W        W94133  41.453  30.616  10.567
21819W        W94134  35.021   2.866   0.346
21820W        W94135  19.607  42.360  14.288
21821W        W94136  27.088  14.129   0.275
21822W        W94137  18.207  32.450  11.475
21823W        W94138  21.650   8.840   1.276
21824W        W94139  44.787   6.230  13.002
21825W        W94140   9.295  16.779  14.379
21826W        W94141  44.349  24.099  14.320
21827W        W94142  13.316  20.227  14.424
21828W        W94143  44.969  28.946  13.490
21829W        W94144  38.453  37.513  14.298
21830W        W94145  13.617  16.265  10.615
21831W        W94146  39.943  22.128  12.918
21832W        W94147   5.288  30.966   1.799
21833W        W94148  37.943  11.199  14.029
21834W        W94149   9.855   1.372   3.671
21835W        W94150   1.816  22.622   1.416
21836W        W94151  35.963  41.444  13.396
21837W        W94152   3.431  12.806   3.314
21838W        W94153  32.590  25.997   3.373
21839W        W94154  29.148  40.481   0.760
21840W        W94155  33.594   9.732  11.952
21841W        W94156  13.644  27.985   1.337
21842W        W94157   5.409  17.614  10.467
21843W        W94158  38.524  20.593   1.738
21844W        W94159  16.713  36.518   0.809
21845W        W94160  18.063  38.063   4.608
21846W        W94161  28.459   0.387  14.317
21847W        W94162  33.940  11.744  13.471
21848W        W94163  41.800  17.652   0.437
21849W        W94164  17.086   1.378   0.904
21850W        W94165  44.992  41.474  13.526
21851W        W94166  26.021  21.243   4.186
21852W        W94167   8.709  15.695  10.046
21853W        W94168  13.237  26.478   2.245
21854W        W94169  32.457  10.277  12.961
21855W        W94170   8.716   1.302  11.883
21856W        W94171  33.062  13.217   2.255
21857W        W94172  32.448  14.334   4.730
21858W        W94173  44.334  11.165   3.280
21859W        W94174  12.288  37.974   1.837
21860W        W94175   4.272  20.158   1.290
21861W        W94176  36.432  26.139   3.804
21862W        W94177  13.351  28.579  11.985
21863W        W94178  44.860  10.283   2.258
21864W        W94179  33.127  35.415  12.939
21865W        W94180  24.706  18.241   0.434
21866W        W94181   9.870  12.816  14.299
21867W        W94182  22.100  20.690  13.907
21868W        W94183  23.046  21.554   9.651
21869W        W94184  10.689   0.446  10.595
21870W        W94185  28.558  39.544  12.962
21871W        W94186  21.036  26.475   2.263
21872W        W94187  33.914  22.598   1.245
21873W        W94188   0.889  14.666   4.176
21874W        W94189  37.435  19.617   1.787
21875W        W94190  27.539  25.079  14.865
21876W        W94191   0.319  20.171  13.887
21877W        W94192  38.999  43.288   0.384
21878W        W94193  42.412  26.639   4.671
21879W        W94194  30.653  22.673  10.476
21880W        W94195  29.022  14.295   3.679
21881W        W94196  18.568  43.495   3.348
21882W        W94197  29.432  25.168  14.437
21883W        W94198  20.257  22.051  10.969
21884W        W94199  33.063  15.298  13.869
21885W        W94200  41.322  37.032   4.831
21886W        W94201   9.677  27.001   0.396
21887W        W94202  12.128   1.351  14.404
21888W        W94203  29.545  24.487  13.375
21889W        W94204   3.217  17.176  11.517
21890W        W94205  42.967  11.350  10.954
21891W        W94206  44.456   9.793   5.229
21892W        W94207  15.616   8.730   3.782
21893W        W94208  14.195   8.852   4.753
21894W        W94209  34.563  29.132   2.269
21895W        W94210  18.696  39.858  13.829
21896W        W94211  39.497  38.958   0.433
21897W        W94212  40.350  34.610   3.828
21898W        W94213  36.044   7.247   2.775
21899W        W94214   9.713   5.360  13.039
21900W        W94215  43.298  16.571  12.353
21901W        W94216  11.838  27.451  11.376
21902W        W94217   3.225  19.188   1.224
21903W        W94218  13.756  24.026  14.277
21904W        W94219  44.442  24.976  13.895
21905W        W94220  25.116  27.668   0.357
21906W        W94221  12.748   5.193   0.285
21907W        W94222  12.123  37.075   2.815
21908W        W94223  14.698  42.828  12.962
21909W        W94224  30.019  42.411  10.500
21910W        W94225   5.396   0.418   3.635
21911W        W94226  24.627  18.568   0.399
21912W        W94227  23.136   5.837  11.502
21913W        W94228  31.418  26.556  14.982
21914W        W94229  26.605   2.894   1.733
21915W        W94230  31.047  39.520   2.901
21916W        W94231  15.255  29.568   2.268
21917W        W94232  12.248  38.924  12.480
21918W        W94233   3.937  39.431   4.649
21919W        W94234  36.055  42.373   4.643
21920W        W94235   2.914  21.131   5.286
21921W        W94236   1.767  20.225   0.757
21922W        W94237  37.472  31.409  14.303
21923W        W94238  27.639   3.282  13.994
21924W        W94239  42.992  19.056   3.732
21925W        W94240   6.828  44.871  11.542
21926W        W94241  39.042  33.508   4.274
21927W        W94242  37.986  30.530  10.425
21928W        W94243  24.676  26.975   1.744
21929W        W94244   3.451   7.292   2.349
21930W        W94245  29.492  27.146   2.227
21931W        W94246  22.508  31.627   3.201
21932W        W94247   2.873  14.252   1.719
21933W        W94248   9.836  17.766  13.023
21934W        W94249  33.585  44.762   1.840
21935W        W94250  40.909  23.078   4.346
21936W        W94251  12.190  31.534   0.787
21937W        W94252   3.327  40.415  12.512
21938W        W94253  19.047  38.383   4.694
21939W        W94254  32.097   4.371   3.824
21940W        W94255  22.537  17.115  10.096
21941W        W94256  36.557  43.955  12.394
21942W        W94257  27.142  14.635  11.042
21943W        W94258  42.016   5.896   1.294
21944W        W94259   7.249   4.314   0.953
21945W        W94260  44.875  12.349  13.462
21946W        W94261  10.252   4.731  13.958
21947W        W94262  21.053  44.902   1.430
21948W        W94263  24.718  24.512   2.266
21949W        W94264  15.814  30.063   2.899
21950W        W94265  14.339  34.944  10.421
21951W        W94266  15.730   4.828  13.793
21952W        W94267  35.902  41.331  11.068
21953W        W94268  21.106  12.784   1.350
21954W        W94269  23.995  17.138   4.261
21955W        W94270  31.607  28.035   3.199
21956W        W94271  12.744  34.469   4.604
21957W        W94272  14.204  14.229   4.185
21958W        W94273  28.557   0.475   4.137
21959W        W94274   0.842  39.025   5.112
21960W        W94275  36.903  37.838   4.277
21961W        W94276  17.705  42.890   3.363
21962W        W94277  44.453  32.428  13.345
21963W        W94278   6.375  11.321   4.730
21964W        W94279  14.742  30.009   1.842
21965W        W94280   9.216  26.142   1.387
21966W        W94281  40.313  10.833  11.874
21967W        W94282   2.269  25.545   3.324
21968W        W94283  23.993  23.128   1.246
21969W        W94284  34.900  21.513  12.089
21970W        W94285  16.072  40.883   0.817
21971W        W94286  22.108  31.971   5.276
21972W        W94287  14.734   0.963  13.373
21973W        W94288  25.639  10.766   0.420
21974W        W94289  41.834  18.547  13.376
21975W        W94290   6.366   2.757   4.788
21976W        W94291  10.869   9.361  10.924
21977W        W94292  41.484   8.232  14.887
21978W        W94293  43.507  33.120   1.831
21979W        W94294  43.831  19.124  14.444
21980W        W94295   0.767  39.325  12.388
21981W        W94296  35.100  38.987  10.553
21982W        W94297  34.036  13.275  12.465
21983W        W94298  29.146  18.717  11.485
21984W        W94299  29.569  43.315  11.386
21985W        W94300  21.069  41.355  10.110
21986W        W94301  41.350  27.452  14.883
21987W        W94302  25.507  25.030  12.466
21988W        W94303  34.082  31.052  14.979
21989W        W94304  33.899   5.390  12.340
21990W        W94305  25.578  39.885  14.383
21991W        W94306   2.821  22.061  12.366
21992W        W94307   8.296  36.881   2.839
21993W        W94308  34.909  21.164   3.379
21994W        W94309  30.928  28.520   3.855
21995W        W94310  21.117  38.413  13.375
21996W        W94311   1.790  36.859   2.881
21997W        W94312  13.351  34.102   3.689
21998W        W94313   3.803  20.677  12.439
21999W        W94314   2.742  28.993   0.412
22000W        W94315  42.003  23.115   2.663
22001W        W94316   5.888   5.758   2.693
22002W        W94317  35.962  34.463   2.318
22003W        W94318  33.888  43.807   1.898
22004W        W94319  32.927   2.878   3.318
22005W        W94320  25.060   1.736  12.846
22006W        W94321   3.387  22.525   2.666
22007W        W94322  38.473   7.883  13.422
22008W        W94323  22.173  14.817  12.864
22009W        W94324  41.322  33.890  13.331
22010W        W94325  42.997  11.660  14.327
22011W        W94326  27.954   5.299  13.372
22012W        W94327  17.108   3.320  12.348
22013W        W94328   3.752  42.859   4.708
22014W        W94329  13.692  10.817  13.958
22015W        W94330  40.547  16.088  13.359
22016W        W94331  13.620  13.241  12.005
22017W        W94332  27.960   3.760   5.280
22018W        W94333   4.364  34.386  12.943
22019W        W94334   2.230  31.968   0.850
22020W        W94335  38.982  28.487  12.048
22021W        W94336   9.304   8.753  12.535
22022W        W94337  10.860  18.692   1.932
22023W        W94338  25.512  24.590   2.265
22024W        W94339  18.709  40.801  14.003
22025W        W94340   1.796   0.491   1.234
22026W        W94341   5.265  34.982   3.807
22027W        W94342  21.560  26.116  13.914
22028W        W94343  27.169  20.163  14.956
22029W        W94344  24.520   0.407  10.447
22030W        W94345  29.928  19.052  10.938
22031W        W94346  27.688   5.314   1.780
22032W        W94347   1.451  33.999   9.964
22033W        W94348  42.847  38.985  11.459
22034W        W94349  33.022  20.765  14.362
22035W        W94350  36.550  13.139   3.355
22036W        W94351  32.081   0.785   0.320
22037W        W94352   9.314   9.342   0.759
22038W        W94353  35.469  43.473   0.730
22039W        W94354  10.375   3.810  14.882
22040W        W94355  42.798  34.447   4.220
22041W        W94356  13.190  42.928   1.885
22042W        W94357  29.492  10.331  12.836
22043W        W94358   5.265  35.034  12.513
22044W        W94359  15.615  32.523  10.961
22045W        W94360  15.714  42.959  13.875
22046W        W94361  21.729  22.597  11.972
22047W        W94362  12.809  11.669   4.278
22048W        W94363  19.730  36.375  14.819
22049W        W94364   1.249  16.119  14.433
22050W        W94365  33.909  39.496  10.480
22051W        W94366  40.431  19.135  13.989
22052W        W94367  14.212  30.563  12.880
22053W        W94368  19.651   5.335   3.214
22054W        W94369  11.313  31.134   0.838
22055W        W94370  28.577  15.260  11.975
22056W        W94371  30.501   2.911   4.787
22057W        W94372   1.314  12.196   2.297
22058W        W94373  29.047   4.232   9.570
22059W        W94374   7.176  20.029  13.491
22060W        W94375   5.314  12.769   0.378
22061W        W94376   9.751  22.134  12.473
22062W        W94377  25.081  20.093  14.876
22063W        W94378  44.781  33.979   4.687
22064W        W94379  18.745  19.244  11.553
22065W        W94380  26.998   4.318   3.825
22066W        W94381  19.177   4.384  11.014
22067W        W94382  44.448  42.437  11.382
22068W        W94383  32.927  26.048   0.953
22069W        W94384  15.724  33.000   4.245
22070W        W94385  22.726  19.159   4.285
22071W        W94386  27.488  11.759   1.885
22072W        W94387  14.230  20.263  11.922
22073W        W94388  42.359   0.935   2.778
22074W        W94389  27.965   4.422   0.274
22075W        W94390  35.866  13.155   3.288
22076W        W94391  16.695  34.391  12.392
22077W        W94392  25.994  11.839  13.324
22078W        W94393  19.775  23.679   1.280
22079W        W94394  35.909   5.219  11.389
22080W        W94395  38.539  37.501  12.476
22081W        W94396   8.721  11.233   2.282
22082W        W94397  26.173  43.471   0.362
22083W        W94398   3.412   1.338  12.885
22084W        W94399  41.374  42.866  11.092
22085W        W94400  12.215  10.783  13.529
22086W        W94401   2.343  25.673   3.664
22087W        W94402  13.833  11.755  14.412
22088W        W94403  15.596   2.423   4.225
22089W        W94404   8.215  16.100   4.646
22090W        W94405  41.898   0.955   1.788
22091W        W94406  21.673   4.433   1.341
22092W        W94407  36.507  17.784  12.416
22093W        W94408   3.709  18.727   1.321
22094W        W94409  31.445  20.713   2.370
22095W        W94410  22.145  31.078   3.283
22096W        W94411  15.694  10.728   4.234
22097W        W94412   4.898  40.392   4.216
22098W        W94413   3.839  35.066  11.396
22099W        W94414  30.124  38.411  14.410
22100W        W94415  26.097  28.060   2.390
22101W        W94416   7.231  28.582  11.416
22102W        W94417  20.200   2.431  10.547
22103W        W94418  37.852  34.557   0.822
22104W        W94419  17.115  34.866  12.088
22105W        W94420  33.587  31.986   4.603
22106W        W94421   5.886  25.485   2.187
22107W        W94422  13.751  41.410  14.480
22108W        W94423  26.634   4.223   3.225
22109W        W94424  36.939  22.706  12.548
22110W        W94425  30.083   7.810  13.981
22111W        W94426   6.790   1.475  11.487
22112W        W94427   8.346  16.179  12.953
22113W        W94428   5.295  29.523   2.349
22114W        W94429  19.080  33.484  11.008
22115W        W94430  40.513   5.775   2.222
22116W        W94431  42.899  17.577   2.768
22117W        W94432  12.707  24.679  14.862
22118W        W94433  32.108  29.508   1.337
22119W        W94434  11.647   4.708   0.354
22120W        W94435  28.111  18.589  13.798
22121W        W94436  39.465  30.568   4.304
22122W        W94437  24.050  17.165   2.338
22123W        W94438  37.982  25.200   3.275
22124W        W94439  24.188  35.894  13.365
22125W        W94440  39.036   2.281  12.831
22126W        W94441  10.295  34.612  12.434
22127W        W94442  14.306  42.445   4.802
22128W        W94443   3.806  43.508   4.716
22129W        W94444  33.535  41.515  14.905
22130W        W94445  44.965  18.756  11.940
22131W        W94446  34.893  42.296   1.343
22132W        W94447  38.017  34.115  14.895
22133W        W94448  23.661  35.472  13.512
22134W        W94449  26.088  35.548   3.214
22135W        W94450  28.938   4.912   5.088
22136W        W94451  17.073  44.292   0.262
22137W        W94452  41.798  16.173  14.817
22138W        W94453   6.183   6.280  14.509
22139W        W94454  19.646  12.637   4.776
22140W        W94455  21.573  17.654  14.921
22141W        W94456   6.747  15.812  13.009
22142W        W94457  41.509   4.873   2.246
22143W        W94458  21.191  42.480  11.478
22144W        W94459  39.010  24.557  10.565
22145W        W94460   0.871  37.037   4.833
22146W        W94461   3.743  19.694   2.728
22147W        W94462   2.451  38.493  13.387
22148W        W94463  19.778   7.258  14.814
22149W        W94464  25.193  19.709  12.451
22150W        W94465  24.979  26.557  11.403
22151W        W94466  30.157  41.999   4.142
22152W        W94467   1.337   8.668   1.249
22153W        W94468  31.417  30.450  14.999
22154W        W94469  24.109  37.434   4.129
22155W        W94470  19.742  26.983   0.445
22156W        W94471  39.390  42.421   1.232
22157W        W94472  14.740  11.664  11.026
22158W        W94473   5.367  13.806   1.220
22159W        W94474  10.698  31.929  10.001
22160W        W94475   5.924  17.218  11.600
22161W        W94476  28.000  13.179   2.871
22162W        W94477  38.884  23.581  11.522
22163W        W94478  35.491  27.581   0.882
22164W        W94479   8.193  14.656  14.436
22165W        W94480  19.750   4.812  11.942
22166W        W94481  43.448  14.312   3.229
22167W        W94482  39.930  23.557   0.273
22168W        W94483  40.884  14.226   4.261
22169W        W94484  32.981  26.059  10.487
22170W        W94485  26.106  39.050  10.404
22171W        W94486  25.024  33.449  13.815
22172W        W94487   6.390  18.563  12.082
22173W        W94488  30.604  25.582   2.863
22174W        W94489   0.871  29.569  14.416
22175W        W94490   2.863   1.339   1.904
22176W        W94491   4.436  36.408   0.862
22177W        W94492  42.990  40.459   2.342
22178W        W94493  29.078   3.305  12.846
22179W        W94494  44.775   0.988   1.392
22180W        W94495  27.017  11.219  12.363
22181W        W94496  13.229   1.767   3.348
22182W        W94497  34.946  42.789  14.017
22183W        W94498  16.175  44.406  14.855
22184W        W94499   0.938   6.210  14.973
22185W        W94500  41.941  26.597   2.256
22186W        W94501   7.371  10.247   0.275
22187W        W94502   7.372  30.133   0.432
22188W        W94503  23.720  30.646  14.934
22189W        W94504   0.791   7.242  11.498
22190W        W94505  35.484  42.869   1.764
22191W        W94506  39.953  18.687   3.327
22192W        W94507  23.232  15.213  12.847
22193W        W94508  14.148  38.468  14.451
22194W        W94509   7.690  31.149  14.514
22195W        W94510   4.331  44.912  13.421
22196W        W94511  11.170  34.947   1.409
22197W        W94512  40.378  20.126   2.774
22198W        W94513  11.804   4.399   4.632
22199W        W94514  35.555  16.640   0.869
22200W        W94515  33.050  15.186  13.333
22201W        W94516   7.876  30.035  14.363
22202W        W94517  43.349  18.051   3.167
22203W        W94518  24.221   5.255   1.386
22204W        W94519  10.851  35.086   0.888
22205W        W94520   0.866  42.970   2.413
22206W        W94521   3.349  28.113   5.142
22207W        W94522  23.157  33.606  10.475
22208W        W94523  42.843  20.248   5.185
22209W        W94524  35.550  38.867   2.748
22210W        W94525  26.045  17.292  11.522
22211W        W94526   5.381  42.947   1.318
22212W        W94527  13.230  34.983  11.058
22213W        W94528  34.450  10.157   1.840
22214W        W94529  37.854  23.028   3.292
22215W        W94530  41.419  13.350   3.151
22216W        W94531  30.009  11.658   1.784
22217W        W94532  16.281   9.890  12.456
22218W        W94533  14.736  13.661  13.933
22219W        W94534  32.064   1.939  10.137
22220W        W94535  31.520  12.157  13.793
22221W        W94536   1.934  34.556  11.397
22222W        W94537   5.398   0.782   3.216
22223W        W94538   1.855  33.483   4.644
22224W        W94539  34.422  18.175  11.874
22225W        W94540   7.844  10.283  14.495
22226W        W94541  21.074   6.913   3.630
22227W        W94542  40.516  28.466  11.943
22228W        W94543  34.007  12.180  10.987
22229W        W94544  34.432  29.052   2.734
22230W        W94545  31.073  19.766  13.507
22231W        W94546  22.073  27.682  11.895
22232W        W94547  34.921  26.127  12.944
22233W        W94548  26.106  32.892   3.272
22234W        W94549   5.432  37.992  13.816
22235W        W94550  40.928  32.593   1.306
22236W        W94551  15.668   2.287   3.173
22237W        W94552  19.654  31.564  14.870
22238W        W94553  44.484  20.029   3.207
22239W        W94554   1.364   9.754   3.159
22240W        W94555  42.784  39.346   1.742
22241W        W94556  25.480  33.575  10.970
22242W        W94557  26.115  40.921   1.697
22243W        W94558  41.512   3.892   3.779
22244W        W94559  16.110  31.054  14.480
22245W        W94560  35.595  17.111   2.268
22246W        W94561  15.597  28.566   1.369
22247W        W94562  18.231  23.231  13.379
22248W        W94563  28.103  31.646  14.305
22249W        W94564  39.526  41.812  12.037
22250W        W94565   8.357  39.548  11.479
22251W        W94566  13.113  36.013  13.919
22252W        W94567   5.912  36.097   0.800
22253W        W94568  44.301   3.892   4.819
22254W        W94569  16.204   5.827   1.429
22255W        W94570  23.096  41.510   4.290
22256W        W94571  14.747  23.005  12.990
22257W        W94572  43.012  21.535   1.718
22258W        W94573  40.902  38.480  13.534
22259W        W94574  40.455  10.275  14.031
22260W        W94575  14.144  23.606  14.954
22261W        W94576  11.790  22.082   1.371
22262W        W94577  40.044  18.217   4.340
22263W        W94578  18.273  44.260   1.343
22264W        W94579  24.483  20.567  11.038
22265W        W94580  26.497   3.291   5.581
22266W        W94581  27.462   2.439   1.289
22267W        W94582   4.921  39.539  11.935
22268W        W94583  28.946  20.618   1.302
22269W        W94584  23.697   7.338   0.832
22270W        W94585  10.251  13.704   5.287
22271W        W94586  33.030  22.678  10.509
22272W        W94587  39.546  11.295  10.584
22273W        W94588  25.057   4.795  14.882
22274W        W94589  40.365   1.964   4.637
22275W        W94590  15.199   2.812   2.674
22276W        W94591  31.108  12.681   4.733
22277W        W94592   0.814  29.093  11.514
22278W        W94593  44.991  26.534   2.683
22279W        W94594  12.745  22.596   4.649
22280W        W94595  44.282   6.366   2.829
22281W        W94596  27.179  28.158   1.227
22282W        W94597  17.207  21.546  10.068
22283W        W94598  39.484   6.861  10.581
22284W        W94599  21.602  10.781  11.982
22285W        W94600  28.532  26.045  13.377
22286W        W94601  23.526  28.615  14.356
22287W        W94602  25.004   9.686   2.296
22288W        W94603   4.344  19.140  11.549
22289W        W94604  43.972  31.529   4.334
22290W        W94605   1.952  32.572  14.942
22291W        W94606   0.832   7.894   3.210
22292W        W94607  39.553  31.938   2.682
22293W        W94608  35.952  11.647   0.427
22294W        W94609   0.920  44.315  13.497
22295W        W94610   7.677  42.029   1.752
22296W        W94611  37.989   7.364  10.042
22297W        W94612  40.529  28.555  14.830
22298W        W94613  36.997  13.640   2.786
22299W        W94614  32.106  27.194   3.714
22300W        W94615  20.275  40.844  13.524
22301W        W94616  11.302   9.800  14.338
22302W        W94617  20.227  40.350   9.558
22303W        W94618  16.148  14.271  12.479
22304W        W94619  34.488  38.026  10.463
22305W        W94620  20.274  32.437  11.532
22306W        W94621  36.522  26.629   4.145
22307W        W94622  40.808  36.467   1.407
22308W        W94623   5.393  14.204   1.417
22309W        W94624   4.305  28.545   0.749
22310W        W94625   4.753  23.101  14.766
22311W        W94626  21.535  37.461   9.969
22312W        W94627  16.225  28.032   9.498
22313W        W94628  28.096  38.558   2.686
22314W        W94629  38.370  33.576  10.896
22315W        W94630  28.129  18.692  14.290
22316W        W94631  19.640   8.663  10.608
22317W        W94632  44.384  13.305  13.059
22318W        W94633  35.568  24.118   3.840
22319W        W94634   8.291  37.507   3.239
22320W        W94635  22.007  24.144   3.816
22321W        W94636  13.350  24.001  14.423
22322W        W94637  17.556  20.719   3.230
22323W        W94638  17.282   3.429  14.788
22324W        W94639   7.349   5.333   4.836
22325W        W94640  38.562  33.576   0.885
22326W        W94641  12.778  33.122   4.837
22327W        W94642  17.579  42.008   0.409
22328W        W94643  29.530  29.085   4.209
22329W        W94644  17.639  38.859   1.891
22330W        W94645  36.043  14.767   4.220
22331W        W94646  39.830  25.040   2.832
22332W        W94647   7.334  12.265  11.456
22333W        W94648  35.882  40.880  13.368
22334W        W94649  33.489   8.189   4.663
22335W        W94650  32.571  31.546  13.054
22336W        W94651  11.144  36.021  11.548
22337W        W94652  14.303  38.819   3.662
22338W        W94653  31.921  26.023  11.043
22339W        W94654  27.050  43.435   3.690
22340W        W94655  40.842   1.319  14.982
22341W        W94656  20.090  25.482  13.952
22342W        W94657   3.744   6.251  11.500
22343W        W94658  26.095  34.868  11.088
22344W        W94659   9.707  24.166   1.441
22345W        W94660   3.769  19.116   1.874
22346W        W94661  14.222  28.039   1.227
22347W        W94662  18.115  23.078   2.781
22348W        W94663  40.420   3.939  11.535
22349W        W94664  25.532   4.768   5.755
22350W        W94665   0.806  16.259   0.791
22351W        W94666  18.695  20.097  10.957
22352W        W94667  19.730  32.135   3.215
22353W        W94668  16.752  21.646   3.767
22354W        W94669  14.653   3.344   0.311
22355W        W94670  23.100   9.325  10.627
22356W        W94671  18.716  21.109   0.433
22357W        W94672  34.473   8.666  12.831
22358W        W94673  11.787  21.613   4.143
22359W        W94674  17.137  11.162   0.786
22360W        W94675  43.477  27.609   0.814
22361W        W94676  22.223   6.279  12.406
22362W        W94677  10.143  39.013  11.957
22363W        W94678  19.042  17.187  13.037
22364W        W94679  40.832  16.290  10.912
22365W        W94680  13.135  30.540  14.945
22366W        W94681   2.956  27.595   2.805
22367W        W94682   9.731  30.507  11.122
22368W        W94683  26.017  38.972  14.842
22369W        W94684  25.126  41.425   0.743
22370W        W94685  11.193  22.556  14.983
22371W        W94686  32.422  10.166  13.906
22372W        W94687  10.363  43.991   1.854
22373W        W94688  31.118  25.697   2.855
22374W        W94689  25.572  15.657   1.703
22375W        W94690   3.793  11.787  10.565
22376W        W94691  12.259  38.491  14.962
22377W        W94692  36.498  43.482  11.487
22378W        W94693  22.009  32.102   1.259
22379W        W94694  32.517  21.143   2.779
22380W        W94695   7.807  31.080   4.645
22381W        W94696  38.546  36.969  13.917
22382W        W94697  14.305   4.450   2.803
22383W        W94698  43.847  19.097   3.204
22384W        W94699  32.525  43.427  13.005
22385W        W94700  12.230  10.719   2.185
22386W        W94701  11.645  19.701  13.853
22387W        W94702  14.669  12.783   0.768
22388W        W94703  37.903   2.292   3.793
22389W        W94704   2.839   5.240  10.935
22390W        W94705  22.645  40.025  13.519
22391W        W94706  19.110   9.344   4.722
22392W        W94707  27.620  40.525   1.294
22393W        W94708  24.016  32.095  12.965
22394W        W94709  41.870   8.703  14.924
22395W        W94710  33.901  38.070  10.606
22396W        W94711  25.057  44.325   4.145
22397W        W94712  16.642   2.916  12.421
22398W        W94713  25.572   2.760  11.488
22399W        W94714  36.505  10.333   2.769
22400W        W94715   1.863  15.116  10.973
22401W        W94716  26.195   8.838  12.097
22402W        W94717  18.636  32.529   2.668
22403W        W94718  28.996  40.872   1.345
22404W        W94719   4.367  39.451   4.647
22405W        W94720   6.898  21.549  10.500
22406W        W94721  39.917   4.268   1.709
22407W        W94722  31.010  23.062   2.842
22408W        W94723  43.497  13.611   2.242
22409W        W94724  29.100  17.666   0.322
22410W        W94725  21.242  18.263  10.072
22411W        W94726  34.397  38.435   0.758
22412W        W94727  11.788  37.051  13.375
22413W        W94728  26.031  21.711   3.363
22414W        W94729  23.097  23.993   4.672
22415W        W94730  11.190  33.893   1.858
22416W        W94731  24.218  39.939   4.752
22417W        W94732  19.753   0.277  12.969
22418W        W94733  13.827  21.111   2.223
22419W        W94734  31.152  39.049   4.785
22420W        W94735   9.800  24.214   4.838
22421W        W94736  21.700  27.108   3.682
22422W        W94737  35.484  33.478   1.924
22423W        W94738  28.658  23.625  13.944
22424W        W94739  38.935  12.214   4.783
22425W        W94740  40.531  31.578   1.404
22426W        W94741  37.915   2.383  14.361
22427W        W94742  15.637   8.335   0.916
22428W        W94743  17.622  10.811   2.897
22429W        W94744  17.754  33.616  11.452
22430W        W94745  33.104  29.945  12.546
22431W        W94746  31.068  44.271   1.439
22432W        W94747   3.848  15.213  10.504
22433W        W94748  10.709  40.865  13.899
22434W        W94749   5.278   9.761  12.952
22435W        W94750  25.643   9.665  10.431
22436W        W94751  35.369   0.841   3.841
22437W        W94752  12.215  12.227  13.952
22438W        W94753  34.486  30.545  13.978
22439W        W94754  19.255   5.330  12.561
22440W        W94755   0.394   5.745   0.801
22441W        W94756   6.212  22.723   2.399
22442W        W94757   1.793  29.596   3.639
22443W        W94758  11.208  10.190   1.842
22444W        W94759  18.576  40.951   0.396
22445W        W94760  34.066  44.990   1.367
22446W        W94761   9.227   5.265  10.894
22447W        W94762  44.306  37.957  12.537
22448W        W94763  24.610  22.655   2.884
22449W        W94764  12.326  40.326  10.939
22450W        W94765  22.627  10.848  14.396
22451W        W94766  42.354  14.305  12.406
22452W        W94767  18.085   4.779   2.885
22453W        W94768  35.389  14.136   3.640
22454W        W94769   7.187  36.473   0.307
22455W        W94770  13.741  27.550  10.916
22456W        W94771  40.917  39.815   4.649
22457W        W94772  19.100  19.167   0.253
22458W        W94773  19.779  43.416  10.576
22459W        W94774  10.195   9.725   2.890
22460W        W94775  17.091   6.185   3.367
22461W        W94776  12.323  10.328   4.716
22462W        W94777  19.666   1.928  14.309
22463W        W94778   3.324  25.970  12.827
22464W        W94779  40.385   1.866  11.007
22465W        W94780   1.846  13.726  12.558
22466W        W94781  28.049  42.353   1.723
22467W        W94782  40.808  10.138  12.549
22468W        W94783  41.360  23.237   4.717
22469W        W94784   0.471  43.314   3.314
22470W        W94785  12.611  43.950  12.475
22471W        W94786  18.776  41.917   3.356
22472W        W94787  18.239  32.532  13.839
22473W        W94788  25.979  32.567   2.776
22474W        W94789  23.519   1.241   2.333
22475W        W94790  34.447   7.774   3.187
22476W        W94791  26.981  41.824   3.371
22477W        W94792  20.081  33.419  12.450
22478W        W94793   6.768  34.886  10.967
22479W        W94794  31.451  29.123  12.095
22480W        W94795   7.729  27.624  14.308
22481W        W94796  13.622   0.445  12.878
22482W        W94797  29.968  11.730  12.945
22483W        W94798  10.878   2.771   3.656
22484W        W94799  19.761  40.800   1.280
22485W        W94800  40.936  18.154  14.379
22486W        W94801  11.656  11.642   3.724
22487W        W94802  13.623   3.709  12.912
22488W        W94803  14.795   5.312   1.910
22489W        W94804  14.336  16.712  13.007
22490W        W94805  36.430  15.176   0.944
22491W        W94806  34.409  37.350   1.355
22492W        W94807  24.668  42.317  13.414
22493W        W94808  11.182  37.527  14.496
22494W        W94809  10.380   1.899  13.010
22495W        W94810  14.126  23.191  11.388
22496W        W94811  41.957   9.341   1.241
22497W        W94812  26.204  33.453   3.635
22498W        W94813  21.671   0.282  10.482
22499W        W94814  31.579  21.108  12.980
22500W        W94815  12.661   0.892  14.383
22501W        W94816  32.411  26.597   2.353
22502W        W94817   6.194  22.681   4.818
22503W        W94818   9.846  18.111  14.999
22504W        W94819   4.213  11.308   4.327
22505W        W94820  20.257  41.347   0.294
22506W        W94821  26.555  22.239   4.728
22507W        W94822  42.792   7.903   1.442
22508W        W94823   3.875  24.176  13.984
22509W        W94824  19.116  12.230   2.888
22510W        W94825  20.068  42.786  14.423
22511W        W94826  13.726  40.548  12.368
22512W        W94827   5.707  19.572  13.998
22513W        W94828   6.382  38.931   5.277
22514W        W94829  26.636  32.087   1.444
22515W        W94830  33.592  19.106  10.456
22516W        W94831   7.722   8.761   2.354
22517W        W94832   7.790   0.852   2.346
22518W        W94833  19.730  40.344  14.441
22519W        W94834  23.999  12.314  11.112
22520W        W94835  30.999   2.380   2.858
22521W        W94836  39.402   2.419  13.851
22522W        W94837  22.139   3.811   3.215
22523W        W94838  32.620   4.711   4.310
22524W        W94839  38.939  38.831   0.759
22525W        W94840  17.157  43.360  11.913
22526W        W94841  17.147   7.383  10.479
22527W        W94842   9.728  41.836  12.474
22528W        W94843  32.438  19.618  14.977
22529W        W94844  28.134  15.120   1.388
22530W        W94845  41.429   3.845   0.885
22531W        W94846  36.967  17.246   2.893
22532W        W94847  31.556  38.394  14.779
22533W        W94848  20.624   9.774   3.249
22534W        W94849  23.721  16.572  14.857
22535W        W94850  40.973  39.854  12.864
22536W        W94851  40.380  38.824   4.698
22537W        W94852  40.858   6.395  11.966
22538W        W94853   6.843  23.233   1.416
22539W        W94854  38.481  29.627   0.326
22540W        W94855  30.017  12.826   2.351
22541W        W94856  38.863   9.275  12.063
22542W        W94857  12.332  29.551  11.386
22543W        W94858   9.388   7.380  12.069
22544W        W94859   4.306   4.386   0.332
22545W        W94860  32.505  29.056   4.666
22546W        W94861  39.049  37.956  13.397
22547W        W94862  39.417   9.381  10.959
22548W        W94863  38.891  42.345  12.364
22549W        W94864  30.504  28.055   5.200
22550W        W94865  34.485  44.456  10.508
22551W        W94866  17.617  34.006   1.780
22552W        W94867  18.661  32.138  11.514
22553W        W94868  44.856   1.339  14.984
22554W        W94869  40.797  16.271  13.896
22555W        W94870  38.881  42.406  13.454
22556W        W94871  32.972  43.966   1.809
22557W        W94872  10.200  18.107   3.768
22558W        W94873  39.848  15.723  12.413
22559W        W94874   2.783   3.274  14.475
22560W        W94875  40.948  15.313   1.849
22561W        W94876   8.708  33.432   4.188
22562W        W94877  23.503  17.580   2.834
22563W        W94878  43.809  41.334   4.723
22564W        W94879  20.683  43.326  11.522
22565W        W94880  23.714  13.814   2.225
22566W        W94881   4.746  23.138  11.526
22567W        W94882  10.346  31.118  14.845
22568W        W94883  21.216  26.185   3.655
22569W        W94884  19.201  11.665   4.754
22570W        W94885   7.178  35.891   3.276
22571W        W94886  29.506  24.674   1.217
22572W        W94887  41.841  19.596   2.356
22573W        W94888  18.739  24.211  14.299
22574W        W94889  27.659  28.064   0.950
22575W        W94890  35.892  38.074   2.870
22576W        W94891  30.056  33.621   4.119
22577W        W94892  19.773   9.686   4.650
22578W        W94893  44.471   9.328  11.568
22579W        W94894  23.555  37.531   4.783
22580W        W94895  15.286   9.655   4.221
22581W        W94896  11.721  44.454   2.742
22582W        W94897   6.746  18.231  12.934
22583W        W94898  23.493  38.967  13.547
22584W        W94899  27.134  34.520   2.702
22585W        W94900  14.598  42.008   0.428
22586W        W94901   0.765  40.887  10.929
22587W        W94902   4.825  11.214   2.681
22588W        W94903  33.918  39.065  11.031
22589W        W94904  26.103  39.051   1.853
22590W        W94905   5.863  44.301  14.847
22591W        W94906   4.859  14.212  11.472
22592W        W94907  35.575  21.682  14.363
22593W        W94908  27.591  19.084  11.482
22594W        W94909  29.079   3.914  13.435
22595W        W94910  31.623  13.190  13.897
22596W        W94911  42.407   0.838  14.946
22597W        W94912   0.946  21.723   1.357
22598W        W94913  29.953  32.989  13.459
22599W        W94914  23.612  13.808  14.776
22600W        W94915  20.169  30.530  12.568
22601W        W94916  36.417  34.565  10.993
22602W        W94917   3.227  42.285  10.639
22603W        W94918  16.800  17.599  11.036
22604W        W94919  41.859  44.766   1.773
22605W        W94920  19.581  34.867  14.828
22606W        W94921  44.310   3.714  14.859
22607W        W94922  37.953  14.225  13.034
22608W        W94923  35.996  26.202   2.892
22609W        W94924  20.081  27.011   1.814
22610W        W94925  22.225   4.883   3.836
22611W        W94926  16.170   0.774   2.689
22612W        W94927  24.694  35.061  12.079
22613W        W94928  15.105  30.035  12.406
22614W        W94929  32.890  40.379  11.524
22615W        W94930  15.170  25.115  12.013
22616W        W94931   4.836  13.247  13.424
22617W        W94932   6.263  26.101   3.839
22618W        W94933  19.283  34.488   4.150
22619W        W94934  24.481  14.209  14.352
22620W        W94935  20.194  22.231   4.255
22621W        W94936   0.884  41.304   4.219
22622W        W94937  32.065  24.634   0.261
22623W        W94938  35.604  37.414  11.991
22624W        W94939   7.815   7.762  14.440
22625W        W94940   6.298   9.783   1.702
22626W        W94941  35.866  33.899  13.437
22627W        W94942   7.826  11.255   2.734
22628W        W94943  42.493  17.113  14.357
22629W        W94944   4.371  27.535  11.922
22630W        W94945  25.985  20.557  12.977
22631W        W94946  16.714  10.264   5.114
22632W        W94947   4.757  23.587  10.036
22633W        W94948  40.342  41.827  10.490
22634W        W94949  24.627   5.369   0.760
22635W        W94950   1.297  12.771  11.938
22636W        W94951   3.952  44.886  12.016
22637W        W94952  26.081  13.634   3.322
22638W        W94953  16.198   1.291  13.521
22639W        W94954  32.463  17.557  13.537
22640W        W94955  23.162  42.802  13.830
22641W        W94956  15.126   6.243  11.508
22642W        W94957  24.126   2.773   1.815
22643W        W94958   7.817  43.011  12.484
22644W        W94959  30.507  12.644   2.690
22645W        W94960  12.301  13.695  12.944
22646W        W94961  40.877  37.873  12.894
22647W        W94962   9.191  38.994  12.068
22648W        W94963  12.119  14.740   4.340
22649W        W94964  34.016  25.616   1.235
22650W        W94965  23.519   3.938   2.798
22651W        W94966  19.213  42.327  13.366
22652W        W94967  11.320  20.178  10.979
22653W        W94968  18.720  24.565  10.940
22654W        W94969  38.915  22.241  13.846
22655W        W94970   9.804  17.578  11.025
22656W        W94971  37.056  23.677   9.955
22657W        W94972  33.033   4.277  12.417
22658W        W94973  11.174  14.592   0.886
22659W        W94974  20.528  36.917   1.709
22660W        W94975  17.194  11.753   4.224
22661W        W94976  40.867  42.514   2.279
22662W        W94977  32.132  39.060   1.801
22663W        W94978  20.722   9.284  10.987
22664W        W94979  22.008  32.561  13.014
22665W        W94980  37.955  38.891  13.991
22666W        W94981  24.571  38.860   4.256
22667W        W94982   9.801  27.531  11.564
22668W        W94983  17.636   2.789  11.504
22669W        W94984  24.722  14.228  14.763
22670W        W94985  33.921  35.954   1.268
22671W        W94986  18.627  34.419  13.451
22672W        W94987  19.603  38.371  13.818
22673W        W94988  23.683  27.120   1.256
22674W        W94989  28.681  24.110  10.082
22675W        W94990  15.127  41.357   1.918
22676W        W94991  10.188  43.445   0.459
22677W        W94992   5.792  41.449  11.033
22678W        W94993  37.389  13.151   3.284
22679W        W94994  27.993   0.847   0.301
22680W        W94995  25.046   2.821   2.756
22681W        W94996  15.680   9.286   1.723
22682W        W94997  26.036  21.644  11.945
22683W        W94998  27.581   3.744   4.631
22684W        W94999  13.158  24.544   3.176
22685W        W95000  14.654   5.291  11.932
22686W        W95001  32.094   2.961  14.395
22687W        W95002  33.934  21.056   0.904
22688W        W95003  31.611   7.338  12.012
22689W        W95004  10.847  37.917   4.154
22690W        W95005  21.141  33.988   3.163
22691W        W95006  30.037  32.502   0.789
22692W        W95007  18.563  17.141   1.264
22693W        W95008   5.409  14.611   2.735
22694W        W95009  41.832  17.216  12.869
22695W        W95010  25.137  17.071   2.804
22696W        W95011  19.168  14.611   2.331
22697W        W95012  27.071  13.831   4.598
22698W        W95013  43.416  38.537   1.931
22699W        W95014  17.705   8.734   4.642
22700W        W95015   3.732  33.506  14.935
22701W        W95016   0.339  10.192  14.781
22702W        W95017  24.066  35.889   1.855
22703W        W95018  33.559  34.026   2.803
22704W        W95019  16.261  41.497   2.876
22705W        W95020  35.048  34.879   2.749
22706W        W95021  44.400  33.984  13.386
22707W        W95022   5.737  17.782  11.556
22708W        W95023  44.784   9.369   0.963
22709W        W95024  34.009  16.640   2.833
22710W        W95025   0.977   0.352  11.017
22711W        W95026  40.875  26.483   0.359
22712W        W95027  36.870  17.239  14.389
22713W        W95028  29.074   9.349  10.890
22714W        W95029  37.432  25.647   4.716
22715W        W95030  39.442  39.050   2.258
22716W        W95031  19.263  35.031   3.643
22717W        W95032  26.600  30.118  11.076
22718W        W95033  15.160  31.633   1.309
22719W        W95034  20.064  36.999   4.780
22720W        W95035  44.762  11.335  10.435
22721W        W95036   9.367   3.399   1.892
22722W        W95037  28.133  34.529  13.889
22723W        W95038  42.497  31.964   0.324
22724W        W95039  28.460  39.977  13.899
22725W        W95040   5.793  32.953  13.929
22726W        W95041  36.921   9.741   0.342
22727W        W95042  29.986  16.301  14.444
22728W        W95043   8.176  29.591   0.380
22729W        W95044  43.993   0.794   1.262
22730W        W95045  42.402  28.575  10.591
22731W        W95046  25.084  38.014   2.727
22732W        W95047  23.114   5.426  11.494
22733W        W95048  11.727  15.208  14.031
22734W        W95049   9.169  28.160  13.516
22735W        W95050  40.846  34.425  14.785
22736W        W95051  13.816  42.798  11.888
22737W        W95052  26.606  25.639  14.431
22738W        W95053  24.603  31.496  12.847
22739W        W95054  43.009  14.104   9.987
22740W        W95055  22.629  24.129   1.695
22741W        W95056   6.889  34.896   0.265
22742W        W95057  30.948  18.649  12.873
22743W        W95058  39.400  29.048  13.317
22744W        W95059  10.279  25.689  12.419
22745W        W95060   5.359  34.463  12.428
22746W        W95061  12.347  12.267   2.747
22747W        W95062  16.133  44.804   3.322
22748W        W95063   5.907   8.798  10.981
22749W        W95064  14.147   1.820   4.672
22750W        W95065   0.492   3.236  11.995
22751W        W95066  35.998  16.725  14.997
22752W        W95067  37.408  41.509   3.768
22753W        W95068   1.386  37.455  12.397
22754W        W95069   0.292  41.453  10.522
22755W        W95070   3.300   1.771  13.492
22756W        W95071   8.891  26.123  12.954
22757W        W95072  38.361  25.111  12.856
22758W        W95073  33.968  15.738   4.278
22759W        W95074  36.401  37.926  10.596
22760W        W95075   4.723   1.906  14.009
22761W        W95076  28.646  15.767   3.860
22762W        W95077  27.158  38.456  13.858
22763W        W95078  26.027  27.179   4.168
22764W        W95079  37.551  30.158  14.929
22765W        W95080  44.845  36.011   9.544
22766W        W95081   1.785  21.072   2.700
22767W        W95082  26.131  22.013  12.013
22768W        W95083  10.378   0.783   0.382
22769W        W95084  22.116  13.645   3.166
22770W        W95085   6.757  14.612  11.085
22771W        W95086  31.057  13.660   4.326
22772W        W95087  22.600  22.502  10.458
22773W        W95088  34.917  10.183  14.337
22774W        W95089  35.553   2.724  13.836
22775W        W95090  44.979   1.772   0.833
22776W        W95091   0.417   3.884   1.762
22777W        W95092   5.379  39.347   4.674
22778W        W95093  41.824  42.885   4.763
22779W        W95094  42.451   3.954   1.776
22780W        W95095  36.852  39.526  12.850
22781W        W95096  11.646  31.564  12.000
22782W        W95097  13.235   8.277  11.075
22783W        W95098   4.886  37.924  12.020
22784W        W95099  15.735  17.073  14.439
22785W        W95100  16.162   0.490  14.849
22786W        W95101  19.182  42.003  14.834
22787W        W95102  12.318  12.316   0.312
22788W        W95103   6.770  16.305   3.719
22789W        W95104  33.492  17.788  12.829
22790W        W95105   8.311  39.896   2.695
22791W        W95106  44.954  27.529   0.322
22792W        W95107  15.744  33.385   3.682
22793W        W95108  33.099  35.553   1.900
22794W        W95109  19.140  21.601  14.863
22795W        W95110  36.966  29.921  10.943
22796W        W95111  14.136  37.856  12.505
22797W        W95112  20.215  33.467   3.846
22798W        W95113  33.428  40.888  12.513
22799W        W95114   4.826  26.075   1.776
22800W        W95115   8.336  14.679   0.957
22801W        W95116  39.992  22.012   0.771
22802W        W95117  18.248  23.495  14.991
22803W        W95118   5.932  44.283   1.341
22804W        W95119  10.678  38.329  11.873
22805W        W95120  44.290   2.393  13.466
22806W        W95121  32.109  41.435  10.609
22807W        W95122  16.726  10.228  13.978
22808W        W95123   0.918   3.449   1.313
22809W        W95124   6.838  27.544   1.371
22810W        W95125  26.101  35.458   2.384
22811W        W95126  19.709   9.740  12.571
22812W        W95127   4.718  30.945   1.881
22813W        W95128  32.951  42.922  14.851
22814W        W95129  32.407  34.875  11.886
22815W        W95130  12.155   8.871  12.007
22816W        W95131  13.665  14.209   1.876
22817W        W95132  13.114   5.254   0.439
22818W        W95133  15.810   9.316   4.215
22819W        W95134   2.925  14.115  14.296
22820W        W95135  20.065   8.173  14.986
22821W        W95136  22.080   7.209   4.753
22822W        W95137  34.510   0.864   2.228
22823W        W95138   9.873  39.007   1.913
22824W        W95139  32.096  33.509  12.917
22825W        W95140  44.379  34.002   2.342
22826W        W95141  11.849  40.837  12.444
22827W        W95142  39.953  13.821  11.427
22828W        W95143  42.011  22.192   3.185
22829W        W95144   7.801  21.118   2.346
22830W        W95145  25.013  17.772  12.968
22831W        W95146  20.123  16.122  14.956
22832W        W95147  22.576  24.648   4.211
22833W        W95148  41.988  20.742  14.865
22834W        W95149  23.082   6.379  10.552
22835W        W95150   8.209  21.698   3.715
22836W        W95151  42.867  31.419   1.913
22837W        W95152  36.585  37.944   4.682
22838W        W95153  16.258  42.937   0.940
22839W        W95154  13.228   0.817  12.947
22840W        W95155   5.768  17.216  10.898
22841W        W95156  21.592  21.142   2.798
22842W        W95157  42.449  36.940   1.242
22843W        W95158  26.179  40.009   2.214
22844W        W95159  10.815  12.214   0.367
22845W        W95160  23.066  29.535   1.434
22846W        W95161   8.731  21.234  12.049
22847W        W95162   8.364   7.689  14.424
22848W        W95163  38.908  15.823  13.382
22849W        W95164  15.212  39.475  14.853
22850W        W95165  42.006  37.381   2.774
22851W        W95166  26.594  37.966   1.375
22852W        W95167  28.626  27.085   0.897
22853W        W95168   4.935  23.721   2.225
22854W        W95169   6.302  28.045   1.797
22855W        W95170  25.053   3.716   1.870
22856W        W95171  31.083  37.909   4.812
22857W        W95172   8.830  17.776   4.301
22858W        W95173  43.800  42.420  13.041
22859W        W95174  33.015  10.289  11.884
22860W        W95175  15.167   7.412   0.316
22861W        W95176   5.837  42.417  14.847
22862W        W95177  25.095  21.584  14.818
22863W        W95178  33.520  36.014   1.858
22864W        W95179   3.242  35.387  13.849
22865W        W95180  29.534  24.521  12.038
22866W        W95181  19.592  23.090   3.801
22867W        W95182  13.816  16.778  12.449
22868W        W95183  19.545  40.476  14.847
22869W        W95184  35.388  33.979  13.898
22870W        W95185  30.138  29.632  12.373
22871W        W95186   8.716  32.932  14.486
22872W        W95187  14.136  26.029  14.892
22873W        W95188  42.313  31.415  14.907
22874W        W95189  28.452   5.709  14.344
22875W        W95190   7.246  11.136   3.285
22876W        W95191  39.407  29.657  10.573
22877W        W95192  33.435  32.549   2.207
22878W        W95193  17.117  19.153  12.880
22879W        W95194   0.944  12.833   5.118
22880W        W95195  44.447  33.914   0.299
22881W        W95196  24.646  38.933   0.363
22882W        W95197   0.941  35.989   3.795
22883W        W95198  23.704   0.375   3.650
22884W        W95199  44.990  18.674  14.762
22885W        W95200  30.020  31.448   0.243
22886W        W95201  36.533  35.856  12.882
22887W        W95202  26.474  38.384  14.416
22888W        W95203  12.259   6.352  14.496
22889W        W95204  44.887  41.894  11.605
22890W        W95205  32.445   4.299   4.228
22891W        W95206  27.975   6.805   9.527
22892W        W95207  29.539  10.830  10.535
22893W        W95208  14.621  37.424  14.801
22894W        W95209  41.878  24.514  14.277
22895W        W95210  27.674   6.684   1.903
22896W        W95211  18.280  34.966  11.008
22897W        W95212  39.944  14.805   2.347
22898W        W95213  14.801   2.275   0.829
22899W        W95214  18.634  42.339   1.413
22900W        W95215  32.914  20.156   0.466
22901W        W95216  34.931  41.490  10.454
22902W        W95217  20.607   0.956   4.216
22903W        W95218  37.918  33.004  12.523
22904W        W95219  39.008  38.892   0.452
22905W        W95220  26.051   8.750  14.484
22906W        W95221   2.894   8.390   3.792
22907W        W95222   0.755  26.180  11.457
22908W        W95223  15.231  22.668   0.477
22909W        W95224  36.861  13.297   2.349
22910W        W95225  35.083   6.297   4.178
22911W        W95226  37.854  34.959   2.291
22912W        W95227   1.970   8.826  11.934
22913W        W95228  17.268  27.450  10.633
22914W        W95229  26.459   6.823   0.796
22915W        W95230  40.964  21.155   2.313
22916W        W95231  41.037  17.303  11.892
22917W        W95232  26.986  11.648  12.367
22918W        W95233  23.175  13.836  12.419
22919W        W95234  10.322  37.965  14.031
22920W        W95235  28.472   6.703  12.883
22921W        W95236  42.891  11.279   2.792
22922W        W95237  35.413  32.424   0.786
22923W        W95238  40.837  13.794   1.339
22924W        W95239   9.746  20.271  14.858
22925W        W95240  20.174  37.865  14.792
22926W        W95241   9.747   2.838   2.663
22927W        W95242  43.418  40.818   1.739
22928W        W95243  34.437   3.837   4.836
22929W        W95244  22.100  23.127  13.016
22930W        W95245  21.117  14.135   3.369
22931W        W95246  44.283  34.539   5.654
22932W        W95247  31.547  31.140   1.702
22933W        W95248  36.477  33.622  13.979
22934W        W95249   6.267   1.329  11.498
22935W        W95250  27.549  36.433  10.939
22936W        W95251  23.187  22.083   3.318
22937W        W95252  23.227   4.316  11.592
22938W        W95253  42.365  27.018  12.868
22939W        W95254  44.787  17.128  11.503
22940W        W95255  36.498  42.784   0.933
22941W        W95256  32.892   5.227   1.779
22942W        W95257  40.002   6.421   0.400
22943W        W95258  11.718  38.504  13.976
22944W        W95259   0.834  29.656   1.886
22945W        W95260  42.946   2.257  14.971
22946W        W95261   0.944   0.344   4.321
22947W        W95262  39.903  11.341   2.211
22948W        W95263  37.556  43.888  14.309
22949W        W95264   5.235  24.096   1.838
22950W        W95265   1.377  10.194   3.334
22951W        W95266  20.081  14.213   3.360
22952W        W95267   8.718   6.718   4.238
22953W        W95268   2.297   2.257  14.847
22954W        W95269  13.264  12.138  10.980
22955W        W95270  19.066  30.507  13.442
22956W        W95271  25.543  40.024  12.870
22957W        W95272  35.543  44.441  10.595
22958W        W95273  11.353  13.662   2.289
22959W        W95274   6.235  21.643  13.818
22960W        W95275  40.376  42.480   3.236
22961W        W95276  20.648  22.053   1.771
22962W        W95277  44.438  16.164  14.377
22963W        W95278  22.589  20.614   0.778
22964W        W95279  17.111  43.504   4.653
22965W        W95280  35.873  39.990  14.004
22966W        W95281  18.568   9.186   3.302
22967W        W95282  32.947  38.904   0.813
22968W        W95283  36.521   7.406  12.551
22969W        W95284  25.133  11.655  12.411
22970W        W95285   4.929  30.418   2.180
22971W        W95286  42.400  17.764   1.802
22972W        W95287  31.948  14.146  13.991
22973W        W95288  29.053  43.317  12.013
22974W        W95289   0.264   9.744  12.861
22975W        W95290  24.042  41.397   1.364
22976W        W95291   2.292   4.791   2.786
22977W        W95292  37.514  11.706  13.955
22978W        W95293   4.862   2.912  13.430
22979W        W95294  25.188  17.214  13.350
22980W        W95295  21.069  18.606  11.063
22981W        W95296   7.843  26.491   3.201
22982W        W95297  17.299  18.242  14.932
22983W        W95298  41.502  34.121   2.752
22984W        W95299  18.177  15.253   4.695
22985W        W95300  30.604  15.153  13.368
22986W        W95301   9.756   8.254   4.805
22987W        W95302  13.676  19.120  10.441
22988W        W95303  24.976   2.280  12.879
22989W        W95304  10.160  33.075  11.409
22990W        W95305  38.989  38.019   2.721
22991W        W95306   6.703  29.492  12.952
22992W        W95307  19.087  41.538   2.193
22993W        W95308  15.211  17.721  14.504
22994W        W95309  42.033   4.221  14.488
22995W        W95310  21.192  38.548  14.484
22996W        W95311  23.006  14.657  14.919
22997W        W95312  35.592  18.601  12.051
22998W        W95313  14.328  21.201   0.801
22999W        W95314   6.395   1.361  10.983
23000W        W95315  25.204  41.813   3.737
23001W        W95316  33.877  35.439   3.209
23002W        W95317  37.524  34.917  12.920
23003W        W95318  36.913  18.107  13.972
23004W        W95319  14.603  17.733   1.273
23005W        W95320  16.111   2.267  14.872
23006W        W95321  40.462  43.881  14.299
23007W        W95322   5.272  12.274   1.874
23008W        W95323   7.804   8.721  10.036
23009W        W95324  30.610  19.046   3.271
23010W        W95325   8.218  22.208  14.496
23011W        W95326  28.937  32.993  11.388
23012W        W95327  22.129  21.758   2.225
23013W        W95328  21.588  10.780  10.891
23014W        W95329  10.342  39.998   2.323
23015W        W95330  28.140  12.353   2.880
23016W        W95331  30.046   0.983  11.426
23017W        W95332  13.788  37.068   3.272
23018W        W95333  26.540  26.491   1.815
23019W        W95334   4.841  36.440  14.403
23020W        W95335  37.068  18.160  12.476
23021W        W95336  42.933  43.315  10.903
23022W        W95337  43.331  35.000  11.499
23023W        W95338  35.992  39.546  13.946
23024W        W95339  26.008  10.842  11.032
23025W        W95340  30.142   1.930   3.655
23026W        W95341   0.371  19.089  14.961
23027W        W95342  14.202  31.059  12.568
23028W        W95343  40.980  31.995   4.618
23029W        W95344  28.496  18.664  10.415
23030W        W95345  43.345  33.978  13.403
23031W        W95346   3.269  10.808   1.446
23032W        W95347   1.771  44.482   4.664
23033W        W95348  11.785  13.778  11.053
23034W        W95349   7.891   2.338   3.230
23035W        W95350   1.857  40.510   4.350
23036W        W95351  43.452  16.072  11.128
23037W        W95352   8.883  35.071   0.402
23038W        W95353  37.038  37.399  14.445
23039W        W95354   8.391  15.734   2.351
23040W        W95355   9.357   5.342   1.378
23041W        W95356   1.969   8.845   2.195
23042W        W95357   0.974   1.750  13.007
23043W        W95358   7.280  26.636  14.001
23044W        W95359  20.261  44.347   0.931
23045W        W95360  22.667  13.845  13.885
23046W        W95361  39.366   1.272   2.269
23047W        W95362  34.024  20.575   4.220
23048W        W95363  12.624  27.060   4.271
23049W        W95364  38.912  25.709  10.486
23050W        W95365  37.072  15.673   3.170
23051W        W95366  23.502   5.372  13.335
23052W        W95367  24.214   9.838  11.045
23053W        W95368  31.423  42.803   2.766
23054W        W95369   7.747  12.120   3.225
23055W        W95370  28.070  22.093  11.594
23056W        W95371  10.761   5.824   4.597
23057W        W95372  22.523  27.039   1.434
23058W        W95373  23.566  29.657  10.455
23059W        W95374   0.454  32.604   3.706
23060W        W95375  13.718  33.614   0.263
23061W        W95376   7.227  34.510   4.316
23062W        W95377   2.342  18.193   1.445
23063W        W95378  40.888  22.697  10.974
23064W        W95379  14.130   2.941  13.519
23065W        W95380  25.167  32.142  14.898
23066W        W95381  33.050   6.218   3.239
23067W        W95382  15.222  37.864  12.928
23068W        W95383   3.854  44.908   0.871
23069W        W95384  13.327  36.360   3.655
23070W        W95385  18.749  37.544   3.215
23071W        W95386  38.419  37.999  13.362
23072W        W95387  13.144  30.470  12.575
23073W        W95388  20.170   7.684  13.010
23074W        W95389  29.939  35.594  13.061
23075W        W95390  37.934  14.102   0.269
23076W        W95391  43.885  42.525  11.538
23077W        W95392   5.321  14.242  14.973
23078W        W95393  38.416   7.809  13.031
23079W        W95394   2.881  43.506   2.320
23080W        W95395  22.181  36.375   3.338
23081W        W95396  36.916  41.971   3.756
23082W        W95397  30.008  29.489   3.778
23083W        W95398  25.189  23.683  13.829
23084W        W95399  13.289  41.400  14.330
23085W        W95400  28.943  30.084  10.995
23086W        W95401  22.664   4.920   0.802
23087W        W95402  16.728   6.349   4.245
23088W        W95403  24.048  33.582   1.874
23089W        W95404  22.232  14.246  10.966
23090W        W95405  43.399  43.381  12.011
23091W        W95406  21.037  10.808  10.545
23092W        W95407  18.600   6.373   3.277
23093W        W95408  10.768  32.064  13.443
23094W        W95409   4.255   6.265  11.947
23095W        W95410   6.711  34.445   3.301
23096W        W95411  39.404   6.398   1.421
23097W        W95412  38.878  10.801   1.884
23098W        W95413  15.797  11.293   3.700
23099W        W95414  36.429   6.882  10.500
23100W        W95415  11.150  36.523   0.852
23101W        W95416  14.825  35.939   5.240
23102W        W95417  22.084  33.051  13.962
23103W        W95418  19.747   4.268   2.751
23104W        W95419  28.597  38.876   2.179
23105W        W95420  18.567  13.729  11.542
23106W        W95421  37.899  44.346  11.928
23107W        W95422  27.129  12.307   0.479
23108W        W95423   9.247  14.778  14.877
23109W        W95424  31.000   7.407   0.779
23110W        W95425  39.064  33.062   2.895
23111W        W95426  37.920  13.283   1.413
23112W        W95427   5.344  18.188   2.770
23113W        W95428   5.910  37.376  14.882
23114W        W95429  10.149  12.723  11.897
23115W        W95430  17.672  19.707   2.358
23116W        W95431  42.011  14.709  12.013
23117W        W95432  25.474  12.721  14.013
23118W        W95433   9.879  20.749   4.265
23119W        W95434  43.846  31.439  10.997
23120W        W95435  43.876  33.097   0.898
23121W        W95436  11.223   6.265   2.742
23122W        W95437  31.577  26.686   4.311
23123W        W95438  34.380  16.271  14.782
23124W        W95439   7.792  39.006  11.900
23125W        W95440  24.711  22.516   4.734
23126W        W95441  31.481  20.600  13.801
23127W        W95442  44.395  18.286  12.054
23128W        W95443  25.028  39.892   2.779
23129W        W95444   9.855  29.115  11.890
23130W        W95445  42.330   2.890  10.553
23131W        W95446  24.974  25.481   0.954
23132W        W95447  35.425  10.228   4.830
23133W        W95448  37.931  29.016   0.761
23134W        W95449   5.219   7.713  12.472
23135W        W95450  33.383  10.786   3.307
23136W        W95451   5.349  30.655   4.244
23137W        W95452  24.572  39.388   3.805
23138W        W95453   0.763  24.610   0.256
23139W        W95454  39.403  24.169  11.590
23140W        W95455  37.405   8.188  13.881
23141W        W95456  40.850  32.545  12.508
23142W        W95457  28.006  24.134  10.920
23143W        W95458  22.659  37.078  10.522
23144W        W95459  26.205  10.680   1.387
23145W        W95460   1.471  39.919  13.839
23146W        W95461   5.874  12.177  11.070
23147W        W95462   9.176  31.454   4.818
23148W        W95463  44.883  25.560   2.382
23149W        W95464   0.452  31.526  13.424
23150W        W95465  36.436   4.362   2.417
23151W        W95466  24.523  30.568  11.126
23152W        W95467  24.713   2.819   2.715
23153W        W95468   2.789   7.363  14.275
23154W        W95469   8.235  31.105  10.422
23155W        W95470  37.032  20.552   3.689
23156W        W95471   4.942  37.370  12.407
23157W        W95472  42.293  35.575   1.439
23158W        W95473   5.709  38.891   4.823
23159W        W95474  26.986  44.345  12.505
23160W        W95475  32.996  18.262   0.474
23161W        W95476  33.925   2.841   2.403
23162W        W95477  16.220   3.893  11.052
23163W        W95478   8.722  29.600   1.442
23164W        W95479  17.633  31.038  13.420
23165W        W95480  13.248  35.451   4.828
23166W        W95481   1.264   4.391   4.750
23167W        W95482  24.058  27.476   1.814
23168W        W95483  29.033  22.688  10.486
23169W        W95484  44.992   0.401   3.191
23170W        W95485   0.293  16.150   4.720
23171W        W95486  11.319  20.707   2.302
23172W        W95487  32.991  25.502  14.459
23173W        W95488   6.280  18.143  10.569
23174W        W95489  23.009   7.721   1.440
23175W        W95490  16.632  31.035   4.749
23176W        W95491  31.465  37.977  13.924
23177W        W95492  20.173  33.111   3.258
23178W        W95493  30.433  11.801   4.341
23179W        W95494  24.982  28.180   4.717
23180W        W95495  38.003  41.352   3.673
23181W        W95496  23.675  42.929  10.010
23182W        W95497  39.453  32.953  13.420
23183W        W95498  40.518   2.745  10.542
23184W        W95499  36.029  42.819  12.503
23185W        W95500  21.040  42.987   3.717
23186W        W95501   7.336   1.389   4.268
23187W        W95502  24.066   7.783   1.884
23188W        W95503  17.756  43.432  14.369
23189W        W95504  17.193   6.827   1.232
23190W        W95505  32.984  27.154   1.814
23191W        W95506  35.920  15.211   2.853
23192W        W95507  33.116   8.196  14.315
23193W        W95508  43.478  15.207  12.862
23194W        W95509  42.523  39.547  13.855
23195W        W95510  40.980   1.886   0.915
23196W        W95511  29.568  42.422  10.598
23197W        W95512  40.420  34.507   2.714
23198W        W95513  22.065  43.020  14.842
23199W        W95514  21.512  15.293  10.946
23200W        W95515  12.119  12.214  14.872
23201W        W95516  32.416  31.132  13.856
23202W        W95517  39.898  23.540  12.040
23203W        W95518   5.195  33.514  11.481
23204W        W95519  18.683  35.927  10.475
23205W        W95520  35.054  26.473  11.872
23206W        W95521  34.610  17.611   0.473
23207W        W95522  27.943  44.501  13.471
23208W        W95523  19.767  10.200   4.751
23209W        W95524  42.396  44.332  12.510
23210W        W95525  32.633  29.660  13.028
23211W        W95526  43.768  21.744  12.968
23212W        W95527  29.971  32.028  13.462
23213W        W95528  25.623  35.921   1.907
23214W        W95529  10.369  14.294  12.074
23215W        W95530   5.370   8.897   2.206
23216W        W95531  18.595  17.724   1.354
23217W        W95532  35.559  14.152  14.354
23218W        W95533  16.205  26.497   2.894
23219W        W95534   3.233  14.259  12.358
23220W        W95535  19.166  43.868  11.541
23221W        W95536  29.958   7.386   1.392
23222W        W95537   9.718   2.831  14.819
23223W        W95538  35.949  22.100  12.388
23224W        W95539  32.428  35.064  12.413
23225W        W95540  14.290  28.951  14.440
23226W        W95541  19.543   2.338  10.623
23227W        W95542  34.957  37.535  13.466
23228W        W95543   4.254   7.394  14.454
23229W        W95544  27.997  37.935   2.340
23230W        W95545  16.082  27.477  12.832
23231W        W95546   0.986  22.691  11.059
23232W        W95547  16.700  44.861  14.910
23233W        W95548   0.956  18.579  10.630
23234W        W95549  44.392  17.302  12.559
23235W        W95550  35.898  26.072  13.008
23236W        W95551   4.285   0.879  14.316
23237W        W95552  32.621  10.334   2.742
23238W        W95553  26.007  41.821   2.240
23239W        W95554  44.481  20.067  13.000
23240W        W95555  44.768  11.764  14.281
23241W        W95556  19.129  14.633   1.450
23242W        W95557  14.244  29.446   1.312
23243W        W95558  18.776  39.432  14.026
23244W        W95559  11.245   4.299  14.805
23245W        W95560  22.188  28.612  12.493
23246W        W95561   9.330  38.443  11.967
23247W        W95562  34.909  17.091  13.003
23248W        W95563  21.524   9.341   0.396
23249W        W95564   9.320  31.022   4.296
23250W        W95565  41.398  29.094   2.702
23251W        W95566  25.196  41.315  11.456
23252W        W95567  16.724  42.363   4.616
23253W        W95568  10.644   6.229   3.743
23254W        W95569   6.846  30.007   3.383
23255W        W95570   1.275  38.050  10.593
23256W        W95571  28.533  30.472   1.831
23257W        W95572  20.228  19.548  13.917
23258W        W95573  39.399   3.267  10.894
23259W        W95574   6.861  26.681   4.329
23260W        W95575  15.151  30.590   5.236
23261W        W95576   9.356  44.433  14.889
23262W        W95577  31.056  24.100  14.965
23263W        W95578  32.910  11.774  14.969
23264W        W95579  15.149  28.642   1.301
23265W        W95580  39.334  21.532   0.783
23266W        W95581  25.107   7.864  12.844
23267W        W95582   5.424  22.537  14.961
23268W        W95583   4.446   4.446   4.205
23269W        W95584   2.236  10.165   4.798
23270W        W95585  32.959  29.018  11.608
23271W        W95586  28.091  38.507  12.845
23272W        W95587  44.491  32.005   2.856
23273W        W95588   7.871  18.138   4.220
23274W        W95589  12.810   6.907   3.843
23275W        W95590  22.130  35.580  14.943
23276W        W95591  37.420  31.149   3.689
23277W        W95592  12.642  18.732   3.369
23278W        W95593  29.594  43.001   2.662
23279W        W95594  38.520  31.112  13.991
23280W        W95595   8.290  17.276   4.325
23281W        W95596  31.074  30.528   4.759
23282W        W95597  32.084  23.726   2.889
23283W        W95598   9.764  36.918   3.675
23284W        W95599  26.977   5.288   5.290
23285W        W95600  36.869  39.315   3.744
23286W        W95601  39.957  22.617  12.988
23287W        W95602  29.625  38.058  10.605
23288W        W95603  19.587  34.405  14.336
23289W        W95604   6.751   5.263  14.992
23290W        W95605  21.634  25.115  12.542
23291W        W95606   6.376   0.895  13.853
23292W        W95607  44.825  27.454  13.804
23293W        W95608  20.237  14.271   5.278
23294W        W95609  11.262   2.872  14.472
23295W        W95610  23.026  28.940   1.810
23296W        W95611  43.948   5.916  13.795
23297W        W95612   6.247  16.172   2.877
23298W        W95613  39.532   9.839  11.946
23299W        W95614  20.765  43.831   2.345
23300W        W95615  44.354  15.683  13.499
23301W        W95616   9.807  23.113   1.779
23302W        W95617  44.326  12.749   4.814
23303W        W95618  21.628  26.604  12.527
23304W        W95619  17.599  23.589  13.013
23305W        W95620  39.965  32.391  13.044
23306W        W95621  39.899  38.365   0.748
23307W        W95622  25.490  20.677   2.687
23308W        W95623  39.425  34.899  11.593
23309W        W95624   7.265  37.469   2.380
23310W        W95625  25.219  17.095  13.804
23311W        W95626   3.451  25.999   3.788
23312W        W95627  38.825  33.544   4.725
23313W        W95628  27.072   7.899  14.789
23314W        W95629   0.260  13.797  12.496
23315W        W95630  34.567  25.043  12.888
23316W        W95631   5.417  27.103   4.752
23317W        W95632  13.749  10.688   2.259
23318W        W95633   1.341  16.783   1.914
23319W        W95634  28.137  33.518  11.470
23320W        W95635   1.922  37.903  11.504
23321W        W95636   7.827  23.122   3.646
23322W        W95637  31.147  40.824  11.896
23323W        W95638  33.495  12.733   3.258
23324W        W95639   4.759  12.323   2.220
23325W        W95640  15.255  15.791  12.013
23326W        W95641   6.718  27.643  12.046
23327W        W95642   2.945   8.177  13.362
23328W        W95643   6.424  24.577   4.753
23329W        W95644   0.407  39.378   2.671
23330W        W95645  21.121  32.572   1.445
23331W        W95646  27.654  22.015  12.555
23332W        W95647   8.212   4.449  11.035
23333W        W95648  15.086   2.411   2.384
23334W        W95649  31.045  38.948   2.337
23335W        W95650  21.097   7.206   0.419
23336W        W95651   3.431  26.619   2.725
23337W        W95652  41.986  19.714   3.645
23338W        W95653  37.550  40.856  11.533
23339W        W95654  33.430  41.875  12.021
23340W        W95655   2.433  42.970  10.471
23341W        W95656   8.762  26.135   2.278
23342W        W95657  40.449  14.713  13.806
23343W        W95658   1.958  39.810   2.185
23344W        W95659  26.202  43.894  12.012
23345W        W95660  32.962  24.135   2.669
23346W        W95661   9.333  38.912  11.093
23347W        W95662   3.248   1.766  10.994
23348W        W95663  22.250   0.921  11.892
23349W        W95664  30.959  12.223   0.771
23350W        W95665  26.079  16.249   4.695
23351W        W95666  35.964  35.571   2.673
23352W        W95667   0.427  17.585  14.409
23353W        W95668  32.461   6.921   3.196
23354W        W95669  30.102   2.895  13.380
23355W        W95670  32.073  16.764   2.771
23356W        W95671  25.712   7.701  11.596
23357W        W95672  23.545  24.629   4.804
23358W        W95673  26.478   0.418  11.596
23359W        W95674  27.507  25.679  12.971
23360W        W95675  20.112  30.647  11.862
23361W        W95676  33.517  16.645  12.373
23362W        W95677   7.807  37.529  10.505
23363W        W95678   3.436  13.654   0.914
23364W        W95679  33.932  34.025  14.476
23365W        W95680  37.831   2.882   2.752
23366W        W95681  28.061   3.351   4.138
23367W        W95682  42.973  30.015  13.530
23368W        W95683  35.980  14.235   4.313
23369W        W95684  14.328  24.516   3.790
23370W        W95685  33.970  15.309  13.532
23371W        W95686   2.303  10.640   1.839
23372W        W95687  32.450  25.140   3.708
23373W        W95688   6.786  33.993  10.552
23374W        W95689  19.175  18.745   2.375
23375W        W95690  44.418   5.413   0.284
23376W        W95691  18.169  24.178  11.127
23377W        W95692   8.330  43.473  13.513
23378W        W95693  32.540  13.751   1.933
23379W        W95694  37.539  35.597   3.825
23380W        W95695  13.752  27.966  11.016
23381W        W95696  21.064  17.740   0.945
23382W        W95697   4.331  11.279  11.049
23383W        W95698  44.273  27.148  14.419
23384W        W95699   0.842  15.215  12.035
23385W        W95700  39.515   1.957  13.321
23386W        W95701  22.739  16.569   2.297
23387W        W95702  10.836  42.825  14.944
23388W        W95703   9.186  35.519  14.832
23389W        W95704   1.774  26.985  13.522
23390W        W95705  44.287  13.708  13.335
23391W        W95706   6.899  12.226   1.354
23392W        W95707   1.398  32.081   2.416
23393W        W95708   4.387   7.288  11.860
23394W        W95709  10.194  39.005   4.645
23395W        W95710  34.411  23.209  12.867
23396W        W95711  15.290  14.756   1.301
23397W        W95712  25.572  16.706   2.395
23398W        W95713  40.017  38.441  14.840
23399W        W95714  32.454  34.963  10.078
23400W        W95715  35.444  25.483   0.891
23401W        W95716  15.632  30.522  14.402
23402W        W95717  42.330  34.615   0.437
23403W        W95718  33.117   6.322   4.811
23404W        W95719  24.098  27.100  13.847
23405W        W95720  43.287  19.083   2.766
23406W        W95721   3.797  38.527   4.180
23407W        W95722  28.136  26.485  10.533
23408W        W95723  25.663  14.104   4.725
23409W        W95724  41.307  15.586   5.090
23410W        W95725   2.937   6.752  10.988
23411W        W95726  28.669   9.672  13.895
23412W        W95727   4.764  27.083  13.500
23413W        W95728  33.578  15.682  10.937
23414W        W95729  35.928  39.882   3.754
23415W        W95730   8.830  18.178  12.453
23416W        W95731  16.675  35.513   0.246
23417W        W95732  41.991   3.714  14.279
23418W        W95733  37.893  22.105  11.078
23419W        W95734  44.409  11.825   3.217
23420W        W95735  17.189  19.663  12.846
23421W        W95736  14.331  17.579   2.340
23422W        W95737  43.839  25.696   4.156
23423W        W95738  32.995  39.441  14.391
23424W        W95739   2.908  43.975   1.222
23425W        W95740  19.248  24.992   1.364
23426W        W95741   1.359  11.802  12.839
23427W        W95742  17.155  15.594  14.840
23428W        W95743  16.192  35.107   1.805
23429W        W95744  38.060  31.064   2.178
23430W        W95745  21.222  35.387   0.807
23431W        W95746  13.256   8.243   2.401
23432W        W95747  19.098   1.338  10.631
23433W        W95748  39.348  40.347  12.411
23434W        W95749  19.167  38.558   4.338
23435W        W95750  33.437  13.331   4.746
23436W        W95751  11.260   5.918  11.371
23437W        W95752  22.204   5.224  10.985
23438W        W95753  42.405  19.109   1.365
23439W        W95754  20.093  19.656  12.450
23440W        W95755  12.278  42.859   2.291
23441W        W95756  30.472  23.200  11.067
23442W        W95757  20.534   9.886  10.568
23443W        W95758   9.182  25.078  14.402
23444W        W95759  28.603  33.117   0.790
23445W        W95760  19.617  21.248  14.887
23446W        W95761  11.196  39.877  13.428
23447W        W95762  43.902  23.640  14.769
23448W        W95763   9.829  21.531   1.329
23449W        W95764  11.312  13.816   4.619
23450W        W95765  12.621  17.073  11.970
23451W        W95766  43.995  39.871  11.870
23452W        W95767   1.842  44.006  11.598
23453W        W95768   0.829   1.934   4.283
23454W        W95769  24.071  32.921  10.532
23455W        W95770  14.779   0.256  10.466
23456W        W95771  22.715  10.651  12.087
23457W        W95772  39.413  28.637  14.016
23458W        W95773  20.129  40.894   0.742
23459W        W95774  20.696   1.314   4.337
23460W        W95775  12.147  38.524  13.327
23461W        W95776  15.658   8.671   4.652
23462W        W95777  10.356  43.890   3.674
23463W        W95778  41.412  24.012  11.047
23464W        W95779   9.238  39.549  10.437
23465W        W95780  17.229   7.715  11.985
23466W        W95781  25.522  11.725   2.252
23467W        W95782  26.085  30.420  13.375
23468W        W95783   5.821  11.303  11.483
23469W        W95784  15.273  38.343   1.317
23470W        W95785  40.515  10.241   4.201
23471W        W95786   5.893  43.014  10.122
23472W        W95787  19.113  12.731  13.346
23473W        W95788  37.484  16.740   0.863
23474W        W95789  17.111  35.096   0.370
23475W        W95790   1.856   4.232   1.811
23476W        W95791  32.496  14.740  12.417
23477W        W95792  44.294  43.321   0.857
23478W        W95793   9.847  32.040   2.668
23479W        W95794  36.984  34.423   4.310
23480W        W95795  40.372  11.725   5.117
23481W        W95796  39.869   7.741  13.925
23482W        W95797  31.427  40.050  12.470
23483W        W95798   0.347   8.773  14.809
23484W        W95799  22.662  31.643  11.111
23485W        W95800  18.547  29.522  10.133
23486W        W95801  23.507  36.079   4.651
23487W        W95802  43.878  32.924  13.356
23488W        W95803  28.116  38.837   4.202
23489W        W95804   0.435  14.614   0.927
23490W        W95805  32.615  43.809   3.837
23491W        W95806  21.571  33.950   0.431
23492W        W95807  38.498  15.720  14.830
23493W        W95808   5.712   8.399  12.979
23494W        W95809  20.112  32.130   3.358
23495W        W95810  44.363   4.416   1.430
23496W        W95811  41.833  15.169  10.901
23497W        W95812   7.783  38.514   4.132
23498W        W95813  27.196  41.887   4.232
23499W        W95814  41.976   1.779   4.814
23500W        W95815  24.669   9.386  14.925
23501W        W95816  15.262  30.043   5.762
23502W        W95817   7.173   1.935   0.312
23503W        W95818  35.467  21.742  14.785
23504W        W95819  11.288  42.793   3.297
23505W        W95820  31.476   9.150  10.926
23506W        W95821   4.819  17.701   2.675
23507W        W95822   3.314   4.399  10.572
23508W        W95823  26.610  15.819  10.924
23509W        W95824  29.004  34.014  10.424
23510W        W95825  28.161  24.989   2.721
23511W        W95826  35.603  25.579  11.507
23512W        W95827   9.689  42.861  14.778
23513W        W95828  26.025  17.177   1.925
23514W        W95829   3.758  28.648   1.211
23515W        W95830  43.871  19.253   3.691
23516W        W95831  23.075  36.923   4.721
23517W        W95832   6.833  12.642  12.527
23518W        W95833  44.886  23.653   3.156
23519W        W95834  40.818  36.553   1.881
23520W        W95835  39.945  36.860  14.769
23521W        W95836  34.546  22.554  10.518
23522W        W95837  32.503  38.333  10.999
23523W        W95838  37.413  17.140  14.983
23524W        W95839  14.638  10.238  12.361
23525W        W95840   2.472  30.425   0.789
23526W        W95841  21.699   2.840   4.628
23527W        W95842   1.781  16.600   3.238
23528W        W95843  13.757   7.355  14.443
23529W        W95844   9.650  21.725   3.825
23530W        W95845  23.058  22.166   2.318
23531W        W95846   2.447  28.148  11.535
23532W        W95847  17.768  10.367  10.432
23533W        W95848  28.094   7.406  13.488
23534W        W95849  40.829  43.936   0.738
23535W        W95850  32.985  13.757  10.573
23536W        W95851  33.912   1.448  14.778
23537W        W95852  26.662  36.487   2.811
23538W        W95853  39.808  27.684   3.731
23539W        W95854  41.431  12.754  14.939
23540W        W95855   7.797   5.840   3.835
23541W        W95856  42.845  42.282   4.154
23542W        W95857  24.701  21.184  14.005
23543W        W95858  10.728  10.326   2.673
23544W        W95859  14.329  19.064   3.179
23545W        W95860   4.932  40.842  13.833
23546W        W95861  26.135  13.699  10.523
23547W        W95862  41.807  36.016   0.839
23548W        W95863  24.650  19.619   0.459
23549W        W95864  16.760  39.362   3.659
23550W        W95865  17.771  43.293   0.344
23551W        W95866  30.119  30.484  11.583
23552W        W95867  31.931  34.968   1.302
23553W        W95868  17.303  38.969  12.874
23554W        W95869   3.739  40.953   0.245
23555W        W95870  13.244   2.935   1.757
23556W        W95871  36.056  35.952  14.915
23557W        W95872  25.037  21.237   4.725
23558W        W95873  42.431  11.157  11.579
23559W        W95874  11.855  37.444   3.206
23560W        W95875  22.206  36.520  12.966
23561W        W95876   1.364   1.929   3.797
23562W        W95877  33.055  29.435   2.230
23563W        W95878  39.023  17.071   0.252
23564W        W95879  16.575  19.669  14.342
23565W        W95880  41.355  36.492   2.795
23566W        W95881  20.172  33.615  12.884
23567W        W95882   0.344  10.337  12.089
23568W        W95883  33.407   8.890  10.120
23569W        W95884  13.304  36.903   2.846
23570W        W95885   6.852  33.026  14.783
23571W        W95886  42.288  44.424  13.006
23572W        W95887   9.171  40.376   2.211
23573W        W95888   4.222   0.985  11.455
23574W        W95889  13.236  28.665   4.791
23575W        W95890  23.651  23.055  13.524
23576W        W95891  37.045  22.126  13.937
23577W        W95892  39.445  38.406   4.752
23578W        W95893  21.736   7.800   2.220
23579W        W95894  40.413   8.762   3.241
23580W        W95895  42.430   1.450   1.801
23581W        W95896  30.628  24.498   4.132
23582W        W95897  40.819  33.581  12.562
23583W        W95898   1.438   6.309  10.461
23584W        W95899   9.652   0.842  11.072
23585W        W95900  31.433  44.757   0.824
23586W        W95901  40.337  23.008  14.832
23587W        W95902  33.396  17.556  10.451
23588W        W95903   6.372  20.065  12.030
23589W        W95904  25.643  16.195   0.808
23590W        W95905   6.416  17.621   0.305
23591W        W95906  30.920  15.815  13.426
23592W        W95907  27.104  17.678   3.312
23593W        W95908  15.801  19.764   2.347
23594W        W95909  38.495  18.208  11.894
23595W        W95910  21.055  44.994   2.271
23596W        W95911  39.327  42.968  12.521
23597W        W95912  24.696  16.611  13.317
23598W        W95913  41.402   1.801   0.407
23599W        W95914  43.879  37.537  14.448
23600W        W95915  22.585  20.565  10.535
23601W        W95916  24.205  44.768  12.884
23602W        W95917  34.915  22.672  11.451
23603W        W95918  31.925  25.994   3.373
23604W        W95919   2.813  20.744   0.275
23605W        W95920  38.946  37.895   4.723
23606W        W95921  38.893  33.096  13.940
23607W        W95922  22.727  34.994  12.580
23608W        W95923   2.795   3.813   0.920
23609W        W95924  16.137   4.873  13.540
23610W        W95925  10.151  40.935  13.798
23611W        W95926  19.566  36.358  13.472
23612W        W95927  14.195  25.202  12.867
23613W        W95928  19.692  38.471   2.306
23614W        W95929   5.280  21.042   2.235
23615W        W95930   4.309   9.337   0.858
23616W        W95931  27.691   0.742   2.224
23617W        W95932   4.256  12.754  12.494
23618W        W95933  33.894   4.732   3.339
23619W        W95934  14.105  33.598   1.762
23620W        W95935  24.596  24.551  14.777
23621W        W95936  14.601  27.643   3.866
23622W        W95937  27.972  34.489  14.317
23623W        W95938   7.299  10.742  13.481
23624W        W95939   0.309  10.713  12.358
23625W        W95940  40.873  12.755  14.356
23626W        W95941  28.045  36.015  10.135
23627W        W95942  26.016  23.204  13.455
23628W        W95943   9.351  44.260  11.052
23629W        W95944  15.265   7.682   0.336
23630W        W95945  18.702  43.423   0.854
23631W        W95946  26.612  37.864  11.576
23632W        W95947   1.800  35.395  10.089
23633W        W95948  34.462   9.886   0.450
23634W        W95949  29.110   8.836   4.642
23635W        W95950   9.370   1.285  12.343
23636W        W95951  34.977  13.775  11.487
23637W        W95952   5.724  30.925   4.166
23638W        W95953   5.791  12.251   2.881
23639W        W95954   3.367   3.283  14.862
23640W        W95955   2.956  15.280  10.938
23641W        W95956  36.411  22.065   1.820
23642W        W95957  32.589  41.381  14.478
23643W        W95958  37.354  26.647   4.138
23644W        W95959  16.301  30.084   3.636
23645W        W95960  15.238  17.595   1.819
23646W        W95961  15.124  34.615   3.631
23647W        W95962  37.963  18.585   4.281
23648W        W95963   9.740  15.795  10.502
23649W        W95964  44.261  20.699  13.812
23650W        W95965  34.495  23.662  14.790
23651W        W95966  36.490  24.020  12.405
23652W        W95967  24.135  28.477  11.447
23653W        W95968  15.272  23.202  13.914
23654W        W95969  27.672  38.862   4.241
23655W        W95970  32.484  15.657   4.254
23656W        W95971  19.131  15.597  14.460
23657W        W95972   2.277  27.627   0.939
23658W        W95973   8.212   2.884   2.763
23659W        W95974   0.275  41.810   1.260
23660W        W95975   5.790  18.714  11.881
23661W        W95976  13.152  23.100  14.817
23662W        W95977   4.783  35.422  12.449
23663W        W95978   4.391  28.027  13.847
23664W        W95979   0.473  20.060   3.745
23665W        W95980   5.925  40.488  10.472
23666W        W95981  17.704   4.709  14.923
23667W        W95982  28.950  14.660  13.545
23668W        W95983  21.034  33.103   4.629
23669W        W95984   4.734  21.625  11.514
23670W        W95985  35.390  35.913   2.815
23671W        W95986  18.671  22.063  13.327
23672W        W95987  37.057  44.410   3.304
23673W        W95988   6.326   3.744   3.326
23674W        W95989  35.489  17.709  13.949
23675W        W95990   5.286  28.633   0.751
23676W        W95991  18.587  23.524   3.379
23677W        W95992  33.882  14.312  13.517
23678W        W95993  29.658  31.944   2.708
23679W        W95994  15.215   4.842   2.853
23680W        W95995   2.928   1.825  10.410
23681W        W95996  24.554  26.098  14.375
23682W        W95997  13.313  20.158   3.846
23683W        W95998  28.942  33.098   0.739
23684W        W95999  37.566  23.643   9.589
23685W        W96000  36.551  11.298  12.378
23686W        W96001  12.787  28.602   2.245
23687W        W96002  30.451  13.775  13.427
23688W        W96003  16.270  15.140  10.925
23689W        W96004  19.569  14.647  14.394
23690W        W96005  15.796  30.605   0.759
23691W        W96006   4.353  28.007  13.354
23692W        W96007  22.136  32.893   2.717
23693W        W96008  42.409  17.645  11.058
23694W        W96009  39.858  10.224  12.974
23695W        W96010  29.645  29.047  14.307
23696W        W96011  36.350  16.243   4.798
23697W        W96012  14.254   0.377   2.354
23698W        W96013  24.631  23.603  11.870
23699W        W96014   7.668  12.756   4.281
23700W        W96015   4.803  11.786  13.353
23701W        W96016  22.564  21.220   1.695
23702W        W96017  14.274  31.437   2.348
23703W        W96018  40.320  13.290   0.761
23704W        W96019  31.542  30.028   0.747
23705W        W96020  30.448  21.695   1.234
23706W        W96021  30.420   5.839   2.308
23707W        W96022  20.547  12.820  13.477
23708W        W96023  19.212  16.264   0.399
23709W        W96024  11.735  38.016   3.836
23710W        W96025   3.383  40.445   2.401
23711W        W96026  15.320  14.319   4.352
23712W        W96027   0.458  10.309  13.964
23713W        W96028  23.722  27.638  10.939
23714W        W96029  31.962  30.563  13.832
23715W        W96030  27.963   1.326   1.234
23716W        W96031   2.236  16.162  13.049
23717W        W96032  24.625   6.317   0.333
23718W        W96033   0.816  28.488   1.835
23719W        W96034  35.880  41.894   4.695
23720W        W96035   9.152  17.617   0.325
23721W        W96036  30.633  34.497  10.637
23722W        W96037  31.972  44.278   3.640
23723W        W96038   7.389  10.202  14.500
23724W        W96039  14.334  32.000  10.499
23725W        W96040  25.076  26.013  12.879
23726W        W96041  22.168   4.359   3.200
23727W        W96042  42.309  11.310   4.716
23728W        W96043  38.443  22.022   2.346
23729W        W96044  28.134  22.742  10.614
23730W        W96045  17.727  43.475  13.342
23731W        W96046   8.807  29.456   0.361
23732W        W96047  29.965  26.057  12.352
23733W        W96048   6.777  25.007   4.827
23734W        W96049  29.925  13.283  13.008
23735W        W96050  11.689   9.696  13.423
23736W        W96051   5.911  37.348  10.965
23737W        W96052   7.284  22.140   0.844
23738W        W96053  43.819  16.180  12.448
23739W        W96054  22.647  11.767  11.930
23740W        W96055  33.926  41.384  11.548
23741W        W96056  28.666  27.108   0.343
23742W        W96057  18.182  32.577  10.527
23743W        W96058  36.501  15.621  10.631
23744W        W96059   2.853  15.321  12.407
23745W        W96060  32.604  41.877  10.612
23746W        W96061  24.506  31.588  11.474
23747W        W96062  37.952   7.328   1.891
23748W        W96063   4.868  38.521   2.808
23749W        W96064   7.331  11.188   0.819
23750W        W96065  21.715  44.799  14.420
23751W        W96066  14.266  30.080   1.408
23752W        W96067   2.387  13.630   4.670
23753W        W96068  11.173  35.576  12.840
23754W        W96069  24.519   7.805   1.706
23755W        W96070   0.402  28.598  10.959
23756W        W96071   6.361   8.348  13.025
23757W        W96072  22.097   6.190   2.826
23758W        W96073  36.522  10.370   3.197
23759W        W96074   5.780   1.291   2.780
23760W        W96075  30.624  35.433  10.546
23761W        W96076  21.198  16.588  10.473
23762W        W96077  13.215  39.882   0.426
23763W        W96078  27.541   6.304  13.534
23764W        W96079   6.810  35.907  12.438
23765W        W96080   2.773  41.494   2.691
23766W        W96081  28.949  14.284   2.717
23767W        W96082  16.710  29.054   4.666
23768W        W96083  12.647  30.495  10.632
23769W        W96084  36.520   5.265  14.381
23770W        W96085  19.116  40.521   5.578
23771W        W96086  10.788  42.004   0.388
23772W        W96087   4.900  33.536  13.848
23773W        W96088  40.518  37.961  12.997
23774W        W96089  11.705  21.723   2.689
23775W        W96090  22.572  36.544   4.233
23776W        W96091  44.888  15.299  14.819
23777W        W96092  20.574  29.941   4.837
23778W        W96093  23.577   5.776   0.470
23779W        W96094  15.804  38.387   1.444
23780W        W96095  33.484  22.551   3.820
23781W        W96096  25.145  12.349   0.765
23782W        W96097  28.096  14.224   4.189
23783W        W96098   7.818   5.830  11.426
23784W        W96099  40.393  32.519  13.362
23785W        W96100  32.100   2.396  14.432
23786W        W96101   7.699  38.454  11.495
23787W        W96102   7.672  20.171  11.474
23788W        W96103  18.743  16.664  14.924
23789W        W96104   0.468  21.668   3.842
23790W        W96105   0.268  38.529  11.510
23791W        W96106  26.994   9.657   2.702
23792W        W96107   4.814  25.708  11.053
23793W        W96108  40.798   8.882   0.462
23794W        W96109  29.058   9.698   4.231
23795W        W96110  27.188  11.715   0.424
23796W        W96111  17.639  19.108   3.250
23797W        W96112   2.964   6.195  12.403
23798W        W96113  41.451  39.892   1.360
23799W        W96114  40.335  41.902  12.980
23800W        W96115  25.177  25.603   2.226
23801W        W96116  32.505  31.526   2.391
23802W        W96117  31.951  43.820  12.503
23803W        W96118  39.532  26.484  13.341
23804W        W96119   1.886  44.433  12.935
23805W        W96120  13.286   6.355  13.493
23806W        W96121  17.222   9.358   3.159
23807W        W96122  40.895   5.785   1.394
23808W        W96123   9.391  43.765  11.127
23809W        W96124  40.519  36.505   1.383
23810W        W96125  31.577  32.493  12.877
23811W        W96126  13.757  15.627   0.307
23812W        W96127  30.612  26.979  13.879
23813W        W96128  19.167  44.979  10.905
23814W        W96129   7.406  43.914   4.734
23815W        W96130  17.667  42.872   2.378
23816W        W96131  33.582  20.179  12.423
23817W        W96132  41.467   3.382   0.754
23818W        W96133  43.482  38.968  14.304
23819W        W96134  34.547   6.282   3.732
23820W        W96135   0.853  35.485   2.215
23821W        W96136  25.487   9.811  12.518
23822W        W96137  34.074   3.848   2.666
23823W        W96138  23.538  14.718   1.310
23824W        W96139  27.005   6.303   3.279
23825W        W96140  39.030   2.340   0.297
23826W        W96141   2.902  40.820  11.858
23827W        W96142  33.381   7.819   0.384
23828W        W96143  39.916  28.451   4.811
23829W        W96144  40.971   3.295  13.002
23830W        W96145   7.323  20.659  11.083
23831W        W96146   9.232   4.793  10.484
23832W        W96147  30.416   5.791   1.265
23833W        W96148  27.125  12.801   2.181
23834W        W96149  26.462   5.723  14.888
23835W        W96150   7.781  11.634  10.974
23836W        W96151  14.661  25.626  14.848
23837W        W96152   5.807  30.558  14.398
23838W        W96153   6.298   1.247   2.825
23839W        W96154  36.511  22.047   0.371
23840W        W96155   0.883  30.136  11.078
23841W        W96156   4.812   9.355  14.805
23842W        W96157  22.187  27.059   4.681
23843W        W96158  35.556  17.125  10.490
23844W        W96159  12.692  12.615   4.198
23845W        W96160  21.161  19.616   4.298
23846W        W96161   9.860  12.172  12.032
23847W        W96162  43.891  18.664   3.632
23848W        W96163  22.569  10.378   4.155
23849W        W96164  20.710  39.316  14.396
23850W        W96165  21.216  41.839   3.189
23851W        W96166  32.016  12.644   1.247
23852W        W96167   9.206  16.671   0.384
23853W        W96168   6.727  12.733   1.218
23854W        W96169   0.339   8.662  10.957
23855W        W96170  31.097   5.244   1.926
23856W        W96171  39.859  40.428  13.011
23857W        W96172   9.645  15.119   1.844
23858W        W96173  29.599  44.364  14.355
23859W        W96174  32.564  34.584   2.730
23860W        W96175  27.677  42.406   4.267
23861W        W96176   3.787   5.336   0.348
23862W        W96177   4.871   2.449  12.924
23863W        W96178  22.187  11.793  11.090
23864W        W96179   1.914  26.590  13.345
23865W        W96180  24.603   8.826   1.335
23866W        W96181   7.236   5.829   3.378
23867W        W96182  21.729  34.409  11.010
23868W        W96183   7.854   0.975  12.919
23869W        W96184  31.137  26.036   1.284
23870W        W96185  10.753  43.006  13.436
23871W        W96186  10.726  19.728   2.389
23872W        W96187   4.840  29.572  12.389
23873W        W96188  27.106  23.100  11.465
23874W        W96189  40.323  19.646   1.833
23875W        W96190  12.795   0.375  12.514
23876W        W96191  12.178   6.214   3.651
23877W        W96192  34.028  15.118  11.480
23878W        W96193   4.904   5.928  11.521
23879W        W96194   4.744  26.008  11.053
23880W        W96195  43.792  14.755   0.911
23881W        W96196   3.318  11.373  12.056
23882W        W96197  42.896  28.006  10.561
23883W        W96198  36.397  10.241  10.489
23884W        W96199  32.432  10.816   3.202
23885W        W96200  12.256  35.602   2.746
23886W        W96201  37.982  11.364  12.345
23887W        W96202  10.764   1.390  14.852
23888W        W96203  36.492  18.086   3.869
23889W        W96204  21.656   3.953   3.641
23890W        W96205  10.691  13.299   3.249
23891W        W96206  11.668  10.246   0.251
23892W        W96207   3.956  19.102   2.214
23893W        W96208  12.229   4.742   2.278
23894W        W96209  22.551  13.821  14.850
23895W        W96210  32.499  26.510  14.857
23896W        W96211   3.803  21.230  10.537
23897W        W96212  38.527  32.076   3.869
23898W        W96213  19.264  26.582  11.509
23899W        W96214   2.434   1.830   0.803
23900W        W96215  26.467  37.908  14.773
23901W        W96216  29.482   9.272   0.298
23902W        W96217  34.604  19.182  12.019
23903W        W96218  29.498   7.201  11.111
23904W        W96219   9.768  24.484  10.485
23905W        W96220  14.619  24.571  14.961
23906W        W96221  33.426  20.735  11.507
23907W        W96222  18.603  37.407  14.283
23908W        W96223  36.413  28.601   0.387
23909W        W96224   3.766  31.056  10.974
23910W        W96225   9.825  21.710  14.448
23911W        W96226  34.516  14.306  12.430
23912W        W96227  25.579  17.201   2.219
23913W        W96228  44.314  35.995   0.453
23914W        W96229  40.514  44.005   3.630
23915W        W96230  11.680  24.032   1.392
23916W        W96231  17.627  27.554  12.915
23917W        W96232   0.818  18.056  11.065
23918W        W96233  34.032  21.089   2.847
23919W        W96234  32.925  13.195  14.342
23920W        W96235  13.150  10.689  14.477
23921W        W96236  11.814   4.911  14.853
23922W        W96237  32.082  39.007   3.347
23923W        W96238  32.065  38.934  10.499
23924W        W96239  24.635  28.934  10.466
23925W        W96240  34.562  37.465  14.483
23926W        W96241  24.651  20.653  14.030
23927W        W96242  18.595   6.708   2.279
23928W        W96243  44.931  20.558  12.990
23929W        W96244  30.152   8.826   0.962
23930W        W96245  38.896  24.193   4.173
23931W        W96246  18.257  11.334  11.431
23932W        W96247  17.766  24.510   0.287
23933W        W96248  15.117  28.522  13.373
23934W        W96249  28.451  41.950   4.260
23935W        W96250  21.157   8.292  12.867
23936W        W96251  29.131   1.893   2.295
23937W        W96252  23.513  41.997   0.272
23938W        W96253  26.163   3.434   9.966
23939W        W96254  19.224   4.733   0.322
23940W        W96255  13.764  38.049  13.380
23941W        W96256   3.888  18.571  11.583
23942W        W96257   9.710   0.484  12.092
23943W        W96258  36.566  41.795   2.417
23944W        W96259  12.361   3.270   1.222
23945W        W96260  18.207  41.345   5.286
23946W        W96261   6.853  25.202  13.492
23947W        W96262  40.889  36.567  14.493
23948W        W96263  18.752   9.372  11.597
23949W        W96264  23.115  12.262   3.364
23950W        W96265  38.825  22.608   3.754
23951W        W96266  15.738  29.965  14.858
23952W        W96267  22.176  24.113  14.908
23953W        W96268  33.944  18.158   0.775
23954W        W96269  32.904   2.379   3.706
23955W        W96270  29.512  41.302  13.508
23956W        W96271  10.295  40.967   3.330
23957W        W96272   3.897  43.983   3.632
23958W        W96273  16.659  27.985   3.242
23959W        W96274  28.104  16.807   4.682
23960W        W96275  40.343  26.102   1.727
23961W        W96276  26.606  43.893   3.756
23962W        W96277  35.492  15.304   4.807
23963W        W96278   0.489  36.410  11.394
23964W        W96279   0.417   2.246   2.319
23965W        W96280  30.932   6.780  12.894
23966W        W96281  34.510  16.666  14.412
23967W        W96282  25.032  28.175   2.679
23968W        W96283   6.689   5.850  11.565
23969W        W96284  18.719  20.091  12.023
23970W        W96285   3.298  25.097   2.735
23971W        W96286  36.096   3.936   4.801
23972W        W96287  11.847  26.111  13.915
23973W        W96288  27.592  11.271  13.427
23974W        W96289  38.517  14.621  11.069
23975W        W96290  15.779  35.989   4.344
23976W        W96291  24.977  31.623   0.732
23977W        W96292  14.145  25.541  13.889
23978W        W96293  41.524  40.928  11.417
23979W        W96294  11.186  38.053  13.539
23980W        W96295   9.152  42.843  10.523
23981W        W96296  17.169  23.686   2.746
23982W        W96297  27.025  33.394  12.429
23983W        W96298  18.646  33.945  12.885
23984W        W96299  38.012  18.610   3.238
23985W        W96300  13.606  13.776   1.789
23986W        W96301  31.030  21.561   1.228
23987W        W96302   3.382  10.226  11.476
23988W        W96303  16.675  23.232   4.156
23989W        W96304  15.688  17.232   0.938
23990W        W96305   4.228  13.733  13.802
23991W        W96306  40.967  36.938   4.608
23992W        W96307  31.962  24.508   1.262
23993W        W96308  24.209   6.834   0.770
23994W        W96309  41.820  22.520   2.785
23995W        W96310  38.919   2.741   2.747
23996W        W96311  24.163  44.930   0.781
23997W        W96312   1.903  42.961   1.340
23998W        W96313  24.662  14.593  10.449
23999W        W96314  20.259  11.757   1.369
24000W        W96315  17.249   5.839   0.339
24001W        W96316  37.540   4.826   2.873
24002W        W96317  14.171  21.135   2.701
24003W        W96318  18.120  15.281  12.355
24004W        W96319  15.630   0.827  10.944
24005W        W96320  30.973  27.481  12.470
24006W        W96321  11.668  36.965   1.286
24007W        W96322  21.538  39.989  12.943
24008W        W96323  18.677  26.668  12.962
24009W        W96324  30.640  28.485   2.397
24010W        W96325   9.651  38.372  14.011
24011W        W96326  12.323  33.603   3.717
24012W        W96327  14.138  30.060  14.897
24013W        W96328  14.300   8.182  11.122
24014W        W96329  15.118  39.411   4.338
24015W        W96330  17.706   2.429   2.383
24016W        W96331   3.954  23.131  13.002
24017W        W96332   6.865  21.589   1.221
24018W        W96333   6.782  23.121   3.756
24019W        W96334  16.762  39.428  10.483
24020W        W96335  12.230  20.758  14.844
24021W        W96336  22.015   0.314   2.419
24022W        W96337  27.097  42.886   3.291
24023W        W96338  20.208  42.470   0.758
24024W        W96339   7.197  44.410   0.939
24025W        W96340  13.111  26.634  12.007
24026W        W96341  18.605  28.562  12.937
24027W        W96342  23.098  28.944   3.232
24028W        W96343  23.232   3.353  13.323
24029W        W96344  19.224   0.824  14.286
24030W        W96345  23.024  37.855   0.280
24031W        W96346  32.430  35.899  14.455
24032W        W96347  32.423   8.802   3.367
24033W        W96348   4.720  43.780  14.460
24034W        W96349  34.962   4.720  14.497
24035W        W96350   5.825  13.687   3.169
24036W        W96351  21.244  36.380   3.690
24037W        W96352   0.921  34.880  13.417
24038W        W96353  41.904   2.899   4.748
24039W        W96354  13.807  23.120  11.005
24040W        W96355   6.189   4.918   0.833
24041W        W96356  40.378  40.805   0.432
24042W        W96357  11.723  33.595  12.872
24043W        W96358   8.720   1.383  11.393
24044W        W96359  22.099  31.489   1.267
24045W        W96360  36.843  23.988  11.484
24046W        W96361  27.040  38.820  13.956
24047W        W96362  10.168   6.717  12.428
24048W        W96363   6.263  21.059  13.881
24049W        W96364  43.499  22.079   4.172
24050W        W96365  39.978  34.057  10.910
24051W        W96366  40.954  31.529   0.366
24052W        W96367  25.139   1.858  12.567
24053W        W96368  23.501   0.948  11.048
24054W        W96369   3.325  30.545  14.944
24055W        W96370  10.147  23.512  11.092
24056W        W96371  29.925  20.623   3.380
24057W        W96372  37.434  32.618   3.210
24058W        W96373  26.584  20.699  11.925
24059W        W96374  31.154  36.573   3.671
24060W        W96375  16.580  34.968  13.442
24061W        W96376   1.237  42.403   0.448
24062W        W96377  41.311  21.535   0.371
24063W        W96378  23.648  19.590  11.502
24064W        W96379  32.445  39.337  12.980
24065W        W96380   5.227  40.958   0.833
24066W        W96381  17.676   8.691   0.368
24067W        W96382  25.520   2.236  10.560
24068W        W96383  22.124  30.474   2.830
24069W        W96384  30.650  11.644   5.110
24070W        W96385  30.653   8.391  10.969
24071W        W96386  35.000  24.513  11.032
24072W        W96387  15.109  27.048   1.405
24073W        W96388  32.067  39.920   2.326
24074W        W96389  31.909  40.798   1.242
24075W        W96390  30.006  16.713  13.932
24076W        W96391   1.873  43.414  11.413
24077W        W96392  31.937  24.196   2.309
24078W        W96393  37.554  27.466  11.600
24079W        W96394  40.887  25.473   1.902
24080W        W96395  36.923  19.569  13.343
24081W        W96396  41.939  29.089   2.285
24082W        W96397  12.327  43.361  11.445
24083W        W96398  39.959  31.644   3.756
24084W        W96399   2.750  19.765   0.860
24085W        W96400  33.916  30.918   2.740
24086W        W96401  10.875  26.169   3.834
24087W        W96402  40.315  20.142   1.878
24088W        W96403  20.144  12.662  13.476
24089W        W96404  10.829  22.146   0.426
24090W        W96405   9.865  41.385  11.893
24091W        W96406  22.097  32.088   2.871
24092W        W96407  42.009  33.457  12.403
24093W        W96408  28.484   5.314  11.973
24094W        W96409  17.608  27.955   3.268
24095W        W96410   2.899  39.851   3.329
24096W        W96411   0.804  23.112  14.442
24097W        W96412   0.855  13.280  11.051
24098W        W96413   7.274  41.372  13.422
24099W        W96414  33.025  36.546  11.968
24100W        W96415   6.719  14.309  12.482
24101W        W96416   3.399   8.894   3.374
24102W        W96417   7.769   5.708  12.077
24103W        W96418  44.311  37.067   0.891
24104W        W96419   3.393   5.836  13.320
24105W        W96420  40.803   0.946   1.300
24106W        W96421  32.142  23.616  10.934
24107W        W96422   2.753  26.154   3.206
24108W        W96423  14.197  44.485  12.919
24109W        W96424  21.093  28.046  11.888
24110W        W96425  15.122  29.617  14.998
24111W        W96426  30.577  17.190  13.412
24112W        W96427  22.209  44.334   2.259
24113W        W96428  29.924  23.658  10.591
24114W        W96429  33.417  39.442  13.008
24115W        W96430  13.259  27.961   4.679
24116W        W96431  11.750  38.870   4.728
24117W        W96432   5.202  23.560  14.842
24118W        W96433  15.249  44.389  12.416
24119W        W96434  21.571  31.585   3.197
24120W        W96435  43.975  35.468  14.480
24121W        W96436  37.944  12.276   3.238
24122W        W96437   1.963  14.630  11.582
24123W        W96438  20.223  37.903   1.315
24124W        W96439  35.376  41.476  11.015
24125W        W96440  41.962  42.380   1.796
24126W        W96441   4.942  28.930   3.852
24127W        W96442  11.350   6.392   4.803
24128W        W96443  41.299  22.646  13.867
24129W        W96444  39.474   5.333  10.998
24130W        W96445  14.692  26.956   4.291
24131W        W96446  42.794   6.710  11.011
24132W        W96447   6.902  30.983  12.554
24133W        W96448  20.634  18.692  14.015
24134W        W96449   0.372  14.699  12.573
24135W        W96450   1.308  18.693  12.969
24136W        W96451  40.361  26.965  14.293
24137W        W96452  12.138  42.821   1.891
24138W        W96453  29.626  40.890  11.940
24139W        W96454  35.490  23.721   1.239
24140W        W96455  34.037  16.698   3.717
24141W        W96456   0.857  24.687   4.175
24142W        W96457   3.804   8.810  13.052
24143W        W96458  26.075  40.844  13.377
24144W        W96459  29.599  33.624   3.735
24145W        W96460  18.758  30.576  10.634
24146W        W96461  26.685  26.631  14.920
24147W        W96462  33.537  28.031   1.258
24148W        W96463  41.936  32.033  11.470
24149W        W96464   4.832  13.824   4.630
24150W        W96465   4.741  28.590  11.099
24151W        W96466  14.733  27.602  12.824
24152W        W96467  13.710  33.550   3.808
24153W        W96468  41.360  36.409   4.223
24154W        W96469  36.353  38.333  12.940
24155W        W96470   6.348  13.709  13.960
24156W        W96471   3.281  19.752  13.525
24157W        W96472  31.930   0.451  10.554
24158W        W96473   3.776  35.914   3.801
24159W        W96474   4.285  16.605  14.298
24160W        W96475  30.560   2.817  12.860
24161W        W96476  18.237  18.214  14.322
24162W        W96477  23.023  30.487  11.588
24163W        W96478   8.312  29.630  11.372
24164W        W96479  23.093  29.490   4.778
24165W        W96480  23.695  23.690  13.399
24166W        W96481  42.788  40.358   2.887
24167W        W96482  38.056  17.120   4.177
24168W        W96483   1.948  10.826   2.233
24169W        W96484   1.426  19.686  11.494
24170W        W96485  16.798  10.380   3.732
24171W        W96486  31.001  22.653   1.354
24172W        W96487  41.436  42.379  14.933
24173W        W96488  14.615  18.184   2.680
24174W        W96489  29.953  25.093  10.434
24175W        W96490  20.211  21.018  13.541
24176W        W96491   2.404  26.673   2.744
24177W        W96492   1.461  30.449  14.282
24178W        W96493  30.056  28.480   2.363
24179W        W96494  29.548   0.321  13.516
24180W        W96495   0.432  28.574   2.388
24181W        W96496  35.449  29.562   3.312
24182W        W96497  15.218  32.931   0.458
24183W        W96498  35.964   0.785   2.847
24184W        W96499  10.215   4.797  14.340
24185W        W96500  31.575  24.079   3.817
24186W        W96501   0.468   1.741  11.497
24187W        W96502  44.295  31.559  13.965
24188W        W96503  17.575  12.252  12.487
24189W        W96504  19.122  40.872   9.574
24190W        W96505  30.922  33.626  14.400
24191W        W96506  21.118   3.373   9.965
24192W        W96507  15.304   8.822  14.380
24193W        W96508  26.628  32.492   3.171
24194W        W96509  11.855  20.118   2.210
24195W        W96510  23.217  28.127   0.312
24196W        W96511  15.708  41.380   1.344
24197W        W96512  37.068  21.653   3.347
24198W        W96513  34.088  13.131   2.769
24199W        W96514  39.947  43.995   3.852
24200W        W96515  23.534  43.437  11.995
24201W        W96516  29.667  44.812  13.327
24202W        W96517  22.507  39.558  14.766
24203W        W96518  33.030  26.155   2.850
24204W        W96519  21.540  41.944   3.333
24205W        W96520  13.765   6.702  13.833
24206W        W96521  39.513  18.677   1.395
24207W        W96522  42.332  22.581  12.001
24208W        W96523  30.422   7.723   0.448
24209W        W96524  22.137  22.199   3.155
24210W        W96525   3.242  22.682   5.180
24211W        W96526  11.252  28.082   1.919
24212W        W96527  30.511   4.944   2.798
24213W        W96528  39.466  33.563  11.083
24214W        W96529  29.024  35.472  12.927
24215W        W96530  14.599  40.008   3.796
24216W        W96531   5.800  11.645   0.257
24217W        W96532   5.783  36.440  14.971
24218W        W96533  17.711  40.428   5.146
24219W        W96534  14.282  40.540   2.392
24220W        W96535  39.888  12.333   3.233
24221W        W96536   2.426  11.627   4.163
24222W        W96537  25.970  35.526  11.059
24223W        W96538   7.259  40.050  12.475
24224W        W96539  24.582  23.563  11.020
24225W        W96540  21.040   4.253  12.918
24226W        W96541  41.831  34.941   2.864
24227W        W96542  13.746  31.577   0.803
24228W        W96543  22.689  44.782   4.334
24229W        W96544  36.490  27.483   3.681
24230W        W96545   5.923  27.491  14.357
24231W        W96546  16.137  32.970  10.561
24232W        W96547  22.112  41.481   1.826
24233W        W96548  26.018   9.750  11.981
24234W        W96549  29.468   9.222   4.221
24235W        W96550  28.531  17.164  10.961
24236W        W96551   8.698  30.141  14.787
24237W        W96552  36.399   2.359   0.323
24238W        W96553  41.843  11.720   1.815
24239W        W96554  36.845  12.758   1.824
24240W        W96555  30.046   0.864  13.044
24241W        W96556  40.047  29.477   4.267
24242W        W96557  36.369  29.976   1.417
24243W        W96558  21.201  29.581   1.920
24244W        W96559  34.613  30.055  12.566
24245W        W96560  13.830  17.631   2.890
24246W        W96561  24.509  19.759   1.363
24247W        W96562  24.613  32.428  10.583
24248W        W96563  43.996  22.538   0.342
24249W        W96564  16.301  38.834   4.644
24250W        W96565   5.427   9.652  10.615
24251W        W96566  27.481   0.461   4.681
24252W        W96567  30.130  33.019  10.490
24253W        W96568  25.082   2.731  13.410
24254W        W96569   6.810   7.902  12.958
24255W        W96570  16.311  21.099   1.802
24256W        W96571   7.833  44.944   4.614
24257W        W96572  35.060  28.099   1.352
24258W        W96573  29.035  10.742   1.797
24259W        W96574  11.713  21.578  10.901
24260W        W96575  36.058  43.344  13.908
24261W        W96576  32.432  35.405  14.357
24262W        W96577   0.775  41.384   3.147
24263W        W96578  22.083   9.353   1.261
24264W        W96579  21.236  38.842   4.263
24265W        W96580  10.708   7.744   2.348
24266W        W96581  20.696  28.610  14.514
24267W        W96582  30.026  19.283  13.470
24268W        W96583   8.702  43.271   1.419
24269W        W96584  39.827  44.994  12.356
24270W        W96585  33.131  38.475  11.085
24271W        W96586  10.348  29.638   0.828
24272W        W96587  39.854  30.095   4.291
24273W        W96588  34.464  11.715   0.910
24274W        W96589  16.253  22.610   9.995
24275W        W96590  11.337  43.813   0.892
24276W        W96591   5.378  21.539   0.251
24277W        W96592  32.958  29.492   0.920
24278W        W96593   7.289  15.824   3.728
24279W        W96594  43.886  44.802  12.002
24280W        W96595  12.269   7.388  14.783
24281W        W96596   5.212  13.211  14.025
24282W        W96597   4.420  41.812  13.402
24283W        W96598   6.853  40.437  10.566
24284W        W96599  23.146  15.262  14.976
24285W        W96600  37.073  26.510   0.291
24286W        W96601  23.119  42.288  12.901
24287W        W96602   9.748  44.935   3.188
24288W        W96603   7.273  14.639  10.453
24289W        W96604  24.616  24.666  12.385
24290W        W96605  16.122   6.377  10.448
24291W        W96606  44.951  28.493  11.860
24292W        W96607  11.729   0.794  13.419
24293W        W96608  32.945   6.241  13.320
24294W        W96609  29.111  39.999  12.845
24295W        W96610  32.532  43.835   1.210
24296W        W96611  12.126   0.275  11.926
24297W        W96612  41.027  28.963   1.384
24298W        W96613  35.863   1.922   2.757
24299W        W96614   3.892  11.303   4.628
24300W        W96615   9.232  29.099  13.453
24301W        W96616  14.636  36.853   3.267
24302W        W96617  23.162  33.905   1.444
24303W        W96618  38.526  39.386   3.739
24304W        W96619  21.596  44.930  14.003
24305W        W96620  11.307  34.912  11.559
24306W        W96621  14.248   1.953   4.307
24307W        W96622  29.464   5.193   3.313
24308W        W96623  18.218   2.320   0.359
24309W        W96624  32.422  43.771   4.622
24310W        W96625  30.937  17.781  13.810
24311W        W96626  11.678  38.541  10.611
24312W        W96627   6.301  36.478   2.210
24313W        W96628  12.764  30.485   4.838
24314W        W96629  31.041  41.902   0.404
24315W        W96630  42.423  31.093  11.102
24316W        W96631  32.546  17.078  14.941
24317W        W96632   8.160  31.934   1.379
24318W        W96633  30.963  22.086   4.756
24319W        W96634  37.862  26.010   3.214
24320W        W96635  12.340  40.880   4.604
24321W        W96636  10.290   9.318   1.393
24322W        W96637   4.333  11.827   4.230
24323W        W96638  16.595  20.065  10.637
24324W        W96639  12.801  13.201   0.368
24325W        W96640   9.315  28.934   0.729
24326W        W96641   6.412   3.428  10.425
24327W        W96642  24.221   0.929   0.845
24328W        W96643   9.389  44.282   4.599
24329W        W96644  44.477  12.640   5.267
24330W        W96645  20.711   2.402   3.643
24331W        W96646   5.417   9.375   2.693
24332W        W96647  33.454  15.583   5.132
24333W        W96648  39.935  35.482   3.380
24334W        W96649  29.124  42.965   0.848
24335W        W96650  35.587  25.564   2.239
24336W        W96651  35.465  19.731  14.323
24337W        W96652  28.488  21.024  12.847
24338W        W96653  33.110  33.055  13.057
24339W        W96654   2.748  15.134   3.844
24340W        W96655  12.301  42.292   2.835
24341W        W96656  14.656  26.537  11.439
24342W        W96657  11.200   6.260  11.006
24343W        W96658   4.308   3.730  10.609
24344W        W96659  40.484   6.759  14.303
24345W        W96660  39.045  32.450   3.355
24346W        W96661  43.883  25.131  13.362
24347W        W96662  36.379  12.771   2.756
24348W        W96663  32.459  42.877  14.942
24349W        W96664   1.448  43.806  12.501
24350W        W96665  13.622  18.586   3.727
24351W        W96666  44.328  17.109   2.897
24352W        W96667  24.983  33.535   2.676
24353W        W96668  33.999  14.103  14.023
24354W        W96669   6.336  23.587  12.500
24355W        W96670  24.704   0.782  11.491
24356W        W96671  30.634  20.166  13.808
24357W        W96672  13.161  23.563  14.457
24358W        W96673   4.703  14.825   2.770
24359W        W96674  19.158   1.334  13.859
24360W        W96675  33.893   7.676  14.414
24361W        W96676  38.048  31.998   2.877
24362W        W96677   2.458   6.798   3.384
24363W        W96678  30.934  39.452  14.833
24364W        W96679   0.313  26.699  10.970
24365W        W96680  41.295  32.024   0.304
24366W        W96681   0.758  44.432   2.866
24367W        W96682  21.234   9.876   3.369
24368W        W96683  14.217  37.962   4.799
24369W        W96684  44.461  27.121   2.292
24370W        W96685  18.610  42.025  10.568
24371W        W96686  24.053   6.182  13.931
24372W        W96687  21.110  44.781   4.339
24373W        W96688  23.052  22.527   1.735
24374W        W96689  18.222  37.571  14.981
24375W        W96690  16.228  25.691   2.346
24376W        W96691  22.140  43.953   0.748
24377W        W96692  39.912   0.971  12.913
24378W        W96693  18.705  22.550   5.292
24379W        W96694  10.866  42.486  13.410
24380W        W96695   4.414  27.978   2.872
24381W        W96696  35.554  42.933  12.848
24382W        W96697   6.895  11.710  12.870
24383W        W96698  22.044  20.028   3.810
24384W        W96699  20.572   3.225   4.273
24385W        W96700  16.680  18.597   4.201
24386W        W96701  14.667   0.250   2.843
24387W        W96702  22.117  36.930   1.930
24388W        W96703  26.043  37.561  14.342
24389W        W96704  41.815  20.718  13.954
24390W        W96705  28.084  24.576  12.412
24391W        W96706   4.398  20.237  10.605
24392W        W96707   2.313  34.420   2.822
24393W        W96708  20.255   3.787  12.894
24394W        W96709  21.204  17.692  12.424
24395W        W96710  26.955   0.432  13.799
24396W        W96711  13.643  29.999  11.918
24397W        W96712  21.242  38.983  10.953
24398W        W96713  27.031  44.779  11.599
24399W        W96714  42.297  23.548   1.788
24400W        W96715  22.179  36.053   1.701
24401W        W96716   6.267  31.090  11.863
24402W        W96717  11.169   3.762   0.471
24403W        W96718  25.496   8.889  10.061
24404W        W96719  19.762  40.871   2.806
24405W        W96720  39.407  27.596   3.831
24406W        W96721   2.741   7.821   4.132
24407W        W96722   7.292  35.482   2.302
24408W        W96723  21.718  21.071   0.370
24409W        W96724  34.397  37.517   2.297
24410W        W96725  16.101  37.831  13.036
24411W        W96726  15.171  29.921   1.720
24412W        W96727  41.004  41.383  13.951
24413W        W96728   1.384  15.315   0.892
24414W        W96729  31.635   9.395   1.713
24415W        W96730  39.372   6.266   3.791
24416W        W96731  23.069  22.613   4.697
24417W        W96732   0.795  38.892   2.293
24418W        W96733  20.556  29.638   4.764
24419W        W96734   2.745  18.618  11.868
24420W        W96735  36.480  41.518   2.267
24421W        W96736  30.002  14.638  12.560
24422W        W96737   2.459  38.524  11.110
24423W        W96738   5.425   8.330   3.686
24424W        W96739   3.862   6.379  13.877
24425W        W96740  43.446   3.284   4.629
24426W        W96741  31.024  40.015  10.134
24427W        W96742  16.298  17.583  11.858
24428W        W96743   6.339  16.311  14.352
24429W        W96744  24.677  31.472   2.685
24430W        W96745   7.267  17.555   2.902
24431W        W96746  24.535  22.023   2.696
24432W        W96747  43.879   1.914  11.588
24433W        W96748  20.244   4.319  13.458
24434W        W96749  24.091  39.858  13.461
24435W        W96750  39.886  31.596   1.930
24436W        W96751  19.698  23.165   2.795
24437W        W96752  41.517  41.870   2.379
24438W        W96753  33.987  17.113   0.445
24439W        W96754  30.132  32.486   2.286
24440W        W96755  37.912  31.436   0.726
24441W        W96756  31.546   5.846  11.122
24442W        W96757   3.233  39.034   4.710
24443W        W96758  40.817  31.982   1.321
24444W        W96759  12.286   4.731   3.683
24445W        W96760  11.761  13.152   2.892
24446W        W96761   5.235  34.570  13.490
24447W        W96762  23.574  41.443   2.201
24448W        W96763   7.288  32.935  13.963
24449W        W96764  42.450  27.063   3.699
24450W        W96765  16.187  22.643  14.992
24451W        W96766  13.161  23.581  10.544
24452W        W96767   3.430  40.521  14.501
24453W        W96768  43.771  34.418   1.883
24454W        W96769  11.753  41.810   1.740
24455W        W96770  35.411   5.305  13.935
24456W        W96771  14.164  41.918  12.340
24457W        W96772  27.601   2.332   3.871
24458W        W96773  24.603  24.123  12.987
24459W        W96774  21.103  25.578   2.358
24460W        W96775  42.972  37.881   2.339
24461W        W96776  33.884   4.226  11.949
24462W        W96777  28.549  19.595  14.314
24463W        W96778  12.695  35.903  13.350
24464W        W96779  44.351  38.452   0.328
24465W        W96780  14.254  12.229  11.952
24466W        W96781  16.653  11.329  11.005
24467W        W96782  18.060   9.707  11.483
24468W        W96783  15.818  15.295  13.857
24469W        W96784   3.224  23.676   3.293
24470W        W96785  23.144  34.423  13.803
24471W        W96786  10.252  16.579  11.391
24472W        W96787  15.120  18.064  14.468
24473W        W96788  13.702  38.470   0.343
24474W        W96789  34.472   1.974   4.766
24475W        W96790  27.467   0.444  13.463
24476W        W96791  26.512  19.219  10.412
24477W        W96792  44.410  11.826  11.567
24478W        W96793   8.248  36.933   4.241
24479W        W96794   9.339  12.813  10.155
24480W        W96795  13.605   2.435   4.195
24481W        W96796   7.824  40.428   5.130
24482W        W96797  35.912  19.195  12.391
24483W        W96798  23.524  31.063   2.192
24484W        W96799  28.972  15.104   3.244
24485W        W96800   1.266  17.769   4.697
24486W        W96801  19.627  19.188  13.532
24487W        W96802  23.091  35.581  12.025
24488W        W96803   0.966  20.256   1.767
24489W        W96804  24.614   9.151   3.631
24490W        W96805   8.381   4.790  11.859
24491W        W96806   6.260  18.600   1.445
24492W        W96807  25.534  16.262   3.375
24493W        W96808  20.653  14.116  14.977
24494W        W96809   9.752   3.223   4.300
24495W        W96810  29.962  12.848   0.421
24496W        W96811  37.865  35.471  10.965
24497W        W96812  16.127  39.415   1.450
24498W        W96813   9.153  12.744  12.568
24499W        W96814  13.185  41.409  12.511
24500W        W96815  16.233  21.088  11.964
24501W        W96816  21.643  36.465  11.987
24502W        W96817  32.558   3.724   3.630
24503W        W96818  19.216  28.668  14.849
24504W        W96819  36.899   0.752  10.565
24505W        W96820  36.353  39.905  11.962
24506W        W96821  37.559  41.500   4.303
24507W        W96822   2.869  15.740  14.970
24508W        W96823  35.042   4.725   3.790
24509W        W96824  35.946  40.528   4.783
24510W        W96825  38.953  14.224   0.924
24511W        W96826   8.692  22.115  12.469
24512W        W96827  17.193   2.758   3.866
24513W        W96828  11.263  31.929   2.694
24514W        W96829  38.375  40.900  11.124
24515W        W96830  17.791  17.197  10.444
24516W        W96831  34.890   5.785   3.339
24517W        W96832   9.653  36.918   2.855
24518W        W96833  24.538   9.272  11.889
24519W        W96834  30.496   9.843  10.982
24520W        W96835   3.440  22.512  13.418
24521W        W96836   4.355  39.332   0.902
24522W        W96837  13.304  17.079  11.551
24523W        W96838  31.492  28.981  14.305
24524W        W96839  41.384  15.271  11.865
24525W        W96840  34.578  16.312   4.296
24526W        W96841   7.195  43.896  14.408
24527W        W96842   6.315  22.171   3.630
24528W        W96843  32.405   1.291   0.871
24529W        W96844  39.934  22.591  13.855
24530W        W96845  18.565  13.199  14.322
24531W        W96846   5.701  44.770   1.709
24532W        W96847  44.316  32.497  11.962
24533W        W96848  10.188  38.452  10.556
24534W        W96849  44.936  23.612   0.929
24535W        W96850  17.623  24.583   3.358
24536W        W96851  17.177   9.745  13.037
24537W        W96852  43.953  20.569  12.531
24538W        W96853  22.138   6.809   0.807
24539W        W96854  13.306  29.002  10.436
24540W        W96855  41.533  40.352  13.499
24541W        W96856  10.196  13.703   4.163
24542W        W96857  25.994  35.970   4.626
24543W        W96858  27.490   0.278   1.852
24544W        W96859  30.111   8.344   0.832
24545W        W96860   4.719  32.965  13.505
24546W        W96861   1.405  39.020   4.234
24547W        W96862   2.729  26.113   0.418
24548W        W96863  36.030  30.000  13.862
24549W        W96864   6.855  42.838  12.887
24550W        W96865  18.618  44.262   5.256
24551W        W96866  12.273   4.730  14.362
24552W        W96867   4.850  34.901   3.186
24553W        W96868  23.078  17.625  13.920
24554W        W96869  36.367  16.651   3.340
24555W        W96870   7.369   4.870  14.951
24556W        W96871  20.131  43.501   0.358
24557W        W96872  21.607  30.609  12.005
24558W        W96873   9.313  33.003   4.166
24559W        W96874  19.174   4.875  10.607
24560W        W96875  30.507  12.615   1.856
24561W        W96876  20.214   3.851  11.452
24562W        W96877  20.652   2.393   3.234
24563W        W96878  13.324  13.810  14.931
24564W        W96879   8.836  43.465  12.435
24565W        W96880  11.213  12.746   0.873
24566W        W96881  44.902  34.074  10.437
24567W        W96882  29.565  30.445   2.691
24568W        W96883  22.711   7.881   2.369
24569W        W96884  23.617   5.819  14.970
24570W        W96885  15.703  36.880   1.399
24571W        W96886  23.061  21.707  11.060
24572W        W96887  16.187  26.465  12.393
24573W        W96888  23.181   4.704   1.887
24574W        W96889   5.832  26.035   2.747
24575W        W96890  17.296  20.668  12.421
24576W        W96891  26.527  27.170   2.214
24577W        W96892  10.278   7.855   3.373
24578W        W96893  41.422  30.603  14.495
24579W        W96894  23.675  38.418   4.636
24580W        W96895  19.564  29.615  13.415
24581W        W96896  25.058  10.255   4.225
24582W        W96897   2.914  15.248  12.911
24583W        W96898   1.943  13.204   0.966
24584W        W96899  41.920  34.914  12.580
24585W        W96900  27.136  14.119   9.928
24586W        W96901   8.887  12.697  14.766
24587W        W96902   3.234  18.134  11.110
24588W        W96903  31.584  29.106   0.839
24589W        W96904  22.505  25.571   3.787
24590W        W96905   8.229  12.849   4.601
24591W        W96906  41.833   8.899  12.069
24592W        W96907  37.912  24.652  11.395
24593W        W96908   5.764  12.641  11.118
24594W        W96909  12.855  25.485  13.921
24595W        W96910   0.934  41.853  13.842
24596W        W96911  19.539  25.133  13.416
24597W        W96912  44.821  35.911  13.853
24598W        W96913  17.080  35.063   0.967
24599W        W96914  28.609  10.761  14.977
24600W        W96915  19.559  17.643  10.611
24601W        W96916   7.862   9.270   3.179
24602W        W96917  11.679  38.433   0.478
24603W        W96918   2.847  29.644   0.955
24604W        W96919  41.941  20.068   2.374
24605W        W96920  10.154  41.924  13.991
24606W        W96921  24.532   1.474  11.883
24607W        W96922  34.376   7.257  12.459
24608W        W96923   3.918  30.969  14.924
24609W        W96924  43.454  12.285   2.254
24610W        W96925  43.502  41.465   0.380
24611W        W96926  28.618  17.800  11.458
24612W        W96927   6.194  39.814  11.449
24613W        W96928  13.795  11.257  12.348
24614W        W96929  31.530  42.836  14.392
24615W        W96930  27.132   1.397  13.881
24616W        W96931  19.084  16.671   1.855
24617W        W96932   0.943  11.348  14.948
24618W        W96933  16.693  29.465   5.144
24619W        W96934  37.935  32.431   0.818
24620W        W96935  29.449  33.526   9.953
24621W        W96936  42.387  20.262  13.485
24622W        W96937  18.148  28.442  13.883
24623W        W96938   4.782  11.685   3.210
24624W        W96939  39.888  38.511  12.579
24625W        W96940  38.543  15.673  11.869
24626W        W96941   2.290   8.703   4.734
24627W        W96942  35.516  21.620   1.869
24628W        W96943  26.612  40.875  13.823
24629W        W96944   6.417   4.422  12.384
24630W        W96945   9.889  12.682   2.864
24631W        W96946  24.549  14.724  13.943
24632W        W96947  35.538  15.611  12.415
24633W        W96948  17.229  12.767  14.405
24634W        W96949  21.520  25.604   2.742
24635W        W96950  14.591  12.342  11.546
24636W        W96951  35.925   3.878   0.447
24637W        W96952  42.508   3.275  13.980
24638W        W96953   2.256  21.677  12.880
24639W        W96954   5.348  27.168  11.080
24640W        W96955  34.399  39.544   3.222
24641W        W96956  24.671  24.157  14.974
24642W        W96957  11.273  11.339  14.926
24643W        W96958  12.686   1.461  13.819
24644W        W96959  10.779  31.106  13.532
24645W        W96960   7.752  25.584   2.204
24646W        W96961  23.061  24.685   3.814
24647W        W96962  32.582   2.838  10.589
24648W        W96963  27.466   4.357   0.778
24649W        W96964  17.775  32.132  10.530
24650W        W96965  34.057  43.404   0.298
24651W        W96966  31.430  31.951   4.175
24652W        W96967   5.799   2.252   1.235
24653W        W96968  34.498  41.803   4.147
24654W        W96969  21.604  20.036  10.551
24655W        W96970   8.699  32.918   2.750
24656W        W96971  22.667  15.316  10.526
24657W        W96972  32.594  18.237   0.864
24658W        W96973  27.567  11.327   4.830
24659W        W96974  40.049   7.852  13.013
24660W        W96975  21.715   5.808  10.985
24661W        W96976   6.763   3.743   0.292
24662W        W96977   3.817   4.718  11.449
24663W        W96978  11.277  13.241   4.148
24664W        W96979   7.791  41.322  11.106
24665W        W96980  37.891   5.418  14.473
24666W        W96981  15.188   1.242  12.462
24667W        W96982  16.223   0.437  13.510
24668W        W96983  31.995  13.666  11.903
24669W        W96984  17.601  43.783   4.262
24670W        W96985  21.216  43.997  14.927
24671W        W96986  27.962  13.734  14.473
24672W        W96987  10.695  20.710   1.792
24673W        W96988   7.752  28.120  12.550
24674W        W96989  40.475  31.047  11.079
24675W        W96990  30.602  34.370   0.474
24676W        W96991  14.616   4.378  14.403
24677W        W96992  17.210  14.751   3.781
24678W        W96993  35.001  37.049   0.851
24679W        W96994  23.088   0.320   2.751
24680W        W96995  41.366  22.027  12.049
24681W        W96996  29.548  18.077   1.714
24682W        W96997  38.413   8.690  11.549
24683W        W96998  30.976  14.166   3.249
24684W        W96999  12.636  39.439  14.911
24685W        W97000  15.246  13.719  12.499
24686W        W97001  35.995   4.247   3.837
24687W        W97002  21.152  38.055  11.063
24688W        W97003   3.349   1.928   3.320
24689W        W97004  29.438   5.784  11.944
24690W        W97005  39.027  22.161   4.295
24691W        W97006   0.849  24.192  12.840
24692W        W97007   2.348  20.080  12.875
24693W        W97008   2.263  27.653   1.916
24694W        W97009   0.422  19.758   4.744
24695W        W97010  35.503  19.052  11.005
24696W        W97011  35.385  43.938   2.718
24697W        W97012  30.499   7.330   3.778
24698W        W97013   6.201   6.263  11.584
24699W        W97014  15.736  34.870  14.986
24700W        W97015   2.410  10.767   5.262
24701W        W97016  28.587  26.003   4.298
24702W        W97017  29.651  43.966  11.505
24703W        W97018  36.456   2.872  12.047
24704W        W97019  42.983  41.376   2.856
24705W        W97020  34.942  37.469  13.918
24706W        W97021   8.358   6.775  11.994
24707W        W97022  34.036  32.049  12.379
24708W        W97023  30.441   5.322   3.365
24709W        W97024  26.635  21.053   1.350
24710W        W97025  43.506  18.599  10.889
24711W        W97026   2.742   7.864  13.355
24712W        W97027  31.533   9.758   1.899
24713W        W97028   5.907  15.751   2.230
24714W        W97029   3.909  22.072  11.893
24715W        W97030  32.432   3.878   0.286
24716W        W97031  16.736  37.367   0.729
24717W        W97032  34.991   7.318  14.398
24718W        W97033  16.179  24.201   0.769
24719W        W97034  40.316  14.198  12.381
24720W        W97035   5.422   1.321  11.409
24721W        W97036  22.202  31.416  13.045
24722W        W97037   9.889  35.951   4.273
24723W        W97038  28.006   9.742  13.945
24724W        W97039  44.443  18.137   3.841
24725W        W97040  21.155  24.143  12.034
24726W        W97041   5.700  14.307  14.951
24727W        W97042   0.910   9.156  14.305
24728W        W97043  29.655  14.670  13.842
24729W        W97044  31.133  12.220  10.574
24730W        W97045  29.461  44.394  11.607
24731W        W97046  37.937  42.415  12.346
24732W        W97047   8.817  39.018  10.612
24733W        W97048  16.072  29.499  13.952
24734W        W97049  41.345  32.927   4.621
24735W        W97050   3.385  16.691   4.608
24736W        W97051  16.702  12.779   4.604
24737W        W97052  42.022  17.104  13.339
24738W        W97053  18.183   8.300   9.444
24739W        W97054  36.593  16.762  10.469
24740W        W97055  16.192  15.798   2.412
24741W        W97056  32.135  27.448   3.673
24742W        W97057  16.776  31.531   4.226
24743W        W97058  18.104  21.095  11.986
24744W        W97059  18.285  39.547  12.048
24745W        W97060   0.959  38.963  14.294
24746W        W97061  12.304   8.335   4.318
24747W        W97062  36.933  32.949  12.467
24748W        W97063  29.596   5.741  10.102
24749W        W97064  18.785  35.989   4.744
24750W        W97065  31.598   2.344   3.720
24751W        W97066  35.019  31.950   0.761
24752W        W97067  12.818  20.547  14.867
24753W        W97068  25.542  37.896  12.478
24754W        W97069  31.991  17.207   2.867
24755W        W97070  21.170  21.653  13.852
24756W        W97071  37.537  13.808   2.716
24757W        W97072  19.229  31.539   3.734
24758W        W97073  10.746   8.858  12.396
24759W        W97074  34.550  24.482   1.326
24760W        W97075  11.734  10.677  13.525
24761W        W97076  42.811  23.028   3.239
24762W        W97077   0.792   9.294   0.399
24763W        W97078  17.799  19.545   3.157
24764W        W97079  13.696  37.407   4.639
24765W        W97080   7.186  23.141  13.320
24766W        W97081  28.560  14.152  13.791
24767W        W97082  42.424   0.871  14.375
24768W        W97083  44.496  40.423   2.316
24769W        W97084  11.296  16.201  10.925
24770W        W97085  18.733  30.549   5.181
24771W        W97086  43.396  43.843   0.268
24772W        W97087  14.194  28.453   4.259
24773W        W97088  12.128  38.519   0.814
24774W        W97089  35.464  13.326  12.027
24775W        W97090  17.696   2.795  12.090
24776W        W97091  16.270  11.317  14.909
24777W        W97092  18.294  41.366   0.444
24778W        W97093   1.975   1.404   4.197
24779W        W97094  18.629  18.114   2.850
24780W        W97095  21.178  28.662  12.028
24781W        W97096  33.568  34.470   4.652
24782W        W97097  31.565  18.093   4.263
24783W        W97098  44.411   7.904   2.382
24784W        W97099  18.688  23.578   4.126
24785W        W97100   2.252  35.494  11.492
24786W        W97101  18.246  34.965   1.789
24787W        W97102  11.201   8.899   0.942
24788W        W97103  10.177  12.711   2.700
24789W        W97104  41.408  11.180   2.187
24790W        W97105  10.826   3.278  11.912
24791W        W97106   1.294  21.678   0.847
24792W        W97107  18.700  20.751  14.774
24793W        W97108  11.314   0.412   4.787
24794W        W97109  21.189  24.185   1.702
24795W        W97110  13.678   9.706   3.278
24796W        W97111  27.025   2.469   3.649
24797W        W97112  17.246   1.860  14.785
24798W        W97113  27.064   1.324   4.740
24799W        W97114  17.653  35.889  10.479
24800W        W97115  37.344  15.151   1.426
24801W        W97116  39.047   3.868   0.829
24802W        W97117  39.532   4.413   4.824
24803W        W97118  37.978   1.802  13.324
24804W        W97119  34.933  36.471   3.148
24805W        W97120  13.324  35.927  10.598
24806W        W97121   2.763  39.004   4.626
24807W        W97122  30.423  12.337  11.596
24808W        W97123  33.942  41.914  11.408
24809W        W97124   3.402  24.130   2.845
24810W        W97125  29.628  40.828  11.383
24811W        W97126  34.443  20.140   4.689
24812W        W97127  27.597  32.897  10.968
24813W        W97128  41.327   1.804   3.266
24814W        W97129  28.000  27.027   2.854
24815W        W97130   2.794  24.193   3.345
24816W        W97131  14.782  23.165  13.990
24817W        W97132   9.764   2.254  14.984
24818W        W97133  14.629  34.943  13.896
24819W        W97134   6.191  21.094  10.534
24820W        W97135  16.137  26.962  12.897
24821W        W97136  18.128  22.069  12.499
24822W        W97137  27.483  35.490  12.553
24823W        W97138  30.026  31.042   1.778
24824W        W97139  32.075  28.530   1.213
24825W        W97140  22.618  37.889   4.745
24826W        W97141  42.967  22.625   3.283
24827W        W97142  11.785   7.771  11.873
24828W        W97143  11.810   7.672   0.906
24829W        W97144  39.881  37.892  12.905
24830W        W97145  11.850  13.275  10.570
24831W        W97146  42.807  12.632  13.913
24832W        W97147  35.863  30.623   0.320
24833W        W97148  38.030   7.837  13.324
24834W        W97149   0.853  43.451  11.963
24835W        W97150  21.047  10.196   5.120
24836W        W97151  11.329   2.389  14.791
24837W        W97152  12.752  33.056   4.325
24838W        W97153  26.109  43.882   2.304
24839W        W97154  36.086   0.923   0.909
24840W        W97155  21.566  33.507   0.874
24841W        W97156   2.739   8.200   4.618
24842W        W97157   7.413   1.384  13.509
24843W        W97158  25.164   3.718   2.375
24844W        W97159  15.632  35.602   0.844
24845W        W97160  39.453   0.470  13.818
24846W        W97161  41.315   3.823  11.993
24847W        W97162  13.200  40.439  11.075
24848W        W97163   3.454   6.273  13.371
24849W        W97164  29.107  15.586   0.417
24850W        W97165  42.793   9.688   0.303
24851W        W97166  27.578  33.401   2.739
24852W        W97167  36.592   1.814  11.555
24853W        W97168  10.239  40.816  14.813
24854W        W97169  28.578   5.721   1.400
24855W        W97170  22.613  35.011   4.244
24856W        W97171  25.534  41.915   4.682
24857W        W97172   4.279  27.594  14.475
24858W        W97173  43.812  10.753  13.469
24859W        W97174  16.762  36.918  13.521
24860W        W97175  26.115  42.458  11.912
24861W        W97176  39.993  25.006  13.893
24862W        W97177  37.970  35.387   2.691
24863W        W97178  32.516   9.867  14.778
24864W        W97179  24.666  39.331  14.926
24865W        W97180   8.226  15.637   3.761
24866W        W97181  33.503  40.464  13.961
24867W        W97182  14.273  41.308   1.735
24868W        W97183  23.145  42.501  12.575
24869W        W97184  32.442  16.693  14.024
24870W        W97185  24.510  32.629  12.514
24871W        W97186  39.464  20.688   2.883
24872W        W97187  33.945  22.574  13.912
24873W        W97188  21.100  24.134   0.905
24874W        W97189  21.519  21.630   5.263
24875W        W97190  39.053   3.303   4.808
24876W        W97191  20.680  16.709  11.558
24877W        W97192  27.981   1.741  13.527
24878W        W97193  10.168  28.136   0.911
24879W        W97194  31.054  31.906  11.004
24880W        W97195  23.612  23.111   0.322
24881W        W97196  25.002  38.945  12.986
24882W        W97197   9.319  27.130   3.337
24883W        W97198  38.400  27.994   4.805
24884W        W97199  25.610  25.467   0.924
24885W        W97200  33.952   5.222   3.149
24886W        W97201  10.797  20.081   4.305
24887W        W97202   4.717  20.066  12.897
24888W        W97203   4.345  10.708  11.375
24889W        W97204   8.662  35.439  14.470
24890W        W97205  37.046  32.596  11.081
24891W        W97206   2.950  43.434   1.410
24892W        W97207  32.518  11.757  10.955
24893W        W97208  16.123  25.070   1.439
24894W        W97209   9.331   5.826   1.279
24895W        W97210  26.173  14.683  12.832
24896W        W97211  19.728  15.266  12.068
24897W        W97212  21.681   4.873  14.899
24898W        W97213   5.828  12.247   4.256
24899W        W97214  30.577  43.928   2.861
24900W        W97215  16.191  28.600  12.068
24901W        W97216  20.222  42.295   2.330
24902W        W97217  41.373  20.665   1.786
24903W        W97218  38.059  22.678   2.868
24904W        W97219   9.351  18.779   1.923
24905W        W97220  22.716   8.890   1.878
24906W        W97221  28.553   7.177   3.229
24907W        W97222   5.414  20.110   4.806
24908W        W97223  41.370   3.799   3.159
24909W        W97224  19.668  30.455   0.280
24910W        W97225   8.766  33.974  12.383
24911W        W97226  33.940  12.270   3.276
24912W        W97227  43.936   9.318   0.905
24913W        W97228  36.413  22.507  12.576
24914W        W97229  38.073  38.048  13.424
24915W        W97230  16.613  14.131   3.232
24916W        W97231   5.927  22.046  13.901
24917W        W97232  22.589  14.688  14.785
24918W        W97233  43.303  22.183   3.171
24919W        W97234   0.389  43.282  14.403
24920W        W97235  17.183   6.799   2.858
24921W        W97236  34.898   9.272   0.747
24922W        W97237  14.682  16.692   1.260
24923W        W97238  15.704  30.085   5.316
24924W        W97239  32.973  42.942   0.883
24925W        W97240  40.995  28.482   4.772
24926W        W97241   6.896  19.555  10.527
24927W        W97242   5.329  22.548  11.372
24928W        W97243  30.548   3.870   5.263
24929W        W97244  25.118  13.218  13.491
24930W        W97245   8.179  33.523  13.003
24931W        W97246   1.831  17.277   1.430
24932W        W97247  18.067  26.115   1.364
24933W        W97248  39.816  18.785   3.709
24934W        W97249   5.768  29.543  13.991
24935W        W97250   2.342   5.878  14.963
24936W        W97251  21.530  42.356   3.774
24937W        W97252  27.517  29.954   1.874
24938W        W97253  42.976  32.435  12.894
24939W        W97254   9.315  17.618  13.824
24940W        W97255  27.637  18.243  11.603
24941W        W97256   4.925   1.316   3.772
24942W        W97257   9.734  13.740   4.749
24943W        W97258  34.551  13.630   1.775
24944W        W97259  19.126   1.370  14.351
24945W        W97260   1.300  11.333  12.043
24946W        W97261  39.061  44.414  14.476
24947W        W97262  37.491  43.500   4.643
24948W        W97263   2.889   3.810  11.499
24949W        W97264  38.957  21.030  12.014
24950W        W97265  22.727  25.209   2.372
24951W        W97266   0.931  32.397  11.564
24952W        W97267   5.754  24.223   1.289
24953W        W97268  25.468   2.301   2.805
24954W        W97269  44.955   8.866  10.093
24955W        W97270  13.778  23.039  14.004
24956W        W97271  24.039  18.707   3.739
24957W        W97272  18.084  43.278  13.810
24958W        W97273  16.220  34.948  14.856
24959W        W97274  29.615  30.647  12.021
24960W        W97275  40.379   6.371  13.525
24961W        W97276  43.352  10.781  10.108
24962W        W97277  23.519  35.373   2.339
24963W        W97278   4.935  22.730   1.214
24964W        W97279  29.080   2.953  13.908
24965W        W97280  34.509  34.967   4.130
24966W        W97281  31.615  15.617  13.313
24967W        W97282  29.145   9.385  14.008
24968W        W97283  37.411   9.340  11.868
24969W        W97284  22.691  10.779   1.381
24970W        W97285   3.795  34.420   3.639
24971W        W97286  34.442  14.786  12.892
24972W        W97287  43.015  16.762   0.886
24973W        W97288   0.416  22.589  14.905
24974W        W97289  34.462  32.476  12.535
24975W        W97290   9.241  33.597  14.957
24976W        W97291  25.148  16.121   3.193
24977W        W97292  13.330  12.171   3.676
24978W        W97293   7.766  42.377   4.621
24979W        W97294  22.147   7.177  14.368
24980W        W97295  41.348  31.006   4.172
24981W        W97296  12.736  23.707  14.435
24982W        W97297  35.461  35.575  13.859
24983W        W97298  10.247   4.365  13.958
24984W        W97299  37.861   3.390  10.119
24985W        W97300  43.782  22.601  11.498
24986W        W97301  39.392  13.216  14.401
24987W        W97302  35.983   1.467   0.388
24988W        W97303  21.097  21.609  13.020
24989W        W97304  24.177   9.154  12.505
24990W        W97305  36.458   1.852  12.971
24991W        W97306   3.254  11.704   2.389
24992W        W97307  44.866  32.510  11.547
24993W        W97308  43.860  10.145  13.036
24994W        W97309   0.800  40.382  11.041
24995W        W97310  25.021   1.934  10.975
24996W        W97311  21.030   6.719  11.534
24997W        W97312  13.783   8.371  14.509
24998W        W97313   4.944   6.345   1.255
24999W        W97314  18.725   4.347  12.353
25000W        W97315   2.329  18.555   2.665
25001W        W97316  36.444  28.629  14.922
25002W        W97317  37.832  43.440  12.837
25003W        W97318  37.896  33.576  12.033
25004W        W97319   1.911  20.553  10.630
25005W        W97320   5.791   6.705  11.069
25006W        W97321  38.538  25.107   2.186
25007W        W97322  33.996  31.461   1.228
25008W        W97323  24.221  40.470   2.847
25009W        W97324  44.907  26.161   0.445
25010W        W97325  31.637  36.536  13.988
25011W        W97326  12.150  43.404  13.358
25012W        W97327  20.599  19.676   4.685
25013W        W97328  23.643  28.607   3.800
25014W        W97329  31.485  22.569   4.169
25015W        W97330  42.875  29.550  11.998
25016W        W97331   4.267  32.986  14.006
25017W        W97332  29.488  24.550  12.521
25018W        W97333   8.341   4.431   1.432
25019W        W97334  28.178  38.983   0.444
25020W        W97335  12.720  31.117   0.965
25021W        W97336  16.643   9.393  10.576
25022W        W97337  12.748   6.224  14.413
25023W        W97338  23.130   6.403   2.221
25024W        W97339  30.931  15.791  13.006
25025W        W97340  42.395  23.000   2.372
25026W        W97341  30.002  28.469  10.434
25027W        W97342  44.885  15.100  11.000
25028W        W97343  40.459  19.647  13.923
25029W        W97344  32.140   9.366   3.299
25030W        W97345  18.566   1.393   0.929
25031W        W97346  23.044  20.710   1.266
25032W        W97347  38.377   8.194  13.516
25033W        W97348  16.737  30.504  10.021
25034W        W97349  26.703  17.749  10.421
25035W        W97350  23.561  14.232  11.538
25036W        W97351  14.119   7.797   0.876
25037W        W97352   7.219   0.302   0.777
25038W        W97353  32.074  20.539  14.950
25039W        W97354  10.700  31.096   3.253
25040W        W97355  42.898  22.101   0.268
25041W        W97356  25.486   7.268   2.725
25042W        W97357  31.629   6.723  13.533
25043W        W97358  22.504   4.291   4.758
25044W        W97359   8.894  11.317   0.934
25045W        W97360  38.880  22.735   1.356
25046W        W97361  39.977  21.719  13.546
25047W        W97362  21.592  37.934  12.967
25048W        W97363  43.815  40.905  11.987
25049W        W97364  34.560   2.732   4.797
25050W        W97365  32.486   0.279   0.749
25051W        W97366  12.790  38.051   2.810
25052W        W97367  12.275   0.955  11.450
25053W        W97368  14.273  11.782   1.923
25054W        W97369  33.612  22.995   3.856
25055W        W97370  22.523  21.649  11.897
25056W        W97371  41.440  40.345  13.912
25057W        W97372  35.384  40.980   0.394
25058W        W97373   3.934   8.746  14.439
25059W        W97374   5.883  26.464   0.777
25060W        W97375  15.250  20.638   3.272
25061W        W97376  34.589  25.973  14.414
25062W        W97377   9.720   4.374  14.805
25063W        W97378  39.979  41.351   3.211
25064W        W97379  22.119  19.075   1.875
25065W        W97380  25.143   1.885  11.553
25066W        W97381  38.357  41.307  14.966
25067W        W97382  11.729  10.288   2.336
25068W        W97383  17.086  10.869  10.161
25069W        W97384   0.484  36.898  13.981
25070W        W97385  33.907   6.892   4.823
25071W        W97386  40.435   4.708  13.345
25072W        W97387   6.894  43.862   3.226
25073W        W97388  32.567  16.732   1.857
25074W        W97389  39.814  31.642  10.432
25075W        W97390  16.223  37.424  11.864
25076W        W97391  38.458  12.674  11.945
25077W        W97392  13.295   9.269   0.828
25078W        W97393   2.761   8.252   1.237
25079W        W97394  25.501  21.647  12.848
25080W        W97395   1.891   5.764  12.941
25081W        W97396   0.936   1.345   0.855
25082W        W97397  31.431  26.544  11.563
25083W        W97398  34.447  12.773  13.807
25084W        W97399  36.437  13.729   3.692
25085W        W97400  28.568  39.369  14.344
25086W        W97401   3.778   9.817  12.904
25087W        W97402  22.738  15.824  14.961
25088W        W97403  31.470   3.246   2.248
25089W        W97404  43.966  28.588  12.988
25090W        W97405  35.108  24.521   2.245
25091W        W97406  15.761  40.015  13.456
25092W        W97407  19.685  30.453   2.215
25093W        W97408   5.778  26.485  11.945
25094W        W97409  18.270  20.185   0.830
25095W        W97410  40.395  33.993  12.493
25096W        W97411   9.235  22.036  12.400
25097W        W97412  34.018  25.532  12.844
25098W        W97413  26.971   3.401  13.840
25099W        W97414  25.137  17.201  12.951
25100W        W97415  41.400  31.441   0.274
25101W        W97416  38.966   3.711  14.317
25102W        W97417   3.769   1.807   4.675
25103W        W97418  24.128  38.050   1.343
25104W        W97419  25.000   3.741   0.298
25105W        W97420   9.317  43.431   1.734
25106W        W97421   0.869  13.189   4.282
25107W        W97422  16.166  40.906   0.343
25108W        W97423   7.174  18.649  13.901
25109W        W97424   6.224  31.936  11.862
25110W        W97425   7.416  23.155  10.521
25111W        W97426  37.950  28.609  12.088
25112W        W97427  30.615  14.593  14.804
25113W        W97428  26.112  44.761   1.934
25114W        W97429   7.832  23.076   4.314
25115W        W97430  32.038   9.822  14.828
25116W        W97431   5.353  25.149   0.480
25117W        W97432  24.558   7.696  10.914
25118W        W97433   3.346   1.964   1.786
25119W        W97434  13.626  15.643  14.354
25120W        W97435  11.236  21.105  14.477
25121W        W97436  11.638  30.602   4.315
25122W        W97437  36.500   0.320  11.970
25123W        W97438  28.040   6.888  13.373
25124W        W97439  11.758  18.158  14.004
25125W        W97440   7.912  32.032   0.444
25126W        W97441  17.141  16.187   2.187
25127W        W97442  18.110  30.651  10.081
25128W        W97443  18.552  30.445  11.009
25129W        W97444  37.086   7.308   2.882
25130W        W97445  26.118  31.517  11.993
25131W        W97446  17.277   9.381  11.047
25132W        W97447  18.717   6.297   1.885
25133W        W97448   6.329   8.678   0.836
25134W        W97449   3.244   9.266   3.151
25135W        W97450  11.792  15.147  13.463
25136W        W97451   8.800   6.694  14.881
25137W        W97452  13.710  34.903  14.854
25138W        W97453  15.778   4.802   2.362
25139W        W97454   9.358  14.784  13.406
25140W        W97455  15.266  25.686  13.063
25141W        W97456   4.440   1.327   0.785
25142W        W97457  18.714  11.224   1.427
25143W        W97458  10.208   2.888   4.808
25144W        W97459  25.650  26.018   3.292
25145W        W97460  28.462   4.380  10.946
25146W        W97461  42.326  29.493   4.711
25147W        W97462  35.891  11.786  12.835
25148W        W97463  35.456  16.586   2.839
25149W        W97464  44.943  34.401  12.890
25150W        W97465  37.841  37.536   0.378
25151W        W97466  18.703   6.240   2.893
25152W        W97467   2.306  10.694   3.773
25153W        W97468   0.365  41.005  14.505
25154W        W97469  33.404  14.142  14.342
25155W        W97470  11.260  12.722   3.822
25156W        W97471  42.955  12.802  14.489
25157W        W97472  25.527  43.383   0.765
25158W        W97473  38.882  36.403   0.758
25159W        W97474   6.339  16.607   2.236
25160W        W97475  14.259  25.063  14.488
25161W        W97476  24.561  15.285   2.750
25162W        W97477  36.405  34.086   3.827
25163W        W97478  41.509   4.776  11.975
25164W        W97479  43.395  29.613  14.292
25165W        W97480   5.838  41.350   2.393
25166W        W97481  17.767  27.142   3.166
25167W        W97482   3.272   7.690  12.824
25168W        W97483  21.103  32.120   3.257
25169W        W97484  16.742   4.877  10.981
25170W        W97485  10.248  25.132   2.706
25171W        W97486  11.147  37.039  11.435
25172W        W97487  30.564  33.490   0.918
25173W        W97488  30.046  10.869  14.835
25174W        W97489  25.573  29.988   2.894
25175W        W97490  26.598  34.395   3.859
25176W        W97491   0.282   7.772  13.855
25177W        W97492  27.552  20.589  11.513
25178W        W97493  30.077  39.444   0.915
25179W        W97494  27.952  26.105  11.105
25180W        W97495  21.149  39.404   1.935
25181W        W97496   3.262  27.584  13.915
25182W        W97497   9.854  15.702  12.924
25183W        W97498  35.928  36.543   2.804
25184W        W97499  35.037  33.909  11.875
25185W        W97500  34.437  24.674   2.792
25186W        W97501  19.133  29.114  12.341
25187W        W97502  43.324  32.575   1.864
25188W        W97503  44.370  19.212  12.428
25189W        W97504  17.765  17.234  12.520
25190W        W97505  33.601   3.436   1.928
25191W        W97506  34.090  25.045   0.380
25192W        W97507  30.940  13.829   0.300
25193W        W97508  40.399  15.694   0.445
25194W        W97509   9.218  21.235  14.291
25195W        W97510  27.504  42.318  14.841
25196W        W97511   6.400  40.998  14.787
25197W        W97512  28.641   8.663  14.281
25198W        W97513  12.628  21.216  10.629
25199W        W97514   9.200  39.331  11.965
25200W        W97515   1.959  25.674   2.828
25201W        W97516   3.791  40.414   0.439
25202W        W97517  42.339  30.538  11.112
25203W        W97518  16.607  10.710  10.406
25204W        W97519   1.270  35.469   0.743
25205W        W97520   5.912  21.138  10.461
25206W        W97521  32.508  28.044   2.323
25207W        W97522  23.597  10.723   3.747
25208W        W97523  27.456  12.359  13.014
25209W        W97524  32.555  16.210  10.934
25210W        W97525  35.040  23.540  11.587
25211W        W97526  27.476  20.681   1.339
25212W        W97527  24.981  23.008  14.825
25213W        W97528  13.344  32.616   1.287
25214W        W97529  27.483  38.995   0.803
25215W        W97530  12.319   9.806   3.147
25216W        W97531  37.909  35.096   0.313
25217W        W97532   3.904  25.185   5.115
25218W        W97533  36.562  21.242   0.768
25219W        W97534   7.805   9.888  14.402
25220W        W97535  26.493   3.434  10.480
25221W        W97536  14.716  28.634   3.769
25222W        W97537   3.912  24.660   0.354
25223W        W97538  13.708  29.616   0.420
25224W        W97539  29.601  42.920  11.573
25225W        W97540  33.565  29.060   4.819
25226W        W97541  16.590  16.316   4.637
25227W        W97542  15.109  43.443   2.851
25228W        W97543  12.854  35.449  12.999
25229W        W97544  43.810   2.771  12.047
25230W        W97545  18.682  15.661   3.284
25231W        W97546  16.265  34.929   2.337
25232W        W97547  29.548   2.428   4.161
25233W        W97548  14.666  16.212  13.059
25234W        W97549   6.304  32.909  10.991
25235W        W97550  26.570  30.132   3.261
25236W        W97551   7.745  38.411  14.005
25237W        W97552  19.069  24.091  13.547
25238W        W97553   0.746  41.527  12.565
25239W        W97554  14.124  43.987  12.893
25240W        W97555  34.046  36.943   1.343
25241W        W97556   4.907  12.329   2.874
25242W        W97557  23.591  33.465  14.474
25243W        W97558  41.354  39.886  11.431
25244W        W97559  17.112  38.024   1.719
25245W        W97560  13.128  17.653  14.018
25246W        W97561  38.930   2.735   2.359
25247W        W97562  31.079  33.004   2.232
25248W        W97563  36.078  22.083   4.305
25249W        W97564  16.213  33.412   3.289
25250W        W97565  11.219   4.780   1.707
25251W        W97566   2.267  36.357  14.398
25252W        W97567   3.224  18.222  12.379
25253W        W97568   6.240  10.139  13.324
25254W        W97569  24.053  34.074   3.370
25255W        W97570  40.361   6.284  11.451
25256W        W97571  25.597  11.335  14.828
25257W        W97572   9.658  13.195   2.271
25258W        W97573  12.706  43.920   0.899
25259W        W97574  20.140  17.071   5.169
25260W        W97575   3.390   5.309   2.418
25261W        W97576  21.101  26.086  13.961
25262W        W97577  31.519  14.334   1.228
25263W        W97578  41.835   0.277   4.604
25264W        W97579   2.332  14.678   0.753
25265W        W97580  12.139  41.840  10.591
25266W        W97581  31.991   9.839   4.337
25267W        W97582   8.192  15.246   2.735
25268W        W97583  31.485  41.303  14.302
25269W        W97584  27.165  27.031  11.065
25270W        W97585   8.658  41.005  12.517
25271W        W97586  13.775  39.457  10.523
25272W        W97587  25.162   1.361   1.773
25273W        W97588  18.566  17.285   4.700
25274W        W97589  40.890  22.169   1.864
25275W        W97590   1.897  16.319   0.832
25276W        W97591  11.856   4.913  11.860
25277W        W97592  14.701  34.470   2.356
25278W        W97593  36.854   7.696   1.396
25279W        W97594   0.942  39.323   0.933
25280W        W97595  11.778  30.053   3.187
25281W        W97596   4.790  43.772  13.816
25282W        W97597  16.142  44.859  10.439
25283W        W97598  10.677  16.170   3.796
25284W        W97599  39.992  20.725   4.759
25285W        W97600  40.840  37.375   0.805
25286W        W97601   8.808   5.257   0.261
25287W        W97602  31.965  18.774   2.333
25288W        W97603  24.552   9.645   4.801
25289W        W97604  43.476  34.470  10.583
25290W        W97605  13.245   3.940  12.070
25291W        W97606  11.250  44.493  12.554
25292W        W97607  42.302   2.884   1.773
25293W        W97608   7.834  11.193   0.333
25294W        W97609   7.171   0.933   1.343
25295W        W97610  39.981  26.465   0.775
25296W        W97611  27.042  30.594  11.392
25297W        W97612  39.050  43.797   0.369
25298W        W97613  42.437  34.119  13.388
25299W        W97614  16.804  14.750  10.897
25300W        W97615  21.096  34.434  10.609
25301W        W97616  13.169  37.832   1.226
25302W        W97617  31.061  24.697  10.993
25303W        W97618  31.618  16.763  13.539
25304W        W97619  29.991  31.648   4.669
25305W        W97620  11.327  21.238  13.346
25306W        W97621  14.815  39.332  10.944
25307W        W97622  34.494  20.627   1.416
25308W        W97623  35.048  38.485   4.170
25309W        W97624   4.845  10.687  12.369
25310W        W97625  41.042  31.494   3.358
25311W        W97626  15.653  14.331   2.720
25312W        W97627  44.800  28.072   4.707
25313W        W97628  11.301  44.761  11.119
25314W        W97629  21.252  20.667  14.392
25315W        W97630  44.004  38.355   4.319
25316W        W97631  35.931  44.785  10.633
25317W        W97632  39.015  11.130  13.992
25318W        W97633  20.073   8.690  13.980
25319W        W97634  13.686  40.324   0.295
25320W        W97635  16.689   3.372   0.448
25321W        W97636  19.585  33.055   3.755
25322W        W97637  17.608   7.176  11.607
25323W        W97638  31.448  21.581   2.312
25324W        W97639  31.033  43.903   0.449
25325W        W97640  16.165  10.215  11.888
25326W        W97641   6.201  40.423  11.905
25327W        W97642   8.803  42.509   2.855
25328W        W97643  20.261   1.955   4.256
25329W        W97644  30.417  32.554  11.519
25330W        W97645  16.800   4.919  11.961
25331W        W97646  11.642  13.613  10.066
25332W        W97647   6.802  30.013  12.340
25333W        W97648  21.551  42.341  14.907
25334W        W97649  25.635  19.690   1.803
25335W        W97650  36.404  16.300  14.820
25336W        W97651  32.008  24.079   3.189
25337W        W97652  17.620  10.172   0.278
25338W        W97653  27.058  26.018   3.372
25339W        W97654  32.540  21.537  10.893
25340W        W97655  34.500  12.757  14.799
25341W        W97656  31.454  23.232  13.359
25342W        W97657  36.531  33.051  14.507
25343W        W97658  17.070  32.016  10.606
25344W        W97659  28.598  13.225   2.182
25345W        W97660   0.377  21.060   3.785
25346W        W97661  22.232  37.997  12.919
25347W        W97662  14.797  15.739   1.844
25348W        W97663  22.999  32.535   1.798
25349W        W97664  41.859  14.707   3.652
25350W        W97665  35.031  24.602   1.284
25351W        W97666  38.996  42.800  13.823
25352W        W97667   8.874  33.942  13.360
25353W        W97668  31.441  43.892  10.897
25354W        W97669  29.992  23.233   0.900
25355W        W97670   2.952  16.175  11.536
25356W        W97671  13.330   9.153  13.953
25357W        W97672  34.599  25.572  12.505
25358W        W97673   1.835  44.425  14.471
25359W        W97674   5.926  18.765   0.452
25360W        W97675  12.296  40.859  14.910
25361W        W97676   0.924  40.465   1.748
25362W        W97677  39.500   6.821  11.981
25363W        W97678   1.406  40.042   0.373
25364W        W97679  14.133  44.982  13.501
25365W        W97680  18.729  34.425  12.895
25366W        W97681  14.742  28.057   1.695
25367W        W97682  19.608  39.058   3.263
25368W        W97683  39.036   1.421   0.843
25369W        W97684   8.872  25.621  14.426
25370W        W97685  36.016  28.529  14.355
25371W        W97686  36.546   9.225  11.080
25372W        W97687  15.686  28.175   4.638
25373W        W97688  32.128  41.364  11.568
25374W        W97689  19.118  32.602   0.326
25375W        W97690  14.123  25.014   3.869
25376W        W97691  41.514  19.080  13.990
25377W        W97692   4.944  12.749  13.430
25378W        W97693  36.886  22.538  14.416
25379W        W97694   3.792  34.975  13.893
25380W        W97695  35.952  19.041  10.634
25381W        W97696   9.324  40.509   1.346
25382W        W97697  18.164  33.382  13.925
25383W        W97698  21.629  39.818  11.002
25384W        W97699   6.309  17.663  14.413
25385W        W97700  21.065  28.079   4.809
25386W        W97701  41.937  28.106  11.861
25387W        W97702  26.587   1.750  11.127
25388W        W97703  15.705  29.035   3.682
25389W        W97704  34.607  11.306   3.221
25390W        W97705  43.418   3.748   1.443
25391W        W97706  24.591  21.186  14.404
25392W        W97707  41.392  38.009  14.363
25393W        W97708   8.796   3.893  12.454
25394W        W97709   5.271  39.940   1.240
25395W        W97710  43.988   8.193  11.943
25396W        W97711  13.202  16.102   0.801
25397W        W97712  32.904  28.463  14.905
25398W        W97713  43.328  39.010  13.874
25399W        W97714  11.234  38.901   3.846
25400W        W97715  28.547  27.647  11.917
25401W        W97716  17.162   0.889   3.202
25402W        W97717   8.855  25.112   1.273
25403W        W97718  24.022  22.206  13.377
25404W        W97719   2.428   1.415  11.051
25405W        W97720  16.099  32.565   2.773
25406W        W97721  14.688  17.230  12.913
25407W        W97722   0.462   3.460   2.179
25408W        W97723  12.837  26.034   0.927
25409W        W97724  17.764   0.807   2.362
25410W        W97725  22.156  44.959   4.778
25411W        W97726  40.507  27.098   2.785
25412W        W97727  38.841  11.282   4.648
25413W        W97728  29.468   6.401   1.215
25414W        W97729  21.156  11.781   4.244
25415W        W97730  24.177  18.144  14.761
25416W        W97731  27.560  16.229   4.745
25417W        W97732  26.031   2.317  14.023
25418W        W97733  37.998  33.884  11.412
25419W        W97734  10.653  26.500   2.898
25420W        W97735  36.581  44.493  10.562
25421W        W97736  44.876  33.955  14.824
25422W        W97737  32.457  22.583   1.759
25423W        W97738  18.170  42.025   3.258
25424W        W97739  36.393  24.517   1.776
25425W        W97740  20.529  20.649   0.474
25426W        W97741  40.330  24.681  10.083
25427W        W97742  27.501  38.850  12.396
25428W        W97743  19.729   1.239  14.456
25429W        W97744  16.167  28.489  14.780
25430W        W97745   6.258  30.926   0.392
25431W        W97746  40.312  41.517   4.616
25432W        W97747  16.625  22.204   2.797
25433W        W97748   6.240  32.565   4.605
25434W        W97749   6.293  10.842   1.872
25435W        W97750  22.714  19.539   9.521
25436W        W97751  40.847  29.969  14.402
25437W        W97752   3.319   3.283  12.574
25438W        W97753  41.515  16.239   3.289
25439W        W97754  17.788  23.202  11.043
25440W        W97755   9.691   4.258   2.324
25441W        W97756  38.073  11.294  12.922
25442W        W97757  26.134  32.939   4.258
25443W        W97758  32.139   1.281  14.946
25444W        W97759  24.620  39.922   0.456
25445W        W97760  13.335  16.720   3.731
25446W        W97761  34.895  29.467  12.377
25447W        W97762  33.924  35.932  12.829
25448W        W97763  37.424  25.586   1.359
25449W        W97764  14.775  19.093  14.460
25450W        W97765  17.116  39.372   4.144
25451W        W97766  16.108  41.498  14.324
25452W        W97767   4.802  31.485   3.310
25453W        W97768  26.516   1.977  11.884
25454W        W97769  17.623  43.991  13.410
25455W        W97770  20.676  33.976  14.774
25456W        W97771  21.648   1.280   3.212
25457W        W97772   3.845  14.134   2.341
25458W        W97773  35.385  37.352   3.728
25459W        W97774  38.044  11.156  13.536
25460W        W97775   4.367  35.600  14.771
25461W        W97776   9.719  27.015   3.720
25462W        W97777  44.965  35.010  12.922
25463W        W97778  26.620  30.563   0.268
25464W        W97779  29.139  30.426   1.822
25465W        W97780  28.505  39.053   0.412
25466W        W97781  24.212  43.318   4.777
25467W        W97782  35.869  18.719   0.454
25468W        W97783  43.282  11.742  13.989
25469W        W97784  25.661  24.001   3.302
25470W        W97785  37.524  42.834   2.700
25471W        W97786   3.277  21.057  13.340
25472W        W97787  35.051  30.058   1.382
25473W        W97788   0.480  30.640  13.903
25474W        W97789  37.481  44.408   2.840
25475W        W97790  15.779  27.608   1.906
25476W        W97791   3.752  27.580  11.861
25477W        W97792   4.869   8.813   0.460
25478W        W97793   2.888  41.438   1.405
25479W        W97794  13.131   3.333  12.090
25480W        W97795  26.195  17.621  12.575
25481W        W97796  34.565  12.807  11.068
25482W        W97797  37.559  37.943   3.245
25483W        W97798  25.090   6.878   0.909
25484W        W97799  25.509  24.482  11.538
25485W        W97800   4.936   6.893  13.348
25486W        W97801  28.458  26.993  13.922
25487W        W97802  23.058  40.549   0.727
25488W        W97803  32.121  37.466  12.844
25489W        W97804  27.050  36.513   4.344
25490W        W97805  39.429  16.787   3.314
25491W        W97806  16.172  25.982  12.475
25492W        W97807  10.338  44.339  12.451
25493W        W97808   7.867  32.551  14.494
25494W        W97809  44.325   9.323  10.462
25495W        W97810   6.838  30.447  12.914
25496W        W97811  39.376  22.995   4.752
25497W        W97812  16.610  19.604  10.516
25498W        W97813  39.863   0.461  10.433
25499W        W97814  34.918  36.590   4.175
25500W        W97815  33.510   8.330  11.578
25501W        W97816  11.862  19.734  11.883
25502W        W97817   8.357   2.275  13.380
25503W        W97818  24.712   7.815   3.318
25504W        W97819  13.284  16.682  14.446
25505W        W97820   2.266  15.755   4.283
25506W        W97821  32.906  32.445   4.668
25507W        W97822   6.376  37.369   4.791
25508W        W97823  18.653   9.295  14.940
25509W        W97824   9.769  16.276  11.511
25510W        W97825  11.162  15.740   4.758
25511W        W97826  14.166  37.380   3.843
25512W        W97827  36.861  34.958  10.406
25513W        W97828  22.120  26.070  10.972
25514W        W97829  18.739  10.794   9.957
25515W        W97830  23.700  38.887   3.376
25516W        W97831  40.440  23.987   1.220
25517W        W97832  36.041  23.714  14.770
25518W        W97833  18.263  10.269  12.080
25519W        W97834   4.229  37.552  12.999
25520W        W97835   2.754  44.820   1.741
25521W        W97836  35.546  10.319   4.295
25522W        W97837  20.535  10.372   0.745
25523W        W97838  19.566  11.299   3.789
25524W        W97839  27.598  19.242  14.437
25525W        W97840  16.649  13.107   4.229
25526W        W97841  19.681  14.650  14.848
25527W        W97842  40.952  36.981  14.903
25528W        W97843  23.694   6.348   3.659
25529W        W97844  31.905  15.697  12.033
25530W        W97845  14.648  12.819  13.796
25531W        W97846  18.595  32.979   3.679
25532W        W97847  32.392  21.177   4.325
25533W        W97848  22.547  32.621  10.520
25534W        W97849   2.252   9.759  13.836
25535W        W97850   6.197  18.090  12.007
25536W        W97851  34.863  43.877   3.335
25537W        W97852  40.408  26.114  10.410
25538W        W97853  29.087  41.012  13.064
25539W        W97854  41.037   1.258  13.527
25540W        W97855  21.602  28.169   1.443
25541W        W97856  33.083  21.152   0.763
25542W        W97857   7.333  14.657  13.468
25543W        W97858  30.566  10.740  14.971
25544W        W97859  30.518  36.908   0.931
25545W        W97860   5.427  18.049  13.046
25546W        W97861  31.550  25.124   4.799
25547W        W97862  21.603   7.797   0.440
25548W        W97863  15.656   4.801   4.277
25549W        W97864   8.819  19.666  12.483
25550W        W97865  41.394  41.419  12.412
25551W        W97866  18.669  15.620   1.250
25552W        W97867  42.875  21.574  10.910
25553W        W97868  12.162  18.561  11.968
25554W        W97869  42.381  37.514   0.258
25555W        W97870   6.368  12.663   2.856
25556W        W97871  32.427  31.516   0.732
25557W        W97872  34.901   1.475  13.862
25558W        W97873  24.217  19.549  14.304
25559W        W97874  24.147  27.022   2.755
25560W        W97875  12.255  23.681   2.244
25561W        W97876  39.345  30.964   4.296
25562W        W97877  30.004  17.164  11.024
25563W        W97878   5.753   9.666  10.529
25564W        W97879  39.876   8.789  14.778
25565W        W97880   8.886  36.885   1.447
25566W        W97881  38.564  11.795  10.583
25567W        W97882  11.257  23.530  10.622
25568W        W97883  32.442  37.427   3.773
25569W        W97884  34.983  20.719  15.000
25570W        W97885   1.894  44.875   0.883
25571W        W97886  25.642  13.218   0.254
25572W        W97887  35.900  25.606  10.638
25573W        W97888  26.493  19.642  12.532
25574W        W97889  22.105   8.306   3.321
25575W        W97890  30.601  15.194   3.724
25576W        W97891  44.407  33.515  11.884
25577W        W97892   5.402  11.299  12.471
25578W        W97893   4.847  11.223   1.747
25579W        W97894  33.559  38.409   1.850
25580W        W97895  33.461  43.305  10.085
25581W        W97896  11.153  16.690   0.478
25582W        W97897   9.321  34.108  11.512
25583W        W97898   8.813  37.839   2.789
25584W        W97899   5.763  29.493   4.740
25585W        W97900  17.580   9.796  12.362
25586W        W97901  23.024  41.503  11.863
25587W        W97902  31.432   8.719   4.279
25588W        W97903   5.376  21.129   1.774
25589W        W97904  41.844  17.143  13.855
25590W        W97905  42.848  27.038   0.327
25591W        W97906  16.733  32.628  12.911
25592W        W97907  40.905  24.175  11.414
25593W        W97908   7.898  33.510   4.145
25594W        W97909  16.177   9.762   1.383
25595W        W97910   6.385  38.457   2.842
25596W        W97911  37.399  24.021  10.981
25597W        W97912  30.449  38.841   2.830
25598W        W97913  11.790   4.744  10.111
25599W        W97914  40.413  25.001  14.766
25600W        W97915  22.692  38.539  13.846
25601W        W97916  33.110  13.117   0.868
25602W        W97917  40.477  14.300  13.891
25603W        W97918  16.114  28.537  10.154
25604W        W97919  18.167  37.892   2.729
25605W        W97920  44.474   0.489   0.847
25606W        W97921  31.152  30.022  12.487
25607W        W97922   6.209  24.561  13.010
25608W        W97923  38.896  19.700   4.666
25609W        W97924   7.206   1.969  12.824
25610W        W97925   4.415  18.098  13.339
25611W        W97926  21.631  35.930   3.217
25612W        W97927  16.183  39.355   5.182
25613W        W97928  38.921   5.712   0.937
25614W        W97929  39.487  17.076  10.409
25615W        W97930  20.270  42.441  14.004
25616W        W97931  39.503  11.263   1.894
25617W        W97932  43.890  16.122   4.296
25618W        W97933   6.417  36.479   2.775
25619W        W97934  39.993  12.661   1.847
25620W        W97935  30.465  32.029   3.318
25621W        W97936  23.216  42.017   0.820
25622W        W97937  37.037  19.055   4.218
25623W        W97938   6.890   0.907   1.323
25624W        W97939  37.077   1.338  10.431
25625W        W97940  40.418  19.715   3.667
25626W        W97941  28.018  29.474  11.894
25627W        W97942  43.438  15.626  12.471
25628W        W97943  41.787  44.915  12.923
25629W        W97944   2.842   6.279  10.488
25630W        W97945   1.443  32.576  12.047
25631W        W97946  36.415  24.558   3.289
25632W        W97947  35.032  22.540   1.910
25633W        W97948   0.785  10.146   3.375
25634W        W97949  29.564   0.777   4.263
25635W        W97950  44.827  40.896   2.839
25636W        W97951  16.571  43.868   1.337
25637W        W97952  15.144  16.708  10.938
25638W        W97953   9.837   3.369  13.981
25639W        W97954   9.739  34.539  12.518
25640W        W97955  16.083  23.993  11.508
25641W        W97956   9.870  34.971   3.796
25642W        W97957  14.305   5.418  14.855
25643W        W97958  30.997  43.468   1.882
25644W        W97959  44.892   0.293  11.987
25645W        W97960  13.333   0.910  11.528
25646W        W97961  29.157  31.574   0.907
25647W        W97962   0.305   6.877   1.760
25648W        W97963  17.572  40.046  14.948
25649W        W97964  25.603   3.415  12.542
25650W        W97965  38.562  19.697  14.851
25651W        W97966  10.314  14.799   3.200
25652W        W97967  19.234   8.783   4.224
25653W        W97968  33.912  22.521  14.396
25654W        W97969  40.453  20.086  10.921
25655W        W97970  38.413  34.110   4.643
25656W        W97971  23.607   3.826   4.166
25657W        W97972   6.244  27.118  12.520
25658W        W97973  34.901  10.224  13.452
25659W        W97974  32.013   8.170   0.293
25660W        W97975  40.917   7.177  13.793
25661W        W97976  26.024  40.950  12.007
25662W        W97977  19.208  40.995   4.153
25663W        W97978  29.920  23.118   2.774
25664W        W97979  19.603  13.350  12.091
25665W        W97980  15.808  28.979  11.068
25666W        W97981  30.957  32.127   0.832
25667W        W97982  11.134  34.956   4.338
25668W        W97983  16.164  27.647  12.041
25669W        W97984   9.179   9.820  13.047
25670W        W97985  16.797   6.903  11.954
25671W        W97986  22.215  38.532  11.869
25672W        W97987  34.497  11.743   4.643
25673W        W97988  43.956  15.638  13.851
25674W        W97989  33.473   1.442  10.076
25675W        W97990   1.892  36.098  12.884
25676W        W97991  36.477   8.192   3.826
25677W        W97992  21.031   6.300  13.488
25678W        W97993  24.071  14.695   3.660
25679W        W97994  24.659  15.112  10.999
25680W        W97995  35.000  38.346   2.296
25681W        W97996  42.338   6.397  13.527
25682W        W97997  20.069  40.427   1.877
25683W        W97998  14.795  22.599   5.156
25684W        W97999  44.366  41.933  12.568
25685W        W98000  12.671  17.782  11.101
25686W        W98001  15.798  43.866   4.649
25687W        W98002  37.468  16.695  12.091
25688W        W98003  36.392  30.027  12.386
25689W        W98004  13.218   3.447   0.319
25690W        W98005  16.284   8.180   1.210
25691W        W98006  24.206   2.338  11.398
25692W        W98007  37.484   2.741  13.001
25693W        W98008  36.423   4.432   3.231
25694W        W98009  15.736  35.543   4.136
25695W        W98010  31.953   9.279   1.849
25696W        W98011  43.366  35.935  13.043
25697W        W98012  43.922  26.208   4.299
25698W        W98013  41.385  42.015   3.789
25699W        W98014   2.944  32.130  14.438
25700W        W98015   1.438  31.427   4.191
25701W        W98016  15.775  11.143   4.213
25702W        W98017   0.464   3.749   2.718
25703W        W98018   9.356  28.108  11.911
25704W        W98019  12.649  11.145   0.433
25705W        W98020   3.321  44.897  10.999
25706W        W98021  27.575  36.456  12.942
25707W        W98022  43.986  24.145  14.982
25708W        W98023  14.726   5.908  11.031
25709W        W98024  15.236  31.607   3.378
25710W        W98025   1.260  29.173  13.908
25711W        W98026   6.292  22.720   0.469
25712W        W98027  17.221  21.253  14.854
25713W        W98028  28.066  40.812   4.722
25714W        W98029  13.806  38.966  11.001
25715W        W98030  22.135  36.074   2.202
25716W        W98031  25.546   7.253  11.905
25717W        W98032  11.372   3.309  11.447
25718W        W98033   9.678  16.599   5.271
25719W        W98034  31.641  33.495   4.244
25720W        W98035  26.147  13.349  14.868
25721W        W98036  14.263   0.921  10.416
25722W        W98037  38.853  16.642  11.537
25723W        W98038  35.376  19.761  10.523
25724W        W98039  42.322  25.046  13.512
25725W        W98040  37.514  39.415   4.801
25726W        W98041   7.315  35.019   1.717
25727W        W98042  17.223   5.928  13.839
25728W        W98043  23.198  43.867  14.280
25729W        W98044  44.498  17.643   0.342
25730W        W98045  11.331  16.744  12.502
25731W        W98046   2.727  40.936  14.406
25732W        W98047  10.845  10.384   1.268
25733W        W98048  18.637  27.646   2.199
25734W        W98049  24.704  37.575  13.946
25735W        W98050  36.507  10.146  10.111
25736W        W98051  22.014   1.345  10.904
25737W        W98052   7.386   7.242   3.688
25738W        W98053  37.008  18.689   4.739
25739W        W98054   0.855  17.098  12.537
25740W        W98055  19.584  21.619   2.319
25741W        W98056  32.900  24.199   1.842
25742W        W98057  39.483   2.353   1.264
25743W        W98058  13.618  34.971  13.413
25744W        W98059  40.995  26.080  11.056
25745W        W98060  38.381  22.167  11.587
25746W        W98061  25.209  43.897   4.247
25747W        W98062   9.844  32.918  11.543
25748W        W98063  15.612   8.386   2.823
25749W        W98064   3.868  22.187  11.610
25750W        W98065   8.184  28.157  14.973
25751W        W98066  39.393  37.354   2.408
25752W        W98067  34.436   6.411  10.504
25753W        W98068  40.951   3.886  11.481
25754W        W98069   2.336  21.106  13.473
25755W        W98070  35.435  41.355  14.764
25756W        W98071  26.508   5.424  14.785
25757W        W98072  33.530  44.456  13.433
25758W        W98073   0.285  12.648  12.883
25759W        W98074  10.731  21.574  13.481
25760W        W98075   6.260   7.291   4.309
25761W        W98076   5.926   5.281   4.155
25762W        W98077  33.119  15.640  14.966
25763W        W98078  38.892  34.405  11.964
25764W        W98079  15.200  11.341   4.241
25765W        W98080  40.327   5.207   0.382
25766W        W98081  22.503  20.626   1.925
25767W        W98082  30.590  44.487  14.285
25768W        W98083   9.283   7.899  14.453
25769W        W98084  24.118  36.435  11.067
25770W        W98085  42.003  19.126  13.912
25771W        W98086  14.334  38.461   1.410
25772W        W98087  11.246  12.854  14.806
25773W        W98088   6.215  39.005   2.292
25774W        W98089  17.653  19.720  11.598
25775W        W98090  19.165  24.607  13.807
25776W        W98091  38.049  33.936   0.785
25777W        W98092  10.380  12.731  12.843
25778W        W98093  27.023  43.338   4.197
25779W        W98094   6.236  42.443   4.616
25780W        W98095  15.649   7.280   3.204
25781W        W98096   6.366  22.032   4.242
25782W        W98097  27.057  36.072   2.830
25783W        W98098   3.755  21.621   4.242
25784W        W98099  18.082  27.995  12.518
25785W        W98100  36.498   3.872   4.269
25786W        W98101  16.694  22.518   3.361
25787W        W98102  31.945  20.600  12.546
25788W        W98103  33.130  38.509  11.974
25789W        W98104  30.058   8.665  12.956
25790W        W98105  10.328  17.637  13.543
25791W        W98106   2.450  13.291  12.924
25792W        W98107  22.096  19.195  13.949
25793W        W98108  18.146  25.213   1.442
25794W        W98109  37.502  11.315   4.165
25795W        W98110  22.091  33.914  13.400
25796W        W98111   1.783  33.924   1.391
25797W        W98112  10.755  41.489  12.044
25798W        W98113  11.826   6.196   4.810
25799W        W98114  15.671  10.733  13.858
25800W        W98115  20.587   2.330  10.475
25801W        W98116   8.283  40.433  13.931
25802W        W98117  23.040  22.622   2.700
25803W        W98118   1.757  14.708   0.294
25804W        W98119  44.935  29.988   3.276
25805W        W98120  44.973  32.068   1.885
25806W        W98121  37.830   8.772   0.290
25807W        W98122   3.310  11.785  13.403
25808W        W98123  34.089  22.228  14.495
25809W        W98124  43.346  39.019  10.933
25810W        W98125  42.350  41.908  11.382
25811W        W98126  10.836  24.995   0.798
25812W        W98127   0.449  21.038   1.400
25813W        W98128  28.028  39.911   4.211
25814W        W98129  22.011  40.866  13.333
25815W        W98130  32.530  21.228  12.042
25816W        W98131  15.240  37.022  14.374
25817W        W98132  22.665  20.150  14.800
25818W        W98133  28.094  13.283   4.218
25819W        W98134  11.207  35.867  11.032
25820W        W98135  37.901  40.349  13.413
25821W        W98136  41.528  34.002   3.228
25822W        W98137  20.092  33.915  11.421
25823W        W98138   3.268  33.427  13.336
25824W        W98139  36.013  22.251   3.262
25825W        W98140   0.423  26.015   1.390
25826W        W98141  29.109  43.376   0.912
25827W        W98142  18.089   4.204   4.717
25828W        W98143  26.163  23.204  12.536
25829W        W98144  19.181  25.493  14.777
25830W        W98145  44.391  37.022  10.891
25831W        W98146  43.899  13.351   3.321
25832W        W98147   6.899  34.382   0.905
25833W        W98148  17.143  38.939  10.047
25834W        W98149  37.363  35.948  12.891
25835W        W98150  25.602  17.651   4.221
25836W        W98151  43.984  30.539   4.819
25837W        W98152  15.727  24.709   2.777
25838W        W98153   2.808  43.426   0.296
25839W        W98154   9.296  31.531  10.494
25840W        W98155  24.543  19.708  12.988
25841W        W98156  27.541   6.753   4.743
25842W        W98157  33.623   3.243   3.691
25843W        W98158  12.680   9.849   0.951
25844W        W98159  15.230  11.372   0.967
25845W        W98160  26.523  15.727   2.674
25846W        W98161  39.488  43.393   0.296
25847W        W98162  18.734  18.166   2.188
25848W        W98163  33.118  34.452  10.545
25849W        W98164   3.765   9.352   2.267
25850W        W98165  43.280  37.048   3.294
25851W        W98166  21.744  30.015  12.925
25852W        W98167  28.658  25.690   2.731
25853W        W98168  11.700   4.300  14.873
25854W        W98169  30.153  19.639   4.696
25855W        W98170  31.945   1.798  11.015
25856W        W98171   9.737  11.820  11.569
25857W        W98172   7.735  41.390  13.903
25858W        W98173  25.091   2.926   4.117
25859W        W98174  27.567   0.937  13.797
25860W        W98175  20.705  22.250  12.030
25861W        W98176  30.980   2.821   3.359
25862W        W98177   5.762  37.052   0.360
25863W        W98178  24.607   9.865  10.576
25864W        W98179  35.452  38.874  10.477
25865W        W98180   6.737  14.694  14.000
25866W        W98181  28.943  31.925   4.341
25867W        W98182  17.782  37.396   2.370
25868W        W98183  30.080  39.901  13.911
25869W        W98184  13.244  26.519   0.906
25870W        W98185   0.884  13.787   1.749
25871W        W98186  28.543  42.951   2.263
25872W        W98187  11.806  15.595   1.368
25873W        W98188  14.640   1.918  14.306
25874W        W98189  32.937  26.551   2.395
25875W        W98190   8.825  14.742   2.880
25876W        W98191  17.573  15.282   2.367
25877W        W98192   0.475  15.600  13.036
25878W        W98193   3.432  34.903  12.545
25879W        W98194  38.043  24.164   1.721
25880W        W98195  12.282  33.495   0.884
25881W        W98196   7.872  39.884  14.327
25882W        W98197  33.008   7.851   3.177
25883W        W98198  21.742  11.676  12.830
25884W        W98199  25.161  11.282   0.795
25885W        W98200  31.065  28.650  14.285
25886W        W98201   4.751  43.838  11.125
25887W        W98202  35.599  28.004   2.870
25888W        W98203  24.692  10.828   3.811
25889W        W98204  30.446  32.571  12.937
25890W        W98205   5.425   7.379   4.790
25891W        W98206  36.349  31.996  14.310
25892W        W98207  21.585  39.066  13.794
25893W        W98208   9.275   0.972   3.307
25894W        W98209  31.038  15.103   2.848
25895W        W98210  13.331  33.105   1.763
25896W        W98211  34.429   2.396  10.945
25897W        W98212  13.740  32.991  11.940
25898W        W98213  11.167   2.763  12.385
25899W        W98214  22.674   4.343   3.815
25900W        W98215  10.775   9.703   0.300
25901W        W98216   3.455   0.879   0.312
25902W        W98217  29.925   1.285  12.519
25903W        W98218  17.289  12.646  12.369
25904W        W98219  24.658  29.523  11.955
25905W        W98220  33.075  37.463   2.240
25906W        W98221   6.378   6.226  13.040
25907W        W98222  11.170   5.850   0.307
25908W        W98223  30.599   1.935  13.324
25909W        W98224   1.878  21.202  14.304
25910W        W98225  22.011  28.458  13.355
25911W        W98226  20.183  39.475   0.338
25912W        W98227   9.687   7.243  12.471
25913W        W98228  38.054  12.808  13.376
25914W        W98229  34.533  22.062   1.782
25915W        W98230  41.516  11.739   0.785
25916W        W98231   4.364  44.001   0.363
25917W        W98232  40.531   7.747   3.225
25918W        W98233  33.551  19.582   2.802
25919W        W98234  42.937   5.871   9.931
25920W        W98235   2.767   6.365   0.874
25921W        W98236  36.557  38.932  13.902
25922W        W98237  25.125   6.388   2.685
25923W        W98238   7.883   6.271  10.891
25924W        W98239  22.716  21.619   9.949
25925W        W98240  43.425   4.718  12.496
25926W        W98241  18.672  10.746  12.408
25927W        W98242  25.485  28.464  10.510
25928W        W98243  18.754   0.859   0.828
25929W        W98244  16.633   5.708   3.217
25930W        W98245  13.635   4.895   4.299
25931W        W98246  34.568  29.447  11.097
25932W        W98247  36.488  15.607   4.683
25933W        W98248   6.418   8.376  10.969
25934W        W98249  27.509   3.264  12.889
25935W        W98250  40.508  41.911  12.358
25936W        W98251   7.177  27.187   0.925
25937W        W98252  14.746  14.149  10.454
25938W        W98253  32.492  36.362  14.992
25939W        W98254  22.609   5.261   2.814
25940W        W98255  23.611  27.587   1.267
25941W        W98256  17.646   8.831  11.858
25942W        W98257  18.191   4.289  14.459
25943W        W98258  16.280   8.373   2.223
25944W        W98259  39.510   1.479  11.887
25945W        W98260  35.440   0.377   3.278
25946W        W98261  23.074  12.200  11.090
25947W        W98262   0.472   8.757   1.895
25948W        W98263  42.818   6.192  11.069
25949W        W98264  32.412   9.201  14.387
25950W        W98265  20.672   4.740   2.278
25951W        W98266  12.664  27.968  12.948
25952W        W98267  26.993  35.063  13.849
25953W        W98268  37.060  40.995  13.541
25954W        W98269  37.901  27.985   4.224
25955W        W98270  38.938  19.236   4.603
25956W        W98271   5.709  34.368   4.171
25957W        W98272   1.923  28.964  11.530
25958W        W98273   6.768  21.018   3.251
25959W        W98274  12.657   5.692  13.440
25960W        W98275  34.532  39.425   0.812
25961W        W98276  34.922  21.216   2.341
25962W        W98277  35.583   4.368   0.370
25963W        W98278  31.604  38.888  13.862
25964W        W98279  15.283  14.767  13.841
25965W        W98280  11.321  19.117   3.667
25966W        W98281  31.136  38.475   1.398
25967W        W98282  26.007   2.322   0.393
25968W        W98283  42.485  37.911   1.801
25969W        W98284  25.484  18.207  12.383
25970W        W98285  39.333  15.295  14.886
25971W        W98286  25.046  18.130   0.733
25972W        W98287  17.091   5.257   4.640
25973W        W98288   2.438  11.798   9.523
25974W        W98289  44.782  36.931  14.978
25975W        W98290   1.268  11.205   3.863
25976W        W98291   9.392  32.492  13.414
25977W        W98292  30.976  18.106  10.428
25978W        W98293  25.683  20.578  13.965
25979W        W98294   8.898  36.513   3.716
25980W        W98295  17.297  43.958  13.874
25981W        W98296  25.086  43.326   0.859
25982W        W98297  44.292  28.158  13.419
25983W        W98298   9.855   6.275  10.912
25984W        W98299  36.548  31.645   2.844
25985W        W98300  35.421  28.621   3.171
25986W        W98301   7.251  27.956   2.297
25987W        W98302   9.820  27.152  11.995
25988W        W98303   1.934  14.268  12.573
25989W        W98304  20.125  33.053   2.359
25990W        W98305  13.332  16.075   2.679
25991W        W98306  25.176  26.953  11.955
25992W        W98307  33.087  21.146  12.499
25993W        W98308  12.134  26.019   3.262
25994W        W98309  37.530  37.548   1.765
25995W        W98310  29.074  43.020   1.898
25996W        W98311  30.075  33.906  11.932
25997W        W98312   9.700   7.706  11.866
25998W        W98313   9.183  41.921   3.314
25999W        W98314   7.201  41.020   3.787
26000W        W98315   7.254  40.905  13.049
26001W        W98316  22.028   5.860   1.821
26002W        W98317  17.752   0.283   2.225
26003W        W98318  11.786  40.884  14.911
26004W        W98319  22.680  39.356   3.150
26005W        W98320  16.302   5.389   3.838
26006W        W98321  19.180  20.221  13.012
26007W        W98322  20.566  36.552   3.866
26008W        W98323   7.322  29.123   4.326
26009W        W98324   9.810   5.831   4.159
26010W        W98325  31.493  35.009   1.711
26011W        W98326  38.886  37.507  10.611
26012W        W98327  26.585  21.054  12.348
26013W        W98328  44.962   0.443  14.373
26014W        W98329  22.632  35.977  13.543
26015W        W98330  23.700  38.054   1.779
26016W        W98331  17.089  35.049   4.163
26017W        W98332  41.457  28.116   0.933
26018W        W98333  42.475  31.997  13.411
26019W        W98334  17.753  14.818   4.614
26020W        W98335  20.597  37.032   2.898
26021W        W98336  28.064   8.305  11.383
26022W        W98337  39.434   2.399  10.948
26023W        W98338  15.172   4.751   3.245
26024W        W98339   5.237  40.373   1.935
26025W        W98340  10.858  28.480   2.391
26026W        W98341   8.230  29.605   2.182
26027W        W98342  37.909  16.652   0.354
26028W        W98343  40.308  17.252  11.986
26029W        W98344   0.352  42.382   2.662
26030W        W98345  37.491  25.092  14.298
26031W        W98346  38.926  36.906   0.281
26032W        W98347   4.786   9.300  11.610
26033W        W98348  14.659  28.590  12.545
26034W        W98349  35.946   1.295   0.806
26035W        W98350  31.436   7.858  10.976
26036W        W98351  37.975  32.091  14.964
26037W        W98352  31.953  28.651   2.200
26038W        W98353  15.146  21.594  13.807
26039W        W98354  31.552  12.361   1.771
26040W        W98355  38.516  33.540  14.007
26041W        W98356   0.474   4.704  13.867
26042W        W98357  43.969  22.595   2.673
26043W        W98358  13.287  40.872  14.423
26044W        W98359   0.280  26.078  10.631
26045W        W98360   7.403   5.901  10.912
26046W        W98361   7.903  21.212  10.429
26047W        W98362   8.351  33.574   2.285
26048W        W98363  38.408  13.285   0.405
26049W        W98364   9.174  17.580  14.301
26050W        W98365   3.390  21.695  14.846
26051W        W98366  29.996   5.307  14.002
26052W        W98367  24.063  32.423   2.761
26053W        W98368   7.368  31.038  13.908
26054W        W98369  20.135  34.447   4.124
26055W        W98370  14.806  14.232   0.461
26056W        W98371  34.469   1.748   0.325
26057W        W98372  25.218  11.266   4.837
26058W        W98373  36.522   2.897  11.393
26059W        W98374  14.726   5.804  12.093
26060W        W98375  26.601  24.675  10.571
26061W        W98376  25.193  19.575  13.521
26062W        W98377  31.402  34.029  14.882
26063W        W98378  15.821  17.747   3.280
26064W        W98379  37.836   0.475   2.703
26065W        W98380  16.278  27.173   2.297
26066W        W98381  14.821  21.212   3.160
26067W        W98382  16.150   6.303  14.343
26068W        W98383  11.685  33.434  11.453
26069W        W98384   8.883  22.056   0.893
26070W        W98385  14.110  14.172   5.172
26071W        W98386  22.180  28.108  14.398
26072W        W98387  20.740  36.030  14.770
26073W        W98388  30.657  43.923  10.516
26074W        W98389  27.944  42.412  14.767
26075W        W98390   2.851  38.854  10.026
26076W        W98391  44.452  43.842  12.466
26077W        W98392   6.229   2.426  13.362
26078W        W98393   6.233  14.176   3.300
26079W        W98394   9.754  15.309  14.336
26080W        W98395  21.576  34.046  12.062
26081W        W98396   3.886  30.910   4.232
26082W        W98397  29.445  27.178  11.048
26083W        W98398   2.385  13.632   1.306
26084W        W98399   7.890  34.903   3.243
26085W        W98400  42.525   7.188  12.341
26086W        W98401  26.690  33.469   2.179
26087W        W98402  35.455  38.560   4.153
26088W        W98403  39.829   2.806   3.700
26089W        W98404   0.489  22.673   2.756
26090W        W98405  13.295  40.426  10.407
26091W        W98406  38.045  26.552   4.334
26092W        W98407  40.537   8.843   3.647
26093W        W98408  41.440   7.250   0.840
26094W        W98409  22.625   9.198  14.339
26095W        W98410  25.217  26.612  13.532
26096W        W98411  36.350  12.125  14.332
26097W        W98412  37.992  29.499  14.447
26098W        W98413  33.875  41.922   1.313
26099W        W98414  34.922  19.609  13.459
26100W        W98415   0.910   9.199   1.418
26101W        W98416  21.058  38.335  10.913
26102W        W98417   7.252  39.555  11.104
26103W        W98418   4.252  35.000   3.150
26104W        W98419  14.169   2.468   1.726
26105W        W98420  25.097  23.532   4.232
26106W        W98421  21.017   2.462  11.013
26107W        W98422  11.371  12.145  14.835
26108W        W98423  14.613   6.274   3.863
26109W        W98424   8.251  12.156  14.915
26110W        W98425   2.828  23.152   4.742
26111W        W98426  22.098  31.590   1.804
26112W        W98427  12.663   6.377   2.281
26113W        W98428  18.288  38.389   1.256
26114W        W98429  43.428  10.633   5.729
26115W        W98430  26.023  18.615   1.401
26116W        W98431  19.664   7.199  11.521
26117W        W98432  22.727  35.408  14.925
26118W        W98433  11.864  20.108  11.978
26119W        W98434  27.169   3.432  12.382
26120W        W98435  23.729   7.742  13.873
26121W        W98436  12.739  22.687  13.029
26122W        W98437  38.464   7.270  12.508
26123W        W98438  16.598   1.319   0.379
26124W        W98439   2.828   2.905   1.375
26125W        W98440   2.455  15.088   1.801
26126W        W98441  43.480  30.433  13.972
26127W        W98442  17.666  24.125  13.796
26128W        W98443   1.261  40.487  11.101
26129W        W98444  25.214  20.162   4.721
26130W        W98445  36.406  39.861   4.655
26131W        W98446  16.578  32.462   0.868
26132W        W98447  40.052  30.941  14.373
26133W        W98448  36.461  21.657  11.095
26134W        W98449   6.281  29.514   2.216
26135W        W98450   0.928   6.296  11.960
26136W        W98451  28.100   6.715   0.389
26137W        W98452  14.645  42.510   3.772
26138W        W98453  13.710  14.801   4.174
26139W        W98454  16.711  17.117  13.488
26140W        W98455  29.127  26.073   4.262
26141W        W98456  12.645  27.598  12.087
26142W        W98457   0.971  33.882  13.924
26143W        W98458   4.246  26.972  11.914
26144W        W98459  37.955  13.686   1.697
26145W        W98460  12.734   4.303   1.219
26146W        W98461  44.930  40.996  11.983
26147W        W98462   3.408   4.317  11.097
26148W        W98463  32.514   6.406   0.787
26149W        W98464  17.585  39.918  12.998
26150W        W98465  23.571  17.241  12.399
26151W        W98466   2.384  43.451  12.352
26152W        W98467  14.708  14.263   9.957
26153W        W98468  17.160  27.564   0.477
26154W        W98469  28.618  36.010  14.368
26155W        W98470  12.713  27.525  11.599
26156W        W98471  37.011  10.362  11.476
26157W        W98472  16.679  39.330  13.350
26158W        W98473   9.336  34.570   0.927
26159W        W98474  19.601  41.421   2.261
26160W        W98475  36.950   9.848  12.453
26161W        W98476  37.568  12.647   9.981
26162W        W98477  23.209   6.367  12.904
26163W        W98478   1.756  23.021   2.877
26164W        W98479  42.845   3.362  10.942
26165W        W98480   4.385  31.995   4.722
26166W        W98481  41.908   8.656   2.825
26167W        W98482  37.563   0.322   3.197
26168W        W98483  13.280  21.560   3.265
26169W        W98484  18.204  10.676   2.661
26170W        W98485  36.011  22.131   0.848
26171W        W98486  10.307  43.797  10.127
26172W        W98487  43.920   9.345   3.740
26173W        W98488   2.767  12.680  10.420
26174W        W98489  36.918   3.220   4.223
26175W        W98490   4.876  36.453  13.916
26176W        W98491  38.347   9.283  11.125
26177W        W98492   3.291  36.051   3.252
26178W        W98493  24.222  40.323  10.143
26179W        W98494   5.843  19.188  10.934
26180W        W98495  25.147   0.890  13.510
26181W        W98496  21.720  25.081  14.803
26182W        W98497   8.806  44.958   3.869
26183W        W98498   4.762  23.568  11.012
26184W        W98499   9.195  10.730  13.391
26185W        W98500  12.716  36.913  10.528
26186W        W98501   8.333  24.093   3.776
26187W        W98502  36.445  16.639   2.355
26188W        W98503  18.150   3.713   0.771
26189W        W98504  31.141  28.159  14.779
26190W        W98505  18.087  26.681  12.373
26191W        W98506  15.121  18.097  12.476
26192W        W98507  30.103  22.613   3.272
26193W        W98508  15.197  28.979   0.801
26194W        W98509  28.158  29.465   4.823
26195W        W98510  24.642  36.849  10.421
26196W        W98511   2.746  25.534   0.773
26197W        W98512   7.781  33.594   3.751
26198W        W98513  32.062  24.109   0.805
26199W        W98514  24.480  20.548   1.327
26200W        W98515  36.512  26.103  13.942
26201W        W98516   7.732   4.288  11.910
26202W        W98517  44.802  29.443   2.203
26203W        W98518  29.524  42.912  14.995
26204W        W98519  44.989   0.348  14.906
26205W        W98520  30.151  39.458   2.852
26206W        W98521  10.181  29.589   3.286
26207W        W98522   9.721  28.111  12.944
26208W        W98523   1.757  13.314  10.435
26209W        W98524   6.764  31.618   1.812
26210W        W98525   9.841  28.943   4.711
26211W        W98526  11.138  23.580   3.147
26212W        W98527  36.052  40.480   3.252
26213W        W98528   2.838  41.517  13.361
26214W        W98529  32.949  33.002   3.758
26215W        W98530   5.809  34.432   0.798
26216W        W98531   6.383   0.287  13.424
26217W        W98532  20.135  43.974   2.829
26218W        W98533  20.145   3.424  12.888
26219W        W98534  24.491  31.106   2.208
26220W        W98535  17.557  15.607   4.321
26221W        W98536   5.310  19.233  12.441
26222W        W98537   8.304  13.247  12.011
26223W        W98538  21.240   4.731  14.313
26224W        W98539  22.203   0.901   1.891
26225W        W98540  19.157   7.414  14.366
26226W        W98541  22.635  23.583   4.252
26227W        W98542  31.933  32.495   3.792
26228W        W98543  10.786  38.548  10.909
26229W        W98544  34.533  42.963  11.498
26230W        W98545  18.166  30.576  12.447
26231W        W98546  10.259  23.061  11.991
26232W        W98547  13.189   9.684  10.453
26233W        W98548  11.349  33.114  13.037
26234W        W98549  44.975  15.222  14.490
26235W        W98550  30.911  34.416  10.119
26236W        W98551  24.174  42.845   0.460
26237W        W98552  28.046  22.131   3.195
26238W        W98553  13.274  32.129  11.878
26239W        W98554  15.205   3.410   5.284
26240W        W98555  34.523  28.057   2.380
26241W        W98556  33.020  11.847   3.199
26242W        W98557  28.653   7.339   0.809
26243W        W98558  42.844  24.601  13.812
26244W        W98559  38.870   6.900  11.547
26245W        W98560  24.589  32.501   0.473
26246W        W98561  37.368  10.781  13.942
26247W        W98562   3.428  15.273   1.868
26248W        W98563  35.050  33.505   2.707
26249W        W98564   0.490  38.858  12.947
26250W        W98565  36.088  43.275   3.169
26251W        W98566  15.310  36.400   1.749
26252W        W98567   6.866  19.763   4.302
26253W        W98568   4.378  31.431   3.803
26254W        W98569  11.146  27.092   3.289
26255W        W98570  26.692  18.547  14.933
26256W        W98571  43.799  19.640  13.460
26257W        W98572  28.179  10.257  10.932
26258W        W98573  23.626  25.680  10.621
26259W        W98574  38.336   8.658   4.751
26260W        W98575   8.250  27.022  12.548
26261W        W98576  10.310  19.760   3.294
26262W        W98577  22.558  11.654   2.772
26263W        W98578  20.576  28.970   0.963
26264W        W98579  25.697  12.618   0.803
26265W        W98580  28.676  19.727   5.207
26266W        W98581  33.511  36.514   1.873
26267W        W98582  11.216   5.836   4.750
26268W        W98583  25.071  43.396  12.866
26269W        W98584  33.473  21.076   0.439
26270W        W98585   6.769  15.088   1.780
26271W        W98586  18.061  42.390   0.358
26272W        W98587  40.429  42.338  10.905
26273W        W98588  14.166  14.781  12.383
26274W        W98589  32.453  23.061   0.252
26275W        W98590   2.810  28.498   3.804
26276W        W98591  16.723  15.719  13.310
26277W        W98592  19.751   9.677   2.240
26278W        W98593  25.989   8.165   4.303
26279W        W98594  41.949  31.556  13.417
26280W        W98595  38.975  32.959  12.033
26281W        W98596  29.587  43.512  13.402
26282W        W98597  26.572  27.459   0.767
26283W        W98598  24.089  36.353  10.635
26284W        W98599  39.321  21.220  12.523
26285W        W98600  37.059  26.201   2.833
26286W        W98601   1.879  20.226   1.727
26287W        W98602  36.015  15.143  10.604
26288W        W98603  36.424  39.985   3.826
26289W        W98604  31.556  29.137  10.556
26290W        W98605  44.891  39.950  13.797
26291W        W98606   8.738  44.278   2.311
26292W        W98607  17.243  41.521  14.514
26293W        W98608  33.537   3.451  13.444
26294W        W98609  38.998  14.690  11.609
26295W        W98610  15.693  20.652  13.857
26296W        W98611  38.971   2.466   0.842
26297W        W98612  32.894  22.572   3.308
26298W        W98613  22.112  11.821  13.428
26299W        W98614   7.231   0.274  11.547
26300W        W98615  21.051   6.759  13.941
26301W        W98616  27.542  32.491   9.969
26302W        W98617  36.356   7.411   4.747
26303W        W98618   5.223  38.528   1.716
26304W        W98619  21.261   2.241   4.700
26305W        W98620  20.182  22.244   2.848
26306W        W98621  33.385  25.515  13.019
26307W        W98622  11.360  37.866   1.830
26308W        W98623  33.003   6.354   3.828
26309W        W98624  14.328   0.392   1.857
26310W        W98625  24.527   6.339   1.796
26311W        W98626  16.080  22.082  10.408
26312W        W98627  33.948  31.091  12.388
26313W        W98628  41.512  33.447  10.972
26314W        W98629  42.501  10.833  11.095
26315W        W98630   3.797  22.107  10.958
26316W        W98631  40.933  22.111   3.311
26317W        W98632   9.346  10.831  11.992
26318W        W98633   5.914  26.146   3.367
26319W        W98634  22.226  37.522  12.969
26320W        W98635   4.360  35.936   0.935
26321W        W98636   4.430   7.863   2.413
26322W        W98637  33.552  35.534   3.842
26323W        W98638  21.239  25.709  12.472
26324W        W98639  40.313  32.887   0.426
26325W        W98640  36.067  26.180  13.937
26326W        W98641  12.658  24.167   4.599
26327W        W98642  26.972   1.766   1.267
26328W        W98643  28.595  10.637   1.756
26329W        W98644  21.587  28.986   1.243
26330W        W98645  44.269  36.562  12.931
26331W        W98646  21.533  23.195  12.977
26332W        W98647  37.428  40.902   4.208
26333W        W98648   0.951  21.665  14.835
26334W        W98649   7.234  25.512   4.671
26335W        W98650  44.368   9.321   3.799
26336W        W98651  22.724  26.953   4.679
26337W        W98652  29.173  11.364   4.833
26338W        W98653   5.760  27.024  11.921
26339W        W98654  37.497   5.356   3.345
26340W        W98655  31.586  21.103   3.381
26341W        W98656  15.607  24.112  13.040
26342W        W98657  29.922  35.525  14.481
26343W        W98658  35.068  37.541   0.940
26344W        W98659  28.476  13.132  13.860
26345W        W98660  39.452  19.726   2.353
26346W        W98661  14.687   6.688  13.468
26347W        W98662  31.527  12.715  13.859
26348W        W98663   4.727  32.071   3.254
26349W        W98664  29.163  44.436  13.348
26350W        W98665  44.307   5.807   1.800
26351W        W98666  13.267  21.083   3.863
26352W        W98667  17.081  22.083   3.328
26353W        W98668  22.171  23.023   3.730
26354W        W98669  37.910  30.910  10.561
26355W        W98670  27.559  32.445  12.989
26356W        W98671  35.514  26.620   0.377
26357W        W98672  24.096  39.994  14.768
26358W        W98673  14.665  38.826   1.409
26359W        W98674  40.044  12.139  11.556
26360W        W98675  26.561  27.051  11.410
26361W        W98676  20.251  17.760  12.387
26362W        W98677   8.741   1.927   0.463
26363W        W98678  27.476  32.963   0.434
26364W        W98679  40.364  17.573   2.695
26365W        W98680   3.240  30.988   1.806
26366W        W98681  43.975  25.162   3.779
26367W        W98682   8.787  39.556  12.511
26368W        W98683   0.781  41.532   2.372
26369W        W98684  13.609  27.651  13.471
26370W        W98685  34.965  10.297   0.911
26371W        W98686  13.632  10.681  10.440
26372W        W98687   7.263  13.680   3.820
26373W        W98688   0.259   6.729   1.319
26374W        W98689  27.691   7.182   4.607
26375W        W98690  29.163  30.545   1.353
26376W        W98691   8.298  13.279  12.950
26377W        W98692  24.678  14.723   0.760
26378W        W98693  20.090  42.933   0.316
26379W        W98694  22.629  40.965  14.988
26380W        W98695  22.223  30.028   3.308
26381W        W98696  31.058   5.804   4.769
26382W        W98697   0.847  21.561  14.019
26383W        W98698   7.896  14.337   4.635
26384W        W98699  36.086  12.644   0.407
26385W        W98700  12.152  27.612   4.667
26386W        W98701   4.400   9.716  13.450
26387W        W98702   0.788  11.277   4.683
26388W        W98703   0.962  17.227   1.439
26389W        W98704  21.660  24.725  11.404
26390W        W98705  28.608  31.602   0.436
26391W        W98706  15.291   2.725  14.793
26392W        W98707  15.797  12.203   0.300
26393W        W98708  39.038  42.802  10.459
26394W        W98709  20.176  30.416  13.977
26395W        W98710   2.379  26.141  11.413
26396W        W98711  20.200  12.243  14.304
26397W        W98712  10.862   8.774  14.292
26398W        W98713  16.636   5.716  10.422
26399W        W98714   3.396  21.145   4.784
26400W        W98715  36.952  18.197  13.458
26401W        W98716  29.549   5.890  12.916
26402W        W98717  23.093  23.055  10.435
26403W        W98718  38.523  32.931  13.929
26404W        W98719   8.217  29.130   4.666
26405W        W98720  38.329  17.084   2.375
26406W        W98721  25.018  42.844   1.266
26407W        W98722   3.396   7.671  14.949
26408W        W98723   1.830  10.157   2.296
26409W        W98724   0.465  11.775  13.949
26410W        W98725  43.325  13.836  12.876
26411W        W98726  16.733  32.121   1.825
26412W        W98727   1.350  25.193  14.350
26413W        W98728  11.148  42.417   1.231
26414W        W98729  40.457  15.171   0.891
26415W        W98730  15.161   6.869  12.466
26416W        W98731   9.280  17.712  11.542
26417W        W98732  35.379   5.739   0.806
26418W        W98733  15.624  10.873  10.948
26419W        W98734   3.338  32.545   1.696
26420W        W98735   0.449  36.844   3.246
26421W        W98736  32.125   0.440  11.125
26422W        W98737   7.743  41.469   1.238
26423W        W98738  29.492   4.791  10.924
26424W        W98739  44.967  28.562   1.850
26425W        W98740   4.765  27.638  12.049
26426W        W98741  30.077   4.875  13.944
26427W        W98742  26.054   0.373  13.960
26428W        W98743   2.782  36.084   0.478
26429W        W98744   8.700  38.959   3.785
26430W        W98745  24.628  27.578  14.471
26431W        W98746  33.527  18.630   4.601
26432W        W98747  11.812  38.983  11.542
26433W        W98748  19.240  16.112  12.852
26434W        W98749  29.005  41.898   4.675
26435W        W98750  19.631  12.786   1.316
26436W        W98751  41.482  44.380   1.385
26437W        W98752  21.698  41.804  13.426
26438W        W98753   0.930  43.473  11.486
26439W        W98754  32.971  37.927   3.215
26440W        W98755  25.971   9.267  12.966
26441W        W98756  22.251   5.803   0.882
26442W        W98757   9.361  33.945  12.356
26443W        W98758  15.276  29.141  14.809
26444W        W98759   6.859  20.560   0.460
26445W        W98760  31.546  17.783  14.012
26446W        W98761  24.646   9.326   4.710
26447W        W98762  22.186  20.664   0.267
26448W        W98763  37.375  19.682  14.300
26449W        W98764  12.258  12.662  12.015
26450W        W98765  26.509   6.756   3.718
26451W        W98766  41.500  19.231   1.862
26452W        W98767  37.454  11.719  11.425
26453W        W98768   1.942  43.271   0.921
26454W        W98769   1.271  10.348  10.017
26455W        W98770  33.404  25.558  14.323
26456W        W98771  25.694  43.408   2.381
26457W        W98772  18.229   4.298   1.257
26458W        W98773  39.024   2.319   1.785
26459W        W98774   1.865  10.179   3.164
26460W        W98775  27.689  18.658   1.311
26461W        W98776  28.542  15.662  12.481
26462W        W98777  17.195  36.077   4.322
26463W        W98778  18.748  36.086   3.870
26464W        W98779  13.232  33.070  12.831
26465W        W98780  25.646  44.274  11.101
26466W        W98781   6.882  31.999  14.328
26467W        W98782  24.637  16.729   4.753
26468W        W98783   0.261  33.426   2.857
26469W        W98784  11.133  14.106  11.446
26470W        W98785   7.868  16.611   4.331
26471W        W98786  29.997  20.612   4.225
26472W        W98787  25.115   7.814   0.805
26473W        W98788  33.430   5.780   1.281
26474W        W98789  43.412  18.068   2.259
26475W        W98790  24.087  39.509   4.153
26476W        W98791  24.117  13.670  10.986
26477W        W98792   1.968  19.075   1.235
26478W        W98793   9.668  44.427   2.735
26479W        W98794  37.521   3.928   3.158
26480W        W98795  23.507  23.492   3.339
26481W        W98796  32.912  18.641   0.813
26482W        W98797  14.590  30.475   1.704
26483W        W98798   6.295   5.202   4.825
26484W        W98799  36.974  19.131  14.435
26485W        W98800  38.830  35.883   4.124
26486W        W98801   4.404  24.210  14.303
26487W        W98802  33.119  40.974   3.779
26488W        W98803  33.428  19.167  12.527
26489W        W98804  24.679  30.103   2.400
26490W        W98805  17.290   2.368   0.865
26491W        W98806  36.889   1.453  13.533
26492W        W98807  18.296   2.918   2.323
26493W        W98808  34.945  33.045   0.885
26494W        W98809   4.285  39.544  13.544
26495W        W98810  31.582   3.399  13.837
26496W        W98811  44.986  32.518   3.730
26497W        W98812  44.348   6.779   4.725
26498W        W98813   0.868  13.243  13.856
26499W        W98814  38.458  10.811   3.845
26500W        W98815  40.311  12.235   3.745
26501W        W98816   0.833  43.375  11.047
26502W        W98817  36.016  15.642  13.339
26503W        W98818  43.991  28.650   1.768
26504W        W98819  29.549  20.717   1.839
26505W        W98820   3.305  42.280  11.868
26506W        W98821  30.044   0.828   2.252
26507W        W98822  37.018  44.439  14.797
26508W        W98823  17.286  30.986  13.534
26509W        W98824  40.978  38.489   4.764
26510W        W98825  31.032  29.923   0.939
26511W        W98826  40.353  36.423   2.794
26512W        W98827   2.320  18.152  12.383
26513W        W98828  39.033  22.205   2.419
26514W        W98829  25.095   4.241  14.840
26515W        W98830  24.128  31.647  13.864
26516W        W98831  28.018  39.452   0.277
26517W        W98832  19.682  40.323   1.931
26518W        W98833  10.861   2.929  11.929
26519W        W98834  35.106  30.643  13.545
26520W        W98835  21.143  11.229  13.483
26521W        W98836  21.201  39.970  11.396
26522W        W98837   3.405  41.447   0.325
26523W        W98838  30.921  26.681  13.050
26524W        W98839  21.062   9.709  12.011
26525W        W98840  37.439   7.865   2.328
26526W        W98841   5.277  35.470   1.292
26527W        W98842  42.970  26.137   3.841
26528W        W98843  36.028   3.878  12.083
26529W        W98844  28.129   9.853  12.825
26530W        W98845  10.830  34.531  14.007
26531W        W98846  39.034  36.410  11.569
26532W        W98847  23.020  23.107  14.341
26533W        W98848   1.256   1.346  11.484
26534W        W98849  18.078  11.680  13.012
26535W        W98850  37.493   5.846  13.510
26536W        W98851   5.390  43.785   4.807
26537W        W98852   3.714  29.999  10.619
26538W        W98853  27.524   6.801  14.789
26539W        W98854  11.245  23.687  14.793
26540W        W98855  28.974   5.932   1.320
26541W        W98856  34.864  14.164   5.320
26542W        W98857  20.220  42.948   1.715
26543W        W98858   9.777  15.629  14.334
26544W        W98859   1.453  34.610   0.841
26545W        W98860  35.367  39.029   1.299
26546W        W98861  12.335  30.656  10.468
26547W        W98862  29.612   9.749   3.649
26548W        W98863  37.971  35.379   0.265
26549W        W98864   6.760   7.712   1.779
26550W        W98865  44.861   7.902  13.356
26551W        W98866  14.148  21.594  10.556
26552W        W98867  26.953  36.864  14.477
26553W        W98868  12.178   5.363   0.396
26554W        W98869   4.893  16.795   3.664
26555W        W98870  20.124  23.647  10.615
26556W        W98871  40.828   9.751   1.885
26557W        W98872  24.028  38.901  14.994
26558W        W98873  32.074  31.441  11.587
26559W        W98874  19.188  37.349   3.695
26560W        W98875  25.039  15.760   2.346
26561W        W98876  38.934   6.404   4.723
26562W        W98877  33.962  33.571   2.749
26563W        W98878  40.912  37.386   4.669
26564W        W98879  20.141  28.179  10.121
26565W        W98880  39.865   4.400   1.435
26566W        W98881  26.960   2.951  11.585
26567W        W98882  35.552   5.750  14.491
26568W        W98883  10.364  14.782   3.722
26569W        W98884  35.906  40.408   1.220
26570W        W98885  20.086  41.956   3.274
26571W        W98886  27.690  25.554  13.871
26572W        W98887  31.111  20.085  12.825
26573W        W98888  27.942  40.032  10.075
26574W        W98889  17.596  36.348  10.510
26575W        W98890  12.818  29.556  14.394
26576W        W98891  40.895  29.048  12.875
26577W        W98892  41.343  41.935   4.211
26578W        W98893  33.443  43.015  10.018
26579W        W98894  22.167  13.828  11.435
26580W        W98895  27.105  35.910  10.950
26581W        W98896  39.930  41.465  12.895
26582W        W98897  23.034   1.253  14.389
26583W        W98898  44.406  40.342   0.765
26584W        W98899  39.361  23.636   4.646
26585W        W98900  34.026  20.658   4.766
26586W        W98901  40.452  39.840   2.740
26587W        W98902  11.725  37.062   2.699
26588W        W98903  19.260  44.961  13.982
26589W        W98904  37.418   5.847  10.587
26590W        W98905  14.631   7.331   1.265
26591W        W98906  41.310   5.923  11.124
26592W        W98907  34.903  35.853   2.384
26593W        W98908  25.541   5.332   2.828
26594W        W98909  11.732  10.309   9.983
26595W        W98910  16.753  30.597  12.095
26596W        W98911   3.295  40.801  11.025
26597W        W98912  14.654  28.166  11.878
26598W        W98913  37.476  38.502  13.031
26599W        W98914  11.254  39.434  14.954
26600W        W98915  34.412  32.968  12.437
26601W        W98916  44.001  10.286  10.446
26602W        W98917   8.723  33.961  10.987
26603W        W98918  15.745  29.166   5.103
26604W        W98919  15.740  37.478  12.539
26605W        W98920  36.417  26.630  14.793
26606W        W98921  14.816  37.938  11.997
26607W        W98922  18.260  33.601   2.827
26608W        W98923  10.728  43.317  12.451
26609W        W98924  27.606   5.365  14.836
26610W        W98925   2.396  19.601  11.498
26611W        W98926  41.948  28.673  14.947
26612W        W98927   2.947  10.270  11.400
26613W        W98928  38.542  18.674   4.237
26614W        W98929  26.951   6.753   3.668
26615W        W98930  27.568  25.193   3.273
26616W        W98931   9.827  39.398   0.828
26617W        W98932  26.484  42.850  11.943
26618W        W98933   2.385  12.807   0.925
26619W        W98934  28.617  22.700  14.423
26620W        W98935  15.109  14.220  11.033
26621W        W98936   7.273   3.897  14.382
26622W        W98937  27.513  18.063  12.469
26623W        W98938   1.452   7.417  13.931
26624W        W98939   0.802  22.504   4.619
26625W        W98940  36.373  25.549  14.946
26626W        W98941  43.294  31.080  12.436
26627W        W98942  33.884   2.283  10.919
26628W        W98943  40.432  11.723  14.918
26629W        W98944  42.410  37.891   0.731
26630W        W98945  13.324  15.716  10.019
26631W        W98946   3.751  11.330   2.681
26632W        W98947  16.810  15.321   1.922
26633W        W98948  32.567   7.174   1.396
26634W        W98949   1.297  26.476  12.040
26635W        W98950  11.263  43.506  12.017
26636W        W98951  36.435  15.770   2.715
26637W        W98952  32.989   5.789  11.944
26638W        W98953  13.292  12.856  10.625
26639W        W98954   6.393  13.612   3.228
26640W        W98955  27.950  36.873  12.969
26641W        W98956   8.758  24.626   2.207
26642W        W98957  21.040  35.876  11.510
26643W        W98958  26.554  27.509   1.922
26644W        W98959  29.570  32.951   2.342
26645W        W98960  15.239  24.623  12.965
26646W        W98961  26.669  43.785   0.252
26647W        W98962  34.475  24.613  12.914
26648W        W98963  26.163  28.993  12.346
26649W        W98964  41.342  15.287   4.827
26650W        W98965  25.520  25.122   9.933
26651W        W98966  28.559  10.173  10.062
26652W        W98967  10.844   1.786  13.036
26653W        W98968  35.910   8.667   1.433
26654W        W98969  28.596  20.616   0.320
26655W        W98970   6.843  23.052  12.940
26656W        W98971  27.086  19.099  13.519
26657W        W98972  10.158   8.762   4.654
26658W        W98973  10.717  41.395  11.502
26659W        W98974  42.396  19.071  13.522
26660W        W98975  34.042   3.426  13.309
26661W        W98976  24.581  38.324   2.670
26662W        W98977  36.063  43.003   0.433
26663W        W98978  12.669  25.075  14.024
26664W        W98979   3.315   3.432  13.057
26665W        W98980  37.032  25.643  10.956
26666W        W98981  29.103   5.345   2.265
26667W        W98982  34.391  19.098   2.710
26668W        W98983  20.606  21.139  14.925
26669W        W98984  33.520   0.945  11.113
26670W        W98985  42.992  32.905  11.978
26671W        W98986  14.144  43.469  14.953
26672W        W98987  29.072  13.733  13.464
26673W        W98988  41.846  11.701   5.231
26674W        W98989  36.550  26.587  10.923
26675W        W98990  13.165  44.367  14.511
26676W        W98991  33.078  20.593  13.501
26677W        W98992  41.978  38.453  14.421
26678W        W98993  25.615  37.523  11.505
26679W        W98994   4.403  10.173   2.782
26680W        W98995  44.276   9.885   0.409
26681W        W98996  19.581  25.671  14.377
26682W        W98997  42.793  31.593   4.120
26683W        W98998   3.455  24.494  13.370
26684W        W98999  36.081  11.796  13.424
26685W        W99000  36.064  29.490   3.225
26686W        W99001  29.562  12.857  11.377
26687W        W99002  34.557  24.554  14.970
26688W        W99003  28.073  43.008  10.596
26689W        W99004  31.456  16.193   1.891
26690W        W99005  11.696  21.752   0.871
26691W        W99006  37.005  43.829   2.675
26692W        W99007  38.406  23.028   9.436
26693W        W99008  20.536  34.492  11.053
26694W        W99009  43.422  21.729  12.417
26695W        W99010  13.838   7.888  11.118
26696W        W99011   5.202  14.155  12.021
26697W        W99012  28.530  24.626   1.753
26698W        W99013  20.173  14.210  12.956
26699W        W99014   2.371  19.670   2.184
26700W        W99015   0.869  42.867   0.267
26701W        W99016  19.139  25.069  13.970
26702W        W99017  31.571  12.813   3.785
26703W        W99018  23.229  26.625  13.431
26704W        W99019  33.992  10.775  14.493
26705W        W99020  36.010  32.966  12.039
26706W        W99021  10.732  44.861   1.752
26707W        W99022  25.985   4.302  11.097
26708W        W99023   5.908  30.074  14.758
26709W        W99024   8.321  29.530   0.938
26710W        W99025  18.703  37.384  10.432
26711W        W99026   0.891  44.461   0.275
26712W        W99027  43.484  29.085  13.891
26713W        W99028  41.336   4.391  11.983
26714W        W99029  38.375  26.164  12.427
26715W        W99030  23.225   6.826   3.655
26716W        W99031  12.768  28.954  12.449
26717W        W99032  35.972   6.224  11.607
26718W        W99033   6.892  37.412  10.520
26719W        W99034  44.373  43.958   4.255
26720W        W99035   3.339  29.167   1.300
26721W        W99036   0.494  37.464   1.394
26722W        W99037   4.231  42.399  13.850
26723W        W99038  41.347  18.641   4.668
26724W        W99039  13.605   0.800   3.382
26725W        W99040   6.393  30.650   5.322
26726W        W99041   3.451   8.899  11.393
26727W        W99042  21.127  36.039   2.271
26728W        W99043   3.389  43.350   3.746
26729W        W99044  44.800  34.596  14.970
26730W        W99045  25.082  19.114   3.812
26731W        W99046  33.439  14.288   1.235
26732W        W99047  36.844  17.596  13.539
26733W        W99048   7.354  24.039  14.030
26734W        W99049  17.658   1.316  12.916
26735W        W99050  22.741  43.425  12.394
26736W        W99051  32.043  13.251   1.401
26737W        W99052  27.025   4.236   1.212
26738W        W99053  23.525  34.552  12.963
26739W        W99054  20.037  21.597  14.010
26740W        W99055  37.438  15.185  11.041
26741W        W99056  38.878  38.410  11.537
26742W        W99057  25.216  32.445   0.452
26743W        W99058  29.578  14.773  14.990
26744W        W99059   6.849  42.363   2.182
26745W        W99060  39.520   6.688   3.264
26746W        W99061   0.874  33.602  13.855
26747W        W99062  16.793  40.447   2.239
26748W        W99063  22.691  30.650   3.860
26749W        W99064  32.139   8.768   1.393
26750W        W99065  24.209  26.615   4.708
26751W        W99066  37.491  35.015   0.835
26752W        W99067  25.966  13.341   2.741
26753W        W99068  42.004  10.198   0.917
26754W        W99069  16.761  23.504  12.547
26755W        W99070  33.995   6.382  11.961
26756W        W99071  20.535  18.176  13.015
26757W        W99072  28.067  33.987   3.205
26758W        W99073  35.461  22.558  12.553
26759W        W99074  41.979  34.977   4.192
26760W        W99075   3.231  14.830   3.277
26761W        W99076   8.861  29.076   0.455
26762W        W99077  30.650   8.768  10.410
26763W        W99078  29.948  29.466   0.900
26764W        W99079   7.306  23.042  12.477
26765W        W99080  42.912  30.938   0.961
26766W        W99081   8.799  26.067  13.328
26767W        W99082   7.253  14.197  13.367
26768W        W99083  14.807   2.280   3.377
26769W        W99084  31.107   9.180  13.352
26770W        W99085   3.863  38.972   2.217
26771W        W99086  40.446  21.215   4.125
26772W        W99087  33.541  16.801  10.407
26773W        W99088  22.162  11.756   2.322
26774W        W99089  21.521  14.671  14.924
26775W        W99090   0.858  32.054  13.508
26776W        W99091  10.341  43.781  12.385
26777W        W99092  23.045  21.513  10.154
26778W        W99093  16.196  35.927  14.781
26779W        W99094  39.940  39.840  13.796
26780W        W99095  33.059  33.879   1.833
26781W        W99096   2.957   0.334   3.304
26782W        W99097  39.937  15.289  12.071
26783W        W99098  11.797  18.687  11.962
26784W        W99099  32.089   6.847  11.109
26785W        W99100  39.322  19.630  13.366
26786W        W99101  36.039  35.521  11.537
26787W        W99102   9.868  23.127   1.372
26788W        W99103   9.229  43.832   4.739
26789W        W99104  40.513  25.083   0.799
26790W        W99105  23.067  38.997  11.111
26791W        W99106   3.745  39.329  13.001
26792W        W99107  30.085  33.461  11.403
26793W        W99108  22.607  40.818   2.246
26794W        W99109  32.614  42.925   5.171
26795W        W99110  43.344  13.290  11.068
26796W        W99111  27.660  19.691  14.425
26797W        W99112  18.185  40.306   3.730
26798W        W99113  18.060  41.992   4.734
26799W        W99114  30.554  36.562  11.429
26800W        W99115  19.115  21.627  11.907
26801W        W99116  32.062   0.335   3.803
26802W        W99117  27.500  34.104   2.877
26803W        W99118  44.425  35.855  10.067
26804W        W99119   4.782  30.439  10.574
26805W        W99120  19.200  15.200   2.765
26806W        W99121   2.437  37.574   9.968
26807W        W99122   6.346   2.791  10.404
26808W        W99123  38.406  44.418  14.483
26809W        W99124   9.307   7.823   4.615
26810W        W99125  17.600  42.975   5.199
26811W        W99126  43.443  12.793  12.548
26812W        W99127   4.792  28.938  13.064
26813W        W99128  35.520   0.309  14.460
26814W        W99129  41.891   9.390  10.598
26815W        W99130  13.287  22.625  12.578
26816W        W99131  12.274  24.675   0.276
26817W        W99132   7.896   8.301   3.229
26818W        W99133  23.081   3.285  14.445
26819W        W99134  30.574  30.923  14.479
26820W        W99135  43.321   2.824  12.429
26821W        W99136  13.223  38.429  13.887
26822W        W99137   6.745  25.179  11.917
26823W        W99138  25.603  10.243  13.470
26824W        W99139  24.534  21.090  12.979
26825W        W99140   5.302  23.047   3.749
26826W        W99141  17.269  11.230  13.344
26827W        W99142  11.127  34.488   2.776
26828W        W99143  27.194  19.073   4.603
26829W        W99144   4.760  15.107  13.047
26830W        W99145  31.423   9.876  14.397
26831W        W99146  28.074  24.976  13.858
26832W        W99147  33.399  31.068   2.329
26833W        W99148  35.601  30.532  12.455
26834W        W99149  17.119  30.154   9.978
26835W        W99150  37.024  29.023  14.340
26836W        W99151   8.665   2.449  11.509
26837W        W99152  34.947  35.904  10.924
26838W        W99153   8.296  37.344  13.822
26839W        W99154  34.032  16.108   1.927
26840W        W99155   5.775   4.832   3.278
26841W        W99156   1.893   9.162  12.462
26842W        W99157  36.506  35.550   0.860
26843W        W99158   1.451   5.810   3.351
26844W        W99159  24.701   5.415  10.582
26845W        W99160  16.190  19.593  14.835
26846W        W99161   5.374  36.868  13.988
26847W        W99162  16.293  31.599   0.781
26848W        W99163  10.859   1.266  12.020
26849W        W99164  19.717  21.563  14.462
26850W        W99165  23.606  30.982  13.861
26851W        W99166  30.624  44.757  13.394
26852W        W99167  36.517  20.030  11.519
26853W        W99168  28.650   0.382  11.381
26854W        W99169  41.034  44.913  11.986
26855W        W99170  29.460  42.396   3.853
26856W        W99171  25.210   1.304  14.370
26857W        W99172   0.843  42.858   1.873
26858W        W99173  11.216  21.146  10.068
26859W        W99174  26.137   2.269  13.425
26860W        W99175   7.690  12.632  10.631
26861W        W99176  23.144   4.406   0.962
26862W        W99177  31.079  17.770   3.839
26863W        W99178   8.368  20.648  12.464
26864W        W99179  33.536  20.709  14.814
26865W        W99180  11.221  14.298   1.797
26866W        W99181  12.785   5.391   1.822
26867W        W99182  12.646   6.709  10.468
26868W        W99183  35.082  32.531   1.874
26869W        W99184  29.572  27.119   2.788
26870W        W99185   5.888   8.215  14.401
26871W        W99186  30.089   7.834   2.795
26872W        W99187  20.643  19.701  14.772
26873W        W99188   7.294   5.390   3.681
26874W        W99189  41.483  27.959  13.865
26875W        W99190  29.997  27.944  11.551
26876W        W99191   5.414   9.169   1.234
26877W        W99192  34.592  12.320  12.370
26878W        W99193  16.146  37.414   4.165
26879W        W99194  12.719   9.712   2.780
26880W        W99195  29.656  23.581  13.034
26881W        W99196  30.014  34.111  13.544
26882W        W99197  22.187   2.317  11.004
26883W        W99198  13.703  38.945   1.841
26884W        W99199  40.004  32.928  14.403
26885W        W99200  29.593  36.858  13.953
26886W        W99201   7.351  22.038   2.304
26887W        W99202  18.784  44.965  14.963
26888W        W99203  21.063  27.496   3.697
26889W        W99204  25.121   3.231   0.456
26890W        W99205   3.376  20.541  12.968
26891W        W99206   4.863   1.483   4.324
26892W        W99207  23.218  11.265  13.364
26893W        W99208  26.566   2.253   0.820
26894W        W99209  32.905   7.198  12.001
26895W        W99210   6.281  43.420   2.708
26896W        W99211  39.378  39.491  14.491
26897W        W99212  35.953  35.871  13.894
26898W        W99213   2.266  26.166   3.629
26899W        W99214  10.689  43.424   2.191
26900W        W99215  42.513  13.757   2.686
26901W        W99216  13.116  33.507  13.974
26902W        W99217  34.408  10.796   2.901
26903W        W99218  28.609   4.759   3.231
26904W        W99219  18.788  20.589  12.382
26905W        W99220  30.936   0.889  12.523
26906W        W99221  42.976  17.644  11.456
26907W        W99222  21.057  40.045  10.954
26908W        W99223  28.963  17.669  10.582
26909W        W99224  41.524  37.525   1.799
26910W        W99225   8.190  33.937  14.481
26911W        W99226  23.732  16.224   2.290
26912W        W99227   7.795   2.226   0.353
26913W        W99228  22.576  31.114  12.909
26914W        W99229  26.953  17.584   1.766
26915W        W99230  13.836  32.452   2.323
26916W        W99231  43.317  36.867   1.422
26917W        W99232   5.273   8.772   2.839
26918W        W99233  22.158  41.484  11.405
26919W        W99234  16.261   0.940   1.306
26920W        W99235  39.496   0.967  14.497
26921W        W99236  16.253  31.898   2.385
26922W        W99237  19.158   4.729   2.689
26923W        W99238  10.374  41.859  14.892
26924W        W99239  26.566  31.640  10.575
26925W        W99240   6.922   2.283   4.200
26926W        W99241  43.938  37.458   3.754
26927W        W99242  14.226   2.963   0.359
26928W        W99243  31.597  23.026   1.884
26929W        W99244   6.372  27.587   0.889
26930W        W99245  13.212  41.395  10.604
26931W        W99246  35.030  15.307  14.991
26932W        W99247  32.002  27.482   4.320
26933W        W99248  19.601  23.674  10.897
26934W        W99249   1.762  40.006   0.804
26935W        W99250  36.986   3.311  11.122
26936W        W99251  21.588  37.519  10.561
26937W        W99252  30.492   3.929   0.767
26938W        W99253  41.435  26.118   0.928
26939W        W99254  44.324  33.904  12.576
26940W        W99255  43.367  23.999   2.345
26941W        W99256  26.629  13.163  11.855
26942W        W99257  36.593  10.856   1.408
26943W        W99258   5.930  26.167   0.896
26944W        W99259   8.183  39.063  10.492
26945W        W99260  25.579  35.004   4.298
26946W        W99261  13.223  31.465  10.638
26947W        W99262  13.236  36.555  12.408
26948W        W99263  23.599   3.320  14.761
26949W        W99264  12.683  27.022   0.457
26950W        W99265  31.596  12.241   0.880
26951W        W99266  43.395  15.310  11.930
26952W        W99267  17.618  21.188   3.316
26953W        W99268  12.720  30.981  11.611
26954W        W99269  16.187   1.732  13.026
26955W        W99270  17.673  28.069  11.526
26956W        W99271   2.429  42.024  12.412
26957W        W99272  37.859  17.076  13.821
26958W        W99273  14.699   8.817  12.484
26959W        W99274  39.362  23.000  11.089
26960W        W99275  23.648  32.911   4.820
26961W        W99276   6.735   0.391  10.519
26962W        W99277  33.523   4.405   0.441
26963W        W99278  15.667  17.190  12.094
26964W        W99279  13.268  35.861   5.196
26965W        W99280   0.253  40.920   0.732
26966W        W99281  38.459  29.106   1.268
26967W        W99282  26.962   6.200   4.658
26968W        W99283   6.909  36.941  10.982
26969W        W99284  10.828   5.355   3.866
26970W        W99285  34.423   3.866   2.222
26971W        W99286  37.017  13.636   3.708
26972W        W99287  26.158  24.626   2.663
26973W        W99288  12.791  10.205  12.001
26974W        W99289  23.036  15.195   3.230
26975W        W99290  30.140  17.801  12.376
26976W        W99291  42.939  24.983  11.433
26977W        W99292   6.314  10.359  11.453
26978W        W99293  35.003   3.215  11.397
26979W        W99294  30.115  17.191  12.923
26980W        W99295   2.288  39.441  12.905
26981W        W99296  28.942  30.463  10.921
26982W        W99297  20.576  41.860  12.003
26983W        W99298   7.778  42.843  13.055
26984W        W99299   9.771  42.382   3.202
26985W        W99300  39.331  14.118  10.941
26986W        W99301  34.515  43.472   4.652
26987W        W99302   4.919   2.395  10.636
26988W        W99303  32.900  34.541  12.909
26989W        W99304   7.287  41.934  13.445
26990W        W99305  22.106  21.134   0.801
26991W        W99306  12.698  26.683   3.745
26992W        W99307  43.924  33.991  10.628
26993W        W99308   1.243  32.544   1.708
26994W        W99309   7.207  31.933  11.439
26995W        W99310   5.919  43.902  14.935
26996W        W99311  43.861  34.474  14.423
26997W        W99312   7.195  27.965  14.363
26998W        W99313  16.686  13.840  11.418
26999W        W99314  30.040  12.313   1.707
27000W        W99315  13.753  13.678   1.358
27001W        W99316  40.007   1.773   4.163
27002W        W99317   4.911  24.650   2.339
27003W        W99318  42.333  22.248  14.918
27004W        W99319  12.236  21.168   4.139
27005W        W99320  42.992  37.833  13.419
27006W        W99321  24.537  36.471  12.993
27007W        W99322   2.877  42.330   0.941
27008W        W99323  28.138  34.504   0.949
27009W        W99324  16.667  38.010  14.288
27010W        W99325  28.063  41.472  10.596
27011W        W99326  41.303  33.929  14.832
27012W        W99327  22.217  25.122   2.678
27013W        W99328  23.683  17.584  12.963
27014W        W99329  16.121  37.919  12.479
27015W        W99330  29.952  23.024  13.520
27016W        W99331  35.106  21.530   0.801
27017W        W99332   7.909  10.851  11.612
27018W        W99333  29.568   7.682  13.474
27019W        W99334  40.320  17.072  10.138
27020W        W99335  18.681   8.717   0.865
27021W        W99336  43.898  30.965   0.795
27022W        W99337   6.285  31.074   1.882
27023W        W99338  44.928  12.313  11.480
27024W        W99339   9.206   0.406   0.730
27025W        W99340  27.980  43.349  13.439
27026W        W99341  41.914  21.698  11.122
27027W        W99342  12.708  20.755  11.127
27028W        W99343   6.418  14.102  11.074
27029W        W99344  31.079  11.198  11.421
27030W        W99345  40.398  18.194  10.605
27031W        W99346  38.500  42.527  14.881
27032W        W99347  34.432   2.439   3.300
27033W        W99348  28.615  27.036  12.342
27034W        W99349  39.844  23.677  12.550
27035W        W99350  32.056  43.767   5.149
27036W        W99351  31.915  28.145   3.808
27037W        W99352  18.155  32.034   4.156
27038W        W99353  10.308   2.275   0.823
27039W        W99354  39.544  24.193   4.339
27040W        W99355  19.640  36.376   5.273
27041W        W99356  25.978  30.085  13.526
27042W        W99357  39.433  16.096  14.762
27043W        W99358  31.488  14.823  11.108
27044W        W99359  22.159  15.171  13.381
27045W        W99360  35.598  44.462   4.600
27046W        W99361   4.775  42.993  11.968
27047W        W99362  38.350  27.194   2.803
27048W        W99363  10.317  14.645   4.835
27049W        W99364  17.248  35.033   1.760
27050W        W99365   9.755  24.191  12.040
27051W        W99366  36.472   6.750   0.461
27052W        W99367  19.602  10.235  14.444
27053W        W99368  15.750  40.952   2.733
27054W        W99369  25.670   5.395  10.409
27055W        W99370  37.965  32.995  11.947
27056W        W99371  25.194  17.185   1.357
27057W        W99372  18.664   6.833   4.637
27058W        W99373   3.220  42.462   4.136
27059W        W99374   9.182  36.041   2.796
27060W        W99375  23.152  28.660  14.893
27061W        W99376  33.962  42.316  13.928
27062W        W99377  32.074  30.494   1.336
27063W        W99378  34.600  32.960  11.106
27064W        W99379   5.918  21.750  13.793
27065W        W99380  10.306  15.749   0.430
27066W        W99381  37.501  20.090  12.352
27067W        W99382   6.685  35.469  11.005
27068W        W99383  29.576  20.246   2.816
27069W        W99384  12.212  29.457   0.264
27070W        W99385  18.592  36.972  14.930
27071W        W99386  26.552  15.314   0.803
27072W        W99387   9.367   1.919  11.371
27073W        W99388  13.173  41.391   1.366
27074W        W99389  17.117  13.683   1.796
27075W        W99390   5.793   8.691   2.259
27076W        W99391  22.209  17.583  13.905
27077W        W99392  10.828  21.259  12.515
27078W        W99393  14.241  44.332   2.872
27079W        W99394  43.778  12.172   0.366
27080W        W99395  26.487   3.410   5.212
27081W        W99396   1.944  44.417  14.876
27082W        W99397  10.745  31.931   3.296
27083W        W99398  39.448  35.558  11.102
27084W        W99399   2.860  39.902  12.497
27085W        W99400  19.701  10.655   0.432
27086W        W99401   9.215  37.458  11.118
27087W        W99402  32.598   3.415   0.778
27088W        W99403   9.293  19.661  14.775
27089W        W99404  30.564  24.991  13.794
27090W        W99405  31.145  18.266   3.180
27091W        W99406  39.822  38.910  14.867
27092W        W99407  15.709  21.023  14.810
27093W        W99408  38.507  27.167  11.873
27094W        W99409   3.758  20.621  11.944
27095W        W99410   7.328  35.887  12.493
27096W        W99411  43.406  39.926  12.907
27097W        W99412   0.407   5.919   1.755
27098W        W99413   7.790  33.116   2.404
27099W        W99414  13.730  40.001  13.873
27100W        W99415  34.905  20.700  14.286
27101W        W99416  22.620   6.834  13.046
27102W        W99417   2.457   8.768  14.324
27103W        W99418  34.608  31.140  13.994
27104W        W99419  44.958  28.606  10.414
27105W        W99420  28.115  26.083   1.252
27106W        W99421  25.088  34.015  12.574
27107W        W99422  16.802   2.849  10.953
27108W        W99423  24.195  40.477  14.417
27109W        W99424  22.252  17.784   0.828
27110W        W99425  38.881  13.721  11.088
27111W        W99426  38.929   0.949   4.771
27112W        W99427  14.723  15.121   4.676
27113W        W99428   3.774  20.567   1.292
27114W        W99429  21.096  26.049  11.127
27115W        W99430  30.145  41.862  11.088
27116W        W99431  36.844  28.544  13.998
27117W        W99432  42.428  29.956   0.966
27118W        W99433   1.299  41.822   2.751
27119W        W99434   4.841   8.686  13.006
27120W        W99435  17.636  17.785  12.474
27121W        W99436  32.472  27.953  11.378
27122W        W99437  38.968  11.861  13.536
27123W        W99438  44.860  33.502  11.488
27124W        W99439   1.465  37.415   0.346
27125W        W99440  25.209   0.405  10.096
27126W        W99441   8.682  18.122  13.528
27127W        W99442  12.182  10.803   2.774
27128W        W99443   2.915  10.745  14.305
27129W        W99444  22.185  19.718  12.917
27130W        W99445  26.577  16.245   1.393
27131W        W99446  23.186  25.615   1.736
27132W        W99447  38.394  12.831   0.768
27133W        W99448  12.684   3.397   5.254
27134W        W99449   1.337  34.007  14.967
27135W        W99450  34.988  17.235  11.004
27136W        W99451   8.285  32.617   1.705
27137W        W99452  13.625  27.496  11.568
27138W        W99453  15.709  28.496   1.824
27139W        W99454  14.170  27.097  12.878
27140W        W99455  21.053  31.605   0.751
27141W        W99456  31.584   3.811  12.035
27142W        W99457  39.376  36.930  12.500
27143W        W99458  42.792  27.638   1.717
27144W        W99459   9.163  16.119  12.505
27145W        W99460   9.167  42.971   3.860
27146W        W99461  12.235  18.706  13.873
27147W        W99462  14.794  10.201   3.844
27148W        W99463  33.529  25.630   2.791
27149W        W99464  37.554  11.639  10.619
27150W        W99465   7.327  39.834  14.275
27151W        W99466   2.350  38.326   0.471
27152W        W99467   5.204  30.566  13.018
27153W        W99468  17.227  32.623  10.930
27154W        W99469  34.467   6.893  10.557
27155W        W99470  27.149   5.854  14.401
27156W        W99471  24.591  39.061  13.472
27157W        W99472   6.713  20.133   4.831
27158W        W99473  38.961  43.819  10.466
27159W        W99474   6.849   8.393  11.858
27160W        W99475  36.045  18.203   1.369
27161W        W99476  41.004   1.347  12.402
27162W        W99477   7.265  17.560   3.383
27163W        W99478  19.757  22.178   1.443
27164W        W99479  42.418  40.490   0.386
27165W        W99480  34.387   5.420  13.793
27166W        W99481  30.911  33.520   1.886
27167W        W99482   2.789  32.013  12.064
27168W        W99483  29.071  12.685  10.980
27169W        W99484  31.912  10.344   5.083
27170W        W99485  28.954  28.953   2.869
27171W        W99486  30.464   4.377   4.168
27172W        W99487  37.001  29.482   1.847
27173W        W99488   2.819  41.302  14.973
27174W        W99489   8.731  35.598   2.693
27175W        W99490  29.146  28.647   3.245
27176W        W99491   7.238  19.081  14.874
27177W        W99492  18.173  18.651   0.301
27178W        W99493  19.246  31.971   2.403
27179W        W99494  37.018  29.126   0.769
27180W        W99495  32.957  44.464  14.291
27181W        W99496  20.750  25.000   0.727
27182W        W99497   9.821  37.054   0.902
27183W        W99498  22.521   5.258   4.124
27184W        W99499   3.297  17.704  11.558
27185W        W99500  43.330   4.723   1.826
27186W        W99501  36.586  23.660  10.087
27187W        W99502  15.094  31.996   2.716
27188W        W99503  27.140  26.584  11.981
27189W        W99504  19.043   2.246  14.842
27190W        W99505  28.077  15.751   1.867
27191W        W99506  39.003  30.108   4.708
27192W        W99507  27.543  41.935   4.695
27193W        W99508   7.829  21.069  14.934
27194W        W99509  29.078  19.072  12.442
27195W        W99510  17.699  16.726   2.213
27196W        W99511  26.463   6.345  12.360
27197W        W99512  38.452  37.851  14.935
27198W        W99513  24.169   1.953  13.858
27199W        W99514  25.183  30.031   0.846
27200W        W99515   8.834  36.546   4.259
27201W        W99516   6.380  29.490  11.403
27202W        W99517   4.812  36.924   2.692
27203W        W99518  13.324  43.330  14.911
27204W        W99519  34.372  16.595   0.862
27205W        W99520  35.901  29.134  10.541
27206W        W99521   3.261   0.355  12.036
27207W        W99522  22.675  30.003  13.858
27208W        W99523   3.337   2.940   1.720
27209W        W99524   7.244  30.082   4.342
27210W        W99525  21.609  42.812   2.781
27211W        W99526   8.356  44.851   3.200
27212W        W99527  17.106  44.878  11.097
27213W        W99528  19.154  10.763  12.408
27214W        W99529  39.989  41.299   4.740
27215W        W99530  44.977  29.129   1.235
27216W        W99531   2.386   9.728   1.243
27217W        W99532  24.662  36.966  13.418
27218W        W99533  31.407   4.824  13.007
27219W        W99534   7.844  33.098  11.577
27220W        W99535  17.661  33.513   0.865
27221W        W99536   4.749  40.891  14.297
27222W        W99537  22.223   2.385  13.336
27223W        W99538  35.376   1.831   1.449
27224W        W99539   7.797   5.204   3.207
27225W        W99540  19.634  44.959  12.578
27226W        W99541  43.920  10.268  11.406
27227W        W99542   9.352  21.671   1.325
27228W        W99543  19.134  39.898   2.851
27229W        W99544   8.283  38.048  13.891
27230W        W99545  22.232  31.538  11.888
27231W        W99546   9.878   6.343  11.903
27232W        W99547   6.761  31.932  12.373
27233W        W99548  30.640   4.837  11.075
27234W        W99549  37.941  19.741   2.754
27235W        W99550  23.539   1.940  12.933
27236W        W99551   9.284   6.274   0.423
27237W        W99552  41.919  42.323  14.986
27238W        W99553  39.938   5.366  12.056
27239W        W99554  13.284  10.743   4.625
27240W        W99555  44.919   9.262  10.574
27241W        W99556  16.573  33.955  13.548
27242W        W99557  30.642  30.155   4.225
27243W        W99558  10.263  43.289  12.906
27244W        W99559  22.095  25.118  11.601
27245W        W99560  20.114   8.299   5.305
27246W        W99561  23.724  42.435  10.888
27247W        W99562  30.625  42.519  12.826
27248W        W99563  15.084   9.806  11.602
27249W        W99564  19.575  36.882  10.506
27250W        W99565   0.302   9.246   2.808
27251W        W99566  25.967  21.257   4.778
27252W        W99567  42.946  15.288   4.124
27253W        W99568  38.926   8.228  11.566
27254W        W99569  14.632   9.360   2.275
27255W        W99570  40.804  16.642   3.686
27256W        W99571  43.877  16.610   4.298
27257W        W99572  10.375  29.099  12.931
27258W        W99573  14.696  17.274  12.382
27259W        W99574  37.532   8.284  14.342
27260W        W99575   2.446   7.361   0.938
27261W        W99576  29.492   5.894   1.859
27262W        W99577   6.289   8.171   4.266
27263W        W99578  29.521  40.033   3.206
27264W        W99579  38.369  35.956  13.372
27265W        W99580   1.899  42.917  14.798
27266W        W99581   6.806   3.736  11.991
27267W        W99582  14.259   7.192   3.180
27268W        W99583  34.573   9.823   2.398
27269W        W99584  38.841  39.916   3.763
27270W        W99585   5.307  20.207  10.559
27271W        W99586   9.835  32.533  14.476
27272W        W99587  18.565   8.288  12.835
27273W        W99588  22.197  30.908   3.706
27274W        W99589  28.167   0.451  14.283
27275W        W99590  20.161  22.516   2.326
27276W        W99591  35.383  34.606   3.794
27277W        W99592   0.934  30.966  13.041
27278W        W99593   3.850  37.342  11.944
27279W        W99594  30.495  38.825  12.343
27280W        W99595  13.263  13.309   2.238
27281W        W99596  42.935  10.818   2.375
27282W        W99597  38.497  10.653  12.576
27283W        W99598  44.270  29.532  13.477
27284W        W99599  12.245  44.884  12.359
27285W        W99600  21.225  41.919   2.801
27286W        W99601  43.454  40.422   3.828
27287W        W99602  35.483  38.036   3.238
27288W        W99603  38.006   7.238   4.273
27289W        W99604  43.472  22.714  11.034
27290W        W99605   6.250  41.040   3.774
27291W        W99606  13.123  27.498  14.444
27292W        W99607   2.427  44.894   3.294
27293W        W99608  27.074  31.077  10.454
27294W        W99609  44.331   1.301  12.389
27295W        W99610  31.519   7.853  12.935
27296W        W99611  33.080  22.059   3.650
27297W        W99612  20.619   9.207  11.398
27298W        W99613  31.540  12.292  14.778
27299W        W99614  33.537  17.771   4.284
27300W        W99615  44.470   1.302  10.503
27301W        W99616  31.997  26.646   3.639
27302W        W99617  30.956  32.445  14.360
27303W        W99618  21.743  16.704  12.902
27304W        W99619   1.462  27.651   4.272
27305W        W99620   3.233  13.674   3.209
27306W        W99621  13.767  42.857  11.071
27307W        W99622  40.520  16.237   1.849
27308W        W99623  29.542  41.483   5.223
27309W        W99624  19.125  39.026  15.000
27310W        W99625  35.926  23.599   0.758
27311W        W99626  37.081  37.038  12.881
27312W        W99627  44.446  27.657  10.424
27313W        W99628   8.343  41.898  14.356
27314W        W99629  20.068  16.110   2.327
27315W        W99630  10.814  30.163  11.583
27316W        W99631  25.036  32.108   0.838
27317W        W99632  30.512  18.217   4.827
27318W        W99633  41.815  32.561   0.875
27319W        W99634   3.216  29.044  13.366
27320W        W99635  35.416  42.420   3.645
27321W        W99636   9.888  40.501   0.941
27322W        W99637  43.837   1.419   1.424
27323W        W99638  20.253  29.006  13.962
27324W        W99639   0.789  25.529   0.327
27325W        W99640   8.207  27.495  12.427
27326W        W99641   6.277  26.647  11.856
27327W        W99642  36.008  31.097  14.372
27328W        W99643  26.142   9.735   0.889
27329W        W99644  18.588   2.362  11.474
27330W        W99645  37.418   5.368   3.799
27331W        W99646  35.927  41.008  10.934
27332W        W99647   9.674   4.433  11.478
27333W        W99648  25.155   5.708  13.440
27334W        W99649  12.282  17.299  14.446
27335W        W99650  23.155  11.761  14.484
27336W        W99651  10.809  13.635   0.936
27337W        W99652  43.416  22.062  14.804
27338W        W99653  24.115   9.228  10.584
27339W        W99654  34.068  42.789  14.404
27340W        W99655  25.169  39.916  13.031
27341W        W99656   9.850   8.233  11.880
27342W        W99657  42.832  29.575  11.111
27343W        W99658   2.943  38.010   3.254
27344W        W99659  25.060   5.833   0.797
27345W        W99660  32.892  11.762   0.308
27346W        W99661  24.669  27.604  11.124
27347W        W99662  35.522   8.347   1.855
27348W        W99663  16.782  27.168   4.220
27349W        W99664  13.638  24.649   0.756
27350W        W99665  40.016   4.747  13.470
27351W        W99666  12.650  40.435  12.372
27352W        W99667  10.783  33.511   0.407
27353W        W99668   5.386  28.991  12.412
27354W        W99669  42.296  15.622  10.935
27355W        W99670  11.299  39.043  11.970
27356W        W99671   0.296  26.057   2.877
27357W        W99672  42.299   8.849  14.328
27358W        W99673  21.218  15.627  14.491
27359W        W99674  41.454  21.750  12.534
27360W        W99675  19.553  23.536  11.970
27361W        W99676  18.107  32.084   4.814
27362W        W99677   9.843  25.963   1.441
27363W        W99678  10.289   7.415  13.847
27364W        W99679  24.565  21.222   0.938
27365W        W99680  19.244  13.234  12.484
27366W        W99681   6.848  26.509  14.853
27367W        W99682  28.055  30.966  14.999
27368W        W99683  10.767  17.298  12.956
27369W        W99684  25.524  14.160  13.416
27370W        W99685   5.930  23.143   0.279
27371W        W99686  27.667  27.153  14.916
27372W        W99687  24.653  42.842   3.643
27373W        W99688  44.010  14.722  14.811
27374W        W99689  35.983   9.660  12.469
27375W        W99690  24.491  36.385   0.792
27376W        W99691   5.691  27.672  13.307
27377W        W99692  26.692  41.338  14.823
27378W        W99693  44.453  16.222   3.643
27379W        W99694   3.913  24.540   4.221
27380W        W99695  33.016  38.851  12.090
27381W        W99696  17.296  15.669   0.851
27382W        W99697  11.742  31.517  13.004
27383W        W99698   1.383  24.685  11.502
27384W        W99699  36.382  24.692  12.509
27385W        W99700  44.384   4.231  11.497
27386W        W99701  13.297  37.935  13.428
27387W        W99702   4.881   7.405  14.280
27388W        W99703  28.647  34.868   3.271
27389W        W99704  16.157  25.194  14.781
27390W        W99705   8.692  36.355  14.952
27391W        W99706  10.228   2.352   0.340
27392W        W99707  27.001  39.993  14.315
27393W        W99708  37.942  42.784   4.231
27394W        W99709  34.059  12.777   0.245
27395W        W99710  27.551  32.549  14.981
27396W        W99711  16.812   6.268   0.331
27397W        W99712  43.917  42.448  13.522
27398W        W99713  22.193  29.544  13.855
27399W        W99714  21.059  22.745   2.331
27400W        W99715  10.677  19.071   9.974
27401W        W99716  10.657   3.951  13.906
27402W        W99717   6.907   5.352   3.234
27403W        W99718  12.205   9.855   0.925
27404W        W99719  43.396  40.822  14.826
27405W        W99720  12.855  35.589   2.381
27406W        W99721  43.463  42.416   1.732
27407W        W99722  19.181  34.468  10.632
27408W        W99723  32.476  36.096   2.245
27409W        W99724   7.838   4.890  14.031
27410W        W99725  40.502  39.879  11.569
27411W        W99726  21.163  37.497  11.534
27412W        W99727  19.164  19.212   2.690
27413W        W99728  11.309  36.579  11.120
27414W        W99729  23.110   7.236  14.357
27415W        W99730   3.875   6.312  10.409
27416W        W99731  21.063  25.207  11.106
27417W        W99732  26.686  23.995   4.303
27418W        W99733  41.425   2.875   0.442
27419W        W99734   0.912   1.387  12.503
27420W        W99735  21.597   3.424  13.902
27421W        W99736  31.559  11.703  11.408
27422W        W99737   0.809  40.850  13.884
27423W        W99738  16.202  14.782  12.926
27424W        W99739  40.415  33.910   0.817
27425W        W99740  16.274  15.654   4.161
27426W        W99741  40.961  10.669  10.501
27427W        W99742  21.076  20.532  12.039
27428W        W99743  43.990  30.014   3.223
27429W        W99744   7.172  19.747  11.541
27430W        W99745  30.610  36.481  13.823
27431W        W99746  20.185  33.985   1.755
27432W        W99747   2.780   1.419  11.092
27433W        W99748  16.160  11.648   4.141
27434W        W99749  28.530  22.736  10.966
27435W        W99750   5.767  43.931   2.879
27436W        W99751   5.751  18.715   4.195
27437W        W99752   7.374  33.072   3.631
27438W        W99753  39.415  30.546  14.016
27439W        W99754   2.471   3.396  12.377
27440W        W99755  21.741  34.400   3.148
27441W        W99756  16.607  37.923   3.755
27442W        W99757  17.647  15.321  11.880
27443W        W99758  13.196   1.475   3.162
27444W        W99759  15.206  18.176  11.591
27445W        W99760  12.639  22.198  14.282
27446W        W99761  35.903  12.328   4.237
27447W        W99762  11.819  24.602  14.975
27448W        W99763  39.984  37.032   3.155
27449W        W99764  44.462  24.565  10.949
27450W        W99765  29.042  35.019   4.811
27451W        W99766  27.065  29.480  14.837
27452W        W99767  17.285  20.157  10.056
27453W        W99768  27.469   4.869  14.515
27454W        W99769  22.056  14.674   1.846
27455W        W99770  17.564  18.286  12.057
27456W        W99771  13.803   0.435  14.374
27457W        W99772   0.859  12.132  14.381
27458W        W99773  34.898  34.534  13.918
27459W        W99774   8.796  19.779   3.797
27460W        W99775  21.564  33.922  14.828
27461W        W99776   7.676  25.137   5.093
27462W        W99777  25.579  31.452   0.749
27463W        W99778  18.169  43.403   1.217
27464W        W99779  29.529  21.672  11.879
27465W        W99780  42.308   6.731  12.834
27466W        W99781   8.240   9.778   4.747
27467W        W99782  43.907  12.645   2.305
27468W        W99783  23.087  37.837  10.542
27469W        W99784  29.022  29.940  14.460
27470W        W99785   6.394  42.835   1.919
27471W        W99786  27.471  20.557   2.204
27472W        W99787  38.879  32.551   2.785
27473W        W99788  43.513  38.505   3.833
27474W        W99789   3.215   0.305  11.606
27475W        W99790  28.633   3.904   2.280
27476W        W99791  37.086  32.532   2.355
27477W        W99792   3.378  27.046  10.937
27478W        W99793  11.802  31.626  11.567
27479W        W99794  15.725  42.522   0.763
27480W        W99795  23.500  20.222   1.283
27481W        W99796   3.860   7.836   4.257
27482W        W99797  32.993  11.741   1.730
27483W        W99798  28.452   9.798   0.779
27484W        W99799  10.178  34.378   3.849
27485W        W99800  24.136  21.670   2.406
27486W        W99801   0.350  19.248   4.166
27487W        W99802  40.423  14.141   0.308
27488W        W99803   9.814  36.442  11.583
27489W        W99804  35.518  39.556  14.988
27490W        W99805   1.851  26.638   0.913
27491W        W99806  32.634  41.351  12.849
27492W        W99807   9.744  26.609   4.820
27493W        W99808  22.207  12.612   3.262
27494W        W99809  42.406  31.151  13.888
27495W        W99810   5.429  32.947  14.758
27496W        W99811  15.590  27.005  14.903
27497W        W99812  13.797  43.508   2.901
27498W        W99813   5.337  21.074  10.955
27499W        W99814  34.457  27.173  14.768
27500W        W99815  42.363  19.102   2.340
27501W        W99816  15.771   7.728   0.931
27502W        W99817  13.764  11.761  11.038
27503W        W99818  14.136  30.600   0.813
27504W        W99819  36.992  14.635  14.010
27505W        W99820  23.554  29.035  13.376
27506W        W99821  15.311   5.766  10.561
27507W        W99822  30.446  10.235   3.302
27508W        W99823  33.398  19.204   0.364
27509W        W99824  26.081  30.046   4.124
27510W        W99825   1.974  11.670  10.409
27511W        W99826  36.382  31.123   0.955
27512W        W99827  21.125  37.085   1.276
27513W        W99828  38.361   2.228  10.952
27514W        W99829  28.137  25.009  12.909
27515W        W99830  37.363  12.757  11.399
27516W        W99831  26.153  19.211   0.893
27517W        W99832   8.679  23.711  13.948
27518W        W99833   7.221  20.603  13.505
27519W        W99834  26.684  39.847   0.370
27520W        W99835  36.444  17.273  12.374
27521W        W99836  17.213   9.282  13.407
27522W        W99837  43.284   8.360  13.426
27523W        W99838  42.791   2.301   2.834
27524W        W99839   3.807  25.119  12.864
27525W        W99840   2.833  18.217  14.406
27526W        W99841  44.829  19.279   2.753
27527W        W99842  28.013  42.969  12.916
27528W        W99843  37.078  17.082  12.566
27529W        W99844  40.421  42.485  14.420
27530W        W99845   8.251  27.469  11.512
27531W        W99846  18.187  16.202   1.258
27532W        W99847   8.821  10.359  13.434
27533W        W99848  17.753   5.321   3.685
27534W        W99849  25.714   5.917  12.356
27535W        W99850   4.426  18.632  10.553
27536W        W99851  31.091  28.036   4.770
27537W        W99852  40.004  41.933   0.315
27538W        W99853  36.564  40.854   0.884
27539W        W99854  36.554  30.907  10.559
27540W        W99855  16.805  20.569  13.520
27541W        W99856  12.847  17.612  11.578
27542W        W99857   0.836   9.389  11.464
27543W        W99858  33.913  22.194  12.384
27544W        W99859  28.524  36.472   1.327
27545W        W99860  25.567  16.198  12.576
27546W        W99861   5.404  44.921  12.079
27547W        W99862  24.057  22.008   1.724
27548W        W99863  32.886  13.771  12.560
27549W        W99864  32.489   8.272   2.743
27550W        W99865  24.639  11.857  13.310
27551W        W99866  17.272   2.332  13.437
27552W        W99867  32.970  30.989   3.277
27553W        W99868   3.890   4.868   4.334
27554W        W99869  27.558  14.801   1.700
27555W        W99870  38.037  30.946  13.895
27556W        W99871   0.758   3.332  10.965
27557W        W99872  36.873  32.022   4.177
27558W        W99873  38.333  34.009  12.392
27559W        W99874  36.591   2.453   3.328
27560W        W99875  36.463   9.300   1.731
27561W        W99876   7.236  27.019  13.530
27562W        W99877  12.280  18.272   2.308
27563W        W99878  31.096  39.955   2.776
27564W        W99879  15.280  17.573  14.999
27565W        W99880  23.582  13.616  13.366
27566W        W99881  28.512  26.117   2.402
27567W        W99882  40.879  35.925   1.298
27568W        W99883  18.227   7.793   3.251
27569W        W99884  25.172  42.000   5.195
27570W        W99885  20.207  14.155  13.501
27571W        W99886  11.267  42.308   2.337
27572W        W99887  27.666   6.775   5.571
27573W        W99888  11.688   4.443   2.338
27574W        W99889  26.679  11.660   1.713
27575W        W99890  19.711   1.790   4.740
27576W        W99891  10.144  38.433  10.941
27577W        W99892   7.184   6.763  10.420
27578W        W99893  21.583  16.750  13.545
27579W        W99894  25.607  25.674   4.727
27580W        W99895  30.111  21.527  12.958
27581W        W99896   6.403  18.124  13.025
27582W        W99897   0.431  24.707   3.315
27583W        W99898   1.745  20.141  14.299
27584W        W99899  22.087  22.142   3.803
27585W        W99900   7.388  31.153   0.835
27586W        W99901  24.693  41.017   2.367
27587W        W99902  16.586  12.665  10.533
27588W        W99903  35.465  22.645   2.775
27589W        W99904  24.573  19.280   3.247
27590W        W99905  31.128  43.304  10.535
27591W        W99906  29.092   0.845   0.313
27592W        W99907  23.189  12.350   2.869
27593W        W99908   9.263  34.567   3.802
27594W        W99909  17.292  32.605   4.188
27595W        W99910  27.450   9.297   3.643
27596W        W99911  24.595  13.106  13.538
27597W        W99912   1.382  13.731   3.702
27598W        W99913  28.496  10.290   0.798
27599W        W99914   0.431  23.040  14.461
27600W        W99915  32.063  34.866  14.482
27601W        W99916  27.170  39.478  10.586
27602W        W99917  17.086  22.675   5.320
27603W        W99918   8.324  19.729   4.707
27604W        W99919  40.977  17.299  10.591
27605W        W99920  22.737  43.446   1.239
27606W        W99921  44.404  20.227   4.706
27607W        W99922  43.474  16.296   0.268
27608W        W99923  26.103  12.672   4.707
27609W        W99924  16.807  32.990   2.297
27610W        W99925  24.656  24.576  11.559
27611W        W99926   0.332  28.980   2.322
27612W        W99927   8.337  22.719   3.350
27613W        W99928  28.513   6.204  14.918
27614W        W99929  12.755  43.003   5.188
27615W        W99930  36.423  19.176  13.998
27616W        W99931  24.640  36.041   0.261
27617W        W99932  44.350   9.373  14.282
27618W        W99933  25.150  19.579  11.412
27619W        W99934  28.083   1.748   2.357
27620W        W99935  43.399  13.713  10.900
27621W        W99936  23.704  28.052  11.375
27622W        W99937  16.669  11.647  14.326
27623W        W99938   6.326   9.158   1.708
27624W        W99939  36.448  35.052   0.377
27625W        W99940  28.978  26.170  13.515
27626W        W99941  21.549  33.508   0.379
27627W        W99942   4.790  16.209   0.729
27628W        W99943  10.767  13.255  10.465
27629W        W99944  29.644  35.090   3.750
27630W        W99945  15.725  25.496  13.828
27631W        W99946  36.430  38.528   2.693
27632W        W99947  22.101  40.351   3.774
27633W        W99948  11.261  41.306   0.831
27634W        W99949   7.841  36.892  10.934
27635W        W99950  15.698  13.707   2.229
27636W        W99951  26.568   2.400  13.540
27637W        W99952   2.851  19.580  11.051
27638W        W99953  41.020  24.140   0.256
27639W        W99954  28.618  42.838   3.721
27640W        W99955  21.707  44.808   2.777
27641W        W99956  39.824  33.105  13.057
27642W        W99957   7.326  32.486  12.904
27643W        W99958   7.196  38.529  12.974
27644W        W99959  10.366   7.292  13.017
27645W        W99960  41.454  35.467  12.918
27646W        W99961  10.379   0.782  11.066
27647W        W99962  33.016  39.531  12.518
27648W        W99963  15.793  17.135   4.269
27649W        W99964  12.711   6.708   0.914
27650W        W99965  43.471  32.432   3.746
27651W        W99966  26.601   5.845  11.855
27652W        W99967  16.767  14.160  13.827
27653W        W99968  30.544  17.649   3.794
27654W        W99969  25.052  40.493  12.901
27655W        W99970  23.542  10.286  12.406
27656W        W99971  30.438  22.747   4.232
27657W        W99972   4.256   3.886  11.573
27658W        W99973  32.969  18.588   2.418
27659W        W99974  39.962  14.634  11.924
27660W        W99975   0.326  27.143  10.629
27661W        W99976  41.361  43.898  11.516
27662W        W99977  30.073  15.224  12.533
27663W        W99978  43.829  39.387   0.803
27664W        W99979   0.785  26.001  11.983
27665W        W99980  38.821   4.398   0.243
27666W        W99981  14.237  17.758  10.502
27667W        W99982  18.139  36.490   3.677
27668W        W99983  39.860  32.567  13.445
27669W        W99984  37.896  20.134  10.587
27670W        W99985  20.083  27.024  11.606
27671W        W99986  17.174  17.725  14.498
27672W        W99987   6.894  11.762  14.432
27673W        W99988  32.060  38.899  12.455
27674W        W99989  24.595  34.978   1.326
27675W        W99990   2.272   8.339  14.767
27676W        W99991  40.354  39.425  12.371
27677W        W99992  23.990  12.235   0.860
27678W        W99993  13.650  19.112   0.871
27679W        W99994  17.711  38.557   4.677
27680W        W99995   8.679  16.618   0.751
27681W        W99996  37.582  24.701  13.484
27682W        W99997   5.843  17.098   2.341
27683W        W99998  44.381  43.981   1.822
27684W        W99999  39.522  14.637   4.322
27685W        W    0  36.909  12.204   4.207
27686W        W    1  15.311   2.371   3.779
27687W        W    2   6.365  37.943   3.337
27688W        W    3  10.744  11.811  12.547
27689W        W    4  29.108  15.687  11.116
27690W        W    5  10.268  27.451  13.364
27691W        W    6  14.793  10.235  10.502
27692W        W    7  15.605  25.091   0.739
27693W        W    8  10.693  29.530   3.761
27694W        W    9  13.614   7.795   0.753
27695W        W   10  32.612   7.348  13.535
27696W        W   11   8.741  30.480   4.747
27697W        W   12  14.679  21.136  10.139
27698W        W   13  11.699  32.398   0.447
27699W        W   14  37.857  13.311  14.506
27700W        W   15  38.884   9.273  11.087
27701W        W   16   3.812  15.748  11.963
27702W        W   17  14.606   5.325  12.395
27703W        W   18  34.578  18.573   3.172
27704W        W   19   0.304   8.762  11.378
27705W        W   20  42.461  16.188  11.018
27706W        W   21  41.491  30.563   4.727
27707W        W   22  35.505   3.354  12.049
27708W        W   23   0.488  32.451  12.060
27709W        W   24  10.226  30.600   3.263
27710W        W   25  25.028   4.885   5.321
27711W        W   26  26.061  30.456   4.754
27712W        W   27   0.387  22.214   1.890
27713W        W   28  26.096   6.884  13.478
27714W        W   29   5.785  25.661   1.737
27715W        W   30  16.666  13.752  12.914
27716W        W   31  42.340   4.328   1.419
27717W        W   32   5.889  15.609   4.717
27718W        W   33  40.451  10.203   2.780
27719W        W   34   4.324  12.214  13.919
27720W        W   35  34.518  39.963   4.231
27721W        W   36  25.168   8.255  14.398
27722W        W   37  29.923  12.272   4.799
27723W        W   38  16.604   8.676  10.995
27724W        W   39  19.576  28.007  14.325
27725W        W   40   3.809  39.957  12.437
27726W        W   41  43.502   4.789   0.347
27727W        W   42  19.570   6.812  12.393
27728W        W   43  10.809   4.742  11.885
27729W        W   44  38.988  13.206   0.373
27730W        W   45  35.572   3.803   2.191
27731W        W   46  35.404  23.039  13.507
27732W        W   47  31.594  18.723   0.243
27733W        W   48  33.968   0.314  13.326
27734W        W   49  22.553  15.327   1.737
27735W        W   50  19.241  16.632   2.368
27736W        W   51  34.429  41.467   4.278
27737W        W   52  40.476   0.468   4.786
27738W        W   53  36.506  42.432   3.268
27739W        W   54  25.696  43.428  14.926
27740W        W   55   8.672  29.047   1.910
27741W        W   56   3.374  39.338  13.406
27742W        W   57  32.510   9.702   1.437
27743W        W   58   9.267  32.630  11.076
27744W        W   59  28.064  13.155  12.985
27745W        W   60  37.338  30.059   3.753
27746W        W   61  42.346  15.278  10.445
27747W        W   62  18.184  12.163  13.856
27748W        W   63  21.707   9.680   0.381
27749W        W   64  11.819  21.703  13.468
27750W        W   65  26.166   4.252  11.894
27751W        W   66  14.277  23.662   2.357
27752W        W   67  37.015  24.985   2.346
27753W        W   68   3.806  17.652  11.093
27754W        W   69   8.347  16.140  12.067
27755W        W   70  27.148  36.906   4.146
27756W        W   71  35.390  32.896   1.752
27757W        W   72  13.776   7.792  11.549
27758W        W   73  34.611  12.619   3.801
27759W        W   74   4.750  22.606   2.393
27760W        W   75  12.770  29.010  13.852
27761W        W   76  25.009  41.863   1.352
27762W        W   77  16.224   6.248   0.439
27763W        W   78  26.973  10.756  10.900
27764W        W   79  31.956   5.800   3.148
27765W        W   80   8.186  14.642   3.790
27766W        W   81  12.636  42.399  11.395
27767W        W   82  25.965  30.477  11.537
27768W        W   83  26.979  42.284   4.213
27769W        W   84  20.573  29.143  14.404
27770W        W   85  34.569  40.042   3.179
27771W        W   86  18.200  30.472   3.816
27772W        W   87  20.141  32.517  12.848
27773W        W   88  12.185  34.959   2.892
27774W        W   89  22.999  25.552  14.316
27775W        W   90  20.762   6.815   3.310
27776W        W   91  18.249  41.500   3.635
27777W        W   92  36.361  40.864  10.486
27778W        W   93  25.123  33.473  14.844
27779W        W   94  44.908  16.240  12.568
27780W        W   95  13.155  19.770   0.777
27781W        W   96  42.322  11.159   3.679
27782W        W   97   3.884  39.902   2.386
27783W        W   98  32.496  20.588  11.006
27784W        W   99   6.913  36.463   0.303
27785W        W  100  38.947   3.756  14.016
27786W        W  101  43.493   4.935   3.767
27787W        W  102   8.683  28.668   1.841
27788W        W  103  10.142  30.004  14.291
27789W        W  104   8.177  39.935  13.980
27790W        W  105  25.703  30.492   4.617
27791W        W  106  30.541  41.837  11.946
27792W        W  107  23.145  20.165  12.937
27793W        W  108  26.492  24.148   3.315
27794W        W  109   4.217   5.283   2.892
27795W        W  110  28.087  20.104   2.186
27796W        W  111  21.549   5.244   1.336
27797W        W  112   9.197  11.160  14.916
27798W        W  113  26.667  14.123   1.240
27799W        W  114   6.333  42.328  11.023
27800W        W  115   9.320  31.127   1.785
27801W        W  116   3.722  38.429   2.180
27802W        W  117   8.316  28.573   4.707
27803W        W  118   6.915  25.630  11.460
27804W        W  119  23.608  35.452  12.864
27805W        W  120  31.034  29.667  13.482
27806W        W  121  23.557  23.031  10.457
27807W        W  122   9.293  33.956  11.085
27808W        W  123  44.414  12.760   0.765
27809W        W  124  16.733  29.138  12.498
27810W        W  125   8.800  40.025  12.928
27811W        W  126  36.467  21.060   4.653
27812W        W  127  20.573  13.721   0.421
27813W        W  128  21.671  33.575  12.034
27814W        W  129  37.027   5.700  14.495
27815W        W  130  32.499  42.487  10.493
27816W        W  131  38.401  20.718   1.338
27817W        W  132  27.446   3.815   9.619
27818W        W  133   2.759  21.228   0.246
27819W        W  134  41.383  44.332  11.035
27820W        W  135  27.555  26.688  13.876
27821W        W  136  43.279  33.415   1.368
27822W        W  137  34.103  35.902  11.046
27823W        W  138  25.606   4.716  14.432
27824W        W  139  30.637  39.474  10.545
27825W        W  140   6.322  36.462  12.933
27826W        W  141  21.643  21.580  10.473
27827W        W  142   9.367  20.102  11.462
27828W        W  143  35.424  34.483   0.860
27829W        W  144  42.936  22.211  11.611
27830W        W  145  31.451  21.039   4.733
27831W        W  146   3.425  23.546   3.798
27832W        W  147  21.145  36.033  11.128
27833W        W  148  14.647   6.317  11.567
27834W        W  149  13.714  39.529   0.285
27835W        W  150  15.711  31.947   0.313
27836W        W  151  19.150  28.545  12.538
27837W        W  152  25.512   3.765  10.500
27838W        W  153  12.622  31.992  14.371
27839W        W  154   4.435  19.261  10.427
27840W        W  155  14.738  37.418  11.106
27841W        W  156  11.723  16.783   1.299
27842W        W  157   8.810  26.621  14.019
27843W        W  158  23.187  28.096   3.293
27844W        W  159  11.691  42.895   2.751
27845W        W  160  23.213  21.080  11.112
27846W        W  161  20.698   3.923   2.889
27847W        W  162  25.070  20.252   0.827
27848W        W  163  25.006  19.094  13.048
27849W        W  164  30.920  25.197  10.117
27850W        W  165   0.276  16.107   3.247
27851W        W  166  26.028  25.120  12.828
27852W        W  167   5.283  26.555   3.353
27853W        W  168  37.049  27.518  10.977
27854W        W  169  15.165  16.708  11.453
27855W        W  170  27.446  17.801  11.990
27856W        W  171  39.941  18.281   1.862
27857W        W  172  20.673   8.373   0.797
27858W        W  173   5.819   7.398  14.017
27859W        W  174  35.090  14.798  14.840
27860W        W  175  38.342   4.915   1.776
27861W        W  176  26.959   6.903  13.386
27862W        W  177   2.791   1.764   0.245
27863W        W  178  26.154   2.823   0.808
27864W        W  179   5.285   7.810   4.175
27865W        W  180   1.414  29.997  14.775
27866W        W  181  43.868   0.391  10.470
27867W        W  182  41.008  10.816   3.349
27868W        W  183   7.906  29.005  10.485
27869W        W  184   7.813  37.074   1.295
27870W        W  185  15.605  34.596   4.324
27871W        W  186  43.971   0.914  12.463
27872W        W  187  10.204   8.785  12.933
27873W        W  188  13.707   7.196   0.840
27874W        W  189  34.541  13.255  10.436
27875W        W  190  29.521  41.989  14.957
27876W        W  191   6.420   1.972   4.213
27877W        W  192  43.293   9.643   1.341
27878W        W  193   9.193  43.821  13.309
27879W        W  194  40.412  11.369  14.340
27880W        W  195  37.049  11.717   2.348
27881W        W  196  16.143  41.811  14.771
27882W        W  197  29.602  43.006   2.203
27883W        W  198   5.414  18.762  12.371
27884W        W  199  37.516  19.614   2.196
27885W        W  200  25.166   2.392   2.810
27886W        W  201  18.601  10.173  13.310
27887W        W  202   1.738  37.517  12.854
27888W        W  203  42.836  37.496  14.300
27889W        W  204  43.827  11.203   5.112
27890W        W  205  13.180  18.267   0.865
27891W        W  206  14.595  42.328   1.231
27892W        W  207  14.167  33.104  10.123
27893W        W  208   4.266   3.950   1.419
27894W        W  209  19.663  44.443  10.568
27895W        W  210  18.229  33.471   3.220
27896W        W  211  41.302   5.219   2.210
27897W        W  212  24.064   1.888  12.952
27898W        W  213  39.349   9.718   1.216
27899W        W  214   6.229  41.895  11.398
27900W        W  215   9.149  11.828   2.710
27901W        W  216   1.914  37.849  11.091
27902W        W  217  24.494   1.379   2.880
27903W        W  218   7.692  34.947  11.862
27904W        W  219  21.668  19.728  12.055
27905W        W  220   0.407  41.462   1.432
27906W        W  221  26.035  20.719  12.016
27907W        W  222  31.621  10.872  10.901
27908W        W  223  16.578   2.831  11.605
27909W        W  224  20.270  20.151  13.851
27910W        W  225  20.131  33.543  12.030
27911W        W  226   9.737   0.940  12.932
27912W        W  227   1.480  36.021   4.306
27913W        W  228  31.056  37.546   1.903
27914W        W  229  20.547  29.608   2.274
27915W        W  230  18.122  26.637  13.426
27916W        W  231   8.772  13.724   2.338
27917W        W  232  35.542  19.628   1.366
27918W        W  233  23.211  11.743   3.871
27919W        W  234   6.354  36.845  12.910
27920W        W  235  40.458  40.303   4.740
27921W        W  236  13.834  12.324   4.748
27922W        W  237   2.227  31.150   3.741
27923W        W  238   1.391  29.164  13.331
27924W        W  239  39.329  11.340  12.440
27925W        W  240   4.280  17.770   1.918
27926W        W  241  32.026  29.101   3.151
27927W        W  242  18.142  42.459  14.817
27928W        W  243   8.209  19.700  11.451
27929W        W  244  13.248   0.248   3.227
27930W        W  245   2.912  42.803   0.856
27931W        W  246  26.999  44.458  13.351
27932W        W  247  24.130  35.505   2.804
27933W        W  248  13.273  37.449   5.203
27934W        W  249  28.536  25.661  10.618
27935W        W  250  20.643  15.624  11.101
27936W        W  251  24.665  34.564  11.889
27937W        W  252  29.041   4.746   4.148
27938W        W  253  22.554  21.529  13.364
27939W        W  254  17.665  43.306   2.806
27940W        W  255  27.445   6.897  10.634
27941W        W  256  39.923  13.234  12.347
27942W        W  257  12.733  42.375  13.337
27943W        W  258  12.844  38.378  10.633
27944W        W  259  35.075  16.683   1.278
27945W        W  260  13.195  42.282  14.399
27946W        W  261  32.973  15.770   1.704
27947W        W  262   9.739  12.651   0.267
27948W        W  263   9.762  15.631  12.553
27949W        W  264  41.795  41.528   5.313
27950W        W  265   1.460  14.659  11.879
27951W        W  266  22.128  17.579   0.284
27952W        W  267   4.329  36.510  14.025
27953W        W  268  33.100  32.485   1.924
27954W        W  269  26.643  34.882  13.312
27955W        W  270   0.303  34.913  12.010
27956W        W  271  30.598  34.475   0.946
27957W        W  272  44.444  23.169   3.148
27958W        W  273  42.916  29.594  11.410
27959W        W  274  40.430   6.899  11.947
27960W        W  275  21.573  39.365  12.001
27961W        W  276  40.380  30.502   5.210
27962W        W  277  22.213  15.140   0.847
27963W        W  278   9.367   1.904   0.931
27964W        W  279   6.862   8.175   1.741
27965W        W  280  37.459  24.581   4.643
27966W        W  281  35.903  33.036   4.710
27967W        W  282  33.532  32.472   0.474
27968W        W  283   8.256  16.128  10.409
27969W        W  284  39.890  35.436  14.315
27970W        W  285  41.428  34.444   2.704
27971W        W  286  41.352  42.410  11.056
27972W        W  287  32.965  24.085  14.286
27973W        W  288  35.902  38.939  13.796
27974W        W  289  33.120   0.856   3.643
27975W        W  290   5.211  29.441  11.000
27976W        W  291  20.103   1.460   3.242
27977W        W  292  28.933  41.322   2.683
27978W        W  293  37.988   6.267   4.134
27979W        W  294  30.143  13.737   4.613
27980W        W  295  21.190  19.628   2.832
27981W        W  296  25.219  14.325  13.908
27982W        W  297  39.842  13.192  13.032
27983W        W  298  42.507  24.520  14.294
27984W        W  299  25.588   3.915  14.025
27985W        W  300  18.717   7.362  11.928
27986W        W  301  17.199  39.967   1.854
27987W        W  302  19.271  26.610  14.028
27988W        W  303  14.724  34.546  14.818
27989W        W  304   8.247   6.205  10.949
27990W        W  305  27.673  42.985  13.037
27991W        W  306  31.419  20.744   3.735
27992W        W  307  18.690  38.410   0.450
27993W        W  308  33.947  33.942  11.916
27994W        W  309  29.033   0.808   4.832
27995W        W  310  36.024  17.617   1.892
27996W        W  311   1.354  22.574   2.766
27997W        W  312  24.620  24.512   3.828
27998W        W  313  15.597   6.283  12.861
27999W        W  314  21.052  35.426  11.973
28000W        W  315  18.706  11.653   3.851
28001W        W  316  25.098  13.114  11.893
28002W        W  317  37.467  44.333  11.913
28003W        W  318   5.776  17.103  12.452
28004W        W  319  31.505   2.279   1.361
28005W        W  320  21.518   6.692   2.784
28006W        W  321  14.121  16.253  10.573
28007W        W  322  39.509  25.667   5.124
28008W        W  323  35.458  42.027  11.417
28009W        W  324  42.859  11.711  14.883
28010W        W  325  20.071  36.069  14.771
28011W        W  326  42.819  36.485  13.860
28012W        W  327  19.184   9.280   4.322
28013W        W  328   0.272  12.287   5.257
28014W        W  329   1.813  32.472  10.579
28015W        W  330  43.012  24.592   3.833
28016W        W  331  41.381  22.170   2.402
28017W        W  332  20.665  14.690   4.247
28018W        W  333  11.710  23.525   3.776
28019W        W  334  23.701  13.318  12.460
28020W        W  335   3.430  38.049  12.941
28021W        W  336  15.782   8.827  13.823
28022W        W  337   5.295  16.129  14.866
28023W        W  338  20.226  24.579  10.960
28024W        W  339   7.804   7.280  14.830
28025W        W  340  33.908  21.593  12.083
28026W        W  341  27.666   9.191  11.550
28027W        W  342  19.765   3.259   1.825
28028W        W  343  38.461  25.970  14.336
28029W        W  344  16.640   3.762  13.047
28030W        W  345  35.084  32.974   4.327
28031W        W  346  42.899  28.075   1.852
28032W        W  347  37.873  15.099  12.952
28033W        W  348  28.673  25.992  12.850
28034W        W  349  41.298  12.805   1.241
28035W        W  350  41.952  10.685   3.224
28036W        W  351  15.665  28.140   1.249
28037W        W  352  28.572  10.185   0.246
28038W        W  353  23.094  26.695   0.275
28039W        W  354  20.114  37.396  12.032
28040W        W  355  20.207  38.008  13.419
28041W        W  356  43.381  26.627   3.749
28042W        W  357  31.635   2.840   0.303
28043W        W  358  19.737  29.632  10.595
28044W        W  359  35.485  12.317  14.286
28045W        W  360  10.247  11.239  11.418
28046W        W  361  16.125  33.905   1.866
28047W        W  362  44.406  32.979  12.046
28048W        W  363   7.875  31.575  13.855
28049W        W  364  17.247  22.037   4.793
28050W        W  365  42.958   6.909  12.432
28051W        W  366   9.303  36.472   0.330
28052W        W  367  44.907  32.924   1.890
28053W        W  368  40.469  19.114  11.612
28054W        W  369  14.178   2.287   5.086
28055W        W  370  28.076  36.441  14.877
28056W        W  371  18.124   8.237  13.044
28057W        W  372  26.498   0.803  13.979
28058W        W  373  42.871  24.151   1.289
28059W        W  374   0.954  20.768   1.764
28060W        W  375  42.944  26.662   2.843
28061W        W  376  11.666  16.670   3.734
28062W        W  377  35.091  22.672   0.912
28063W        W  378  33.102   9.264   1.752
28064W        W  379   6.188  34.008   3.226
28065W        W  380  26.162  36.971   4.305
28066W        W  381  24.658  25.713  13.536
28067W        W  382  38.981  39.841   4.608
28068W        W  383  25.215   1.821   4.714
28069W        W  384  33.446  30.031   0.887
28070W        W  385  25.546  17.128   3.868
28071W        W  386   3.930  43.347  12.897
28072W        W  387  11.173  18.649  14.953
28073W        W  388  38.904  35.854  10.564
28074W        W  389  43.486  31.416   1.338
28075W        W  390  44.291  21.567   3.854
28076W        W  391  44.454  38.844  13.507
28077W        W  392   5.875  40.937  11.593
28078W        W  393  28.517  21.241  11.556
28079W        W  394   9.758   8.226   0.739
28080W        W  395  14.677  43.905   4.812
28081W        W  396  38.967  25.611  11.567
28082W        W  397  19.755  10.762   1.324
28083W        W  398  27.047   9.809   4.805
28084W        W  399  17.592  18.115   0.318
28085W        W  400  31.134  12.724   4.203
28086W        W  401  16.229  41.984  10.945
28087W        W  402  26.085   3.868  11.965
28088W        W  403  34.434   8.232  11.606
28089W        W  404  23.036  10.246   4.293
28090W        W  405  38.486  28.036   0.258
28091W        W  406  17.174  32.505  12.374
28092W        W  407  11.159  29.106  12.922
28093W        W  408   8.241   2.439  11.039
28094W        W  409   2.271  39.874   0.459
28095W        W  410  15.658  24.582   5.181
28096W        W  411  13.840   1.787   1.305
28097W        W  412  44.903  19.695  13.825
28098W        W  413  12.154  11.761  12.482
28099W        W  414  32.568  13.196   3.671
28100W        W  415  41.374  42.789   2.402
28101W        W  416  37.920  21.603   4.328
28102W        W  417  41.520   8.772   1.399
28103W        W  418  36.885   3.956   4.216
28104W        W  419  34.431  10.843  11.947
28105W        W  420  39.021  35.859  12.433
28106W        W  421  36.403  42.300   3.819
28107W        W  422  21.716  39.964   1.703
28108W        W  423   3.785  11.848   0.864
28109W        W  424  20.039   1.959  10.589
28110W        W  425   7.787   1.913  12.393
28111W        W  426  21.179  22.034  11.484
28112W        W  427  17.306  14.239  10.591
28113W        W  428  36.954  23.183  11.390
28114W        W  429  18.238   2.441  12.448
28115W        W  430   0.910   9.220   0.928
28116W        W  431  33.447  44.296  13.028
28117W        W  432  18.579  35.093   3.324
28118W        W  433  12.219  23.528   0.814
28119W        W  434  38.338  43.471   1.895
28120W        W  435  34.415  13.214   3.832
28121W        W  436  22.552   6.371  12.441
28122W        W  437  42.516  42.025   2.354
28123W        W  438  39.346   5.254  14.782
28124W        W  439  21.718   9.151  12.540
28125W        W  440  11.660  34.990   4.724
28126W        W  441  34.991  38.979   2.846
28127W        W  442  27.506  35.081   0.288
28128W        W  443   4.320  12.312  14.461
28129W        W  444  32.456   2.840  11.443
28130W        W  445  18.563  22.626   4.826
28131W        W  446  16.199  39.489   4.694
28132W        W  447  19.780  34.980  12.990
28133W        W  448  29.164   9.736   3.785
28134W        W  449   2.451  24.004   4.802
28135W        W  450  44.493   2.955   5.236
28136W        W  451   8.272  16.157   4.322
28137W        W  452  38.891   0.268  14.990
28138W        W  453  17.196  26.682   0.956
28139W        W  454  44.265  27.181  13.508
28140W        W  455  10.140  35.563   2.790
28141W        W  456  24.038  41.041   2.729
28142W        W  457  37.500  44.896  13.014
28143W        W  458   2.364   3.247   4.787
28144W        W  459  25.496  20.762   1.267
28145W        W  460  34.000  12.196  12.523
28146W        W  461  32.088   0.849  13.807
28147W        W  462  34.526   4.424  11.401
28148W        W  463  42.430  39.982  13.802
28149W        W  464   8.323  19.558   3.254
28150W        W  465  30.049   2.330  12.823
28151W        W  466  12.820  24.037   0.792
28152W        W  467  23.085  26.138  13.812
28153W        W  468  24.568  24.680   3.162
28154W        W  469   9.755  17.113   1.824
28155W        W  470   4.350  22.034  12.090
28156W        W  471  23.992  38.884   1.385
28157W        W  472  21.036  14.730  12.341
28158W        W  473  36.005  39.323   3.360
28159W        W  474  30.041  14.799   1.887
28160W        W  475  28.986  31.418  14.290
28161W        W  476  37.887  39.947   4.167
28162W        W  477  42.281  21.713  10.963
28163W        W  478  34.474  37.511   5.295
28164W        W  479  16.796  36.028   4.169
28165W        W  480   6.381  43.778   2.371
28166W        W  481  22.707  25.101  13.996
28167W        W  482  21.549  42.892  14.359
28168W        W  483   3.888  32.425  11.961
28169W        W  484  15.602  29.512   5.135
28170W        W  485   9.831  35.106   3.355
28171W        W  486   4.868  44.967  13.404
28172W        W  487  44.990  11.796   0.859
28173W        W  488  23.544   0.842  12.420
28174W        W  489  30.612  11.790  13.024
28175W        W  490  28.504  41.897   4.737
28176W        W  491  42.873  36.512  10.536
28177W        W  492  42.305  18.104  11.553
28178W        W  493  10.169  17.623  14.306
28179W        W  494  17.630  19.659  11.893
28180W        W  495   6.783   5.824  14.898
28181W        W  496  16.765  31.086  13.002
28182W        W  497  27.516  40.836   0.818
28183W        W  498  40.376  32.103  11.126
28184W        W  499   8.868  12.297   4.827
28185W        W  500  35.963  14.269   1.758
28186W        W  501   9.701  20.109   4.154
28187W        W  502  41.832  22.686  13.965
28188W        W  503  35.585   0.747   1.886
28189W        W  504  38.546  17.282  11.924
28190W        W  505  22.541   1.860   2.861
28191W        W  506  28.993  44.398  14.308
28192W        W  507  20.582  19.552  13.528
28193W        W  508  33.419  14.820  14.801
28194W        W  509  24.108  10.254  12.431
28195W        W  510  25.699  44.822   4.257
28196W        W  511  32.142   7.406   3.806
28197W        W  512  30.609  15.267   3.249
28198W        W  513  44.286  16.730   2.781
28199W        W  514  26.989  38.341   1.350
28200W        W  515  16.686  14.268  12.464
28201W        W  516  28.153   8.276   4.826
28202W        W  517   0.827  41.789  13.317
28203W        W  518  33.957   7.877  13.016
28204W        W  519  13.751  25.543   3.862
28205W        W  520  36.470  20.094  12.411
28206W        W  521  41.955  37.021   0.288
28207W        W  522  40.506  11.822   1.715
28208W        W  523  30.646  36.554  12.861
28209W        W  524   5.399  41.852  11.077
28210W        W  525   1.292  23.177  13.348
28211W        W  526  22.561  40.856   0.872
28212W        W  527  33.048   2.889   4.153
28213W        W  528  10.193  17.174  10.088
28214W        W  529   1.849  23.171  13.975
28215W        W  530  42.898   6.717   0.740
28216W        W  531  43.499   6.686  10.494
28217W        W  532  29.542  43.868   2.289
28218W        W  533   1.479  40.542   4.325
28219W        W  534  10.378   5.699   4.354
28220W        W  535  16.174  24.008   2.808
28221W        W  536  42.438  25.211   3.722
28222W        W  537  37.994  34.918  11.104
28223W        W  538  27.189  16.085   4.833
28224W        W  539   0.407  22.540  10.423
28225W        W  540  39.992  31.964  12.405
28226W        W  541  13.840  20.717   2.845
28227W        W  542  22.720  40.483   2.781
28228W        W  543   0.805  32.604   4.239
28229W        W  544  10.842   1.433   3.328
28230W        W  545  28.184  18.181  13.427
28231W        W  546  21.057   8.858  12.525
28232W        W  547   2.226  44.905   4.336
28233W        W  548  10.204  34.013   2.287
28234W        W  549  16.645  42.448   3.865
28235W        W  550  31.590  42.823  11.531
28236W        W  551  21.599  13.773   0.476
28237W        W  552  41.965  27.490  12.002
28238W        W  553   9.749  36.389   4.340
28239W        W  554  14.213  17.228   2.808
28240W        W  555  14.267  35.559  14.337
28241W        W  556  40.948   8.378   0.776
28242W        W  557  29.132  28.159   2.897
28243W        W  558  14.816  41.953  11.411
28244W        W  559   7.263   9.396   3.156
28245W        W  560  19.669  11.250  14.966
28246W        W  561   3.278  25.161   0.812
28247W        W  562  37.893  18.640   1.704
28248W        W  563  22.095  44.999   2.726
28249W        W  564  13.174  40.806  11.935
28250W        W  565  28.091  28.023   5.207
28251W        W  566  31.486   2.290   4.345
28252W        W  567  17.246  12.153   2.260
28253W        W  568  41.989  34.451  13.350
28254W        W  569  22.734  19.264   0.934
28255W        W  570   5.390  16.261   3.818
28256W        W  571  15.630  37.518   3.862
28257W        W  572  31.480  18.616   4.788
28258W        W  573  36.897  28.435   1.825
28259W        W  574  39.475  40.939   0.882
28260W        W  575  30.072  37.038  12.036
28261W        W  576  17.205   4.910  11.899
28262W        W  577  39.360  44.791   1.310
28263W        W  578  28.678  34.071  12.916
28264W        W  579  22.018  12.339  11.379
28265W        W  580  24.533  41.945  12.455
28266W        W  581  23.640  12.737  13.840
28267W        W  582   0.361   8.817  13.975
28268W        W  583  22.069  30.110   3.634
28269W        W  584  28.438  23.508  14.333
28270W        W  585  13.750  20.196  11.591
28271W        W  586  11.239  15.803  13.547
28272W        W  587  26.611  38.868   2.835
28273W        W  588  24.068  23.108   0.773
28274W        W  589  19.208  31.565   0.779
28275W        W  590   1.261  13.630   3.379
28276W        W  591   7.775  17.160  13.425
28277W        W  592   3.439  30.426   2.866
28278W        W  593  31.459  42.317  10.560
28279W        W  594   8.855   2.726  14.375
28280W        W  595  43.498  37.033   3.825
28281W        W  596  37.997  42.344   0.345
28282W        W  597   4.832  22.075   3.683
28283W        W  598  10.744  22.566   4.349
28284W        W  599  20.070  32.571   1.717
28285W        W  600  21.120  17.117   3.289
28286W        W  601  12.635  37.579   3.271
28287W        W  602  34.012   5.933  13.978
28288W        W  603  20.706  28.019   2.210
28289W        W  604  43.414   7.212  11.433
28290W        W  605  26.183  16.813  14.366
28291W        W  606  30.036  42.799   0.732
28292W        W  607  22.633  23.043   4.227
28293W        W  608   4.321  41.467   0.920
28294W        W  609  41.295  27.945  13.032
28295W        W  610  28.625  42.341  14.012
28296W        W  611  39.818   3.839  14.474
28297W        W  612  13.219   9.781  11.100
28298W        W  613   7.820  11.180  14.334
28299W        W  614  19.750  36.065   4.787
28300W        W  615  10.862  40.390   0.753
28301W        W  616  11.791   0.883   2.878
28302W        W  617  25.124  36.482   3.180
28303W        W  618  24.094  22.508  11.061
28304W        W  619  28.476  42.407  11.978
28305W        W  620   8.335   7.764  10.522
28306W        W  621  43.451  15.771   4.209
28307W        W  622   0.408   2.760   2.763
28308W        W  623  24.685  24.152   2.811
28309W        W  624   2.392  14.229   2.324
28310W        W  625  29.522   3.305  12.095
28311W        W  626  41.338  21.083  13.019
28312W        W  627  27.178  41.396  13.851
28313W        W  628  37.501  21.220  11.610
28314W        W  629  36.882  26.577   3.236
28315W        W  630  29.126  21.149   2.683
28316W        W  631  26.464   2.929  13.841
28317W        W  632  10.328  38.851  11.552
28318W        W  633  41.529  28.097  11.908
28319W        W  634  22.193  30.483  11.946
28320W        W  635   4.318  24.600   3.170
28321W        W  636   3.326   4.275  14.425
28322W        W  637  17.796  18.261  14.974
28323W        W  638  35.926  16.192   0.871
28324W        W  639  22.711  31.129   2.822
28325W        W  640  31.995   3.849  11.603
28326W        W  641   9.347  34.473  14.764
28327W        W  642  16.697  39.959   4.239
28328W        W  643  29.516   8.861  10.957
28329W        W  644   6.408  41.909   0.383
28330W        W  645  38.511  28.478   1.917
28331W        W  646  21.208  40.379  13.012
28332W        W  647   6.257  25.482   3.677
28333W        W  648   4.803  15.709   1.858
28334W        W  649  30.000  18.192  11.916
28335W        W  650  22.136  38.880  14.002
28336W        W  651  18.605   2.823   3.831
28337W        W  652   2.954  24.196  13.891
28338W        W  653  20.210  28.466  13.420
28339W        W  654  18.053  19.650   0.835
28340W        W  655  15.256  25.550  12.378
28341W        W  656   6.759  25.482   3.671
28342W        W  657  44.373  44.909   4.256
28343W        W  658  23.629  11.269  14.515
28344W        W  659  15.787  37.053  12.973
28345W        W  660  22.639  17.302  14.864
28346W        W  661   2.364  35.867   5.710
28347W        W  662  11.800  22.504   1.803
28348W        W  663  37.395   8.222   1.284
28349W        W  664  42.427  19.591   4.684
28350W        W  665  20.589   9.289  13.878
28351W        W  666  20.733  35.561   2.792
28352W        W  667  32.974  34.463   2.785
28353W        W  668  10.139   3.241   1.887
28354W        W  669   0.435  41.859  11.590
28355W        W  670  38.467  38.890  10.638
28356W        W  671   4.866   6.723  14.477
28357W        W  672  21.202  23.143  13.883
28358W        W  673  14.636  12.337  14.434
28359W        W  674   5.243   1.797   1.289
28360W        W  675  10.308  10.698   0.397
28361W        W  676   0.862  12.745  13.446
28362W        W  677  17.597  11.194   4.756
28363W        W  678  41.529  37.972   4.803
28364W        W  679   6.783  15.653  14.300
28365W        W  680  14.592  33.425  13.854
28366W        W  681  26.144  27.473  10.428
28367W        W  682  33.922  31.464   0.313
28368W        W  683  13.269  24.496   2.745
28369W        W  684  39.340  35.466   1.328
28370W        W  685  38.936  14.831   2.333
28371W        W  686  26.491  31.416   5.088
28372W        W  687  11.213  14.337   3.691
28373W        W  688  44.439  38.519  10.963
28374W        W  689  38.911  41.440  13.879
28375W        W  690  31.551  16.233   1.421
28376W        W  691  33.904  25.978  12.053
28377W        W  692   8.270  15.756  14.480
28378W        W  693  23.657   6.776  12.061
28379W        W  694   7.214  41.321   4.688
28380W        W  695   1.831  30.094   0.915
28381W        W  696  35.963  16.163   1.297
28382W        W  697  30.637   9.192  11.428
28383W        W  698  20.160  39.536  12.912
28384W        W  699  42.503   4.838   3.296
28385W        W  700   3.454   5.320  14.344
28386W        W  701  18.783  25.632  11.034
28387W        W  702  17.094  41.972   2.874
28388W        W  703   7.334  34.062   0.246
28389W        W  704  10.147   8.230  14.371
28390W        W  705   7.857  41.940   0.785
28391W        W  706   5.283  16.114   2.385
28392W        W  707  24.068  16.235   0.809
28393W        W  708  26.990   9.171  12.086
28394W        W  709  39.471   4.399   3.695
28395W        W  710  19.616  24.701   1.236
28396W        W  711  27.040   0.263  12.503
28397W        W  712   3.904  40.488   1.876
28398W        W  713  29.537  30.112   0.391
28399W        W  714   9.260   2.328  11.522
28400W        W  715   8.295  24.063  13.537
28401W        W  716  30.080  22.592  14.913
28402W        W  717  32.595  32.034   3.368
28403W        W  718   4.761  37.369  13.533
28404W        W  719  43.947  35.489   4.676
28405W        W  720  20.233  17.198  12.045
28406W        W  721  14.610   6.329   3.242
28407W        W  722  17.109  13.245   0.243
28408W        W  723  30.628  43.274  14.467
28409W        W  724  34.529  14.600   0.333
28410W        W  725  43.401  39.039  14.931
28411W        W  726  16.616  26.552  10.611
28412W        W  727  37.360  36.496  13.876
28413W        W  728  20.702   8.748  11.949
28414W        W  729   5.384  10.148   4.753
28415W        W  730  39.928  37.060  11.413
28416W        W  731  25.993  31.149  12.352
28417W        W  732   0.361  44.411   4.824
28418W        W  733  25.216  18.642   0.333
28419W        W  734  40.866  26.610  13.392
28420W        W  735   8.760   1.920  13.387
28421W        W  736  13.611  36.488   3.808
28422W        W  737  39.913   6.337  12.500
28423W        W  738  10.375  19.216  14.851
28424W        W  739   4.220  15.622  11.589
28425W        W  740   7.748  39.887   4.632
28426W        W  741  31.986  39.358   0.480
28427W        W  742   7.842  43.844   0.322
28428W        W  743  33.447  11.830  12.911
28429W        W  744  36.570   6.291  13.446
28430W        W  745  27.556  20.188   0.324
28431W        W  746  39.950  23.642   3.638
28432W        W  747  11.621   3.735  12.415
28433W        W  748   5.429  16.774  13.366
28434W        W  749   4.802  27.519  12.374
28435W        W  750  27.537   4.418  10.514
28436W        W  751  18.204  13.631  12.010
28437W        W  752  33.127  15.237  14.955
28438W        W  753  25.512  36.870   2.747
28439W        W  754  34.902  18.086  14.846
28440W        W  755  13.750  11.297   0.868
28441W        W  756   0.383  21.698   2.308
28442W        W  757  37.966  41.323   1.345
28443W        W  758  14.130  31.051   4.260
28444W        W  759  12.749   5.740  14.296
28445W        W  760  34.444  10.843   2.319
28446W        W  761   4.413  22.212   0.865
28447W        W  762   8.695   9.185   5.219
28448W        W  763  42.836  30.945   4.790
28449W        W  764  24.526  33.929   2.183
28450W        W  765  18.248  35.437  10.918
28451W        W  766  41.330  32.087  14.833
28452W        W  767  29.664   6.348  10.122
28453W        W  768   5.425  30.498   4.836
28454W        W  769  17.758  30.477  13.455
28455W        W  770   6.307   1.808  13.885
28456W        W  771  15.752  25.486  12.969
28457W        W  772  36.567  40.806  12.097
28458W        W  773  23.170  38.549   3.203
28459W        W  774  24.045  31.423   2.269
28460W        W  775  17.220  11.364  12.369
28461W        W  776  38.478  16.076  14.287
28462W        W  777   8.360  14.682   0.307
28463W        W  778   5.896  29.974   1.249
28464W        W  779   0.444  22.597  10.958
28465W        W  780  37.436  30.583  14.925
28466W        W  781  29.655  13.805   2.314
28467W        W  782  12.297  16.587  13.317
28468W        W  783  16.719   3.461  12.007
28469W        W  784  27.531  32.549  13.381
28470W        W  785  13.319   3.927  11.037
28471W        W  786  36.493  20.566   2.381
28472W        W  787  30.913   3.222  13.403
28473W        W  788  12.157  18.592   2.726
28474W        W  789  30.639  29.044   3.766
28475W        W  790  26.167  33.131   4.779
28476W        W  791   0.262   1.968   1.420
28477W        W  792  43.963  30.122  13.474
28478W        W  793  19.716  40.394   3.837
28479W        W  794  27.480  27.452   0.826
28480W        W  795   0.390   9.246   9.528
28481W        W  796  23.643  11.130   2.203
28482W        W  797   2.730   2.439  14.433
28483W        W  798  31.036   9.664   2.331
28484W        W  799  13.844  43.423  12.985
28485W        W  800  29.005  12.343   1.302
28486W        W  801   4.409  37.882   4.301
28487W        W  802   8.898  21.614   1.872
28488W        W  803  16.691  26.564  12.959
28489W        W  804  32.034  24.137   4.671
28490W        W  805   8.203  32.477   3.682
28491W        W  806   3.721   5.687   1.354
28492W        W  807  27.050  11.721  10.447
28493W        W  808  31.402  27.497  12.851
28494W        W  809  39.334  27.569  14.932
28495W        W  810  22.190  36.428  14.964
28496W        W  811  13.164   8.225   1.716
28497W        W  812  17.595  22.252  14.917
28498W        W  813  18.150  24.646   0.788
28499W        W  814  43.989  34.411  12.920
28500W        W  815  36.394  43.344  11.919
28501W        W  816   2.260  23.070   0.879
28502W        W  817  13.221  38.904   1.217
28503W        W  818  17.282  29.500  11.450
28504W        W  819  28.985   8.199  14.314
28505W        W  820  23.196  27.194  11.586
28506W        W  821  43.296  42.780   0.787
28507W        W  822  17.602   0.795   0.378
28508W        W  823  17.094  24.207  11.024
28509W        W  824  14.819   7.873   1.408
28510W        W  825  19.218  38.044   1.406
28511W        W  826  27.626  19.631  13.791
28512W        W  827  41.332  34.996   4.220
28513W        W  828  22.071  26.992  14.361
28514W        W  829   3.356   3.880  12.575
28515W        W  830  22.615  38.003  11.046
28516W        W  831  30.453  19.600  14.446
28517W        W  832  12.317  19.753  11.000
28518W        W  833  21.683  30.100   4.235
28519W        W  834  35.109  15.647  13.393
28520W        W  835  23.167   1.403  13.800
28521W        W  836   1.476  30.089  12.547
28522W        W  837  42.824  44.317   3.764
28523W        W  838  43.495  20.524  12.524
28524W        W  839  25.039  15.588   1.881
28525W        W  840  10.226  19.757  12.060
28526W        W  841  24.713   1.428  10.419
28527W        W  842  14.188   0.408  12.961
28528W        W  843  32.010   1.964   2.297
28529W        W  844   7.723   6.770   3.828
28530W        W  845  41.296  31.415   1.810
28531W        W  846  10.312   3.418  11.051
28532W        W  847  17.739  38.946  11.912
28533W        W  848   1.329  19.274   2.282
28534W        W  849  30.454   6.815  10.454
28535W        W  850  34.908  20.116  11.899
28536W        W  851   0.868   1.887   2.370
28537W        W  852  14.665  24.158   4.299
28538W        W  853  33.571  44.961   4.203
28539W        W  854  24.044  11.747  10.998
28540W        W  855   7.253  28.035   4.288
28541W        W  856   5.687  17.672   0.433
28542W        W  857  21.056   0.366  14.309
28543W        W  858  17.718  37.458   1.854
28544W        W  859   7.327   8.316   3.823
28545W        W  860  37.555  28.518  11.028
28546W        W  861  39.477   9.375   1.802
28547W        W  862  22.580   4.889  11.917
28548W        W  863  16.168  36.462   1.438
28549W        W  864  35.597  40.482   3.820
28550W        W  865  20.671  39.490   0.395
28551W        W  866  19.594   9.841  13.536
28552W        W  867   2.328  25.122  12.362
28553W        W  868  34.899  14.709   4.788
28554W        W  869  35.462  41.014   3.790
28555W        W  870  12.298   9.706  11.524
28556W        W  871  15.722  14.216  12.554
28557W        W  872  35.393  29.076  11.586
28558W        W  873  29.659   4.904   2.235
28559W        W  874  10.754  14.262  12.824
28560W        W  875  35.415  13.313   4.709
28561W        W  876  14.639   8.861  13.026
28562W        W  877  15.611  15.603  13.857
28563W        W  878  38.977  28.158  13.357
28564W        W  879  39.435  18.788   3.665
28565W        W  880  21.596  21.711   1.699
28566W        W  881  12.151  36.497   4.619
28567W        W  882  39.870   7.266   1.341
28568W        W  883  21.184   6.323   0.834
28569W        W  884  29.428   6.872  14.481
28570W        W  885  16.606  44.962   4.170
28571W        W  886   1.463  41.950   0.853
28572W        W  887  23.171  26.674   1.310
28573W        W  888   0.330  12.807   4.282
28574W        W  889  35.959  23.119   1.380
28575W        W  890  10.301  42.785  12.039
28576W        W  891  17.787  16.174  12.548
28577W        W  892  40.003  31.982   0.860
28578W        W  893  19.607  33.581   4.337
28579W        W  894  17.269  37.923  10.534
28580W        W  895  42.845  33.939   4.224
28581W        W  896   5.757  22.053   3.215
28582W        W  897  32.078  13.199   0.286
28583W        W  898   0.445  21.026   4.250
28584W        W  899  25.979  23.130  12.000
28585W        W  900  18.152  43.364   3.758
28586W        W  901  21.172   1.862   9.966
28587W        W  902  24.488  20.764  13.538
28588W        W  903  16.171  22.031   2.717
28589W        W  904  44.805  18.125  10.968
28590W        W  905   2.249  30.101   0.475
28591W        W  906  32.913  12.658  12.458
28592W        W  907  35.384   5.210   2.328
28593W        W  908  43.990   8.815  14.460
28594W        W  909  16.136  24.508  14.905
28595W        W  910  38.839   4.942   2.730
28596W        W  911  34.371   6.904   4.273
28597W        W  912  39.554  31.041  11.386
28598W        W  913  10.639  20.150   9.523
28599W        W  914  14.310   6.717  14.404
28600W        W  915  12.664  40.471  11.384
28601W        W  916  42.788  14.652  13.969
28602W        W  917   6.189  19.638  11.107
28603W        W  918  15.298  42.787   1.419
28604W        W  919  12.279  21.021   3.340
28605W        W  920  11.347   2.879  13.939
28606W        W  921  16.286  41.868   2.379
28607W        W  922  27.070   3.717   5.244
28608W        W  923  10.215  23.021  13.315
28609W        W  924   0.459   3.826   0.447
28610W        W  925   8.725  27.678  13.350
28611W        W  926  37.867  10.790  10.406
28612W        W  927   2.389  14.143   1.379
28613W        W  928  17.129  29.573   1.242
28614W        W  929  33.488  43.416   1.422
28615W        W  930  43.415  36.411   1.737
28616W        W  931  29.474  22.252   1.830
28617W        W  932  22.055  23.198  10.985
28618W        W  933   0.754  19.151   3.657
28619W        W  934  19.158  39.528  13.808
28620W        W  935  39.879  26.639  13.371
28621W        W  936  11.310  31.632   3.165
28622W        W  937  18.199  12.358  11.029
28623W        W  938  29.462  26.549  10.475
28624W        W  939   9.200  29.597  11.477
28625W        W  940   0.743  36.555   4.683
28626W        W  941   6.275  41.473  13.988
28627W        W  942  35.904   6.418   3.680
28628W        W  943  32.614  27.961   2.705
28629W        W  944  24.167  14.120  10.460
28630W        W  945  17.280  17.075   1.340
28631W        W  946  34.044   0.272   3.868
28632W        W  947  36.374  40.958   2.839
28633W        W  948  40.910  38.413   2.383
28634W        W  949  37.974   0.987  14.430
28635W        W  950  41.467   3.396  14.319
28636W        W  951   0.293  26.092   1.842
28637W        W  952   1.306   0.398  11.020
28638W        W  953  27.041  28.160   2.400
28639W        W  954  18.268  35.538   2.411
28640W        W  955  36.434  20.173   4.681
28641W        W  956   6.389  23.545   4.788
28642W        W  957  14.667  41.792   2.780
28643W        W  958  17.770  42.884  11.979
28644W        W  959   0.907  42.474   0.451
28645W        W  960  34.088  37.470  12.538
28646W        W  961   8.193   1.738   4.295
28647W        W  962  31.553  38.858   0.769
28648W        W  963  31.524  25.187  13.539
28649W        W  964  35.970  21.556   3.692
28650W        W  965   7.262  37.859  13.453
28651W        W  966  13.781  36.429   1.700
28652W        W  967  31.420  41.824   3.203
28653W        W  968  20.079  34.534  14.760
28654W        W  969  36.439  31.042  14.342
28655W        W  970  12.795   1.334   1.921
28656W        W  971  44.374   5.358  10.590
28657W        W  972  29.652  32.140  12.431
28658W        W  973  39.037  36.007  10.046
28659W        W  974  44.790  42.787  10.971
28660W        W  975  40.488  20.055  14.887
28661W        W  976  25.516  19.127  13.849
28662W        W  977  44.965  17.778   2.792
28663W        W  978  13.308  27.946   4.285
28664W        W  979  42.780  44.467   4.232
28665W        W  980  14.139  41.022   4.156
28666W        W  981  28.531  15.240   4.705
28667W        W  982   6.842  44.844  10.477
28668W        W  983   7.369  32.485   4.700
28669W        W  984  19.637  21.619   1.734
28670W        W  985  40.987  44.996   1.747
28671W        W  986  13.817  19.192  13.442
28672W        W  987  10.217  39.043   3.379
28673W        W  988  12.159  38.942   4.710
28674W        W  989  25.643  23.032   3.236
28675W        W  990  41.011  44.453   1.740
28676W        W  991  35.410  29.127  14.793
28677W        W  992  29.666  38.930  11.894
28678W        W  993  24.673  26.590   0.759
28679W        W  994  28.660  21.522  13.879
28680W        W  995  29.981   1.954   1.376
28681W        W  996  16.236  38.058  14.772
28682W        W  997  26.629  27.460   1.372
28683W        W  998  32.488  37.454  13.975
28684W        W  999  16.076   1.844  13.937
28685W        W 1000  10.838   8.689   0.252
28686W        W 1001  16.803  37.461   2.743
28687W        W 1002  16.700  36.076   0.727
28688W        W 1003   6.698  34.063   3.334
28689W        W 1004  37.951  25.062   1.884
28690W        W 1005   1.907  24.041  11.384
28691W        W 1006   1.891  36.490   4.114
28692W        W 1007  42.922  37.507   5.145
28693W        W 1008  44.344  18.177  13.335
28694W        W 1009  25.105  14.682  13.381
28695W        W 1010  26.492   7.701  11.398
28696W        W 1011  17.135  20.694  13.395
28697W        W 1012   9.747  17.082  13.834
28698W        W 1013  16.596  39.963  13.343
28699W        W 1014  27.635  13.309   1.714
28700W        W 1015  42.871  26.599   3.785
28701W        W 1016  18.552  32.994  12.396
28702W        W 1017  32.481   5.248   2.854
28703W        W 1018  44.878  15.694  12.871
28704W        W 1019   0.410  22.647   1.315
28705W        W 1020  20.202   6.296  11.575
28706W        W 1021  41.346  31.048   4.698
28707W        W 1022  19.135  10.650   1.340
28708W        W 1023  22.074   7.364  13.449
28709W        W 1024   1.437  23.185   4.607
28710W        W 1025  39.316  33.569  13.385
28711W        W 1026  26.603   3.908  12.460
28712W        W 1027  22.524  37.003   0.848
28713W        W 1028   0.794  37.072  10.103
28714W        W 1029  18.782  42.779   1.706
28715W        W 1030   8.862  26.093   2.742
28716W        W 1031   0.934  30.996   0.784
28717W        W 1032  35.547  28.141   3.837
28718W        W 1033  26.148  35.393  12.557
28719W        W 1034  34.579  35.100   2.268
28720W        W 1035  41.456  36.445  11.421
28721W        W 1036   6.381  13.271   2.385
28722W        W 1037  39.055   9.821   3.240
28723W        W 1038  13.184  32.408  10.592
28724W        W 1039  42.453  19.263  14.400
28725W        W 1040  24.172  39.440  13.357
28726W        W 1041  34.999  17.700   2.766
28727W        W 1042  35.900  17.565   0.386
28728W        W 1043  14.753  11.665   2.379
28729W        W 1044  44.330   4.275  13.313
28730W        W 1045  17.191  26.088   2.404
28731W        W 1046  23.716   3.895   3.812
28732W        W 1047  22.694  26.005  10.156
28733W        W 1048   2.326  22.592  10.947
28734W        W 1049   0.296  24.172   2.897
28735W        W 1050  29.515  11.750   2.789
28736W        W 1051   3.928  43.884  13.797
28737W        W 1052  10.656   5.195  10.544
28738W        W 1053  20.109  23.017   0.432
28739W        W 1054  38.040  22.548  11.602
28740W        W 1055  24.080  13.725  13.021
28741W        W 1056  15.724  26.100  11.876
28742W        W 1057  15.676  30.431   3.246
28743W        W 1058  41.830  21.643  11.391
28744W        W 1059  12.812  29.493  11.930
28745W        W 1060  34.999  42.830  10.494
28746W        W 1061  39.527  30.917  13.021
28747W        W 1062  16.183   6.185   2.329
28748W        W 1063  36.982  31.617  13.363
28749W        W 1064  18.157  44.499  11.956
28750W        W 1065   1.453  33.481   3.268
28751W        W 1066  12.650  38.467  14.427
28752W        W 1067  14.667  35.493   3.194
28753W        W 1068  16.717   2.430   1.401
28754W        W 1069   0.944  42.901   0.780
28755W        W 1070  11.200  40.979  11.044
28756W        W 1071   9.866  44.944   0.451
28757W        W 1072  40.308  19.272   3.713
28758W        W 1073   9.365   7.825  12.522
28759W        W 1074   3.413  10.703  10.533
28760W        W 1075  33.380  17.194   2.416
28761W        W 1076  33.057  22.110   2.332
28762W        W 1077  43.854   0.471  12.992
28763W        W 1078  32.465  36.856   3.727
28764W        W 1079  38.992  34.962  11.581
28765W        W 1080  19.049  19.112  13.991
28766W        W 1081  19.642  41.022   0.409
28767W        W 1082  25.116  15.585   3.346
28768W        W 1083  20.108  41.520   1.247
28769W        W 1084  29.033   0.818  14.385
28770W        W 1085  27.134   9.820   0.871
28771W        W 1086  37.346  18.073  11.048
28772W        W 1087  27.559   6.807  10.132
28773W        W 1088  25.616  23.062   0.249
28774W        W 1089  19.267  26.130   3.775
28775W        W 1090  31.647  27.077  10.970
28776W        W 1091  34.571  20.228  11.111
28777W        W 1092  23.160  37.071   0.256
28778W        W 1093   1.471  11.169   3.261
28779W        W 1094   3.763  29.536  11.013
28780W        W 1095   7.839  34.931   5.105
28781W        W 1096   4.804  29.120  13.846
28782W        W 1097  36.489  36.093  14.274
28783W        W 1098   1.460  28.126  11.412
28784W        W 1099  36.057  10.647  12.972
28785W        W 1100  13.257  14.268   3.683
28786W        W 1101   2.294  10.237  12.854
28787W        W 1102   6.913  25.209  12.533
28788W        W 1103  23.992  41.029   3.337
28789W        W 1104   4.743  32.627   4.236
28790W        W 1105   4.704  39.511   0.856
28791W        W 1106  41.375  31.013   1.248
28792W        W 1107  43.330   5.933  14.822
28793W        W 1108  44.781  22.554  13.322
28794W        W 1109   1.813  21.636   0.857
28795W        W 1110  20.177  37.913  13.938
28796W        W 1111  10.766  21.715   4.205
28797W        W 1112   1.900  37.946  14.470
28798W        W 1113  26.569   9.884  12.993
28799W        W 1114  39.896  17.623  14.376
28800W        W 1115  29.971  43.941   2.817
28801W        W 1116  42.473  35.959  10.504
28802W        W 1117   5.816   8.733  13.455
28803W        W 1118  37.043  38.364  13.040
28804W        W 1119   9.742  16.184  10.453
28805W        W 1120  23.133  44.470   2.695
28806W        W 1121  42.504  14.780   2.718
28807W        W 1122  40.006  11.731   3.676
28808W        W 1123  43.823   1.396   4.604
28809W        W 1124  26.988   4.235  10.889
28810W        W 1125  10.728  33.441  12.068
28811W        W 1126  10.634  27.136  14.799
28812W        W 1127  33.381  19.589  10.890
28813W        W 1128  18.203  16.205  13.966
28814W        W 1129  43.303  34.587   3.268
28815W        W 1130  35.490  10.255   1.283
28816W        W 1131  12.688   4.797  14.974
28817W        W 1132  18.156  15.805  14.412
28818W        W 1133   1.239  41.835   0.459
28819W        W 1134  38.984  26.470   1.246
28820W        W 1135  43.878  13.218  10.405
28821W        W 1136  21.578  16.590  10.947
28822W        W 1137  16.625   9.355  14.476
28823W        W 1138   4.940  22.648  12.431
28824W        W 1139   9.246  18.585  10.629
28825W        W 1140  21.635  12.347  13.486
28826W        W 1141  41.891  16.703   4.751
28827W        W 1142  44.839   1.246  14.278
28828W        W 1143   9.228  39.548   2.201
28829W        W 1144  31.082  38.927   1.865
28830W        W 1145  23.726   5.890   0.830
28831W        W 1146  33.911   1.345  12.891
28832W        W 1147   6.849  19.060  13.050
28833W        W 1148   6.867  21.189  10.937
28834W        W 1149  10.834  42.344  14.923
28835W        W 1150  16.114  11.306  13.025
28836W        W 1151  21.056  41.839   4.296
28837W        W 1152   2.297   7.905  14.297
28838W        W 1153   4.786  17.589   3.677
28839W        W 1154   5.839  38.041  14.890
28840W        W 1155  40.338  42.867  11.488
28841W        W 1156   7.881  20.646  12.011
28842W        W 1157  23.528   2.894  12.952
28843W        W 1158  38.911  26.195  10.577
28844W        W 1159  40.346  40.308   5.166
28845W        W 1160  20.557  36.528  12.490
28846W        W 1161  29.667  13.839  13.344
28847W        W 1162   0.965  37.427  13.912
28848W        W 1163  25.064  42.837  11.535
28849W        W 1164  40.881  41.527  10.611
28850W        W 1165  24.019  21.169   1.232
28851W        W 1166  15.281  29.586   4.708
28852W        W 1167  41.498  40.439   4.798
28853W        W 1168   8.168   6.232   2.335
28854W        W 1169  37.471  39.555   3.862
28855W        W 1170   7.672  18.249  10.088
28856W        W 1171  25.581   2.806  14.869
28857W        W 1172  17.643  17.678   2.323
28858W        W 1173   0.355   0.312   1.411
28859W        W 1174  11.341  40.936  11.973
28860W        W 1175  14.293   6.691   0.826
28861W        W 1176  28.505  11.316   0.731
28862W        W 1177  18.232  11.198   5.684
28863W        W 1178  44.326  41.525  14.820
28864W        W 1179  25.594  28.478  14.442
28865W        W 1180  27.989  30.557   4.733
28866W        W 1181  25.547  15.328  12.084
28867W        W 1182  28.438  39.353  13.350
28868W        W 1183  43.788  25.633   0.881
28869W        W 1184  25.515   2.921  12.428
28870W        W 1185   3.221  39.501   1.737
28871W        W 1186  29.490   8.885   4.610
28872W        W 1187  44.413  30.594  12.471
28873W        W 1188  35.557  30.413  12.906
28874W        W 1189  23.076   3.785   0.959
28875W        W 1190  10.356   0.449   3.826
28876W        W 1191  44.286  10.324   5.171
28877W        W 1192  36.530  44.331   1.819
28878W        W 1193   4.440   3.823  12.541
28879W        W 1194   3.921  33.975  14.878
28880W        W 1195   1.972  30.477   0.795
28881W        W 1196  16.128  24.000   4.145
28882W        W 1197  28.457  40.826  11.958
28883W        W 1198  32.496  22.510   9.941
28884W        W 1199  26.475   5.735   1.779
28885W        W 1200  23.084   1.803  11.940
28886W        W 1201  32.420  10.729   4.344
28887W        W 1202  41.900   5.235  14.965
28888W        W 1203  22.030  34.958   0.427
28889W        W 1204  33.934   1.349   3.226
28890W        W 1205  33.057  16.761  14.814
28891W        W 1206  22.698  24.057   0.298
28892W        W 1207  34.071  21.217  14.910
28893W        W 1208  24.051  18.227  12.566
28894W        W 1209  40.982  20.163   4.289
28895W        W 1210   0.396  16.764   0.357
28896W        W 1211  30.039  15.175   1.246
28897W        W 1212  10.382  24.100  13.970
28898W        W 1213  30.564  29.607  13.819
28899W        W 1214  30.922   3.857  12.997
28900W        W 1215  39.972  13.687  13.014
28901W        W 1216  36.426  20.253  11.884
28902W        W 1217  13.257  19.668  10.093
28903W        W 1218   9.261   1.428   3.230
28904W        W 1219  22.555  37.982   3.252
28905W        W 1220  35.489   7.403   2.827
28906W        W 1221  29.564  16.116   4.150
28907W        W 1222  24.140   9.241   2.414
28908W        W 1223   2.409  41.358   4.308
28909W        W 1224  35.498  20.096  12.457
28910W        W 1225  42.898   7.333   4.223
28911W        W 1226  28.121  44.836  12.986
28912W        W 1227  19.643  21.614  14.923
28913W        W 1228  27.510  11.728   0.306
28914W        W 1229  44.789  30.549  14.968
28915W        W 1230  11.770  29.968  12.990
28916W        W 1231  31.594  11.354   4.809
28917W        W 1232  41.850  17.130   1.335
28918W        W 1233   6.896  42.501  12.471
28919W        W 1234  17.721  41.915  12.072
28920W        W 1235  39.513  17.771  14.941
28921W        W 1236  25.044   2.408   1.774
28922W        W 1237  10.781  14.249  12.366
28923W        W 1238  26.030  26.550  10.496
28924W        W 1239  41.390   8.271   3.771
28925W        W 1240  32.532  30.985   4.613
28926W        W 1241  28.585  39.941   1.441
28927W        W 1242   8.297  26.187   3.208
28928W        W 1243  15.123  31.510  14.327
28929W        W 1244  44.398  14.816  12.994
28930W        W 1245  38.883  40.493  12.036
28931W        W 1246   1.331   0.921  14.352
28932W        W 1247  28.934  19.699  11.527
28933W        W 1248   0.860  21.715  12.991
28934W        W 1249  25.036  11.172   2.743
28935W        W 1250  10.330  44.269   0.868
28936W        W 1251  11.650  23.532   2.243
28937W        W 1252  15.283  28.511   1.882
28938W        W 1253  19.780   1.783   2.209
28939W        W 1254   5.829  27.103  14.024
28940W        W 1255  33.440  12.651   4.749
28941W        W 1256  10.735  33.021  11.855
28942W        W 1257  19.697  40.544  11.532
28943W        W 1258  36.071  23.570  12.014
28944W        W 1259   3.346  43.810  13.063
28945W        W 1260   1.904  39.374  12.503
28946W        W 1261  22.228  33.607  12.450
28947W        W 1262  35.424  25.965  11.610
28948W        W 1263   8.680  38.871  12.033
28949W        W 1264  24.646   0.804   0.388
28950W        W 1265  40.992   2.819   3.745
28951W        W 1266  10.200  40.343  12.862
28952W        W 1267  10.641  40.872   4.335
28953W        W 1268  31.587  25.164   1.911
28954W        W 1269  29.635  32.449  13.901
28955W        W 1270  35.053  37.539   1.408
28956W        W 1271  30.501  31.645   1.848
28957W        W 1272  22.091   2.389  14.862
28958W        W 1273   8.392  16.117  11.103
28959W        W 1274   4.879   9.260   1.760
28960W        W 1275  24.673  15.203  12.892
28961W        W 1276   1.800  36.938   1.750
28962W        W 1277  31.957  14.716   4.199
28963W        W 1278   2.397   6.748  13.425
28964W        W 1279  42.837  34.070  14.375
28965W        W 1280  29.505  32.402   5.302
28966W        W 1281  24.003  30.046   1.823
28967W        W 1282  38.834  40.033  12.917
28968W        W 1283  32.562  36.071   4.170
28969W        W 1284  18.135   6.790  11.926
28970W        W 1285   8.280  42.495   3.775
28971W        W 1286  25.513  15.204  12.915
28972W        W 1287  19.563  42.508  12.057
28973W        W 1288  23.080  37.852  12.824
28974W        W 1289   2.367  37.979   0.468
28975W        W 1290  25.495   6.714   3.217
28976W        W 1291   6.803  14.630  13.539
28977W        W 1292  23.083  40.425  14.479
28978W        W 1293   5.784  42.510   1.334
28979W        W 1294  24.159  23.726  12.833
28980W        W 1295  14.229   7.714   3.811
28981W        W 1296   9.662  38.819  14.001
28982W        W 1297  23.687   4.382   0.449
28983W        W 1298  44.922  41.449   0.309
28984W        W 1299  21.672  36.044  13.057
28985W        W 1300  27.489  17.215   2.284
28986W        W 1301  35.966  35.938   2.858
28987W        W 1302  21.246  22.171  14.409
28988W        W 1303  30.022  10.767  10.927
28989W        W 1304  43.511   9.845  13.535
28990W        W 1305  41.948  35.416   3.684
28991W        W 1306  43.901  32.022  14.807
28992W        W 1307   5.746  28.994   4.175
28993W        W 1308  29.148  29.625   1.891
28994W        W 1309  44.325  24.621   2.396
28995W        W 1310  40.410   7.884   3.662
28996W        W 1311  18.650  42.825   4.141
28997W        W 1312  24.653   4.848  12.861
28998W        W 1313   1.745  11.692  13.958
28999W        W 1314  36.966   1.732   4.619
29000W        W 1315  21.073  30.631  11.095
29001W        W 1316   5.852  31.456   2.788
29002W        W 1317  31.609  17.718   4.658
29003W        W 1318  11.127  21.136  14.772
29004W        W 1319   7.728  12.214   4.221
29005W        W 1320  14.693  12.654  12.520
29006W        W 1321  27.545  33.460   3.739
29007W        W 1322  13.772  38.911  10.565
29008W        W 1323  17.732  25.640  12.924
29009W        W 1324  13.349  17.571  10.907
29010W        W 1325   6.793  28.642   4.346
29011W        W 1326   5.434  42.989  11.103
29012W        W 1327   6.231  32.439   3.297
29013W        W 1328  39.965  26.508  11.496
29014W        W 1329   9.345  31.905   2.715
29015W        W 1330  37.405   5.208   0.799
29016W        W 1331  35.893  37.904  12.085
29017W        W 1332  24.047  20.135   3.867
29018W        W 1333   7.744  15.584   0.364
29019W        W 1334   2.840  14.762   1.304
29020W        W 1335   6.251  22.642   0.935
29021W        W 1336  18.275  40.845   4.206
29022W        W 1337  12.817  12.232   3.163
29023W        W 1338   8.854  14.324  12.886
29024W        W 1339  31.597  36.509   3.669
29025W        W 1340  25.473   5.844  13.381
29026W        W 1341   6.768  39.328  14.941
29027W        W 1342  24.068   1.288   3.777
29028W        W 1343   9.178  24.602  11.562
29029W        W 1344  28.506  14.721  12.393
29030W        W 1345  35.537  44.002   2.297
29031W        W 1346   9.762  43.854   2.858
29032W        W 1347   1.814  40.880  12.517
29033W        W 1348  28.977  10.276  14.777
29034W        W 1349  36.018  19.101  14.929
29035W        W 1350  31.016  33.999  14.995
29036W        W 1351  34.462  18.096   4.829
29037W        W 1352  13.321   7.743   1.232
29038W        W 1353  26.094  14.188  14.351
29039W        W 1354  42.313   9.697   0.274
29040W        W 1355  44.406  26.481   5.288
29041W        W 1356  20.529   6.191  11.995
29042W        W 1357  17.161  17.677  12.002
29043W        W 1358  42.454  33.549  14.408
29044W        W 1359  39.378  33.435   2.352
29045W        W 1360   7.276  25.141  11.021
29046W        W 1361  10.149  16.671   5.112
29047W        W 1362  12.793  18.637   2.879
29048W        W 1363  10.812  31.540  12.878
29049W        W 1364  28.035  30.590  11.535
29050W        W 1365  10.805  13.825  12.387
29051W        W 1366  19.710  18.065  10.450
29052W        W 1367  35.892  23.062   0.856
29053W        W 1368  25.659  42.915   3.738
29054W        W 1369   6.799   8.743   5.261
29055W        W 1370  26.970   8.676   3.719
29056W        W 1371  36.978  27.942  11.473
29057W        W 1372  37.464  38.357  11.088
29058W        W 1373  24.173  11.695   0.744
29059W        W 1374  35.967  21.572  12.863
29060W        W 1375  35.555  28.958   1.771
29061W        W 1376  27.675  19.580   2.730
29062W        W 1377  37.377  15.687   1.390
29063W        W 1378  25.050   6.766  12.016
29064W        W 1379  20.222  16.683  13.862
29065W        W 1380  19.609  16.158   0.251
29066W        W 1381  37.483  10.268   0.276
29067W        W 1382  34.495  42.983  14.988
29068W        W 1383  41.022  18.701  10.960
29069W        W 1384  35.057  28.437  12.480
29070W        W 1385  38.071  39.465  13.473
29071W        W 1386  28.621  33.984   2.206
29072W        W 1387  30.034  29.437   1.885
29073W        W 1388   3.802  40.367  13.865
29074W        W 1389  17.285  26.185  10.524
29075W        W 1390   1.394   5.376  14.415
29076W        W 1391  32.034  15.800  10.510
29077W        W 1392  30.148  25.539   3.342
29078W        W 1393   0.348  30.572  11.451
29079W        W 1394  23.200  29.969  14.936
29080W        W 1395  25.562   7.295  13.337
29081W        W 1396  28.112  32.431  11.468
29082W        W 1397   0.422   9.352  14.884
29083W        W 1398  10.378  12.325   0.276
29084W        W 1399  17.786  31.010   4.136
29085W        W 1400   0.481  23.638  10.929
29086W        W 1401  28.494   5.901   0.954
29087W        W 1402  19.228  44.961   1.350
29088W        W 1403  14.636   3.358   2.369
29089W        W 1404  15.255  26.531   2.297
29090W        W 1405  28.541   6.363  10.585
29091W        W 1406   0.430  23.543   3.669
29092W        W 1407  29.089   0.292   2.689
29093W        W 1408   9.259  37.430  11.898
29094W        W 1409  30.514  29.455   0.774
29095W        W 1410  31.505  15.293  12.873
29096W        W 1411  20.164  25.014  14.397
29097W        W 1412  16.305  21.166  10.946
29098W        W 1413  44.505  32.972   2.739
29099W        W 1414  28.607  31.982  13.893
29100W        W 1415  23.673   9.184  12.828
29101W        W 1416   7.711   3.365  11.572
29102W        W 1417   0.878  10.731   2.820
29103W        W 1418  40.930  22.173  11.976
29104W        W 1419  22.218  24.634   0.835
29105W        W 1420  12.800  11.369   2.684
29106W        W 1421   2.905  39.332  10.488
29107W        W 1422  26.474  39.915   1.858
29108W        W 1423   7.816  10.348   4.145
29109W        W 1424  22.091  15.583  13.432
29110W        W 1425  16.604  15.672   0.861
29111W        W 1426  38.946  22.517   3.384
29112W        W 1427  13.772   5.819  11.113
29113W        W 1428  43.915  13.223   4.294
29114W        W 1429  11.263   8.399   3.807
29115W        W 1430  43.454  22.514   0.859
29116W        W 1431  31.559   2.439  11.028
29117W        W 1432  17.750  37.976   2.302
29118W        W 1433  19.755  21.200  14.438
29119W        W 1434   9.185  43.318  13.022
29120W        W 1435  24.584  22.100  10.599
29121W        W 1436  29.030  20.103   4.684
29122W        W 1437   0.460  12.165   2.894
29123W        W 1438   7.196  35.054   4.731
29124W        W 1439  19.766   5.438  14.283
29125W        W 1440  15.626  39.887   3.326
29126W        W 1441  22.047   5.347  12.840
29127W        W 1442  34.481   8.676   3.163
29128W        W 1443  37.998   7.800   4.252
29129W        W 1444  22.152  24.119   2.864
29130W        W 1445  35.543  37.439  12.382
29131W        W 1446   1.272   9.798  13.491
29132W        W 1447  32.926  16.196  12.349
29133W        W 1448  23.490  22.123   2.400
29134W        W 1449   7.682  12.621   0.914
29135W        W 1450   8.663   2.432   2.747
29136W        W 1451   1.929   2.384   1.916
29137W        W 1452   4.864   9.886   3.682
29138W        W 1453  20.086  28.932   1.796
29139W        W 1454   9.184  13.823   0.393
29140W        W 1455  33.102  35.391   0.299
29141W        W 1456  43.844   4.392   1.279
29142W        W 1457  19.251  23.191   0.409
29143W        W 1458   8.340   6.798   0.857
29144W        W 1459  13.823  25.505   4.260
29145W        W 1460  29.599  15.733   2.693
29146W        W 1461  10.364  27.137   1.779
29147W        W 1462  29.148  21.116   3.238
29148W        W 1463   4.907  18.758  10.432
29149W        W 1464  43.326   3.833  11.449
29150W        W 1465  14.323  33.054   1.929
29151W        W 1466  11.632  41.905  12.022
29152W        W 1467  19.606   3.834  11.990
29153W        W 1468   3.919  43.992   3.358
29154W        W 1469  21.624  12.198  14.421
29155W        W 1470  42.937   0.325   1.824
29156W        W 1471  22.061  21.550   3.292
29157W        W 1472  37.473  38.924  12.490
29158W        W 1473   2.339  35.387   3.645
29159W        W 1474  34.446  42.417  13.811
29160W        W 1475  14.309  17.184   2.330
29161W        W 1476  14.269   1.928   1.363
29162W        W 1477  41.356  26.968   0.943
29163W        W 1478  37.014  35.989  11.882
29164W        W 1479  27.034  14.667  11.489
29165W        W 1480  21.648  19.596   4.255
29166W        W 1481  15.171  33.916   3.750
29167W        W 1482  30.557  44.271  11.523
29168W        W 1483  27.107   4.738  11.528
29169W        W 1484  28.052  19.695   4.738
29170W        W 1485  32.096  18.575  11.406
29171W        W 1486  11.860  21.691  11.926
29172W        W 1487  34.100  27.670  11.558
29173W        W 1488  19.718   9.662   1.861
29174W        W 1489   4.930  14.183  12.895
29175W        W 1490  36.899   6.841  11.606
29176W        W 1491   3.461  27.488   0.770
29177W        W 1492  31.115  35.921  11.041
29178W        W 1493  23.036   4.847  14.438
29179W        W 1494  16.623  14.678   3.816
29180W        W 1495  37.879  12.319  11.537
29181W        W 1496  38.449  20.180   0.941
29182W        W 1497   7.415  28.609  14.346
29183W        W 1498  35.867  34.536   2.746
29184W        W 1499   7.370  29.053  10.468
29185W        W 1500   9.151   8.365   1.329
29186W        W 1501  19.203  32.618   0.832
29187W        W 1502  24.037   9.657   1.710
29188W        W 1503  34.048  40.868   1.793
29189W        W 1504  15.740  18.784   2.795
29190W        W 1505  41.363  21.568   4.752
29191W        W 1506  40.830  40.497   1.862
29192W        W 1507   5.268  29.040  10.891
29193W        W 1508  16.593  30.520  14.379
29194W        W 1509   3.304  27.105   2.329
29195W        W 1510  42.947   4.337  13.468
29196W        W 1511  43.903  33.591   4.126
29197W        W 1512  35.935   4.732   0.265
29198W        W 1513  39.530  15.806  12.086
29199W        W 1514  28.546   9.815   3.292
29200W        W 1515  25.551   5.429  13.936
29201W        W 1516   4.421  42.817  13.041
29202W        W 1517  27.076  13.708   4.170
29203W        W 1518  34.063  43.398  13.488
29204W        W 1519   1.889  27.514   1.332
29205W        W 1520  34.970  42.832  13.349
29206W        W 1521  15.215  19.227   0.937
29207W        W 1522   9.359  37.538   5.272
29208W        W 1523  43.008  28.579   1.807
29209W        W 1524   8.743  42.804   1.446
29210W        W 1525  40.834  24.706  11.442
29211W        W 1526  17.229  19.676   4.283
29212W        W 1527  21.640  34.607  13.935
29213W        W 1528  14.599  16.709  13.509
29214W        W 1529  29.026  13.295  11.042
29215W        W 1530  28.184   3.821  11.036
29216W        W 1531   1.385  26.118  13.440
29217W        W 1532  14.672  13.694  13.064
29218W        W 1533   4.377  35.360  12.085
29219W        W 1534   2.962  21.049   1.719
29220W        W 1535  40.369  32.570  11.880
29221W        W 1536   0.419  16.787  11.484
29222W        W 1537   9.775  15.756  10.893
29223W        W 1538  16.216  29.138   3.675
29224W        W 1539   8.382   1.290  12.993
29225W        W 1540  32.543  33.111   2.751
29226W        W 1541  19.247  12.268  14.512
29227W        W 1542  39.066  35.386   1.329
29228W        W 1543  20.148  12.199   1.851
29229W        W 1544   0.373  19.061  14.320
29230W        W 1545  24.087  20.130   1.280
29231W        W 1546  13.344  40.860  13.826
29232W        W 1547  33.896  12.834   2.197
29233W        W 1548   5.318  11.719  14.443
29234W        W 1549  23.150  30.489  12.474
29235W        W 1550   4.899  41.927   3.195
29236W        W 1551  23.209  41.378  14.395
29237W        W 1552   1.370  26.507   2.725
29238W        W 1553   1.274  33.047   0.740
29239W        W 1554  43.022  37.897   2.796
29240W        W 1555   5.263  37.073  10.500
29241W        W 1556  12.264   5.383  13.874
29242W        W 1557  10.378  32.097  14.275
29243W        W 1558  33.418  31.528  11.079
29244W        W 1559  21.097  36.429  10.529
29245W        W 1560  43.891  37.840  14.892
29246W        W 1561  42.437   2.734  13.822
29247W        W 1562  18.770  38.473  12.429
29248W        W 1563  44.382  23.520  13.398
29249W        W 1564  41.824  44.293  12.932
29250W        W 1565  11.781  16.694   0.737
29251W        W 1566  15.644  22.517  14.803
29252W        W 1567  29.169  21.260  10.547
29253W        W 1568  36.034  36.858   2.419
29254W        W 1569   4.838  42.031   2.286
29255W        W 1570  44.956  26.462  12.561
29256W        W 1571  44.468  28.590  12.576
29257W        W 1572  26.982   0.840  10.493
29258W        W 1573  20.030  15.750   1.933
29259W        W 1574  19.277  28.671  10.577
29260W        W 1575   9.164   7.389   3.235
29261W        W 1576  16.143  41.017  13.807
29262W        W 1577  28.051  43.294   1.700
29263W        W 1578   3.761   6.378   2.668
29264W        W 1579  39.899  21.248   5.237
29265W        W 1580  15.711  16.742   4.640
29266W        W 1581   3.352  15.791   3.173
29267W        W 1582  18.647  36.479  11.371
29268W        W 1583  39.518  17.231   2.212
29269W        W 1584  24.552  28.650   0.412
29270W        W 1585   4.406  26.532  14.007
29271W        W 1586  23.190   1.936  14.932
29272W        W 1587  15.114  10.330   0.746
29273W        W 1588   2.907  39.063   1.264
29274W        W 1589  32.480  35.363   4.133
29275W        W 1590  43.360  38.839   2.196
29276W        W 1591  37.010  38.980  11.409
29277W        W 1592  28.967  38.036   2.401
29278W        W 1593  16.710  18.651   1.394
29279W        W 1594  32.054  21.685  14.305
29280W        W 1595   1.311   3.727  11.604
29281W        W 1596  43.499  33.924   3.318
29282W        W 1597  35.028  26.103   0.916
29283W        W 1598  31.132  32.974   0.298
29284W        W 1599   3.422  21.581  10.434
29285W        W 1600  41.451  13.179  13.406
29286W        W 1601  38.457  39.853   0.324
29287W        W 1602  37.494   6.244  14.945
29288W        W 1603   8.174   1.952  14.312
29289W        W 1604  20.662  34.969   0.948
29290W        W 1605  17.652  42.389   2.813
29291W        W 1606  40.387   6.836   3.800
29292W        W 1607   2.896  44.453  12.376
29293W        W 1608  25.701  15.578  11.382
29294W        W 1609  34.378  23.719   1.818
29295W        W 1610  42.456  23.699  10.945
29296W        W 1611  40.928   3.712  12.929
29297W        W 1612   0.277  39.378   4.138
29298W        W 1613  34.894  15.819   2.793
29299W        W 1614   3.720  29.451   2.741
29300W        W 1615  31.641  32.083  14.353
29301W        W 1616  33.111  24.691  11.504
29302W        W 1617  11.370   1.364  11.608
29303W        W 1618  10.843  12.339  12.878
29304W        W 1619   8.214  10.337  14.330
29305W        W 1620  21.105  42.337  14.784
29306W        W 1621  42.383  10.232  11.037
29307W        W 1622  23.731  35.507  10.911
29308W        W 1623   1.761  13.132   2.345
29309W        W 1624  36.558   7.239  11.402
29310W        W 1625  29.942   8.168  13.387
29311W        W 1626  23.239  10.739   2.347
29312W        W 1627   7.319   6.786   1.887
29313W        W 1628  13.614  42.343  12.860
29314W        W 1629  27.006  12.742  13.935
29315W        W 1630  15.096  44.868  12.040
29316W        W 1631  21.052  15.668   5.103
29317W        W 1632   8.686   3.270   0.472
29318W        W 1633  39.885  10.295  10.920
29319W        W 1634  16.747  11.263   4.673
29320W        W 1635  17.240   6.694   4.666
29321W        W 1636  38.528   2.370  12.460
29322W        W 1637  17.587  29.654   0.417
29323W        W 1638  10.233  33.875   0.915
29324W        W 1639  28.038  26.953   3.779
29325W        W 1640  19.588   2.408   0.373
29326W        W 1641  18.131  15.219  12.887
29327W        W 1642  38.566  30.058  10.565
29328W        W 1643  18.699   6.864   1.775
29329W        W 1644  22.213  43.277  11.925
29330W        W 1645   6.236   2.833  10.109
29331W        W 1646  14.788   2.852  10.966
29332W        W 1647  15.219   1.900  12.539
29333W        W 1648  20.042   9.193  13.423
29334W        W 1649  10.771   7.785   1.704
29335W        W 1650   4.907  43.980  12.936
29336W        W 1651  38.067  25.108   0.410
29337W        W 1652  38.383  20.091  11.494
29338W        W 1653   6.273  10.714  11.585
29339W        W 1654  30.113  27.180  14.882
29340W        W 1655  24.157  33.412  14.294
29341W        W 1656   6.908  44.405  14.992
29342W        W 1657   8.374   6.812  14.856
29343W        W 1658  43.837   8.833  11.589
29344W        W 1659  40.928  25.011   4.126
29345W        W 1660  11.638  25.073  14.819
29346W        W 1661  19.763  11.685   9.928
29347W        W 1662  32.564  10.740  12.463
29348W        W 1663  43.791  43.365  12.394
29349W        W 1664  23.058   5.871   0.464
29350W        W 1665   1.459   3.770   3.189
29351W        W 1666   6.313   7.174  14.914
29352W        W 1667  24.112   8.241   2.697
29353W        W 1668  27.072  26.489  13.045
29354W        W 1669  22.564  29.059   0.293
29355W        W 1670  22.141  19.155  14.381
29356W        W 1671  31.044  33.912   3.648
29357W        W 1672   4.363  26.562   0.741
29358W        W 1673  39.381  35.084   0.917
29359W        W 1674  37.538  18.110  12.437
29360W        W 1675  11.792  26.573   0.404
29361W        W 1676  24.684  25.043  14.798
29362W        W 1677   3.839  26.093  12.486
29363W        W 1678  22.739  21.586   1.919
29364W        W 1679  23.109   7.882   1.788
29365W        W 1680   3.425  42.434  13.795
29366W        W 1681  44.841   7.182  13.005
29367W        W 1682  11.207  11.206   4.704
29368W        W 1683   0.426   3.952   4.645
29369W        W 1684  30.008  17.083   1.354
29370W        W 1685   4.334  22.077  14.861
29371W        W 1686  12.783  23.554   2.349
29372W        W 1687  32.450   4.267   2.724
29373W        W 1688  22.121  20.176   4.219
29374W        W 1689   4.217  24.154   3.663
29375W        W 1690  37.072  26.589   1.292
29376W        W 1691  10.792  16.617   5.104
29377W        W 1692  26.469   6.201   2.875
29378W        W 1693  11.785   1.288  10.929
29379W        W 1694  44.345  14.630   2.879
29380W        W 1695  16.148  43.922   0.802
29381W        W 1696   1.971  29.970   2.751
29382W        W 1697   6.901  19.779   0.775
29383W        W 1698   1.822  43.313   4.268
29384W        W 1699  29.652  26.676  14.360
29385W        W 1700   2.825   5.303  10.409
29386W        W 1701  34.456  17.241  12.061
29387W        W 1702  42.996  14.290  11.406
29388W        W 1703  22.087  41.922   1.234
29389W        W 1704  19.252  14.704   2.690
29390W        W 1705  20.750  22.617  13.533
29391W        W 1706   5.752  10.196  11.031
29392W        W 1707  25.629   2.353   1.385
29393W        W 1708  29.433  32.615   1.440
29394W        W 1709  30.602  22.627  12.479
29395W        W 1710  25.692  12.298  12.535
29396W        W 1711  32.117   2.288  14.929
29397W        W 1712   8.696  17.610  14.504
29398W        W 1713  20.723  39.913  11.003
29399W        W 1714  17.304  24.525  13.531
29400W        W 1715  36.520   6.758  11.406
29401W        W 1716   0.332   5.821  14.823
29402W        W 1717  37.519  40.801  14.002
29403W        W 1718  21.057   4.758   0.463
29404W        W 1719  30.117   4.847   4.714
29405W        W 1720  28.655  44.459  12.038
29406W        W 1721  17.284   0.794   1.413
29407W        W 1722  10.735  19.684   3.361
29408W        W 1723  28.618  28.669   3.326
29409W        W 1724  34.378  12.808  14.285
29410W        W 1725  28.086  41.812  11.492
29411W        W 1726  16.705  28.518   0.290
29412W        W 1727  33.494  35.029  14.307
29413W        W 1728  36.405  11.762   5.123
29414W        W 1729  17.786  42.004  13.979
29415W        W 1730  23.079  28.662   1.766
29416W        W 1731  20.583  19.605   0.287
29417W        W 1732  31.535   6.281  12.094
29418W        W 1733   9.160  44.316  12.476
29419W        W 1734  37.469  29.424   3.240
29420W        W 1735  33.445  22.670  12.465
29421W        W 1736  39.370   2.876  12.871
29422W        W 1737   4.353  19.171  11.961
29423W        W 1738  27.964  19.078  14.446
29424W        W 1739  37.051  18.608  14.798
29425W        W 1740  36.544  42.908   1.906
29426W        W 1741  23.708   0.308  11.011
29427W        W 1742  30.996   5.861  13.473
29428W        W 1743   7.718  12.176   4.733
29429W        W 1744  37.914   9.794  13.912
29430W        W 1745  15.758  21.705   4.691
29431W        W 1746  23.121  15.769   1.285
29432W        W 1747  35.960  27.951   1.332
29433W        W 1748  44.266  29.965   1.450
29434W        W 1749  37.042   5.894  11.589
29435W        W 1750  36.855   1.755   0.479
29436W        W 1751  16.696  23.490  11.857
29437W        W 1752  21.738  22.221   3.754
29438W        W 1753  36.997  32.632  12.980
29439W        W 1754  41.948   3.302  10.115
29440W        W 1755  29.423  29.446   3.739
29441W        W 1756  27.467   7.722  11.540
29442W        W 1757  17.134  17.605  10.993
29443W        W 1758  34.974   5.387   0.790
29444W        W 1759  16.808   0.851  13.454
29445W        W 1760  22.088  41.451  11.969
29446W        W 1761  36.083  25.985  11.583
29447W        W 1762   8.675  10.281  11.438
29448W        W 1763   5.273  41.343   4.614
29449W        W 1764  28.061  21.036  11.965
29450W        W 1765  34.603   8.221   0.387
29451W        W 1766  43.848  11.821   1.276
29452W        W 1767  12.299   5.245   3.641
29453W        W 1768  13.752   7.912   2.770
29454W        W 1769  23.537   2.291  13.817
29455W        W 1770  27.116  19.236   4.332
29456W        W 1771  28.626  38.946  13.421
29457W        W 1772   8.766  32.579  14.012
29458W        W 1773   5.321  36.438   0.864
29459W        W 1774  37.963  24.056  10.089
29460W        W 1775  32.135  26.611  10.468
29461W        W 1776  30.500  10.785  13.053
29462W        W 1777  27.622   0.353   3.775
29463W        W 1778  40.480   6.735  13.490
29464W        W 1779  14.677  27.989  13.354
29465W        W 1780  21.247  30.048  10.416
29466W        W 1781  14.319   3.311  13.985
29467W        W 1782  14.204  24.700   2.405
29468W        W 1783  37.962  35.034   4.738
29469W        W 1784   5.225  10.764   4.633
29470W        W 1785  10.302  21.068  14.924
29471W        W 1786  32.562  43.996   1.830
29472W        W 1787  34.509  10.148  14.914
29473W        W 1788  14.307   0.794   3.710
29474W        W 1789   9.387  39.007  13.989
29475W        W 1790  36.095  16.672  14.359
29476W        W 1791  40.461  10.724   2.883
29477W        W 1792   5.746  14.208  12.361
29478W        W 1793   4.416  40.984   0.434
29479W        W 1794  42.328   4.373   2.219
29480W        W 1795   1.314  31.995   1.442
29481W        W 1796  14.686  33.488   3.784
29482W        W 1797  17.586  20.536  10.493
29483W        W 1798  33.449   1.822  10.093
29484W        W 1799  19.186  11.849  12.483
29485W        W 1800   4.916  44.954   0.866
29486W        W 1801  34.991   2.828   2.209
29487W        W 1802  29.530  41.328  13.025
29488W        W 1803  15.111  13.305   3.801
29489W        W 1804  28.544  31.446   0.899
29490W        W 1805  42.517  36.541   4.759
29491W        W 1806  35.942  10.312   5.262
29492W        W 1807  12.153  42.862  14.777
29493W        W 1808   8.306  44.289  13.959
29494W        W 1809  29.579  11.163   4.758
29495W        W 1810   3.801  12.633  12.345
29496W        W 1811  28.574  39.459   4.640
29497W        W 1812  24.505  33.927  11.010
29498W        W 1813  18.763  40.937   5.711
29499W        W 1814  11.193  11.193  12.880
29500W        W 1815   3.718  39.892   3.387
29501W        W 1816  39.053  34.369   3.745
29502W        W 1817  32.894  37.485   1.383
29503W        W 1818  44.356  17.225   3.730
29504W        W 1819  39.336   5.327  14.412
29505W        W 1820  26.469   5.887  13.910
29506W        W 1821  40.868  31.638  14.471
29507W        W 1822  26.188   5.772  11.526
29508W        W 1823  35.596  15.583   2.217
29509W        W 1824  35.905   0.801   2.191
29510W        W 1825   2.727  35.473   4.793
29511W        W 1826  20.684  34.387   2.276
29512W        W 1827  35.983   1.276  12.432
29513W        W 1828  17.680   6.800  10.428
29514W        W 1829  24.043  15.216  14.428
29515W        W 1830  21.746  24.598  14.963
29516W        W 1831  21.104  18.578  11.562
29517W        W 1832  30.615  16.130   3.190
29518W        W 1833   3.429  28.034   0.749
29519W        W 1834  30.579  40.946   4.325
29520W        W 1835  21.246  19.268   3.225
29521W        W 1836  38.019  32.597  12.506
29522W        W 1837  14.222  38.401  14.759
29523W        W 1838  25.096  19.721   4.240
29524W        W 1839  41.826  34.039  14.982
29525W        W 1840  29.602  39.398   4.179
29526W        W 1841  37.568  11.223   4.800
29527W        W 1842  30.643  17.799  13.847
29528W        W 1843  16.774  24.628  13.334
29529W        W 1844  14.616   7.846   1.827
29530W        W 1845  33.014  31.495   0.901
29531W        W 1846  27.538  18.715   4.118
29532W        W 1847  38.473   3.233   4.791
29533W        W 1848  13.223  22.143  10.432
29534W        W 1849  21.074   0.399  11.124
29535W        W 1850  31.956  37.561   3.808
29536W        W 1851   4.303  24.515  11.417
29537W        W 1852  11.623  44.444  12.440
29538W        W 1853  28.964   2.966  11.998
29539W        W 1854  33.466  14.612  13.538
29540W        W 1855  18.132  42.472  13.024
29541W        W 1856  10.835  26.696   4.642
29542W        W 1857  19.220   6.234   4.779
29543W        W 1858  23.037  33.116   1.369
29544W        W 1859  43.011   9.265  12.366
29545W        W 1860   3.814  42.517   2.416
29546W        W 1861  20.547  27.615   3.208
29547W        W 1862  24.982  17.568  11.910
29548W        W 1863  39.319  34.109  11.437
29549W        W 1864  28.149   3.852  12.394
29550W        W 1865   7.377  19.201  12.936
29551W        W 1866  17.583   5.735   3.771
29552W        W 1867  38.903  27.531   9.978
29553W        W 1868   4.930   6.420   3.286
29554W        W 1869  42.827   6.392   3.752
29555W        W 1870  31.475   8.872  13.989
29556W        W 1871  43.787  36.892  14.354
29557W        W 1872  13.747  17.607  13.488
29558W        W 1873  18.166  17.705  12.482
29559W        W 1874  29.988  26.523   0.860
29560W        W 1875  16.569  18.121  12.962
29561W        W 1876   7.678   6.341   0.921
29562W        W 1877   7.308  20.647   4.734
29563W        W 1878   5.773  37.993  12.003
29564W        W 1879   2.247   2.248   0.850
29565W        W 1880  29.005  31.002   2.186
29566W        W 1881  24.655  27.151  14.338
29567W        W 1882  20.224  11.791   5.213
29568W        W 1883  17.672  10.689  14.004
29569W        W 1884  24.540  38.976   1.417
29570W        W 1885  33.116  40.842  11.413
29571W        W 1886  34.111  33.577   3.153
29572W        W 1887  44.757  27.960   2.225
29573W        W 1888  31.410  11.744   4.671
29574W        W 1889  30.051  13.820  12.510
29575W        W 1890  34.522  16.159  13.986
29576W        W 1891  24.171  11.625   3.310
29577W        W 1892  42.328  17.178   1.910
29578W        W 1893  20.533  34.004   3.367
29579W        W 1894   5.210  24.561  11.481
29580W        W 1895  36.374  22.554   3.158
29581W        W 1896  34.035  22.112   2.878
29582W        W 1897  21.243  31.410   1.286
29583W        W 1898  33.020   5.833  13.942
29584W        W 1899  15.708  20.730  13.316
29585W        W 1900  37.348  27.642   0.945
29586W        W 1901  43.439  20.740  13.017
29587W        W 1902  27.617  25.589   2.210
29588W        W 1903  14.211  29.086   1.285
29589W        W 1904  42.877   4.837   1.847
29590W        W 1905  10.181  21.615  11.912
29591W        W 1906  12.312  36.458   3.817
29592W        W 1907  31.465   8.778  14.490
29593W        W 1908  20.589  28.128   0.422
29594W        W 1909  16.134  23.020  11.405
29595W        W 1910   0.917  32.420  14.383
29596W        W 1911   9.305  43.886  14.770
29597W        W 1912   8.873  14.676   1.883
29598W        W 1913  31.148   8.700   1.857
29599W        W 1914  39.492  19.129  11.961
29600W        W 1915  17.590  10.302  13.816
29601W        W 1916  11.646  14.645  13.472
29602W        W 1917   9.262  37.548   0.365
29603W        W 1918  25.217  43.322   1.892
29604W        W 1919  32.626  40.468  10.503
29605W        W 1920   9.822  39.852  12.982
29606W        W 1921  44.405  36.002   2.837
29607W        W 1922  22.581  35.568   4.162
29608W        W 1923  25.082   8.780  11.080
29609W        W 1924  37.451   7.762  11.959
29610W        W 1925  38.854  20.727  14.872
29611W        W 1926   5.710  26.098   0.374
29612W        W 1927  37.912  28.580  13.536
29613W        W 1928  41.974  41.381  12.022
29614W        W 1929  43.365  30.434   0.740
29615W        W 1930  24.518  15.582   4.708
29616W        W 1931  33.445   2.341   4.135
29617W        W 1932   5.891  12.141   3.730
29618W        W 1933   2.352  39.392   0.384
29619W        W 1934  12.208  20.634   4.662
29620W        W 1935  33.938  28.653  11.593
29621W        W 1936  28.475  42.829   4.767
29622W        W 1937   0.366  39.043  10.633
29623W        W 1938  17.076  14.788   2.756
29624W        W 1939  16.309  37.498  14.938
29625W        W 1940  42.462  27.123   2.756
29626W        W 1941  28.960  15.773  10.643
29627W        W 1942  25.687  39.013  13.855
29628W        W 1943  33.964  33.445   1.420
29629W        W 1944  44.811  28.935   2.269
29630W        W 1945   7.222  26.626   3.213
29631W        W 1946  35.971  20.630   4.646
29632W        W 1947  42.780  37.018   1.281
29633W        W 1948  37.536  32.958  13.826
29634W        W 1949  11.201   6.772  10.549
29635W        W 1950  41.818  34.942   3.212
29636W        W 1951   0.780  38.972  14.842
29637W        W 1952  32.508  20.164   1.733
29638W        W 1953   0.981  35.575  11.980
29639W        W 1954  17.196  42.287   4.292
29640W        W 1955  32.479  29.923  10.581
29641W        W 1956  22.612  16.582  14.801
29642W        W 1957  44.404  41.465   3.217
29643W        W 1958  12.682  23.622  12.535
29644W        W 1959  18.703   7.826  12.414
29645W        W 1960   3.403   8.692  13.035
29646W        W 1961   2.804   9.382  10.468
29647W        W 1962  34.372  40.850   2.696
29648W        W 1963  27.970  38.908   1.888
29649W        W 1964  31.466  11.334   2.299
29650W        W 1965  39.862  34.465  10.484
29651W        W 1966   4.378  23.517   2.779
29652W        W 1967  12.228   9.216  12.035
29653W        W 1968  41.002  11.200  11.104
29654W        W 1969   8.763  10.815   3.279
29655W        W 1970  42.966  14.139   1.211
29656W        W 1971  13.634  37.529  12.947
29657W        W 1972  10.696  14.318  14.889
29658W        W 1973  27.080  39.318   2.788
29659W        W 1974  14.146  19.674   5.198
29660W        W 1975  43.912  39.831   0.300
29661W        W 1976  26.145  11.799   1.347
29662W        W 1977  23.502  22.685   2.254
29663W        W 1978  13.184  37.516   3.730
29664W        W 1979  42.882   0.389   0.888
29665W        W 1980  26.481  39.467  12.445
29666W        W 1981  22.688  33.416   5.151
29667W        W 1982  32.960  23.177  11.879
29668W        W 1983  17.794   3.386  13.513
29669W        W 1984   3.938  22.055   0.948
29670W        W 1985  41.820  25.197   4.796
29671W        W 1986  41.903  37.468  11.033
29672W        W 1987  27.665   1.316  13.924
29673W        W 1988  31.961  10.267  11.083
29674W        W 1989  19.743  17.148   1.873
29675W        W 1990  11.660  42.907   4.721
29676W        W 1991  29.038  30.112  12.432
29677W        W 1992   1.970  38.881   4.160
29678W        W 1993  13.686  31.606  12.561
29679W        W 1994   7.414  33.412  10.503
29680W        W 1995  10.226  31.143   2.295
29681W        W 1996  25.188  17.128   1.811
29682W        W 1997  40.471  32.114  14.006
29683W        W 1998  30.087  10.220   0.359
29684W        W 1999  17.749   3.875   3.295
29685W        W 2000  36.475  15.248   2.224
29686W        W 2001  22.070  37.938   1.841
29687W        W 2002   1.334  43.891   1.404
29688W        W 2003  14.783  32.581   0.378
29689W        W 2004  40.332   7.699   2.896
29690W        W 2005  32.444  18.680   3.689
29691W        W 2006  30.543  44.388  10.993
29692W        W 2007  18.731  10.814   5.260
29693W        W 2008  19.225  26.109   2.756
29694W        W 2009  27.979   1.399   2.729
29695W        W 2010  17.583  39.838   0.937
29696W        W 2011   4.333  34.884   0.257
29697W        W 2012  37.019   1.283   3.301
29698W        W 2013  30.488  44.407   0.947
29699W        W 2014  43.467  16.649  11.509
29700W        W 2015  32.400  12.315   3.384
29701W        W 2016  35.436  11.269   4.174
29702W        W 2017  38.061  40.458   0.749
29703W        W 2018  26.463  18.203  14.031
29704W        W 2019   9.191  32.124  13.022
29705W        W 2020  16.786   5.291  13.982
29706W        W 2021  35.573  32.938  10.990
29707W        W 2022   9.384  31.956  13.490
29708W        W 2023  38.399  18.065   3.361
29709W        W 2024   0.828  34.457  14.440
29710W        W 2025  38.396   1.331  13.815
29711W        W 2026  42.840  34.594   1.302
29712W        W 2027   4.293  20.152   2.794
29713W        W 2028  23.049  44.834   4.197
29714W        W 2029  38.473  39.526   3.161
29715W        W 2030  24.044  17.084   0.864
29716W        W 2031  18.215  21.638   1.804
29717W        W 2032  21.149  18.051   1.871
29718W        W 2033  10.375   2.886  12.553
29719W        W 2034  44.939  24.709   3.264
29720W        W 2035  38.357   0.954   4.715
29721W        W 2036  14.834  33.513  13.355
29722W        W 2037   5.359   3.374   4.826
29723W        W 2038  35.877  20.137  11.585
29724W        W 2039  13.301  39.554   4.144
29725W        W 2040   7.230  42.901  10.009
29726W        W 2041   5.728   9.689  11.928
29727W        W 2042  42.903  36.074  12.090
29728W        W 2043  33.396  29.139  14.924
29729W        W 2044  27.983  42.032   3.343
29730W        W 2045  44.894  31.947  10.527
29731W        W 2046   9.799  40.035  14.845
29732W        W 2047  24.657  20.107   4.333
29733W        W 2048  37.582  31.595  11.473
29734W        W 2049  25.551   7.804   3.283
29735W        W 2050  35.466  10.152  10.005
29736W        W 2051  19.722  25.078  13.956
29737W        W 2052  14.228  12.842   2.343
29738W        W 2053  21.521  38.501   0.346
29739W        W 2054  12.805   8.782   0.417
29740W        W 2055  39.825   0.764  14.884
29741W        W 2056  34.024  19.257   1.446
29742W        W 2057  38.945  20.766  11.128
29743W        W 2058  44.794   7.265   2.216
29744W        W 2059  12.792  22.207   0.802
29745W        W 2060  18.122   2.346  14.006
29746W        W 2061  10.751  27.978   3.687
29747W        W 2062   2.454  27.532  12.008
29748W        W 2063  14.229  30.647   0.287
29749W        W 2064  11.129  27.053  11.050
29750W        W 2065  17.792  30.079   5.670
29751W        W 2066  23.987  24.044  10.610
29752W        W 2067  36.377  31.590   4.351
29753W        W 2068  36.578  16.235  13.050
29754W        W 2069  24.591  12.710   3.303
29755W        W 2070  38.480  28.087  11.507
29756W        W 2071   3.310   7.881  13.455
29757W        W 2072  15.264  29.053  10.464
29758W        W 2073  15.578  37.861   4.354
29759W        W 2074  14.167  33.536  11.074
29760W        W 2075   2.736  32.960   0.845
29761W        W 2076  41.307  26.703  12.080
29762W        W 2077  20.043  40.000   4.741
29763W        W 2078  31.916  34.425  12.979
29764W        W 2079   9.715  21.025   1.787
29765W        W 2080  15.770   4.313   0.258
29766W        W 2081  23.654  40.961  14.948
29767W        W 2082  27.991  41.813  13.362
29768W        W 2083   0.254  13.665  13.018
29769W        W 2084   5.901  27.450   0.726
29770W        W 2085  11.632  15.755   4.829
29771W        W 2086  15.112  39.944  11.527
29772W        W 2087  22.181   1.293   0.773
29773W        W 2088   9.382  10.166   4.681
29774W        W 2089  17.619  30.078   3.668
29775W        W 2090  30.569  37.987  11.433
29776W        W 2091  28.059  29.945  14.286
29777W        W 2092  19.171  11.797   0.740
29778W        W 2093   8.752   2.744   1.929
29779W        W 2094  10.137  38.480   3.237
29780W        W 2095  35.545  18.285   2.897
29781W        W 2096  36.874  34.583   2.831
29782W        W 2097  26.956  34.876  12.085
29783W        W 2098  33.039  27.570  11.891
29784W        W 2099  29.074  22.095   2.715
29785W        W 2100  28.654  37.375   3.841
29786W        W 2101  32.447  43.346   0.741
29787W        W 2102  38.983  34.467  11.405
29788W        W 2103  38.381  24.546   1.260
29789W        W 2104  15.765  39.409  12.455
29790W        W 2105   7.322   1.757  14.897
29791W        W 2106  25.973  15.734  12.532
29792W        W 2107   4.446  28.661   4.672
29793W        W 2108  31.062   4.249  11.371
29794W        W 2109  14.632   2.409   4.686
29795W        W 2110  21.263  37.971   3.170
29796W        W 2111  12.283  26.178  11.380
29797W        W 2112  28.445   1.937  14.860
29798W        W 2113  42.499  14.752   4.817
29799W        W 2114  27.135   8.331   1.254
29800W        W 2115  35.075  11.252   3.636
29801W        W 2116  27.480   2.375   2.763
29802W        W 2117   1.287  29.176   0.464
29803W        W 2118   2.760  42.780  12.403
29804W        W 2119  10.230  17.683  14.976
29805W        W 2120  23.705   3.363  14.411
29806W        W 2121   3.388  37.983   1.310
29807W        W 2122  13.350  38.411  11.375
29808W        W 2123  43.970  20.758   2.700
29809W        W 2124  43.496  11.170  10.604
29810W        W 2125  19.635   3.876   4.785
29811W        W 2126  12.121  10.282   2.762
29812W        W 2127  41.443  20.274  13.922
29813W        W 2128  26.058   5.407   5.248
29814W        W 2129  11.733  21.061   1.383
29815W        W 2130  32.615  10.163   2.389
29816W        W 2131  27.573  40.035  13.458
29817W        W 2132   4.396   1.370  12.044
29818W        W 2133  43.320  16.667   0.455
29819W        W 2134  30.019   3.335  11.105
29820W        W 2135  21.589   3.255  12.472
29821W        W 2136  32.901  23.044  10.510
29822W        W 2137  35.392   6.911   2.836
29823W        W 2138   7.749  28.517  12.389
29824W        W 2139  20.085  16.809  13.365
29825W        W 2140  26.070   0.335   4.758
29826W        W 2141  24.205   1.934  13.445
29827W        W 2142  21.646  37.516  12.537
29828W        W 2143  21.745  27.078   3.306
29829W        W 2144  27.981   9.663   2.859
29830W        W 2145   2.411  31.092  11.125
29831W        W 2146  41.291  12.683   0.316
29832W        W 2147   5.699  21.039   2.217
29833W        W 2148   0.383  33.935   5.255
29834W        W 2149  42.288  35.071  14.803
29835W        W 2150  43.989  22.141  11.973
29836W        W 2151  33.988   8.319  11.880
29837W        W 2152  30.978  26.010  14.020
29838W        W 2153   5.402  13.654  14.813
29839W        W 2154  10.144  29.566  14.301
29840W        W 2155  44.841  24.059  12.964
29841W        W 2156  24.196   0.456  10.994
29842W        W 2157   9.320   8.290  11.506
29843W        W 2158  43.885  13.707  14.449
29844W        W 2159  20.249   3.848   1.711
29845W        W 2160  25.535  11.655  12.049
29846W        W 2161  35.076  12.809   1.416
29847W        W 2162   1.925  35.532   3.703
29848W        W 2163  11.736   0.437  10.004
29849W        W 2164  11.762   1.910   4.627
29850W        W 2165  39.493   9.655  12.464
29851W        W 2166  25.650  30.537   5.110
29852W        W 2167  41.801   0.974  10.959
29853W        W 2168  39.972  35.093  10.907
29854W        W 2169  23.649  24.073   0.727
29855W        W 2170  33.450  17.751  13.838
29856W        W 2171  29.540  19.713   3.223
29857W        W 2172  22.713  16.126  13.983
29858W        W 2173  19.045  16.737   3.707
29859W        W 2174  34.874  20.053   2.234
29860W        W 2175   3.716   0.921  13.348
29861W        W 2176  31.099  39.473   1.738
29862W        W 2177  29.084  14.678   2.181
29863W        W 2178  36.009  39.523  11.602
29864W        W 2179   6.715  21.140   1.405
29865W        W 2180  11.857  31.946  10.471
29866W        W 2181  21.030  35.498   0.290
29867W        W 2182   9.251  43.990  12.965
29868W        W 2183  21.237  20.179  10.005
29869W        W 2184  37.841  37.493   4.688
29870W        W 2185   5.403  38.983   2.684
29871W        W 2186  38.455  42.835   0.337
29872W        W 2187  29.609   4.375  12.090
29873W        W 2188   3.917  19.711  10.612
29874W        W 2189  30.547  23.633  11.529
29875W        W 2190  28.075  10.267   3.670
29876W        W 2191   2.812  32.007  12.986
29877W        W 2192   4.852  12.268  14.011
29878W        W 2193  40.896   9.828   3.635
29879W        W 2194   8.174  11.767  14.838
29880W        W 2195  20.688  44.323  13.537
29881W        W 2196   1.786  13.794   4.772
29882W        W 2197  18.275   0.776  10.559
29883W        W 2198  15.801  37.409   2.369
29884W        W 2199  18.763  14.148   0.446
29885W        W 2200  40.815  32.906   2.229
29886W        W 2201  29.952   0.362   1.912
29887W        W 2202  21.142  41.887   1.350
29888W        W 2203  11.714  11.199   2.710
29889W        W 2204  12.233  17.670   4.632
29890W        W 2205  43.874  12.746  13.349
29891W        W 2206  40.957  23.162  14.801
29892W        W 2207  32.432  22.544  12.017
29893W        W 2208   1.422   5.911   4.115
29894W        W 2209  20.118  18.077   4.235
29895W        W 2210  25.962  38.022  12.989
29896W        W 2211  41.996  31.598   2.262
29897W        W 2212  37.001  20.760  14.422
29898W        W 2213   2.744  39.540   1.893
29899W        W 2214   2.350  11.810  11.862
29900W        W 2215  37.060  34.985  14.488
29901W        W 2216   1.329   1.971   3.260
29902W        W 2217  30.932  25.021  11.077
29903W        W 2218  34.956  26.103   0.440
29904W        W 2219  43.299   9.787  12.503
29905W        W 2220   6.702  35.005   4.326
29906W        W 2221  21.529  13.612   3.147
29907W        W 2222   5.298  32.992   1.848
29908W        W 2223  23.026  22.086  13.054
29909W        W 2224  21.750  19.678   3.149
29910W        W 2225  26.497  41.017  11.071
29911W        W 2226  17.721  40.325   9.586
29912W        W 2227  25.055  38.913  11.023
29913W        W 2228  44.461   5.832  13.352
29914W        W 2229   7.795  40.469  13.541
29915W        W 2230  32.967  23.042   1.284
29916W        W 2231  26.472  38.944   4.247
29917W        W 2232  10.768  33.093  10.531
29918W        W 2233   3.714  40.833   3.332
29919W        W 2234   5.420  43.912   2.679
29920W        W 2235  34.440  34.476  12.481
29921W        W 2236   9.346  10.325  12.034
29922W        W 2237  36.364  10.804   0.749
29923W        W 2238  41.328  40.798   3.798
29924W        W 2239  31.478  27.478   0.261
29925W        W 2240  42.975  41.861   2.388
29926W        W 2241  43.010   0.331   2.375
29927W        W 2242   9.229  26.673   0.444
29928W        W 2243  16.653   6.896   2.201
29929W        W 2244  41.517  39.393   0.417
29930W        W 2245  27.157  13.612   0.862
29931W        W 2246   1.263  26.969   1.746
29932W        W 2247  13.241  39.017  12.970
29933W        W 2248  15.760  19.775  12.843
29934W        W 2249  43.362  14.280   4.712
29935W        W 2250  20.259  25.690   2.900
29936W        W 2251  30.415   5.908   4.812
29937W        W 2252   4.356   6.358   4.705
29938W        W 2253  17.144   8.361  14.888
29939W        W 2254  13.763  36.570   3.294
29940W        W 2255   3.751  10.347   3.653
29941W        W 2256  11.194  23.666  14.413
29942W        W 2257   0.846   7.713  11.084
29943W        W 2258   2.296  31.530  13.395
29944W        W 2259   3.745  32.097   4.806
29945W        W 2260   5.744  12.828  13.894
29946W        W 2261  25.177   1.398   3.361
29947W        W 2262  30.612   9.873  13.461
29948W        W 2263   9.314  27.194  12.848
29949W        W 2264   0.299  37.058   1.417
29950W        W 2265  20.598   8.183  11.956
29951W        W 2266  29.952  33.582   2.356
29952W        W 2267  26.608  17.651   4.131
29953W        W 2268   8.402   7.807   0.905
29954W        W 2269  37.936  32.063  14.471
29955W        W 2270  35.036  40.521  11.083
29956W        W 2271  43.473  22.021  12.945
29957W        W 2272  25.047  13.840   2.364
29958W        W 2273  44.402  38.402  14.957
29959W        W 2274  38.911   1.365  10.624
29960W        W 2275  17.606  21.714  13.473
29961W        W 2276   0.346  12.206  14.865
29962W        W 2277  13.745  37.419  11.499
29963W        W 2278  10.354  44.300   4.777
29964W        W 2279  38.864  34.391   2.678
29965W        W 2280  11.668   2.286  12.535
29966W        W 2281  36.471   2.271   1.796
29967W        W 2282  17.569  17.793  12.090
29968W        W 2283  31.093  17.094  11.605
29969W        W 2284   4.769  39.959   5.224
29970W        W 2285  43.308  38.907   0.322
29971W        W 2286  12.231   7.327   0.285
29972W        W 2287  27.060   5.383  10.565
29973W        W 2288  28.453  17.645   3.766
29974W        W 2289  15.633   1.809   0.851
29975W        W 2290  41.998  39.990  12.867
29976W        W 2291  16.189  34.999  13.058
29977W        W 2292  13.814  39.328   2.681
29978W        W 2293  10.696  35.552   0.797
29979W        W 2294  40.934   5.277  14.770
29980W        W 2295   4.322  32.489   1.237
29981W        W 2296  39.995  33.992   4.828
29982W        W 2297  39.840  42.484   1.404
29983W        W 2298  23.667  16.611  13.928
29984W        W 2299  11.804  22.646  14.810
29985W        W 2300  34.100  17.115   2.734
29986W        W 2301  13.634  18.721   0.373
29987W        W 2302   6.740  17.139   3.288
29988W        W 2303   9.706  18.746  14.312
29989W        W 2304  32.917  27.060   3.157
29990W        W 2305  25.705  42.312   4.648
29991W        W 2306  21.757  43.918  12.442
29992W        W 2307  26.997  44.763  12.869
29993W        W 2308  11.229  42.315  12.086
29994W        W 2309   3.810  21.083   2.823
29995W        W 2310   2.465   3.927  11.387
29996W        W 2311  24.080  31.500  13.356
29997W        W 2312  23.527   2.241   0.321
29998W        W 2313  30.459  16.604   0.892
29999W        W 2314  43.468   8.376   4.826
30000W        W 2315  31.411  24.552   2.318
30001W        W 2316  29.946  10.860  13.858
30002W        W 2317  33.426   5.713  12.546
30003W        W 2318   0.953   3.816   2.898
30004W        W 2319  22.650  28.600   1.867
30005W        W 2320  36.866  39.946   3.645
30006W        W 2321  34.887  33.938   2.395
30007W        W 2322  36.857  39.862  14.346
30008W        W 2323  23.508  42.954   2.891
30009W        W 2324  36.099  28.637  14.813
30010W        W 2325  32.063  35.886  11.504
30011W        W 2326   6.281  11.294  11.580
30012W        W 2327  22.501  19.252   3.808
30013W        W 2328   7.759   1.263   1.445
30014W        W 2329  13.232  44.889  14.349
30015W        W 2330  10.856  17.082  14.511
30016W        W 2331  19.675  13.190  10.610
30017W        W 2332  19.119  20.195   4.186
30018W        W 2333  44.982   9.260   2.727
30019W        W 2334  34.443  18.074  12.492
30020W        W 2335  31.991  41.451   1.839
30021W        W 2336   9.201  40.927   2.881
30022W        W 2337   5.402  35.042   3.160
30023W        W 2338  40.005  12.841  11.020
30024W        W 2339  24.981  38.568   2.815
30025W        W 2340  12.628  23.047  13.852
30026W        W 2341  26.538   2.390  11.561
30027W        W 2342  10.645   3.734   3.262
30028W        W 2343  28.948  23.205  12.017
30029W        W 2344  15.787  42.285   4.632
30030W        W 2345  23.027  34.869  13.412
30031W        W 2346   2.870  10.363   2.300
30032W        W 2347   8.677  38.480   3.155
30033W        W 2348  41.041  38.883  13.473
30034W        W 2349   8.734  30.943   1.257
30035W        W 2350   5.359  30.943  13.310
30036W        W 2351  19.215  28.064   2.669
30037W        W 2352  24.086  25.193  14.982
30038W        W 2353  32.414  12.217  14.972
30039W        W 2354  33.418   1.836   4.611
30040W        W 2355  27.683  24.083   1.860
30041W        W 2356   8.738  34.506  13.540
30042W        W 2357  19.652  24.041  14.945
30043W        W 2358  21.091  41.013  14.460
30044W        W 2359  30.593  12.343  11.047
30045W        W 2360  37.984  26.144   5.229
30046W        W 2361   8.667  16.793   5.277
30047W        W 2362   4.806  22.732   2.786
30048W        W 2363   4.856  20.533   0.425
30049W        W 2364  11.133  38.856   4.291
30050W        W 2365  10.757  12.751  12.497
30051W        W 2366  39.321  31.942  11.477
30052W        W 2367  15.578  21.246  11.981
30053W        W 2368  12.850   4.718  10.413
30054W        W 2369   5.205  21.233   4.257
30055W        W 2370  27.036   5.385  14.864
30056W        W 2371   1.857  35.859   4.666
30057W        W 2372  44.875  42.913   0.465
30058W        W 2373  29.633   3.903  12.477
30059W        W 2374   0.448   1.881  12.368
30060W        W 2375  24.169  34.064   3.866
30061W        W 2376  19.693   9.348   0.767
30062W        W 2377  16.275  14.200   2.671
30063W        W 2378  19.686  26.570   0.336
30064W        W 2379  32.912  11.309   0.270
30065W        W 2380  23.121  40.801   3.197
30066W        W 2381   5.337  36.473  12.367
30067W        W 2382  26.174  30.975  11.013
30068W        W 2383  33.942  27.521  10.496
30069W        W 2384  30.441  14.307  13.952
30070W        W 2385  39.559   7.707  11.465
30071W        W 2386  21.167  43.866   2.697
30072W        W 2387  24.482  26.145  10.905
30073W        W 2388  10.248  30.486  11.112
30074W        W 2389   8.852  29.981  13.408
30075W        W 2390   5.902   7.366  11.573
30076W        W 2391  39.470  34.516   3.824
30077W        W 2392  21.180  37.501   4.200
30078W        W 2393   9.653  42.471   1.921
30079W        W 2394   1.747   1.431  13.403
30080W        W 2395  17.556  26.112  10.932
30081W        W 2396  35.554  14.319  14.906
30082W        W 2397  12.787  28.958  12.928
30083W        W 2398  14.218  23.611   3.810
30084W        W 2399  31.901  20.168  14.291
30085W        W 2400  29.981  12.797   4.213
30086W        W 2401  38.926  28.149   3.696
30087W        W 2402  16.793  38.500   9.998
30088W        W 2403   8.264  41.827   0.472
30089W        W 2404  14.149  14.614   1.449
30090W        W 2405  38.545  43.947   3.675
30091W        W 2406  32.539   8.344   3.201
30092W        W 2407  17.802  28.458  12.530
30093W        W 2408  22.564   6.308   1.734
30094W        W 2409  13.121  35.366  12.378
30095W        W 2410  10.805   2.447  14.316
30096W        W 2411  28.976  30.079   4.680
30097W        W 2412   9.697  14.688  10.578
30098W        W 2413   9.196   9.670  10.621
30099W        W 2414  10.248  30.158  11.556
30100W        W 2415  38.928  19.548   3.656
30101W        W 2416  27.984  15.696  12.998
30102W        W 2417  17.208  22.014   1.731
30103W        W 2418   8.690  32.091   4.318
30104W        W 2419   2.326  42.950   3.668
30105W        W 2420  27.968  21.620  10.506
30106W        W 2421  41.888  19.259   1.822
30107W        W 2422  22.678  26.580   1.341
30108W        W 2423  28.049  25.702  10.490
30109W        W 2424  27.959  23.986  11.377
30110W        W 2425   8.328   7.186  13.797
30111W        W 2426  23.606   1.806   4.632
30112W        W 2427   7.202  25.696   0.431
30113W        W 2428  44.758  24.667   3.778
30114W        W 2429  14.794  33.070  11.073
30115W        W 2430  10.165  42.907  12.831
30116W        W 2431  12.729   3.286   2.386
30117W        W 2432  27.987   8.301  12.074
30118W        W 2433  24.532  26.566   2.384
30119W        W 2434   4.257  27.689  13.311
30120W        W 2435  14.729   9.367  11.867
30121W        W 2436  10.769  41.488  12.968
30122W        W 2437  23.571  26.173  11.992
30123W        W 2438  12.699  36.994   4.727
30124W        W 2439   4.327   0.262  11.504
30125W        W 2440  24.107  24.500   0.825
30126W        W 2441  40.478  37.043   3.750
30127W        W 2442   7.401  20.134   3.273
30128W        W 2443   0.981   3.844  10.983
30129W        W 2444  16.785  10.184   2.730
30130W        W 2445  42.922  28.635   4.114
30131W        W 2446  39.541  14.257   5.088
30132W        W 2447   0.841  38.822  12.895
30133W        W 2448   8.190   7.271  11.900
30134W        W 2449  32.537  26.073   1.262
30135W        W 2450   1.333   2.266  14.031
30136W        W 2451  34.420  37.966  14.317
30137W        W 2452  12.167  37.566  11.421
30138W        W 2453  38.038  34.900   1.319
30139W        W 2454   6.858  18.262   1.900
30140W        W 2455   7.860  36.415  13.957
30141W        W 2456  29.935  38.011  14.954
30142W        W 2457  24.675   8.263   3.218
30143W        W 2458   6.739   7.745   3.849
30144W        W 2459  30.079   6.420   3.632
30145W        W 2460  11.703  38.859  11.085
30146W        W 2461  29.144  37.053   2.224
30147W        W 2462  11.772  32.923  12.071
30148W        W 2463   0.327  37.456  12.003
30149W        W 2464  37.968   0.987  12.939
30150W        W 2465  22.046  32.403   4.634
30151W        W 2466  11.325  30.939   1.280
30152W        W 2467   6.757  33.404   4.624
30153W        W 2468  15.262  39.374  10.914
30154W        W 2469  34.460  40.972   3.361
30155W        W 2470  33.000  13.712  14.947
30156W        W 2471   1.373  32.937  13.846
30157W        W 2472  44.988  34.512   0.927
30158W        W 2473  17.252   6.779   3.152
30159W        W 2474  11.159  17.303   1.817
30160W        W 2475  30.122  23.111   4.284
30161W        W 2476  11.864  17.121   0.447
30162W        W 2477   4.347   4.338   0.863
30163W        W 2478  24.169  20.168   0.285
30164W        W 2479   9.351  31.094  12.965
30165W        W 2480   2.852   6.249  13.795
30166W        W 2481  15.220  39.853   4.609
30167W        W 2482  15.182   2.880   3.825
30168W        W 2483  31.992  44.429   4.280
30169W        W 2484   0.259  34.025   5.742
30170W        W 2485   0.323   2.924  13.851
30171W        W 2486  16.248  19.751   4.330
30172W        W 2487  26.503  11.164  13.431
30173W        W 2488  22.699  39.848   4.751
30174W        W 2489  10.647  22.174   3.213
30175W        W 2490  37.411  39.040   1.430
30176W        W 2491  26.985  28.627   3.646
30177W        W 2492  13.672  37.575   0.926
30178W        W 2493  18.678  40.513   1.793
30179W        W 2494  18.630  20.661  11.870
30180W        W 2495  41.318  38.969   2.769
30181W        W 2496  20.541  17.176   1.334
30182W        W 2497  37.034  35.468   1.436
30183W        W 2498  21.036  16.796  12.574
30184W        W 2499   8.701  19.241   0.454
30185W        W 2500  37.082  19.065  12.344
30186W        W 2501  25.019  16.263  12.537
30187W        W 2502  38.045  29.100   2.789
30188W        W 2503  36.868  24.655  10.554
30189W        W 2504  44.326  25.713   2.292
30190W        W 2505  38.516  15.320  12.850
30191W        W 2506  41.996  26.011   3.640
30192W        W 2507  26.463  27.681  14.890
30193W        W 2508  16.642  34.587   3.196
30194W        W 2509  40.336   3.747  14.502
30195W        W 2510  36.439   2.930   1.451
30196W        W 2511  39.975   8.847   1.317
30197W        W 2512  20.135  26.986  13.481
30198W        W 2513  26.581  12.633  14.856
30199W        W 2514   1.375  35.870   5.225
30200W        W 2515  38.516  25.028   4.132
30201W        W 2516  38.073  17.632   3.318
30202W        W 2517   2.360  23.641  14.985
30203W        W 2518  35.502  24.539   3.781
30204W        W 2519  17.211  15.802  13.792
30205W        W 2520   8.756  31.571   4.286
30206W        W 2521  10.680  29.531   0.288
30207W        W 2522  21.153  27.985   2.322
30208W        W 2523  29.096  42.403   0.274
30209W        W 2524  23.074   4.291   4.123
30210W        W 2525  27.059  11.347   2.782
30211W        W 2526  26.672  25.032   4.611
30212W        W 2527  40.479  27.986   5.133
30213W        W 2528  29.002  40.305  14.815
30214W        W 2529  43.379  22.525  10.585
30215W        W 2530   5.865   2.768   2.682
30216W        W 2531  28.468  19.711   0.308
30217W        W 2532  36.900  27.127  13.034
30218W        W 2533  18.747   6.705  14.764
30219W        W 2534  39.360  36.455   3.731
30220W        W 2535  30.414  13.810  13.863
30221W        W 2536  44.784  18.257   2.321
30222W        W 2537  37.400  24.057  13.878
30223W        W 2538   2.918   2.302   0.399
30224W        W 2539  17.225   0.296  10.431
30225W        W 2540  40.911   6.720  13.995
30226W        W 2541  17.652   4.236   0.933
30227W        W 2542  42.941  30.014  13.865
30228W        W 2543  25.166   5.323   2.289
30229W        W 2544  22.557  37.868  14.937
30230W        W 2545  33.048  20.253  11.082
30231W        W 2546  15.811  20.597   3.646
30232W        W 2547  21.128   0.757   3.317
30233W        W 2548  31.963   9.707  12.905
30234W        W 2549  43.767  21.545   4.681
30235W        W 2550  44.779  29.534   3.841
30236W        W 2551  13.736   9.378  12.573
30237W        W 2552  13.111  13.231   4.281
30238W        W 2553  20.127  20.196  14.847
30239W        W 2554  41.448  39.509   3.201
30240W        W 2555  14.829  20.601   4.175
30241W        W 2556  12.316   0.357  12.950
30242W        W 2557   8.368  26.457  13.855
30243W        W 2558   9.149  14.235   4.634
30244W        W 2559  18.215  27.028   0.897
30245W        W 2560  15.218  28.554  13.844
30246W        W 2561   0.389  21.519  14.939
30247W        W 2562  29.630  18.174   2.791
30248W        W 2563   8.661   0.761  10.970
30249W        W 2564  18.577  34.890   1.910
30250W        W 2565  20.549  20.690   1.345
30251W        W 2566  19.543  11.690  10.901
30252W        W 2567   0.929  27.111  13.831
30253W        W 2568  33.010  12.172   4.720
30254W        W 2569  25.191  14.240  11.099
30255W        W 2570  15.614  13.823   3.376
30256W        W 2571  28.141  10.191   2.903
30257W        W 2572  23.075  22.240  11.488
30258W        W 2573  16.266  12.297   1.395
30259W        W 2574  33.416  33.463   3.743
30260W        W 2575   2.247  42.825  14.839
30261W        W 2576   8.323  31.491   1.717
30262W        W 2577  37.446  43.902  11.566
30263W        W 2578  36.410  18.597  14.882
30264W        W 2579  32.014  11.194  13.846
30265W        W 2580  22.159  36.000   4.782
30266W        W 2581  36.361  28.936   2.749
30267W        W 2582  14.320  37.503   4.276
30268W        W 2583  12.276  25.649   3.685
30269W        W 2584   0.307  24.724   2.736
30270W        W 2585   0.263  16.657  11.066
30271W        W 2586  43.825   3.841  11.033
30272W        W 2587  14.795  27.067   3.224
30273W        W 2588  41.823   0.753  12.342
30274W        W 2589  44.378  32.911   1.270
30275W        W 2590  21.651  25.471   4.819
30276W        W 2591  37.342  22.675  14.292
30277W        W 2592  13.811   2.425   1.339
30278W        W 2593  22.143  32.937  10.538
30279W        W 2594  16.787  29.610   3.289
30280W        W 2595  42.810  15.112  11.383
30281W        W 2596  40.548  41.310   4.130
30282W        W 2597  12.740  36.429   4.226
30283W        W 2598  34.903  35.936  13.967
30284W        W 2599   7.304  14.319   3.320
30285W        W 2600  12.249   5.327   1.242
30286W        W 2601  43.896  14.742   1.770
30287W        W 2602  25.210  20.149  10.024
30288W        W 2603  29.655  44.440   2.703
30289W        W 2604  11.651  24.557   4.159
30290W        W 2605  11.743  35.062   2.779
30291W        W 2606   5.376  42.979   0.890
30292W        W 2607  42.362  41.971   4.353
30293W        W 2608  36.093  35.108  14.832
30294W        W 2609   2.308  18.166  13.491
30295W        W 2610  33.569   4.243   2.726
30296W        W 2611  15.814  15.328   0.937
30297W        W 2612  36.569  35.556   4.665
30298W        W 2613  30.585  36.847  13.403
30299W        W 2614  16.207  22.127  14.827
30300W        W 2615  13.344   2.787   0.835
30301W        W 2616  29.050  26.690   2.293
30302W        W 2617  42.412  16.686  11.564
30303W        W 2618   6.248   8.786   2.897
30304W        W 2619   2.305  34.969   4.231
30305W        W 2620  24.034  22.555   4.660
30306W        W 2621  43.338  10.289   0.788
30307W        W 2622  22.007  28.997   1.253
30308W        W 2623  19.587  21.539   0.377
30309W        W 2624  19.661  10.764   2.398
30310W        W 2625  28.039  40.381   4.290
30311W        W 2626  22.106   7.336   4.195
30312W        W 2627   1.334  36.850   0.476
30313W        W 2628  27.597   6.738   2.680
30314W        W 2629  24.987  16.123   0.811
30315W        W 2630   2.335  20.658  10.987
30316W        W 2631  43.365  10.648  11.497
30317W        W 2632   9.216   9.157  14.305
30318W        W 2633  34.392  38.923  14.770
30319W        W 2634  34.038   5.209   0.405
30320W        W 2635  20.586  23.590   3.731
30321W        W 2636   3.385   9.281   1.784
30322W        W 2637   2.295  19.625   2.705
30323W        W 2638  35.506  43.899   1.325
30324W        W 2639  10.717  42.030  11.422
30325W        W 2640  26.163   5.757  12.416
30326W        W 2641  13.838  25.992   2.748
30327W        W 2642  10.180  25.006  13.871
30328W        W 2643  16.138  20.526  14.970
30329W        W 2644  21.677  20.673   9.935
30330W        W 2645   5.427  15.696  14.992
30331W        W 2646  24.581   4.251  13.804
30332W        W 2647  19.117  37.516  14.491
30333W        W 2648  36.940   7.683  12.558
30334W        W 2649   7.686  43.997  11.070
30335W        W 2650  41.460  36.949   1.809
30336W        W 2651  23.023  44.873   3.278
30337W        W 2652  41.387  37.891   1.865
30338W        W 2653  11.362  16.164   2.850
30339W        W 2654  20.543   7.825   0.809
30340W        W 2655  31.012  41.912  12.058
30341W        W 2656  43.396  33.606   0.745
30342W        W 2657   6.293  15.785  13.859
30343W        W 2658  39.008  43.457   3.345
30344W        W 2659  44.408  43.515   4.197
30345W        W 2660  31.931  32.005  10.638
30346W        W 2661   4.219  30.611   3.152
30347W        W 2662  43.327  30.149   0.413
30348W        W 2663  41.862  28.163   1.300
30349W        W 2664  22.512  42.911   1.700
30350W        W 2665   3.454  12.757   3.797
30351W        W 2666  13.723  35.496  13.055
30352W        W 2667  30.524  39.022  12.871
30353W        W 2668   4.801  31.014  11.019
30354W        W 2669  36.364  32.520   2.836
30355W        W 2670  41.944  38.934  11.467
30356W        W 2671  19.263  29.663   0.839
30357W        W 2672  18.139   1.311  12.890
30358W        W 2673   8.733  42.418   2.205
30359W        W 2674  28.061  25.048   3.214
30360W        W 2675  12.659  37.473  13.811
30361W        W 2676  10.696  14.782   2.357
30362W        W 2677  11.311  34.869  14.435
30363W        W 2678  25.551  43.332  12.432
30364W        W 2679  36.098  20.709   3.317
30365W        W 2680  42.489   9.731   1.808
30366W        W 2681   7.323  12.704   3.372
30367W        W 2682  38.498  10.140   4.153
30368W        W 2683  20.186  12.160  13.370
30369W        W 2684  13.805  10.264   3.718
30370W        W 2685  20.554   8.718   1.427
30371W        W 2686  21.639  20.091  10.974
30372W        W 2687  39.905  21.566   3.166
30373W        W 2688   0.885  29.510   2.398
30374W        W 2689  22.171   4.704  10.406
30375W        W 2690  34.569  35.419  13.355
30376W        W 2691  27.048  43.433   2.362
30377W        W 2692  37.001  37.480  10.485
30378W        W 2693   3.278  29.586  14.977
30379W        W 2694  29.081  18.246   0.335
30380W        W 2695  28.978  31.536  13.355
30381W        W 2696   7.327  20.612   1.413
30382W        W 2697  10.212   7.714  12.835
30383W        W 2698  25.114  35.072   0.756
30384W        W 2699  40.927   7.868   0.876
30385W        W 2700  31.503   2.354   4.696
30386W        W 2701  41.855   3.875   1.715
30387W        W 2702  25.056  17.173  11.977
30388W        W 2703  17.199  42.777   2.880
30389W        W 2704  12.324  11.686  12.824
30390W        W 2705   7.747  20.634  14.831
30391W        W 2706   0.847  29.632   0.780
30392W        W 2707  36.012  25.602   3.268
30393W        W 2708  16.647  15.657   2.230
30394W        W 2709  44.956  33.434  14.295
30395W        W 2710  16.089   2.869  14.434
30396W        W 2711  44.952  36.088   4.813
30397W        W 2712  12.730  12.127  10.450
30398W        W 2713  28.579  26.481   1.231
30399W        W 2714  23.664  40.538  14.452
30400W        W 2715  10.773  24.685  11.465
30401W        W 2716  39.001  31.481  12.497
30402W        W 2717  38.943  14.333  12.506
30403W        W 2718  31.107  34.936  13.954
30404W        W 2719  40.388  26.113   9.610
30405W        W 2720  39.860  16.617  14.023
30406W        W 2721  32.951  37.960   2.246
30407W        W 2722  31.967  43.388  11.559
30408W        W 2723  22.563   5.327   0.731
30409W        W 2724   5.290  29.034   2.224
30410W        W 2725  29.146   6.688  12.067
30411W        W 2726  39.833  23.182   4.822
30412W        W 2727   5.251   7.726  14.474
30413W        W 2728  15.732  10.155  13.400
30414W        W 2729  41.022  36.069   1.900
30415W        W 2730  33.585   5.262   0.890
30416W        W 2731  33.098   7.212  14.896
30417W        W 2732  30.051  34.922   2.902
30418W        W 2733  34.559  44.814   4.698
30419W        W 2734  20.058  18.552   1.436
30420W        W 2735  23.090  17.216  14.403
30421W        W 2736  25.592  20.212   9.922
30422W        W 2737  15.737  26.537  13.444
30423W        W 2738   0.764  30.549  14.399
30424W        W 2739   5.925  21.556  12.357
30425W        W 2740  24.685  38.928   0.772
30426W        W 2741  35.105   3.430   4.680
30427W        W 2742  34.441  11.852  12.972
30428W        W 2743  35.894  25.548  13.943
30429W        W 2744  14.276  29.461  10.421
30430W        W 2745  38.960  15.244   3.819
30431W        W 2746  14.819  42.816   4.135
30432W        W 2747   2.366  18.138  11.431
30433W        W 2748  19.066  43.349  14.951
30434W        W 2749  25.179  43.769  11.112
30435W        W 2750  14.232  28.556   1.284
30436W        W 2751  11.308   7.795   4.837
30437W        W 2752  23.559   7.287   4.225
30438W        W 2753  33.605  11.630   0.364
30439W        W 2754  20.746  41.867   2.200
30440W        W 2755  30.606   9.240   3.297
30441W        W 2756  41.982   9.155  10.950
30442W        W 2757  12.659  10.144  14.352
30443W        W 2758  19.042  28.590   4.219
30444W        W 2759  42.787  10.161  13.463
30445W        W 2760   6.384  43.272  13.846
30446W        W 2761   2.749  40.421   2.223
30447W        W 2762   7.272  44.788   2.770
30448W        W 2763  35.043  19.675   1.727
30449W        W 2764  32.391  36.971   4.710
30450W        W 2765  17.175  40.435  14.875
30451W        W 2766  38.868   1.261  11.421
30452W        W 2767  26.475  16.758  11.423
30453W        W 2768   5.380  17.766   0.341
30454W        W 2769   4.837  16.290   1.729
30455W        W 2770  25.015  16.656   1.929
30456W        W 2771  20.120   6.834  13.541
30457W        W 2772  17.570  15.794  14.956
30458W        W 2773   3.294   4.862  12.375
30459W        W 2774  43.960  31.574   0.452
30460W        W 2775   9.241   8.686   3.159
30461W        W 2776  10.654  29.649   2.768
30462W        W 2777  44.826  12.683  10.977
30463W        W 2778   4.290  18.665   4.176
30464W        W 2779  28.121   4.855   0.422
30465W        W 2780  17.586  40.001   1.778
30466W        W 2781  40.831  37.862   1.758
30467W        W 2782  11.696  14.137   2.197
30468W        W 2783   6.315  15.281   4.289
30469W        W 2784  12.299  31.981   2.863
30470W        W 2785   8.218  19.249  10.645
30471W        W 2786  11.678   2.381   0.748
30472W        W 2787   9.268  40.368  13.937
30473W        W 2788  33.535   0.916   0.843
30474W        W 2789  43.987   6.809  11.542
30475W        W 2790  33.475   7.707  14.840
30476W        W 2791  23.178  43.849  11.926
30477W        W 2792   7.911   9.348   0.339
30478W        W 2793  21.145  33.600  13.472
30479W        W 2794   0.921   1.871   1.349
30480W        W 2795  36.014   1.936   1.929
30481W        W 2796  23.690   3.218  12.973
30482W        W 2797  17.685  28.121  13.540
30483W        W 2798  33.079  20.740   3.683
30484W        W 2799  18.785   9.157  14.401
30485W        W 2800   5.847   5.434  10.481
30486W        W 2801  35.593  10.206  13.024
30487W        W 2802   4.729  44.809   1.880
30488W        W 2803  44.397  22.593  13.355
30489W        W 2804   4.266  30.965   4.116
30490W        W 2805  22.013  16.178  11.500
30491W        W 2806   5.781  32.576   3.784
30492W        W 2807  33.617  24.036  10.467
30493W        W 2808  32.472  42.295   1.885
30494W        W 2809  37.031  41.474  14.915
30495W        W 2810  40.955  19.577  10.951
30496W        W 2811  40.817  34.079  11.989
30497W        W 2812  15.771  39.902   0.432
30498W        W 2813   2.431  33.974  12.382
30499W        W 2814  24.660  33.887   2.806
30500W        W 2815  12.855  29.430   0.829
30501W        W 2816   9.878  36.917  10.483
30502W        W 2817  28.153  21.194   2.717
30503W        W 2818   4.730  35.531  14.384
30504W        W 2819  44.352  35.972   4.736
30505W        W 2820   9.861  41.388  12.507
30506W        W 2821   1.298   1.442  10.565
30507W        W 2822  41.441  37.989   0.936
30508W        W 2823  33.593  40.880  10.546
30509W        W 2824   5.371  43.919  14.322
30510W        W 2825   6.228  13.614   1.376
30511W        W 2826  39.985  36.063  11.465
30512W        W 2827  22.038  42.412  10.953
30513W        W 2828  28.078  25.684  14.981
30514W        W 2829  33.898  21.103   4.281
30515W        W 2830  19.091  28.544   0.857
30516W        W 2831  12.195  29.114  11.907
30517W        W 2832  19.716  15.590  10.055
30518W        W 2833   1.289  15.196   2.838
30519W        W 2834  17.295  35.974  14.897
30520W        W 2835  25.008  44.340   3.216
30521W        W 2836  28.982  44.324  12.961
30522W        W 2837  20.694   1.851   4.269
30523W        W 2838  25.137   3.351  12.499
30524W        W 2839   7.804  34.098  13.041
30525W        W 2840  20.037  18.173   4.623
30526W        W 2841  19.137   5.925  14.326
30527W        W 2842   6.850  15.249   4.664
30528W        W 2843  21.204  20.066  13.377
30529W        W 2844  22.064  37.041   1.265
30530W        W 2845   8.762  11.755   3.819
30531W        W 2846  38.559   7.351   0.743
30532W        W 2847  29.497   4.409   3.727
30533W        W 2848  41.476  22.530   1.303
30534W        W 2849  37.838  26.025  12.492
30535W        W 2850  24.609  35.909  12.449
30536W        W 2851  35.367   9.653   4.808
30537W        W 2852  29.038  28.158  11.125
30538W        W 2853  26.066  26.608   1.416
30539W        W 2854  15.791  21.209   0.897
30540W        W 2855  15.257  43.913   1.696
30541W        W 2856  37.346  29.124  13.063
30542W        W 2857  13.332   2.786   2.665
30543W        W 2858  14.746  17.793  10.537
30544W        W 2859  37.526  36.905   4.277
30545W        W 2860  19.039   2.291  13.038
30546W        W 2861   7.747  29.487  10.521
30547W        W 2862  32.569  39.348  14.507
30548W        W 2863  34.021  31.061  14.002
30549W        W 2864   1.777  26.120   3.229
30550W        W 2865  13.291   0.768  13.962
30551W        W 2866  17.741   9.198  11.122
30552W        W 2867  41.985  18.060   3.340
30553W        W 2868  19.705   3.811  13.024
30554W        W 2869  34.958  25.639   3.649
30555W        W 2870  19.543  30.647  14.378
30556W        W 2871  38.330  24.173  10.560
30557W        W 2872  22.692  42.416  12.478
30558W        W 2873  11.756  38.973  14.833
30559W        W 2874  14.715  30.518  14.395
30560W        W 2875  21.672  41.340  12.085
30561W        W 2876  40.917  12.212  13.977
30562W        W 2877  28.097   9.884   0.446
30563W        W 2878  27.675   5.387   0.916
30564W        W 2879  31.498  41.808   2.358
30565W        W 2880   3.437  23.075   3.154
30566W        W 2881  18.103   7.209   2.716
30567W        W 2882  25.974   8.316  11.531
30568W        W 2883   7.230  27.553  13.953
30569W        W 2884  29.969  24.077   4.753
30570W        W 2885  42.330  24.990  12.031
30571W        W 2886  12.126   8.807  13.978
30572W        W 2887  10.335  25.638  14.831
30573W        W 2888  37.932  43.468  12.494
30574W        W 2889  17.635  30.550   3.152
30575W        W 2890  28.956  31.500   1.766
30576W        W 2891  16.602  14.807  12.910
30577W        W 2892  33.980  41.326   1.890
30578W        W 2893  41.794   3.784   0.432
30579W        W 2894  34.044  42.029   3.319
30580W        W 2895  32.392   6.900  11.493
30581W        W 2896  14.732  23.582   1.794
30582W        W 2897   6.810  15.149   3.769
30583W        W 2898  31.009  26.115   2.365
30584W        W 2899  40.983   4.760  13.986
30585W        W 2900  12.226   2.452  14.798
30586W        W 2901  40.547  23.170   1.818
30587W        W 2902   5.871  33.413   4.602
30588W        W 2903  33.940  10.200  14.301
30589W        W 2904  25.180   8.681  13.318
30590W        W 2905  10.692  20.764  14.514
30591W        W 2906   4.887  14.292   3.806
30592W        W 2907  18.685  40.312   4.154
30593W        W 2908  41.350   7.749   3.192
30594W        W 2909  37.936  40.348   3.364
30595W        W 2910  33.567  29.455   1.358
30596W        W 2911   0.862  18.629   2.808
30597W        W 2912  33.401  35.998   0.250
30598W        W 2913   2.805  44.977  11.959
30599W        W 2914  35.999   7.380  13.529
30600W        W 2915   1.384  15.165  14.379
30601W        W 2916  16.787  13.222   2.324
30602W        W 2917  17.726  11.769   9.959
30603W        W 2918  12.190  39.022   1.731
30604W        W 2919   4.344  14.154   3.674
30605W        W 2920   7.815   4.397   2.896
30606W        W 2921  17.627   6.354  11.393
30607W        W 2922  34.613  25.684  13.878
30608W        W 2923   6.364  13.628  14.852
30609W        W 2924  31.942  31.442  13.530
30610W        W 2925  20.688  10.785   5.219
30611W        W 2926  27.503  40.511   2.803
30612W        W 2927  38.354   0.367   2.209
30613W        W 2928  42.304  43.849   1.729
30614W        W 2929  36.860  30.023  13.331
30615W        W 2930  25.974  18.244   3.322
30616W        W 2931   2.831   9.251  13.974
30617W        W 2932  41.971  21.646   2.808
30618W        W 2933  43.812   8.711  10.052
30619W        W 2934   3.803  42.004  13.046
30620W        W 2935  17.294  39.547  12.943
30621W        W 2936   3.234  16.302  12.429
30622W        W 2937  44.305   2.437  12.476
30623W        W 2938  14.176  31.558   2.834
30624W        W 2939  30.938  40.511   4.309
30625W        W 2940   8.803   0.409  13.546
30626W        W 2941  23.226  30.958   1.445
30627W        W 2942  34.434  25.593   4.130
30628W        W 2943  30.484   4.234  14.959
30629W        W 2944  13.340  30.565   3.195
30630W        W 2945   9.856  40.331  13.003
30631W        W 2946  17.300  24.699   4.785
30632W        W 2947   9.666  19.628  11.608
30633W        W 2948   5.814   5.740   1.884
30634W        W 2949  40.535  10.712   0.464
30635W        W 2950   5.861  43.494  13.054
30636W        W 2951  29.670   4.403   1.827
30637W        W 2952   2.359   5.759  14.318
30638W        W 2953   2.382  14.339  14.838
30639W        W 2954  10.668   0.406  11.596
30640W        W 2955  19.571   2.454   3.640
30641W        W 2956   7.775  34.008  14.458
30642W        W 2957  11.200  32.139   4.186
30643W        W 2958  41.519   1.404   0.291
30644W        W 2959   8.842  40.906   0.262
30645W        W 2960  11.625  41.815   2.263
30646W        W 2961  32.457  34.041  13.818
30647W        W 2962  22.605  18.180   1.286
30648W        W 2963  44.286  22.092   0.730
30649W        W 2964  13.830  31.428  11.529
30650W        W 2965   7.334  43.928   4.276
30651W        W 2966   3.378  12.221   2.811
30652W        W 2967  38.916  20.089   4.617
30653W        W 2968  20.031   8.170  10.987
30654W        W 2969   9.386  35.542  11.902
30655W        W 2970  13.788   4.736  11.428
30656W        W 2971  34.566  30.045   2.258
30657W        W 2972  14.591  42.832   0.404
30658W        W 2973   3.856  40.477   3.273
30659W        W 2974   2.912  40.832   4.619
30660W        W 2975  22.589  26.608  13.933
30661W        W 2976  11.691  29.130   2.861
30662W        W 2977  33.462  20.057   1.759
30663W        W 2978  36.046   1.937   0.437
30664W        W 2979  25.010  10.745   2.758
30665W        W 2980   0.465  14.750   2.201
30666W        W 2981  28.479  29.666   0.381
30667W        W 2982  16.118  23.145   3.367
30668W        W 2983  21.080   9.162  11.607
30669W        W 2984  28.480  22.743  10.546
30670W        W 2985  43.498   0.938   1.707
30671W        W 2986   4.346   5.712   1.816
30672W        W 2987  23.522  28.497  10.889
30673W        W 2988  40.472  12.127   1.888
30674W        W 2989  29.589  17.228   3.181
30675W        W 2990  19.274  25.020   0.962
30676W        W 2991   9.771  16.624  14.019
30677W        W 2992   2.758  15.644  11.050
30678W        W 2993   0.981  20.725  14.980
30679W        W 2994  32.585  31.425   1.437
30680W        W 2995   3.771  30.587   2.754
30681W        W 2996  18.250  18.225  10.468
30682W        W 2997  20.238  35.102  12.997
30683W        W 2998   9.866  19.165  14.986
30684W        W 2999   6.764  39.464   0.753
30685W        W 3000  35.598  25.970   3.375
30686W        W 3001  27.634  22.251  11.962
30687W        W 3002  31.964   4.881  12.532
30688W        W 3003  38.918  31.483  11.384
30689W        W 3004  41.005  19.631  14.924
30690W        W 3005  11.357  40.932   2.202
30691W        W 3006  15.099  13.182   3.148
30692W        W 3007  33.597   6.184   1.753
30693W        W 3008   3.398  43.836   3.738
30694W        W 3009   7.186  26.690   1.908
30695W        W 3010   7.753  24.057  13.844
30696W        W 3011  30.580   8.692   3.290
30697W        W 3012  11.202  42.792  13.466
30698W        W 3013  16.756   2.416   2.685
30699W        W 3014  41.898   4.342  10.447
30700W        W 3015   7.679  20.042  13.540
30701W        W 3016  35.411  42.446  13.967
30702W        W 3017   9.278  32.481   1.786
30703W        W 3018   6.359  43.358  12.454
30704W        W 3019  42.911  24.489  10.592
30705W        W 3020  27.516  42.849   1.703
30706W        W 3021  30.113   9.341  12.515
30707W        W 3022   9.687  20.051  12.070
30708W        W 3023  21.250  19.750   1.754
30709W        W 3024  44.444  31.537   0.251
30710W        W 3025  25.636  41.935  12.014
30711W        W 3026  17.571  28.624   0.919
30712W        W 3027  14.183   8.333  13.546
30713W        W 3028  24.630  11.315   2.797
30714W        W 3029  12.832   8.771  13.981
30715W        W 3030  39.028  15.262   2.889
30716W        W 3031  43.867   8.873  12.465
30717W        W 3032   1.289  34.603   5.088
30718W        W 3033   6.891  24.133   4.299
30719W        W 3034  13.736  44.761  12.084
30720W        W 3035  27.448  27.136  13.422
30721W        W 3036  36.087   7.284  13.896
30722W        W 3037  14.170  41.318  14.771
30723W        W 3038   8.686  30.951   2.260
30724W        W 3039  22.642  19.587  13.312
30725W        W 3040  28.964  22.716  12.508
30726W        W 3041  26.691  34.434  12.962
30727W        W 3042   2.301  36.890  13.521
30728W        W 3043  36.071  43.495  11.038
30729W        W 3044  32.997  44.820   3.746
30730W        W 3045  27.456   4.446   2.742
30731W        W 3046  39.480  20.731  14.465
30732W        W 3047  31.907   2.824  11.996
30733W        W 3048  13.703  40.892   4.756
30734W        W 3049  21.147  17.800   1.249
30735W        W 3050  41.967   3.792   3.672
30736W        W 3051   8.370   3.267   1.790
30737W        W 3052  41.341  10.145   3.725
30738W        W 3053  30.983   9.751  13.307
30739W        W 3054  11.298  25.976  14.810
30740W        W 3055  34.524  31.897  14.997
30741W        W 3056  23.729  30.922   4.352
30742W        W 3057  26.585  44.859   0.822
30743W        W 3058  17.137  44.830  13.492
30744W        W 3059   9.761   7.679   2.178
30745W        W 3060  35.086  38.947  13.824
30746W        W 3061  10.699  18.247   3.252
30747W        W 3062  31.940   4.741   4.166
30748W        W 3063  43.807  43.397   4.171
30749W        W 3064  19.581  31.530  12.022
30750W        W 3065  27.008  18.739  11.111
30751W        W 3066   8.692   1.433   2.205
30752W        W 3067  32.426   1.407  13.493
30753W        W 3068  11.284  25.472  13.863
30754W        W 3069  43.395  15.815  14.817
30755W        W 3070   8.889  37.572  13.317
30756W        W 3071  20.115  35.519  14.281
30757W        W 3072  14.725  40.319  10.986
30758W        W 3073  24.654   9.752  13.328
30759W        W 3074  30.482  19.634   1.831
30760W        W 3075   3.418  18.185   3.646
30761W        W 3076  32.053  24.126  12.871
30762W        W 3077  16.643  28.542  14.475
30763W        W 3078   9.871  39.813  11.028
30764W        W 3079  23.492  40.433   3.722
30765W        W 3080  18.559   2.272   4.616
30766W        W 3081  14.616   3.418  14.032
30767W        W 3082  43.947  42.778  10.975
30768W        W 3083  11.131  13.140   2.336
30769W        W 3084  31.909  21.052   1.364
30770W        W 3085  31.462   3.926  12.345
30771W        W 3086   1.283  21.052  12.554
30772W        W 3087  38.828  20.160   0.758
30773W        W 3088   7.874  42.339   0.745
30774W        W 3089  38.997  21.614   2.870
30775W        W 3090   7.340  30.518  11.113
30776W        W 3091  19.248  43.430   2.229
30777W        W 3092   1.898  19.728  11.877
30778W        W 3093   5.264  39.827   0.952
30779W        W 3094  26.581  30.457   1.719
30780W        W 3095  10.179   2.291  14.872
30781W        W 3096  44.409  25.696  11.940
30782W        W 3097  13.329  36.423  11.469
30783W        W 3098  13.788  26.571  11.043
30784W        W 3099  43.420  32.983  11.094
30785W        W 3100  10.749   8.284   0.942
30786W        W 3101  18.222  11.705  10.440
30787W        W 3102  36.030   2.339  14.302
30788W        W 3103  14.736  10.235   1.230
30789W        W 3104  25.666   3.411   3.347
30790W        W 3105  36.869   5.922   3.687
30791W        W 3106  21.607  13.343  14.793
30792W        W 3107   1.965  38.515   0.877
30793W        W 3108  19.553   4.863   1.823
30794W        W 3109   9.236  31.134  12.374
30795W        W 3110  27.551  30.544   3.684
30796W        W 3111   5.347   4.378  11.898
30797W        W 3112  44.455  21.564  13.941
30798W        W 3113   4.322  30.432  11.520
30799W        W 3114  12.181  32.898   2.684
30800W        W 3115  25.598  17.241  13.942
30801W        W 3116  35.001  13.174  14.359
30802W        W 3117   9.772  23.085  11.568
30803W        W 3118  27.464  30.957  11.463
30804W        W 3119  28.032   3.350  10.025
30805W        W 3120  17.067  16.140  12.866
30806W        W 3121   4.772  14.320  14.508
30807W        W 3122  20.567   5.357  14.275
30808W        W 3123  12.848  39.019  13.916
30809W        W 3124  21.030  24.037  12.442
30810W        W 3125   4.839  39.960   0.302
30811W        W 3126  29.031   0.913   4.306
30812W        W 3127  28.449  11.846  14.428
30813W        W 3128  29.002  36.440  11.385
30814W        W 3129  10.727  34.497  11.961
30815W        W 3130   6.874  36.016  11.563
30816W        W 3131  29.107   5.735   5.725
30817W        W 3132  21.693  44.846   4.790
30818W        W 3133  36.869  19.088   1.343
30819W        W 3134  33.424   3.932  14.499
30820W        W 3135   9.336  41.879  10.628
30821W        W 3136  25.513   1.745   4.154
30822W        W 3137   7.378  10.244   9.990
30823W        W 3138   8.383  18.118   1.211
30824W        W 3139  23.137   4.274   1.933
30825W        W 3140   7.335  29.448  14.913
30826W        W 3141   1.395  42.422   1.763
30827W        W 3142   1.791   7.671  14.424
30828W        W 3143  44.816   4.329   1.281
30829W        W 3144  21.155  32.970   1.706
30830W        W 3145  10.261  12.798   1.301
30831W        W 3146  19.626   7.227  13.822
30832W        W 3147  33.389   4.879  11.442
30833W        W 3148  40.939   0.362   4.730
30834W        W 3149  22.139  23.023   1.880
30835W        W 3150  36.877   3.792   3.702
30836W        W 3151  12.668  10.242  11.101
30837W        W 3152   9.321   9.309  14.904
30838W        W 3153  11.647  26.038  14.930
30839W        W 3154  16.641  33.478   2.282
30840W        W 3155  35.990  44.320  14.406
30841W        W 3156   4.930   3.851   1.451
30842W        W 3157  32.002  31.120  12.530
30843W        W 3158  14.295  25.208  14.829
30844W        W 3159   4.849  12.229   3.217
30845W        W 3160  11.307  10.229  14.955
30846W        W 3161  20.227  24.184   4.758
30847W        W 3162   6.307  37.482   2.371
30848W        W 3163  26.097  38.899   3.787
30849W        W 3164   2.369   1.872  13.976
30850W        W 3165  34.990  15.238  11.000
30851W        W 3166   4.754  32.936  11.946
30852W        W 3167   1.805  41.804   1.801
30853W        W 3168  26.095  11.755   2.182
30854W        W 3169  43.880  33.452  10.060
30855W        W 3170  16.622   3.799   0.805
30856W        W 3171  10.220  13.190  11.518
30857W        W 3172  15.723  16.736  12.428
30858W        W 3173  39.965   2.727  11.031
30859W        W 3174   2.960  43.839  11.571
30860W        W 3175   7.718  34.907   2.298
30861W        W 3176  14.834  19.756   2.316
30862W        W 3177   7.910  22.188  10.590
30863W        W 3178  30.584  24.069  11.863
30864W        W 3179  36.445  35.910   3.191
30865W        W 3180  28.544  34.083  14.810
30866W        W 3181  40.946  19.693   4.656
30867W        W 3182   5.391  32.487   1.824
30868W        W 3183   0.251  10.330   4.806
30869W        W 3184  34.098  38.513  13.467
30870W        W 3185  26.076  28.124   0.744
30871W        W 3186  30.469   2.873  14.284
30872W        W 3187  30.451  44.864   2.179
30873W        W 3188   2.962   0.869  13.547
30874W        W 3189   7.906  35.511   4.242
30875W        W 3190  34.084  37.971   4.715
30876W        W 3191   9.681  32.502   4.289
30877W        W 3192  26.672  23.606  10.454
30878W        W 3193   0.781  36.005   5.801
30879W        W 3194  43.868  27.065   4.155
30880W        W 3195  39.926   0.407   3.659
30881W        W 3196   6.338  18.126   3.162
30882W        W 3197  35.928   5.381  13.416
30883W        W 3198   4.860  26.661   0.392
30884W        W 3199  13.278  18.668  13.820
30885W        W 3200   7.811  10.791  12.014
30886W        W 3201  40.040  31.083  13.426
30887W        W 3202  44.787  37.049   4.671
30888W        W 3203  10.318  36.022   4.727
30889W        W 3204  21.149  11.775  12.511
30890W        W 3205   0.965  41.865  11.455
30891W        W 3206  31.447   9.664  10.435
30892W        W 3207  27.988  44.932   3.198
30893W        W 3208  11.827  30.462   5.308
30894W        W 3209   6.211  30.647  10.453
30895W        W 3210   5.846  28.025   2.707
30896W        W 3211   3.277  30.095   4.238
30897W        W 3212  23.733  33.436   0.769
30898W        W 3213   6.892  16.158   2.332
30899W        W 3214  38.510  24.128   5.289
30900W        W 3215  43.349  27.971   0.335
30901W        W 3216  33.025   4.243   4.189
30902W        W 3217  20.179  41.994  14.822
30903W        W 3218  16.102  21.171   3.793
30904W        W 3219  14.603   8.863   3.810
30905W        W 3220  19.594  22.064  11.923
30906W        W 3221   6.386  11.640  14.848
30907W        W 3222  37.847  19.217   0.428
30908W        W 3223  26.468   1.482   4.804
30909W        W 3224   0.426  16.098   3.814
30910W        W 3225  17.635  18.186   4.611
30911W        W 3226   4.871  19.703   9.950
30912W        W 3227   0.923  15.581  12.495
30913W        W 3228  41.807  38.499  13.904
30914W        W 3229  31.023  41.445  11.111
30915W        W 3230  31.500  30.490   0.732
30916W        W 3231  37.357  34.600   0.406
30917W        W 3232  29.925  10.710   1.372
30918W        W 3233   6.397   0.274  14.480
30919W        W 3234  33.006   9.812  14.887
30920W        W 3235  18.576  11.291  12.992
30921W        W 3236  34.938  38.853   3.733
30922W        W 3237  43.833  41.841  12.061
30923W        W 3238   6.831  22.086   1.758
30924W        W 3239  25.574  36.932  10.555
30925W        W 3240  35.560   4.241  11.986
30926W        W 3241  30.109  41.986  10.457
30927W        W 3242  36.853  27.682   0.427
30928W        W 3243  33.576  11.706   1.270
30929W        W 3244  17.290   7.733  11.101
30930W        W 3245   9.201   5.916  12.477
30931W        W 3246  29.585  30.563   1.784
30932W        W 3247  38.822  15.177  13.915
30933W        W 3248   8.238  40.981  11.455
30934W        W 3249  16.151  27.490   2.862
30935W        W 3250   8.820   8.274   3.343
30936W        W 3251  27.606  17.289  11.951
30937W        W 3252  20.541  31.550   0.303
30938W        W 3253  27.600  16.126  14.406
30939W        W 3254  10.644  24.006   4.174
30940W        W 3255  15.689  11.217  14.793
30941W        W 3256  26.693  21.517   4.289
30942W        W 3257   3.820  43.927  11.014
30943W        W 3258  39.462   0.487  14.932
30944W        W 3259  23.705  44.462  11.379
30945W        W 3260   7.848  23.107  11.932
30946W        W 3261   0.842  33.414  12.959
30947W        W 3262  12.300  44.408  14.334
30948W        W 3263  23.058   1.424   2.837
30949W        W 3264  29.646  39.950  12.481
30950W        W 3265  21.576  19.123   1.358
30951W        W 3266  38.845  33.408  11.500
30952W        W 3267  27.646  16.264  12.034
30953W        W 3268  31.597   2.377  12.389
30954W        W 3269   8.376  20.185   2.812
30955W        W 3270  40.481  42.906   0.299
30956W        W 3271   4.382  37.467  14.482
30957W        W 3272  29.647  20.601   3.348
30958W        W 3273   8.681  24.038   0.867
30959W        W 3274  27.017  16.631  12.342
30960W        W 3275  26.068  25.498   4.159
30961W        W 3276   1.873  42.012  10.633
30962W        W 3277   6.899  27.045   4.634
30963W        W 3278  43.457  43.978  13.041
30964W        W 3279  41.898  34.064   4.320
30965W        W 3280  15.270   2.925  10.899
30966W        W 3281   8.166  35.094   3.339
30967W        W 3282  40.467  33.416   3.631
30968W        W 3283  21.653  36.010   2.202
30969W        W 3284  23.609  29.044  11.526
30970W        W 3285  20.035  25.216   2.390
30971W        W 3286  23.591   4.236  11.043
30972W        W 3287  32.423  18.176  12.493
30973W        W 3288  12.806  23.677   1.231
30974W        W 3289  41.322  15.679  13.516
30975W        W 3290  17.793  36.953  11.091
30976W        W 3291  43.980  24.496  13.062
30977W        W 3292  38.330  25.583  13.417
30978W        W 3293  36.362  12.334  12.580
30979W        W 3294  12.328  21.705   4.282
30980W        W 3295   7.870  31.009  13.528
30981W        W 3296  21.020  22.064  13.969
30982W        W 3297  22.739   1.273   4.212
30983W        W 3298  31.958  37.940   0.375
30984W        W 3299   3.347  44.975   2.356
30985W        W 3300  23.673  26.646   3.656
30986W        W 3301  16.088   5.746   1.886
30987W        W 3302  34.594   2.923  13.045
30988W        W 3303  37.497  35.593  14.294
30989W        W 3304  42.775  30.620   4.239
30990W        W 3305  37.342  18.636  13.479
30991W        W 3306  37.388  31.501  13.992
30992W        W 3307   7.220  37.481  10.630
30993W        W 3308  40.548  24.664   4.704
30994W        W 3309  15.178   7.800   1.702
30995W        W 3310   0.369  27.494   1.877
30996W        W 3311  29.597  24.008  10.912
30997W        W 3312  28.608  39.529   2.331
30998W        W 3313   1.476  29.962  10.642
30999W        W 3314  10.368   6.893  13.399
31000W        W 3315  20.189  23.183  13.368
31001W        W 3316  11.204  42.340   0.305
31002W        W 3317  17.787  18.615  12.855
31003W        W 3318   3.938  27.186   0.277
31004W        W 3319  16.774  32.500   3.799
31005W        W 3320   8.701   5.201   4.735
31006W        W 3321  19.661   6.359   4.767
31007W        W 3322  21.705  32.988   4.136
31008W        W 3323   8.663  21.103  14.309
31009W        W 3324  26.004  22.016  12.417
31010W        W 3325  31.105   4.255   4.231
31011W        W 3326   1.382   5.282   4.248
31012W        W 3327  24.192  14.724   2.373
31013W        W 3328  36.462  17.599   2.232
31014W        W 3329  22.660  28.980   2.720
31015W        W 3330  35.431   7.282   3.714
31016W        W 3331  23.541   5.814  11.992
31017W        W 3332  26.045  12.167  11.895
31018W        W 3333   5.407   3.312   0.342
31019W        W 3334  25.147   0.264  14.299
31020W        W 3335   7.684  33.406  10.920
31021W        W 3336  33.948  31.011   3.244
31022W        W 3337  44.001   8.191   1.798
31023W        W 3338  11.832  17.608  12.901
31024W        W 3339  20.113  42.845   2.689
31025W        W 3340   1.829  32.505  12.002
31026W        W 3341  37.480  24.991   1.435
31027W        W 3342   2.421   3.818  14.767
31028W        W 3343  36.849  34.422  10.955
31029W        W 3344   0.853   1.262   0.277
31030W        W 3345  28.141  19.574   4.149
31031W        W 3346  28.452   8.765   2.752
31032W        W 3347  30.591  27.143   5.182
31033W        W 3348  41.044  12.658  12.423
31034W        W 3349  37.964  41.033  12.028
31035W        W 3350   0.888  11.832  13.321
31036W        W 3351  35.539  16.593   0.390
31037W        W 3352  16.080  40.054  11.530
31038W        W 3353  17.798  10.655   9.676
31039W        W 3354   1.281   5.386  10.477
31040W        W 3355  44.007  36.976  12.383
31041W        W 3356  38.006   9.215  14.977
31042W        W 3357   5.832   4.925   0.458
31043W        W 3358  44.268  40.426  12.864
31044W        W 3359  35.913  44.353  12.035
31045W        W 3360  33.898  13.603   0.944
31046W        W 3361   9.199  16.608   4.715
31047W        W 3362  17.689  12.190   1.422
31048W        W 3363  12.610  38.510   2.410
31049W        W 3364  32.617   2.921  13.798
31050W        W 3365  28.543  18.557   3.857
31051W        W 3366  41.424   9.751  14.845
31052W        W 3367  38.415  36.029   3.641
31053W        W 3368  37.039   7.713  11.398
31054W        W 3369  13.282  14.733   1.871
31055W        W 3370  20.250  43.501  14.399
31056W        W 3371  30.030  18.788  14.450
31057W        W 3372   5.220   7.307  11.505
31058W        W 3373   4.282  32.571  12.992
31059W        W 3374   8.201  11.673  12.900
31060W        W 3375  26.682  42.921  13.459
31061W        W 3376  37.885  34.420  11.409
31062W        W 3377  12.292  29.146  12.862
31063W        W 3378  25.678  26.022  12.395
31064W        W 3379   2.412  33.046   3.221
31065W        W 3380   4.360  44.356  14.475
31066W        W 3381  14.299  41.004  13.492
31067W        W 3382   5.727   3.886   3.721
31068W        W 3383  42.354  17.075   1.368
31069W        W 3384  29.509  25.048  12.571
31070W        W 3385  11.706   2.760  14.925
31071W        W 3386  21.641  40.961   2.741
31072W        W 3387  16.744  17.208   3.252
31073W        W 3388  26.993  15.182  13.813
31074W        W 3389  14.732  12.194   4.227
31075W        W 3390  35.427  41.943  13.373
31076W        W 3391  44.302  40.943   3.163
31077W        W 3392  34.495   6.250   0.254
31078W        W 3393  12.296  34.863   2.318
31079W        W 3394   2.468   8.242  13.310
31080W        W 3395  11.699  40.382   1.424
31081W        W 3396  17.568  32.467  12.380
31082W        W 3397  38.571   8.237  12.040
31083W        W 3398  26.158  25.191   1.818
31084W        W 3399  36.558   0.877  14.302
31085W        W 3400  40.481   1.458  13.849
31086W        W 3401  36.580  30.964   1.301
31087W        W 3402  42.897  33.501   4.154
31088W        W 3403  16.573  33.895  12.543
31089W        W 3404  17.089  29.102  11.534
31090W        W 3405  16.177  20.719   2.870
31091W        W 3406  40.463  36.047  13.020
31092W        W 3407   3.222  19.183  13.349
31093W        W 3408  17.563  14.226  12.423
31094W        W 3409   9.681   3.221   3.650
31095W        W 3410   2.796  11.741  10.915
31096W        W 3411  14.783  25.083   0.804
31097W        W 3412   2.464  31.081  13.923
31098W        W 3413  43.949  11.341  11.929
31099W        W 3414  25.050  29.094   1.865
31100W        W 3415  30.949   0.848   3.753
31101W        W 3416  35.037   1.437  11.949
31102W        W 3417  27.037  36.053  12.985
31103W        W 3418   8.757  20.678   4.141
31104W        W 3419  39.970  26.132  12.963
31105W        W 3420  17.291  18.553   0.265
31106W        W 3421  10.341  42.859   1.283
31107W        W 3422  42.503   3.361  12.973
31108W        W 3423  27.032   8.746   4.665
31109W        W 3424  33.539  31.485  12.960
31110W        W 3425   6.249  39.863  13.359
31111W        W 3426  27.500  44.415   4.115
31112W        W 3427  30.642   8.405  12.392
31113W        W 3428   7.255  32.903  14.462
31114W        W 3429  34.993   2.834   2.784
31115W        W 3430  15.726   5.295  10.988
31116W        W 3431   7.787   5.853   4.721
31117W        W 3432  22.508  44.441   1.785
31118W        W 3433  22.529  28.161  13.365
31119W        W 3434  16.809   7.886  13.319
31120W        W 3435  32.978  11.131  11.439
31121W        W 3436  27.145  28.180  13.479
31122W        W 3437  37.085  19.741  14.411
31123W        W 3438  25.534   5.433   0.297
31124W        W 3439  24.608   6.242  14.377
31125W        W 3440  19.649  17.121  11.531
31126W        W 3441  23.178  28.144   9.945
31127W        W 3442  34.535  36.405   4.809
31128W        W 3443  37.350   1.258  11.907
31129W        W 3444  41.979  40.044   0.834
31130W        W 3445   7.760  10.837   0.887
31131W        W 3446  40.417   0.465   0.886
31132W        W 3447  27.638  12.679  12.962
31133W        W 3448  32.010  38.821   4.640
31134W        W 3449  15.654  25.576   2.873
31135W        W 3450  14.682  24.983  11.512
31136W        W 3451  31.971  24.568  11.480
31137W        W 3452  11.695   1.240   3.200
31138W        W 3453  34.614  16.601   4.187
31139W        W 3454  34.039  34.047  13.461
31140W        W 3455  10.853  22.210  11.092
31141W        W 3456   1.393   3.736  12.381
31142W        W 3457  20.742  23.675  13.951
31143W        W 3458  21.753  35.435   3.285
31144W        W 3459  44.978  11.817  10.986
31145W        W 3460  22.104  30.125  14.399
31146W        W 3461  18.268  14.690  11.890
31147W        W 3462  36.541  43.350  13.842
31148W        W 3463   7.208  36.511  13.045
31149W        W 3464  38.406   1.403  14.494
31150W        W 3465  33.930  16.676  14.900
31151W        W 3466  20.563  23.589  11.542
31152W        W 3467  13.791  43.438  11.899
31153W        W 3468  15.703  26.578   3.334
31154W        W 3469   1.864  27.678   3.807
31155W        W 3470   7.670  23.728   1.862
31156W        W 3471  14.737  36.038  11.912
31157W        W 3472   7.710  26.565   0.868
31158W        W 3473   3.321  30.490  12.968
31159W        W 3474  42.330  40.447  13.867
31160W        W 3475  18.569  33.523   1.849
31161W        W 3476  39.474  15.215  12.570
31162W        W 3477   4.293  19.762  12.450
31163W        W 3478   1.348   7.201   4.834
31164W        W 3479  12.657  30.103   3.300
31165W        W 3480  38.946  30.585  13.001
31166W        W 3481  25.474  25.496  14.298
31167W        W 3482  30.996  22.673  12.070
31168W        W 3483  35.934  18.689  12.848
31169W        W 3484  17.633  25.083  12.888
31170W        W 3485  17.697  23.229   0.407
31171W        W 3486   7.858  39.448   0.945
31172W        W 3487  37.501  39.339   2.250
31173W        W 3488  22.018  44.887  14.819
31174W        W 3489  15.296   4.887  14.321
31175W        W 3490  31.490  20.033  12.948
31176W        W 3491   6.304  24.999   2.198
31177W        W 3492   5.832  39.320  14.290
31178W        W 3493  10.717  32.503   0.865
31179W        W 3494  36.949  25.694  11.570
31180W        W 3495  19.154  37.049   3.715
31181W        W 3496  20.042  34.059   4.259
31182W        W 3497  20.072  37.876  14.412
31183W        W 3498  36.029  14.194   3.647
31184W        W 3499   4.406  43.370  12.959
31185W        W 3500  12.358  41.787  14.998
31186W        W 3501   7.178  36.476  11.401
31187W        W 3502  33.478  20.657   2.415
31188W        W 3503  38.921  25.634   4.698
31189W        W 3504   8.258  17.744   1.318
31190W        W 3505  23.649  18.079  12.929
31191W        W 3506  10.721  12.653  13.447
31192W        W 3507  11.625   1.947   3.663
31193W        W 3508  23.019  35.085  10.565
31194W        W 3509  42.284  27.591  12.534
31195W        W 3510  19.049  21.675  14.476
31196W        W 3511  10.326  14.688  13.816
31197W        W 3512  39.916  22.627   2.747
31198W        W 3513  20.673  19.728  12.981
31199W        W 3514  27.467  33.488   1.226
31200W        W 3515  26.026  13.648   2.683
31201W        W 3516  34.488  44.983   4.348
31202W        W 3517  12.209  39.509  12.878
31203W        W 3518   0.444  26.459   2.361
31204W        W 3519  19.558  31.941   4.113
31205W        W 3520  28.655  29.669   0.815
31206W        W 3521  39.454  22.721   2.331
31207W        W 3522  18.716   5.373  14.772
31208W        W 3523  39.480  42.783   2.343
31209W        W 3524  40.879  37.520   1.443
31210W        W 3525  36.582   5.280   2.747
31211W        W 3526  16.626  21.142   3.242
31212W        W 3527  11.337  33.898   0.480
31213W        W 3528  30.566  36.393   3.793
31214W        W 3529  33.423  40.417   0.863
31215W        W 3530  40.490   5.916  12.353
31216W        W 3531  11.176  27.545   1.223
31217W        W 3532  43.899  31.933   3.277
31218W        W 3533   8.898  18.188   1.902
31219W        W 3534  40.928  33.079  12.471
31220W        W 3535  23.703  41.504   1.755
31221W        W 3536  38.998  16.764  14.877
31222W        W 3537   7.694  40.503  11.469
31223W        W 3538  30.595   7.195  13.924
31224W        W 3539   7.286  41.480  11.383
31225W        W 3540   8.167   5.212   2.262
31226W        W 3541   1.310  13.821  11.903
31227W        W 3542  17.278  31.416   2.880
31228W        W 3543   9.716   7.265  13.327
31229W        W 3544  33.623  14.692  12.374
31230W        W 3545   8.865  14.793   0.439
31231W        W 3546   7.374  42.407   4.253
31232W        W 3547  32.491  36.400  10.607
31233W        W 3548  24.179  12.227  11.875
31234W        W 3549  16.759   7.384   0.822
31235W        W 3550  12.751   9.712   3.818
31236W        W 3551  18.641  40.838   2.262
31237W        W 3552  35.480   3.431  11.505
31238W        W 3553  30.915  13.760   3.722
31239W        W 3554  18.096   7.734  13.021
31240W        W 3555   8.762  36.397  11.030
31241W        W 3556   0.921  21.067  11.877
31242W        W 3557  24.213  27.082   0.796
31243W        W 3558  26.570  20.097   3.327
31244W        W 3559   9.674  27.629   4.642
31245W        W 3560   7.834  13.192   2.759
31246W        W 3561  20.242  19.136   2.306
31247W        W 3562  42.470  39.487   3.306
31248W        W 3563  39.030  40.372  14.413
31249W        W 3564  21.048  20.145   3.193
31250W        W 3565  41.538  18.597  14.015
31251W        W 3566  21.709  40.847  11.511
31252W        W 3567  16.703  10.817   1.417
31253W        W 3568  16.637   9.710  14.469
31254W        W 3569  36.978   5.779   2.878
31255W        W 3570   0.763  28.452   0.343
31256W        W 3571   6.771   9.869  10.907
31257W        W 3572  24.523  22.131  14.505
31258W        W 3573  33.515   8.390   2.898
31259W        W 3574  31.452  34.571  12.461
31260W        W 3575  26.976  19.203  10.942
31261W        W 3576   7.853  41.336   1.697
31262W        W 3577   0.343  36.021   4.125
31263W        W 3578  14.835  12.320   4.800
31264W        W 3579  31.565   4.354   2.362
31265W        W 3580  25.039   3.857   1.350
31266W        W 3581  14.825   3.305   4.295
31267W        W 3582  29.558  23.109  13.031
31268W        W 3583  17.656  16.691   3.386
31269W        W 3584  21.084   1.841   0.853
31270W        W 3585   1.321  37.007   4.813
31271W        W 3586  29.132   6.202  11.060
31272W        W 3587  10.771  43.841  14.783
31273W        W 3588  13.217  39.420  14.896
31274W        W 3589  39.861  29.548  14.432
31275W        W 3590  42.916  42.791  13.900
31276W        W 3591  33.088   2.858  12.055
31277W        W 3592  23.683  36.466   2.291
31278W        W 3593   1.402  37.564   1.297
31279W        W 3594  33.511  42.437  13.934
31280W        W 3595  14.265  38.545   2.216
31281W        W 3596  16.628  44.466  14.904
31282W        W 3597  20.199   6.922   3.707
31283W        W 3598  12.621  21.701  13.326
31284W        W 3599  30.950   9.770  10.476
31285W        W 3600  34.946  36.857   4.120
31286W        W 3601  38.996  44.494  11.870
31287W        W 3602  41.429   7.237  11.408
31288W        W 3603  13.607  37.541   2.831
31289W        W 3604   9.389  43.768   1.800
31290W        W 3605   3.224  17.662  13.047
31291W        W 3606   4.385  18.286  14.411
31292W        W 3607  10.671  28.537   3.858
31293W        W 3608   4.221  10.651  13.945
31294W        W 3609  39.919  31.499  11.027
31295W        W 3610  14.796  11.335   4.812
31296W        W 3611  13.127   2.304  11.072
31297W        W 3612  21.252  28.148   0.253
31298W        W 3613  18.611  38.956   1.313
31299W        W 3614  40.967  12.307  13.003
31300W        W 3615  33.383  42.795  11.874
31301W        W 3616  27.055   4.882   4.799
31302W        W 3617   5.373  22.126  10.977
31303W        W 3618   4.383  31.584  10.579
31304W        W 3619  20.144  21.126   1.892
31305W        W 3620  12.159   1.410  12.860
31306W        W 3621  22.233  19.549   0.259
31307W        W 3622   1.320  39.832  10.564
31308W        W 3623  35.938  11.797   0.775
31309W        W 3624  23.586  42.375   4.121
31310W        W 3625  34.017  33.520  11.005
31311W        W 3626   2.379   9.307   3.168
31312W        W 3627  11.661  25.003  11.533
31313W        W 3628   0.286  24.510  14.379
31314W        W 3629   0.781  38.943   2.846
31315W        W 3630   5.283  19.700  12.525
31316W        W 3631  18.187  18.111   2.362
31317W        W 3632  16.706  11.794   0.915
31318W        W 3633  13.347  28.487   2.725
31319W        W 3634  36.465  10.263  12.527
31320W        W 3635  27.988   7.739   2.753
31321W        W 3636   6.240  10.803   4.218
31322W        W 3637  21.702   8.387   3.349
31323W        W 3638   1.812  32.569  13.845
31324W        W 3639   8.298   4.378  13.313
31325W        W 3640  29.442  41.417   2.882
31326W        W 3641  20.625  31.067   0.785
31327W        W 3642  38.525   8.228   0.285
31328W        W 3643  39.541  31.421   2.719
31329W        W 3644  20.526  21.067  14.307
31330W        W 3645  24.610  20.080   5.213
31331W        W 3646  28.968   4.434  13.401
31332W        W 3647   6.289  33.938   1.448
31333W        W 3648  11.281  40.855   4.669
31334W        W 3649  24.181  22.236  13.917
31335W        W 3650  18.624   7.784  12.056
31336W        W 3651   2.360   7.390   0.401
31337W        W 3652  13.699  30.058   2.688
31338W        W 3653   4.302  13.692  14.941
31339W        W 3654  32.116  16.779  11.969
31340W        W 3655  25.615  33.004  11.972
31341W        W 3656  14.697  41.397   2.772
31342W        W 3657  38.965  18.783   0.302
31343W        W 3658  42.317  13.674  10.968
31344W        W 3659  22.096  26.069   1.721
31345W        W 3660   8.396  31.453  13.546
31346W        W 3661  14.597  15.746   2.275
31347W        W 3662  37.523   3.404   4.222
31348W        W 3663  35.586  41.446  13.317
31349W        W 3664  38.399   6.358   3.686
31350W        W 3665  20.741  28.507   2.699
31351W        W 3666  37.087   2.242   1.361
31352W        W 3667  29.452  22.655   4.765
31353W        W 3668  36.943  19.196  10.894
31354W        W 3669   9.344   8.723  10.623
31355W        W 3670   2.398  30.485  11.496
31356W        W 3671  31.500  23.642  14.821
31357W        W 3672   6.217  23.708  14.904
31358W        W 3673  25.528  38.460  14.877
31359W        W 3674  15.307  19.562   0.896
31360W        W 3675  26.533   5.908   9.956
31361W        W 3676  21.094  10.233   3.384
31362W        W 3677  21.751  38.332  10.608
31363W        W 3678   7.912  15.815  11.919
31364W        W 3679  10.634  19.164  12.564
31365W        W 3680  34.554   5.309  12.907
31366W        W 3681   6.329  20.059  14.831
31367W        W 3682  27.473   2.767   2.697
31368W        W 3683  31.109  43.813  13.484
31369W        W 3684  35.862  10.710  10.634
31370W        W 3685  22.525  40.389  11.120
31371W        W 3686  24.096  39.529  14.311
31372W        W 3687   2.335   8.780  11.561
31373W        W 3688   5.404  39.490   1.705
31374W        W 3689  14.720  38.414  13.537
31375W        W 3690  12.646  25.675  11.875
31376W        W 3691  41.032   3.713  12.456
31377W        W 3692  19.050  39.553   2.832
31378W        W 3693  34.453  43.348  13.828
31379W        W 3694  24.543  34.051  11.469
31380W        W 3695  25.660  36.938   3.356
31381W        W 3696  26.127   5.720   3.167
31382W        W 3697  43.331   1.858   1.365
31383W        W 3698  36.908  11.339   3.236
31384W        W 3699  27.553  38.557  12.579
31385W        W 3700  42.844  31.499  14.011
31386W        W 3701   5.310  43.477   2.842
31387W        W 3702  17.301   1.888   1.292
31388W        W 3703  44.836  25.485   0.893
31389W        W 3704   2.438  17.737  13.036
31390W        W 3705  32.026  18.628  12.929
31391W        W 3706  32.132  16.748  11.416
31392W        W 3707  28.080  43.830   3.316
31393W        W 3708  37.977  33.922   1.426
31394W        W 3709   9.767  20.539   3.828
31395W        W 3710  13.308   1.854  14.949
31396W        W 3711  30.965  28.651   2.402
31397W        W 3712  16.112  19.164  10.626
31398W        W 3713  20.766   0.492  14.347
31399W        W 3714  18.636  20.576   2.382
31400W        W 3715   5.429   7.249   4.315
31401W        W 3716  42.416   9.240   4.189
31402W        W 3717   1.315  13.338  12.055
31403W        W 3718  37.841   0.253  10.896
31404W        W 3719  19.591  30.437   4.220
31405W        W 3720  12.679  17.157  11.028
31406W        W 3721  10.724  42.459  13.803
31407W        W 3722   6.232  29.004   3.374
31408W        W 3723  38.365  28.044   1.865
31409W        W 3724  35.992   0.397   2.180
31410W        W 3725  11.654   4.374  12.010
31411W        W 3726  23.081  42.965  10.066
31412W        W 3727   7.225  29.458  13.967
31413W        W 3728  24.072   7.328   3.767
31414W        W 3729  14.740  28.555  13.944
31415W        W 3730  13.140   0.267  14.408
31416W        W 3731  15.232  20.677   4.268
31417W        W 3732  28.169  40.390   1.317
31418W        W 3733   5.924  10.716  14.487
31419W        W 3734  17.304  35.029   3.722
31420W        W 3735  29.582  21.140   2.238
31421W        W 3736  16.668  22.157  13.531
31422W        W 3737  36.479   7.319   0.838
31423W        W 3738  13.821  10.155  13.935
31424W        W 3739   7.732   0.835  11.465
31425W        W 3740   0.784  12.731  10.561
31426W        W 3741  12.175  30.420  14.452
31427W        W 3742  33.394  34.371  11.519
31428W        W 3743   2.934  14.766   3.785
31429W        W 3744  16.178   0.906   1.749
31430W        W 3745  29.970   8.270  14.474
31431W        W 3746  21.223  27.505  12.443
31432W        W 3747  35.429  14.694  12.510
31433W        W 3748  28.572  24.992  11.579
31434W        W 3749  26.106  37.034   1.252
31435W        W 3750   3.284   9.187   3.867
31436W        W 3751  28.518  37.071   4.151
31437W        W 3752  15.155  33.944   1.921
31438W        W 3753  16.119  40.862  14.912
31439W        W 3754   5.892  41.940  13.870
31440W        W 3755   3.223  10.823   4.663
31441W        W 3756  24.039  19.724  12.536
31442W        W 3757   4.270  34.999   0.949
31443W        W 3758  30.036  36.400   4.344
31444W        W 3759  37.887  12.717  13.880
31445W        W 3760  12.323  35.368  13.938
31446W        W 3761  29.476  18.260  13.521
31447W        W 3762   0.443  32.987  10.603
31448W        W 3763  37.086   6.906  10.987
31449W        W 3764  29.622   6.834   3.743
31450W        W 3765   9.671  33.445   3.346
31451W        W 3766  21.236  10.817  12.430
31452W        W 3767  38.477  43.443   4.775
31453W        W 3768  22.697  29.102  12.360
31454W        W 3769   5.804   2.870   1.748
31455W        W 3770  43.336  41.798  14.770
31456W        W 3771  15.223  42.300  14.431
31457W        W 3772  26.054  12.127   4.127
31458W        W 3773  27.992  30.476  10.907
31459W        W 3774  19.093   5.721   2.418
31460W        W 3775   7.266  38.867  12.537
31461W        W 3776  21.709  10.840  13.925
31462W        W 3777  13.105   1.472   3.749
31463W        W 3778   9.714  30.447  14.413
31464W        W 3779  14.199  39.422  11.590
31465W        W 3780  43.271  24.690  10.514
31466W        W 3781  43.463  36.401  12.962
31467W        W 3782   8.879  23.020  14.942
31468W        W 3783  12.646  40.456   2.843
31469W        W 3784  21.652  36.397  13.841
31470W        W 3785  29.578  25.170  13.338
31471W        W 3786   2.946   2.359  13.416
31472W        W 3787  13.775  15.611   0.853
31473W        W 3788  29.505  18.243   3.145
31474W        W 3789   7.700  29.119  14.372
31475W        W 3790   3.877  24.995  11.416
31476W        W 3791  24.673  37.915   0.929
31477W        W 3792  44.449  42.348   3.739
31478W        W 3793  13.796  41.023  13.855
31479W        W 3794   3.223  36.876  10.996
31480W        W 3795  21.739   0.869   2.716
31481W        W 3796  38.022   2.805   3.294
31482W        W 3797  36.513  16.148   3.717
31483W        W 3798  38.001   5.752  11.372
31484W        W 3799  42.002  28.657   0.778
31485W        W 3800  35.090  43.907  14.378
31486W        W 3801  14.209  25.170   1.904
31487W        W 3802  33.606  29.139  11.897
31488W        W 3803   3.748   6.799   1.794
31489W        W 3804  22.036  33.394  10.450
31490W        W 3805   3.777  20.663  12.919
31491W        W 3806  11.167   0.866   4.600
31492W        W 3807  36.892  25.062  10.980
31493W        W 3808  35.066  27.550   4.324
31494W        W 3809  25.066  35.869   4.304
31495W        W 3810  43.512  12.341   4.711
31496W        W 3811  34.545  36.565   2.279
31497W        W 3812  25.070   0.971  12.022
31498W        W 3813  28.073   6.752   1.414
31499W        W 3814  28.179   6.735   1.844
31500W        W 3815  10.706   2.347  12.891
31501W        W 3816  12.271  29.588  13.460
31502W        W 3817   6.419   8.742  11.981
31503W        W 3818  18.647  12.202  11.574
31504W        W 3819  41.384  21.042  10.540
31505W        W 3820  24.214  41.964  13.328
31506W        W 3821  10.837   2.457   3.165
31507W        W 3822  43.380  22.597   2.799
31508W        W 3823  38.436  22.582  12.456
31509W        W 3824   8.694  33.024  11.083
31510W        W 3825  36.546  35.524   2.822
31511W        W 3826  13.143   3.411   1.934
31512W        W 3827  30.014  18.054  14.375
31513W        W 3828   0.325   7.339   3.847
31514W        W 3829  19.223  27.030   0.887
31515W        W 3830   4.401  19.598  11.110
31516W        W 3831  31.053  44.952  13.829
31517W        W 3832  11.698  37.841  13.045
31518W        W 3833  17.121  19.267  14.467
31519W        W 3834  36.880  12.628  11.569
31520W        W 3835  16.620  29.924   2.333
31521W        W 3836  25.979  16.132  11.022
31522W        W 3837  24.063  14.788   2.835
31523W        W 3838  31.574  11.292  14.890
31524W        W 3839  26.038  22.142  14.028
31525W        W 3840  24.519  19.247   1.802
31526W        W 3841   1.934  17.261   3.381
31527W        W 3842  11.151  35.979  10.454
31528W        W 3843   6.745  35.445   2.767
31529W        W 3844  22.729  17.206   4.622
31530W        W 3845  44.803   0.939  10.520
31531W        W 3846  25.477  34.994   1.387
31532W        W 3847  22.556  41.918   3.745
31533W        W 3848  10.334   8.223  12.935
31534W        W 3849  41.904   2.266   2.381
31535W        W 3850  32.622  26.018  10.926
31536W        W 3851   6.900  21.204  11.976
31537W        W 3852  19.651  44.963   3.167
31538W        W 3853   8.716  18.701  12.059
31539W        W 3854  38.420  19.665   0.404
31540W        W 3855  37.042  12.683   0.739
31541W        W 3856  11.341  10.298  13.316
31542W        W 3857  35.392  15.202   2.805
31543W        W 3858  29.962  34.944  12.375
31544W        W 3859  36.093  22.206  14.290
31545W        W 3860  28.671  29.478   4.721
31546W        W 3861  33.127  19.232   4.245
31547W        W 3862  30.052  20.181  14.863
31548W        W 3863  16.315  29.045  10.935
31549W        W 3864  23.202  12.195   4.670
31550W        W 3865  26.185  38.896   4.655
31551W        W 3866  24.634   7.757   4.695
31552W        W 3867   3.785  13.715  13.938
31553W        W 3868  34.542   9.393  10.606
31554W        W 3869  12.161   6.711  12.553
31555W        W 3870  27.960  44.360   3.163
31556W        W 3871  35.450  20.746   4.142
31557W        W 3872   6.392  10.637  13.487
31558W        W 3873   0.954  34.549  10.917
31559W        W 3874   9.827   5.918  10.436
31560W        W 3875  37.490  14.256  12.548
31561W        W 3876  15.662  29.485  10.436
31562W        W 3877  25.608  21.568  12.343
31563W        W 3878   2.259  19.766  14.947
31564W        W 3879  25.531  32.547   4.747
31565W        W 3880  20.548   7.828  12.057
31566W        W 3881   9.161  25.563  12.463
31567W        W 3882  16.204   7.372  10.552
31568W        W 3883  12.152  27.483   3.740
31569W        W 3884   2.352  25.108   4.245
31570W        W 3885  17.727  21.029   3.699
31571W        W 3886   4.204   9.337  14.960
31572W        W 3887   0.425  27.062   4.723
31573W        W 3888  22.239  15.258  11.921
31574W        W 3889  37.051  28.935   4.184
31575W        W 3890  34.077  29.529   1.774
31576W        W 3891   8.759   3.895   0.262
31577W        W 3892  13.653   5.812  12.483
31578W        W 3893  33.986   6.721  13.899
31579W        W 3894  34.433  30.592  12.348
31580W        W 3895  18.197  44.325  12.493
31581W        W 3896  39.868  24.115   9.468
31582W        W 3897   5.923  12.839   3.649
31583W        W 3898  27.597  10.690   3.832
31584W        W 3899  22.245  11.213  13.941
31585W        W 3900  21.678  14.694  13.023
31586W        W 3901   3.433  26.194  14.439
31587W        W 3902  41.964  27.108   4.705
31588W        W 3903  13.268  30.538   4.638
31589W        W 3904  32.995   9.157   4.673
31590W        W 3905  38.538  31.533   4.230
31591W        W 3906  44.505  34.431   5.173
31592W        W 3907  13.153  30.918  14.324
31593W        W 3908  11.175  38.857  13.005
31594W        W 3909  35.865  29.027   2.821
31595W        W 3910  11.650  14.726   2.193
31596W        W 3911  43.278   5.913  11.378
31597W        W 3912  11.129  26.159  13.332
31598W        W 3913  40.822   3.427   4.661
31599W        W 3914   6.858   9.839   1.705
31600W        W 3915  17.239  42.001  11.511
31601W        W 3916  14.793   9.166  13.543
31602W        W 3917  30.989   2.848  14.311
31603W        W 3918  28.450  33.019  14.927
31604W        W 3919  19.164  36.047  13.505
31605W        W 3920   3.314  20.543   2.711
31606W        W 3921   3.430  12.252  11.510
31607W        W 3922  14.590  32.920   1.927
31608W        W 3923  27.638   5.255   4.330
31609W        W 3924  34.913  17.122   1.365
31610W        W 3925  26.620  30.143  12.412
31611W        W 3926  10.340  23.125   4.699
31612W        W 3927  25.192   6.184   4.340
31613W        W 3928  19.578  11.770  11.379
31614W        W 3929   0.352  44.419  12.050
31615W        W 3930  37.834  37.870   1.933
31616W        W 3931   2.829  38.912  14.884
31617W        W 3932  26.018   8.315   0.444
31618W        W 3933  32.442  24.628  13.009
31619W        W 3934  29.603  22.185  14.909
31620W        W 3935  44.929   3.240  12.900
31621W        W 3936  10.757  38.518  11.404
31622W        W 3937  12.183   9.235   0.833
31623W        W 3938  44.755   8.198  12.044
31624W        W 3939  24.037  14.643  14.951
31625W        W 3940  40.500  14.153  14.763
31626W        W 3941  22.546  40.026   1.886
31627W        W 3942  12.615  14.621   0.284
31628W        W 3943  26.680   1.406   2.800
31629W        W 3944  21.061  32.892   3.240
31630W        W 3945  25.680   4.359  14.385
31631W        W 3946  44.883   2.831  14.290
31632W        W 3947  23.658  13.618  12.425
31633W        W 3948   5.258   5.828   2.826
31634W        W 3949   3.345  15.759  13.940
31635W        W 3950  18.719  14.108   5.235
31636W        W 3951   4.386  25.220   0.309
31637W        W 3952  18.073  19.039   0.875
31638W        W 3953  36.538  17.116   4.660
31639W        W 3954   2.283  15.766  13.836
31640W        W 3955  36.457  25.695   3.654
31641W        W 3956  20.188  23.049   3.844
31642W        W 3957  39.907   6.336   1.349
31643W        W 3958   7.248  37.346   4.201
31644W        W 3959  36.446  18.066   0.398
31645W        W 3960  41.807  16.642   3.844
31646W        W 3961  23.509  14.627  13.829
31647W        W 3962  33.935  37.066   4.158
31648W        W 3963  37.986  33.558   4.229
31649W        W 3964  20.643  35.542   4.767
31650W        W 3965  31.011   0.748   1.291
31651W        W 3966  31.470  41.300   1.922
31652W        W 3967   3.808  36.987   1.812
31653W        W 3968  33.878  29.136  14.348
31654W        W 3969  18.771   2.949   0.946
31655W        W 3970   7.857   3.227   1.806
31656W        W 3971  38.993  42.933   2.297
31657W        W 3972  31.034   3.727  14.461
31658W        W 3973  12.687  21.059   5.178
31659W        W 3974   7.806  26.601   1.258
31660W        W 3975  18.570  28.538   1.765
31661W        W 3976  11.207  12.829  14.480
31662W        W 3977   3.804  29.535  14.773
31663W        W 3978  43.841  15.286   0.316
31664W        W 3979   3.227  12.766  11.599
31665W        W 3980  17.263  11.141  12.983
31666W        W 3981  42.783  25.628  11.450
31667W        W 3982  38.058  37.075  13.531
31668W        W 3983   6.224   4.254  11.061
31669W        W 3984   7.910  34.032   3.191
31670W        W 3985  28.110  40.310   2.852
31671W        W 3986  30.052  30.968  12.976
31672W        W 3987  15.085  12.798  13.349
31673W        W 3988   0.858  32.557   3.684
31674W        W 3989  12.710  21.144   0.288
31675W        W 3990  19.055  21.720  12.429
31676W        W 3991  31.898  31.925  11.593
31677W        W 3992  34.009  12.139  13.384
31678W        W 3993  43.991  20.049   3.847
31679W        W 3994  32.549   0.989  12.068
31680W        W 3995  38.340  32.634   4.263
31681W        W 3996  30.099   9.205  11.917
31682W        W 3997  26.700  27.528  14.478
31683W        W 3998  33.904  19.092  14.798
31684W        W 3999  17.583  45.000  11.556
31685W        W 4000  17.624  24.696  14.835
31686W        W 4001  11.282  16.085   5.669
31687W        W 4002  22.101  21.243   4.635
31688W        W 4003  38.931  30.907   0.433
31689W        W 4004  20.174  38.884   1.699
31690W        W 4005  17.295  29.143   1.377
31691W        W 4006  30.502  13.817  12.552
31692W        W 4007   9.271  17.254   4.161
31693W        W 4008   5.199  30.040   1.411
31694W        W 4009  33.535  11.286  10.559
31695W        W 4010  38.392  25.962   5.083
31696W        W 4011   8.284  25.559  11.983
31697W        W 4012  11.783   4.934  12.473
31698W        W 4013  37.876  27.171  14.887
31699W        W 4014  15.131   3.721  11.471
31700W        W 4015  27.020   5.697  14.911
31701W        W 4016  34.057  21.042   2.199
31702W        W 4017   3.386   6.381  14.975
31703W        W 4018   2.918  30.511  14.809
31704W        W 4019  30.574   2.735   4.179
31705W        W 4020  27.526  28.477  14.995
31706W        W 4021  32.527   1.765   4.282
31707W        W 4022  27.052  16.312   0.729
31708W        W 4023  10.819  18.763  13.007
31709W        W 4024   6.252   9.779  12.371
31710W        W 4025  36.025  40.853  14.999
31711W        W 4026  38.966  34.457  10.573
31712W        W 4027  12.741  13.696   4.696
31713W        W 4028  25.713  40.859   2.780
31714W        W 4029   3.421  17.658   2.399
31715W        W 4030  39.997  38.002  10.408
31716W        W 4031  32.089  12.344  12.551
31717W        W 4032  35.553   5.235  11.096
31718W        W 4033  40.843  19.059   4.740
31719W        W 4034  38.919  33.514  12.019
31720W        W 4035  38.395  13.236   2.693
31721W        W 4036  24.973   0.844   1.397
31722W        W 4037   8.232  31.110  14.406
31723W        W 4038  42.847  32.016   2.289
31724W        W 4039  22.733   2.941  13.052
31725W        W 4040  25.167  12.783  14.896
31726W        W 4041  12.325  37.580   4.174
31727W        W 4042  42.499   4.374  14.379
31728W        W 4043  26.514  38.468  12.568
31729W        W 4044  12.181   4.223  11.550
31730W        W 4045  35.436  35.361   4.124
31731W        W 4046  36.497  39.496   3.362
31732W        W 4047   5.711  23.228  13.918
31733W        W 4048   9.733  43.478  13.385
31734W        W 4049  20.065   1.424   2.763
31735W        W 4050  18.211   1.473  11.470
31736W        W 4051  34.866  22.742  14.858
31737W        W 4052  15.103  43.398   4.652
31738W        W 4053  35.438  33.033   4.617
31739W        W 4054  44.801  37.390   4.737
31740W        W 4055  15.694  16.640   0.743
31741W        W 4056   8.734  12.215  12.943
31742W        W 4057  34.991  20.677   0.928
31743W        W 4058  31.106  11.813   3.148
31744W        W 4059  14.309  43.470   2.702
31745W        W 4060  39.396  23.240   2.829
31746W        W 4061  44.998   4.858  11.610
31747W        W 4062  18.764   4.331  14.829
31748W        W 4063   0.305  31.516  11.486
31749W        W 4064  44.431  43.797  11.988
31750W        W 4065  32.483  43.430  11.905
31751W        W 4066  39.326   9.175  14.021
31752W        W 4067  28.141  39.948   4.671
31753W        W 4068  35.928  40.409   0.818
31754W        W 4069  16.768  22.604  11.104
31755W        W 4070  22.685   8.199   2.743
31756W        W 4071  23.716  12.320   4.261
31757W        W 4072  22.723  17.127  13.940
31758W        W 4073  21.531  26.464  14.407
31759W        W 4074   3.341  17.608   1.242
31760W        W 4075  18.187   0.940   4.298
31761W        W 4076  33.037  12.314   3.225
31762W        W 4077   3.726  35.538   2.843
31763W        W 4078  39.820  43.457  10.500
31764W        W 4079  29.002  16.648   2.407
31765W        W 4080  27.482   0.826   0.439
31766W        W 4081   6.228  16.141  12.455
31767W        W 4082  15.820  11.129  10.501
31768W        W 4083  41.522   5.893   0.806
31769W        W 4084   3.384  34.020  13.922
31770W        W 4085  16.139  44.921  12.962
31771W        W 4086  44.000  33.978  14.482
31772W        W 4087  36.958  10.816   0.424
31773W        W 4088  25.659  20.565  12.544
31774W        W 4089  42.988  24.596   4.672
31775W        W 4090   0.938   9.702   3.371
31776W        W 4091   8.758   3.822   1.227
31777W        W 4092  40.485  38.872   1.797
31778W        W 4093   7.255  38.433   2.731
31779W        W 4094  27.664  24.133  13.318
31780W        W 4095   9.221  17.709  11.128
31781W        W 4096  23.019   5.902   3.858
31782W        W 4097   0.784   6.745  13.857
31783W        W 4098   7.302  28.026   3.153
31784W        W 4099   8.824  17.067   3.825
31785W        W 4100  19.629  35.415  13.430
31786W        W 4101  29.657  23.219   2.318
31787W        W 4102  44.504   5.385  11.489
31788W        W 4103  23.034  42.378  14.016
31789W        W 4104  18.214   9.734   0.350
31790W        W 4105  38.025  23.144   2.354
31791W        W 4106  27.592  37.356   3.759
31792W        W 4107   3.291   5.333  11.523
31793W        W 4108  43.939  28.089  13.998
31794W        W 4109   7.227   8.360  12.551
31795W        W 4110  33.113   1.783   4.314
31796W        W 4111  44.489   6.338   1.850
31797W        W 4112  30.057  22.637  13.309
31798W        W 4113  11.162  11.773   3.849
31799W        W 4114   8.770  19.586  14.767
31800W        W 4115  41.514  44.794   2.747
31801W        W 4116  14.791  10.374   0.338
31802W        W 4117  22.162   5.424  13.831
31803W        W 4118  24.597  41.949  12.936
31804W        W 4119  42.358   5.276  11.486
31805W        W 4120   3.872  17.175   0.411
31806W        W 4121  18.258   5.742  14.789
31807W        W 4122  14.155  25.052  10.537
31808W        W 4123   5.846   6.368  13.426
31809W        W 4124   2.379   2.738  12.368
31810W        W 4125  43.944  11.346  14.441
31811W        W 4126  29.525   5.386  14.372
31812W        W 4127  23.164   1.871   0.966
31813W        W 4128  34.393   6.785  11.891
31814W        W 4129  29.133   5.764  12.832
31815W        W 4130  31.595  33.440   4.753
31816W        W 4131  18.066  31.980   0.963
31817W        W 4132  35.880   7.737  13.313
31818W        W 4133  42.879  44.840   0.310
31819W        W 4134  23.705   1.742   3.301
31820W        W 4135   1.762  21.065  13.344
31821W        W 4136  21.625   4.322  14.477
31822W        W 4137  31.925  40.481   3.180
31823W        W 4138  26.162  25.084  14.433
31824W        W 4139  25.098   3.823   3.660
31825W        W 4140  28.567  15.779  11.573
31826W        W 4141  11.651  16.754   9.648
31827W        W 4142  42.435  28.052   0.410
31828W        W 4143  32.607  31.483  12.580
31829W        W 4144   6.870  10.637   3.271
31830W        W 4145  30.546  31.085  13.814
31831W        W 4146  21.730   4.722   2.256
31832W        W 4147  17.105   0.358  11.552
31833W        W 4148  18.717   3.905  11.519
31834W        W 4149  31.427   4.350   3.228
31835W        W 4150  11.642  11.337  12.486
31836W        W 4151  34.474  23.092   4.762
31837W        W 4152  28.467  29.498   1.282
31838W        W 4153   7.330  25.198   3.696
31839W        W 4154  23.044  18.595   2.298
31840W        W 4155  31.622  40.314  11.082
31841W        W 4156  27.958   8.676  10.537
31842W        W 4157  43.472   7.808  12.952
31843W        W 4158  42.895  31.623   4.707
31844W        W 4159  12.833   7.857   1.708
31845W        W 4160  27.055   6.217   1.742
31846W        W 4161  39.008  15.294   1.248
31847W        W 4162   2.386   0.391   2.366
31848W        W 4163   6.425  12.315  10.457
31849W        W 4164  13.627  43.992   2.746
31850W        W 4165  35.020  25.617   0.964
31851W        W 4166  43.292  42.824  10.915
31852W        W 4167  27.584  40.954  13.865
31853W        W 4168  25.612   9.172  12.391
31854W        W 4169  21.607  43.986   0.277
31855W        W 4170   0.748  41.492   1.391
31856W        W 4171  40.820  34.870  14.471
31857W        W 4172  31.584  17.215  13.346
31858W        W 4173  15.743  29.002   9.985
31859W        W 4174  25.551  23.176   2.401
31860W        W 4175  37.380  20.157  13.974
31861W        W 4176   8.228  19.591  11.889
31862W        W 4177  23.006   0.851  14.375
31863W        W 4178  29.523   1.926   9.990
31864W        W 4179  43.987  15.309   3.680
31865W        W 4180   5.802  41.807   0.767
31866W        W 4181  27.633   4.727  12.341
31867W        W 4182  43.445  17.085   0.777
31868W        W 4183  30.491  33.062  14.949
31869W        W 4184  28.665   6.701  12.428
31870W        W 4185  36.853  16.658  14.900
31871W        W 4186  35.108   8.179   1.295
31872W        W 4187   9.787  10.326  11.542
31873W        W 4188  39.841  25.503   4.738
31874W        W 4189  18.791  28.585  13.855
31875W        W 4190  15.272  43.463   0.338
31876W        W 4191   6.683  42.499   3.819
31877W        W 4192  15.783  37.397  12.067
31878W        W 4193  10.205  22.555  14.919
31879W        W 4194   2.240  35.025  11.936
31880W        W 4195  26.632   1.450  12.497
31881W        W 4196  34.976  12.705  12.464
31882W        W 4197   3.247   8.193   3.684
31883W        W 4198  23.688  41.359   4.704
31884W        W 4199  33.959   8.822  14.417
31885W        W 4200  39.541  22.163  13.988
31886W        W 4201  18.588  24.665   4.199
31887W        W 4202  22.168  26.649  13.397
31888W        W 4203   5.432   7.356  13.804
31889W        W 4204  43.808  25.635   1.737
31890W        W 4205  40.417   2.342   1.919
31891W        W 4206  18.690  34.392  14.881
31892W        W 4207   2.234  23.060  13.492
31893W        W 4208  34.975   8.718   4.798
31894W        W 4209  20.530  16.211   4.204
31895W        W 4210   0.367  33.403  14.453
31896W        W 4211  32.395  11.149  12.049
31897W        W 4212  32.465  19.588  14.488
31898W        W 4213  13.349   9.675   2.867
31899W        W 4214  12.687  39.876  10.615
31900W        W 4215  19.257  10.244  14.976
31901W        W 4216  26.120   4.303  10.442
31902W        W 4217  41.856  19.113   3.768
31903W        W 4218  25.667   7.746   2.864
31904W        W 4219   0.355  44.005   4.323
31905W        W 4220  22.147  26.979   0.772
31906W        W 4221  39.452  20.065  11.885
31907W        W 4222   4.713  25.558  11.487
31908W        W 4223  10.163  31.035   1.385
31909W        W 4224  40.948  22.201   1.347
31910W        W 4225  44.934  16.781  11.377
31911W        W 4226  10.633  19.105   0.283
31912W        W 4227  21.536  40.503  10.555
31913W        W 4228   0.466  44.353   0.261
31914W        W 4229  43.303  12.824   2.697
31915W        W 4230  42.780   8.256   1.775
31916W        W 4231  35.491   4.934   1.342
31917W        W 4232  18.569  23.050  10.470
31918W        W 4233  19.620  39.522   0.865
31919W        W 4234  16.257  17.121   0.424
31920W        W 4235  28.485  14.650  14.872
31921W        W 4236  25.545  13.835  10.484
31922W        W 4237  11.188  23.552  12.395
31923W        W 4238   6.181  36.543   3.241
31924W        W 4239  37.964   7.768  11.984
31925W        W 4240   2.793   1.731  14.490
31926W        W 4241   3.752  30.493   0.311
31927W        W 4242  19.198  16.574   0.876
31928W        W 4243  13.128  37.562  14.509
31929W        W 4244  36.859   4.420  13.393
31930W        W 4245  30.447  27.512   4.124
31931W        W 4246  33.054  37.926  13.319
31932W        W 4247   6.808  21.532   0.839
31933W        W 4248  22.183  37.558  13.499
31934W        W 4249   6.357  44.465   1.333
31935W        W 4250  36.512  13.286  14.513
31936W        W 4251   4.299   5.888   2.312
31937W        W 4252   3.277   2.787  11.562
31938W        W 4253  28.156   1.357  13.382
31939W        W 4254  36.518  39.875  14.013
31940W        W 4255  23.502  43.822  13.048
31941W        W 4256   6.238  39.020   1.323
31942W        W 4257   9.890   9.744   1.799
31943W        W 4258   5.279   6.271   4.296
31944W        W 4259  40.392   8.292  12.065
31945W        W 4260   4.253   8.779   0.936
31946W        W 4261   2.346  33.020   0.271
31947W        W 4262  20.578  25.531   2.210
31948W        W 4263   7.340  43.463   4.290
31949W        W 4264  29.151  37.497  12.955
31950W        W 4265  16.682  13.210  12.363
31951W        W 4266  36.964  15.125  11.589
31952W        W 4267  23.235  10.315  14.490
31953W        W 4268  10.732  19.686   2.775
31954W        W 4269   5.277   8.809  11.392
31955W        W 4270  10.759  11.717  11.873
31956W        W 4271  16.211  34.563  13.432
31957W        W 4272  21.114  31.979   1.363
31958W        W 4273   4.274  16.743   4.751
31959W        W 4274  21.636   4.348   1.814
31960W        W 4275  34.069  30.577   4.309
31961W        W 4276   8.208  12.834  14.461
31962W        W 4277   5.290   7.377  10.939
31963W        W 4278  28.594  20.146  13.823
31964W        W 4279  13.349   6.788  13.532
31965W        W 4280  16.798  20.064   1.935
31966W        W 4281  15.235  10.666  12.353
31967W        W 4282  43.305   0.749  13.839
31968W        W 4283  32.111   4.941  13.926
31969W        W 4284  12.646  30.147  12.956
31970W        W 4285  25.671  10.274  13.874
31971W        W 4286  28.503  13.819  13.327
31972W        W 4287  35.552  36.571  14.828
31973W        W 4288  33.532   8.894   1.227
31974W        W 4289   8.858  42.314  14.449
31975W        W 4290   1.328  44.790  13.430
31976W        W 4291  21.653  31.427  11.089
31977W        W 4292   8.686  35.018  11.988
31978W        W 4293  12.767  10.365   2.413
31979W        W 4294   0.292   9.256   2.349
31980W        W 4295  21.149  23.612   3.702
31981W        W 4296   0.837  26.530  10.558
31982W        W 4297  18.549  24.119   0.320
31983W        W 4298  30.591  30.111  14.778
31984W        W 4299  31.067  33.394  10.492
31985W        W 4300  12.782   5.319  11.041
31986W        W 4301  43.500  11.764  14.511
31987W        W 4302  38.989  32.051   1.827
31988W        W 4303   6.884  34.961  10.451
31989W        W 4304  12.141  14.146   4.152
31990W        W 4305  15.616  10.268  12.467
31991W        W 4306  13.345   0.274   2.298
31992W        W 4307  37.051  29.523  12.432
31993W        W 4308  15.734  32.958   2.792
31994W        W 4309   4.878  32.474   2.754
31995W        W 4310  32.974  33.492   0.912
31996W        W 4311   2.423   0.978   0.873
31997W        W 4312  38.393  34.949  11.118
31998W        W 4313  15.817   8.682  10.539
31999W        W 4314  28.516  24.014  11.112
32000W        W 4315   4.413  22.250   1.749
32001W        W 4316  37.389  15.635  14.356
32002W        W 4317  15.582  13.325  13.397
32003W        W 4318  41.449   1.245  13.360
32004W        W 4319   8.219  40.370  12.523
32005W        W 4320  12.136  30.050  14.435
32006W        W 4321  27.011  40.420  13.811
32007W        W 4322  44.391  11.780   9.436
32008W        W 4323  39.867  33.416   1.931
32009W        W 4324  31.601  26.031  10.968
32010W        W 4325   4.447  41.886  12.870
32011W        W 4326  37.568   7.329   4.621
32012W        W 4327  25.058   1.814   1.909
32013W        W 4328  10.330  39.544  10.465
32014W        W 4329  44.480  23.035  11.882
32015W        W 4330  25.501  16.711   2.828
32016W        W 4331  42.366  23.135  11.904
32017W        W 4332  27.625  13.631   4.788
32018W        W 4333  39.834  21.171   4.653
32019W        W 4334  41.844  16.098  10.611
32020W        W 4335   4.242  34.886  10.889
32021W        W 4336  17.669  16.581   3.800
32022W        W 4337   5.781  24.645   3.630
32023W        W 4338  30.479   7.185  11.500
32024W        W 4339   0.770   4.881   3.735
32025W        W 4340  15.635  35.561   2.243
32026W        W 4341  33.395  27.659   3.731
32027W        W 4342  29.937   9.880   1.887
32028W        W 4343  25.026  39.457   4.670
32029W        W 4344  43.995   3.759   0.837
32030W        W 4345  14.302  23.498  13.388
32031W        W 4346   4.789  21.558   4.306
32032W        W 4347   1.863  40.934   3.634
32033W        W 4348  33.105  23.010  12.938
32034W        W 4349  41.968   2.725  11.967
32035W        W 4350   0.871  40.992  11.382
32036W        W 4351   6.184   5.263  14.294
32037W        W 4352  12.788  22.165   3.298
32038W        W 4353   2.352  41.814   1.817
32039W        W 4354  23.103   6.812   0.322
32040W        W 4355  15.814  16.209  12.915
32041W        W 4356  14.103  22.686  14.816
32042W        W 4357  39.833  40.312   3.682
32043W        W 4358  23.083   7.308  10.583
32044W        W 4359  42.340  40.445  10.965
32045W        W 4360  29.001   5.404  10.490
32046W        W 4361  13.340   0.778   4.761
32047W        W 4362  21.663  35.959  12.402
32048W        W 4363  13.602  15.606  14.989
32049W        W 4364   9.209  35.019   4.699
32050W        W 4365  26.538  17.170  12.395
32051W        W 4366  31.007  20.233  11.962
32052W        W 4367  18.582  13.752  14.027
32053W        W 4368  27.591   7.189  12.460
32054W        W 4369  41.498  20.725  11.598
32055W        W 4370  29.534  23.097   4.692
32056W        W 4371  38.883  17.712   4.643
32057W        W 4372  10.682   8.868  10.932
32058W        W 4373  32.555  40.436  13.949
32059W        W 4374   8.161  41.450  14.323
32060W        W 4375  10.800  33.934  14.444
32061W        W 4376   7.195   6.282  12.530
32062W        W 4377  11.801   9.309   2.418
32063W        W 4378  39.818  11.250   4.728
32064W        W 4379  43.507   9.764   4.805
32065W        W 4380  23.065  21.051   3.170
32066W        W 4381  18.180   0.944   0.277
32067W        W 4382  16.804  34.573   4.159
32068W        W 4383  26.692  31.468  11.561
32069W        W 4384  24.626  25.136  14.467
32070W        W 4385  14.701  37.060  13.440
32071W        W 4386  31.458  21.223   4.301
32072W        W 4387  36.522  21.126  14.295
32073W        W 4388   9.243  34.965  10.635
32074W        W 4389   0.259  41.040  14.793
32075W        W 4390  13.759   3.408  13.841
32076W        W 4391  34.926  37.075  14.451
32077W        W 4392  20.538  36.042   1.781
32078W        W 4393   1.413  41.889  13.928
32079W        W 4394  28.103  38.842  10.512
32080W        W 4395  43.335  29.061   3.746
32081W        W 4396  23.111  31.592   4.608
32082W        W 4397  35.485  30.070   4.320
32083W        W 4398  10.803  31.108  11.875
32084W        W 4399  12.184   7.290   2.788
32085W        W 4400  22.592  44.957  10.552
32086W        W 4401  20.695  28.612   1.890
32087W        W 4402  19.590  23.572   2.305
32088W        W 4403  43.793   9.645   4.340
32089W        W 4404  34.051  24.047  12.852
32090W        W 4405   0.467  26.514   3.633
32091W        W 4406   2.737  29.995  11.920
32092W        W 4407  29.470  30.079  11.075
32093W        W 4408  36.578  35.600   0.417
32094W        W 4409   5.271  41.326  13.430
32095W        W 4410  31.909   8.302  12.454
32096W        W 4411  34.425   6.210   1.220
32097W        W 4412  38.396  40.354   0.280
32098W        W 4413  38.927  44.351   4.340
32099W        W 4414  28.000  38.060  13.913
32100W        W 4415  40.822   2.297  13.809
32101W        W 4416  39.969  41.947  13.064
32102W        W 4417  29.931  35.020  11.907
32103W        W 4418  34.558  19.070  10.937
32104W        W 4419  15.144  26.205   1.883
32105W        W 4420  19.167  33.568  13.396
32106W        W 4421  32.458  25.146   1.375
32107W        W 4422  34.867  23.015   2.297
32108W        W 4423  11.846  30.938   2.722
32109W        W 4424  15.300  11.653   4.668
32110W        W 4425  24.209  33.521   0.459
32111W        W 4426  42.787  32.473  11.915
32112W        W 4427  11.137  43.890   3.194
32113W        W 4428   2.346  34.926  12.539
32114W        W 4429  17.780  36.901  13.963
32115W        W 4430  26.177  17.094   4.248
32116W        W 4431  29.663  17.161   5.126
32117W        W 4432  19.174  17.247  14.471
32118W        W 4433  10.788  14.118   1.317
32119W        W 4434  15.682  23.689  10.069
32120W        W 4435  21.258  22.682  13.373
32121W        W 4436  13.168  31.938  13.502
32122W        W 4437  27.131  25.562   0.923
32123W        W 4438  36.841  37.565   3.828
32124W        W 4439  36.381   8.898   2.230
32125W        W 4440  33.514  23.490   9.956
32126W        W 4441   3.432  19.131  11.523
32127W        W 4442  35.499  12.172  11.559
32128W        W 4443  20.641   6.244  10.923
32129W        W 4444  38.380  14.252  12.058
32130W        W 4445  24.179  29.047   2.742
32131W        W 4446  19.101   4.251  13.323
32132W        W 4447  43.977  42.850  12.394
32133W        W 4448   8.192  21.566   2.268
32134W        W 4449  30.420  29.946   1.405
32135W        W 4450  22.520  26.004   2.777
32136W        W 4451  23.607  41.479  12.834
32137W        W 4452   2.410  39.855   0.874
32138W        W 4453   4.431  20.769   1.852
32139W        W 4454  40.911  20.134   3.294
32140W        W 4455  24.562  12.357  12.078
32141W        W 4456  25.177  14.143   1.239
32142W        W 4457  24.659   5.238  12.365
32143W        W 4458  14.699  16.706  14.862
32144W        W 4459  30.622  40.472  14.381
32145W        W 4460   1.422  36.543   1.297
32146W        W 4461  14.268  20.731  10.516
32147W        W 4462  42.985  42.520  13.892
32148W        W 4463  32.975  18.569   1.788
32149W        W 4464  12.831  23.188   4.765
32150W        W 4465  40.050  15.798  13.466
32151W        W 4466  12.788  39.988   1.707
32152W        W 4467  30.909   7.875   1.785
32153W        W 4468   3.337  36.502  12.481
32154W        W 4469   7.793   1.251   3.201
32155W        W 4470  14.260  21.224  13.545
32156W        W 4471  17.569  10.822   1.819
32157W        W 4472  12.260  17.198   0.382
32158W        W 4473  36.973  16.118   1.387
32159W        W 4474  40.943  27.971   1.753
32160W        W 4475  22.045   5.769   4.601
32161W        W 4476  28.612  33.920  11.411
32162W        W 4477  30.055  19.550   2.718
32163W        W 4478  22.224  33.426   3.745
32164W        W 4479  35.529   8.869  12.066
32165W        W 4480  35.472  31.497  13.968
32166W        W 4481  16.776  26.143  12.834
32167W        W 4482  18.150   6.756   3.724
32168W        W 4483   2.346  12.197   0.451
32169W        W 4484  15.188  20.539   3.703
32170W        W 4485  14.324  31.505   1.276
32171W        W 4486  42.349   6.277  11.479
32172W        W 4487   7.286  24.008  11.513
32173W        W 4488   6.745   8.896  11.094
32174W        W 4489  30.110  31.478  13.388
32175W        W 4490   4.331   6.700   0.754
32176W        W 4491  14.757  27.664  10.539
32177W        W 4492   0.251   0.312   0.352
32178W        W 4493  34.400  25.475   1.373
32179W        W 4494  37.912  17.137  10.486
32180W        W 4495  22.508  10.362  14.483
32181W        W 4496  37.084   2.756   3.857
32182W        W 4497  23.112   0.958   0.413
32183W        W 4498  17.727  41.402   2.262
32184W        W 4499  35.500  22.683  10.546
32185W        W 4500  22.214  19.172   0.280
32186W        W 4501  18.709  32.475  11.602
32187W        W 4502  21.557  44.845  14.901
32188W        W 4503  25.163  12.187   4.812
32189W        W 4504  31.476  20.044  12.066
32190W        W 4505   6.242  28.013  13.548
32191W        W 4506   8.782  18.712  11.096
32192W        W 4507  17.716  34.917   1.393
32193W        W 4508  20.224   2.947  10.941
32194W        W 4509  13.215   1.945  10.040
32195W        W 4510   9.762  15.246  12.924
32196W        W 4511  31.901  33.131  13.378
32197W        W 4512   4.756  44.960  11.006
32198W        W 4513  37.975  31.946  13.483
32199W        W 4514   7.797  32.915   1.932
32200W        W 4515  11.763   4.258   0.924
32201W        W 4516   3.439   6.298   0.302
32202W        W 4517  43.316  15.096  14.846
32203W        W 4518  11.660  15.141   4.204
32204W        W 4519  36.368   0.426   4.795
32205W        W 4520  36.507  44.316   3.156
32206W        W 4521  36.525  27.051  13.821
32207W        W 4522  44.912  32.473  13.311
32208W        W 4523  32.575  32.912   0.928
32209W        W 4524  16.577  31.616   0.290
32210W        W 4525  21.092  38.402   3.643
32211W        W 4526   7.376  36.518   2.211
32212W        W 4527  40.935  44.275   3.274
32213W        W 4528  23.988  17.656  14.334
32214W        W 4529  22.597  19.160  10.510
32215W        W 4530  38.002  28.606   1.702
32216W        W 4531   2.346  28.063   2.821
32217W        W 4532  36.546  39.335   1.861
32218W        W 4533   2.759   0.844  11.861
32219W        W 4534   1.293   6.802   3.679
32220W        W 4535  29.515  30.159   3.356
32221W        W 4536  17.223  33.406   3.258
32222W        W 4537  40.868   2.769   0.922
32223W        W 4538   3.342  32.985   3.283
32224W        W 4539  23.522  30.575   2.717
32225W        W 4540  30.597  16.664   2.731
32226W        W 4541  36.989   8.272  11.943
32227W        W 4542   0.448   5.236  11.561
32228W        W 4543  36.891  12.278   3.349
32229W        W 4544  10.192  44.301  13.956
32230W        W 4545   6.743  39.898   1.395
32231W        W 4546   9.849  14.133  10.973
32232W        W 4547  40.805  16.227   0.790
32233W        W 4548   9.699  38.058   1.897
32234W        W 4549  16.576   8.340   3.246
32235W        W 4550  23.130  35.108   3.213
32236W        W 4551   8.684  13.655   1.889
32237W        W 4552  20.158   3.421  10.507
32238W        W 4553  16.589   2.453  12.933
32239W        W 4554   8.280   5.342  10.525
32240W        W 4555   9.878   7.370  13.794
32241W        W 4556  20.230  35.467   3.669
32242W        W 4557  25.584  28.180   1.293
32243W        W 4558  38.388  15.816   4.838
32244W        W 4559  31.110  29.473  14.433
32245W        W 4560   1.246  29.594   4.301
32246W        W 4561  35.498   7.796   1.338
32247W        W 4562  11.693  29.577  13.899
32248W        W 4563  10.144  39.520  10.938
32249W        W 4564  35.539  10.231  12.021
32250W        W 4565  38.558   3.838  13.469
32251W        W 4566  43.492   6.393   2.902
32252W        W 4567  38.471  43.461   3.696
32253W        W 4568   3.950  15.770  14.286
32254W        W 4569  12.647   6.390  14.859
32255W        W 4570  11.623   0.811   1.224
32256W        W 4571  24.977  16.656  14.980
32257W        W 4572   6.912  13.751  10.518
32258W        W 4573  37.834  24.603   1.817
32259W        W 4574  36.413  12.678   0.350
32260W        W 4575   1.327  24.092   0.291
32261W        W 4576   2.295  26.102  12.869
32262W        W 4577   8.379  35.977  11.581
32263W        W 4578  11.855  38.944   5.286
32264W        W 4579  20.654  16.633   4.166
32265W        W 4580  22.137  37.086   3.177
32266W        W 4581  35.879  32.934  12.375
32267W        W 4582  40.501  28.181   3.163
32268W        W 4583   1.811  32.055  13.797
32269W        W 4584  27.675  29.594   1.245
32270W        W 4585   1.978  43.497  10.954
32271W        W 4586  28.930  23.662  12.350
32272W        W 4587  39.314   0.929   3.632
32273W        W 4588   6.779   7.705  14.371
32274W        W 4589  35.101   6.187   0.781
32275W        W 4590  34.058  35.897  14.341
32276W        W 4591   4.255  44.377  13.947
32277W        W 4592  27.486  39.370  11.398
32278W        W 4593   4.745  17.752   0.450
32279W        W 4594  37.342  44.399  12.948
32280W        W 4595  28.069  21.206   1.778
32281W        W 4596  13.775  30.025   4.337
32282W        W 4597  15.175  31.574  11.527
32283W        W 4598  10.196   2.861  14.816
32284W        W 4599  40.991  25.600   5.705
32285W        W 4600  37.847  24.017   0.751
32286W        W 4601   5.809  35.998   3.755
32287W        W 4602  20.167  25.602   1.337
32288W        W 4603  28.989  43.839   2.791
32289W        W 4604  28.123  13.304  14.437
32290W        W 4605  23.098  43.316   0.277
32291W        W 4606  38.906  21.169  12.418
32292W        W 4607  29.989  25.185  12.987
32293W        W 4608  10.138  20.701  10.918
32294W        W 4609  19.727  39.409  14.868
32295W        W 4610  20.564   1.402  11.877
32296W        W 4611  39.860  19.156   1.315
32297W        W 4612  13.151  11.644  12.019
32298W        W 4613  18.110   0.762   1.830
32299W        W 4614  16.670  38.482   1.910
32300W        W 4615   3.938  17.156  12.888
32301W        W 4616  25.543   5.865   5.785
32302W        W 4617  38.850  23.070  11.558
32303W        W 4618  44.896  19.174  11.885
32304W        W 4619  30.039  33.412  12.504
32305W        W 4620   3.815  41.787   4.143
32306W        W 4621  17.688   6.872   0.797
32307W        W 4622  35.465  25.613   3.386
32308W        W 4623  38.359  43.470  13.956
32309W        W 4624  14.118  11.128   1.720
32310W        W 4625  10.658  35.904   0.912
32311W        W 4626  19.551  27.670   3.792
32312W        W 4627  35.429  27.158   0.905
32313W        W 4628   7.184  43.850   0.428
32314W        W 4629   1.312  17.777  14.032
32315W        W 4630  40.501  15.296  12.927
32316W        W 4631  23.086  38.485   3.674
32317W        W 4632   5.690  43.978  14.281
32318W        W 4633  25.684   4.820   4.177
32319W        W 4634  44.467  36.051   1.927
32320W        W 4635   1.785  34.525   0.258
32321W        W 4636  26.970   2.746   9.458
32322W        W 4637  32.134   6.893  14.980
32323W        W 4638   1.849  33.101   2.845
32324W        W 4639  34.105  40.424  14.002
32325W        W 4640  38.021  35.919   2.839
32326W        W 4641  18.201  34.418   1.415
32327W        W 4642  18.631  28.052  12.953
32328W        W 4643  13.240  23.057  11.476
32329W        W 4644   3.793  33.875  12.874
32330W        W 4645  33.082   6.252  11.966
32331W        W 4646  10.184  22.183   1.289
32332W        W 4647  38.967  43.893  14.926
32333W        W 4648   1.365   7.685  13.462
32334W        W 4649   7.728   0.386   4.672
32335W        W 4650  13.156   2.392  10.434
32336W        W 4651   9.789   0.920  12.358
32337W        W 4652  20.656  33.504   1.910
32338W        W 4653  11.706   4.767   5.243
32339W        W 4654  22.195   0.973  14.301
32340W        W 4655  10.649  32.932  14.428
32341W        W 4656  29.663  40.443   5.105
32342W        W 4657   0.459   6.316  12.474
32343W        W 4658  16.303   0.932  12.014
32344W        W 4659  27.678  44.808  13.907
32345W        W 4660  39.479  39.324   4.767
32346W        W 4661  22.222   1.443   3.298
32347W        W 4662  13.131  43.939   4.115
32348W        W 4663  23.538  39.038   2.293
32349W        W 4664  27.193  37.084  14.899
32350W        W 4665   4.842   2.268   0.247
32351W        W 4666   0.287  26.124   4.607
32352W        W 4667   7.310  30.927   2.362
32353W        W 4668   2.733  25.706  11.392
32354W        W 4669  12.178  31.095  14.375
32355W        W 4670   7.287  20.269  10.414
32356W        W 4671  23.175  12.343  13.958
32357W        W 4672   0.743  29.069   5.086
32358W        W 4673  29.162  32.951  12.924
32359W        W 4674  29.435  43.991   2.711
32360W        W 4675  20.164   6.789   4.714
32361W        W 4676  30.918  21.112   3.376
32362W        W 4677  22.686  18.105  13.859
32363W        W 4678   7.323   3.287   2.409
32364W        W 4679  30.130  17.688   4.201
32365W        W 4680  15.211  32.439  10.486
32366W        W 4681  24.675   3.216   4.651
32367W        W 4682  10.839  31.424  11.894
32368W        W 4683  27.523  28.155  14.345
32369W        W 4684   8.227  19.537  12.881
32370W        W 4685  37.979  40.971  14.454
32371W        W 4686  44.504  32.470   3.805
32372W        W 4687  42.895  24.011  11.590
32373W        W 4688  21.662   2.861  11.925
32374W        W 4689   2.310  29.957  13.790
32375W        W 4690  15.780  25.220  14.958
32376W        W 4691  28.937  43.974  12.991
32377W        W 4692  31.469  15.121   4.669
32378W        W 4693  13.130  41.300  13.974
32379W        W 4694  11.240  15.160  11.915
32380W        W 4695  17.730  33.529  14.448
32381W        W 4696  23.202   2.235  10.568
32382W        W 4697  18.564  44.487  14.459
32383W        W 4698  41.902  15.720  13.383
32384W        W 4699  43.458  43.942   2.257
32385W        W 4700  36.378  30.107   2.382
32386W        W 4701  24.056  35.926  12.928
32387W        W 4702  22.625  37.065  11.870
32388W        W 4703   1.913   9.838   0.953
32389W        W 4704  23.592   1.482  12.504
32390W        W 4705  43.895  34.119   3.223
32391W        W 4706  10.347   5.797   0.475
32392W        W 4707  11.334  44.810   2.810
32393W        W 4708   7.414  20.763  11.526
32394W        W 4709  31.552  33.404   2.188
32395W        W 4710  20.746  21.722  12.057
32396W        W 4711  31.902  10.728   4.617
32397W        W 4712  22.183  10.674  10.463
32398W        W 4713   2.776  42.290  12.047
32399W        W 4714  40.322  30.425   3.253
32400W        W 4715  22.146  31.474  12.483
32401W        W 4716  33.102  27.961   4.671
32402W        W 4717  18.232   5.407  13.054
32403W        W 4718   8.335  26.590   2.342
32404W        W 4719  40.892  11.672   3.280
32405W        W 4720  12.316   5.926   2.757
32406W        W 4721  38.034   4.239   0.787
32407W        W 4722  41.803  41.005   1.374
32408W        W 4723   8.801   1.789  11.430
32409W        W 4724   8.891   8.831   2.773
32410W        W 4725  38.562  30.547   3.328
32411W        W 4726  43.486  27.184   4.818
32412W        W 4727  39.403  10.832   0.242
32413W        W 4728  26.663  17.596  12.430
32414W        W 4729  38.374  41.311   0.800
32415W        W 4730  31.609  33.052  12.891
32416W        W 4731  34.886  22.514  13.800
32417W        W 4732  19.722  42.923   1.303
32418W        W 4733   6.795  26.992  10.943
32419W        W 4734  42.501   6.894   2.741
32420W        W 4735  35.376   7.742   2.263
32421W        W 4736  44.293  10.193  14.376
32422W        W 4737  41.887  43.969   1.845
32423W        W 4738  17.280  25.154  12.524
32424W        W 4739  27.194  41.902   0.902
32425W        W 4740  39.857  25.006   2.211
32426W        W 4741   0.471  35.598  12.414
32427W        W 4742  20.195  43.938  12.081
32428W        W 4743  44.328  39.033  13.946
32429W        W 4744   3.362  35.871   1.759
32430W        W 4745  39.952  39.521   2.794
32431W        W 4746   0.382   2.329   2.715
32432W        W 4747  24.168  13.160   2.247
32433W        W 4748  20.199  25.638   1.695
32434W        W 4749  41.356  11.179  13.814
32435W        W 4750  32.043  38.476   1.783
32436W        W 4751   1.237   8.267   2.188
32437W        W 4752  28.077  30.001   4.159
32438W        W 4753  15.796  32.508   0.804
32439W        W 4754  41.374  29.545   3.732
32440W        W 4755   6.233  12.302  13.375
32441W        W 4756   6.901  24.637   1.802
32442W        W 4757  40.824  10.382  11.434
32443W        W 4758  19.054  39.346  11.105
32444W        W 4759  20.251  12.659  11.908
32445W        W 4760  29.567  31.552  14.365
32446W        W 4761  31.578  14.697  14.435
32447W        W 4762  36.923  25.701  13.514
32448W        W 4763   4.401  23.093   0.256
32449W        W 4764   7.172  18.569  12.091
32450W        W 4765  37.385  25.653   2.290
32451W        W 4766  14.707  35.414   1.869
32452W        W 4767  23.702  42.894   3.291
32453W        W 4768  21.524  34.488   3.845
32454W        W 4769   2.900  18.776  10.954
32455W        W 4770   3.215  17.197  13.835
32456W        W 4771  41.884   7.190   3.365
32457W        W 4772  23.059  33.880   0.892
32458W        W 4773  26.571  23.692   3.810
32459W        W 4774  41.980  10.744  12.546
32460W        W 4775  24.659   6.722  13.391
32461W        W 4776  31.411  10.675  11.409
32462W        W 4777  42.482  13.786   3.174
32463W        W 4778   7.220  38.880   4.258
32464W        W 4779  25.005  34.468  11.524
32465W        W 4780  13.208  22.654   0.849
32466W        W 4781  23.549  30.951  10.621
32467W        W 4782  43.980   0.964   3.201
32468W        W 4783   9.247  11.746   5.090
32469W        W 4784  23.170  18.116   9.926
32470W        W 4785   8.762  16.798  11.556
32471W        W 4786  15.762   3.351  11.486
32472W        W 4787  19.678  31.438  10.903
32473W        W 4788  34.011  24.689   3.869
32474W        W 4789  30.162  27.018   1.779
32475W        W 4790   4.232  22.615   0.794
32476W        W 4791  20.150  44.878   1.833
32477W        W 4792  41.391  35.037  11.474
32478W        W 4793  23.603  34.612  11.022
32479W        W 4794   9.806  43.424   4.315
32480W        W 4795  33.445   6.186   0.386
32481W        W 4796   6.830  40.002   2.305
32482W        W 4797  12.279  35.368  12.411
32483W        W 4798  25.035  18.257  11.957
32484W        W 4799  24.016  37.344  10.083
32485W        W 4800   3.850  42.440   4.315
32486W        W 4801  30.468  36.499   4.252
32487W        W 4802  42.371   5.838   1.420
32488W        W 4803  24.182   8.244  11.867
32489W        W 4804  31.023   2.369  10.624
32490W        W 4805  16.234  28.646  10.447
32491W        W 4806  23.735  39.378   3.275
32492W        W 4807  22.010   0.258   4.599
32493W        W 4808  40.367   1.461  12.894
32494W        W 4809  15.623  30.135  10.126
32495W        W 4810  34.522  20.737  14.986
32496W        W 4811  22.649  15.822   3.241
32497W        W 4812   2.368  42.868  11.880
32498W        W 4813   7.690   0.969  12.480
32499W        W 4814  11.676   7.827   4.692
32500W        W 4815  35.026  43.891   4.698
32501W        W 4816   2.791  19.227  14.830
32502W        W 4817  24.002  43.831  11.548
32503W        W 4818  21.750  22.007   0.792
32504W        W 4819  10.330  42.894  13.992
32505W        W 4820  19.153  14.646  14.763
32506W        W 4821  17.110  30.032   3.282
32507W        W 4822  33.026   0.784   4.267
32508W        W 4823  24.483  12.830  11.099
32509W        W 4824  13.295  38.853  12.367
32510W        W 4825  23.511   6.279   4.352
32511W        W 4826  14.790  39.327   0.902
32512W        W 4827  40.873  31.135   1.257
32513W        W 4828  23.563  22.073  11.072
32514W        W 4829  22.152  27.540   1.251
32515W        W 4830  20.187  43.884   3.367
32516W        W 4831  19.043  38.533   1.387
32517W        W 4832  25.141   1.956   0.798
32518W        W 4833  14.264  39.331   1.830
32519W        W 4834  28.650  10.792  13.992
32520W        W 4835  26.549  26.990  14.313
32521W        W 4836  29.059  34.929   1.438
32522W        W 4837   9.753  10.835  10.483
32523W        W 4838  28.439  34.084   4.268
32524W        W 4839  27.676  15.210   3.156
32525W        W 4840  23.542  25.042  14.304
32526W        W 4841  23.006  35.501  12.850
32527W        W 4842   9.359  24.118  10.435
32528W        W 4843  33.506  39.050  11.376
32529W        W 4844  34.456  39.894  14.448
32530W        W 4845   7.176  22.593  13.375
32531W        W 4846  35.035  13.293  13.437
32532W        W 4847  18.709   3.362   0.304
32533W        W 4848   5.845  17.185  13.541
32534W        W 4849  18.554  26.682   2.747
32535W        W 4850  16.593  33.880   3.720
32536W        W 4851  32.594  33.473   2.413
32537W        W 4852  43.865  15.788  10.594
32538W        W 4853   6.351  41.322  12.969
32539W        W 4854  12.840  28.025  12.058
32540W        W 4855  11.183  13.836   4.283
32541W        W 4856  24.045  11.778  13.031
32542W        W 4857   6.768  16.311  12.069
32543W        W 4858  40.914  23.985  12.365
32544W        W 4859  26.003   4.392  11.591
32545W        W 4860  28.475  14.689  12.911
32546W        W 4861  44.779   6.772  10.540
32547W        W 4862  25.107  34.520  14.299
32548W        W 4863  20.104  18.201  10.460
32549W        W 4864  42.380  42.501   1.933
32550W        W 4865   7.679  28.478  13.022
32551W        W 4866  22.996  31.603  14.424
32552W        W 4867  22.094   4.749   4.618
32553W        W 4868   8.239   0.814  14.393
32554W        W 4869  10.731  39.864   3.178
32555W        W 4870   6.748  32.918   4.598
32556W        W 4871  10.869  38.330  13.965
32557W        W 4872  44.441   5.409  14.417
32558W        W 4873   2.869  27.060  12.933
32559W        W 4874  13.705  25.467   2.388
32560W        W 4875  37.338  41.459  13.947
32561W        W 4876  33.062  43.439  13.803
32562W        W 4877  32.903  29.507  14.937
32563W        W 4878  21.525  29.474  11.435
32564W        W 4879  10.228  24.630   3.372
32565W        W 4880   0.755  24.184  10.125
32566W        W 4881  10.715  24.587  14.777
32567W        W 4882  31.033  16.191   1.250
32568W        W 4883  16.185  42.312   4.831
32569W        W 4884   4.357   7.399  11.402
32570W        W 4885   1.361   8.278   0.932
32571W        W 4886  29.547  39.466   3.358
32572W        W 4887  15.654  33.547  14.963
32573W        W 4888  38.961   0.904  13.513
32574W        W 4889  37.470   6.731   4.827
32575W        W 4890  18.220  31.580   0.920
32576W        W 4891   8.294  38.390   2.363
32577W        W 4892   4.856  21.161  11.874
32578W        W 4893  16.300  30.459  14.966
32579W        W 4894   5.894  17.154  11.884
32580W        W 4895  33.488  41.337   5.285
32581W        W 4896   2.339  23.607   9.997
32582W        W 4897  24.603  42.945   1.760
32583W        W 4898  27.459  23.006  12.052
32584W        W 4899  18.182  43.509  11.930
32585W        W 4900  20.713  20.621  14.301
32586W        W 4901   6.732  37.339  12.856
32587W        W 4902  41.922   7.176   1.362
32588W        W 4903  27.469  14.295  11.012
32589W        W 4904  24.148   9.237  11.573
32590W        W 4905  27.614  24.031   2.242
32591W        W 4906  12.737  34.048  11.054
32592W        W 4907  39.497  18.680  10.522
32593W        W 4908   4.271  11.232  13.380
32594W        W 4909  11.135  26.955  10.550
32595W        W 4910  11.137  11.844  14.843
32596W        W 4911  39.367  24.510  14.004
32597W        W 4912  30.954  43.985  11.873
32598W        W 4913   7.848  40.982  12.386
32599W        W 4914   9.181  20.642  13.311
32600W        W 4915  44.980   6.202   0.937
32601W        W 4916  37.878  28.932  13.873
32602W        W 4917  33.878  11.201   2.195
32603W        W 4918   3.864  27.482   3.865
32604W        W 4919   6.334  24.090  11.578
32605W        W 4920  11.304   3.317   2.288
32606W        W 4921  11.175   9.762  10.957
32607W        W 4922   5.921  33.895  13.803
32608W        W 4923  39.460  27.032  13.020
32609W        W 4924   8.878  27.164   2.327
32610W        W 4925  36.566  27.976  14.879
32611W        W 4926  29.433  20.111   0.472
32612W        W 4927  42.952   7.823  12.420
32613W        W 4928  42.840   8.323  14.900
32614W        W 4929  20.736  10.340   4.293
32615W        W 4930  36.400  13.785  14.341
32616W        W 4931  28.651   9.362  10.642
32617W        W 4932  36.418  17.703   3.870
32618W        W 4933  19.152   2.230   1.264
32619W        W 4934  16.180  28.607   2.303
32620W        W 4935  30.637  29.653  10.465
32621W        W 4936  39.371  18.264  14.015
32622W        W 4937  12.251  36.040   4.612
32623W        W 4938  16.076  43.792  12.892
32624W        W 4939   0.850  40.360  12.096
32625W        W 4940   2.875   9.321   1.324
32626W        W 4941  33.513  25.014  14.463
32627W        W 4942  42.476   4.323   4.297
32628W        W 4943  33.473  18.610   3.248
32629W        W 4944   8.845  38.352   1.731
32630W        W 4945  21.757  43.007   0.394
32631W        W 4946  10.255  16.148   3.189
32632W        W 4947  27.578   4.845  11.488
32633W        W 4948  30.957  24.588  12.365
32634W        W 4949  36.403  43.453  13.059
32635W        W 4950   1.820  25.974  13.828
32636W        W 4951  23.022  33.516   2.712
32637W        W 4952  17.763   2.959   3.709
32638W        W 4953  37.909   2.436   2.850
32639W        W 4954  13.739   7.693   4.675
32640W        W 4955   3.931   1.957   2.228
32641W        W 4956  29.613  39.060  10.568
32642W        W 4957  21.711  36.462   4.680
32643W        W 4958  15.686  25.636  14.292
32644W        W 4959  24.514  15.696   1.824
32645W        W 4960  36.940   3.383   5.294
32646W        W 4961   2.813  15.271   3.156
32647W        W 4962  22.018  35.404  11.907
32648W        W 4963  33.542  41.895   4.786
32649W        W 4964  16.179  38.965  14.397
32650W        W 4965  44.317   8.794  14.787
32651W        W 4966  25.071  18.579  14.345
32652W        W 4967  34.875  17.184  13.926
32653W        W 4968  16.662  32.898   4.141
32654W        W 4969  11.675  11.275  12.946
32655W        W 4970  19.720   1.322  12.875
32656W        W 4971  41.501  30.483  11.530
32657W        W 4972   1.823  17.601   3.282
32658W        W 4973   4.794  12.217  14.895
32659W        W 4974   0.864   1.391  12.936
32660W        W 4975  26.103  35.582   0.293
32661W        W 4976  20.108  43.783  13.419
32662W        W 4977  34.493  37.519  11.019
32663W        W 4978  31.917  40.850  12.412
32664W        W 4979   6.921  27.028  12.969
32665W        W 4980  25.099  21.531  10.454
32666W        W 4981  35.877  17.166   0.357
32667W        W 4982  28.442  14.102   4.695
32668W        W 4983  32.463  24.016   2.237
32669W        W 4984  13.822  15.172  14.318
32670W        W 4985   6.893  38.518  14.022
32671W        W 4986  27.606  19.748   1.429
32672W        W 4987  23.211  24.640  12.832
32673W        W 4988  37.053  10.789  13.800
32674W        W 4989  31.601  34.465  13.479
32675W        W 4990   5.782  22.657  10.420
32676W        W 4991  30.512  43.496   3.766
32677W        W 4992  29.084  20.113   0.895
32678W        W 4993  17.112  36.550  12.452
32679W        W 4994   6.731  19.692  13.064
32680W        W 4995   9.813  38.940   0.413
32681W        W 4996  37.490  22.579  11.401
32682W        W 4997   0.751   3.319  11.976
32683W        W 4998  25.490  13.796  11.562
32684W        W 4999  36.923  38.453   2.198
32685W        W 5000  21.072  41.510  13.467
32686W        W 5001   0.916  24.224  13.473
32687W        W 5002  35.375  21.740  10.498
32688W        W 5003  44.907  17.192  12.469
32689W        W 5004   3.405   9.879  11.570
32690W        W 5005  21.591   2.955   2.324
32691W        W 5006  18.162  31.527  12.851
32692W        W 5007  30.422  17.705  14.784
32693W        W 5008  38.565  27.531   0.869
32694W        W 5009  39.853  42.459   4.130
32695W        W 5010  24.022  34.384   2.302
32696W        W 5011  39.373  32.542   3.376
32697W        W 5012  26.152  31.506  10.082
32698W        W 5013  13.348  26.585   1.410
32699W        W 5014  37.371  44.266  13.979
32700W        W 5015   2.362  26.127   1.314
32701W        W 5016  38.405  40.938   4.115
32702W        W 5017  14.189   5.365   1.357
32703W        W 5018  11.249  12.672  12.438
32704W        W 5019  27.634  39.542  10.478
32705W        W 5020  31.902  32.499  13.882
32706W        W 5021  37.947  15.146   2.199
32707W        W 5022  32.925  32.995  14.933
32708W        W 5023  22.012  22.726  11.534
32709W        W 5024  35.363   9.780   4.207
32710W        W 5025   5.343  29.084  11.874
32711W        W 5026  14.815  25.679  13.803
32712W        W 5027   0.479  44.426  14.942
32713W        W 5028  41.876  19.634   4.747
32714W        W 5029  36.988  26.043  12.459
32715W        W 5030  41.537  36.426  13.953
32716W        W 5031  35.394  38.999  11.414
32717W        W 5032   2.783   9.244   2.385
32718W        W 5033  41.014  16.168  14.404
32719W        W 5034   0.486  34.481   1.410
32720W        W 5035  32.569   6.201  10.049
32721W        W 5036  44.822   5.411  14.337
32722W        W 5037   0.796  28.511   0.846
32723W        W 5038   9.802  41.374  11.475
32724W        W 5039   6.704   4.813  12.543
32725W        W 5040  26.621   5.207  10.605
32726W        W 5041  39.023  36.914  12.973
32727W        W 5042  17.747  37.371  11.552
32728W        W 5043   5.768   8.227   3.832
32729W        W 5044   1.436   2.883   4.247
32730W        W 5045  43.320  28.449  11.438
32731W        W 5046  33.593  30.150  14.775
32732W        W 5047  39.507  29.530  11.063
32733W        W 5048  35.933   5.905   4.198
32734W        W 5049  33.071  30.590   2.730
32735W        W 5050   4.788   6.890  10.009
32736W        W 5051   6.271  16.246   3.709
32737W        W 5052   2.752  31.135  10.474
32738W        W 5053  35.008  16.240   3.727
32739W        W 5054  42.986   5.366   3.722
32740W        W 5055   6.281  22.014  11.914
32741W        W 5056   2.363  30.460   2.217
32742W        W 5057  19.590  12.702   1.927
32743W        W 5058  12.294  44.451   0.789
32744W        W 5059  13.654  19.224   2.226
32745W        W 5060  16.195   1.746   0.804
32746W        W 5061  40.526   7.909  11.578
32747W        W 5062  31.586  23.630   1.317
32748W        W 5063  42.504  25.480  12.439
32749W        W 5064  44.264   4.395  12.505
32750W        W 5065  43.322  44.966   2.721
32751W        W 5066  15.329   7.406   4.316
32752W        W 5067  27.944  32.984  11.958
32753W        W 5068   0.310  21.630  10.610
32754W        W 5069  13.237  16.626  11.988
32755W        W 5070   7.362  37.384   2.891
32756W        W 5071  20.173  28.092   3.303
32757W        W 5072  41.033  36.064  13.933
32758W        W 5073  11.312  43.293  13.494
32759W        W 5074  27.959   5.358   4.236
32760W        W 5075  28.585  25.631  11.393
32761W        W 5076  36.017   9.172  12.976
32762W        W 5077  39.387  18.075  11.001
32763W        W 5078  15.766   8.712  11.114
32764W        W 5079  39.559   7.831   3.168
32765W        W 5080   4.808   5.727   0.734
32766W        W 5081  40.546  22.198  14.379
32767W        W 5082  14.751  10.222   0.859
32768W        W 5083  40.049  11.149  13.443
32769W        W 5084  14.176  16.275   1.300
32770W        W 5085  17.674  33.430   2.869
32771W        W 5086   1.479  18.080  13.493
32772W        W 5087  20.650  18.675   1.850
32773W        W 5088  15.744  16.731  13.949
32774W        W 5089  17.788  42.984  13.393
32775W        W 5090   7.730  28.939  13.031
32776W        W 5091  35.570  29.072   0.345
32777W        W 5092  35.003  36.447  14.378
32778W        W 5093  16.310  28.110   3.235
32779W        W 5094  15.761   1.864  14.007
32780W        W 5095   8.850  14.629   0.896
32781W        W 5096  28.112   9.155  14.016
32782W        W 5097   6.374  12.328  10.903
32783W        W 5098  27.455  36.579   2.676
32784W        W 5099  25.017  17.556   1.251
32785W        W 5100  14.663  26.023  11.070
32786W        W 5101  34.499  43.468  10.590
32787W        W 5102   8.765  24.623   1.903
32788W        W 5103  21.161  22.218  10.416
32789W        W 5104  27.093  24.138   2.384
32790W        W 5105  19.778  18.724   2.899
32791W        W 5106  23.016  33.042   4.262
32792W        W 5107  39.871   8.857   2.716
32793W        W 5108   4.212  40.383  12.561
32794W        W 5109   4.845   6.708   1.256
32795W        W 5110  24.479  19.764  10.939
32796W        W 5111   8.360  18.749  12.905
32797W        W 5112  40.995  41.916  13.406
32798W        W 5113  17.582  18.770  11.993
32799W        W 5114   2.286  19.592   4.235
32800W        W 5115  43.998  43.477  10.486
32801W        W 5116  26.552   9.778   4.806
32802W        W 5117  27.533  30.558   5.116
32803W        W 5118  11.679  17.663  10.625
32804W        W 5119  25.580  33.603  14.375
32805W        W 5120  31.440  32.942   1.308
32806W        W 5121   8.274   7.296   2.789
32807W        W 5122  10.725  36.919   0.777
32808W        W 5123  41.342  28.034  11.491
32809W        W 5124  42.805  43.968   2.215
32810W        W 5125   0.892   8.176  12.373
32811W        W 5126  30.961   8.241  12.453
32812W        W 5127  25.692   9.673  11.857
32813W        W 5128  23.131  22.627   0.431
32814W        W 5129  38.539   0.451   3.673
32815W        W 5130  17.187  41.414   2.785
32816W        W 5131  36.993  29.063   3.382
32817W        W 5132   9.648  11.337  12.894
32818W        W 5133   8.707   1.740  12.505
32819W        W 5134  44.802  43.991  11.902
32820W        W 5135  23.594  26.566  12.904
32821W        W 5136  40.921  16.257  13.436
32822W        W 5137   6.681  42.885   3.755
32823W        W 5138  37.504  10.209  11.937
32824W        W 5139  26.555  35.077   2.755
32825W        W 5140   5.865   9.811   3.755
32826W        W 5141  18.167  38.933   4.630
32827W        W 5142   4.932  23.626   1.282
32828W        W 5143  12.854   8.752  11.042
32829W        W 5144  25.169  14.340   3.860
32830W        W 5145   2.743  17.251  14.816
32831W        W 5146  37.514  41.429   2.720
32832W        W 5147  28.657  28.004  11.862
32833W        W 5148  39.845  10.795   4.711
32834W        W 5149  43.381  18.294   4.724
32835W        W 5150  11.656   9.165  11.941
32836W        W 5151  42.397   3.371  12.011
32837W        W 5152  19.753  40.500  12.867
32838W        W 5153  34.371  21.207   4.621
32839W        W 5154  34.399  21.664  11.018
32840W        W 5155   3.326  33.479  10.974
32841W        W 5156  33.084  43.999   3.639
32842W        W 5157  16.766  24.213   3.839
32843W        W 5158  40.851  35.040   1.400
32844W        W 5159   2.422  26.577  14.014
32845W        W 5160   8.227   2.875   0.358
32846W        W 5161   7.879  14.788  12.020
32847W        W 5162  43.374  39.904   1.811
32848W        W 5163  30.987  37.884  12.093
32849W        W 5164  10.181  13.791  13.392
32850W        W 5165  24.643  35.488   3.218
32851W        W 5166  38.821  15.170  12.885
32852W        W 5167  30.484  16.243   1.781
32853W        W 5168  14.623   9.237   4.820
32854W        W 5169  41.492  25.176   3.831
32855W        W 5170  25.636   8.873  11.568
32856W        W 5171  30.001  32.083  12.471
32857W        W 5172  13.108  26.190  13.502
32858W        W 5173  19.166   7.289   4.609
32859W        W 5174   0.417  23.049   3.681
32860W        W 5175   1.946  29.632  10.425
32861W        W 5176  29.521  21.582   4.297
32862W        W 5177  38.867  15.673   1.754
32863W        W 5178  17.247  19.585  10.926
32864W        W 5179  22.155  28.966  12.920
32865W        W 5180   8.721  20.272   0.263
32866W        W 5181  10.285  22.623   3.817
32867W        W 5182   8.674  29.005  11.376
32868W        W 5183  43.985  36.077   0.480
32869W        W 5184   9.336  13.160   4.827
32870W        W 5185  29.930  32.103   4.127
32871W        W 5186   8.243   9.756   0.379
32872W        W 5187   7.263   7.784   3.338
32873W        W 5188  26.069  36.404  12.048
32874W        W 5189  29.643   0.357  13.795
32875W        W 5190  25.058  37.930  11.520
32876W        W 5191  37.406  14.227   2.793
32877W        W 5192   9.757  12.618  13.489
32878W        W 5193   5.254   2.863  14.865
32879W        W 5194  11.738  17.743  11.543
32880W        W 5195  34.403  20.172   4.228
32881W        W 5196  42.803  29.490   1.231
32882W        W 5197  39.025  26.640  10.595
32883W        W 5198   2.378  38.931  13.375
32884W        W 5199   0.950  40.943   4.214
32885W        W 5200  35.953  17.140  14.414
32886W        W 5201  13.143  40.934   1.839
32887W        W 5202  30.602   1.375  10.507
32888W        W 5203   3.713  19.713   1.409
32889W        W 5204  14.189  42.939   2.187
32890W        W 5205  39.855  23.135  13.330
32891W        W 5206  42.349   2.269  12.029
32892W        W 5207   2.902  12.762  11.382
32893W        W 5208  42.925  41.897  13.521
32894W        W 5209  36.077  20.643  10.511
32895W        W 5210  40.411  20.763   4.793
32896W        W 5211  12.849  30.074  10.601
32897W        W 5212   5.318   2.819   3.327
32898W        W 5213  35.854  14.685   0.806
32899W        W 5214  41.829   2.358  13.055
32900W        W 5215  30.120   9.155   0.883
32901W        W 5216   2.881  43.449   4.678
32902W        W 5217   0.402   9.225  13.928
32903W        W 5218  30.970  14.195   0.276
32904W        W 5219  24.647   0.810   2.181
32905W        W 5220  33.388   1.329   1.303
32906W        W 5221  25.992  35.565  12.946
32907W        W 5222   5.216  31.496  14.899
32908W        W 5223   8.329  16.650   0.888
32909W        W 5224  39.004  26.064   1.838
32910W        W 5225  34.997  24.076  11.373
32911W        W 5226  44.303  39.867   3.381
32912W        W 5227  28.436  32.894  14.480
32913W        W 5228  20.244  10.647  13.365
32914W        W 5229   7.887   1.257   4.744
32915W        W 5230  15.097  42.822  14.995
32916W        W 5231   9.664   8.690   1.317
32917W        W 5232  31.942  42.815   1.874
32918W        W 5233   7.794  38.021  13.361
32919W        W 5234  34.004  28.098   9.966
32920W        W 5235  20.165  36.005   9.940
32921W        W 5236  14.202  43.341  11.125
32922W        W 5237  44.451   1.423   0.817
32923W        W 5238  18.176  23.104  13.005
32924W        W 5239  22.531  21.086   2.320
32925W        W 5240   3.231  25.631   4.205
32926W        W 5241   3.326  20.190   4.733
32927W        W 5242  44.338  11.827  12.545
32928W        W 5243  10.858   6.908  11.954
32929W        W 5244  23.691  20.248  12.947
32930W        W 5245  26.680  37.511   4.696
32931W        W 5246  31.603  24.624  13.406
32932W        W 5247  34.045   9.802  14.473
32933W        W 5248  14.674   1.772  10.031
32934W        W 5249  34.067  19.725   2.224
32935W        W 5250  29.487  15.239  13.427
32936W        W 5251  44.409  31.925   3.242
32937W        W 5252  20.690  26.690  10.417
32938W        W 5253  36.038  21.675   3.161
32939W        W 5254  29.638  34.102  10.553
32940W        W 5255  33.057  10.242  12.552
32941W        W 5256  44.810  36.448  11.094
32942W        W 5257   3.324  39.984   4.138
32943W        W 5258   6.242  16.088   3.274
32944W        W 5259   2.727  10.262   2.776
32945W        W 5260  39.891  18.275  14.400
32946W        W 5261  30.532  20.706  12.346
32947W        W 5262   7.353  30.510  13.396
32948W        W 5263   5.750   4.271  11.608
32949W        W 5264  12.795  44.395   2.783
32950W        W 5265  36.498   0.301  10.627
32951W        W 5266  25.604  44.862  11.939
32952W        W 5267  17.243  43.366   1.222
32953W        W 5268  15.626  24.000  13.329
32954W        W 5269   7.241  14.188   3.812
32955W        W 5270  38.045  26.124  10.538
32956W        W 5271   4.895  36.869  14.867
32957W        W 5272  29.461  38.514   1.278
32958W        W 5273  25.162  27.196  13.456
32959W        W 5274   3.904  35.991  10.067
32960W        W 5275  29.540   5.894  14.515
32961W        W 5276  28.565  18.266  13.019
32962W        W 5277  34.924  25.506  12.409
32963W        W 5278  13.614  29.439   3.820
32964W        W 5279  39.473  43.864   4.739
32965W        W 5280   5.785  35.977   2.766
32966W        W 5281  28.060  18.116  11.940
32967W        W 5282  27.992   8.362   1.302
32968W        W 5283  13.311   3.308   3.368
32969W        W 5284  29.026   8.214  10.559
32970W        W 5285   3.727   9.266  13.394
32971W        W 5286  17.603  23.986  12.578
32972W        W 5287  26.580  36.037  13.407
32973W        W 5288  27.196  23.548  13.879
32974W        W 5289  26.675   7.755  13.846
32975W        W 5290  39.956  12.195  14.969
32976W        W 5291  42.427   8.239   4.805
32977W        W 5292  30.606  34.516  12.970
32978W        W 5293  35.467  33.099   2.215
32979W        W 5294  23.028  24.503   4.648
32980W        W 5295  14.655  20.700   4.613
32981W        W 5296  23.586  14.610   2.754
32982W        W 5297  22.109  38.386   2.801
32983W        W 5298  31.990   2.835   0.405
32984W        W 5299  19.610  44.890  13.344
32985W        W 5300  23.092   2.313  14.880
32986W        W 5301  22.101  26.501  14.408
32987W        W 5302   0.320  18.751   0.750
32988W        W 5303  11.261  42.321   4.332
32989W        W 5304  12.817  43.391   0.285
32990W        W 5305  37.873  16.642   3.806
32991W        W 5306  28.955  37.340  13.803
32992W        W 5307  33.891  31.969   1.879
32993W        W 5308   0.875  30.077  13.516
32994W        W 5309  38.047  28.056   4.776
32995W        W 5310  15.179  12.703  14.995
32996W        W 5311   3.384  27.986  11.383
32997W        W 5312  24.548  23.718  13.852
32998W        W 5313   2.880  11.648  12.986
32999W        W 5314   5.331  42.426   3.760
33000W        W 5315  24.135  12.645   1.718
33001W        W 5316   2.433  18.578  11.969
33002W        W 5317  14.831  32.501   2.897
33003W        W 5318  19.280  41.937   3.805
33004W        W 5319   6.219  40.464   3.317
33005W        W 5320   5.782  27.068  12.962
33006W        W 5321  23.627  12.254   2.676
33007W        W 5322   3.217  24.574  11.457
33008W        W 5323  38.547  37.381   3.278
33009W        W 5324  24.579  22.252   9.479
33010W        W 5325   3.366  31.032  12.351
33011W        W 5326   4.335   9.709   0.943
33012W        W 5327  43.797  44.756   1.217
33013W        W 5328   1.869  37.341  12.375
33014W        W 5329  30.618  30.557   1.881
33015W        W 5330  21.146   7.330  14.508
33016W        W 5331  16.156  19.596  13.514
33017W        W 5332  33.919   2.848   3.164
33018W        W 5333  11.785  26.524  14.439
33019W        W 5334  16.194  39.545   9.989
33020W        W 5335  42.491  42.933   3.670
33021W        W 5336  34.998  31.632   2.405
33022W        W 5337   4.707  31.106   1.229
33023W        W 5338  32.958   8.679  13.841
33024W        W 5339  17.296  15.217  13.844
33025W        W 5340  33.540   2.371   2.369
33026W        W 5341  33.091   6.357  11.091
33027W        W 5342  24.021   0.777   3.306
33028W        W 5343  37.974  10.250  12.392
33029W        W 5344  43.923  27.622   3.825
33030W        W 5345  28.595  27.529  13.542
33031W        W 5346  44.363  40.855   4.244
33032W        W 5347  34.428  21.670  11.418
33033W        W 5348  24.119  21.518   3.689
33034W        W 5349  28.526  33.460  12.489
33035W        W 5350  40.479  27.089   3.688
33036W        W 5351   2.768  43.983  10.912
33037W        W 5352  36.018  16.251  13.875
33038W        W 5353  32.928   7.269  10.569
33039W        W 5354  29.606  20.651   0.379
33040W        W 5355  36.984  38.938   2.414
33041W        W 5356   3.460  11.848   0.273
33042W        W 5357  36.034  11.866   3.298
33043W        W 5358  13.667  19.249  14.487
33044W        W 5359   9.860   2.894   4.146
33045W        W 5360  19.755  38.941  10.105
33046W        W 5361  39.315   5.298   3.739
33047W        W 5362  30.587  26.687  14.860
33048W        W 5363  20.614  15.249  11.071
33049W        W 5364   8.213  20.732  14.024
33050W        W 5365  42.504  29.525   2.291
33051W        W 5366  21.730  39.850  12.352
33052W        W 5367  34.614  33.400   0.341
33053W        W 5368  12.631  34.435  12.520
33054W        W 5369   5.426  26.077   3.172
33055W        W 5370  30.130  42.405  14.433
33056W        W 5371  28.184  23.233  12.074
33057W        W 5372  35.079  17.098  10.635
33058W        W 5373  35.412   3.314   4.272
33059W        W 5374  35.518   6.376   0.775
33060W        W 5375  21.677  37.052   4.712
33061W        W 5376   7.241  27.155  13.795
33062W        W 5377  33.405  36.423  10.902
33063W        W 5378  30.078  18.743   3.673
33064W        W 5379  13.804  25.993   2.386
33065W        W 5380  34.375  35.993  12.830
33066W        W 5381  11.187   9.757  12.380
33067W        W 5382  35.938  24.519  12.487
33068W        W 5383  31.014   6.788  12.358
33069W        W 5384   2.332   4.218  11.926
33070W        W 5385  14.609  19.601  13.437
33071W        W 5386  29.542  15.167   0.327
33072W        W 5387  16.310  28.126  10.004
33073W        W 5388   5.739  44.983   2.898
33074W        W 5389  28.118  11.628   4.196
33075W        W 5390   7.406  19.740  12.443
33076W        W 5391  17.675  34.938   4.163
33077W        W 5392  32.995  25.583  13.516
33078W        W 5393  15.156  12.814   2.823
33079W        W 5394  25.003  20.674   4.273
33080W        W 5395  31.059  12.162  14.368
33081W        W 5396  17.605  23.560   3.303
33082W        W 5397   4.279  35.051   2.390
33083W        W 5398   8.365  10.693  11.592
33084W        W 5399  26.599  18.632   1.713
33085W        W 5400  30.066  33.515  13.936
33086W        W 5401  22.194   6.323   4.793
33087W        W 5402   2.864   3.820  13.831
33088W        W 5403  39.554   6.903  11.491
33089W        W 5404  18.252  41.306  11.569
33090W        W 5405  13.278  19.145  10.441
33091W        W 5406  31.492   9.210   4.153
33092W        W 5407  39.541   9.691  14.827
33093W        W 5408   2.742  20.212   1.699
33094W        W 5409  14.730   4.731   4.650
33095W        W 5410   5.389  39.345  10.515
33096W        W 5411   0.414  35.430   2.205
33097W        W 5412  11.623   9.168   1.777
33098W        W 5413   3.400   3.709  14.909
33099W        W 5414  41.514  19.271  13.457
33100W        W 5415  14.161  12.212  11.034
33101W        W 5416   8.749   1.483  14.282
33102W        W 5417  35.467  36.973  14.480
33103W        W 5418  39.936  11.836   1.870
33104W        W 5419  26.477  40.476   1.733
33105W        W 5420   2.342   1.939   4.633
33106W        W 5421  33.911  24.491  13.939
33107W        W 5422  31.598  32.627   2.881
33108W        W 5423  29.969   4.828  11.089
33109W        W 5424  31.446   9.657   3.857
33110W        W 5425  16.759  19.198   1.364
33111W        W 5426  12.731  28.971  14.851
33112W        W 5427  10.384  37.046  12.381
33113W        W 5428  23.000   9.251  11.899
33114W        W 5429   6.218  26.175  13.432
33115W        W 5430  25.661  39.915   0.251
33116W        W 5431  44.931  44.992   1.804
33117W        W 5432  13.657  10.350   4.166
33118W        W 5433   6.356  26.037  11.494
33119W        W 5434  18.133  32.964  11.041
33120W        W 5435  40.016  10.195   2.404
33121W        W 5436  12.727  30.148  11.532
33122W        W 5437  35.963  23.027  12.522
33123W        W 5438  16.204  42.445   0.317
33124W        W 5439  35.595  23.126  11.060
33125W        W 5440  21.546  12.311   0.810
33126W        W 5441  32.583   7.677  14.000
33127W        W 5442  35.897   0.786   4.665
33128W        W 5443  26.172  24.660  14.003
33129W        W 5444  44.980  30.451  10.967
33130W        W 5445   9.691   9.365  13.312
33131W        W 5446  36.418  14.630   0.731
33132W        W 5447   3.315  12.194  14.484
33133W        W 5448  16.684  25.056   0.433
33134W        W 5449  32.891  44.448  12.410
33135W        W 5450   5.317  18.070   2.321
33136W        W 5451   4.832  38.959  10.944
33137W        W 5452  11.854   7.733  14.922
33138W        W 5453  41.809  38.853   3.852
33139W        W 5454  30.955  42.897  12.465
33140W        W 5455  43.411  36.030   1.802
33141W        W 5456  24.021  18.587  11.555
33142W        W 5457  31.979  41.987   1.228
33143W        W 5458   7.253   5.865  12.439
33144W        W 5459  23.194  14.821   4.656
33145W        W 5460  35.373  32.046  10.934
33146W        W 5461  26.106  13.311  13.349
33147W        W 5462  42.784  31.127   2.847
33148W        W 5463  25.591  28.044   4.311
33149W        W 5464  17.673  41.805   5.137
33150W        W 5465  26.516  29.635   3.806
33151W        W 5466  14.628  10.762  13.887
33152W        W 5467   3.285  40.511   4.263
33153W        W 5468  41.368  36.382  14.965
33154W        W 5469  23.060  10.215  13.793
33155W        W 5470   1.933  12.139  12.926
33156W        W 5471  40.423  38.015   3.632
33157W        W 5472  39.045  43.766   3.262
33158W        W 5473  37.839   8.856   1.935
33159W        W 5474   8.311  21.039  11.379
33160W        W 5475  38.960  11.278  14.784
33161W        W 5476  33.540   9.745  13.968
33162W        W 5477   2.358  28.568   3.319
33163W        W 5478  31.632  28.656  11.411
33164W        W 5479  23.178  17.788   3.799
33165W        W 5480  22.560  20.083   3.353
33166W        W 5481  27.562  27.144   1.308
33167W        W 5482  43.447   9.751   3.162
33168W        W 5483   9.197   4.286  12.045
33169W        W 5484  43.333  18.669   4.271
33170W        W 5485  26.168  30.543   2.233
33171W        W 5486  35.096  10.304   1.773
33172W        W 5487  33.905  44.003   0.770
33173W        W 5488   8.323  29.013  10.637
33174W        W 5489  14.206  10.320   1.778
33175W        W 5490  10.189   3.295  12.969
33176W        W 5491  32.960  43.501   3.246
33177W        W 5492  24.559  12.263   4.816
33178W        W 5493  21.581  36.383  11.551
33179W        W 5494  24.637  27.096  13.502
33180W        W 5495   7.324   1.856  12.398
33181W        W 5496  31.507  20.758   0.955
33182W        W 5497  35.465   9.247   2.250
33183W        W 5498   5.731  15.311  13.996
33184W        W 5499  34.526  41.521  14.938
33185W        W 5500   8.768  27.540  11.520
33186W        W 5501  44.415  26.980  14.762
33187W        W 5502  17.090  38.431  12.529
33188W        W 5503  14.191   3.227  13.395
33189W        W 5504   5.777  36.446  14.467
33190W        W 5505   1.379  31.926  10.460
33191W        W 5506  39.883  22.075   0.406
33192W        W 5507  17.653  11.326   2.747
33193W        W 5508   1.742   4.349  14.876
33194W        W 5509   1.797   7.391  13.417
33195W        W 5510  11.801  26.103   0.946
33196W        W 5511  22.014  43.964  11.576
33197W        W 5512   8.394  39.061  14.974
33198W        W 5513  34.513  11.192   2.861
33199W        W 5514  27.638  44.884  12.539
33200W        W 5515  12.221   2.816   1.763
33201W        W 5516  35.575  37.059   4.821
33202W        W 5517   5.341   9.232  10.622
33203W        W 5518  35.377  24.507  13.928
33204W        W 5519  37.924  29.978  13.950
33205W        W 5520   0.425  19.213   0.416
33206W        W 5521  29.577  33.445  13.354
33207W        W 5522   3.894   7.188   0.847
33208W        W 5523  20.248  16.612  10.967
33209W        W 5524  40.388  43.901  13.509
33210W        W 5525  26.676  22.996  11.529
33211W        W 5526   5.740  18.651  14.501
33212W        W 5527  23.015  39.889   2.191
33213W        W 5528   2.833  13.846   4.774
33214W        W 5529  24.157  24.214  14.319
33215W        W 5530  19.110  33.478  14.804
33216W        W 5531  18.264   5.249   4.795
33217W        W 5532   7.752  37.853  14.349
33218W        W 5533   8.192  23.107  14.911
33219W        W 5534  14.232  12.742   2.898
33220W        W 5535   6.387  26.977  13.354
33221W        W 5536  17.062  13.758  11.380
33222W        W 5537  19.128  29.551  11.508
33223W        W 5538  26.645  33.497   4.730
33224W        W 5539  30.135  30.463   0.447
33225W        W 5540  25.105  43.326  13.317
33226W        W 5541  40.929   0.442  11.070
33227W        W 5542  37.083  25.992  14.768
33228W        W 5543  42.786  20.042  12.348
33229W        W 5544  17.130   0.832  14.948
33230W        W 5545  41.813  31.603  11.121
33231W        W 5546  13.188   2.964  10.636
33232W        W 5547  20.207  39.036   0.295
33233W        W 5548  43.019  28.519  14.417
33234W        W 5549  39.841  11.283  12.351
33235W        W 5550  43.004   9.177   4.207
33236W        W 5551   0.918  25.212   3.237
33237W        W 5552  34.566   9.647   4.142
33238W        W 5553  28.044  35.110   1.388
33239W        W 5554  16.074  44.819  11.046
33240W        W 5555  44.835  26.004  10.966
33241W        W 5556  41.988  20.052  14.397
33242W        W 5557  44.861  31.090  14.903
33243W        W 5558  31.605  33.130   2.266
33244W        W 5559  10.305  37.373   0.411
33245W        W 5560   4.859  15.749  11.503
33246W        W 5561  37.461  16.215   4.278
33247W        W 5562  11.797  32.448   0.838
33248W        W 5563  35.887  23.579   0.356
33249W        W 5564  32.961  32.602   3.170
33250W        W 5565  25.508  34.460  12.510
33251W        W 5566   3.829  10.699  14.895
33252W        W 5567  39.033   8.207  14.428
33253W        W 5568  35.109  22.118  12.971
33254W        W 5569  38.330   6.209   1.302
33255W        W 5570   5.366  33.087  10.939
33256W        W 5571  30.641   9.792  14.990
33257W        W 5572  26.682  44.398  14.880
33258W        W 5573  35.571  32.895   3.780
33259W        W 5574  31.104  11.338  14.496
33260W        W 5575  14.714  15.321  13.525
33261W        W 5576  33.903  15.661  10.062
33262W        W 5577  35.536  35.061   2.218
33263W        W 5578   8.803  21.700  13.496
33264W        W 5579  39.416  19.583  14.975
33265W        W 5580  33.624  32.898   1.917
33266W        W 5581  35.929  15.264   1.720
33267W        W 5582  36.973   0.799  11.914
33268W        W 5583  13.326  33.497   1.858
33269W        W 5584  24.617  40.484   3.655
33270W        W 5585  16.638  40.878  14.341
33271W        W 5586  19.191   6.363   2.733
33272W        W 5587  18.718   7.808   4.146
33273W        W 5588  18.788  21.263   1.399
33274W        W 5589  37.505  42.794   3.328
33275W        W 5590  41.922  24.004   4.250
33276W        W 5591   7.340  13.732  12.824
33277W        W 5592  36.548   7.188   0.398
33278W        W 5593  10.226   5.369  13.032
33279W        W 5594   5.236  24.481  12.501
33280W        W 5595  40.315  37.376   3.207
33281W        W 5596  27.020  26.524  10.479
33282W        W 5597  44.904  43.454   1.832
33283W        W 5598  17.788  21.743  12.540
33284W        W 5599  41.913  32.500  13.833
33285W        W 5600  44.914  33.101   2.364
33286W        W 5601   1.818  18.179   1.733
33287W        W 5602  25.016  39.380   0.944
33288W        W 5603   4.737  27.641   3.685
33289W        W 5604  15.152  33.928   2.374
33290W        W 5605  21.162   0.789   1.870
33291W        W 5606   9.258  44.482   3.808
33292W        W 5607   1.749  13.345  13.993
33293W        W 5608  17.150  33.562   5.295
33294W        W 5609  33.452  29.129  14.497
33295W        W 5610  33.971  43.324  14.303
33296W        W 5611  40.307   1.760   0.403
33297W        W 5612  38.072  10.819  10.916
33298W        W 5613  19.626  23.051  11.605
33299W        W 5614  28.969  42.300  13.399
33300W        W 5615  15.640  44.785  12.550
33301W        W 5616   1.843  44.825  14.445
33302W        W 5617  29.469   4.847   5.104
33303W        W 5618  20.620  17.764  12.831
33304W        W 5619  31.480  27.464   1.424
33305W        W 5620  22.630  11.259  11.603
33306W        W 5621   9.786  27.686  11.124
33307W        W 5622  43.384  21.738  12.978
33308W        W 5623  16.587   0.858  10.624
33309W        W 5624  10.843   1.922   2.345
33310W        W 5625  44.861  41.303   4.656
33311W        W 5626  25.974  10.827  12.453
33312W        W 5627  23.654  37.428   2.789
33313W        W 5628  15.659  38.498  10.640
33314W        W 5629  16.720  41.348  11.986
33315W        W 5630  16.569  28.085   1.710
33316W        W 5631  28.496   7.673   2.786
33317W        W 5632   2.844   1.817   2.381
33318W        W 5633  27.599  32.910  11.458
33319W        W 5634  33.986   4.827   1.337
33320W        W 5635   7.842   2.415   4.330
33321W        W 5636  28.537   6.777  10.512
33322W        W 5637   2.723   1.284  13.519
33323W        W 5638  39.810  37.002  12.825
33324W        W 5639  35.366  23.551  14.302
33325W        W 5640  20.239   6.715  11.031
33326W        W 5641  10.672   9.152  12.953
33327W        W 5642  20.613  17.305  12.077
33328W        W 5643   3.230  32.441   4.295
33329W        W 5644  12.631  27.110  12.418
33330W        W 5645  44.402  40.500  14.357
33331W        W 5646  10.146  44.332  10.606
33332W        W 5647  11.177  13.791   3.241
33333W        W 5648  32.981  23.537   0.438
33334W        W 5649  38.396  17.248  13.526
33335W        W 5650  22.083  20.608   1.772
33336W        W 5651  27.135  25.022  11.028
33337W        W 5652  40.906   8.704   5.197
33338W        W 5653  26.045  26.015  11.966
33339W        W 5654  42.338  32.092  12.456
33340W        W 5655   4.217   5.198   4.285
33341W        W 5656   0.855  11.278   5.165
33342W        W 5657  35.965  26.667  11.060
33343W        W 5658  26.498  36.849  12.456
33344W        W 5659  12.218  44.412  12.443
33345W        W 5660  11.182  12.615   4.325
33346W        W 5661  44.822   2.853   4.253
33347W        W 5662   2.332  13.203  14.447
33348W        W 5663  13.221  17.748  12.523
33349W        W 5664  32.036  23.523   2.270
33350W        W 5665   3.399  11.236   3.341
33351W        W 5666  30.467  18.102  11.606
33352W        W 5667  22.739  12.659   2.334
33353W        W 5668  24.520  34.053   3.323
33354W        W 5669  40.840  24.995  14.339
33355W        W 5670  28.592  38.541   2.296
33356W        W 5671   4.271  40.810  12.947
33357W        W 5672  40.942  20.100  14.987
33358W        W 5673  17.210  34.554  12.402
33359W        W 5674   4.277   8.385   1.776
33360W        W 5675  36.441  22.028   4.804
33361W        W 5676  39.918  14.597   4.824
33362W        W 5677  26.005  30.972   0.770
33363W        W 5678  27.008  29.581  13.048
33364W        W 5679  10.660  10.842   3.689
33365W        W 5680   3.806  23.524   3.814
33366W        W 5681   7.252  44.812   1.911
33367W        W 5682  31.457  21.637   3.823
33368W        W 5683  32.417   8.235  14.429
33369W        W 5684  20.069  42.914  10.526
33370W        W 5685  29.029  19.698  14.927
33371W        W 5686  16.286  30.480  13.402
33372W        W 5687  30.061   2.812  13.998
33373W        W 5688  25.535  12.329  11.983
33374W        W 5689  42.870   7.892   4.674
33375W        W 5690   8.799  36.049   0.845
33376W        W 5691  14.258  36.919  14.402
33377W        W 5692  30.102  42.916  13.057
33378W        W 5693  10.143  39.860  11.440
33379W        W 5694   4.811  34.967  10.493
33380W        W 5695  41.479  21.017   1.321
33381W        W 5696   3.886   7.352  11.376
33382W        W 5697  22.042  35.401  14.443
33383W        W 5698   1.762   7.356   4.611
33384W        W 5699  30.154  37.908  12.838
33385W        W 5700   2.739  13.345  13.400
33386W        W 5701  35.392  44.784   4.211
33387W        W 5702  42.471  11.746  11.056
33388W        W 5703  17.589  13.330  10.563
33389W        W 5704   2.250  40.368  10.484
33390W        W 5705  28.008  16.769  12.883
33391W        W 5706  43.395   6.187   0.801
33392W        W 5707  19.124   3.287   3.340
33393W        W 5708  28.184  17.694   4.175
33394W        W 5709  10.186  39.973  13.829
33395W        W 5710  31.916  30.046   0.815
33396W        W 5711  28.515  40.804  12.558
33397W        W 5712  22.046   8.353   1.720
33398W        W 5713  11.713  12.662  10.138
33399W        W 5714  41.359   2.320  14.782
33400W        W 5715  11.307   5.880  13.859
33401W        W 5716  34.494   5.879   3.241
33402W        W 5717  35.070  10.668  12.382
33403W        W 5718  15.755  35.421   1.733
33404W        W 5719  35.476   4.761  14.985
33405W        W 5720  28.980  27.994   3.808
33406W        W 5721  26.515   8.862  11.400
33407W        W 5722  42.949  19.590  10.040
33408W        W 5723  25.105  32.128  11.409
33409W        W 5724   9.746  14.736   1.273
33410W        W 5725  27.609   3.732  12.053
33411W        W 5726  32.012  13.823  13.893
33412W        W 5727  26.045  26.602  12.385
33413W        W 5728  29.048  27.182  13.384
33414W        W 5729  33.385  38.343  14.393
33415W        W 5730   1.298  35.078  13.380
33416W        W 5731  31.612  38.570  13.900
33417W        W 5732   3.747  20.168   2.794
33418W        W 5733   2.335  35.020   0.913
33419W        W 5734  11.864  30.143   0.851
33420W        W 5735   2.734  16.697   2.781
33421W        W 5736   4.724   2.779  10.152
33422W        W 5737  36.364   5.229   3.666
33423W        W 5738  20.742  18.550   0.409
33424W        W 5739  16.271   4.737  11.557
33425W        W 5740  12.797  11.624   3.864
33426W        W 5741  30.644  11.634  13.805
33427W        W 5742  28.014  22.615  13.805
33428W        W 5743  35.877   8.190   1.745
33429W        W 5744  17.087  26.134  11.098
33430W        W 5745  20.649  27.149   0.375
33431W        W 5746  12.189  13.782   1.720
33432W        W 5747  31.063  31.562  10.449
33433W        W 5748  20.265  33.595  14.481
33434W        W 5749  20.029   3.216   1.264
33435W        W 5750  24.122  14.620  12.371
33436W        W 5751  14.269  42.481  13.857
33437W        W 5752  43.882  30.586  14.896
33438W        W 5753  14.253  42.494  11.091
33439W        W 5754  32.019  14.623  12.401
33440W        W 5755  41.504  21.085   3.147
33441W        W 5756  38.436  35.371  11.921
33442W        W 5757  36.462  10.234  13.806
33443W        W 5758  42.514  24.061  13.450
33444W        W 5759   1.312   3.923  10.632
33445W        W 5760  24.023  22.044   5.320
33446W        W 5761   8.669  22.235   3.647
33447W        W 5762  17.771  44.003   4.726
33448W        W 5763  40.940   0.969   0.374
33449W        W 5764  30.037  30.615   1.730
33450W        W 5765  21.625  10.822   4.768
33451W        W 5766  12.182  28.489  11.051
33452W        W 5767  26.206  13.818  14.491
33453W        W 5768  32.066  13.317  13.036
33454W        W 5769  44.283  22.248  13.392
33455W        W 5770  22.073  17.693  10.545
33456W        W 5771  36.394   7.784   3.191
33457W        W 5772  33.455  31.972   1.356
33458W        W 5773  17.105  10.822  12.513
33459W        W 5774  18.687  33.119  10.516
33460W        W 5775  32.444  28.129   3.801
33461W        W 5776  19.780  41.331  13.053
33462W        W 5777  29.457  11.763   3.683
33463W        W 5778  27.958  29.944   2.254
33464W        W 5779  37.877   9.712   0.750
33465W        W 5780  29.941  40.866   3.699
33466W        W 5781  14.181  35.932   1.245
33467W        W 5782  33.503  24.596  12.080
33468W        W 5783  20.263   7.901  14.882
33469W        W 5784   7.741  24.691   1.226
33470W        W 5785  36.560  14.288   0.775
33471W        W 5786  22.592   2.908  12.531
33472W        W 5787  11.309  14.656  11.012
33473W        W 5788  18.225   2.452  11.989
33474W        W 5789  35.969  12.145   1.916
33475W        W 5790   6.331  20.674   0.728
33476W        W 5791   7.723  41.998   3.747
33477W        W 5792  36.869  23.719  11.512
33478W        W 5793  43.957  14.782  11.596
33479W        W 5794  28.123  44.318   4.614
33480W        W 5795  33.064   4.354   1.414
33481W        W 5796  20.665   6.331  14.295
33482W        W 5797   6.203  43.935   3.689
33483W        W 5798  13.152  29.520  10.039
33484W        W 5799   7.188   4.729  13.818
33485W        W 5800  39.842  31.031   1.811
33486W        W 5801   5.790  19.773   1.352
33487W        W 5802   0.480  25.148  10.970
33488W        W 5803   8.701  17.650  13.843
33489W        W 5804  15.593  36.842  11.577
33490W        W 5805   5.345  20.729   2.897
33491W        W 5806  25.155   1.425   3.698
33492W        W 5807  22.160  35.434   1.776
33493W        W 5808  34.019   0.255   4.784
33494W        W 5809   1.370  17.590   2.208
33495W        W 5810   9.863  44.372  14.761
33496W        W 5811  24.518   5.222   3.851
33497W        W 5812  44.871  18.182  12.437
33498W        W 5813   7.848  22.728  10.507
33499W        W 5814  27.133  11.715  13.801
33500W        W 5815  19.678  44.317   1.831
33501W        W 5816  24.225  26.097   4.250
33502W        W 5817  21.189  24.204   2.257
33503W        W 5818  19.670  40.353   2.695
33504W        W 5819   8.213  25.005  12.360
33505W        W 5820  27.570  23.136  11.112
33506W        W 5821  36.463   5.868   1.431
33507W        W 5822  17.095   9.258  13.847
33508W        W 5823  44.487   3.409  11.859
33509W        W 5824  17.797  38.554  10.496
33510W        W 5825  38.823  39.830  11.545
33511W        W 5826   0.471   8.178   2.853
33512W        W 5827  36.965   0.827  11.374
33513W        W 5828   2.954  29.636  13.927
33514W        W 5829  33.117  16.144   0.930
33515W        W 5830  12.641  18.158   1.713
33516W        W 5831   4.270  11.639   1.868
33517W        W 5832  44.322  23.018   2.263
33518W        W 5833  24.548  30.146   3.837
33519W        W 5834  31.596  41.887  12.493
33520W        W 5835  29.500  13.260   1.400
33521W        W 5836  10.316  16.256   4.697
33522W        W 5837  24.107  28.665  14.439
33523W        W 5838   9.215  32.969  14.352
33524W        W 5839  11.136   9.180   1.352
33525W        W 5840  31.402  40.407  14.783
33526W        W 5841  38.445  24.042  14.980
33527W        W 5842  19.571  13.795  14.910
33528W        W 5843  36.994  40.342  10.471
33529W        W 5844  26.569  12.810  13.062
33530W        W 5845  39.914  12.715   0.392
33531W        W 5846  33.055  18.114  10.631
33532W        W 5847  40.930  37.538   2.709
33533W        W 5848  13.307  33.032  14.303
33534W        W 5849  39.004  30.997  14.365
33535W        W 5850  43.318  43.961  12.427
33536W        W 5851  10.794  33.406  10.132
33537W        W 5852  38.002  21.143   5.081
33538W        W 5853  22.654  34.114   0.743
33539W        W 5854  16.161  27.965  13.977
33540W        W 5855  41.425  32.894   3.183
33541W        W 5856  31.574   7.410   4.323
33542W        W 5857  26.512  33.599   4.338
33543W        W 5858  26.520  18.286  14.889
33544W        W 5859  44.387   0.824  11.930
33545W        W 5860  13.735  10.831  10.989
33546W        W 5861  15.093  28.544  11.899
33547W        W 5862  29.026   1.446   1.750
33548W        W 5863   4.781   3.443   4.767
33549W        W 5864  29.159  40.348   3.336
33550W        W 5865   5.228  28.157  12.515
33551W        W 5866  20.227  39.931  10.546
33552W        W 5867   1.818  38.331  12.418
33553W        W 5868  29.026  27.033  11.000
33554W        W 5869   5.776  23.690   2.357
33555W        W 5870  27.599  12.692  14.285
33556W        W 5871  32.117   8.398  13.907
33557W        W 5872   7.377   7.221   2.225
33558W        W 5873  29.981  21.181   0.390
33559W        W 5874   2.944  38.411   2.772
33560W        W 5875  24.603  12.655  12.962
33561W        W 5876  19.060  28.989   2.696
33562W        W 5877   6.272  22.204  14.973
33563W        W 5878   6.753  13.188  10.950
33564W        W 5879   6.688  33.625  10.568
33565W        W 5880  39.878  14.241  11.008
33566W        W 5881  12.271  19.071  10.592
33567W        W 5882  39.407  37.071   1.276
33568W        W 5883  27.559  38.020  12.846
33569W        W 5884  10.707  33.431  12.526
33570W        W 5885  12.201  36.048   2.330
33571W        W 5886  26.036  32.931   3.843
33572W        W 5887   6.718  19.197   4.654
33573W        W 5888  34.421  44.467  13.842
33574W        W 5889  32.005   9.791   2.869
33575W        W 5890  40.883  25.148  14.949
33576W        W 5891  10.737  17.207  11.451
33577W        W 5892  21.030  21.635  14.424
33578W        W 5893  17.178   4.294   2.760
33579W        W 5894   6.788   5.257   4.709
33580W        W 5895  10.165  42.415   4.267
33581W        W 5896  11.784  34.528   1.239
33582W        W 5897  39.863  31.418   2.872
33583W        W 5898   1.350  14.622  11.521
33584W        W 5899  21.532  23.041  12.509
33585W        W 5900  33.486  39.953  13.321
33586W        W 5901  41.361  13.324  10.477
33587W        W 5902   9.833  32.110   1.386
33588W        W 5903  25.560   0.916  12.859
33589W        W 5904  38.884  44.445   4.783
33590W        W 5905  16.645  24.982   2.817
33591W        W 5906  28.617  26.966  11.393
33592W        W 5907  43.348  31.463  14.290
33593W        W 5908  19.776  15.167   1.782
33594W        W 5909  31.133  12.259  12.930
33595W        W 5910  36.468  41.371  10.106
33596W        W 5911  22.064  25.672  14.485
33597W        W 5912  21.608   7.726   2.684
33598W        W 5913  42.789  19.145  14.277
33599W        W 5914  34.078  28.472  11.868
33600W        W 5915  33.572  40.838  14.832
33601W        W 5916  35.538   4.870  10.897
33602W        W 5917   0.770   9.826   3.727
33603W        W 5918   3.307   7.328  13.909
33604W        W 5919  13.603   4.792   1.846
33605W        W 5920  21.689  24.064   0.338
33606W        W 5921  24.165   7.713  14.838
33607W        W 5922  33.549   8.792  14.486
33608W        W 5923  15.169   6.198  14.452
33609W        W 5924  22.129  43.899  12.544
33610W        W 5925  10.854  16.652   4.331
33611W        W 5926   6.839  22.588   4.164
33612W        W 5927   9.705  20.584  14.496
33613W        W 5928  30.965  15.765  14.379
33614W        W 5929  37.021  43.862  12.357
33615W        W 5930   4.334  31.498  13.952
33616W        W 5931  19.281   0.334   0.333
33617W        W 5932  42.946  22.623   4.274
33618W        W 5933  38.487  10.729  14.389
33619W        W 5934  27.573  27.594   0.363
33620W        W 5935  29.120  34.874   2.868
33621W        W 5936  30.010  15.653  14.767
33622W        W 5937  11.674   5.872  14.364
33623W        W 5938   5.267   6.212   3.827
33624W        W 5939  21.571   4.250  11.011
33625W        W 5940  36.583   5.927  12.569
33626W        W 5941  14.287  24.219   4.345
33627W        W 5942   5.917  17.293   0.475
33628W        W 5943   3.726   7.324  12.941
33629W        W 5944   2.304  17.692   3.226
33630W        W 5945  15.761  16.143   4.714
33631W        W 5946  24.198  10.266  12.963
33632W        W 5947  38.564  12.807  13.876
33633W        W 5948  22.188   3.913  13.990
33634W        W 5949  19.157  37.836  12.487
33635W        W 5950  18.087   9.823   3.233
33636W        W 5951  31.107  41.293  12.480
33637W        W 5952   2.734  12.718   4.155
33638W        W 5953   5.862  31.571   4.222
33639W        W 5954  16.644   4.409   3.800
33640W        W 5955  21.106  26.562  13.951
33641W        W 5956   5.894  27.965   0.726
33642W        W 5957  22.692   7.312  12.382
33643W        W 5958  22.178  24.186   0.408
33644W        W 5959  15.636  32.448   3.772
33645W        W 5960  29.042  27.457  13.934
33646W        W 5961  36.575  35.108  13.515
33647W        W 5962  33.025   8.716  10.417
33648W        W 5963  44.917  20.269   3.160
33649W        W 5964  20.658  30.504  10.903
33650W        W 5965   1.886  22.605  13.061
33651W        W 5966   0.964  27.618   3.851
33652W        W 5967  41.790  22.240  14.464
33653W        W 5968  43.801   2.756  10.962
33654W        W 5969  33.985  14.115  14.486
33655W        W 5970  27.074  17.588   4.623
33656W        W 5971  44.347  30.079   4.276
33657W        W 5972  27.537  29.629  13.432
33658W        W 5973  19.094  43.445  14.478
33659W        W 5974   5.381  37.996   3.861
33660W        W 5975  17.249   7.408   3.640
33661W        W 5976  17.699  35.507   3.367
33662W        W 5977  39.359  21.184   3.834
33663W        W 5978  37.998  17.670  13.064
33664W        W 5979   0.797   5.875  12.493
33665W        W 5980   6.234   3.714  13.506
33666W        W 5981  18.705  43.950   2.841
33667W        W 5982  24.997  44.302  14.393
33668W        W 5983  22.626  38.901   5.278
33669W        W 5984   0.464  30.027   0.856
33670W        W 5985   6.823   0.289   2.178
33671W        W 5986  11.825  29.979   4.300
33672W        W 5987  25.677  26.594   4.830
33673W        W 5988  25.040  31.628  13.951
33674W        W 5989  33.509  26.513   2.373
33675W        W 5990   6.297   1.806  10.463
33676W        W 5991  19.146  24.113   0.407
33677W        W 5992   7.730   5.217   1.768
33678W        W 5993  11.813  44.298  11.591
33679W        W 5994   9.304  11.820  11.099
33680W        W 5995  42.293  21.701  12.480
33681W        W 5996  38.544  27.483  14.859
33682W        W 5997  24.540   6.287   4.251
33683W        W 5998  20.231   0.353   1.451
33684W        W 5999  12.725  19.121   3.283
33685W        W 6000  15.586  16.213  12.449
33686W        W 6001  15.288  15.180   3.262
33687W        W 6002  17.646  16.306  12.092
33688W        W 6003  26.189  12.706   1.218
33689W        W 6004   2.366  17.287   4.335
33690W        W 6005  30.429  38.966   4.146
33691W        W 6006  32.115  36.004   4.146
33692W        W 6007  28.554  37.930   2.895
33693W        W 6008  26.123   0.875  12.385
33694W        W 6009  37.517   3.768   0.419
33695W        W 6010  11.717  44.432   2.206
33696W        W 6011  20.222  30.005   3.308
33697W        W 6012  44.843  12.612   4.715
33698W        W 6013  36.901  21.134   2.255
33699W        W 6014  28.439  38.512  11.032
33700W        W 6015  21.521  32.891  12.055
33701W        W 6016  40.958  31.525  10.562
33702W        W 6017   4.716  30.527   0.812
33703W        W 6018  26.015  28.080  14.338
33704W        W 6019  12.244   9.821  14.497
33705W        W 6020  14.124  20.099   1.429
33706W        W 6021  27.052  42.780   2.794
33707W        W 6022   2.816  28.514   3.148
33708W        W 6023  43.993  25.975  12.513
33709W        W 6024  44.274  27.000   1.279
33710W        W 6025   0.494   4.917  12.404
33711W        W 6026  17.150  44.877   4.222
33712W        W 6027  24.214  20.551  14.945
33713W        W 6028  32.476  11.694   3.706
33714W        W 6029  44.317  11.318   5.268
33715W        W 6030   7.294   5.749   1.410
33716W        W 6031   1.354  35.919  10.053
33717W        W 6032  18.779   5.306  13.404
33718W        W 6033  41.415  16.253   1.783
33719W        W 6034  44.502   5.796  11.081
33720W        W 6035  38.459  30.429   2.388
33721W        W 6036  24.094   6.405  10.956
33722W        W 6037  32.989  20.265   0.861
33723W        W 6038  13.202  35.506   2.825
33724W        W 6039   7.855  22.542  14.446
33725W        W 6040  12.276   8.867   2.691
33726W        W 6041  20.185  21.618   0.752
33727W        W 6042  12.800  16.768   9.983
33728W        W 6043   5.437  19.152  14.909
33729W        W 6044  11.819  26.190  11.905
33730W        W 6045  34.491   6.812   1.726
33731W        W 6046  36.374  17.175  14.812
33732W        W 6047  40.393   3.855  12.897
33733W        W 6048  12.658  27.003  13.468
33734W        W 6049   0.939   1.908  11.966
33735W        W 6050  24.181  14.184  12.550
33736W        W 6051  26.000  28.566  10.497
33737W        W 6052  16.747  11.349  12.956
33738W        W 6053  12.238  21.621  11.425
33739W        W 6054  33.456  27.500  13.801
33740W        W 6055  18.110  32.541  11.022
33741W        W 6056   6.698   4.731  14.894
33742W        W 6057  22.641  32.493  14.798
33743W        W 6058   2.240  40.050   4.701
33744W        W 6059   0.895  15.816  13.505
33745W        W 6060  28.606  31.966   3.162
33746W        W 6061  30.503  25.214  11.543
33747W        W 6062  30.458  28.476   0.479
33748W        W 6063  43.976   5.300  12.929
33749W        W 6064   0.380  26.677  14.353
33750W        W 6065  33.015  41.532  12.045
33751W        W 6066  15.697  44.476  14.791
33752W        W 6067  26.561  20.725   1.362
33753W        W 6068   9.823  39.845  14.447
33754W        W 6069   8.827  37.409   1.349
33755W        W 6070  41.813  25.560   2.275
33756W        W 6071  27.975  30.582   3.674
33757W        W 6072  43.930   4.344   1.804
33758W        W 6073  20.173  27.492   3.307
33759W        W 6074  43.471  27.026  13.793
33760W        W 6075   1.758  24.609  14.379
33761W        W 6076  34.947  38.420   1.238
33762W        W 6077  42.776  26.205  11.862
33763W        W 6078   5.687  34.882  14.444
33764W        W 6079  38.545  29.064  14.422
33765W        W 6080   1.360  21.715  12.410
33766W        W 6081  15.783  34.112  10.462
33767W        W 6082  44.502  10.205   2.864
33768W        W 6083   7.407  41.393   2.391
33769W        W 6084  27.150  31.920   4.637
33770W        W 6085  11.843  30.148  10.153
33771W        W 6086  10.671   7.206   2.367
33772W        W 6087  34.567  15.188   3.712
33773W        W 6088  41.921  35.441  14.820
33774W        W 6089  13.153  13.675  12.481
33775W        W 6090  32.394   0.800  10.927
33776W        W 6091  15.701   3.317   1.739
33777W        W 6092  29.660   2.338   0.911
33778W        W 6093   5.322  25.620   2.411
33779W        W 6094  16.245   4.390  12.357
33780W        W 6095  44.921  35.096  12.485
33781W        W 6096  12.857   7.199  12.354
33782W        W 6097  12.138  16.095   0.736
33783W        W 6098  30.484  23.717   1.921
33784W        W 6099  25.023  10.184  10.937
33785W        W 6100  33.925  28.458   4.816
33786W        W 6101  33.564  12.785  14.882
33787W        W 6102  28.143  14.800   5.196
33788W        W 6103  42.908  36.495   0.484
33789W        W 6104  26.602  26.203  11.871
33790W        W 6105  33.592  18.576   2.862
33791W        W 6106  31.492  43.782  14.476
33792W        W 6107  38.013   8.889  12.452
33793W        W 6108   4.758   4.904  10.588
33794W        W 6109  33.477  38.839   9.997
33795W        W 6110  22.663   0.882  14.316
33796W        W 6111  40.543  12.780   2.822
33797W        W 6112  11.658   2.823  10.908
33798W        W 6113   1.788  36.576  10.597
33799W        W 6114  31.966  14.700  14.828
33800W        W 6115  16.123  21.638   0.824
33801W        W 6116  19.205  34.996  14.961
33802W        W 6117  21.689   6.367  10.611
33803W        W 6118  30.095  29.086   2.404
33804W        W 6119  33.490  37.987   0.850
33805W        W 6120  11.174  37.932   3.208
33806W        W 6121  26.088  42.870  14.393
33807W        W 6122  39.964   5.406   0.809
33808W        W 6123  34.563  16.199  10.642
33809W        W 6124   1.387  36.957   1.223
33810W        W 6125   6.720  13.769  12.044
33811W        W 6126  25.551  38.406   0.860
33812W        W 6127   4.858  26.568  12.860
33813W        W 6128  39.950  43.331   0.280
33814W        W 6129   5.832  26.511   3.770
33815W        W 6130  21.257  43.404  13.504
33816W        W 6131  18.744   1.878   1.877
33817W        W 6132  10.791  44.384   0.435
33818W        W 6133  38.049  43.393   4.829
33819W        W 6134  34.990  27.019  12.021
33820W        W 6135  32.974  39.460   2.411
33821W        W 6136  26.463  27.192   3.229
33822W        W 6137  10.268  33.998  13.902
33823W        W 6138  20.269  17.072   2.415
33824W        W 6139  24.048  12.237   1.255
33825W        W 6140  19.099  34.559  13.457
33826W        W 6141  25.153  18.055   3.343
33827W        W 6142  32.581   1.399   2.885
33828W        W 6143  26.093   7.244  12.403
33829W        W 6144  28.162  43.837  13.518
33830W        W 6145  28.975   4.271  12.082
33831W        W 6146  42.455  27.504  11.911
33832W        W 6147  26.531  21.161   3.289
33833W        W 6148  35.544  25.083   2.245
33834W        W 6149  12.738  22.596   3.748
33835W        W 6150  12.844  32.422   4.276
33836W        W 6151   6.230   5.316   0.425
33837W        W 6152  30.419  29.651   3.221
33838W        W 6153  15.628  36.912  11.077
33839W        W 6154   8.792   1.237  10.520
33840W        W 6155  35.396  19.662   2.298
33841W        W 6156   4.720  30.570  11.041
33842W        W 6157  44.792   1.959  13.908
33843W        W 6158   0.797  14.223   2.289
33844W        W 6159  43.823  39.923   1.908
33845W        W 6160   4.242  43.769   3.320
33846W        W 6161   9.697  44.863   4.313
33847W        W 6162  27.455  16.087  10.958
33848W        W 6163  18.726  15.299   3.761
33849W        W 6164  37.063  24.033  13.486
33850W        W 6165  16.077  13.781   0.341
33851W        W 6166  20.746  42.975   3.320
33852W        W 6167  39.012  18.762  14.002
33853W        W 6168  44.822  34.538   1.445
33854W        W 6169   8.806  38.861  11.524
33855W        W 6170  34.877  23.239   3.853
33856W        W 6171  21.613  34.474   4.797
33857W        W 6172   4.802  10.173   2.217
33858W        W 6173  25.044  22.729   3.646
33859W        W 6174   9.158  39.048   1.783
33860W        W 6175  36.075  14.654   0.270
33861W        W 6176  29.151  33.462  12.360
33862W        W 6177  36.475   9.153  14.012
33863W        W 6178  19.174  16.206   1.741
33864W        W 6179   5.279  10.715   3.280
33865W        W 6180  35.374  44.427  12.401
33866W        W 6181  12.316  35.013  11.437
33867W        W 6182  44.802   1.796   1.225
33868W        W 6183  27.534   3.276   2.669
33869W        W 6184   5.737  42.891  12.473
33870W        W 6185   7.871  25.015  11.573
33871W        W 6186   9.682  13.108  14.817
33872W        W 6187  10.171  20.256   9.939
33873W        W 6188  11.231  17.178   1.317
33874W        W 6189  43.795  42.980  11.483
33875W        W 6190   3.905   3.321   4.140
33876W        W 6191  43.004  37.348   2.405
33877W        W 6192  31.148  43.787   2.757
33878W        W 6193  31.034  42.814  14.794
33879W        W 6194   4.771  19.176   2.395
33880W        W 6195  20.109  19.582   3.723
33881W        W 6196  43.018  19.558   3.808
33882W        W 6197  28.071  32.498   2.328
33883W        W 6198  40.855  40.370  14.861
33884W        W 6199  26.529   9.204   0.479
33885W        W 6200  15.787  32.940   2.196
33886W        W 6201  19.650  19.108  14.403
33887W        W 6202  37.475  27.193   3.257
33888W        W 6203  40.015  15.789  14.299
33889W        W 6204  10.303   4.712   3.196
33890W        W 6205  37.900  13.293  13.430
33891W        W 6206  22.021  38.824  12.843
33892W        W 6207  23.539  34.032  12.443
33893W        W 6208   8.393  13.125   3.868
33894W        W 6209  13.837  42.498   2.735
33895W        W 6210  33.987  19.585  10.419
33896W        W 6211  31.489  21.073  12.074
33897W        W 6212  20.070  42.790   9.964
33898W        W 6213   4.295   5.733   3.737
33899W        W 6214  25.102  23.108  10.607
33900W        W 6215  26.067  26.690  11.902
33901W        W 6216   8.695  19.765   4.203
33902W        W 6217  15.202   5.782   3.815
33903W        W 6218  27.040  43.428  10.561
33904W        W 6219  39.496   2.413  12.019
33905W        W 6220  22.099  11.248   0.411
33906W        W 6221  20.582  28.183  13.547
33907W        W 6222  20.737  27.665   4.253
33908W        W 6223  19.155  21.726  13.028
33909W        W 6224  37.999  12.342  12.528
33910W        W 6225  10.704  11.829  14.335
33911W        W 6226   3.361  36.511  10.469
33912W        W 6227  20.662   5.270   0.444
33913W        W 6228   9.165  10.138  13.034
33914W        W 6229  24.481  27.467  11.458
33915W        W 6230  25.714  24.576   4.275
33916W        W 6231  30.628  39.363  12.870
33917W        W 6232   5.276  17.290  13.344
33918W        W 6233  40.004  13.299   4.162
33919W        W 6234   3.921  22.045   1.450
33920W        W 6235  22.996  27.145   3.644
33921W        W 6236   4.838  36.069  11.534
33922W        W 6237   8.884  39.907   2.296
33923W        W 6238  43.293  26.625   1.757
33924W        W 6239  10.302  31.133  13.888
33925W        W 6240  40.427  31.500   3.219
33926W        W 6241  40.802  12.829  13.879
33927W        W 6242  16.220  36.030   1.831
33928W        W 6243  35.049  42.330  14.898
33929W        W 6244  29.490  32.595   0.821
33930W        W 6245  24.042  38.365  13.509
33931W        W 6246  37.044   5.758  10.640
33932W        W 6247  34.887  29.981  12.841
33933W        W 6248  43.358  37.904   3.277
33934W        W 6249  20.617  30.093  14.878
33935W        W 6250  12.719   4.711  10.107
33936W        W 6251  44.784  27.947  10.007
33937W        W 6252  13.132   6.860  14.853
33938W        W 6253  31.506  37.893   3.257
33939W        W 6254  16.664   5.350  11.868
33940W        W 6255   3.461   7.212   3.687
33941W        W 6256  15.738   7.892   4.147
33942W        W 6257  42.307  24.687   1.229
33943W        W 6258  41.452  23.588   1.808
33944W        W 6259  29.573   9.218  11.387
33945W        W 6260  44.852  43.394  11.461
33946W        W 6261  16.098  38.909   0.758
33947W        W 6262  22.570  17.616   2.214
33948W        W 6263  41.384  21.609   3.786
33949W        W 6264  43.884   3.355   1.764
33950W        W 6265  35.954  33.458   1.215
33951W        W 6266   6.698  13.630   2.896
33952W        W 6267  38.415  38.444   2.359
33953W        W 6268  22.588  40.407  10.429
33954W        W 6269  20.597  41.914   1.354
33955W        W 6270  21.633  18.661   3.307
33956W        W 6271  17.680  39.010  14.807
33957W        W 6272  21.095   2.946   2.294
33958W        W 6273  16.698  36.546   1.314
33959W        W 6274  15.794   7.866  14.426
33960W        W 6275   8.719  33.028  12.398
33961W        W 6276  12.832  40.953   0.881
33962W        W 6277  13.134   4.838  12.084
33963W        W 6278  42.023   0.277  11.989
33964W        W 6279  18.631  19.709  12.500
33965W        W 6280  27.187  42.854   0.860
33966W        W 6281  12.117   8.738   3.223
33967W        W 6282   2.809  34.456   1.291
33968W        W 6283  43.967  23.121  14.498
33969W        W 6284  31.054   3.257   1.890
33970W        W 6285  12.333   1.742   3.829
33971W        W 6286   9.656  41.869  13.842
33972W        W 6287  14.175   7.266  12.975
33973W        W 6288  43.359  30.107   4.763
33974W        W 6289  13.680  14.635  13.460
33975W        W 6290  18.563   6.428   4.648
33976W        W 6291  38.375   2.729  12.425
33977W        W 6292  17.746  12.822   4.614
33978W        W 6293  28.605  25.164   1.763
33979W        W 6294  17.778  31.555   3.828
33980W        W 6295  32.572  36.519   4.652
33981W        W 6296   8.737  21.054  11.072
33982W        W 6297  37.830   4.898   2.894
33983W        W 6298   7.826  13.656   3.662
33984W        W 6299   3.309  35.458  12.014
33985W        W 6300   3.805  17.137  10.407
33986W        W 6301  21.698  44.766   1.394
33987W        W 6302  27.132  22.095   1.861
33988W        W 6303  15.817  33.026   0.396
33989W        W 6304   2.803  13.259   1.717
33990W        W 6305  30.532  32.950   2.409
33991W        W 6306  10.759  17.782   0.313
33992W        W 6307   2.958  37.537   1.927
33993W        W 6308  36.077  41.457   1.879
33994W        W 6309  29.471   8.725  12.961
33995W        W 6310  30.420  37.842   2.325
33996W        W 6311  33.007   8.367   4.163
33997W        W 6312  16.651  21.642   2.690
33998W        W 6313  16.146  37.922  11.058
33999W        W 6314   8.357  23.230  10.954
34000W        W 6315  17.177   4.882   3.254
34001W        W 6316  12.672  33.934  11.415
34002W        W 6317  27.682  26.593   4.249
34003W        W 6318  34.534   2.439  12.448
34004W        W 6319  29.171  22.240   1.745
34005W        W 6320  35.427  33.090  14.447
34006W        W 6321  11.680  41.402   5.189
34007W        W 6322  42.777  31.108  14.772
34008W        W 6323  15.669  40.903   4.174
34009W        W 6324  17.178  30.032   2.676
34010W        W 6325  25.185  22.246  13.438
34011W        W 6326  24.209   2.382   2.278
34012W        W 6327  33.976  31.449   4.643
34013W        W 6328  20.119   9.225  14.466
34014W        W 6329  42.400  35.389  13.843
34015W        W 6330  39.340  28.594   1.395
34016W        W 6331  15.146  21.519  11.929
34017W        W 6332  33.471  10.167   3.287
34018W        W 6333   3.405  10.252   4.280
34019W        W 6334  38.953   5.874  13.812
34020W        W 6335  20.572  41.335  13.970
34021W        W 6336  22.080  24.995   3.243
34022W        W 6337  12.236  32.514   2.377
34023W        W 6338  33.524  38.047   3.779
34024W        W 6339  21.215  40.798  13.485
34025W        W 6340  27.198  37.499  14.786
34026W        W 6341  43.893   1.832  10.525
34027W        W 6342  16.233  31.930  10.632
34028W        W 6343  10.165   0.888   1.306
34029W        W 6344  39.966  16.803  11.504
34030W        W 6345  36.911  29.018  12.378
34031W        W 6346   0.953  15.113  14.912
34032W        W 6347  34.423  17.682   2.234
34033W        W 6348  29.548  26.996  11.866
34034W        W 6349   0.855   4.338   1.876
34035W        W 6350  25.055  23.619  14.459
34036W        W 6351  16.592   3.783   2.746
34037W        W 6352  30.469   4.777  10.542
34038W        W 6353  14.615  30.597   1.333
34039W        W 6354  39.851  41.969  11.907
34040W        W 6355  20.639  29.630   1.739
34041W        W 6356  38.835  22.720   1.760
34042W        W 6357  29.543  44.853   2.728
34043W        W 6358  25.601   6.377   3.828
34044W        W 6359  23.060  36.055  12.437
34045W        W 6360  21.719   8.327   1.328
34046W        W 6361  28.083  13.777   2.279
34047W        W 6362  41.463  28.567  10.623
34048W        W 6363  44.895  12.121  13.925
34049W        W 6364   1.840  42.811   5.126
34050W        W 6365  32.556  15.758  10.085
34051W        W 6366  40.311   0.978   4.141
34052W        W 6367  36.411  10.749  12.940
34053W        W 6368  18.691  25.637  14.816
34054W        W 6369  26.964  29.634  12.408
34055W        W 6370  17.265  29.621   9.659
34056W        W 6371   2.919   0.842  11.421
34057W        W 6372   0.314  28.627   2.832
34058W        W 6373   1.939  43.998  10.952
34059W        W 6374  43.816  31.994   1.373
34060W        W 6375  23.196  32.043   2.902
34061W        W 6376   3.921  18.224   2.345
34062W        W 6377   6.916   6.322   0.322
34063W        W 6378  39.538  15.731   2.325
34064W        W 6379   5.822  37.847   0.374
34065W        W 6380  19.209  34.927   0.265
34066W        W 6381  21.715  21.072   4.212
34067W        W 6382  32.132  18.161  10.482
34068W        W 6383   2.358  31.567  12.855
34069W        W 6384   4.932  25.031  12.395
34070W        W 6385  37.503  23.623  10.935
34071W        W 6386  39.449  12.734  14.945
34072W        W 6387   4.713  31.510  12.853
34073W        W 6388  31.117   1.321   0.921
34074W        W 6389  40.523  31.910   3.353
34075W        W 6390  14.144  34.521   3.153
34076W        W 6391  30.961  29.656  10.438
34077W        W 6392  29.084   6.725  12.524
34078W        W 6393  36.399  26.459  12.088
34079W        W 6394  11.830  13.715   3.738
34080W        W 6395   6.806  39.492   2.357
34081W        W 6396  35.495   6.792   3.236
34082W        W 6397  22.212   7.720   2.854
34083W        W 6398  18.060   1.741   1.723
34084W        W 6399  29.954  29.482  13.922
34085W        W 6400  39.949  26.622  10.593
34086W        W 6401  17.763  25.969   1.340
34087W        W 6402  11.765  27.181   0.363
34088W        W 6403  11.138  44.390   3.385
34089W        W 6404  17.638   9.226   1.726
34090W        W 6405  35.539  26.000   1.401
34091W        W 6406  17.800  19.543  14.030
34092W        W 6407  20.254  18.283  12.546
34093W        W 6408   8.891  33.507  11.447
34094W        W 6409  12.218  28.109  12.365
34095W        W 6410  16.599  16.107   3.690
34096W        W 6411  17.110  37.366  14.972
34097W        W 6412  10.202   0.882   4.260
34098W        W 6413  39.834   9.268   1.309
34099W        W 6414  18.208  41.304  14.862
34100W        W 6415   5.359  42.498  11.422
34101W        W 6416  17.782  43.280  14.986
34102W        W 6417  14.146  26.470  12.949
34103W        W 6418  20.242  19.701  14.330
34104W        W 6419  11.285  35.526  11.531
34105W        W 6420  15.298  44.906   4.630
34106W        W 6421  10.876  19.066  14.985
34107W        W 6422  42.007  37.373   4.164
34108W        W 6423  21.679   4.910   2.894
34109W        W 6424  20.215  38.465  13.422
34110W        W 6425   0.447   9.379   0.337
34111W        W 6426  33.094   4.347   4.746
34112W        W 6427  19.575  19.285   0.908
34113W        W 6428  25.634  35.011  13.493
34114W        W 6429  26.544  25.534   4.722
34115W        W 6430  36.402   2.941   2.384
34116W        W 6431  13.172   7.299  12.390
34117W        W 6432  25.657   1.242   1.873
34118W        W 6433  14.316  17.798   4.747
34119W        W 6434  28.039  28.096   0.311
34120W        W 6435  26.057  38.458   2.273
34121W        W 6436  30.007   1.914  12.381
34122W        W 6437   7.899  18.709   4.215
34123W        W 6438   6.841  25.631   1.833
34124W        W 6439  34.013  10.703   0.913
34125W        W 6440   5.279  36.914   2.678
34126W        W 6441  24.118  20.550   0.782
34127W        W 6442  22.173  21.700  14.970
34128W        W 6443  41.299  40.420  14.477
34129W        W 6444   2.446   7.905  12.850
34130W        W 6445   7.225   7.203  12.439
34131W        W 6446  22.245  23.056   2.297
34132W        W 6447  25.062  10.272   1.832
34133W        W 6448  14.141  34.929   2.313
34134W        W 6449  29.976  10.172   0.912
34135W        W 6450  30.519   8.899   2.404
34136W        W 6451  31.928   4.383   3.223
34137W        W 6452  19.600  17.280   1.218
34138W        W 6453  23.120  17.062  12.541
34139W        W 6454   2.230  35.529  12.032
34140W        W 6455  43.316  15.309   4.628
34141W        W 6456  30.509   0.386   4.637
34142W        W 6457  22.161  41.435   4.178
34143W        W 6458  33.951  18.759   0.810
34144W        W 6459  31.020  37.360   9.960
34145W        W 6460  33.464   1.844   2.387
34146W        W 6461  24.543  27.617  10.513
34147W        W 6462  27.079  27.613   3.170
34148W        W 6463  20.575  14.206  12.484
34149W        W 6464  43.943   3.794  12.880
34150W        W 6465  13.201  30.024  10.585
34151W        W 6466   9.657  26.095  13.373
34152W        W 6467  12.222  23.519   4.735
34153W        W 6468  17.066  30.962   0.760
34154W        W 6469  35.901  20.717  14.962
34155W        W 6470  30.912  26.109  14.327
34156W        W 6471   7.775  28.650   2.804
34157W        W 6472  31.016   4.928   4.621
34158W        W 6473  37.371  34.377  11.878
34159W        W 6474  44.951  17.618   3.799
34160W        W 6475  27.085   8.319  12.040
34161W        W 6476   6.211   0.414   2.389
34162W        W 6477  34.420   5.322  10.947
34163W        W 6478  43.495   4.360  10.923
34164W        W 6479  13.611  35.068   4.142
34165W        W 6480  44.941  31.010   1.345
34166W        W 6481  26.174   0.811   4.729
34167W        W 6482  22.740  19.735   1.762
34168W        W 6483  11.340  39.460   2.372
34169W        W 6484  14.793  13.614   0.872
34170W        W 6485  32.889  31.436   0.446
34171W        W 6486  37.924  31.602   2.676
34172W        W 6487   0.429  42.977   0.938
34173W        W 6488  44.497  35.359  11.956
34174W        W 6489  31.433  19.065   4.715
34175W        W 6490  39.535  29.670   3.863
34176W        W 6491   1.774  38.548  13.996
34177W        W 6492  10.301  30.433   4.332
34178W        W 6493  10.757  42.815  14.386
34179W        W 6494  26.463   0.927   3.815
34180W        W 6495  26.609   1.894   1.783
34181W        W 6496  31.635  10.233  10.495
34182W        W 6497  38.055  31.054   0.303
34183W        W 6498  40.473  36.354  13.494
34184W        W 6499  16.258  22.744  12.361
34185W        W 6500  44.332  38.827  10.935
34186W        W 6501  33.874   7.699   1.282
34187W        W 6502  15.585  39.826  10.046
34188W        W 6503   7.411  40.537  13.982
34189W        W 6504  10.636  23.646   2.844
34190W        W 6505   9.668   6.866  13.979
34191W        W 6506  35.938  27.542   1.241
34192W        W 6507  22.996   1.327   1.251
34193W        W 6508  44.305  42.507   4.291
34194W        W 6509  33.103  17.753  11.924
34195W        W 6510  29.623  27.032  11.526
34196W        W 6511  24.124  39.391   2.326
34197W        W 6512  12.741   4.214  11.945
34198W        W 6513   8.376  34.383  11.069
34199W        W 6514   2.261  16.300  10.547
34200W        W 6515   6.184   5.884  11.611
34201W        W 6516  35.014  18.066   3.670
34202W        W 6517   7.822  44.323  10.446
34203W        W 6518   0.743  11.300  12.541
34204W        W 6519  41.935   8.871   2.182
34205W        W 6520  23.639  17.247  14.382
34206W        W 6521  28.131  18.160   2.306
34207W        W 6522  40.852  24.035  13.404
34208W        W 6523  39.931   8.734   2.318
34209W        W 6524  33.593   8.896   4.252
34210W        W 6525  21.238   6.266  10.438
34211W        W 6526  15.653  33.534   9.945
34212W        W 6527  44.795  21.193   4.164
34213W        W 6528  42.496  23.172  14.937
34214W        W 6529  17.769   0.375   3.163
34215W        W 6530  27.579  40.362   4.261
34216W        W 6531  29.590  38.360   0.777
34217W        W 6532  11.626  24.158   2.711
34218W        W 6533   8.827  20.102   3.268
34219W        W 6534  40.805  20.553  14.366
34220W        W 6535  17.598  40.492  11.968
34221W        W 6536  27.685  44.354  13.803
34222W        W 6537  17.713  42.331   2.396
34223W        W 6538  41.001  27.550   3.241
34224W        W 6539  12.213   0.365  14.282
34225W        W 6540  25.541  30.088   3.781
34226W        W 6541  31.444  37.991  11.920
34227W        W 6542  32.045  33.541   1.450
34228W        W 6543   5.770   0.477   4.273
34229W        W 6544  44.426  19.184   3.292
34230W        W 6545  12.154  14.276  10.562
34231W        W 6546   1.742   1.333  11.536
34232W        W 6547  21.528  17.123  10.486
34233W        W 6548  38.006  26.040  13.798
34234W        W 6549   5.801  37.958  10.634
34235W        W 6550  12.189  16.206   3.786
34236W        W 6551   9.857  16.278   4.643
34237W        W 6552  14.129  28.674  14.311
34238W        W 6553  44.466   7.839  11.084
34239W        W 6554  36.386  13.317   4.209
34240W        W 6555  27.079  33.597   2.715
34241W        W 6556  31.969   4.332   4.799
34242W        W 6557  26.674  29.431  12.911
34243W        W 6558  21.583  33.933  14.349
34244W        W 6559  44.999  17.264   3.683
34245W        W 6560   1.284  13.737   4.754
34246W        W 6561  34.035  34.417  10.939
34247W        W 6562  40.338  10.837   4.115
34248W        W 6563  43.866   4.803   0.821
34249W        W 6564  18.057  26.499   3.761
34250W        W 6565  38.069  28.163  10.975
34251W        W 6566  26.536  40.852   1.912
34252W        W 6567   6.866  14.218   2.291
34253W        W 6568  34.117  16.316   1.409
34254W        W 6569  19.109  35.579  13.892
34255W        W 6570  29.642  17.295   1.437
34256W        W 6571  39.498  17.558  12.495
34257W        W 6572   5.370   7.299  12.440
34258W        W 6573  43.012  35.454   1.391
34259W        W 6574  15.101  43.373   1.867
34260W        W 6575  37.467  38.061   2.396
34261W        W 6576  10.824  43.999   0.351
34262W        W 6577  10.806  10.871  11.453
34263W        W 6578  38.568  24.185   2.675
34264W        W 6579  23.599   5.409   3.152
34265W        W 6580  30.643  33.881  10.938
34266W        W 6581  42.893  16.071   4.759
34267W        W 6582  12.200  41.790   0.887
34268W        W 6583   7.887  10.185  11.128
34269W        W 6584  36.012   6.246  12.526
34270W        W 6585  10.184   0.443  12.842
34271W        W 6586   5.709   3.328   1.822
34272W        W 6587   4.773  36.857   1.238
34273W        W 6588  17.210  24.994   5.210
34274W        W 6589   1.362  30.544  14.027
34275W        W 6590  24.495  18.701  13.043
34276W        W 6591  17.717  28.062   1.934
34277W        W 6592   2.272  14.674   2.311
34278W        W 6593  14.828  13.258  11.955
34279W        W 6594  44.488   2.399   2.349
34280W        W 6595  25.025  12.853  10.593
34281W        W 6596  22.658   0.296  14.419
34282W        W 6597  37.051  14.318  10.531
34283W        W 6598  28.547  17.648  14.761
34284W        W 6599  34.587   3.864   3.281
34285W        W 6600  15.169   7.269   1.818
34286W        W 6601  17.706  32.554   2.217
34287W        W 6602  20.706   7.691  13.472
34288W        W 6603  27.075  28.666   4.788
34289W        W 6604  13.684  31.535   1.710
34290W        W 6605  27.128  34.548   2.181
34291W        W 6606   3.894   1.471  12.950
34292W        W 6607  41.964  22.083  11.611
34293W        W 6608   6.310  43.433   1.421
34294W        W 6609  11.802  37.433  11.564
34295W        W 6610   4.770  17.288  12.879
34296W        W 6611  12.221  27.637   1.700
34297W        W 6612  31.435   4.306  12.572
34298W        W 6613  12.224  23.225  11.048
34299W        W 6614  27.577  42.995  13.392
34300W        W 6615  16.712  33.625  11.984
34301W        W 6616  28.086  14.731  13.847
34302W        W 6617  35.942  28.142   0.826
34303W        W 6618  35.940   1.826   3.748
34304W        W 6619   2.753  43.432   0.765
34305W        W 6620   4.891  24.114  14.468
34306W        W 6621   5.419  11.178   0.343
34307W        W 6622  30.571   5.305   2.393
34308W        W 6623  44.310  41.318   0.898
34309W        W 6624   6.421  42.807  14.970
34310W        W 6625  30.622  38.905   0.923
34311W        W 6626   9.289  29.643   1.764
34312W        W 6627   4.839   1.432   1.914
34313W        W 6628  16.797   0.308  11.507
34314W        W 6629  44.418  35.022  13.364
34315W        W 6630  38.471  14.331   0.929
34316W        W 6631  22.571   3.839   1.434
34317W        W 6632  33.443  40.499   4.159
34318W        W 6633  10.340  42.391  10.974
34319W        W 6634   0.271  22.652  11.586
34320W        W 6635  26.169  41.837  14.998
34321W        W 6636  19.235  20.075   4.656
34322W        W 6637  42.420   2.784   2.402
34323W        W 6638   5.263  26.703  10.424
34324W        W 6639   3.715  30.965   3.774
34325W        W 6640  39.399  10.356   4.624
34326W        W 6641  19.103  40.520   1.288
34327W        W 6642   5.331  31.548   0.460
34328W        W 6643  31.415   6.327   2.902
34329W        W 6644  13.330  21.139  10.903
34330W        W 6645  26.057  33.046   0.406
34331W        W 6646  35.596   1.368  10.622
34332W        W 6647  22.639   9.824  13.996
34333W        W 6648  21.203  21.043   4.340
34334W        W 6649   0.863  30.157  11.968
34335W        W 6650  25.217  43.296  11.527
34336W        W 6651  15.593  11.655  11.127
34337W        W 6652   8.802  35.099   5.226
34338W        W 6653  18.235  43.792  12.580
34339W        W 6654  33.926  10.862  10.472
34340W        W 6655  31.593  19.247  14.486
34341W        W 6656  24.564   1.255  13.029
34342W        W 6657  41.897  41.505  11.491
34343W        W 6658   6.339  35.950   3.344
34344W        W 6659   4.892   9.380  10.008
34345W        W 6660  41.942   7.274  12.829
34346W        W 6661  38.969   2.819   4.835
34347W        W 6662  31.627   7.326   1.775
34348W        W 6663  38.375   8.801   2.703
34349W        W 6664   6.792  20.673  14.837
34350W        W 6665  40.046  24.489  14.920
34351W        W 6666  31.563  36.051   2.817
34352W        W 6667  37.052  40.945  11.488
34353W        W 6668  12.833  43.468  10.943
34354W        W 6669  30.150  35.375  13.460
34355W        W 6670  34.018   1.347   1.889
34356W        W 6671  24.080  34.574  14.414
34357W        W 6672  23.053   9.235  14.423
34358W        W 6673  12.791   2.854   4.752
34359W        W 6674  21.700  38.836  12.400
34360W        W 6675   6.779   2.389  11.933
34361W        W 6676  38.899   0.885  14.440
34362W        W 6677  36.532  10.667   3.370
34363W        W 6678  34.448  30.553  13.025
34364W        W 6679  14.120  14.637  13.012
34365W        W 6680  21.658  19.749  13.874
34366W        W 6681  17.141  23.177   4.611
34367W        W 6682  32.424  15.662  14.330
34368W        W 6683  21.031  40.995   4.699
34369W        W 6684  39.537   9.318  14.864
34370W        W 6685  13.255  17.765   3.249
34371W        W 6686  34.494  36.549  12.843
34372W        W 6687  41.358  42.023   1.304
34373W        W 6688  43.469  41.917   2.871
34374W        W 6689   3.319  20.605  10.411
34375W        W 6690  21.187  37.343   4.730
34376W        W 6691  43.001  25.019  10.500
34377W        W 6692  40.840  16.751  13.804
34378W        W 6693  24.225  17.587   0.293
34379W        W 6694  26.619   6.807   1.716
34380W        W 6695  25.655  40.498  12.458
34381W        W 6696   7.719  23.642   0.796
34382W        W 6697  20.076  10.246   5.688
34383W        W 6698  32.470  14.710  13.816
34384W        W 6699  35.002  39.833  13.541
34385W        W 6700  15.107  36.460   2.706
34386W        W 6701  17.154  11.774  12.553
34387W        W 6702   2.285  43.395  14.320
34388W        W 6703  26.606   7.807   1.301
34389W        W 6704  13.755  35.373  13.458
34390W        W 6705   5.306   8.726  12.864
34391W        W 6706  33.518  21.702   3.725
34392W        W 6707  43.983  29.617   4.332
34393W        W 6708   2.361   4.418  10.491
34394W        W 6709   2.389  10.717   4.290
34395W        W 6710  23.093   2.781  12.089
34396W        W 6711  10.699  23.575   0.395
34397W        W 6712  12.659  24.146  13.926
34398W        W 6713  35.416  36.362   3.382
34399W        W 6714  38.883   9.243  14.895
34400W        W 6715  28.668   6.412  13.540
34401W        W 6716   3.342  40.013   2.899
34402W        W 6717  10.707  34.994  13.341
34403W        W 6718  27.138   5.711  11.480
34404W        W 6719  13.666  31.421   4.210
34405W        W 6720   8.355  32.014  10.583
34406W        W 6721  44.376  31.936  10.458
34407W        W 6722  43.803  22.559   0.911
34408W        W 6723  41.365   0.920  12.393
34409W        W 6724  17.560  37.045  12.471
34410W        W 6725  35.860   4.324  11.456
34411W        W 6726  35.999   9.683   3.724
34412W        W 6727  25.093  12.668  11.579
34413W        W 6728  35.905  10.758   4.143
34414W        W 6729  20.268  38.885  10.041
34415W        W 6730  24.582  10.138  10.915
34416W        W 6731  17.699  24.977   1.291
34417W        W 6732  24.198  36.046   0.417
34418W        W 6733  10.634   5.692  13.349
34419W        W 6734  37.403  26.583  12.881
34420W        W 6735  10.298  19.615  13.810
34421W        W 6736  32.963   0.401   0.892
34422W        W 6737   3.863  23.502  12.381
34423W        W 6738  16.237  15.664  10.029
34424W        W 6739  16.279   3.322  11.092
34425W        W 6740  19.119   6.305  12.948
34426W        W 6741  26.976  11.367  13.411
34427W        W 6742  37.365  24.166   3.675
34428W        W 6743  23.105  40.988  12.899
34429W        W 6744   4.890  15.739   1.273
34430W        W 6745   3.746  15.734  10.642
34431W        W 6746  26.963  22.693   3.647
34432W        W 6747   3.856   6.327   2.259
34433W        W 6748  25.478   3.428  11.556
34434W        W 6749  28.129  11.697  14.349
34435W        W 6750  20.628  33.009  14.450
34436W        W 6751  33.943  40.816   3.277
34437W        W 6752  36.449  13.255  11.931
34438W        W 6753  19.689  24.135   3.821
34439W        W 6754   0.319  17.165   3.367
34440W        W 6755   8.260  37.472  12.876
34441W        W 6756  26.036   4.243  14.308
34442W        W 6757  15.133  25.637   4.135
34443W        W 6758  40.876  33.120  14.294
34444W        W 6759  40.826  19.277  12.879
34445W        W 6760  26.022  30.529   3.376
34446W        W 6761   0.256  35.085  10.525
34447W        W 6762  24.161  26.019   0.876
34448W        W 6763  43.875  40.377  10.530
34449W        W 6764   1.329  21.754   4.729
34450W        W 6765  34.056  44.936   3.723
34451W        W 6766  33.503  37.374   4.160
34452W        W 6767  43.341   0.926   0.340
34453W        W 6768   0.483  36.448  13.887
34454W        W 6769  41.893  12.259  14.778
34455W        W 6770  28.967  20.728   0.873
34456W        W 6771   8.333  40.382  12.981
34457W        W 6772  22.745   6.184   2.730
34458W        W 6773  21.187  34.967  13.496
34459W        W 6774   3.262  11.253  14.348
34460W        W 6775   4.900  26.605  11.601
34461W        W 6776  21.080  14.655  12.885
34462W        W 6777  25.004  40.394  11.865
34463W        W 6778  43.361  29.537  13.048
34464W        W 6779  15.256  12.233   4.752
34465W        W 6780  19.278  25.681   4.779
34466W        W 6781   4.762  40.860   3.341
34467W        W 6782   9.723   7.186   2.366
34468W        W 6783  29.041  14.604   0.248
34469W        W 6784  28.051  38.482   2.183
34470W        W 6785  42.790  13.261   0.813
34471W        W 6786  14.285   8.894   4.272
34472W        W 6787  16.295   7.246   3.844
34473W        W 6788   4.736   5.251   4.271
34474W        W 6789  37.882   1.918   2.676
34475W        W 6790   3.338  25.678   2.254
34476W        W 6791   3.783  36.511  11.521
34477W        W 6792   2.359  13.675   0.400
34478W        W 6793  36.996  22.142  11.378
34479W        W 6794  15.620  24.597  11.388
34480W        W 6795   5.826  21.623   0.915
34481W        W 6796  25.989   3.922  13.001
34482W        W 6797  34.490   5.878  12.911
34483W        W 6798  11.749   4.329  13.544
34484W        W 6799  19.559  38.372  14.376
34485W        W 6800  14.600  11.259   0.809
34486W        W 6801  32.981  44.311   3.667
34487W        W 6802  26.148   2.906   3.644
34488W        W 6803  11.150  44.885  13.409
34489W        W 6804  24.644  25.470  12.991
34490W        W 6805  17.596   6.333  12.991
34491W        W 6806  40.529  13.265  12.530
34492W        W 6807   9.300  19.056   2.370
34493W        W 6808  18.682   4.449  13.359
34494W        W 6809  38.964  14.692   1.230
34495W        W 6810   3.921  27.071  14.401
34496W        W 6811   1.436  19.206  11.908
34497W        W 6812  28.507   0.968  14.817
34498W        W 6813  16.215  41.406   4.612
34499W        W 6814  27.482  40.821   4.229
34500W        W 6815  30.112  27.547  13.464
34501W        W 6816  27.692  44.798  12.938
34502W        W 6817  20.655  44.794  12.513
34503W        W 6818  43.806   4.441  11.441
34504W        W 6819   5.738  43.015   3.200
34505W        W 6820  43.367  29.149  12.093
34506W        W 6821  39.469  35.938   3.718
34507W        W 6822  39.825  32.418   2.181
34508W        W 6823  34.370  35.091   1.711
34509W        W 6824  18.711  18.112  14.500
34510W        W 6825  15.156  36.920  10.483
34511W        W 6826  42.946  28.637   1.317
34512W        W 6827  19.737  22.191   4.311
34513W        W 6828  29.543   3.433   0.425
34514W        W 6829  36.981  34.471   1.870
34515W        W 6830  33.117  34.052  14.328
34516W        W 6831   9.868  38.822  12.079
34517W        W 6832  14.698  12.640   4.151
34518W        W 6833   6.801  10.655  13.398
34519W        W 6834  20.074  31.435  10.944
34520W        W 6835  41.944  16.223  12.096
34521W        W 6836  20.760  33.942  14.028
34522W        W 6837  29.620  27.977  11.882
34523W        W 6838  37.915  33.131  10.923
34524W        W 6839  32.927  26.035   3.807
34525W        W 6840  31.627  20.108  12.432
34526W        W 6841  36.913  42.013  11.510
34527W        W 6842  37.952  43.377   4.162
34528W        W 6843   4.397  16.280   4.792
34529W        W 6844   4.344  25.211  14.854
34530W        W 6845  12.342  34.106   2.381
34531W        W 6846  10.347  37.906   1.272
34532W        W 6847  41.894  23.534  14.394
34533W        W 6848  15.187  24.216  14.838
34534W        W 6849  30.934  19.056   0.934
34535W        W 6850  43.385   1.796  11.950
34536W        W 6851   7.873  19.541  14.449
34537W        W 6852  30.498   7.415  13.493
34538W        W 6853  29.006   2.413   0.822
34539W        W 6854  30.526  12.761   2.356
34540W        W 6855  36.075  10.144   4.173
34541W        W 6856  41.517  13.147   4.707
34542W        W 6857  15.108  32.418  11.477
34543W        W 6858  17.561  11.168   1.240
34544W        W 6859  23.552  31.634  11.104
34545W        W 6860  12.230  29.576   1.299
34546W        W 6861  30.427  30.050  12.442
34547W        W 6862  44.433   0.982  10.093
34548W        W 6863  11.837  17.306   3.666
34549W        W 6864  24.035  22.533   3.688
34550W        W 6865  18.749   6.295  12.878
34551W        W 6866  28.040  26.015   4.151
34552W        W 6867   0.481  14.184   0.252
34553W        W 6868  29.044  21.546  12.003
34554W        W 6869   7.331  25.596  10.996
34555W        W 6870  42.436  29.037  13.494
34556W        W 6871  42.834  34.887   5.294
34557W        W 6872  39.921  15.199   4.649
34558W        W 6873   3.273  38.923  14.964
34559W        W 6874  44.388  29.120   4.171
34560W        W 6875  25.110  33.098   3.313
34561W        W 6876  23.543  29.105   0.745
34562W        W 6877  10.740  26.133  12.915
34563W        W 6878  12.834  17.065   2.213
34564W        W 6879  10.685  31.133  14.280
34565W        W 6880  14.326   7.720  14.958
34566W        W 6881  22.591   4.898   3.288
34567W        W 6882   8.242   3.419  10.433
34568W        W 6883   2.389  11.295  13.384
34569W        W 6884  32.450  25.546  13.368
34570W        W 6885  38.390  37.514   2.234
34571W        W 6886   0.881   9.255   2.781
34572W        W 6887  19.740  43.417  14.916
34573W        W 6888  24.976  44.954   2.361
34574W        W 6889   1.928  30.618  14.350
34575W        W 6890  36.476   2.853   3.793
34576W        W 6891  32.941  44.004  13.540
34577W        W 6892  40.954   5.226  13.966
34578W        W 6893  22.998  11.828  14.895
34579W        W 6894  38.053  23.199   1.861
34580W        W 6895  17.695  30.629   2.790
34581W        W 6896  18.655  28.499   2.716
34582W        W 6897  16.792  42.407  12.432
34583W        W 6898  33.610  29.105  10.081
34584W        W 6899   9.345  35.100  12.003
34585W        W 6900  43.462  17.739  12.080
34586W        W 6901  41.865  27.523   0.728
34587W        W 6902  31.032  31.495   2.185
34588W        W 6903  28.625  10.200   3.664
34589W        W 6904  24.626  28.946  12.043
34590W        W 6905  30.910  32.103   0.344
34591W        W 6906  20.644  42.781  10.892
34592W        W 6907  18.078  21.630  11.971
34593W        W 6908  40.512  13.606  11.856
34594W        W 6909  22.092   5.245  13.348
34595W        W 6910   8.249  13.220  10.501
34596W        W 6911  34.538  18.057  14.855
34597W        W 6912  25.529   6.918   1.352
34598W        W 6913  27.593  35.464   3.642
34599W        W 6914  22.517  24.640  13.051
34600W        W 6915  18.769   7.848   2.841
34601W        W 6916  38.996   7.741   4.640
34602W        W 6917  36.929  22.191   4.247
34603W        W 6918  37.526   4.422   1.760
34604W        W 6919  36.447  19.247   3.327
34605W        W 6920  12.799   9.261   0.454
34606W        W 6921  22.608  41.302   0.953
34607W        W 6922   5.709  40.946  12.874
34608W        W 6923  43.902   7.794  13.351
34609W        W 6924   6.827  30.039  12.958
34610W        W 6925  32.499  28.114   1.240
34611W        W 6926  20.110  34.502   1.301
34612W        W 6927  22.574  38.470   0.831
34613W        W 6928  12.268   6.230  13.852
34614W        W 6929  27.639  42.797  14.806
34615W        W 6930  32.622  35.928  13.525
34616W        W 6931  19.103  36.368  10.484
34617W        W 6932  25.653  14.293   0.443
34618W        W 6933  41.427  35.873  11.051
34619W        W 6934  16.691  22.207   2.217
34620W        W 6935  14.752   5.209   4.720
34621W        W 6936  10.715  15.137  11.018
34622W        W 6937   6.693  14.218  10.477
34623W        W 6938  30.507  23.170  13.029
34624W        W 6939  21.544  41.971   4.606
34625W        W 6940  24.572  11.299   2.224
34626W        W 6941   1.821  41.467   1.694
34627W        W 6942  35.391  13.667  10.642
34628W        W 6943  24.661  22.137   3.784
34629W        W 6944  19.576  31.911  14.004
34630W        W 6945  37.391  32.394  12.390
34631W        W 6946  12.285  44.915  14.817
34632W        W 6947   6.852  26.646  11.111
34633W        W 6948   5.794  43.428   1.407
34634W        W 6949  17.660  30.456  14.030
34635W        W 6950  28.480  17.559   0.865
34636W        W 6951  28.173  39.842   3.349
34637W        W 6952  25.692  43.943   2.665
34638W        W 6953   3.913  44.296  10.642
34639W        W 6954  43.323  13.144   3.279
34640W        W 6955  23.142  37.939  11.913
34641W        W 6956  40.316  28.146   4.202
34642W        W 6957   8.722  28.127  13.325
34643W        W 6958   1.770   4.250  12.402
34644W        W 6959  26.970  21.712  14.817
34645W        W 6960  22.596  37.934   0.890
34646W        W 6961  11.744  44.926  13.988
34647W        W 6962  11.645  29.108   0.348
34648W        W 6963  14.207  10.147  14.868
34649W        W 6964  31.136  29.935  13.820
34650W        W 6965  13.839  38.856   4.182
34651W        W 6966   0.329  31.004   1.269
34652W        W 6967   8.276  19.087   3.844
34653W        W 6968  22.136  25.517   4.813
34654W        W 6969  35.382  25.048   1.797
34655W        W 6970  44.411  12.811  10.543
34656W        W 6971  14.715  40.937  10.981
34657W        W 6972  40.882  34.544  11.058
34658W        W 6973   2.806   7.690   1.817
34659W        W 6974  28.611   9.753  13.367
34660W        W 6975  14.184  36.506  10.599
34661W        W 6976  43.334  29.632  13.810
34662W        W 6977  21.565  10.263   0.762
34663W        W 6978  41.823  25.622  14.371
34664W        W 6979  42.949  39.009   4.757
34665W        W 6980   9.716  29.952   3.162
34666W        W 6981  12.729   3.854   2.829
34667W        W 6982  29.473   6.224   1.861
34668W        W 6983  38.935   8.677   1.820
34669W        W 6984  19.060  19.182   1.858
34670W        W 6985  34.018   7.690  10.905
34671W        W 6986   3.257  27.186  14.884
34672W        W 6987   9.156   9.247   2.874
34673W        W 6988   6.805  26.176   3.816
34674W        W 6989  36.504   4.847  12.844
34675W        W 6990  22.048  10.671   0.352
34676W        W 6991  32.462  20.563  12.370
34677W        W 6992   7.209  14.722   0.390
34678W        W 6993   9.389  29.132   2.710
34679W        W 6994  40.468  10.313   9.956
34680W        W 6995   5.414  26.666  13.506
34681W        W 6996  21.731   7.729  13.828
34682W        W 6997  38.501  41.531  12.354
34683W        W 6998  19.717  36.526   3.678
34684W        W 6999  24.209  36.938   1.843
34685W        W 7000   6.335  34.594   3.279
34686W        W 7001  14.769  33.889  13.340
34687W        W 7002  41.386  20.664  10.406
34688W        W 7003  20.173  35.084  14.501
34689W        W 7004  29.141  40.315  14.443
34690W        W 7005   7.292  10.767   3.172
34691W        W 7006  34.494   0.278   4.314
34692W        W 7007  11.625   9.170  13.372
34693W        W 7008  35.531   3.840  11.858
34694W        W 7009  41.910  32.973   2.821
34695W        W 7010   1.370  27.575   3.640
34696W        W 7011  19.162  26.471  13.366
34697W        W 7012  10.172   0.374   3.295
34698W        W 7013  30.930  44.272   5.249
34699W        W 7014  28.980  25.495  11.901
34700W        W 7015  33.968  21.671  11.506
34701W        W 7016  28.663  32.426   0.329
34702W        W 7017  28.462  42.846  11.505
34703W        W 7018  18.583  30.614   0.358
34704W        W 7019  29.988  25.204   4.228
34705W        W 7020   6.356  26.955   4.175
34706W        W 7021  44.456  37.346   4.230
34707W        W 7022  20.658  11.307  13.954
34708W        W 7023  41.909  28.681   4.645
34709W        W 7024   0.775   2.377  10.560
34710W        W 7025  29.067  26.980   1.211
34711W        W 7026  17.112  15.798  11.496
34712W        W 7027  25.140   7.275  13.422
34713W        W 7028  32.549   2.875   1.781
34714W        W 7029  22.240  13.644  13.443
34715W        W 7030  34.465  13.224  14.364
34716W        W 7031   2.914  35.875  14.424
34717W        W 7032  24.662  11.759   1.225
34718W        W 7033  38.038  43.903  13.524
34719W        W 7034  13.603   4.320  12.042
34720W        W 7035  44.910  40.317  14.832
34721W        W 7036  23.177   7.244   3.771
34722W        W 7037  26.640  23.546   2.408
34723W        W 7038  34.540   9.777  13.841
34724W        W 7039  17.182  24.203  12.466
34725W        W 7040  23.685  19.285   2.677
34726W        W 7041  14.260  13.109   3.725
34727W        W 7042  26.986  25.158   4.321
34728W        W 7043  34.439  30.415  11.935
34729W        W 7044  11.260  15.733   0.799
34730W        W 7045   1.310  35.055   5.214
34731W        W 7046  18.266  29.633  14.833
34732W        W 7047   9.234  11.782  10.585
34733W        W 7048  44.333  13.185  10.930
34734W        W 7049  31.577  26.577   3.340
34735W        W 7050  10.862   3.382   1.414
34736W        W 7051  29.509  26.008  12.449
34737W        W 7052  11.865  36.990  11.453
34738W        W 7053  17.697  43.418   4.686
34739W        W 7054  39.974  29.538  11.560
34740W        W 7055   2.272   3.881  13.543
34741W        W 7056   7.216  26.601   2.672
34742W        W 7057   0.271  30.467   4.682
34743W        W 7058  10.730  29.018  11.005
34744W        W 7059  31.060   8.690   1.381
34745W        W 7060  42.885  19.778  10.975
34746W        W 7061  16.151  27.553   1.877
34747W        W 7062  23.133   7.183   4.741
34748W        W 7063  22.514  22.104   2.698
34749W        W 7064   1.434   0.254  14.515
34750W        W 7065  14.633  24.089  12.936
34751W        W 7066   4.878  23.633  11.909
34752W        W 7067   0.449   5.784  13.439
34753W        W 7068  12.291  21.168   3.754
34754W        W 7069   6.755   1.753  12.549
34755W        W 7070  44.781  26.472   2.376
34756W        W 7071   5.215  16.715   3.650
34757W        W 7072  29.607  20.215   3.792
34758W        W 7073   8.318  27.680  12.038
34759W        W 7074  30.981  11.290   4.190
34760W        W 7075  40.549  31.917  13.518
34761W        W 7076   8.232  13.743   1.888
34762W        W 7077  25.184   3.246  11.085
34763W        W 7078   2.293  12.138   2.334
34764W        W 7079  38.508   9.871  10.450
34765W        W 7080  11.286   5.308  12.021
34766W        W 7081  21.180   9.332   4.216
34767W        W 7082  11.688  11.756  10.914
34768W        W 7083  42.903   6.765   0.376
34769W        W 7084  20.184  32.393  14.338
34770W        W 7085  17.666  29.484  14.279
34771W        W 7086   3.782  24.664  10.956
34772W        W 7087   7.750  25.683  12.442
34773W        W 7088  33.902  31.097   2.299
34774W        W 7089  31.419   8.792   3.838
34775W        W 7090  16.777  38.941  11.062
34776W        W 7091  40.044  10.325  10.525
34777W        W 7092  15.315  10.683   3.633
34778W        W 7093  34.393  44.951  14.837
34779W        W 7094  29.441  26.964  12.534
34780W        W 7095   3.242  15.793   1.744
34781W        W 7096  44.484  36.513  12.497
34782W        W 7097   1.444  24.210  10.578
34783W        W 7098  22.218  22.732  14.763
34784W        W 7099  12.856   6.242  12.532
34785W        W 7100  16.611   4.876   2.860
34786W        W 7101  34.065  38.931   1.309
34787W        W 7102  18.116  29.961  11.439
34788W        W 7103   6.426  39.339   3.243
34789W        W 7104  41.002  44.903  11.573
34790W        W 7105  26.193   0.331   3.661
34791W        W 7106   3.729  34.037   3.845
34792W        W 7107   7.241  22.642   2.372
34793W        W 7108  22.202  40.977  14.498
34794W        W 7109   8.867  23.641  12.525
34795W        W 7110  23.213  26.106  12.985
34796W        W 7111  39.451  23.219   5.224
34797W        W 7112   2.452  30.947   4.305
34798W        W 7113  38.436  22.032  14.810
34799W        W 7114  29.593  44.452   1.906
34800W        W 7115   6.907  13.662   2.186
34801W        W 7116  36.515  43.861   4.230
34802W        W 7117  38.545  33.592   2.802
34803W        W 7118  31.960  39.426   1.433
34804W        W 7119  43.853  33.409   3.692
34805W        W 7120  34.486  18.652   0.861
34806W        W 7121  29.615  19.682  10.568
34807W        W 7122  23.568  12.763   4.235
34808W        W 7123  35.530  32.426  10.547
34809W        W 7124  36.378  18.099   2.376
34810W        W 7125  40.018  44.356   1.333
34811W        W 7126  15.225  41.026  10.509
34812W        W 7127  20.608  11.646   3.332
34813W        W 7128  41.879  35.905   3.700
34814W        W 7129   1.412  43.378   4.347
34815W        W 7130  43.275  43.347  14.971
34816W        W 7131  28.504  41.954  11.380
34817W        W 7132  32.502  21.166  13.506
34818W        W 7133  33.447  19.601  14.810
34819W        W 7134   8.834  12.192   3.633
34820W        W 7135  34.090  28.583   3.646
34821W        W 7136  14.226  40.867  12.045
34822W        W 7137  16.205  29.073   1.805
34823W        W 7138   3.720   1.326  10.934
34824W        W 7139  33.503  40.827   1.862
34825W        W 7140   0.298  31.050  14.436
34826W        W 7141  40.022  13.115   2.899
34827W        W 7142  10.797  40.820  10.543
34828W        W 7143  40.912  26.177   9.555
34829W        W 7144  22.157   3.384  15.000
34830W        W 7145   9.394  32.056   2.201
34831W        W 7146  40.506  17.802  13.379
34832W        W 7147  11.128  24.128  11.915
34833W        W 7148  44.922  11.347  12.962
34834W        W 7149  30.116  34.077   4.141
34835W        W 7150  29.978   2.896  14.281
34836W        W 7151   6.191  38.525  12.437
34837W        W 7152  29.161  20.699   4.656
34838W        W 7153   6.768  22.029   4.238
34839W        W 7154  23.027  15.629   0.278
34840W        W 7155  27.021  44.838   3.207
34841W        W 7156   5.722  22.075   1.819
34842W        W 7157   3.765  43.905   2.392
34843W        W 7158  24.977  32.423  13.318
34844W        W 7159  10.275  17.124  12.009
34845W        W 7160  43.306  23.585   4.759
34846W        W 7161  28.963   3.887   1.426
34847W        W 7162  42.380   7.677   2.227
34848W        W 7163  31.418  26.194   2.774
34849W        W 7164  32.407  39.355   4.320
34850W        W 7165  40.336  38.926  10.114
34851W        W 7166  27.940  10.642   1.435
34852W        W 7167  25.472  27.946  11.472
34853W        W 7168  29.598   4.712  14.786
34854W        W 7169   7.267  28.577   1.328
34855W        W 7170  42.447   4.761   2.682
34856W        W 7171  33.615   3.332   4.619
34857W        W 7172   5.256   2.884   4.725
34858W        W 7173  42.348  33.583   4.836
34859W        W 7174   5.864   2.814  10.891
34860W        W 7175  27.488   2.226  11.607
34861W        W 7176  30.147  35.967  11.426
34862W        W 7177  28.140  29.564  14.463
34863W        W 7178  28.558   5.210   1.822
34864W        W 7179  41.501  17.802  11.936
34865W        W 7180  13.265  44.470  10.490
34866W        W 7181  10.829  33.606   4.189
34867W        W 7182  43.772  11.183   4.217
34868W        W 7183   7.832  22.567   4.615
34869W        W 7184  26.620  35.884  11.902
34870W        W 7185  27.565  37.041   1.846
34871W        W 7186  11.809  40.520  10.972
34872W        W 7187  24.026  35.941   3.786
34873W        W 7188  44.409  23.614   4.145
34874W        W 7189  22.663  26.638   2.418
34875W        W 7190  27.973  14.248   2.843
34876W        W 7191  26.468  42.433   1.886
34877W        W 7192  23.511  26.518   4.600
34878W        W 7193  33.400  22.102  13.424
34879W        W 7194   6.709  39.536  10.504
34880W        W 7195  15.596  30.022   0.919
34881W        W 7196  29.022  35.568   2.350
34882W        W 7197  44.808  29.523  10.943
34883W        W 7198  24.200   3.798   4.802
34884W        W 7199  40.423  15.183   3.768
34885W        W 7200   8.773  12.215   3.270
34886W        W 7201  41.396  37.947  13.321
34887W        W 7202   5.424  37.941   0.340
34888W        W 7203  32.473  36.032   0.318
34889W        W 7204  22.546   4.782   2.239
34890W        W 7205  16.789  28.565   3.758
34891W        W 7206   2.906   6.349  11.883
34892W        W 7207   5.374  18.713   4.779
34893W        W 7208  32.901  22.208  10.459
34894W        W 7209   2.326   0.972   0.342
34895W        W 7210  39.958  42.394  13.532
34896W        W 7211  33.442  24.604   3.252
34897W        W 7212  35.996  44.789  10.990
34898W        W 7213  14.624  15.099   0.797
34899W        W 7214  25.012  17.796  11.437
34900W        W 7215  18.562  27.967  11.082
34901W        W 7216  25.054  31.647  12.933
34902W        W 7217  31.527  27.677   1.911
34903W        W 7218  44.759  28.946  12.068
34904W        W 7219   9.717   7.815  14.000
34905W        W 7220  19.056  18.180  14.340
34906W        W 7221  33.443   2.956   1.264
34907W        W 7222  32.453   7.244  11.610
34908W        W 7223  17.606   1.893  11.867
34909W        W 7224  17.287  40.390  10.087
34910W        W 7225  14.279  13.197   4.681
34911W        W 7226  14.644  36.844   3.733
34912W        W 7227   1.360  42.000   1.413
34913W        W 7228  44.449  11.710   4.174
34914W        W 7229  34.502   0.806  14.368
34915W        W 7230  16.318   9.774   1.924
34916W        W 7231  18.289  39.869   3.761
34917W        W 7232  38.569   6.184   4.823
34918W        W 7233  21.686  12.718   3.318
34919W        W 7234  16.151  27.979   5.679
34920W        W 7235  29.964   9.673  10.415
34921W        W 7236  39.012  28.067   4.744
34922W        W 7237  27.607  38.823  14.931
34923W        W 7238  14.629  32.049  12.468
34924W        W 7239  38.425  11.836  12.949
34925W        W 7240  31.950  40.462   4.307
34926W        W 7241  17.085  25.072  13.407
34927W        W 7242  39.370  42.466   2.849
34928W        W 7243  22.158  37.022   0.942
34929W        W 7244  30.414   2.408   0.265
34930W        W 7245  38.857  32.446  11.475
34931W        W 7246   0.833   8.884   2.311
34932W        W 7247   5.880   9.260   1.862
34933W        W 7248  20.758  13.693   3.654
34934W        W 7249  27.598  34.582  10.038
34935W        W 7250  37.411   6.396   1.872
34936W        W 7251   2.296  10.681   1.410
34937W        W 7252   9.306  25.129  10.055
34938W        W 7253  11.359  16.661  10.896
34939W        W 7254   8.204   1.790   4.726
34940W        W 7255  30.486  41.410  13.928
34941W        W 7256  28.986  38.943  13.944
34942W        W 7257  44.990   5.794   4.165
34943W        W 7258  37.053  23.073   3.275
34944W        W 7259  16.660   9.184   3.777
34945W        W 7260  34.533  26.956  11.469
34946W        W 7261  29.098  15.244   3.744
34947W        W 7262  41.995   8.210  14.965
34948W        W 7263   4.921  24.666   0.282
34949W        W 7264   7.900  23.119  13.949
34950W        W 7265  36.003  13.640   4.182
34951W        W 7266  37.512   9.245   4.348
34952W        W 7267  39.834  23.566   4.835
34953W        W 7268  34.406  25.498   3.640
34954W        W 7269  32.934  34.997   1.395
34955W        W 7270  44.369  14.671  13.437
34956W        W 7271  26.579   1.358  12.991
34957W        W 7272  33.991   7.711   4.636
34958W        W 7273  44.314   7.307  10.469
34959W        W 7274  10.833  43.369  11.953
34960W        W 7275  44.840  32.969   3.192
34961W        W 7276  15.266   6.695  10.890
34962W        W 7277  24.041  12.146   0.455
34963W        W 7278  27.063  31.511   3.333
34964W        W 7279   0.364  12.694   3.184
34965W        W 7280  22.508  35.466   1.318
34966W        W 7281  11.819  44.941   1.747
34967W        W 7282   4.430  11.345   4.780
34968W        W 7283   4.239  10.763   0.758
34969W        W 7284  20.273  25.050   1.866
34970W        W 7285  39.920  19.256   3.208
34971W        W 7286  27.634  30.590   0.336
34972W        W 7287  18.217   3.719   0.339
34973W        W 7288  19.775  38.507   5.116
34974W        W 7289  29.455  35.068   1.726
34975W        W 7290  14.608  11.652  14.469
34976W        W 7291  36.527  19.607   3.282
34977W        W 7292  15.260  40.801  14.994
34978W        W 7293  22.101  10.209   1.700
34979W        W 7294  18.789  28.502   2.313
34980W        W 7295  16.659  44.911  13.320
34981W        W 7296   5.840   5.827  11.995
34982W        W 7297   9.349  18.228  12.536
34983W        W 7298  13.627  43.019  12.851
34984W        W 7299   1.245   4.762   3.761
34985W        W 7300  10.281  37.463   4.692
34986W        W 7301   0.756  34.086   1.270
34987W        W 7302  33.027  27.606   3.357
34988W        W 7303   4.437  13.601   2.356
34989W        W 7304  42.296  22.703   4.814
34990W        W 7305   8.824   8.241  14.300
34991W        W 7306  34.093  11.862   4.161
34992W        W 7307  17.205   8.712  13.900
34993W        W 7308   4.314  42.419   1.304
34994W        W 7309  15.749  23.204  13.460
34995W        W 7310  11.811  26.599  13.948
34996W        W 7311  10.727  14.688  12.533
34997W        W 7312   0.258  14.306   1.835
34998W        W 7313  36.405  16.757   4.742
34999W        W 7314  16.681  32.028   0.920
35000W        W 7315  44.841  35.949   1.322
35001W        W 7316  30.573  23.553   2.199
35002W        W 7317  14.813  14.781   1.421
35003W        W 7318  24.502  12.194   0.344
35004W        W 7319  35.969  36.891  14.483
35005W        W 7320  41.995  17.066  10.431
35006W        W 7321  15.773  18.578   4.837
35007W        W 7322  29.938  27.483   2.409
35008W        W 7323   7.874  10.372   3.369
35009W        W 7324   3.324  15.292  13.039
35010W        W 7325  19.218  42.816  11.581
35011W        W 7326  22.617  43.988   0.791
35012W        W 7327  25.534   4.718  12.555
35013W        W 7328  44.404  16.663   4.160
35014W        W 7329  27.561  17.643  14.292
35015W        W 7330  39.496  33.877  13.941
35016W        W 7331  20.567  31.984  14.363
35017W        W 7332  32.482  39.969  12.424
35018W        W 7333  29.152  28.941   1.889
35019W        W 7334  40.547  37.074  14.318
35020W        W 7335   1.313   0.263  12.351
35021W        W 7336  15.816  43.885   3.827
35022W        W 7337  26.570  43.929  14.514
35023W        W 7338  42.912  11.185  11.971
35024W        W 7339  31.075  43.974  11.472
35025W        W 7340   4.740  29.519   1.721
35026W        W 7341  37.927  33.614  13.548
35027W        W 7342  34.928   3.339  10.896
35028W        W 7343  38.038  12.338  10.420
35029W        W 7344  38.326  36.429   1.231
35030W        W 7345  10.819  36.362  13.864
35031W        W 7346  38.846  25.029   2.819
35032W        W 7347  25.560  27.629   4.313
35033W        W 7348  31.415  13.659   0.744
35034W        W 7349  20.602  24.206  14.772
35035W        W 7350  25.019  40.908  11.424
35036W        W 7351  24.578  10.868  13.324
35037W        W 7352   2.821   8.221   0.363
35038W        W 7353   3.886  31.645   2.757
35039W        W 7354  36.583  29.641   1.280
35040W        W 7355  19.542  11.265  11.032
35041W        W 7356  31.011  13.815  14.931
35042W        W 7357  40.986   9.394  14.481
35043W        W 7358  23.205   0.810  13.454
35044W        W 7359   6.804   9.173  14.513
35045W        W 7360   9.374  39.898   0.739
35046W        W 7361  29.138  10.679   3.315
35047W        W 7362  14.827   1.894  13.440
35048W        W 7363  23.665  17.290  12.836
35049W        W 7364  35.951  31.482  12.053
35050W        W 7365  39.318  27.027  14.995
35051W        W 7366  43.444   1.732   2.816
35052W        W 7367  23.063   2.865  11.538
35053W        W 7368  19.068  43.284  12.356
35054W        W 7369   3.750  41.443   0.271
35055W        W 7370  37.852  18.772  11.486
35056W        W 7371   1.790  18.562   1.356
35057W        W 7372  10.878  23.184  14.801
35058W        W 7373  23.529  24.523  12.056
35059W        W 7374  27.996  27.526  10.935
35060W        W 7375   7.793   8.695  10.605
35061W        W 7376  18.780  17.618   4.609
35062W        W 7377  14.825  13.174  13.026
35063W        W 7378   4.402   7.741   3.782
35064W        W 7379  21.109   2.784   4.329
35065W        W 7380  37.369  21.106   1.758
35066W        W 7381  15.703  23.133  12.452
35067W        W 7382  13.266  32.963  13.948
35068W        W 7383  42.352  28.454   4.271
35069W        W 7384   3.841  17.686  10.520
35070W        W 7385  17.089  16.257  11.975
35071W        W 7386  30.999  31.021  11.085
35072W        W 7387  29.537   8.760  11.948
35073W        W 7388  40.008  33.398  11.090
35074W        W 7389  22.680  33.592   0.463
35075W        W 7390  24.061  24.982   0.869
35076W        W 7391  14.340  14.330   1.758
35077W        W 7392  40.949   6.290   0.777
35078W        W 7393  33.618  26.114  13.035
35079W        W 7394   5.408  13.715   3.377
35080W        W 7395  10.632  44.276   2.738
35081W        W 7396   1.743  34.574  10.939
35082W        W 7397  23.528  18.289  14.015
35083W        W 7398  15.621  43.451   0.368
35084W        W 7399  24.084  41.420  13.471
35085W        W 7400   5.791   9.391   3.317
35086W        W 7401  32.900  11.324  12.538
35087W        W 7402  15.814   1.418   1.709
35088W        W 7403  23.673  32.975  11.072
35089W        W 7404  10.342  20.713   4.210
35090W        W 7405  18.171   0.895  13.851
35091W        W 7406  42.481  22.683  13.868
35092W        W 7407  31.043   8.402   3.152
35093W        W 7408  41.797   5.879   3.737
35094W        W 7409  40.876   3.317  14.815
35095W        W 7410  17.273  20.578  14.308
35096W        W 7411  40.899  32.472  14.319
35097W        W 7412  24.645  38.345   2.321
35098W        W 7413  23.557  30.473  14.354
35099W        W 7414   0.395  39.475  11.413
35100W        W 7415   0.327  25.216  14.994
35101W        W 7416  44.454  30.139  12.870
35102W        W 7417  34.114  41.941  12.411
35103W        W 7418  13.308   0.895   2.410
35104W        W 7419  43.512   5.342  10.456
35105W        W 7420  19.099  10.146   5.136
35106W        W 7421  22.727  41.859  14.835
35107W        W 7422   3.714  30.542   4.762
35108W        W 7423  22.137  24.501  14.958
35109W        W 7424   6.828   9.805  14.324
35110W        W 7425  32.463  24.589  10.986
35111W        W 7426   2.240  36.592   1.420
35112W        W 7427  20.130  22.549   4.284
35113W        W 7428  17.685   4.349  11.526
35114W        W 7429   3.843  13.109   3.825
35115W        W 7430  12.827  37.457  11.920
35116W        W 7431  14.127  12.116  13.358
35117W        W 7432  40.539  11.735  12.923
35118W        W 7433   2.269  18.590   0.468
35119W        W 7434   0.812  39.557   0.244
35120W        W 7435  36.022  30.519   2.282
35121W        W 7436  34.456  23.511  11.393
35122W        W 7437   9.878  35.506  14.478
35123W        W 7438   4.295  24.556   2.338
35124W        W 7439  27.068  36.026   0.421
35125W        W 7440  33.063  35.109   0.362
35126W        W 7441  40.435  10.220  13.326
35127W        W 7442  21.693  30.590   1.235
35128W        W 7443   2.256  40.381   4.756
35129W        W 7444   3.753  38.939  10.146
35130W        W 7445   9.308   7.355  14.478
35131W        W 7446  11.185  23.614  12.881
35132W        W 7447  10.667  10.150   3.643
35133W        W 7448   8.834   8.256  14.024
35134W        W 7449  14.690  37.873   4.774
35135W        W 7450  24.684  24.056   4.194
35136W        W 7451  37.491  11.793   1.877
35137W        W 7452  27.084  43.973   1.259
35138W        W 7453   5.718  24.140   1.790
35139W        W 7454  44.486  30.422  10.013
35140W        W 7455  44.318  31.477  14.323
35141W        W 7456  22.213   3.863   2.829
35142W        W 7457  39.838  43.866   1.878
35143W        W 7458  44.786  19.561  14.887
35144W        W 7459  29.001   5.214   0.769
35145W        W 7460  29.004  29.117   0.406
35146W        W 7461   7.752  36.057  12.366
35147W        W 7462  21.201  24.519  12.945
35148W        W 7463  40.047  21.035   4.170
35149W        W 7464  33.996  25.494  10.538
35150W        W 7465  42.789  29.471   2.780
35151W        W 7466   9.393  11.691   3.835
35152W        W 7467  12.300  20.655  10.631
35153W        W 7468  44.320  13.607   2.705
35154W        W 7469  42.443  23.001  12.569
35155W        W 7470  36.451   6.247   0.369
35156W        W 7471  32.050  14.785  14.406
35157W        W 7472  23.540  40.026   4.159
35158W        W 7473  38.536  30.944  14.950
35159W        W 7474   1.413  32.988   3.366
35160W        W 7475  29.944  24.523   0.846
35161W        W 7476  14.612  20.092   2.745
35162W        W 7477  17.726  12.704   0.344
35163W        W 7478  31.487  33.440   1.421
35164W        W 7479  39.919  19.166   1.694
35165W        W 7480  40.011  39.525   1.347
35166W        W 7481  40.035   5.222  12.965
35167W        W 7482   7.744   7.195   0.429
35168W        W 7483  43.297  24.621  12.971
35169W        W 7484  41.538  24.621   0.389
35170W        W 7485  34.455  13.790   2.261
35171W        W 7486   8.842  14.118  10.542
35172W        W 7487  19.629  31.605  11.508
35173W        W 7488  23.063   7.678  10.580
35174W        W 7489  37.342  32.567  12.977
35175W        W 7490  40.469   2.361  10.579
35176W        W 7491  27.133  27.460  14.959
35177W        W 7492   6.752   6.853  11.063
35178W        W 7493  34.425  18.550  11.954
35179W        W 7494  40.950  18.690   1.304
35180W        W 7495  44.945  35.602  13.987
35181W        W 7496  12.660  44.928  12.575
35182W        W 7497   8.244  20.105  14.303
35183W        W 7498  26.051  41.501  13.357
35184W        W 7499  27.537  17.061   3.768
35185W        W 7500   5.829  31.126  14.928
35186W        W 7501  15.226  16.611  13.059
35187W        W 7502   6.704  15.581  11.423
35188W        W 7503  42.309  41.903  13.881
35189W        W 7504  24.208  25.086   2.344
35190W        W 7505  15.607  43.488   4.341
35191W        W 7506   9.867   1.898  13.832
35192W        W 7507   7.192  36.912   2.346
35193W        W 7508  34.482   8.858   2.779
35194W        W 7509  19.574  26.104  13.429
35195W        W 7510  16.616  17.663  11.397
35196W        W 7511   0.453  38.871  14.492
35197W        W 7512  21.199  37.406  13.841
35198W        W 7513  31.135   7.300  10.928
35199W        W 7514   6.374  35.390   2.864
35200W        W 7515  14.742   0.466   0.903
35201W        W 7516  17.666  35.949  11.488
35202W        W 7517   1.419  11.750   9.529
35203W        W 7518  14.142  27.022   4.814
35204W        W 7519  29.435  27.560   3.292
35205W        W 7520   4.304  24.638   1.778
35206W        W 7521  34.459  18.760   3.759
35207W        W 7522  11.825  23.554   5.094
35208W        W 7523  21.591  43.811  12.878
35209W        W 7524  12.713  37.084  12.048
35210W        W 7525   5.294  43.825  10.540
35211W        W 7526  25.515  42.479   0.448
35212W        W 7527   1.278   5.742  14.355
35213W        W 7528  36.409  22.718  12.884
35214W        W 7529   4.933  36.416  12.538
35215W        W 7530  23.546   0.972   3.845
35216W        W 7531  17.130  31.927   4.712
35217W        W 7532  19.633   7.387   3.728
35218W        W 7533  13.280  14.298   0.370
35219W        W 7534  32.459  33.114  10.519
35220W        W 7535   8.779  37.368  11.105
35221W        W 7536   9.222  39.904  10.605
35222W        W 7537  13.811  17.280  14.899
35223W        W 7538  23.061  40.341   4.299
35224W        W 7539   1.315   0.791  10.575
35225W        W 7540   0.297  26.110  11.536
35226W        W 7541  44.818   0.360   1.396
35227W        W 7542  29.644  26.153  13.399
35228W        W 7543  11.332  17.665   3.228
35229W        W 7544  34.935  26.615  13.943
35230W        W 7545  16.073  27.485  12.449
35231W        W 7546   2.854   7.678   0.290
35232W        W 7547  35.919  40.480  10.616
35233W        W 7548  23.529  44.446   4.220
35234W        W 7549  10.759   9.813  13.333
35235W        W 7550  16.780  35.872  14.512
35236W        W 7551   8.707  26.538  13.438
35237W        W 7552   5.786  42.303   1.694
35238W        W 7553  15.686  25.492   2.337
35239W        W 7554   2.447  21.200  12.993
35240W        W 7555  34.979  12.340  13.030
35241W        W 7556  28.940  12.216  11.512
35242W        W 7557  43.391  19.594  12.977
35243W        W 7558  16.668  17.111   1.748
35244W        W 7559  30.584  15.088   1.816
35245W        W 7560  13.138  43.975   1.729
35246W        W 7561  34.393  25.634   0.778
35247W        W 7562  41.325  25.148   4.676
35248W        W 7563  36.575  23.121  11.559
35249W        W 7564  41.031  19.714   3.656
35250W        W 7565  37.054   7.172  11.526
35251W        W 7566  19.156   2.926   0.426
35252W        W 7567  18.617   5.379   0.269
35253W        W 7568  20.677  25.477   1.268
35254W        W 7569  32.108  30.999  14.289
35255W        W 7570  37.501   8.266  11.540
35256W        W 7571   2.391   5.297   2.245
35257W        W 7572   0.902  14.299  14.885
35258W        W 7573  14.667  22.171   4.661
35259W        W 7574  28.533  44.758   1.376
35260W        W 7575   0.964   4.855   1.696
35261W        W 7576  38.376  24.193   0.248
35262W        W 7577  33.012   6.689  14.786
35263W        W 7578   8.708  12.183  11.959
35264W        W 7579  26.512   9.385  10.405
35265W        W 7580  38.997  22.109   3.802
35266W        W 7581  43.834  37.336  12.472
35267W        W 7582  27.472  23.063   4.719
35268W        W 7583  36.890  26.608   4.747
35269W        W 7584  13.731  39.944   1.842
35270W        W 7585  13.837  13.124  11.538
35271W        W 7586  27.942  15.772   4.342
35272W        W 7587  29.557  44.768  13.871
35273W        W 7588  32.892   1.355   3.660
35274W        W 7589  23.049  30.953  13.540
35275W        W 7590  11.832  18.105  10.889
35276W        W 7591  43.843   2.791  10.500
35277W        W 7592   7.257  10.307   2.680
35278W        W 7593   7.673  11.275  12.042
35279W        W 7594   6.845  22.038  14.396
35280W        W 7595  23.649  32.036   1.379
35281W        W 7596  28.635  28.967   0.837
35282W        W 7597  12.787  35.576   4.639
35283W        W 7598  14.311  22.135  13.979
35284W        W 7599   8.390   0.373  10.913
35285W        W 7600  21.231  33.933  12.544
35286W        W 7601  38.384   6.290   2.281
35287W        W 7602   0.881  21.567   2.828
35288W        W 7603  14.733  14.807   0.394
35289W        W 7604  18.192   5.369  13.416
35290W        W 7605   1.480   8.187   3.756
35291W        W 7606  39.381  40.541   4.754
35292W        W 7607  28.031  15.293   4.781
35293W        W 7608  44.481  25.025  10.526
35294W        W 7609  25.115  41.402  12.514
35295W        W 7610  28.179   8.693  14.276
35296W        W 7611  25.115  23.596  11.550
35297W        W 7612  24.623   1.768  10.502
35298W        W 7613  14.299  18.281   0.345
35299W        W 7614  40.805  40.843   2.317
35300W        W 7615  30.942  17.284   0.855
35301W        W 7616  10.236  34.377   0.358
35302W        W 7617  29.103  22.648  12.838
35303W        W 7618  12.299   2.950  11.985
35304W        W 7619   9.658   5.249  10.529
35305W        W 7620  21.050  37.539  10.093
35306W        W 7621  30.539  12.831  14.979
35307W        W 7622  33.123   8.193   2.746
35308W        W 7623  35.933  12.324  13.896
35309W        W 7624  17.306  28.485  13.444
35310W        W 7625  11.808  41.524   3.199
35311W        W 7626  16.298  33.618  12.561
35312W        W 7627  14.205  17.261   3.198
35313W        W 7628  18.639   4.929   5.152
35314W        W 7629  33.495  15.600   2.260
35315W        W 7630  11.335  18.767   4.125
35316W        W 7631  35.894  19.148  13.436
35317W        W 7632  11.865  27.175   0.830
35318W        W 7633  36.092  24.550   3.269
35319W        W 7634  12.126   7.765  12.378
35320W        W 7635   3.311  35.509  10.559
35321W        W 7636   6.700  31.071   4.615
35322W        W 7637  44.862  28.634   3.189
35323W        W 7638  15.285  44.941  11.582
35324W        W 7639  44.835  23.004   4.768
35325W        W 7640  23.735   9.393  11.422
35326W        W 7641   6.357  24.673   2.185
35327W        W 7642  37.337  14.129  12.830
35328W        W 7643  12.802  40.850   3.195
35329W        W 7644  31.113  33.411  11.392
35330W        W 7645  44.458  38.029   2.666
35331W        W 7646  29.161  38.008  14.432
35332W        W 7647  43.513  11.238  12.837
35333W        W 7648  43.936   1.798   4.775
35334W        W 7649   0.967  10.805  13.797
35335W        W 7650   5.785   9.360   0.850
35336W        W 7651  16.704  27.661   1.820
35337W        W 7652   4.373  31.931  11.579
35338W        W 7653  14.257  30.098  11.986
35339W        W 7654  18.548  17.136  14.363
35340W        W 7655  11.304  13.694  13.353
35341W        W 7656  20.581  44.851  13.898
35342W        W 7657  38.482  23.665   3.213
35343W        W 7658  40.493   9.326  10.999
35344W        W 7659   9.389   3.453   3.199
35345W        W 7660   6.850   2.244  12.943
35346W        W 7661  41.808   5.261   4.665
35347W        W 7662  22.622  29.138  11.456
35348W        W 7663  35.101  23.603   4.645
35349W        W 7664  30.913   0.957   0.393
35350W        W 7665  13.669  44.008   4.767
35351W        W 7666  37.906  34.469  12.422
35352W        W 7667   4.813  44.402   3.240
35353W        W 7668  13.259  31.493  14.318
35354W        W 7669  27.999  37.009  13.806
35355W        W 7670  14.278  14.328  12.877
35356W        W 7671  13.272   7.730  11.044
35357W        W 7672  39.319  28.184   3.358
35358W        W 7673   8.754  33.587   2.240
35359W        W 7674  27.574  24.216   3.742
35360W        W 7675  29.468   1.307  11.105
35361W        W 7676  30.082  41.479   3.216
35362W        W 7677  29.114  15.666  11.888
35363W        W 7678  10.238   2.756  11.610
35364W        W 7679  42.352   4.831  10.924
35365W        W 7680  19.702  37.581   4.800
35366W        W 7681  22.654  29.597   0.793
35367W        W 7682  33.957  39.350   0.855
35368W        W 7683  35.852  36.011   1.447
35369W        W 7684  32.478   0.408   2.412
35370W        W 7685  28.179  29.450  14.952
35371W        W 7686  30.475  31.111  12.871
35372W        W 7687  41.799  40.471  14.985
35373W        W 7688   4.235  42.837   0.331
35374W        W 7689  26.603  13.176   2.675
35375W        W 7690  39.393  44.854  14.941
35376W        W 7691  21.080  23.038  13.407
35377W        W 7692   6.885  37.488  11.865
35378W        W 7693   0.340   7.808  10.532
35379W        W 7694   1.342  34.098   5.706
35380W        W 7695  39.375  35.531  13.977
35381W        W 7696  16.799  21.654  14.299
35382W        W 7697  17.271  17.097   4.627
35383W        W 7698  44.329   4.272   2.677
35384W        W 7699  19.218  17.101   2.323
35385W        W 7700  32.534  16.759   1.312
35386W        W 7701  35.998  14.705  14.461
35387W        W 7702  43.866   2.740   1.253
35388W        W 7703  31.458  18.082   0.950
35389W        W 7704  32.117  17.794  12.994
35390W        W 7705  12.666  32.134  10.643
35391W        W 7706  43.779  39.542   4.193
35392W        W 7707   5.207   4.843  11.923
35393W        W 7708  21.144  30.482   0.775
35394W        W 7709  30.102  33.881   0.299
35395W        W 7710  20.673  27.152   3.629
35396W        W 7711  26.465  13.656   0.906
35397W        W 7712  37.922  12.118  11.972
35398W        W 7713  21.172  34.899   5.276
35399W        W 7714  19.681   5.876   2.678
35400W        W 7715  23.079  24.647  13.861
35401W        W 7716   6.310  32.079   1.233
35402W        W 7717  17.293  21.249   5.165
35403W        W 7718   3.857  12.739   1.750
35404W        W 7719  25.026  24.038   2.253
35405W        W 7720  37.574  43.771  13.021
35406W        W 7721  35.502  35.586   3.273
35407W        W 7722  30.962  17.161   4.181
35408W        W 7723   7.331  40.962  14.327
35409W        W 7724  39.040  31.114  13.530
35410W        W 7725  34.960  34.456  12.953
35411W        W 7726  11.709   8.187  14.835
35412W        W 7727  33.091  43.398  14.972
35413W        W 7728  44.866  38.875  10.088
35414W        W 7729  36.432   1.455  11.966
35415W        W 7730  35.886  42.911   4.712
35416W        W 7731  22.593  19.699  10.952
35417W        W 7732  19.047  42.335  11.100
35418W        W 7733  18.735  38.023  13.542
35419W        W 7734  12.852  30.658  12.841
35420W        W 7735  30.470  22.031  11.963
35421W        W 7736   7.317  39.353   4.300
35422W        W 7737   5.723  20.600   0.967
35423W        W 7738  14.300  16.765   1.303
35424W        W 7739  25.661  34.566   0.731
35425W        W 7740   8.206  20.564   1.857
35426W        W 7741  38.385   1.300  12.835
35427W        W 7742  25.045  40.358  12.433
35428W        W 7743  34.589  21.090  13.039
35429W        W 7744  29.631  22.205   1.415
35430W        W 7745  36.977   1.935   0.767
35431W        W 7746  27.144  25.574  12.960
35432W        W 7747  40.821  42.442  14.024
35433W        W 7748   3.788  28.634  14.895
35434W        W 7749  39.924  18.248   0.433
35435W        W 7750  31.944  37.390  11.045
35436W        W 7751   7.861  33.623  11.931
35437W        W 7752  44.763  12.206   3.798
35438W        W 7753  18.630  27.125   3.240
35439W        W 7754  39.525  44.308  14.312
35440W        W 7755   0.309  41.327  12.835
35441W        W 7756  38.552  37.447   0.772
35442W        W 7757  20.122  34.462  10.552
35443W        W 7758  25.171  36.361  14.818
35444W        W 7759  38.378   9.873   1.431
35445W        W 7760  43.343   8.279  14.919
35446W        W 7761   3.897  31.953  14.385
35447W        W 7762   7.813   3.860  13.510
35448W        W 7763  35.389  14.125   1.260
35449W        W 7764  18.737  15.638   0.398
35450W        W 7765  21.513   9.347   2.234
35451W        W 7766  20.219   7.283  13.885
35452W        W 7767  40.450  42.525   4.243
35453W        W 7768  33.418  10.794   1.404
35454W        W 7769   1.423  10.802  14.401
35455W        W 7770  34.416   0.301  13.816
35456W        W 7771  26.998  30.506  10.004
35457W        W 7772   5.277  40.481   4.610
35458W        W 7773  10.685  26.037   1.799
35459W        W 7774  20.135  31.578  13.530
35460W        W 7775  32.109  19.264  13.834
35461W        W 7776  44.790  33.576   3.760
35462W        W 7777  10.679  21.261  10.453
35463W        W 7778  19.548  12.343  10.966
35464W        W 7779  28.022  26.954  12.478
35465W        W 7780  22.189   7.172   2.215
35466W        W 7781  35.006  44.964   3.230
35467W        W 7782   5.261  36.443  11.993
35468W        W 7783   8.394   0.812  14.773
35469W        W 7784  24.681   3.240  13.531
35470W        W 7785  43.369  14.137  11.112
35471W        W 7786   1.855   0.797   0.291
35472W        W 7787  27.163   6.203  12.363
35473W        W 7788   6.709  24.558   3.277
35474W        W 7789   2.431   8.362   4.205
35475W        W 7790  29.034  10.770   2.714
35476W        W 7791  41.913  31.968   3.717
35477W        W 7792  43.345  13.219   0.907
35478W        W 7793  15.796  24.631  14.967
35479W        W 7794  12.660  44.343  14.856
35480W        W 7795  42.384  12.229  14.902
35481W        W 7796   3.809   9.686  14.318
35482W        W 7797  32.940  13.670   0.391
35483W        W 7798  30.530   3.819  11.583
35484W        W 7799   7.260  16.193   4.248
35485W        W 7800  24.667  10.725   0.466
35486W        W 7801  13.113  42.466  13.500
35487W        W 7802  44.788   5.234  13.007
35488W        W 7803  24.058  44.991   4.182
35489W        W 7804  23.663  39.878  12.019
35490W        W 7805  32.422  35.902   1.302
35491W        W 7806  27.487  15.289  14.414
35492W        W 7807  14.192  12.116  12.924
35493W        W 7808  13.300  34.520   3.716
35494W        W 7809  26.655  44.404  14.294
35495W        W 7810  41.354  14.596  14.450
35496W        W 7811  33.044  18.586  13.486
35497W        W 7812  29.491   6.276  10.528
35498W        W 7813  34.927   7.830   5.234
35499W        W 7814  39.040  43.318  12.018
35500W        W 7815   3.769  33.067   3.869
35501W        W 7816   0.980   3.940  10.467
35502W        W 7817  26.568   4.247  12.069
35503W        W 7818  13.275  44.869  10.985
35504W        W 7819  22.238  22.620   5.218
35505W        W 7820  20.596  24.656  11.856
35506W        W 7821  31.525   2.753  12.512
35507W        W 7822  18.194   9.271   1.847
35508W        W 7823  43.829   9.662   5.741
35509W        W 7824   3.839   5.802   2.377
35510W        W 7825  21.075  15.235  12.000
35511W        W 7826   2.285  17.176   2.288
35512W        W 7827  39.900  39.514   1.914
35513W        W 7828  21.562  28.042  10.507
35514W        W 7829  17.562  20.532  13.522
35515W        W 7830   1.417   2.938   4.809
35516W        W 7831  27.631  26.008   4.793
35517W        W 7832  10.810  30.154   3.308
35518W        W 7833  39.001  30.599   1.922
35519W        W 7834  12.740  12.160  13.310
35520W        W 7835  43.814  21.258   0.288
35521W        W 7836  16.182  37.563   0.418
35522W        W 7837   7.352  31.564   1.414
35523W        W 7838  13.602   8.761  12.929
35524W        W 7839  22.208  22.208  14.768
35525W        W 7840  32.430  36.996   1.883
35526W        W 7841   7.327  34.558   0.727
35527W        W 7842  41.513  22.081   4.624
35528W        W 7843  20.090  13.138   0.338
35529W        W 7844  18.612   9.844  12.902
35530W        W 7845  30.472  11.322  11.032
35531W        W 7846  34.945  31.926  10.469
35532W        W 7847  36.592  24.060   2.366
35533W        W 7848  23.171  29.005  12.943
35534W        W 7849   4.302  18.163   1.779
35535W        W 7850  30.575  25.981   3.207
35536W        W 7851  23.019  29.010   4.734
35537W        W 7852   7.313  10.255  11.561
35538W        W 7853   5.933  12.732   4.309
35539W        W 7854  31.944  27.617   0.794
35540W        W 7855   6.231  25.522   4.285
35541W        W 7856  19.125  40.964  10.092
35542W        W 7857  32.020  19.229  11.987
35543W        W 7858  44.943  42.374  11.868
35544W        W 7859  22.605  11.251   2.902
35545W        W 7860  44.977   3.365  11.384
35546W        W 7861  14.225  41.965  11.989
35547W        W 7862  10.253  10.257  12.438
35548W        W 7863   6.418   0.875  11.536
35549W        W 7864   9.705  25.640  13.527
35550W        W 7865   7.713  44.798  10.563
35551W        W 7866   7.400   1.803  12.015
35552W        W 7867  27.138  21.638  12.342
35553W        W 7868   4.449   7.260  13.815
35554W        W 7869  10.283   6.799   2.391
35555W        W 7870  30.498  38.366  13.539
35556W        W 7871  24.558  20.130   0.364
35557W        W 7872  27.153  38.371   2.727
35558W        W 7873  31.557  31.625  12.900
35559W        W 7874  27.544  14.296   2.185
35560W        W 7875  21.242   6.243   5.295
35561W        W 7876  42.321  39.340  10.458
35562W        W 7877  14.603   7.397   1.792
35563W        W 7878  33.546  33.920  12.461
35564W        W 7879  27.956  16.641   2.865
35565W        W 7880  38.509  39.495   2.241
35566W        W 7881  20.601  40.403  13.793
35567W        W 7882  37.502  34.069   3.827
35568W        W 7883  41.792  37.391  13.979
35569W        W 7884  43.454  23.656  11.003
35570W        W 7885  18.175  28.546   4.700
35571W        W 7886  27.485   3.332   1.767
35572W        W 7887  26.630  40.048  12.865
35573W        W 7888  25.687  23.004  12.047
35574W        W 7889  34.921  20.074   0.739
35575W        W 7890  27.131   4.277  13.336
35576W        W 7891  38.416  25.151  11.855
35577W        W 7892   2.888  16.632  13.867
35578W        W 7893  30.085  29.641   1.354
35579W        W 7894  31.634  22.091  11.867
35580W        W 7895  34.496   8.301  13.377
35581W        W 7896  17.197  32.076   4.176
35582W        W 7897  11.837  34.963  13.369
35583W        W 7898   9.201  30.016   1.895
35584W        W 7899  26.690   3.837   5.720
35585W        W 7900  42.349  34.534  14.450
35586W        W 7901  17.785  22.581  10.508
35587W        W 7902   5.835  10.300   3.355
35588W        W 7903  43.395   7.859   2.371
35589W        W 7904  27.489  33.879   3.684
35590W        W 7905  22.251  23.582  10.568
35591W        W 7906  30.925   0.464   4.232
35592W        W 7907  34.069  12.271  13.834
35593W        W 7908  20.600  26.693  12.431
35594W        W 7909  39.892  35.517  11.101
35595W        W 7910  24.014  29.075  13.894
35596W        W 7911  22.999  18.117  13.996
35597W        W 7912  12.192   1.934   0.943
35598W        W 7913   8.176  24.496  13.322
35599W        W 7914  28.471   9.880  10.422
35600W        W 7915  28.126  36.431   1.391
35601W        W 7916  28.960  36.372   0.962
35602W        W 7917  12.850  25.483   0.735
35603W        W 7918  17.741  29.989   4.713
35604W        W 7919  18.260   4.832  14.395
35605W        W 7920  26.703  11.860   5.091
35606W        W 7921  17.679  40.928   4.204
35607W        W 7922  41.975   6.731   3.712
35608W        W 7923  30.523  36.055   3.378
35609W        W 7924  44.332  41.006  11.464
35610W        W 7925  23.577  10.281   2.197
35611W        W 7926   5.346   8.873   4.304
35612W        W 7927  32.019   5.917   2.663
35613W        W 7928  14.725  30.471   4.230
35614W        W 7929  37.425  35.975  13.536
35615W        W 7930  29.472   5.790   1.321
35616W        W 7931   6.401  11.369   2.691
35617W        W 7932  43.436  44.821  14.285
35618W        W 7933  40.894   3.427  13.917
35619W        W 7934   3.859  27.531  13.891
35620W        W 7935  17.291  22.715  12.935
35621W        W 7936  15.823   2.445  10.435
35622W        W 7937  33.023   1.366  10.980
35623W        W 7938   8.849  10.748  13.852
35624W        W 7939  33.981  16.690  10.911
35625W        W 7940  42.370   1.349  13.040
35626W        W 7941  27.002  42.905  12.371
35627W        W 7942   9.720   9.735   4.346
35628W        W 7943  26.576  20.081  12.442
35629W        W 7944  18.720  13.695  14.290
35630W        W 7945  42.911   7.243   1.892
35631W        W 7946  17.294   8.372  11.106
35632W        W 7947  43.386  30.427   0.478
35633W        W 7948   4.773  39.026  10.595
35634W        W 7949  22.132  12.268   2.263
35635W        W 7950  23.182  26.646  14.414
35636W        W 7951  14.631  15.777  11.027
35637W        W 7952  20.175  23.031   4.176
35638W        W 7953  29.665  43.450   1.315
35639W        W 7954  26.504  43.997   0.740
35640W        W 7955  31.009  41.974  14.420
35641W        W 7956   5.308  11.675  13.910
35642W        W 7957  44.826  41.469  14.369
35643W        W 7958  31.474  23.620   4.642
35644W        W 7959  23.057  26.003  11.920
35645W        W 7960  21.693  39.046   1.711
35646W        W 7961  14.835  17.228   2.368
35647W        W 7962  20.273  33.499   2.883
35648W        W 7963   4.323  20.612   2.212
35649W        W 7964  41.379   2.353   1.840
35650W        W 7965  21.635  21.034  12.420
35651W        W 7966  18.754  30.011  12.028
35652W        W 7967  29.582  36.989   0.733
35653W        W 7968  41.843  29.175  14.390
35654W        W 7969  10.870  16.790   9.648
35655W        W 7970  42.349  37.959  12.573
35656W        W 7971  42.896  29.429  14.806
35657W        W 7972   2.321  24.052   2.330
35658W        W 7973   4.709  40.017   1.704
35659W        W 7974  29.994  14.662  14.283
35660W        W 7975  39.327   4.356  11.963
35661W        W 7976   5.783   6.299   3.747
35662W        W 7977  22.584  23.593   4.778
35663W        W 7978  21.735  13.212   2.667
35664W        W 7979  21.107  25.989  12.022
35665W        W 7980   9.229   6.753  13.888
35666W        W 7981  20.090  38.937  10.909
35667W        W 7982  41.012  36.957   2.822
35668W        W 7983  11.252  30.928  11.376
35669W        W 7984   9.279  30.081   4.206
35670W        W 7985  12.181  19.591   2.256
35671W        W 7986  16.227  43.928   4.708
35672W        W 7987  44.985  34.089   2.346
35673W        W 7988  17.599  39.430   0.387
35674W        W 7989  30.642   3.874   1.881
35675W        W 7990  20.051   2.883   2.197
35676W        W 7991   4.399  13.296  12.398
35677W        W 7992   3.916  37.525   4.215
35678W        W 7993  39.888   4.244   0.942
35679W        W 7994  35.033  38.469   4.620
35680W        W 7995  27.134  31.949   2.793
35681W        W 7996  27.629  41.536   2.216
35682W        W 7997  37.499  40.327  10.495
35683W        W 7998  27.501  21.230   2.182
35684W        W 7999   1.841   1.876  12.544
35685W        W 8000   1.335   1.827   0.454
35686W        W 8001  11.641   5.252   2.826
35687W        W 8002  29.425  40.427   4.692
35688W        W 8003  42.954  40.402   3.766
35689W        W 8004  34.613  29.639   0.962
35690W        W 8005  38.468  27.537  13.330
35691W        W 8006  20.159  31.559   3.201
35692W        W 8007  13.712   7.218  12.053
35693W        W 8008  12.270  22.675  12.366
35694W        W 8009   3.238  25.510   3.641
35695W        W 8010  13.118  35.919   2.782
35696W        W 8011  29.636  35.414  10.900
35697W        W 8012  42.991  23.179   2.730
35698W        W 8013  22.031   8.660   4.808
35699W        W 8014  18.753  19.537  10.940
35700W        W 8015  19.121  40.527  14.510
35701W        W 8016  15.310   8.320  12.068
35702W        W 8017  15.148  20.211  14.282
35703W        W 8018  27.159  15.131   4.155
35704W        W 8019   9.851  28.992   3.753
35705W        W 8020  17.676   3.826   1.712
35706W        W 8021  20.641   3.286  11.524
35707W        W 8022  32.981  25.153  13.542
35708W        W 8023  42.467  35.367  14.327
35709W        W 8024  43.295  26.201   1.738
35710W        W 8025  33.498   4.227  14.959
35711W        W 8026  27.564  40.356  14.435
35712W        W 8027  27.016   6.911  14.508
35713W        W 8028   5.735  20.137   1.433
35714W        W 8029  13.273  15.716   0.453
35715W        W 8030  21.705  35.972  14.849
35716W        W 8031   1.879  29.163   4.671
35717W        W 8032  13.656   7.841   3.696
35718W        W 8033  23.046  12.150   2.315
35719W        W 8034   1.751   6.354  14.019
35720W        W 8035  39.522  44.987   0.815
35721W        W 8036  35.943  40.823   0.476
35722W        W 8037  23.675  36.932   3.246
35723W        W 8038  34.079   6.410  13.016
35724W        W 8039   4.306  31.049  11.414
35725W        W 8040  13.765   5.373  10.969
35726W        W 8041  31.119  34.598   3.750
35727W        W 8042  33.578  29.979   2.385
35728W        W 8043  23.599  13.152   1.243
35729W        W 8044  23.700  12.145  14.354
35730W        W 8045  26.064  32.138  10.596
35731W        W 8046  31.492  20.525   1.235
35732W        W 8047  12.335  44.346   3.263
35733W        W 8048  17.152  36.483  10.592
35734W        W 8049  32.441  25.623   2.291
35735W        W 8050  37.979  29.961  12.929
35736W        W 8051  11.866  33.117   2.762
35737W        W 8052  22.230  29.075   1.699
35738W        W 8053   0.423  42.016  11.086
35739W        W 8054  28.460  16.600   1.271
35740W        W 8055  12.680  30.508   1.394
35741W        W 8056  40.855   2.785  11.419
35742W        W 8057  10.786  37.867   1.223
35743W        W 8058   4.760  24.228  10.492
35744W        W 8059  43.469  36.509  12.485
35745W        W 8060   3.381  17.293   4.147
35746W        W 8061  38.845  22.056  14.983
35747W        W 8062  14.606  35.948   3.668
35748W        W 8063  18.136  40.336   2.346
35749W        W 8064  16.102  12.854  13.366
35750W        W 8065  40.835  42.953   3.858
35751W        W 8066  44.918  42.458   0.303
35752W        W 8067  20.234  38.387   2.767
35753W        W 8068   3.258  31.606   3.348
35754W        W 8069   8.352   8.227  11.112
35755W        W 8070  21.076  39.946  13.964
35756W        W 8071   8.834  43.322  11.099
35757W        W 8072   2.732  24.989   1.925
35758W        W 8073  41.449   8.807  13.509
35759W        W 8074  12.749  18.760   4.280
35760W        W 8075  10.852   0.283  14.482
35761W        W 8076  11.355   1.483   1.814
35762W        W 8077  31.440  41.820  11.020
35763W        W 8078   5.337  36.562  12.929
35764W        W 8079   5.756  11.234  12.045
35765W        W 8080  30.116  18.168  11.074
35766W        W 8081  40.839  33.041  11.054
35767W        W 8082   4.409  32.910   4.641
35768W        W 8083  41.823   2.312   4.168
35769W        W 8084   8.242  18.157   4.656
35770W        W 8085  15.113  39.910   1.874
35771W        W 8086  22.007  25.494  13.930
35772W        W 8087  20.235  24.606   3.256
35773W        W 8088  25.707  35.540  12.506
35774W        W 8089  35.927  32.937  10.625
35775W        W 8090  28.615  32.135  10.083
35776W        W 8091  16.212  27.153  13.947
35777W        W 8092  40.332  28.069   0.447
35778W        W 8093  21.229  29.077   1.935
35779W        W 8094  18.236  22.574   1.767
35780W        W 8095   6.232  37.474   1.853
35781W        W 8096   0.986   2.380   2.747
35782W        W 8097   3.391  16.593  11.405
35783W        W 8098   7.252  17.777   0.342
35784W        W 8099  38.511  16.627   1.731
35785W        W 8100   1.420  25.573   3.314
35786W        W 8101  36.424  22.525  14.759
35787W        W 8102  43.292   8.792   3.327
35788W        W 8103  34.044  26.168  13.839
35789W        W 8104  22.025  44.369  13.533
35790W        W 8105  39.821  37.496   2.408
35791W        W 8106  28.937  32.476  14.942
35792W        W 8107  36.585  32.039   5.309
35793W        W 8108  24.041   0.808   3.705
35794W        W 8109   1.283  44.414  14.957
35795W        W 8110  25.998  26.015  13.470
35796W        W 8111  25.008  27.687  14.936
35797W        W 8112   8.218  28.437   2.248
35798W        W 8113  12.851  18.275   4.268
35799W        W 8114  29.629  43.832   1.797
35800W        W 8115   5.836   8.314  12.458
35801W        W 8116  27.578   8.834   2.193
35802W        W 8117  32.950  10.668  12.994
35803W        W 8118  16.790  38.903   3.848
35804W        W 8119  11.215  11.752  11.457
35805W        W 8120  14.281  35.556  14.992
35806W        W 8121  16.614   7.295   3.309
35807W        W 8122  35.999  29.943  12.948
35808W        W 8123   8.255  38.486  14.459
35809W        W 8124  36.968   1.323  12.829
35810W        W 8125  34.967  15.759   4.679
35811W        W 8126   1.767  34.396  13.859
35812W        W 8127   6.895  43.943  10.525
35813W        W 8128   9.889  12.796   4.754
35814W        W 8129  22.241  12.210  11.987
35815W        W 8130  34.937   5.282  10.550
35816W        W 8131  37.506  13.177   5.087
35817W        W 8132   7.753  20.165   3.753
35818W        W 8133  24.031  38.493   0.778
35819W        W 8134  15.631  35.854   0.248
35820W        W 8135   3.926  40.905  13.542
35821W        W 8136  38.948  25.537   0.789
35822W        W 8137   0.293  17.569   0.396
35823W        W 8138  42.813  13.319  12.505
35824W        W 8139  17.608  21.227   5.086
35825W        W 8140  28.601   6.836  13.547
35826W        W 8141  12.837   0.284  11.427
35827W        W 8142  11.671  21.613   0.423
35828W        W 8143  16.782  34.002  12.048
35829W        W 8144  33.011  13.109  13.969
35830W        W 8145  22.148  28.637   3.854
35831W        W 8146   7.208  32.609   3.825
35832W        W 8147  43.961   9.846   0.885
35833W        W 8148  14.624   3.408   3.294
35834W        W 8149  23.986  10.788   1.904
35835W        W 8150  21.614  33.898   1.382
35836W        W 8151  39.939  37.353  10.411
35837W        W 8152  13.832  41.398   1.381
35838W        W 8153  35.853  33.571  14.998
35839W        W 8154  18.643  42.360   2.766
35840W        W 8155  10.873  32.512  13.880
35841W        W 8156  17.702   4.419  12.849
35842W        W 8157  23.226  36.368   0.363
35843W        W 8158   7.687  22.591  11.594
35844W        W 8159   6.870  14.814  12.351
35845W        W 8160  20.118  14.720   2.887
35846W        W 8161  14.709  31.586  12.486
35847W        W 8162  39.872  33.493   0.727
35848W        W 8163   2.963  38.380  13.441
35849W        W 8164  38.522  35.072   1.828
35850W        W 8165  24.051  28.506  13.997
35851W        W 8166  36.532  44.757   3.761
35852W        W 8167  37.406  42.441   3.258
35853W        W 8168   3.394  30.953   5.281
35854W        W 8169  39.507  37.518  11.415
35855W        W 8170  31.928  23.025  11.942
35856W        W 8171  27.637  37.347   4.215
35857W        W 8172  25.590  37.551   4.162
35858W        W 8173  18.114  20.523   0.267
35859W        W 8174   9.342  39.903   4.624
35860W        W 8175  17.195  27.508   2.199
35861W        W 8176  36.525  25.148  11.112
35862W        W 8177   9.348  38.040   0.480
35863W        W 8178  26.456  40.003   2.708
35864W        W 8179  32.060  35.508   3.215
35865W        W 8180  18.061  35.948   3.245
35866W        W 8181  43.491  39.991  12.529
35867W        W 8182  15.582  22.714   1.315
35868W        W 8183  17.276  34.472  13.453
35869W        W 8184  25.966  21.569   1.385
35870W        W 8185  21.065  33.504   1.812
35871W        W 8186  22.583  16.771  11.910
35872W        W 8187   2.741  19.188   1.792
35873W        W 8188  39.411  25.964  12.019
35874W        W 8189  30.130  38.926   4.704
35875W        W 8190  39.491  44.788  12.562
35876W        W 8191  42.833   6.739  14.881
35877W        W 8192  36.972  27.673  13.430
35878W        W 8193  22.995  23.037  14.022
35879W        W 8194  22.034   5.343   3.851
35880W        W 8195  33.092  11.680   2.293
35881W        W 8196  30.489   2.765  11.377
35882W        W 8197  38.509  44.467  14.950
35883W        W 8198  25.636  23.599  14.289
35884W        W 8199  12.675  11.683  14.329
35885W        W 8200  22.704  30.054  14.455
35886W        W 8201  27.577  35.531   1.249
35887W        W 8202  32.969   1.471  10.549
35888W        W 8203  31.922  26.534  13.806
35889W        W 8204  29.023  36.093   2.251
35890W        W 8205   1.305   2.903   0.362
35891W        W 8206  35.854  23.028   2.849
35892W        W 8207  15.109  17.245   0.831
35893W        W 8208   2.336  31.915  12.575
35894W        W 8209   9.337   3.903   4.116
35895W        W 8210  40.473   6.692  13.920
35896W        W 8211   6.833   0.811  11.373
35897W        W 8212  43.379   8.739  13.495
35898W        W 8213  20.668  39.936  12.022
35899W        W 8214  31.135  35.999  14.000
35900W        W 8215  20.142  13.727  10.998
35901W        W 8216  10.214  28.448   1.287
35902W        W 8217  33.124  42.014   0.353
35903W        W 8218   6.679   3.829   2.324
35904W        W 8219  39.321  39.020   1.850
35905W        W 8220  32.407  44.848   3.632
35906W        W 8221  34.493  38.341  14.901
35907W        W 8222  39.939  16.241   0.941
35908W        W 8223  40.992  20.189   0.894
35909W        W 8224  44.485   8.770   4.328
35910W        W 8225   3.742  36.924   3.256
35911W        W 8226  24.718  15.582  10.987
35912W        W 8227  30.540  40.523   3.180
35913W        W 8228   8.768   6.718   4.707
35914W        W 8229  23.533  36.548   1.925
35915W        W 8230   5.784  37.968   3.830
35916W        W 8231   1.753  42.475  10.907
35917W        W 8232  21.738  28.068  14.801
35918W        W 8233   8.375  18.581  11.519
35919W        W 8234   6.234  21.663  14.859
35920W        W 8235   2.351   6.913  12.439
35921W        W 8236  28.134  38.047   4.290
35922W        W 8237  29.539  28.471   4.251
35923W        W 8238  39.055  14.642   2.783
35924W        W 8239  38.842  21.221  12.837
35925W        W 8240  28.620  19.180  10.595
35926W        W 8241  36.558  12.716  10.560
35927W        W 8242  14.765  40.011   4.146
35928W        W 8243  43.379   5.893   4.198
35929W        W 8244   6.213  13.284   3.311
35930W        W 8245  13.228   4.382  12.547
35931W        W 8246  26.195  25.574  10.948
35932W        W 8247  40.360   3.372   9.943
35933W        W 8248  28.102  12.633  10.570
35934W        W 8249  36.936   7.326  13.866
35935W        W 8250  21.552   1.466   1.322
35936W        W 8251  17.068  33.096  14.953
35937W        W 8252  32.427   8.809   1.926
35938W        W 8253  31.523  17.136   1.250
35939W        W 8254  35.375   4.394  14.998
35940W        W 8255   2.240  14.107  12.350
35941W        W 8256  12.263  13.749  14.891
35942W        W 8257  36.579  29.636  12.473
35943W        W 8258  37.895  32.889  11.390
35944W        W 8259  36.073   4.224  10.506
35945W        W 8260  42.426  32.142   1.753
35946W        W 8261   9.376  26.073  13.913
35947W        W 8262  31.464  20.074  13.936
35948W        W 8263   3.410  44.461   0.932
35949W        W 8264   3.749  14.144   5.311
35950W        W 8265  25.024  16.573  11.552
35951W        W 8266  10.354   9.250  14.422
35952W        W 8267  40.003  19.568  12.348
35953W        W 8268  29.098   5.306  11.498
35954W        W 8269  23.053  17.284  13.380
35955W        W 8270  27.456  26.176   2.724
35956W        W 8271  17.720   0.878  14.498
35957W        W 8272  30.429  33.924   4.634
35958W        W 8273   2.881  15.713   4.279
35959W        W 8274  36.532   1.446  13.903
35960W        W 8275  22.522  43.941  14.418
35961W        W 8276  20.231   7.847  14.310
35962W        W 8277   6.795  20.043  14.879
35963W        W 8278  19.624  39.556   1.364
35964W        W 8279  30.922  43.482   0.247
35965W        W 8280   1.905  44.493   3.285
35966W        W 8281  38.952  38.516   2.664
35967W        W 8282  25.678  44.893   0.808
35968W        W 8283  30.033   7.175   4.151
35969W        W 8284  44.010  22.029  14.914
35970W        W 8285   2.923  44.482   0.458
35971W        W 8286  10.838   8.869  11.894
35972W        W 8287  31.617  12.777   0.289
35973W        W 8288  21.737  39.819  14.908
35974W        W 8289   9.848  26.952   3.146
35975W        W 8290  17.719  40.885   0.952
35976W        W 8291  21.082  29.996   1.909
35977W        W 8292  43.368  25.121  12.343
35978W        W 8293  39.340   2.847   3.372
35979W        W 8294  30.447  14.291  10.457
35980W        W 8295  30.428  26.161  10.462
35981W        W 8296  40.351  41.906  10.985
35982W        W 8297  17.800  29.436  12.462
35983W        W 8298  13.173   3.373  13.839
35984W        W 8299  18.159  25.075  10.624
35985W        W 8300   6.841  13.107  13.389
35986W        W 8301  38.047  44.469   3.713
35987W        W 8302  21.672   0.948   9.971
35988W        W 8303  44.989  24.074   0.298
35989W        W 8304  32.417  11.331   1.433
35990W        W 8305  33.565   2.816  11.557
35991W        W 8306  22.708   5.772  12.461
35992W        W 8307  25.995  13.317  10.404
35993W        W 8308   0.870  10.824   5.197
35994W        W 8309   1.802  31.107   3.678
35995W        W 8310  27.097  28.499  14.441
35996W        W 8311  13.684   9.759  10.519
35997W        W 8312  34.568  42.905   1.895
35998W        W 8313  39.892  12.176  10.639
35999W        W 8314   5.927  36.363   1.213
36000W        W 8315  27.547  25.511  12.021
36001W        W 8316  18.676  29.466   4.742
36002W        W 8317  26.569  34.120   0.469
36003W        W 8318  19.142   1.837  14.898
36004W        W 8319  14.214   8.771  11.442
36005W        W 8320  22.138  31.938  12.432
36006W        W 8321   5.282   8.241  14.955
36007W        W 8322  40.304  22.643   0.260
36008W        W 8323   7.325  14.214  11.605
36009W        W 8324  37.061  24.209   2.839
36010W        W 8325  22.100  10.181  13.360
36011W        W 8326  23.554  35.590  11.930
36012W        W 8327  43.396  36.868  12.342
36013W        W 8328   1.304  37.378  13.801
36014W        W 8329  22.692   1.271  11.980
36015W        W 8330  17.631  15.132   3.835
36016W        W 8331  20.273  20.654  12.997
36017W        W 8332  19.081   8.847   5.793
36018W        W 8333  33.066  38.991  13.986
36019W        W 8334  33.458  27.664  11.889
36020W        W 8335   6.775  36.539  12.538
36021W        W 8336  30.513  24.666   1.374
36022W        W 8337  21.121  44.470  11.887
36023W        W 8338  44.834  26.973   2.731
36024W        W 8339  35.014  25.098   1.799
36025W        W 8340  14.270   1.404   1.225
36026W        W 8341  10.724  18.065  10.435
36027W        W 8342   4.863  22.582  13.791
36028W        W 8343  25.037  38.487  11.385
36029W        W 8344  19.744  39.919  14.894
36030W        W 8345  21.123   2.449  13.421
36031W        W 8346   0.822  20.271   2.837
36032W        W 8347  23.002  30.095   0.784
36033W        W 8348  25.566  11.241  12.488
36034W        W 8349  13.606   0.342  13.817
36035W        W 8350  33.480  42.344  10.511
36036W        W 8351  36.869  23.059   0.941
36037W        W 8352   2.422  14.143   4.609
36038W        W 8353  13.731  29.071   4.332
36039W        W 8354  18.158  22.561   1.328
36040W        W 8355  18.189  40.920  11.499
36041W        W 8356  38.325   1.390   1.711
36042W        W 8357   1.749  38.458  13.508
36043W        W 8358  14.717  41.959  11.946
36044W        W 8359  21.629  31.571   2.759
36045W        W 8360  21.176  20.061   1.801
36046W        W 8361  31.500   0.756   4.341
36047W        W 8362  41.856  12.826   0.873
36048W        W 8363  34.505  22.179  11.392
36049W        W 8364  25.053  11.361  10.635
36050W        W 8365   6.715   2.854  13.338
36051W        W 8366  11.237  17.209  11.071
36052W        W 8367  11.713   1.367  14.812
36053W        W 8368  25.121  32.083  14.318
36054W        W 8369  10.722  23.574  13.946
36055W        W 8370  30.958  20.051   2.210
36056W        W 8371  17.191  35.523  11.448
36057W        W 8372  22.057   5.323  11.972
36058W        W 8373  40.316   3.927  13.481
36059W        W 8374  29.064  13.131  11.967
36060W        W 8375  21.680  41.328   3.209
36061W        W 8376   8.260  30.464   0.444
36062W        W 8377  14.308  30.484  10.502
36063W        W 8378   9.357  41.817  13.893
36064W        W 8379  39.836   0.336   0.829
36065W        W 8380  21.641  40.007   4.820
36066W        W 8381  25.974  17.258   2.277
36067W        W 8382  12.268  26.185   4.313
36068W        W 8383  39.355   3.308  12.055
36069W        W 8384  28.148  42.829   2.695
36070W        W 8385  10.141  25.708  11.938
36071W        W 8386  35.593   7.235   4.207
36072W        W 8387   3.291   4.837   4.136
36073W        W 8388  15.104   3.734   4.222
36074W        W 8389  13.765  29.069  13.334
36075W        W 8390  23.145  38.878  11.576
36076W        W 8391  42.516  42.479   2.177
36077W        W 8392  39.365   0.875   4.646
36078W        W 8393  24.486  42.898  12.859
36079W        W 8394  16.580  21.092  14.380
36080W        W 8395  10.660  31.617  13.942
36081W        W 8396   9.210   6.762  12.579
36082W        W 8397  21.551  41.421  12.842
36083W        W 8398  43.987  35.109  14.803
36084W        W 8399  42.790   4.755   5.288
36085W        W 8400  14.157   3.287   1.753
36086W        W 8401   1.782   8.684   1.759
36087W        W 8402  31.081  23.731   4.796
36088W        W 8403  28.659  43.837  10.432
36089W        W 8404  33.612  12.728  14.275
36090W        W 8405  23.558   2.444  10.576
36091W        W 8406   2.759  14.702  12.848
36092W        W 8407  32.529   6.730  12.415
36093W        W 8408  44.857  28.636  12.897
36094W        W 8409  34.495  39.469   0.371
36095W        W 8410  22.524   9.839  11.987
36096W        W 8411  10.300   0.987  12.421
36097W        W 8412  32.568  14.111  13.860
36098W        W 8413  34.594   4.846   2.341
36099W        W 8414  42.013  19.095   1.318
36100W        W 8415  13.313   0.285   0.426
36101W        W 8416  30.465  33.532   4.262
36102W        W 8417   6.883  39.891   1.743
36103W        W 8418  27.673  26.073   0.959
36104W        W 8419  11.806  42.025  11.423
36105W        W 8420  10.315   6.890   2.789
36106W        W 8421  32.044  36.562  11.484
36107W        W 8422  13.143   8.364  12.395
36108W        W 8423  20.176  38.450   5.202
36109W        W 8424   5.320  35.928  14.003
36110W        W 8425  17.564   7.912   4.766
36111W        W 8426  20.710  30.063  13.391
36112W        W 8427  37.844  26.040  13.535
36113W        W 8428  31.964   9.254  14.324
36114W        W 8429  14.624   0.799  11.016
36115W        W 8430  39.351  28.553  12.900
36116W        W 8431  37.519  26.110   5.199
36117W        W 8432  10.664  19.562  10.059
36118W        W 8433   5.408   0.750  13.061
36119W        W 8434   8.699  11.264  14.866
36120W        W 8435  28.032  14.100   0.415
36121W        W 8436  43.441  24.556  14.766
36122W        W 8437  25.079  25.177   2.262
36123W        W 8438  15.729  44.433   2.340
36124W        W 8439   4.401  17.690  12.355
36125W        W 8440  15.702  41.536  11.480
36126W        W 8441  23.015  31.982  11.125
36127W        W 8442  24.172  16.263   1.698
36128W        W 8443   1.392  25.628   2.807
36129W        W 8444   3.927  41.971   4.635
36130W        W 8445  40.442  28.145   4.730
36131W        W 8446  21.249   1.466  14.322
36132W        W 8447  20.730  27.165  13.431
36133W        W 8448  19.661  42.784   0.822
36134W        W 8449   6.863  27.042   0.460
36135W        W 8450  39.920  31.139   3.763
36136W        W 8451  16.225  28.175  11.500
36137W        W 8452  17.279  17.658  13.512
36138W        W 8453   2.907  31.961   0.473
36139W        W 8454  41.299  44.852   2.206
36140W        W 8455  42.486  11.780  12.515
36141W        W 8456  27.947  10.826   5.221
36142W        W 8457  20.157   0.750  10.538
36143W        W 8458   0.888  33.875   0.919
36144W        W 8459  25.589  29.168  14.971
36145W        W 8460  31.097  23.651   4.150
36146W        W 8461   4.246  32.024  11.105
36147W        W 8462  10.676  44.786   3.377
36148W        W 8463   2.913  15.119  11.991
36149W        W 8464  39.824  15.083   0.778
36150W        W 8465  20.666  25.031  14.936
36151W        W 8466  33.435  27.120  11.021
36152W        W 8467  13.723   7.220  14.978
36153W        W 8468  33.479  35.970  10.565
36154W        W 8469  17.785  43.444  13.844
36155W        W 8470  17.616  39.418   1.717
36156W        W 8471   0.838  10.305  11.046
36157W        W 8472  30.498  29.600   4.720
36158W        W 8473  20.532  11.172  11.872
36159W        W 8474  13.631  42.508  12.515
36160W        W 8475  24.229   0.891  10.410
36161W        W 8476  18.170  21.664   2.340
36162W        W 8477  42.305  23.550   2.893
36163W        W 8478   5.826  40.445   0.937
36164W        W 8479  20.224  37.087  12.909
36165W        W 8480  39.527  44.272   3.808
36166W        W 8481   5.249  30.591   0.443
36167W        W 8482  32.943  31.498  11.392
36168W        W 8483  29.451  42.448   2.862
36169W        W 8484  33.016  44.797  13.840
36170W        W 8485  36.885  38.547   3.357
36171W        W 8486   0.817  11.274  14.458
36172W        W 8487  26.170  33.563   5.594
36173W        W 8488  44.374  15.772  12.996
36174W        W 8489  32.426  34.993   0.779
36175W        W 8490   4.304  35.369   1.808
36176W        W 8491  23.985  35.489  12.473
36177W        W 8492  39.327  36.884   3.684
36178W        W 8493   0.414  20.636  14.436
36179W        W 8494  23.542  28.615   2.902
36180W        W 8495  41.350  25.473  12.061
36181W        W 8496  29.534   4.372  10.585
36182W        W 8497  44.999  39.897   3.381
36183W        W 8498   8.208  36.938  12.880
36184W        W 8499   7.350  20.732   4.153
36185W        W 8500  40.493  31.013  14.861
36186W        W 8501  11.191  44.834   4.692
36187W        W 8502  41.412   2.883   3.756
36188W        W 8503  40.051  39.371  14.424
36189W        W 8504  24.722  32.138  10.433
36190W        W 8505  38.396   9.845   4.632
36191W        W 8506   7.246   0.433   1.410
36192W        W 8507   3.816   8.792   3.252
36193W        W 8508  11.267   4.906   3.776
36194W        W 8509  20.752   3.896  14.428
36195W        W 8510  14.691  13.805   3.661
36196W        W 8511  38.892  16.161   3.159
36197W        W 8512  25.178  21.216   0.818
36198W        W 8513   2.389   6.249   2.800
36199W        W 8514  12.190  43.410  14.452
36200W        W 8515  25.101  27.179   0.392
36201W        W 8516   8.283   4.894   3.733
36202W        W 8517  13.640  19.281   1.409
36203W        W 8518  18.738  44.361   4.827
36204W        W 8519  18.269   9.302  14.000
36205W        W 8520  25.129  37.895  10.466
36206W        W 8521  39.484  37.957  12.522
36207W        W 8522  28.995  21.205   4.139
36208W        W 8523   3.312   5.902   3.320
36209W        W 8524  11.737  43.891  13.516
36210W        W 8525   6.401  36.875  10.428
36211W        W 8526   5.749  25.094   1.237
36212W        W 8527  21.257  24.055   1.317
36213W        W 8528   1.401  42.786   2.823
36214W        W 8529  25.597  21.236   1.906
36215W        W 8530  35.976  30.618   3.365
36216W        W 8531   3.806  33.082   0.398
36217W        W 8532  28.965  36.440   3.221
36218W        W 8533  42.285  43.769   2.359
36219W        W 8534  28.664  16.796  11.126
36220W        W 8535   2.472  35.051   2.224
36221W        W 8536  21.747  14.274   0.953
36222W        W 8537  22.707  31.950   3.681
36223W        W 8538  14.209   6.273  10.997
36224W        W 8539  30.465  27.456   3.828
36225W        W 8540   3.319   3.287  11.017
36226W        W 8541  13.305   9.320  10.555
36227W        W 8542  14.096   5.242   4.635
36228W        W 8543  17.064  36.511  13.927
36229W        W 8544   2.824  21.097  13.383
36230W        W 8545   3.956   3.341  13.872
36231W        W 8546   0.339  34.498   0.339
36232W        W 8547  19.197  13.599  11.499
36233W        W 8548  16.275   6.676   4.317
36234W        W 8549   6.759  10.639  12.396
36235W        W 8550  35.524  33.025   3.362
36236W        W 8551  41.496   8.248   4.280
36237W        W 8552  42.431  37.447   4.783
36238W        W 8553  17.220  20.131   0.845
36239W        W 8554  17.160  28.082   2.731
36240W        W 8555  13.298  41.871  13.992
36241W        W 8556  29.027  24.990   0.778
36242W        W 8557  27.559  44.892   4.734
36243W        W 8558  20.071  12.125  13.885
36244W        W 8559  14.678  41.416  12.021
36245W        W 8560  30.619   1.749   1.809
36246W        W 8561  32.090   4.716   0.807
36247W        W 8562  29.175  34.969   4.280
36248W        W 8563   7.772   7.698  13.999
36249W        W 8564  27.505  12.260   0.887
36250W        W 8565  17.090  40.815  12.007
36251W        W 8566  36.461  44.996   4.631
36252W        W 8567  25.070  12.636   2.880
36253W        W 8568  19.740  12.195  13.336
36254W        W 8569  11.734  18.134   3.250
36255W        W 8570  10.822  38.874   3.842
36256W        W 8571   5.339  12.154   3.748
36257W        W 8572  43.321  36.084   4.692
36258W        W 8573   3.911  25.669  10.939
36259W        W 8574   6.239  14.192   1.713
36260W        W 8575  29.450  17.575  12.060
36261W        W 8576  17.151  16.088  14.815
36262W        W 8577  18.102  14.315  11.943
36263W        W 8578   4.409  43.381  11.433
36264W        W 8579  35.931  37.890   0.295
36265W        W 8580  31.643  32.978   1.854
36266W        W 8581  11.372  23.155  11.390
36267W        W 8582  39.901   4.252  12.075
36268W        W 8583  13.821  19.270  11.996
36269W        W 8584  26.061  21.185   0.423
36270W        W 8585  33.443  43.895  12.090
36271W        W 8586   0.855  14.332   1.865
36272W        W 8587  25.997  41.849  14.376
36273W        W 8588  43.385  35.935  10.599
36274W        W 8589  26.973  31.046   1.774
36275W        W 8590  17.271  38.885  12.561
36276W        W 8591   7.276   9.172   1.291
36277W        W 8592  23.098  16.746  11.114
36278W        W 8593  27.006  43.289  11.938
36279W        W 8594  39.031  26.167   5.164
36280W        W 8595  37.549  26.514  11.531
36281W        W 8596  24.135  32.901  11.103
36282W        W 8597  11.229  19.680   1.330
36283W        W 8598   7.907  19.053  13.040
36284W        W 8599   4.281  28.044  14.850
36285W        W 8600  18.216  15.609   4.753
36286W        W 8601  44.446   9.703   4.681
36287W        W 8602  36.844   6.273  14.467
36288W        W 8603  28.531   3.305   4.687
36289W        W 8604  38.025   2.355   3.257
36290W        W 8605  13.218  41.302   3.644
36291W        W 8606   7.861  43.021  10.030
36292W        W 8607  33.916  40.340   9.958
36293W        W 8608  13.677  16.161   3.869
36294W        W 8609  40.997  36.842   4.119
36295W        W 8610  36.017   0.378  12.926
36296W        W 8611  13.184  26.057  11.069
36297W        W 8612  18.716   2.374   3.155
36298W        W 8613  22.094  44.287   3.682
36299W        W 8614  16.673  15.806   4.710
36300W        W 8615   0.887   4.260   3.701
36301W        W 8616   1.326  11.255   5.571
36302W        W 8617  24.532  18.773   3.312
36303W        W 8618   0.867  17.715  13.835
36304W        W 8619  41.487  34.554  12.467
36305W        W 8620  32.556  33.966   4.619
36306W        W 8621  17.116  37.063  11.919
36307W        W 8622  38.879  43.014   4.233
36308W        W 8623   5.871   9.279  12.872
36309W        W 8624   2.942  15.716  13.400
36310W        W 8625  29.566  22.049  13.901
36311W        W 8626   9.272  35.925   3.356
36312W        W 8627   6.685  10.143  11.935
36313W        W 8628  15.599   2.943   3.203
36314W        W 8629  35.859  27.152   1.751
36315W        W 8630  17.164  40.808  12.520
36316W        W 8631  18.653  13.150   0.442
36317W        W 8632   3.722  41.487   5.104
36318W        W 8633   8.843  18.226   1.383
36319W        W 8634   4.831  37.046  11.936
36320W        W 8635  39.002  16.157   4.248
36321W        W 8636  16.665   0.861   0.307
36322W        W 8637  24.693  33.403   2.881
36323W        W 8638  11.212  31.128   3.295
36324W        W 8639  10.666  18.766  13.310
36325W        W 8640  42.838  11.252   0.319
36326W        W 8641  30.492  37.486  11.053
36327W        W 8642  41.799  11.749   4.198
36328W        W 8643  44.386   0.783   0.293
36329W        W 8644  28.599  29.621   2.383
36330W        W 8645   1.341  34.612   1.811
36331W        W 8646  15.118   7.197  14.928
36332W        W 8647  17.686  31.430   2.869
36333W        W 8648  43.270  12.194   0.841
36334W        W 8649  39.010  33.468  12.568
36335W        W 8650  44.780   4.290   2.804
36336W        W 8651  31.560   4.330   3.849
36337W        W 8652  31.963  18.728  12.443
36338W        W 8653   7.220  33.426   3.756
36339W        W 8654  23.620  37.912   0.878
36340W        W 8655  37.004  21.019  13.411
36341W        W 8656  34.579  11.325   0.746
36342W        W 8657  18.554  44.979   0.833
36343W        W 8658  26.472  38.990  13.438
36344W        W 8659  16.680  38.024   2.790
36345W        W 8660  41.446  34.531   4.644
36346W        W 8661  42.511  21.121   0.433
36347W        W 8662  19.046  14.135  13.522
36348W        W 8663  30.522  37.529  10.547
36349W        W 8664  22.545  20.580   3.327
36350W        W 8665  34.908  32.542   3.288
36351W        W 8666  25.495  29.443   3.194
36352W        W 8667  42.009  31.473  14.454
36353W        W 8668  36.013  26.556   4.742
36354W        W 8669  27.050  34.504   1.916
36355W        W 8670  44.443  24.107  10.978
36356W        W 8671  38.966  39.465  12.074
36357W        W 8672  17.087  34.541   2.312
36358W        W 8673  23.553  29.621   2.397
36359W        W 8674  40.847  24.616   0.930
36360W        W 8675   6.379  31.904  14.295
36361W        W 8676   1.242  43.887   3.347
36362W        W 8677  18.103  21.555  12.852
36363W        W 8678  19.093  17.157   0.346
36364W        W 8679  39.888  28.590  10.599
36365W        W 8680  44.979  33.487   4.147
36366W        W 8681  10.696  27.956  10.561
36367W        W 8682   4.881   8.770  14.339
36368W        W 8683   6.834  20.226   3.668
36369W        W 8684  22.681  19.055   3.342
36370W        W 8685  16.715  20.252   2.361
36371W        W 8686  25.037  42.954   9.977
36372W        W 8687  25.538  10.293   0.280
36373W        W 8688  21.219  21.077  14.378
36374W        W 8689  37.009  14.787   1.319
36375W        W 8690  16.655  28.104   9.446
36376W        W 8691  34.479  42.514  12.464
36377W        W 8692   6.291  23.998  10.897
36378W        W 8693  26.627  10.707  10.449
36379W        W 8694  12.261  30.058   4.143
36380W        W 8695  42.319  38.345  13.485
36381W        W 8696  10.210  40.055   4.309
36382W        W 8697  24.163  19.229  14.291
36383W        W 8698   5.727  37.364   0.337
36384W        W 8699  22.671  38.846   1.354
36385W        W 8700  32.078  18.155  14.332
36386W        W 8701  16.307  42.509  12.888
36387W        W 8702  37.566  21.696  12.349
36388W        W 8703  35.965  11.196   0.378
36389W        W 8704  35.474   8.736  10.915
36390W        W 8705  42.371   9.876   2.843
36391W        W 8706   5.210   3.858   4.703
36392W        W 8707  35.964  27.186  10.474
36393W        W 8708  30.514  42.850  12.366
36394W        W 8709  15.630  28.621  11.545
36395W        W 8710  22.034  28.454  13.817
36396W        W 8711  38.937  15.218   2.366
36397W        W 8712   7.829   7.390   4.695
36398W        W 8713  34.451  24.677   3.168
36399W        W 8714  42.855  21.750  12.091
36400W        W 8715   5.194   7.782  12.837
36401W        W 8716  21.101  31.570  10.496
36402W        W 8717  18.725   7.817  11.093
36403W        W 8718  23.556  17.638   0.897
36404W        W 8719  28.964  18.631   1.757
36405W        W 8720  17.625  10.734  10.539
36406W        W 8721  14.163   4.906  11.389
36407W        W 8722  18.168   0.384  12.435
36408W        W 8723  43.480  30.606   3.298
36409W        W 8724  40.848  30.516  14.316
36410W        W 8725  28.544  23.233   2.721
36411W        W 8726  15.226   9.848   0.853
36412W        W 8727   3.867   4.278   3.152
36413W        W 8728  30.129  10.653  13.470
36414W        W 8729  28.490  40.801  11.468
36415W        W 8730  28.122  28.929  10.559
36416W        W 8731   2.890   4.222   3.657
36417W        W 8732  26.583  22.645  10.409
36418W        W 8733   5.200  34.884  11.877
36419W        W 8734  14.307  33.515   1.426
36420W        W 8735  37.479  31.107  14.917
36421W        W 8736  39.054  29.602   3.351
36422W        W 8737  37.392  17.777   3.305
36423W        W 8738  36.012   4.842  11.870
36424W        W 8739  20.094  22.662  13.476
36425W        W 8740   4.871  34.965   2.355
36426W        W 8741   9.845  25.036  10.895
36427W        W 8742  36.081   7.224   3.697
36428W        W 8743  41.841  41.985  11.954
36429W        W 8744  26.511  32.955  12.539
36430W        W 8745   4.233  13.272   0.426
36431W        W 8746   5.760  14.238  11.433
36432W        W 8747  43.404  25.551   0.908
36433W        W 8748  15.183  17.761   4.751
36434W        W 8749  26.065   7.699  10.446
36435W        W 8750  13.269  15.764   1.389
36436W        W 8751   8.237   8.837   4.660
36437W        W 8752  18.134  43.342   0.307
36438W        W 8753   5.929   0.378   1.801
36439W        W 8754  32.459  29.530  11.576
36440W        W 8755  15.641  42.349   1.903
36441W        W 8756  18.562   1.961  11.389
36442W        W 8757  35.872  18.069  12.381
36443W        W 8758  31.096  10.806   3.294
36444W        W 8759  20.045   1.332   3.839
36445W        W 8760   3.867  13.641  12.876
36446W        W 8761  13.266  12.679   2.215
36447W        W 8762  39.956   3.733  14.879
36448W        W 8763   6.792  13.684   4.315
36449W        W 8764  39.438  44.785  12.894
36450W        W 8765  27.544   0.378  12.837
36451W        W 8766  41.441  31.975   3.352
36452W        W 8767  17.244   7.829  11.546
36453W        W 8768  39.858   6.870   2.358
36454W        W 8769  27.039  18.264  13.422
36455W        W 8770   2.960  35.982   2.376
36456W        W 8771  10.323  41.814   4.653
36457W        W 8772   1.894  36.480   1.805
36458W        W 8773  44.961  28.680  13.900
36459W        W 8774   1.749  27.653  11.531
36460W        W 8775  23.602  41.524  14.963
36461W        W 8776   6.848   4.377   2.280
36462W        W 8777   3.804  15.589  12.499
36463W        W 8778  36.943   1.949  12.841
36464W        W 8779  20.576  30.566   2.349
36465W        W 8780  35.099  41.931  14.325
36466W        W 8781  31.023   0.463  14.851
36467W        W 8782  13.757   7.799   0.258
36468W        W 8783  16.591  25.703   2.881
36469W        W 8784   2.814  31.036  13.001
36470W        W 8785  28.103  30.576   2.367
36471W        W 8786   4.771  40.463  12.937
36472W        W 8787   9.151  28.030   2.681
36473W        W 8788  44.916  10.645  12.526
36474W        W 8789   7.203   6.333   2.878
36475W        W 8790   7.265  29.070   1.855
36476W        W 8791  12.334  22.068   3.689
36477W        W 8792  23.730  19.719   5.705
36478W        W 8793  21.700  43.842  14.925
36479W        W 8794  15.226  15.178  13.935
36480W        W 8795  21.259  23.598   4.659
36481W        W 8796   3.392  13.805   2.714
36482W        W 8797  23.567  12.125  11.376
36483W        W 8798   6.802  15.158  10.588
36484W        W 8799  44.000  44.483  10.476
36485W        W 8800  21.021  24.134   4.601
36486W        W 8801   0.852  24.038  10.954
36487W        W 8802  17.625  41.294   4.180
36488W        W 8803  22.091   1.838  13.342
36489W        W 8804   0.855   9.216  10.047
36490W        W 8805  21.137  17.663   3.351
36491W        W 8806  16.097  17.231   4.334
36492W        W 8807   0.919  14.704   2.379
36493W        W 8808   7.291   1.261  11.892
36494W        W 8809  10.159  29.535   2.296
36495W        W 8810  18.158  31.538  10.572
36496W        W 8811  32.126  19.241   1.886
36497W        W 8812  37.925  27.139   4.338
36498W        W 8813  42.996   2.876  11.992
36499W        W 8814   3.817  33.459   1.749
36500W        W 8815   4.801  26.042  10.443
36501W        W 8816  15.244   1.864  10.597
36502W        W 8817  27.645   9.858   4.718
36503W        W 8818  44.499   3.801  13.008
36504W        W 8819  11.259  25.702  12.982
36505W        W 8820  15.288   2.370  13.398
36506W        W 8821  11.163  23.118   1.413
36507W        W 8822  16.749  12.363   4.351
36508W        W 8823   1.396  16.572   4.201
36509W        W 8824   0.301  39.878  11.405
36510W        W 8825  26.088  34.019   2.216
36511W        W 8826  24.051  19.576   2.247
36512W        W 8827  44.265  30.431   4.756
36513W        W 8828  17.642   7.839  14.786
36514W        W 8829   9.688   6.223  10.438
36515W        W 8830  28.120   1.778  14.359
36516W        W 8831   3.356  16.188   0.836
36517W        W 8832  44.412   9.855   2.793
36518W        W 8833  26.035   8.368   0.882
36519W        W 8834   3.285  15.785   0.305
36520W        W 8835  27.190  19.726  12.942
36521W        W 8836  34.881  36.055  14.336
36522W        W 8837  14.192  28.591  13.475
36523W        W 8838  24.987  44.304   2.295
36524W        W 8839  20.196  30.454   4.173
36525W        W 8840  44.813   9.736  10.404
36526W        W 8841  21.683  37.415   0.478
36527W        W 8842  35.071  32.018  13.985
36528W        W 8843  22.114  15.792  14.373
36529W        W 8844  35.575  39.542   2.698
36530W        W 8845  15.264   8.216  14.436
36531W        W 8846  11.162   8.312   1.724
36532W        W 8847   2.389  25.124   3.210
36533W        W 8848  44.313   1.808   2.387
36534W        W 8849  18.657  10.200   3.692
36535W        W 8850  33.895  38.385  13.040
36536W        W 8851  42.924   8.758   1.439
36537W        W 8852  41.957  17.299   2.334
36538W        W 8853  21.657  23.028  11.924
36539W        W 8854  19.188  23.220  14.418
36540W        W 8855  36.361   4.255  14.883
36541W        W 8856  16.140  13.776  14.987
36542W        W 8857  34.948  28.156  14.928
36543W        W 8858  43.404  15.599  10.448
36544W        W 8859  37.443  43.492   0.944
36545W        W 8860  19.236  34.094  13.957
36546W        W 8861  17.620  41.827  10.411
36547W        W 8862  17.185  29.003  14.942
36548W        W 8863  35.380  19.080   2.680
36549W        W 8864  27.136  11.252   3.632
36550W        W 8865  29.106  32.101  14.983
36551W        W 8866   8.717  25.074  12.500
36552W        W 8867  37.850  39.530   2.846
36553W        W 8868  28.570  41.480  12.959
36554W        W 8869   2.931   8.705   2.203
36555W        W 8870  29.426  17.785   2.663
36556W        W 8871  20.579  23.986   1.875
36557W        W 8872   3.348   8.689  14.403
36558W        W 8873  23.088  21.751   0.818
36559W        W 8874   0.370  38.922   2.856
36560W        W 8875  15.659   6.732  12.017
36561W        W 8876  24.107  24.021   2.299
36562W        W 8877  22.108  43.006   4.230
36563W        W 8878  10.740  36.965   3.730
36564W        W 8879  37.502  27.137  13.464
36565W        W 8880  41.509   5.707   0.450
36566W        W 8881   1.917   0.273  12.011
36567W        W 8882  11.279   8.301   3.189
36568W        W 8883  10.178   0.453   1.906
36569W        W 8884   4.282  38.050  11.050
36570W        W 8885  14.732  18.085  14.950
36571W        W 8886  21.566  42.846   5.304
36572W        W 8887   6.329  24.603   4.174
36573W        W 8888  27.034  20.250  13.517
36574W        W 8889  25.183   5.258  11.068
36575W        W 8890  40.842  30.934  13.397
36576W        W 8891  19.610  33.573   0.409
36577W        W 8892  40.380  10.165  14.280
36578W        W 8893   6.912  38.998  12.044
36579W        W 8894   1.820  27.176   4.666
36580W        W 8895   6.886  23.238  14.829
36581W        W 8896  43.997  32.130  11.940
36582W        W 8897  21.226  42.381   1.388
36583W        W 8898   3.448  42.389  12.352
36584W        W 8899   6.739  16.126   4.259
36585W        W 8900   7.250   2.374   3.849
36586W        W 8901  15.310  39.388  14.303
36587W        W 8902   2.739  33.004   4.329
36588W        W 8903   4.839  31.527  10.973
36589W        W 8904  33.986   7.741  12.377
36590W        W 8905  33.114  37.071   1.726
36591W        W 8906  22.603  39.499  13.307
36592W        W 8907  12.295   9.248  11.559
36593W        W 8908  21.244  20.194  13.860
36594W        W 8909  44.799  39.393   0.926
36595W        W 8910  44.832  43.418  13.926
36596W        W 8911  43.380  37.514  12.969
36597W        W 8912  15.215  32.030  14.827
36598W        W 8913  24.546  34.085  13.895
36599W        W 8914  16.122  30.612  14.508
36600W        W 8915  30.545  27.655  11.928
36601W        W 8916  39.422  40.878  13.309
36602W        W 8917  24.145  18.716   1.380
36603W        W 8918  12.202  23.205   2.306
36604W        W 8919  42.000  13.744   2.242
36605W        W 8920   5.849  12.730  12.948
36606W        W 8921   9.218  44.946  12.341
36607W        W 8922   6.695   2.226  11.542
36608W        W 8923  35.861  44.496  10.494
36609W        W 8924   0.273  23.681  13.503
36610W        W 8925  27.127  21.154   0.248
36611W        W 8926   9.705  35.557  11.567
36612W        W 8927  21.161  22.529  11.008
36613W        W 8928  36.453  20.767  11.878
36614W        W 8929  13.641  35.067  11.457
36615W        W 8930   0.480  42.014  10.456
36616W        W 8931   8.249  21.678  14.328
36617W        W 8932  34.405   7.276  11.516
36618W        W 8933   1.905   0.484   1.876
36619W        W 8934  28.124  12.617  14.344
36620W        W 8935  42.000  26.107   0.289
36621W        W 8936  16.315   0.479   3.674
36622W        W 8937  30.938  15.240   4.779
36623W        W 8938  30.138  26.964  12.570
36624W        W 8939  41.807  19.122  11.008
36625W        W 8940  18.752  24.015   2.800
36626W        W 8941  30.049  33.545  14.848
36627W        W 8942  32.583  18.262   3.166
36628W        W 8943  21.697  21.072   5.145
36629W        W 8944   7.761  19.201  14.421
36630W        W 8945  36.483  13.825   2.187
36631W        W 8946  20.718   3.789   0.402
36632W        W 8947  24.712  39.008  11.923
36633W        W 8948  16.148  17.610   4.809
36634W        W 8949   7.175  43.952  11.522
36635W        W 8950  26.200   8.781   0.922
36636W        W 8951  35.382  24.025   4.799
36637W        W 8952  14.785  11.363   4.197
36638W        W 8953  38.409  19.698  10.467
36639W        W 8954  27.540  27.568   4.792
36640W        W 8955   1.308  33.382   0.798
36641W        W 8956  34.981  33.874  12.982
36642W        W 8957   9.268  23.170   4.610
36643W        W 8958   5.264   4.369   0.427
36644W        W 8959  43.009  26.968  12.477
36645W        W 8960   4.855  43.918   2.225
36646W        W 8961  17.626  19.098  11.958
36647W        W 8962  41.974  16.291   2.219
36648W        W 8963  24.054  25.032  10.977
36649W        W 8964   0.346  13.678   1.268
36650W        W 8965  37.508   3.891   0.758
36651W        W 8966  23.552  20.570   0.895
36652W        W 8967  40.337   1.773   9.991
36653W        W 8968  13.660   2.838   0.816
36654W        W 8969  35.877  12.338  12.887
36655W        W 8970  11.213   4.409   4.293
36656W        W 8971  28.558  26.204  12.412
36657W        W 8972   1.448  30.097  12.855
36658W        W 8973  25.559  34.092  10.073
36659W        W 8974   3.744  41.295   2.245
36660W        W 8975  35.471   6.852  14.020
36661W        W 8976  27.541  34.028   3.352
36662W        W 8977  27.038  28.028   3.769
36663W        W 8978   5.933  39.372   0.905
36664W        W 8979  21.252  29.929   2.297
36665W        W 8980  14.648  44.887  11.929
36666W        W 8981   1.898   9.650  13.393
36667W        W 8982  29.589  39.533  10.472
36668W        W 8983  36.050  13.718  14.905
36669W        W 8984  23.137  14.723  11.925
36670W        W 8985  43.479   3.235  13.360
36671W        W 8986  17.280  19.677  14.899
36672W        W 8987   6.313  38.038   0.248
36673W        W 8988  12.837  26.995   1.731
36674W        W 8989  30.985  27.079  14.306
36675W        W 8990  33.475  39.958   0.776
36676W        W 8991  16.270  30.133  14.456
36677W        W 8992  16.664  31.009  14.884
36678W        W 8993  33.514   9.771   2.772
36679W        W 8994   9.850   7.368   3.804
36680W        W 8995  43.361   3.378   4.216
36681W        W 8996  23.208  15.606  13.808
36682W        W 8997  24.986  22.151  12.344
36683W        W 8998  15.246   8.700  13.933
36684W        W 8999  39.415  12.787  13.793
36685W        W 9000  36.948  28.094   3.327
36686W        W 9001  37.087  20.224   2.319
36687W        W 9002  30.921   7.698  13.947
36688W        W 9003  30.149   7.381  13.934
36689W        W 9004  19.614  13.289   0.820
36690W        W 9005  21.108  43.949  13.832
36691W        W 9006   4.238   7.334   1.237
36692W        W 9007  11.337  22.507  12.062
36693W        W 9008   4.837  23.659  14.858
36694W        W 9009  20.255  36.036  11.983
36695W        W 9010   5.701  17.690   4.617
36696W        W 9011  10.324  21.743  14.390
36697W        W 9012  19.630  23.069   1.881
36698W        W 9013   5.736  15.694   3.309
36699W        W 9014  39.928  42.453   1.748
36700W        W 9015  18.059  35.989  14.917
36701W        W 9016  33.602  31.606  10.615
36702W        W 9017  20.734   9.708  11.126
36703W        W 9018   1.453  31.989   0.768
36704W        W 9019  35.003   0.493   1.893
36705W        W 9020  20.100  21.567  11.968
36706W        W 9021   2.752  31.431  14.894
36707W        W 9022  37.509  30.603   4.311
36708W        W 9023   4.796  42.334   1.785
36709W        W 9024   2.943  35.000  14.793
36710W        W 9025  22.503  10.817   0.892
36711W        W 9026  22.659  10.834   3.840
36712W        W 9027  30.601  21.524  13.409
36713W        W 9028  32.022  19.627   4.805
36714W        W 9029  40.421   2.389   3.335
36715W        W 9030  44.331  25.086  11.996
36716W        W 9031  34.379  42.937   0.477
36717W        W 9032   3.822   7.324   3.780
36718W        W 9033  11.361  16.578   1.784
36719W        W 9034  29.619   3.935  11.993
36720W        W 9035   7.680  32.112  10.905
36721W        W 9036  39.929  24.008  13.064
36722W        W 9037  37.379  23.701   3.363
36723W        W 9038  42.923  36.458  12.366
36724W        W 9039  35.581   6.698   0.258
36725W        W 9040   2.926  17.583  10.428
36726W        W 9041   9.222  31.409   2.803
36727W        W 9042  29.427  25.202  12.848
36728W        W 9043  11.319   2.905   2.743
36729W        W 9044  31.099   1.268   4.114
36730W        W 9045  30.504   8.227  12.053
36731W        W 9046   8.855  44.505   3.281
36732W        W 9047  44.460  27.129   3.653
36733W        W 9048  28.591   2.879  14.868
36734W        W 9049  33.078  22.592  12.464
36735W        W 9050  44.981  44.462  14.329
36736W        W 9051  34.382  27.533   2.254
36737W        W 9052  31.146   0.857   3.326
36738W        W 9053  32.125  36.513   0.455
36739W        W 9054  15.672  34.473  11.945
36740W        W 9055  22.598  31.150  14.990
36741W        W 9056  15.187  36.512  11.984
36742W        W 9057   5.348  38.528  14.916
36743W        W 9058  34.940  11.272  11.075
36744W        W 9059   1.298  26.527  13.476
36745W        W 9060  16.147  12.806  10.563
36746W        W 9061  25.000  24.523  11.389
36747W        W 9062  23.106   5.855   0.780
36748W        W 9063  33.943  29.079  13.469
36749W        W 9064  15.089   9.738  11.963
36750W        W 9065  41.313   8.229   0.454
36751W        W 9066  36.890  17.255   4.244
36752W        W 9067  13.771  31.029   3.684
36753W        W 9068  23.698  30.564  13.308
36754W        W 9069  25.998  10.174  14.322
36755W        W 9070  35.379  15.734   2.712
36756W        W 9071  23.567   5.846  10.627
36757W        W 9072   3.828  13.801   3.228
36758W        W 9073   0.836  36.498  11.994
36759W        W 9074  11.127  14.132  10.982
36760W        W 9075  24.217  31.041  13.912
36761W        W 9076  42.974  17.596  12.496
36762W        W 9077   0.407   4.797  12.934
36763W        W 9078  20.112  17.113  14.020
36764W        W 9079  21.072   2.237   1.725
36765W        W 9080  31.424  38.325  14.303
36766W        W 9081  37.073  10.325   1.905
36767W        W 9082  13.746  42.295  11.010
36768W        W 9083  39.941  32.541   3.811
36769W        W 9084  32.477  24.002   0.419
36770W        W 9085  21.643   9.693  14.324
36771W        W 9086  20.175   0.448  11.513
36772W        W 9087  27.630  33.074  12.088
36773W        W 9088  44.403  11.681   2.885
36774W        W 9089   9.702  10.797  10.944
36775W        W 9090   3.876  36.999  14.453
36776W        W 9091  13.702  25.640  13.347
36777W        W 9092  31.627   4.362  10.415
36778W        W 9093  14.329  37.420   5.245
36779W        W 9094  14.670  18.715  14.939
36780W        W 9095  39.960   3.798   0.281
36781W        W 9096  30.153  33.389  12.056
36782W        W 9097   4.905  14.227  13.805
36783W        W 9098  20.527   2.741   3.787
36784W        W 9099  42.875  30.467  10.979
36785W        W 9100  12.768  19.685  11.482
36786W        W 9101  30.495   3.723  14.385
36787W        W 9102  40.426  12.796   1.432
36788W        W 9103  26.673  37.843  10.965
36789W        W 9104  24.017   0.250   1.800
36790W        W 9105  44.337  11.248  10.506
36791W        W 9106  37.071   8.336  10.449
36792W        W 9107  39.020  25.559   1.446
36793W        W 9108  18.739   1.426  11.514
36794W        W 9109  42.992  23.538   0.386
36795W        W 9110   3.451  34.989  14.833
36796W        W 9111  41.331  34.451   0.391
36797W        W 9112   3.839  35.911  13.861
36798W        W 9113  11.798  22.122   1.746
36799W        W 9114  12.272  24.535  11.864
36800W        W 9115  31.005  22.046  13.012
36801W        W 9116   0.315  27.472   3.671
36802W        W 9117  14.222   2.276  10.550
36803W        W 9118  18.135  44.337   4.702
36804W        W 9119  24.706  17.138   3.200
36805W        W 9120  40.038  28.000  10.938
36806W        W 9121  34.052  39.909  10.916
36807W        W 9122   7.315  35.041   4.305
36808W        W 9123   7.862  10.372   0.802
36809W        W 9124  22.056  33.061   1.739
36810W        W 9125   1.839  42.979  13.865
36811W        W 9126  11.342  34.884   2.761
36812W        W 9127  22.533  14.764   3.235
36813W        W 9128  36.560  19.065  11.436
36814W        W 9129  29.125  31.559  11.890
36815W        W 9130  19.662  15.302  14.433
36816W        W 9131  36.907  26.515  11.124
36817W        W 9132   3.425  44.406   0.364
36818W        W 9133  41.943  19.591  12.968
36819W        W 9134  28.075  22.605  11.401
36820W        W 9135  31.045  36.407  11.980
36821W        W 9136  37.050  13.282  14.001
36822W        W 9137   1.774  19.563   3.149
36823W        W 9138  33.539  18.067  13.989
36824W        W 9139   9.686  18.238   1.878
36825W        W 9140  32.539  23.600   1.853
36826W        W 9141   5.242   3.910  11.033
36827W        W 9142  20.136  41.980  14.004
36828W        W 9143  33.500  41.345   1.298
36829W        W 9144  32.891  35.459   2.245
36830W        W 9145   1.853  44.841   3.724
36831W        W 9146  34.038   3.338   5.120
36832W        W 9147  42.895  12.761  12.987
36833W        W 9148   2.933  15.187   0.758
36834W        W 9149  43.450  34.406   3.815
36835W        W 9150  23.114   9.357  14.940
36836W        W 9151  33.966  13.610  11.544
36837W        W 9152   6.187  22.585   9.934
36838W        W 9153  25.628  14.280   4.186
36839W        W 9154   1.415  33.961  12.009
36840W        W 9155  23.582   7.734   2.336
36841W        W 9156   0.920  12.706   2.663
36842W        W 9157  42.784  19.758  12.955
36843W        W 9158  31.454  21.628   2.859
36844W        W 9159   7.289  16.260   4.753
36845W        W 9160   0.378  10.356   1.774
36846W        W 9161   4.803  19.278  11.858
36847W        W 9162  22.587  15.273   0.388
36848W        W 9163  17.604   3.768   2.661
36849W        W 9164  43.501  43.383  10.944
36850W        W 9165  32.586  17.224  10.158
36851W        W 9166  10.298  18.694   2.849
36852W        W 9167  20.716   3.225   2.324
36853W        W 9168   3.325  27.016  14.381
36854W        W 9169   0.316   1.891   4.116
36855W        W 9170   1.259  42.382  11.448
36856W        W 9171   6.297  32.424  14.002
36857W        W 9172  20.522   3.261  11.104
36858W        W 9173  19.133  38.414  11.381
36859W        W 9174  13.204  27.112  12.523
36860W        W 9175  41.788  40.961   2.311
36861W        W 9176  34.117  34.559  14.316
36862W        W 9177  15.581  27.468  12.379
36863W        W 9178   7.311  11.699  13.889
36864W        W 9179  24.188  35.102   3.820
36865W        W 9180  27.188  43.863  12.832
36866W        W 9181  36.480  20.748  13.927
36867W        W 9182  10.705  10.202  14.456
36868W        W 9183  36.358  31.606   1.929
36869W        W 9184   5.216  43.958  11.594
36870W        W 9185  28.044  28.129  11.003
36871W        W 9186  15.105  13.629   3.284
36872W        W 9187  25.487  37.409   0.461
36873W        W 9188  24.133  16.571   3.359
36874W        W 9189   0.853  15.240   3.170
36875W        W 9190  37.534  28.626  12.428
36876W        W 9191  15.155  27.017   3.164
36877W        W 9192  38.439  29.951  12.518
36878W        W 9193  17.286   6.304  12.527
36879W        W 9194  15.659  29.459   0.321
36880W        W 9195  18.634  32.427  11.975
36881W        W 9196   6.854  31.959  11.598
36882W        W 9197  23.626  19.731  10.485
36883W        W 9198  16.288  39.524  14.022
36884W        W 9199  11.794   7.803   2.283
36885W        W 9200  16.252  18.174  14.981
36886W        W 9201  40.048   5.358   1.731
36887W        W 9202  14.297  39.437  10.989
36888W        W 9203   6.345  28.553  11.421
36889W        W 9204  24.147  20.166   0.790
36890W        W 9205  35.358  19.765   1.822
36891W        W 9206  25.518  39.383   3.255
36892W        W 9207  15.147   5.702   2.711
36893W        W 9208   8.388  33.496   4.833
36894W        W 9209  40.821  27.118   3.774
36895W        W 9210   3.905  26.671   1.451
36896W        W 9211  38.459  25.116  11.497
36897W        W 9212  21.159  39.329  11.041
36898W        W 9213  35.474  17.238   2.791
36899W        W 9214  25.561  31.506   1.923
36900W        W 9215  32.536  21.688   3.776
36901W        W 9216  22.018  34.115   1.327
36902W        W 9217   4.216  36.043   0.439
36903W        W 9218  25.525   1.869  14.944
36904W        W 9219  35.401   0.752   0.923
36905W        W 9220  32.426  39.488   4.732
36906W        W 9221  19.186  36.349   1.448
36907W        W 9222  17.767  27.578   1.326
36908W        W 9223  33.982  27.991  11.466
36909W        W 9224   7.794   9.298   1.907
36910W        W 9225  26.631  15.299  10.127
36911W        W 9226  23.629  43.337  12.388
36912W        W 9227   4.797  41.331   0.919
36913W        W 9228  35.570  18.657   2.390
36914W        W 9229  16.655  20.091  11.553
36915W        W 9230   6.691   9.178   2.303
36916W        W 9231  10.143   5.791  13.486
36917W        W 9232  19.267  33.541   4.113
36918W        W 9233  29.090  17.063   0.809
36919W        W 9234  17.200  12.310   2.733
36920W        W 9235  37.083   9.789  14.333
36921W        W 9236   7.366  33.075  10.953
36922W        W 9237  24.091  44.347  12.477
36923W        W 9238  40.819  36.027  11.503
36924W        W 9239  18.154  44.772   3.666
36925W        W 9240  24.606  44.845   0.322
36926W        W 9241  13.844   3.914  10.551
36927W        W 9242  16.758  26.474  10.933
36928W        W 9243   7.212   6.793  13.845
36929W        W 9244  24.231  26.086  14.349
36930W        W 9245   9.362  15.790   2.378
36931W        W 9246  36.557  38.902   9.950
36932W        W 9247  34.884   0.872  12.444
36933W        W 9248   6.384   3.805  14.821
36934W        W 9249  29.469   9.741  14.405
36935W        W 9250  26.599  11.276  10.441
36936W        W 9251  37.084  24.025   4.658
36937W        W 9252  23.178  38.925   3.163
36938W        W 9253  30.604  21.665   4.307
36939W        W 9254   1.345  40.478   1.293
36940W        W 9255  41.817  24.014  12.036
36941W        W 9256  12.660  34.875   3.766
36942W        W 9257  42.367  31.115  14.998
36943W        W 9258  27.042   7.669  10.959
36944W        W 9259  36.425  35.514   3.816
36945W        W 9260  30.135  38.908   1.867
36946W        W 9261  28.976  42.459  11.881
36947W        W 9262  18.624   0.847   4.180
36948W        W 9263  32.459  23.101   4.241
36949W        W 9264  29.962  42.452  13.436
36950W        W 9265  27.041  41.839   3.647
36951W        W 9266  19.155  41.503  14.289
36952W        W 9267  22.025  32.619   2.313
36953W        W 9268  23.166   5.728  10.557
36954W        W 9269   8.191   8.216   0.247
36955W        W 9270  25.213  28.998  12.942
36956W        W 9271   0.410  29.655  14.835
36957W        W 9272  36.938  16.243   0.968
36958W        W 9273   8.326  33.918  10.489
36959W        W 9274  41.911  20.120  10.415
36960W        W 9275  22.030  44.401   0.930
36961W        W 9276  43.842  10.173  11.951
36962W        W 9277   7.194  27.641  12.861
36963W        W 9278  21.190  18.669  10.491
36964W        W 9279  20.679  40.351  12.955
36965W        W 9280  36.930  27.142   0.809
36966W        W 9281  34.412   3.443   0.905
36967W        W 9282  27.669   5.288  12.005
36968W        W 9283  42.985  44.809   1.261
36969W        W 9284  29.645  34.606   1.720
36970W        W 9285  38.917  42.846   0.919
36971W        W 9286  18.246   1.742   3.676
36972W        W 9287   2.237  24.017   0.932
36973W        W 9288   8.369  42.403   1.359
36974W        W 9289  28.618  37.516   0.819
36975W        W 9290   0.284   7.837  11.976
36976W        W 9291  14.265  35.597  12.498
36977W        W 9292  14.688  20.757  12.440
36978W        W 9293  23.495  12.308   3.204
36979W        W 9294  20.732   2.265  13.839
36980W        W 9295   5.903  35.526  11.013
36981W        W 9296  34.457  20.746   4.158
36982W        W 9297   1.264   3.743  14.004
36983W        W 9298   5.902  20.050   0.261
36984W        W 9299  28.072  31.440  10.428
36985W        W 9300  38.539   4.768  10.950
36986W        W 9301  23.232   0.970   3.351
36987W        W 9302   5.267  24.049  14.931
36988W        W 9303  31.414  15.284  14.939
36989W        W 9304   4.757  25.522   2.218
36990W        W 9305  24.666  38.549  13.996
36991W        W 9306  25.019  41.032  14.957
36992W        W 9307  15.321  23.556   0.249
36993W        W 9308  16.269   3.721  12.029
36994W        W 9309   5.759   1.821   2.801
36995W        W 9310  12.757  44.384  13.983
36996W        W 9311  28.540  41.856   3.746
36997W        W 9312  41.023  11.694  10.927
36998W        W 9313  37.351  24.585  14.911
36999W        W 9314   6.400  18.696   4.151
37000W        W 9315  41.340  26.026  12.927
37001W        W 9316  20.038  35.087  10.457
37002W        W 9317  11.365  26.077   1.361
37003W        W 9318   2.321   6.379  12.459
37004W        W 9319  28.493  31.043   1.419
37005W        W 9320  19.577  21.188   4.288
37006W        W 9321   5.856  15.698  11.482
37007W        W 9322  39.345  25.202   4.230
37008W        W 9323  30.033  16.570  13.481
37009W        W 9324  10.773   5.750   1.242
37010W        W 9325  10.305  39.953  12.341
37011W        W 9326  40.006  21.043   1.808
37012W        W 9327   6.304  15.619   3.307
37013W        W 9328  26.656   9.167   3.191
37014W        W 9329   3.744  39.856   4.640
37015W        W 9330   6.828  41.988  14.308
37016W        W 9331  42.805  26.996   2.676
37017W        W 9332  32.890  38.358  10.632
37018W        W 9333  28.159  37.427  11.375
37019W        W 9334  40.370   6.344   1.837
37020W        W 9335   8.324   8.331   4.726
37021W        W 9336   5.336  13.292   3.734
37022W        W 9337  10.229  39.422  12.041
37023W        W 9338  22.544   9.153  11.481
37024W        W 9339  22.687  24.551   1.807
37025W        W 9340  29.444  35.387   0.938
37026W        W 9341  15.704   1.391  14.462
37027W        W 9342  12.140   7.772   3.311
37028W        W 9343  28.979  36.964  10.979
37029W        W 9344  26.035  14.245   3.652
37030W        W 9345   8.219  29.080  13.791
37031W        W 9346  28.664  35.568   1.877
37032W        W 9347  19.057   8.221   3.370
37033W        W 9348  23.518  11.254   3.699
37034W        W 9349  13.134  24.545   0.726
37035W        W 9350   8.886  14.649  13.411
37036W        W 9351  33.461   7.825   3.682
37037W        W 9352  43.275  19.741   0.816
37038W        W 9353  41.825  41.514   1.823
37039W        W 9354  36.996  38.555   4.627
37040W        W 9355  43.781   6.859  14.761
37041W        W 9356  25.708   4.842   0.823
37042W        W 9357  19.253  28.026  11.501
37043W        W 9358  28.613  34.108  11.912
37044W        W 9359  10.648  29.538   3.357
37045W        W 9360  15.086  13.220  11.951
37046W        W 9361  36.078   7.810  13.801
37047W        W 9362  37.337  37.492   0.824
37048W        W 9363  32.035  17.751   1.719
37049W        W 9364  24.201  21.020  14.476
37050W        W 9365  42.499  42.295  13.508
37051W        W 9366  29.145  44.985  10.952
37052W        W 9367  16.217  40.897  12.999
37053W        W 9368  13.605   6.900   1.220
37054W        W 9369   2.326  15.603  12.856
37055W        W 9370  19.757  34.375   0.896
37056W        W 9371  22.657  43.315  12.935
37057W        W 9372  22.617   6.327   3.345
37058W        W 9373  16.160  35.934   2.321
37059W        W 9374   3.870  11.339  13.345
37060W        W 9375   2.870  25.520  14.288
37061W        W 9376  19.109  26.522   4.138
37062W        W 9377  33.527  24.976   9.943
37063W        W 9378  23.009  10.310  12.358
37064W        W 9379   1.850   7.681  13.886
37065W        W 9380   3.871  13.846  14.505
37066W        W 9381  43.018  42.338  11.469
37067W        W 9382   5.883  38.405   4.211
37068W        W 9383  22.722  36.908   4.143
37069W        W 9384  40.826  10.760  13.431
37070W        W 9385  15.605  37.380  12.979
37071W        W 9386  44.399  26.093  11.534
37072W        W 9387   6.772  12.794   4.615
37073W        W 9388  20.156  17.155   1.370
37074W        W 9389  34.433  39.043   0.909
37075W        W 9390  24.499   9.287   0.252
37076W        W 9391  13.751  31.926   3.324
37077W        W 9392  19.280  24.020  13.985
37078W        W 9393  42.954  15.164  12.974
37079W        W 9394   0.870  13.123  12.372
37080W        W 9395   5.912   6.768  13.023
37081W        W 9396  11.703  31.985   9.986
37082W        W 9397  37.962   1.975   1.237
37083W        W 9398  15.302  38.058   2.329
37084W        W 9399  19.145   6.199   1.815
37085W        W 9400  24.708  37.934   3.869
37086W        W 9401  12.789  40.443  12.942
37087W        W 9402  44.488  12.261   2.382
37088W        W 9403   8.215  28.474   1.767
37089W        W 9404  24.512   5.885  10.444
37090W        W 9405  12.755  26.125   0.400
37091W        W 9406  16.183  21.131   4.139
37092W        W 9407   9.258  36.412   1.892
37093W        W 9408  26.108  12.774   4.209
37094W        W 9409  21.089  36.384   2.357
37095W        W 9410  15.127  16.281   2.831
37096W        W 9411  26.144  21.127   2.181
37097W        W 9412  37.350  39.329   2.785
37098W        W 9413  21.629  15.681  11.994
37099W        W 9414  36.449  37.877  14.016
37100W        W 9415  41.933  21.656   1.221
37101W        W 9416  30.072  31.453  12.388
37102W        W 9417  23.005  13.146   1.362
37103W        W 9418   2.880  40.955   1.309
37104W        W 9419  31.945  12.306  13.521
37105W        W 9420  29.535  39.918   3.757
37106W        W 9421  34.548  43.322  12.887
37107W        W 9422  17.629  14.686  14.391
37108W        W 9423  18.752  19.253  12.531
37109W        W 9424   7.760  33.925  13.522
37110W        W 9425  36.905  34.543  11.560
37111W        W 9426  10.828  28.631  11.016
37112W        W 9427  29.006  15.201  11.055
37113W        W 9428  31.942  10.795  11.864
37114W        W 9429  36.465   3.410  14.926
37115W        W 9430  12.206  42.370  10.600
37116W        W 9431  25.982  31.419   4.612
37117W        W 9432  21.635  41.938  11.966
37118W        W 9433  28.507  32.063   0.874
37119W        W 9434  27.578  41.396   4.704
37120W        W 9435  21.114  16.670   3.650
37121W        W 9436  44.003  18.294  13.449
37122W        W 9437   8.253  15.158   3.186
37123W        W 9438  42.521  23.528  12.932
37124W        W 9439  25.977   1.406  13.834
37125W        W 9440   8.808  44.283   3.821
37126W        W 9441   4.364  40.977   4.705
37127W        W 9442  32.452   6.306  13.035
37128W        W 9443  39.509  27.034  14.427
37129W        W 9444  43.458  28.516  10.610
37130W        W 9445   5.280  16.714  12.492
37131W        W 9446  33.953  42.350   1.926
37132W        W 9447  18.242  28.649  10.965
37133W        W 9448  35.932  44.982   1.420
37134W        W 9449  34.003  12.653  14.967
37135W        W 9450   9.274  21.626   2.690
37136W        W 9451  25.049   5.903   2.249
37137W        W 9452  34.939  23.520  13.821
37138W        W 9453   1.461   5.245  12.847
37139W        W 9454   7.825  20.653  10.484
37140W        W 9455  18.711  42.460   2.318
37141W        W 9456  14.788  36.354  14.352
37142W        W 9457  42.785  42.382  12.523
37143W        W 9458  27.501   9.190  14.822
37144W        W 9459  10.366   9.738  14.929
37145W        W 9460  33.116  15.620  10.936
37146W        W 9461  11.345  24.707  13.845
37147W        W 9462   1.934   0.805  11.398
37148W        W 9463  29.633  35.912  13.980
37149W        W 9464  13.678  22.708   0.403
37150W        W 9465  39.886  34.402   0.448
37151W        W 9466  11.855  18.284   4.759
37152W        W 9467  44.871  27.082  10.562
37153W        W 9468   3.890   1.363  12.021
37154W        W 9469  27.949  35.436  12.861
37155W        W 9470  44.919   1.337  12.504
37156W        W 9471  44.334  14.231  10.938
37157W        W 9472  15.155  36.001   3.827
37158W        W 9473  38.528   6.906   1.694
37159W        W 9474   6.754   7.365  12.516
37160W        W 9475  37.513  39.853   3.179
37161W        W 9476  11.681   7.336  12.883
37162W        W 9477  24.113  10.671  11.114
37163W        W 9478  22.188   6.259  12.081
37164W        W 9479  36.355   4.318   4.155
37165W        W 9480  35.404   5.802  12.992
37166W        W 9481  21.547  18.230  13.967
37167W        W 9482  40.932   1.411  11.469
37168W        W 9483  36.083   6.861  14.879
37169W        W 9484   7.281  35.956   2.885
37170W        W 9485  44.278   7.204   1.722
37171W        W 9486  17.174  18.219   0.850
37172W        W 9487  26.555   4.208   4.721
37173W        W 9488  20.541  19.079   2.881
37174W        W 9489  10.835   8.235  13.956
37175W        W 9490  29.986  25.713   0.302
37176W        W 9491  14.733  38.412  11.083
37177W        W 9492   6.379  27.105   2.689
37178W        W 9493  43.310  18.217  10.935
37179W        W 9494  42.991   0.951   3.384
37180W        W 9495  17.065  24.632  14.333
37181W        W 9496  13.161  41.006   4.222
37182W        W 9497  19.686  26.063   2.737
37183W        W 9498  44.846  26.539   3.867
37184W        W 9499  39.990  38.506  12.026
37185W        W 9500  38.472  32.060  13.823
37186W        W 9501  23.082  15.292  10.502
37187W        W 9502  18.772   4.349   3.774
37188W        W 9503  26.062   7.210   1.914
37189W        W 9504  20.214  29.958  12.006
37190W        W 9505  43.445   9.756   0.322
37191W        W 9506  15.166  41.929  12.860
37192W        W 9507  23.686  36.845  14.914
37193W        W 9508  10.283  22.572  13.533
37194W        W 9509  29.555  21.198   1.325
37195W        W 9510   4.386  42.019   1.340
37196W        W 9511  22.501   3.722   2.207
37197W        W 9512  43.415  35.873  14.025
37198W        W 9513  23.672  31.419  13.876
37199W        W 9514  44.952  35.095  14.420
37200W        W 9515  12.152  27.462   2.233
37201W        W 9516  20.170   2.438  10.892
37202W        W 9517  40.962  26.079  10.413
37203W        W 9518   5.883  28.139  11.885
37204W        W 9519  26.114  21.072  13.874
37205W        W 9520   5.769  34.115  11.605
37206W        W 9521   6.384  20.664   3.170
37207W        W 9522   6.728  22.096   4.814
37208W        W 9523  42.903  16.669   3.165
37209W        W 9524  37.859   7.368  12.885
37210W        W 9525  10.767  40.054   0.271
37211W        W 9526  40.493   7.192  11.046
37212W        W 9527  33.898  14.229  12.014
37213W        W 9528  39.367   0.290   2.243
37214W        W 9529  25.542  37.019   3.643
37215W        W 9530   7.368  35.572  12.382
37216W        W 9531  31.920  21.234  14.504
37217W        W 9532  42.977   5.766   1.872
37218W        W 9533  43.795  38.946   2.355
37219W        W 9534  23.164  20.548  12.039
37220W        W 9535  20.735  27.622   0.256
37221W        W 9536  14.653  25.683   2.242
37222W        W 9537  38.977  36.489  12.898
37223W        W 9538   8.854  36.498  10.521
37224W        W 9539  33.022  35.904  12.059
37225W        W 9540  28.040  23.679   0.413
37226W        W 9541  34.083   7.747   0.391
37227W        W 9542   5.898  10.312   1.346
37228W        W 9543  24.693  19.765  14.770
37229W        W 9544  32.092   0.494  10.105
37230W        W 9545  26.460   8.666  13.376
37231W        W 9546  40.975  37.553   0.381
37232W        W 9547  42.452  27.513   3.335
37233W        W 9548  31.626  14.694   3.296
37234W        W 9549  44.904  44.924  10.519
37235W        W 9550  33.024  11.370  14.307
37236W        W 9551  27.526  33.131   1.929
37237W        W 9552  31.429  19.692  11.520
37238W        W 9553  26.101   4.250   3.174
37239W        W 9554  44.333  12.264   3.367
37240W        W 9555   9.659  23.650  10.437
37241W        W 9556  30.480  44.823  10.995
37242W        W 9557   2.850   4.914   1.704
37243W        W 9558  37.889   9.228  10.443
37244W        W 9559  41.388   6.382   3.173
37245W        W 9560  39.388   4.241  14.847
37246W        W 9561  27.630  20.625   0.387
37247W        W 9562   1.247  41.899  14.876
37248W        W 9563  38.478  41.838   4.666
37249W        W 9564  27.961  26.166  10.550
37250W        W 9565  40.377  39.422   3.342
37251W        W 9566  15.182   5.324  10.904
37252W        W 9567  40.910   9.852   2.823
37253W        W 9568   4.382   6.422  12.982
37254W        W 9569   1.839  33.396  10.630
37255W        W 9570  21.528  42.859  12.517
37256W        W 9571  40.000  40.374   4.655
37257W        W 9572  30.074  22.058  12.412
37258W        W 9573  29.459  41.841  12.503
37259W        W 9574   2.842  43.516   3.781
37260W        W 9575  18.188   2.316   2.684
37261W        W 9576  17.215   7.310   2.781
37262W        W 9577  30.426  39.344   4.197
37263W        W 9578   0.402  31.902   4.182
37264W        W 9579   5.202  28.585   2.826
37265W        W 9580  15.712  19.098   1.295
37266W        W 9581   2.441   6.195  13.035
37267W        W 9582  13.665   4.882   0.251
37268W        W 9583  32.066  24.027   4.189
37269W        W 9584  22.162  44.008  14.814
37270W        W 9585  34.590  37.963  11.900
37271W        W 9586  18.600  25.051  10.057
37272W        W 9587   4.911   3.267   3.243
37273W        W 9588   1.809  23.543  12.883
37274W        W 9589  28.044  32.577   4.729
37275W        W 9590  40.358  25.684   9.635
37276W        W 9591  26.194   0.959   0.952
37277W        W 9592   6.227  10.701   0.911
37278W        W 9593  16.687  44.939  11.424
37279W        W 9594   8.681  15.677   0.747
37280W        W 9595  22.734   3.945  11.950
37281W        W 9596  39.819  38.478  11.470
37282W        W 9597   9.799  12.685   1.917
37283W        W 9598  32.025  36.935   4.811
37284W        W 9599   0.298  32.479   0.397
37285W        W 9600  36.881  42.501   4.660
37286W        W 9601  39.017  16.574  12.357
37287W        W 9602  25.205  13.677   0.735
37288W        W 9603  30.977   8.734  11.558
37289W        W 9604  23.607  40.852   2.712
37290W        W 9605  32.406   5.314  11.056
37291W        W 9606  36.448  42.334  12.877
37292W        W 9607  33.519  12.762  10.464
37293W        W 9608  28.073  23.057   3.731
37294W        W 9609  33.091   6.679   1.345
37295W        W 9610  38.384   0.939   2.890
37296W        W 9611  37.431  12.753  10.519
37297W        W 9612  25.541  42.445   3.327
37298W        W 9613  35.398  13.825  12.396
37299W        W 9614  11.141  16.240   3.679
37300W        W 9615   0.887   4.748   4.649
37301W        W 9616  24.125  29.939   0.936
37302W        W 9617   3.297  11.270  12.501
37303W        W 9618  19.090  10.316  11.957
37304W        W 9619  24.675  37.413   4.723
37305W        W 9620  27.501  20.645  13.425
37306W        W 9621   4.364   6.844  12.412
37307W        W 9622  39.853   0.965  12.071
37308W        W 9623  39.925  38.432   3.753
37309W        W 9624  44.858  14.256  14.017
37310W        W 9625  31.926  31.024   1.885
37311W        W 9626   4.750  39.380  11.430
37312W        W 9627  12.317  23.138  12.867
37313W        W 9628  39.055  29.170   9.964
37314W        W 9629  14.598   0.293  14.319
37315W        W 9630  29.017   4.775  14.949
37316W        W 9631  13.136  39.993   4.285
37317W        W 9632  11.651  20.528   2.851
37318W        W 9633   7.731   7.194  13.314
37319W        W 9634  14.684  11.278   1.386
37320W        W 9635  36.443  29.553  13.502
37321W        W 9636  30.161  20.738  13.034
37322W        W 9637  24.489  42.406   0.915
37323W        W 9638   4.757   6.209  13.472
37324W        W 9639  15.647  39.930   1.414
37325W        W 9640   6.707  38.046  10.896
37326W        W 9641  13.345   9.219  14.411
37327W        W 9642  22.595  26.505   3.387
37328W        W 9643  25.601  12.705  12.980
37329W        W 9644  42.282  37.941   2.727
37330W        W 9645  32.451  28.971   4.228
37331W        W 9646  20.141  32.507  10.454
37332W        W 9647  37.974  29.460  11.056
37333W        W 9648  18.125   3.907  13.411
37334W        W 9649  19.101  10.722  10.509
37335W        W 9650  16.688   5.437   0.419
37336W        W 9651   1.865  34.382   1.448
37337W        W 9652  22.602  21.211   4.815
37338W        W 9653  10.353  30.644  11.536
37339W        W 9654  22.676  27.446  12.052
37340W        W 9655  12.266  27.968   2.771
37341W        W 9656   7.781  38.367   3.278
37342W        W 9657  18.637  13.122   1.814
37343W        W 9658  42.029  40.853  13.951
37344W        W 9659  35.392  39.454  13.516
37345W        W 9660   2.956  15.154   4.697
37346W        W 9661  26.495  29.004  14.851
37347W        W 9662  42.778   2.949   4.259
37348W        W 9663  25.096   1.343   1.366
37349W        W 9664  38.351  10.330  10.548
37350W        W 9665  35.049  33.907  13.961
37351W        W 9666  14.655  26.056  12.949
37352W        W 9667  43.446  39.422   1.241
37353W        W 9668   0.972  38.926  13.378
37354W        W 9669  44.260  19.603  14.976
37355W        W 9670  20.609  29.037  12.411
37356W        W 9671  11.214  24.492  14.372
37357W        W 9672  43.439  39.470  13.803
37358W        W 9673   7.256  32.632  13.310
37359W        W 9674  12.829  12.678  13.844
37360W        W 9675  24.556  10.225  12.903
37361W        W 9676   6.683  41.867   3.765
37362W        W 9677  16.216  21.075  14.899
37363W        W 9678   8.842  15.297  13.807
37364W        W 9679  43.348  10.373   2.320
37365W        W 9680  42.804   4.777   2.228
37366W        W 9681  14.126  35.434   1.382
37367W        W 9682  36.546  36.495   4.700
37368W        W 9683   3.776  17.227  14.416
37369W        W 9684  24.114   3.256   2.706
37370W        W 9685  44.842  25.540  14.300
37371W        W 9686  31.900  10.275  12.551
37372W        W 9687   4.884  39.501  13.359
37373W        W 9688  21.745   0.846   3.815
37374W        W 9689  20.602   0.264  12.093
37375W        W 9690  22.217  39.813   1.924
37376W        W 9691  22.544  11.702   3.209
37377W        W 9692   5.400  19.701  12.082
37378W        W 9693  28.591  15.215  11.127
37379W        W 9694  44.462  42.851  14.953
37380W        W 9695  31.947  19.042  13.379
37381W        W 9696  24.077   4.212   0.836
37382W        W 9697  26.618  17.269  10.626
37383W        W 9698   3.920  23.129  12.416
37384W        W 9699  11.634  16.774  12.877
37385W        W 9700  25.498  44.375  13.034
37386W        W 9701   0.315  12.148   1.353
37387W        W 9702   9.348  12.748   0.810
37388W        W 9703  29.520  25.687   1.753
37389W        W 9704   1.913  33.938  13.523
37390W        W 9705  40.332  12.856   0.825
37391W        W 9706  13.801  33.932   1.773
37392W        W 9707  44.334  29.164  14.787
37393W        W 9708   7.685   0.332  13.461
37394W        W 9709   5.265  44.976  10.643
37395W        W 9710  13.687  33.453  14.452
37396W        W 9711  27.180   6.857   1.433
37397W        W 9712  21.197  20.176   2.302
37398W        W 9713   4.916  29.603   3.342
37399W        W 9714  38.508   8.809  13.929
37400W        W 9715   8.352  37.867  11.096
37401W        W 9716  29.467  41.487   2.317
37402W        W 9717  19.151  38.451  14.816
37403W        W 9718  43.293  18.083   1.420
37404W        W 9719  27.535  21.643   4.601
37405W        W 9720  41.937  39.008  10.409
37406W        W 9721  18.791   4.806  10.912
37407W        W 9722  34.440  43.771   4.153
37408W        W 9723  28.971  35.597   1.697
37409W        W 9724   9.232  42.462  14.925
37410W        W 9725  26.965  42.895   4.222
37411W        W 9726   9.348  27.189  11.467
37412W        W 9727  35.988  30.539  11.985
37413W        W 9728  39.938   1.257  10.559
37414W        W 9729  29.523   6.870  11.467
37415W        W 9730  24.189  19.210  12.870
37416W        W 9731  23.605  23.152   1.308
37417W        W 9732  30.075  43.464  13.369
37418W        W 9733  38.551  24.083   2.367
37419W        W 9734  33.474   4.410   0.807
37420W        W 9735  11.195  41.376  13.351
37421W        W 9736  22.020  23.238   0.907
37422W        W 9737   3.808  43.297   3.720
37423W        W 9738  16.786   2.384   0.421
37424W        W 9739   0.379  42.861   1.756
37425W        W 9740  17.299   3.757   1.820
37426W        W 9741  33.398  14.792   1.370
37427W        W 9742   8.767  30.988  10.469
37428W        W 9743  21.246  12.186  14.999
37429W        W 9744  13.833  23.710  14.788
37430W        W 9745   4.873  44.828   3.268
37431W        W 9746  40.389  24.558   3.336
37432W        W 9747   1.976  14.311   4.294
37433W        W 9748  16.812  12.671   4.341
37434W        W 9749  27.070  33.094  13.497
37435W        W 9750   6.699  42.514  12.080
37436W        W 9751  26.588  24.621  11.066
37437W        W 9752   6.836  25.971   3.302
37438W        W 9753  36.552   9.221   3.702
37439W        W 9754  13.158  23.714   9.966
37440W        W 9755  10.781   3.871   0.757
37441W        W 9756  28.631  24.111   0.879
37442W        W 9757  22.049  28.490  14.415
37443W        W 9758  37.054   3.320   2.216
37444W        W 9759  23.692  28.959   1.230
37445W        W 9760  18.745  21.623  11.430
37446W        W 9761  42.866  19.162   4.257
37447W        W 9762  15.669  44.981   0.943
37448W        W 9763  36.483  44.940   0.337
37449W        W 9764   9.734   2.840  11.481
37450W        W 9765  21.560  20.679  11.889
37451W        W 9766   0.953  34.374  13.026
37452W        W 9767  39.008   2.819  10.913
37453W        W 9768   4.428  26.997   1.820
37454W        W 9769   6.885  23.587  10.476
37455W        W 9770  12.648  17.757   1.354
37456W        W 9771   0.821   7.757  10.469
37457W        W 9772   8.355  37.999  13.497
37458W        W 9773  29.538  27.536   0.896
37459W        W 9774  12.233  18.056  10.572
37460W        W 9775  43.399  27.055   2.294
37461W        W 9776   8.229  42.866   1.864
37462W        W 9777   0.475   0.293   1.751
37463W        W 9778   9.338  36.395   3.274
37464W        W 9779  10.834  42.320  12.395
37465W        W 9780  13.771  30.478  14.360
37466W        W 9781   5.884  25.149  13.009
37467W        W 9782  42.965  22.687   4.710
37468W        W 9783  14.261   6.244  13.006
37469W        W 9784  22.514  34.476  10.555
37470W        W 9785  11.651  38.414   1.291
37471W        W 9786  24.003  43.453   2.730
37472W        W 9787  42.475  19.165   2.789
37473W        W 9788  22.008  15.313  14.466
37474W        W 9789  41.939  43.467  14.021
37475W        W 9790  16.582  18.154   4.247
37476W        W 9791   2.842  42.790  13.517
37477W        W 9792  13.842   9.303   2.350
37478W        W 9793  20.568  38.850  13.414
37479W        W 9794  11.634   8.673  13.000
37480W        W 9795   9.242  42.361   0.351
37481W        W 9796  14.636  37.581   4.286
37482W        W 9797   7.336  39.006  11.389
37483W        W 9798  44.829  42.381   4.322
37484W        W 9799  23.519  16.791   0.408
37485W        W 9800  40.486  19.705  14.909
37486W        W 9801  16.706  26.644  13.357
37487W        W 9802  35.510  44.368   3.255
37488W        W 9803  35.926  21.027  13.900
37489W        W 9804  29.143  33.101  10.053
37490W        W 9805   4.406  12.121   3.374
37491W        W 9806  17.620  27.679   0.790
37492W        W 9807  34.559  17.608   2.725
37493W        W 9808   5.297  32.119   3.242
37494W        W 9809  35.419  38.999   0.804
37495W        W 9810  39.510  40.023  12.836
37496W        W 9811   5.236   7.890   2.349
37497W        W 9812  15.168   8.887  12.496
37498W        W 9813  15.222   7.187  12.423
37499W        W 9814  29.163  16.589   2.839
37500W        W 9815   2.753  17.668   0.828
37501W        W 9816  18.104  25.053  14.377
37502W        W 9817  16.156  33.101   4.305
37503W        W 9818  20.553  17.628  11.419
37504W        W 9819  24.048  33.118   1.906
37505W        W 9820  41.979   8.331  11.877
37506W        W 9821   8.273  11.164  13.511
37507W        W 9822  23.719  12.166  13.855
37508W        W 9823  29.538   7.198  13.348
37509W        W 9824  28.477  42.387  13.475
37510W        W 9825  37.076  27.971  14.982
37511W        W 9826  32.977  14.753   0.939
37512W        W 9827   8.279  19.749  12.551
37513W        W 9828   9.828   5.233  11.077
37514W        W 9829  12.714   7.758  12.487
37515W        W 9830  16.602   4.739   3.177
37516W        W 9831  25.191  35.029   4.644
37517W        W 9832   1.429  37.342  14.787
37518W        W 9833  16.753  17.138  14.424
37519W        W 9834  10.152  12.263   0.752
37520W        W 9835  33.109   8.363   1.245
37521W        W 9836  27.575  36.872   1.405
37522W        W 9837  27.192  14.148   3.366
37523W        W 9838   3.295  30.636  12.468
37524W        W 9839  41.787   6.912   2.781
37525W        W 9840  43.439  37.879  12.077
37526W        W 9841  15.173  23.086  12.434
37527W        W 9842  34.899  37.410   0.354
37528W        W 9843  22.513   9.731   4.174
37529W        W 9844  25.195   7.285   3.765
37530W        W 9845  30.105  19.128  13.808
37531W        W 9846  16.212  37.844   0.260
37532W        W 9847  24.527   4.870   2.413
37533W        W 9848  24.596  21.160   5.743
37534W        W 9849   5.335  35.394   0.811
37535W        W 9850   3.417   5.717   2.306
37536W        W 9851  28.487  36.510   0.944
37537W        W 9852  22.695  37.356   0.740
37538W        W 9853  28.501  31.144  14.411
37539W        W 9854  35.483  29.092   4.828
37540W        W 9855  35.972  28.980   1.916
37541W        W 9856  40.930  26.559   2.721
37542W        W 9857  41.023   6.184  12.549
37543W        W 9858  24.033  19.144   1.213
37544W        W 9859   1.341  14.214   0.866
37545W        W 9860  17.291  16.199   4.322
37546W        W 9861  38.501   6.800   4.753
37547W        W 9862  11.716  15.625   3.323
37548W        W 9863  19.162  41.479  14.863
37549W        W 9864   0.974   2.938   2.358
37550W        W 9865  16.790  37.489  10.890
37551W        W 9866   9.743  11.818   0.437
37552W        W 9867  22.228  33.423  13.434
37553W        W 9868  38.465  16.161   1.395
37554W        W 9869  12.629  24.720   1.742
37555W        W 9870   9.826  29.954   1.884
37556W        W 9871  37.509  26.519  10.913
37557W        W 9872  10.285  44.415   0.343
37558W        W 9873  23.209  26.546  14.895
37559W        W 9874  19.641  24.614   1.806
37560W        W 9875  19.731  27.013  12.411
37561W        W 9876  17.162  17.665   3.228
37562W        W 9877  26.703  24.503  12.390
37563W        W 9878  44.829   0.887  12.375
37564W        W 9879  26.009  29.077   1.791
37565W        W 9880  10.197  15.694   1.221
37566W        W 9881   9.291  21.663  14.341
37567W        W 9882   3.916  35.013   4.228
37568W        W 9883  35.032  20.132  12.460
37569W        W 9884  10.352  13.211  10.945
37570W        W 9885  17.256  36.552   2.314
37571W        W 9886  26.656  41.354   0.800
37572W        W 9887   0.367   9.220   5.302
37573W        W 9888   8.769  26.576   2.738
37574W        W 9889  26.058  33.430  12.888
37575W        W 9890  34.588   7.676  14.480
37576W        W 9891  17.579  31.561   0.848
37577W        W 9892  39.845  23.013   3.744
37578W        W 9893   6.218  36.348  13.950
37579W        W 9894  37.940   6.725   1.385
37580W        W 9895  42.431  29.547  12.043
37581W        W 9896  10.316  33.393   1.378
37582W        W 9897  39.818   5.832  13.859
37583W        W 9898  31.589  25.613  12.973
37584W        W 9899  17.304  27.687   3.844
37585W        W 9900   9.282  19.565   1.335
37586W        W 9901   0.936  25.540  10.451
37587W        W 9902  18.232  29.435  13.896
37588W        W 9903  34.504   1.305  14.902
37589W        W 9904   0.436  37.067   2.800
37590W        W 9905  23.654  11.702  12.482
37591W        W 9906  15.138  21.706  12.409
37592W        W 9907   4.844   4.910  13.398
37593W        W 9908  25.194  44.935   3.652
37594W        W 9909  17.601   6.402   3.698
37595W        W 9910   2.837  12.179   3.657
37596W        W 9911  43.312   5.890  11.959
37597W        W 9912  29.172  26.123  12.856
37598W        W 9913  36.349  42.922   0.254
37599W        W 9914  42.000  26.069   1.898
37600W        W 9915  40.472  22.606  10.585
37601W        W 9916  37.428   2.945  10.946
37602W        W 9917   0.785  29.632  13.312
37603W        W 9918  36.055   1.391   4.808
37604W        W 9919  28.075  25.625   2.376
37605W        W 9920  23.208  25.015   1.227
37606W        W 9921  42.815  33.586   0.248
37607W        W 9922  32.000  26.003   4.161
37608W        W 9923   6.709   1.906  12.888
37609W        W 9924  35.026  13.712  14.367
37610W        W 9925  10.637  43.980   1.855
37611W        W 9926  10.740  28.048  12.499
37612W        W 9927   0.866   2.825   4.692
37613W        W 9928   3.366  25.115   0.324
37614W        W 9929  17.140  10.775  11.871
37615W        W 9930  23.160  43.503   3.825
37616W        W 9931  41.364  29.455  12.969
37617W        W 9932   3.429  22.221  13.312
37618W        W 9933  13.139  36.940  13.839
37619W        W 9934  33.544   7.812   2.724
37620W        W 9935  15.151  29.992   9.574
37621W        W 9936  10.255  43.844   4.740
37622W        W 9937   2.881  12.209   0.855
37623W        W 9938  41.883   9.728  13.989
37624W        W 9939  40.539  23.216   0.735
37625W        W 9940  43.775  12.197  12.083
37626W        W 9941  40.844  41.412   4.203
37627W        W 9942   7.251  28.995  14.006
37628W        W 9943   7.333   3.748  11.465
37629W        W 9944  17.159   5.707   2.355
37630W        W 9945  44.813   9.742   4.733
37631W        W 9946  12.848  34.547  12.911
37632W        W 9947  37.920   9.318  13.820
37633W        W 9948  19.584  15.186   2.244
37634W        W 9949  10.320  35.067  10.921
37635W        W 9950  41.804   6.835   4.681
37636W        W 9951  36.068  22.075  12.882
37637W        W 9952  24.489  29.948  14.882
37638W        W 9953  24.582  15.241  12.487
37639W        W 9954   2.912   6.713  12.892
37640W        W 9955  26.023  12.720  12.886
37641W        W 9956   7.185  18.272  12.028
37642W        W 9957  12.768  32.632   1.413
37643W        W 9958  41.043  41.809   0.810
37644W        W 9959  28.550  19.552  13.527
37645W        W 9960  10.363   0.251  14.313
37646W        W 9961  22.151  19.658  13.849
37647W        W 9962   0.887  25.995   1.846
37648W        W 9963   3.892  26.002   1.773
37649W        W 9964  38.908   0.956   5.132
37650W        W 9965  11.697  14.794   3.369
37651W        W 9966  17.186  26.124  14.320
37652W        W 9967  14.274  34.568  12.877
37653W        W 9968  33.611  29.575  13.922
37654W        W 9969   8.276  41.958  11.451
37655W        W 9970  33.001  16.772  14.343
37656W        W 9971  21.540  32.475   0.255
37657W        W 9972  22.060  11.207   3.674
37658W        W 9973  11.172   0.792   2.283
37659W        W 9974  29.056   7.879   4.625
37660W        W 9975  31.953  42.443   1.864
37661W        W 9976  18.166  42.487   4.125
37662W        W 9977  43.492  18.111  14.983
37663W        W 9978  37.494   3.313  11.068
37664W        W 9979   8.197  20.762  13.467
37665W        W 9980   6.813  29.066  10.522
37666W        W 9981  23.725  27.170   2.351
37667W        W 9982  30.127   1.251   0.746
37668W        W 9983  33.514  20.111  11.007
37669W        W 9984  34.900  34.974   1.424
37670W        W 9985  43.838  21.262  14.430
37671W        W 9986   6.249  23.683  13.357
37672W        W 9987  28.520  38.938   1.299
37673W        W 9988   5.196  23.607  10.602
37674W        W 9989  36.373  18.261  14.358
37675W        W 9990  27.175  16.781   3.767
37676W        W 9991  15.810  37.455   0.954
37677W        W 9992  10.181  28.503   3.271
37678W        W 9993  13.781  22.051   1.747
37679W        W 9994  23.203  14.708  10.545
37680W        W 9995  43.830  28.481  11.987
37681W        W 9996  22.196   5.867  13.457
37682W        W 9997  27.483  29.034   3.853
37683W        W 9998  35.030  30.641   2.260
37684W        W 9999  22.041  40.919   3.705
37685W        W10000  35.357   2.772   4.148
37686W        W10001  44.301  34.112   4.195
37687W        W10002  37.348  25.160  10.132
37688W        W10003  40.884   5.294   3.816
37689W        W10004  12.169  13.775   0.275
37690W        W10005  40.495  44.425   3.728
37691W        W10006  22.689   2.345  14.510
37692W        W10007  19.603  15.755   0.874
37693W        W10008  27.178  26.085   1.211
37694W        W10009  24.071  35.430  14.030
37695W        W10010  44.790  18.674  12.879
37696W        W10011   7.743  38.431   0.815
37697W        W10012  25.157   2.923  11.034
37698W        W10013  29.438  14.637   3.342
37699W        W10014   8.769  13.654  11.996
37700W        W10015  10.199   5.205   0.250
37701W        W10016  10.793   5.271  13.325
37702W        W10017   6.188  30.023  13.032
37703W        W10018  37.559   9.708  14.316
37704W        W10019  35.063  32.438  14.777
37705W        W10020  35.537   8.335  11.580
37706W        W10021  23.730  31.429  12.530
37707W        W10022   6.849  42.475   3.344
37708W        W10023  14.636  42.846   2.783
37709W        W10024  23.586   3.716  14.799
37710W        W10025  40.403   4.838  10.459
37711W        W10026  32.536  40.815   2.863
37712W        W10027  29.991   0.912   1.350
37713W        W10028  41.939  33.463  14.516
37714W        W10029  43.320   2.267  12.527
37715W        W10030  29.093  34.107  11.930
37716W        W10031  21.593  36.487  14.510
37717W        W10032  29.984  29.149   3.733
37718W        W10033  42.847  42.965   2.713
37719W        W10034  15.227  39.972  10.528
37720W        W10035  42.915  23.547   4.787
37721W        W10036  14.607  31.589  13.061
37722W        W10037  12.752  43.387   4.264
37723W        W10038  28.578  21.250  13.312
37724W        W10039  42.401  25.189  10.975
37725W        W10040   4.214  17.590  13.449
37726W        W10041   9.744  24.516  14.780
37727W        W10042   6.197  29.496   1.447
37728W        W10043  38.424  15.217  11.950
37729W        W10044  44.481  37.045  13.852
37730W        W10045  26.061  38.914  11.510
37731W        W10046  39.007  31.015  13.962
37732W        W10047  41.389  15.762  10.150
37733W        W10048  41.537  26.968   4.294
37734W        W10049  27.991   7.744   3.210
37735W        W10050  34.566   8.859   3.692
37736W        W10051   6.370   5.355  13.507
37737W        W10052  10.141  35.942  10.454
37738W        W10053  23.141  23.215   2.348
37739W        W10054  25.534  30.071  12.840
37740W        W10055   5.359  37.900   4.704
37741W        W10056   6.798  41.788   4.759
37742W        W10057   4.366   2.232   4.301
37743W        W10058   8.737  37.882  10.539
37744W        W10059   5.709  16.709   2.384
37745W        W10060  27.059  21.220   2.266
37746W        W10061  32.480  38.401  11.429
37747W        W10062  18.171   8.345  10.084
37748W        W10063  17.088  38.859  13.328
37749W        W10064  14.252  38.541   3.323
37750W        W10065  36.422   3.886  10.905
37751W        W10066   3.268  24.485   1.416
37752W        W10067  16.102  14.239  11.902
37753W        W10068  38.827  18.228   3.325
37754W        W10069  30.656  13.274  10.579
37755W        W10070   3.341  40.021  12.449
37756W        W10071   3.779   2.238  12.972
37757W        W10072  10.648  29.930  14.959
37758W        W10073  21.153  26.978  12.092
37759W        W10074  15.688  42.485   3.802
37760W        W10075  11.370  21.228   1.738
37761W        W10076   7.885  34.528   4.155
37762W        W10077   5.214  21.177   0.820
37763W        W10078  14.191   0.748   2.858
37764W        W10079  34.371  33.110   1.441
37765W        W10080  12.770  40.932   1.337
37766W        W10081  14.324  21.038   1.320
37767W        W10082  29.433   8.249   2.767
37768W        W10083  43.778  32.505   4.288
37769W        W10084   4.295   6.864  13.455
37770W        W10085  42.845  33.926   0.825
37771W        W10086  18.641  23.997   4.685
37772W        W10087   8.340  27.584   2.763
37773W        W10088  26.645  11.337  12.016
37774W        W10089  16.792   9.733  12.960
37775W        W10090  20.727   0.809   2.871
37776W        W10091  24.188  35.403  11.483
37777W        W10092  24.498  13.836   0.449
37778W        W10093  44.440  15.315  14.461
37779W        W10094  17.188  44.823   0.372
37780W        W10095  27.170   5.251   0.323
37781W        W10096   2.907  26.173   2.865
37782W        W10097  17.246  33.953   0.407
37783W        W10098  17.128   0.291   1.824
37784W        W10099  30.626  21.210   3.324
37785W        W10100  38.992   2.410   1.442
37786W        W10101  19.113  12.693  14.823
37787W        W10102  29.628  22.155  12.870
37788W        W10103   7.678  19.752   3.292
37789W        W10104   7.895   3.326  13.492
37790W        W10105   4.392   1.421   1.290
37791W        W10106  14.663  10.725   0.872
37792W        W10107   7.749   1.859  11.881
37793W        W10108  39.048  37.993   0.925
37794W        W10109  20.274  40.516  12.495
37795W        W10110  17.263  22.606  13.987
37796W        W10111   1.896   2.230   2.703
37797W        W10112  15.300   4.370   3.784
37798W        W10113  33.443  44.413   3.302
37799W        W10114  36.352   9.300  11.415
37800W        W10115  36.856   3.215   1.375
37801W        W10116  30.933  17.707  14.511
37802W        W10117  13.812  43.387   3.813
37803W        W10118  19.222  26.159  10.458
37804W        W10119  36.367   3.776   3.210
37805W        W10120  23.030  29.468  10.915
37806W        W10121   5.875  38.921   3.843
37807W        W10122  14.318  17.624   0.395
37808W        W10123  34.065  33.608  11.520
37809W        W10124  16.580  35.469  13.895
37810W        W10125  18.263  30.131   1.873
37811W        W10126  35.488  43.835  11.861
37812W        W10127  38.875  24.101   3.853
37813W        W10128  17.739  35.455   0.363
37814W        W10129  44.315  30.639   1.922
37815W        W10130  24.548  33.894  11.935
37816W        W10131  12.704  16.159  11.029
37817W        W10132  41.031  31.012  10.593
37818W        W10133  37.039  20.578  14.032
37819W        W10134  26.522  22.139  14.328
37820W        W10135  33.498  35.458   3.369
37821W        W10136  25.136  26.176  13.495
37822W        W10137  36.912   4.735  12.470
37823W        W10138  17.633  44.260  12.983
37824W        W10139  23.700  32.582  10.567
37825W        W10140  39.438  23.656  13.902
37826W        W10141  26.115  13.313   3.295
37827W        W10142  40.447   7.255   1.719
37828W        W10143  13.671   3.789  12.038
37829W        W10144   1.929   8.655   4.814
37830W        W10145  14.621  25.490   1.315
37831W        W10146  30.933  40.931   0.939
37832W        W10147  38.369  16.110  11.042
37833W        W10148  31.604  36.960   1.846
37834W        W10149   9.888  17.238  10.939
37835W        W10150  35.921  29.506   3.862
37836W        W10151  21.254  15.697  10.965
37837W        W10152  40.008  21.153   0.914
37838W        W10153   5.918  40.038   1.730
37839W        W10154  29.052   4.874  11.878
37840W        W10155   5.194  26.527   2.179
37841W        W10156   6.224   1.273   0.742
37842W        W10157  10.786   7.833   0.243
37843W        W10158  13.325  14.688   2.758
37844W        W10159  43.309  12.825  13.361
37845W        W10160  18.129  31.546  11.108
37846W        W10161  35.859  28.968  12.070
37847W        W10162  13.682   0.304   2.900
37848W        W10163  40.423  42.012   2.237
37849W        W10164  35.007  44.460   2.207
37850W        W10165  32.917  33.045  11.092
37851W        W10166   7.795   3.364  14.326
37852W        W10167  41.312  24.722   1.798
37853W        W10168   0.930  40.055   4.241
37854W        W10169  13.279  20.591  10.406
37855W        W10170   6.426  31.617  12.976
37856W        W10171  20.669  36.910   0.940
37857W        W10172  17.112  33.035   3.771
37858W        W10173   1.418  40.984  13.399
37859W        W10174  29.570  25.083   0.730
37860W        W10175  41.041  23.553  11.874
37861W        W10176  23.588  11.309   4.813
37862W        W10177  10.685  31.961  14.825
37863W        W10178  17.142  41.924   4.264
37864W        W10179  40.530  43.436  13.041
37865W        W10180  13.107  23.735  11.983
37866W        W10181  11.686  25.535  12.480
37867W        W10182   0.948   4.446   4.284
37868W        W10183  38.416  35.364  13.823
37869W        W10184  34.525  15.786  14.978
37870W        W10185  27.059  23.661  11.922
37871W        W10186  15.266   8.307   1.240
37872W        W10187  43.454  37.381  10.077
37873W        W10188  26.578  12.232  10.561
37874W        W10189   8.719  22.582   2.846
37875W        W10190  35.087  24.677   1.896
37876W        W10191   1.440  30.549   3.353
37877W        W10192  31.569  21.172  10.496
37878W        W10193  44.869  18.759   3.868
37879W        W10194  18.788  10.382  10.942
37880W        W10195   5.196  36.559   3.299
37881W        W10196  12.235   6.300  11.940
37882W        W10197  11.144  41.923  13.548
37883W        W10198  11.360   5.825  12.996
37884W        W10199  16.765  21.227  13.812
37885W        W10200  14.745  38.953   3.773
37886W        W10201  43.344  24.175  11.520
37887W        W10202  18.097  23.587   4.718
37888W        W10203  25.468  24.214   1.867
37889W        W10204  16.297  16.145   2.378
37890W        W10205  33.059  13.225  10.510
37891W        W10206  37.377  16.131  11.074
37892W        W10207   0.267  32.900  12.880
37893W        W10208  36.575  20.543  10.993
37894W        W10209   2.329   7.831   5.220
37895W        W10210  14.724  11.286  14.388
37896W        W10211  32.533  16.277   4.147
37897W        W10212  13.640  24.174  13.335
37898W        W10213  22.240  19.275   9.632
37899W        W10214  15.270  14.728  12.918
37900W        W10215  26.208  13.775  11.886
37901W        W10216  33.549  33.502  12.894
37902W        W10217   1.479  10.221   0.804
37903W        W10218  41.461   7.878   1.410
37904W        W10219  39.363  37.521  14.005
37905W        W10220  36.071  12.670  11.976
37906W        W10221  28.135  23.587   3.343
37907W        W10222  31.145  13.691   1.801
37908W        W10223  23.505  13.326   4.828
37909W        W10224  16.615   9.338  10.138
37910W        W10225  43.003  28.513  14.926
37911W        W10226  44.866  23.124  12.887
37912W        W10227   7.673   0.967   3.690
37913W        W10228  13.732  14.153   4.760
37914W        W10229  38.406  13.203  10.403
37915W        W10230  39.397  19.076  13.002
37916W        W10231  14.210  11.862  14.402
37917W        W10232  26.200  31.512   3.380
37918W        W10233   0.476   1.753  14.761
37919W        W10234  37.357  16.795  14.480
37920W        W10235  15.709   7.321   0.845
37921W        W10236  43.501  21.725  13.874
37922W        W10237  41.339   6.887   4.274
37923W        W10238  38.528  21.542  14.989
37924W        W10239  28.668  21.753  14.303
37925W        W10240   0.427  38.071  13.347
37926W        W10241   1.805  35.549  13.323
37927W        W10242  15.668  36.033  10.071
37928W        W10243  33.039  23.514  14.899
37929W        W10244  38.511   9.881   2.261
37930W        W10245  14.770  22.136   2.329
37931W        W10246  42.361  17.577  14.297
37932W        W10247  11.674  30.018   2.411
37933W        W10248  21.655  21.563  14.332
37934W        W10249  44.005  20.734  11.020
37935W        W10250   8.308   2.359  10.539
37936W        W10251  33.546  25.533  11.462
37937W        W10252   8.686  10.690  10.613
37938W        W10253  40.338  27.061  11.875
37939W        W10254  26.574  17.179   2.711
37940W        W10255  26.052   3.232   0.762
37941W        W10256  39.966  24.114   0.820
37942W        W10257  44.768  44.338  10.896
37943W        W10258  12.158  43.880   0.353
37944W        W10259  23.499  24.078   1.354
37945W        W10260  27.479  10.634  12.490
37946W        W10261   1.253   3.855   1.322
37947W        W10262   4.742  25.529  10.427
37948W        W10263  28.507  39.881  11.001
37949W        W10264  14.716  17.281   1.711
37950W        W10265  35.076  26.662  10.092
37951W        W10266  43.326  14.296  11.442
37952W        W10267  41.478  41.891   4.643
37953W        W10268  42.927  10.803   1.403
37954W        W10269   9.826   7.251  10.548
37955W        W10270  18.549  33.443  13.921
37956W        W10271  18.263  35.596   0.400
37957W        W10272  44.445  36.358   2.237
37958W        W10273   1.923   0.854  12.532
37959W        W10274  17.562   7.280   4.236
37960W        W10275  42.911  37.345  11.506
37961W        W10276   6.688  41.987   1.836
37962W        W10277  26.145  20.529   4.747
37963W        W10278  19.091  32.506  10.906
37964W        W10279   7.172  30.494  12.509
37965W        W10280  28.042  17.715   1.396
37966W        W10281   3.844  17.558   4.171
37967W        W10282  42.029   1.298   3.169
37968W        W10283  22.164  39.420   1.331
37969W        W10284  28.117  22.125   3.718
37970W        W10285  15.302  30.518  13.810
37971W        W10286  15.281  10.161   3.192
37972W        W10287   8.341  17.251   3.785
37973W        W10288   5.387  25.061  11.382
37974W        W10289  27.652  42.366   0.850
37975W        W10290  25.086  18.778   1.377
37976W        W10291   0.749  29.049  14.346
37977W        W10292  22.165  43.292   3.165
37978W        W10293  29.510  42.914  10.003
37979W        W10294  36.934  43.898  13.458
37980W        W10295   4.787  33.913  13.906
37981W        W10296   8.206  20.220   0.746
37982W        W10297  35.106  37.526   2.181
37983W        W10298  37.449  14.813  12.422
37984W        W10299  15.688  30.134  12.437
37985W        W10300  20.193  44.936  11.046
37986W        W10301   3.360   2.409  11.600
37987W        W10302   8.255   0.425   2.243
37988W        W10303  34.585   6.827   3.643
37989W        W10304  16.161   0.393  11.126
37990W        W10305  14.197  40.816   2.812
37991W        W10306  37.983  12.681   3.766
37992W        W10307  16.569  29.070  14.936
37993W        W10308  41.460  27.140   4.800
37994W        W10309  12.634  31.962   2.205
37995W        W10310  12.755   0.416  10.927
37996W        W10311  28.475  20.648   4.820
37997W        W10312  32.053  22.082   2.875
37998W        W10313  31.505  16.615   1.314
37999W        W10314  10.241  25.061   0.396
38000W        W10315  35.489   0.492   1.237
38001W        W10316  14.630   4.853   1.285
38002W        W10317   1.337  25.514   4.811
38003W        W10318  30.018  39.841   4.719
38004W        W10319  12.702  36.487   3.368
38005W        W10320  12.785  10.827  10.424
38006W        W10321  29.500  10.211  14.956
38007W        W10322  26.642  33.580   1.440
38008W        W10323  36.533  28.580   0.869
38009W        W10324  30.463  29.056   0.456
38010W        W10325   3.803  16.602   2.411
38011W        W10326  34.002   5.781  10.530
38012W        W10327   9.778  16.708  12.034
38013W        W10328  22.067  15.269  13.043
38014W        W10329  35.560  41.920   0.786
38015W        W10330   0.813   5.404   4.125
38016W        W10331  44.848   8.199   3.181
38017W        W10332  15.292  35.411   0.332
38018W        W10333  25.178   0.393   1.227
38019W        W10334   8.315  25.640  12.987
38020W        W10335  38.367   8.671  14.905
38021W        W10336  33.516  43.291  14.838
38022W        W10337  18.113  33.444  13.014
38023W        W10338   5.207   0.980  10.897
38024W        W10339  44.404  13.284  10.409
38025W        W10340  33.061   3.932   1.367
38026W        W10341  29.496  26.003   2.209
38027W        W10342  31.118   0.369   0.464
38028W        W10343  12.285  26.148   2.743
38029W        W10344   0.382  34.609   4.282
38030W        W10345  44.989   3.271   1.248
38031W        W10346   6.878  18.584   2.752
38032W        W10347  44.474  14.150  14.919
38033W        W10348   3.430   6.281  10.929
38034W        W10349  34.457  25.597   2.732
38035W        W10350  44.431  37.340   2.865
38036W        W10351  25.110  13.213   3.215
38037W        W10352  28.532  36.896  14.776
38038W        W10353  15.183  38.955  10.455
38039W        W10354  24.484  22.640   1.749
38040W        W10355   3.343  34.490  11.098
38041W        W10356  23.519  27.034   4.244
38042W        W10357  23.630  19.708  12.851
38043W        W10358  21.752  32.551  10.586
38044W        W10359  39.346  23.074   0.415
38045W        W10360  40.305   9.653  14.488
38046W        W10361  10.360  11.165   2.802
38047W        W10362   3.762  10.167  12.019
38048W        W10363  25.095   3.930  11.429
38049W        W10364  20.640   3.439   2.890
38050W        W10365   4.306  34.019   0.815
38051W        W10366   8.738  21.156   3.317
38052W        W10367   6.221  14.127   5.312
38053W        W10368  23.223  12.678   4.214
38054W        W10369  23.137  13.663  14.468
38055W        W10370  18.198  18.778  10.548
38056W        W10371  43.347  21.600  14.394
38057W        W10372  29.001  22.647  13.529
38058W        W10373  24.038  31.962   1.328
38059W        W10374  22.587   0.801   1.866
38060W        W10375  10.319  36.092  12.865
38061W        W10376  23.194  34.561  12.841
38062W        W10377   4.441  40.896   4.198
38063W        W10378  23.993   3.914   0.351
38064W        W10379  34.026   3.394   2.330
38065W        W10380   8.839   7.828   2.799
38066W        W10381  26.533  13.173   4.690
38067W        W10382   0.383   0.329   3.633
38068W        W10383   2.905  22.717   1.374
38069W        W10384  39.848   8.727  12.952
38070W        W10385  23.653  18.732  12.034
38071W        W10386  14.746   7.753  11.032
38072W        W10387  41.989   0.759   1.233
38073W        W10388  29.937   9.749   0.413
38074W        W10389   5.761  25.626  14.349
38075W        W10390  33.401  44.927  12.506
38076W        W10391  42.480   0.398  14.764
38077W        W10392   8.232  38.973  12.386
38078W        W10393  10.652  29.996   4.746
38079W        W10394  13.228  35.427   1.319
38080W        W10395  14.736  43.322   4.140
38081W        W10396  25.690  38.042  10.468
38082W        W10397  33.904  41.004   4.808
38083W        W10398  31.004  25.654   1.915
38084W        W10399  25.105   3.874  12.838
38085W        W10400  24.007  24.499  13.835
38086W        W10401  40.384  37.076  12.948
38087W        W10402   6.797  27.080   4.123
38088W        W10403  31.502   5.833   4.151
38089W        W10404  35.377  13.648  11.005
38090W        W10405   1.398  29.570   2.374
38091W        W10406   7.835  34.588   9.922
38092W        W10407   7.360  23.699   4.123
38093W        W10408  25.552  33.593   5.262
38094W        W10409  26.603  39.440   3.217
38095W        W10410  10.735   0.264  12.980
38096W        W10411  37.884  44.890  14.031
38097W        W10412  18.108  13.604   3.723
38098W        W10413  19.640  42.949   3.820
38099W        W10414   9.252  32.520   1.408
38100W        W10415  23.084   1.275   3.267
38101W        W10416  27.022  38.500   2.192
38102W        W10417  16.216   4.442  11.009
38103W        W10418   4.215  21.545   0.248
38104W        W10419  39.381  35.400   1.838
38105W        W10420  33.621  32.941  10.533
38106W        W10421  28.553  17.192  10.432
38107W        W10422  40.332  15.196  10.511
38108W        W10423  12.725   8.707   0.791
38109W        W10424  30.135   0.363  13.870
38110W        W10425  26.487   5.412   4.207
38111W        W10426  13.254  43.885   2.785
38112W        W10427   6.294  22.649  10.577
38113W        W10428  40.893  33.905  12.969
38114W        W10429  18.718  15.299  12.956
38115W        W10430  25.577  27.957   0.807
38116W        W10431   8.192  17.246  14.834
38117W        W10432  40.503  26.089   2.759
38118W        W10433  10.874   9.394  11.939
38119W        W10434   2.296  28.009   3.725
38120W        W10435  20.755   9.316  13.057
38121W        W10436  20.658   5.269   3.844
38122W        W10437  40.809  22.661  14.329
38123W        W10438  36.400  32.893   1.427
38124W        W10439   1.782  35.583  11.581
38125W        W10440  18.790  14.141   4.317
38126W        W10441  44.843  34.389   2.682
38127W        W10442   0.819  17.640  14.816
38128W        W10443   1.965  36.019   2.242
38129W        W10444  21.243   8.343   3.250
38130W        W10445  23.564   1.295  14.907
38131W        W10446  29.438  13.646   4.328
38132W        W10447  35.938   7.792   1.935
38133W        W10448  19.724  12.269  12.010
38134W        W10449  40.529  33.456   2.202
38135W        W10450  31.136  38.832   1.363
38136W        W10451   7.362  34.931  11.013
38137W        W10452  20.051  37.078  13.473
38138W        W10453  26.012  41.839   0.324
38139W        W10454  11.163  35.454   2.867
38140W        W10455  18.173  16.255   0.314
38141W        W10456  41.445  38.954  13.842
38142W        W10457  23.013  36.520  11.496
38143W        W10458  30.103  15.134   3.813
38144W        W10459  30.997  19.606   4.767
38145W        W10460  38.957  33.403   2.329
38146W        W10461  40.034  24.176   4.779
38147W        W10462  44.869  42.851  13.484
38148W        W10463  10.812  25.467  12.997
38149W        W10464  25.091  21.534  11.126
38150W        W10465  30.005  15.253  10.893
38151W        W10466  13.249   6.294  14.941
38152W        W10467  33.965  33.463   4.682
38153W        W10468  20.756  42.977  13.898
38154W        W10469  32.468   6.738   4.128
38155W        W10470  42.974  10.793   3.678
38156W        W10471   5.415  25.673   4.319
38157W        W10472  30.022  25.486  11.926
38158W        W10473   3.403  15.694  13.431
38159W        W10474   5.356   4.287   0.920
38160W        W10475  41.525  13.230  12.836
38161W        W10476  25.146  37.491  13.320
38162W        W10477  37.387   3.844  12.353
38163W        W10478  10.149  13.258  12.901
38164W        W10479  26.053  39.843   3.241
38165W        W10480  37.457   2.227   0.361
38166W        W10481  23.988  34.465  11.550
38167W        W10482  13.665  13.670   4.185
38168W        W10483  11.255  18.200  10.107
38169W        W10484  12.628  15.297  11.439
38170W        W10485  23.565   0.752  11.879
38171W        W10486  11.642   7.381  13.882
38172W        W10487  13.841   2.812   2.368
38173W        W10488  41.992  30.080   1.740
38174W        W10489  39.560  18.203   2.855
38175W        W10490  22.026  15.302  10.895
38176W        W10491  30.476  35.861  14.798
38177W        W10492  27.603  30.942  11.115
38178W        W10493  43.491  43.494  10.535
38179W        W10494  18.167  11.868  13.868
38180W        W10495  20.206  22.165  13.868
38181W        W10496  15.327  40.376  12.851
38182W        W10497  14.273  14.818   2.254
38183W        W10498  18.747   0.957   5.152
38184W        W10499  21.750  25.677  10.991
38185W        W10500  31.975  23.648   4.726
38186W        W10501  37.000   8.766  14.462
38187W        W10502  40.805  41.319   3.165
38188W        W10503  13.822   8.753   4.160
38189W        W10504  38.011   3.760  13.800
38190W        W10505  32.419  37.913   3.387
38191W        W10506   4.366  38.484  13.823
38192W        W10507  32.010  31.418   4.206
38193W        W10508  25.573   8.684   3.147
38194W        W10509  44.809  16.575   4.796
38195W        W10510  12.322  11.867   2.815
38196W        W10511  39.934  36.357  12.472
38197W        W10512  25.016  31.430  12.549
38198W        W10513  37.408  24.038  14.477
38199W        W10514  43.894   2.457   2.216
38200W        W10515  32.908  10.275  14.422
38201W        W10516   4.706  34.481   9.960
38202W        W10517  25.551  42.936   0.480
38203W        W10518  34.882  17.241   2.761
38204W        W10519   7.296  31.606  13.930
38205W        W10520  31.055  18.285  14.276
38206W        W10521  28.938  43.001  13.830
38207W        W10522  29.059  28.599  12.066
38208W        W10523  11.370   7.365   2.841
38209W        W10524  12.655   2.400  14.803
38210W        W10525   9.320  14.124  14.317
38211W        W10526   3.844  29.504  12.569
38212W        W10527  15.679   2.433   1.904
38213W        W10528  24.541  12.791   0.729
38214W        W10529   4.390  27.132   1.408
38215W        W10530  14.172  21.205  14.332
38216W        W10531  34.411  28.517  14.446
38217W        W10532  38.424  27.076   0.421
38218W        W10533  11.138  33.109   0.462
38219W        W10534  42.008  42.442  13.054
38220W        W10535  42.808  18.564   0.367
38221W        W10536   7.380  26.636   4.319
38222W        W10537  13.222  41.459  12.028
38223W        W10538  34.509   7.248   0.316
38224W        W10539   4.427  36.545  14.970
38225W        W10540  37.973  19.075   3.818
38226W        W10541   5.374   4.439  13.470
38227W        W10542  41.527  38.044  11.882
38228W        W10543  38.486  36.911  10.915
38229W        W10544  44.406  13.314  11.475
38230W        W10545   0.408   6.300   2.787
38231W        W10546   6.273   7.387   1.748
38232W        W10547  27.171   7.179  10.510
38233W        W10548   2.262  33.540  14.401
38234W        W10549   8.183  35.599  10.909
38235W        W10550  18.668  27.992  12.512
38236W        W10551  38.986  38.947   1.923
38237W        W10552  25.513  11.281   4.641
38238W        W10553  24.480   5.415  11.071
38239W        W10554  20.114  27.011  10.899
38240W        W10555  22.111  17.607  13.536
38241W        W10556  20.046  41.530   4.612
38242W        W10557  10.658  13.181  11.968
38243W        W10558   6.321   8.203   4.700
38244W        W10559  29.437  22.556   2.697
38245W        W10560   8.289   1.962  11.996
38246W        W10561  34.370   2.768   2.882
38247W        W10562  18.597  22.033  14.803
38248W        W10563  17.068  38.533  11.546
38249W        W10564   7.908  15.734  14.323
38250W        W10565   1.327  21.045  14.356
38251W        W10566  29.477  34.105  10.141
38252W        W10567   9.356   4.743   4.647
38253W        W10568   8.736  21.198   2.410
38254W        W10569  24.705  35.102  13.397
38255W        W10570  44.393   8.703   4.774
38256W        W10571  34.965  37.045   3.187
38257W        W10572  14.335   9.669  14.432
38258W        W10573  42.855  35.054  13.530
38259W        W10574  16.275   1.835   2.671
38260W        W10575  22.503   8.258   1.269
38261W        W10576  21.163  44.471  10.410
38262W        W10577  33.926  24.195  11.450
38263W        W10578   6.828  36.843  13.537
38264W        W10579  25.201  31.031  12.884
38265W        W10580  18.625  36.588  14.844
38266W        W10581   0.892   4.246   4.654
38267W        W10582  19.738  35.078   2.405
38268W        W10583  13.159  41.841  11.372
38269W        W10584  42.296  28.587  11.990
38270W        W10585  14.752  44.786   1.935
38271W        W10586  21.564  20.152   0.306
38272W        W10587  21.119  22.091   4.278
38273W        W10588  28.937  33.398   9.629
38274W        W10589  27.661  35.389  10.574
38275W        W10590  26.186  38.454   1.239
38276W        W10591  39.546   7.413   0.859
38277W        W10592  13.715  42.791   3.261
38278W        W10593  16.630  32.137  13.980
38279W        W10594  23.727  42.298   0.404
38280W        W10595  22.086  31.911  14.958
38281W        W10596  34.580   7.363  12.917
38282W        W10597  27.612   6.208  12.446
38283W        W10598  11.737  34.444  13.912
38284W        W10599  16.798  28.093  12.858
38285W        W10600  18.104  38.353   4.748
38286W        W10601  16.595  20.122   3.697
38287W        W10602   0.941  11.868   2.198
38288W        W10603  15.312  32.931   3.665
38289W        W10604  29.541   9.390   4.705
38290W        W10605  11.341  31.965  13.904
38291W        W10606   1.971  39.525  13.920
38292W        W10607  27.106  29.489   4.694
38293W        W10608  20.686  32.052   2.797
38294W        W10609  15.737  10.334   4.719
38295W        W10610  14.673  16.734  14.460
38296W        W10611  44.349  28.446   3.770
38297W        W10612   2.238  28.436   1.765
38298W        W10613  21.097  13.712   4.710
38299W        W10614   4.434  35.093  11.558
38300W        W10615  29.981  12.244   1.448
38301W        W10616  35.916  24.088   1.225
38302W        W10617  25.549  17.604   0.289
38303W        W10618  34.066  18.128   4.345
38304W        W10619  35.873  14.596  12.368
38305W        W10620  37.914  42.937   0.313
38306W        W10621  22.040  31.603  13.985
38307W        W10622   2.327  38.826   1.694
38308W        W10623  40.472  36.020   2.206
38309W        W10624  17.582  25.502   4.280
38310W        W10625   3.365  39.360  14.497
38311W        W10626  18.203   5.390  14.894
38312W        W10627  16.306  21.587   3.167
38313W        W10628  29.529  16.158   2.214
38314W        W10629  16.596  40.312   4.115
38315W        W10630   2.860  36.580  14.395
38316W        W10631   3.259  27.984   3.697
38317W        W10632  27.065  39.476   3.179
38318W        W10633  19.673  38.003  12.497
38319W        W10634   7.787  21.157  10.935
38320W        W10635  36.067  22.101  13.997
38321W        W10636  24.178  39.426   0.446
38322W        W10637  41.471  30.475   3.277
38323W        W10638  34.087  24.576   1.322
38324W        W10639  29.078  27.992  13.478
38325W        W10640   8.325  39.862   0.408
38326W        W10641   7.696  15.766  13.402
38327W        W10642  30.422  39.527   0.397
38328W        W10643  11.270  21.663  11.889
38329W        W10644  35.483  32.497   3.195
38330W        W10645  24.534  16.150   0.751
38331W        W10646  29.521   2.394  11.508
38332W        W10647   2.906   5.326   4.192
38333W        W10648  11.732  36.566   0.805
38334W        W10649   6.206  17.614   4.192
38335W        W10650  37.969   3.390  12.904
38336W        W10651   2.356  42.868   0.887
38337W        W10652  27.066  14.734   2.360
38338W        W10653  25.153   3.369  14.464
38339W        W10654  36.548   8.699  13.848
38340W        W10655  25.538  30.997   2.757
38341W        W10656   3.445  12.667   4.203
38342W        W10657  44.378  20.606  12.514
38343W        W10658  16.748  27.128  14.411
38344W        W10659  33.397  32.391  11.028
38345W        W10660  28.114  35.095  10.509
38346W        W10661   5.840   3.716  14.487
38347W        W10662  36.956  23.126   3.674
38348W        W10663   1.880  16.578   3.630
38349W        W10664  16.773  11.213   3.301
38350W        W10665  34.111  26.605   0.417
38351W        W10666  10.185  33.040   2.712
38352W        W10667  25.609  24.217   0.418
38353W        W10668  12.814   6.263   0.459
38354W        W10669  31.584  10.194  11.129
38355W        W10670  28.660   0.786  11.896
38356W        W10671  18.709  16.173  11.060
38357W        W10672  11.192  23.674   2.668
38358W        W10673  29.048   8.187   1.741
38359W        W10674  12.745  12.774  14.506
38360W        W10675  11.855  20.573   4.272
38361W        W10676  14.766   6.910   0.417
38362W        W10677  21.081   6.212   2.879
38363W        W10678  42.866  33.396   0.786
38364W        W10679   3.240  32.888   1.335
38365W        W10680   5.821   0.455   2.344
38366W        W10681  23.733   3.376   3.251
38367W        W10682  29.446  34.587   5.082
38368W        W10683   0.371  23.031  13.412
38369W        W10684   0.439  18.709  10.624
38370W        W10685  42.525  21.588  11.897
38371W        W10686   6.373  33.465  11.075
38372W        W10687   1.919   5.365  14.796
38373W        W10688  33.485  10.693  13.942
38374W        W10689   1.417  12.267   0.765
38375W        W10690  34.527  18.547   1.931
38376W        W10691  17.247   8.336   1.317
38377W        W10692  27.096  33.955   0.774
38378W        W10693   1.935  13.625  14.769
38379W        W10694   3.846  19.146  10.914
38380W        W10695  27.627  21.103  14.893
38381W        W10696   3.389   7.891   3.255
38382W        W10697  11.861  18.722   0.284
38383W        W10698  14.746   1.429  14.773
38384W        W10699   8.820  18.566   4.227
38385W        W10700  18.791   2.395  10.578
38386W        W10701  40.361  40.341   1.340
38387W        W10702  13.629  42.983  10.419
38388W        W10703   2.934  32.479  12.044
38389W        W10704  31.418  13.300   0.273
38390W        W10705  38.945  10.644  13.976
38391W        W10706   0.397  38.383   3.386
38392W        W10707   1.369  12.623  12.420
38393W        W10708  38.538   0.874   1.697
38394W        W10709   8.203  26.958  14.795
38395W        W10710  25.516  34.904  14.397
38396W        W10711  14.766  37.974  13.913
38397W        W10712  23.112   8.884   4.147
38398W        W10713  13.343  31.088   2.194
38399W        W10714  33.492  13.820  14.368
38400W        W10715  25.662  24.588  10.964
38401W        W10716  43.429  13.112  12.951
38402W        W10717  13.717  24.095   4.183
38403W        W10718  36.479  31.996   0.849
38404W        W10719  24.557  10.677   1.389
38405W        W10720  38.057  40.887   1.215
38406W        W10721  13.306  37.946  10.544
38407W        W10722  39.482   5.352  12.887
38408W        W10723  16.631  17.648   3.837
38409W        W10724  36.894  16.803   0.902
38410W        W10725  41.294  21.115  12.477
38411W        W10726  32.596  16.249   3.789
38412W        W10727   1.276  18.763   1.883
38413W        W10728  25.488   4.742  11.389
38414W        W10729  18.689  26.158   2.337
38415W        W10730  18.665   6.394   1.432
38416W        W10731  39.465  35.032  14.017
38417W        W10732  14.319  15.211   1.713
38418W        W10733   2.790   2.804  11.448
38419W        W10734   9.878  26.643  12.474
38420W        W10735  43.283  29.025  12.847
38421W        W10736  37.961  10.661  14.474
38422W        W10737   5.815   9.658   4.349
38423W        W10738  35.996  31.454  12.350
38424W        W10739   7.412  10.150  12.859
38425W        W10740  12.842  42.405  10.455
38426W        W10741  10.824  30.926  13.011
38427W        W10742  24.005   5.302   0.313
38428W        W10743  14.770  36.363  14.899
38429W        W10744   5.919  33.400  14.772
38430W        W10745  39.809  17.578   2.896
38431W        W10746   5.301  10.321   1.930
38432W        W10747  25.046   9.277  11.403
38433W        W10748   0.944  38.386  12.464
38434W        W10749  24.642   9.389   2.823
38435W        W10750   3.808  39.879  11.584
38436W        W10751  17.708  40.463   1.259
38437W        W10752  25.977  28.476   4.601
38438W        W10753  17.147  28.045   0.890
38439W        W10754  18.076  14.628   4.259
38440W        W10755  21.169  12.183   1.335
38441W        W10756  31.490  28.579   2.711
38442W        W10757   4.330  10.381   3.153
38443W        W10758  44.311   9.693  12.020
38444W        W10759   2.311   6.707  11.561
38445W        W10760  13.629  24.660  14.417
38446W        W10761  37.898  42.850   1.845
38447W        W10762  25.088  33.000   4.197
38448W        W10763  25.041  44.376   4.671
38449W        W10764  10.257   9.856  13.481
38450W        W10765  30.121  32.491   1.411
38451W        W10766   8.278  17.697  11.016
38452W        W10767  21.074  41.522   2.199
38453W        W10768  15.646  11.628  11.426
38454W        W10769  27.534   0.872  12.937
38455W        W10770  34.101  43.933   4.691
38456W        W10771  28.462   0.476   4.620
38457W        W10772   0.796  22.131   2.206
38458W        W10773  27.587  19.742  14.820
38459W        W10774  24.677  28.622  10.428
38460W        W10775  30.647  17.612  13.408
38461W        W10776  38.380  30.419  14.868
38462W        W10777  27.965   8.260  14.457
38463W        W10778  17.117   3.403   4.705
38464W        W10779  34.429  22.635  14.335
38465W        W10780  14.634  29.569   5.196
38466W        W10781  31.567  23.984  10.633
38467W        W10782   7.775  30.449  12.416
38468W        W10783  15.212   3.355   2.886
38469W        W10784   1.443  36.585  11.495
38470W        W10785  37.979  37.341  12.882
38471W        W10786  44.387  20.271  13.908
38472W        W10787   2.376  28.963  11.978
38473W        W10788   0.746   5.388  12.932
38474W        W10789  29.149  14.697   3.376
38475W        W10790  30.074  27.983  11.056
38476W        W10791  16.150  11.283   3.151
38477W        W10792   3.253  10.178  14.919
38478W        W10793  29.099  34.003   2.371
38479W        W10794  14.111  13.664   3.859
38480W        W10795  35.058  12.332   2.257
38481W        W10796  29.984  27.115   4.723
38482W        W10797   3.336  21.562   1.810
38483W        W10798  16.116  25.218   2.794
38484W        W10799  32.585  33.030  14.891
38485W        W10800  33.103   3.796  11.537
38486W        W10801   4.857  40.808   4.641
38487W        W10802  30.616  29.089  14.299
38488W        W10803   3.747  40.339   4.819
38489W        W10804   2.467  16.648  11.561
38490W        W10805   9.848   9.166  13.056
38491W        W10806  36.456   8.855   3.157
38492W        W10807  25.514  30.432  14.415
38493W        W10808  22.143  40.888   1.241
38494W        W10809  21.659  25.659  13.996
38495W        W10810  35.004   9.159  12.095
38496W        W10811  19.577  17.710   4.220
38497W        W10812  25.630  37.979   1.781
38498W        W10813  32.541  18.629   3.320
38499W        W10814   1.856  41.487  14.804
38500W        W10815  24.074  22.209   9.920
38501W        W10816   8.401  14.748  11.402
38502W        W10817  34.528  13.337  13.033
38503W        W10818  30.452  40.985   1.750
38504W        W10819  18.722  40.822   3.630
38505W        W10820  21.240  32.100   2.283
38506W        W10821  34.473  41.403   0.302
38507W        W10822   2.451  38.914  14.934
38508W        W10823  17.580  14.776  13.316
38509W        W10824  25.167  39.423  12.833
38510W        W10825   7.376   0.257   2.893
38511W        W10826  27.943  12.661   0.759
38512W        W10827  27.958   8.735  14.876
38513W        W10828  44.811  11.699  14.025
38514W        W10829   1.815   6.411   4.832
38515W        W10830  10.664  13.752   4.837
38516W        W10831  33.608  31.069  14.915
38517W        W10832  28.092   3.224  10.406
38518W        W10833  12.353   8.845   3.769
38519W        W10834  28.536  33.080   5.171
38520W        W10835  44.457  31.993  14.999
38521W        W10836  43.303  39.824  14.838
38522W        W10837  19.763  22.191   2.413
38523W        W10838   5.729  14.324   1.445
38524W        W10839  27.132  31.951   1.270
38525W        W10840  27.669  15.686   3.353
38526W        W10841   6.838   5.880  13.829
38527W        W10842  44.771  28.148   0.406
38528W        W10843  10.332  39.343   1.747
38529W        W10844   4.330   8.229   3.677
38530W        W10845  36.089   6.734  13.309
38531W        W10846  25.149   0.390   4.821
38532W        W10847  38.006  36.435   2.186
38533W        W10848  28.509  25.161   3.785
38534W        W10849  18.561  39.028   0.406
38535W        W10850  38.898  42.361   4.744
38536W        W10851   1.951  34.410  12.475
38537W        W10852   7.308  22.632  14.395
38538W        W10853  23.088  41.435  11.583
38539W        W10854  41.361  44.977   4.778
38540W        W10855   2.229   9.224   0.425
38541W        W10856  36.537   1.776   4.157
38542W        W10857   2.835   1.324  12.498
38543W        W10858  24.723  34.451   0.374
38544W        W10859   8.666  14.188  14.392
38545W        W10860   4.909  27.126  13.028
38546W        W10861  21.625  29.576  14.761
38547W        W10862  27.671  40.929   3.766
38548W        W10863   6.380  26.094   2.664
38549W        W10864  19.662  39.858  12.941
38550W        W10865  42.497  26.029   4.149
38551W        W10866  43.509  24.654   1.320
38552W        W10867  22.713  21.176  14.281
38553W        W10868  37.896   7.841   1.352
38554W        W10869  14.825   9.690   1.234
38555W        W10870  23.709  17.572   3.726
38556W        W10871   6.736  25.624   0.253
38557W        W10872   8.694  28.042  14.781
38558W        W10873   0.931  28.510  14.768
38559W        W10874  21.197  34.102   1.259
38560W        W10875  18.550  43.382  14.858
38561W        W10876  44.457   4.353   0.879
38562W        W10877  20.068  38.431  14.365
38563W        W10878  27.023  32.430  13.855
38564W        W10879  20.687  24.004   3.300
38565W        W10880  44.337   1.379  10.922
38566W        W10881   4.381  24.163   4.261
38567W        W10882  40.441  29.044  12.474
38568W        W10883  30.909   9.273  11.452
38569W        W10884  18.689  33.128   4.114
38570W        W10885  43.927  37.994  10.508
38571W        W10886  16.240  27.450  11.100
38572W        W10887   3.795  28.678  11.488
38573W        W10888  44.913  27.622  14.812
38574W        W10889   3.883  32.143  10.995
38575W        W10890  10.870  20.198  11.502
38576W        W10891   9.337  34.414   5.146
38577W        W10892  18.090  18.228   4.602
38578W        W10893  19.541   6.204  12.927
38579W        W10894  34.434   7.904  13.378
38580W        W10895  17.144  17.669  12.551
38581W        W10896  26.475  35.423  12.939
38582W        W10897  26.192   3.768   4.752
38583W        W10898  21.624  36.855   0.292
38584W        W10899  30.486  20.659   3.231
38585W        W10900   3.878  23.110   4.346
38586W        W10901  12.635  10.156  11.466
38587W        W10902  26.481   7.668  10.912
38588W        W10903  23.992  26.169  13.928
38589W        W10904  34.080  17.108  13.459
38590W        W10905  11.144  43.419   2.673
38591W        W10906  23.088  42.998  10.574
38592W        W10907  28.474   1.343   2.318
38593W        W10908  16.697  24.042  14.771
38594W        W10909  35.024  41.370  11.965
38595W        W10910  44.265  15.256   4.765
38596W        W10911  15.755  10.299  13.947
38597W        W10912  40.331   8.280   0.422
38598W        W10913  35.383  39.843   0.785
38599W        W10914  39.545   8.749  11.414
38600W        W10915  28.585  39.840   4.732
38601W        W10916  22.507  20.217  11.070
38602W        W10917  14.305  19.072  10.986
38603W        W10918  19.149  44.753  12.482
38604W        W10919  32.022  18.747  13.365
38605W        W10920  43.780  16.767   4.682
38606W        W10921  44.453   3.328   4.268
38607W        W10922  35.934  27.970  10.434
38608W        W10923  36.038  16.258  11.918
38609W        W10924  39.064  15.615   0.846
38610W        W10925  11.627   7.770  13.832
38611W        W10926  13.707   9.332  13.867
38612W        W10927  21.560  21.209   9.440
38613W        W10928  24.137  14.680  13.999
38614W        W10929  20.759  27.490   2.380
38615W        W10930  38.952  31.461   2.719
38616W        W10931  18.109  27.555   3.843
38617W        W10932  10.237   0.859   3.174
38618W        W10933  20.211  26.091  10.465
38619W        W10934  11.729  25.050  11.988
38620W        W10935  31.625  12.125   0.399
38621W        W10936  13.155  15.653   2.209
38622W        W10937   7.175  10.220  10.982
38623W        W10938  29.999   7.207  10.453
38624W        W10939  19.753  39.944   2.700
38625W        W10940   7.735  28.117   1.844
38626W        W10941  30.635  33.117  12.912
38627W        W10942  37.444  28.047   2.791
38628W        W10943  34.587  11.244   3.728
38629W        W10944  12.318  24.519  11.468
38630W        W10945  21.037  30.637   4.336
38631W        W10946  31.424   2.863  11.387
38632W        W10947  10.712  15.734  10.115
38633W        W10948   1.831  41.341   2.693
38634W        W10949  21.693  19.645  10.996
38635W        W10950   5.931   9.214   1.332
38636W        W10951  39.502  31.447   1.919
38637W        W10952  23.570  20.667  12.016
38638W        W10953  31.119   6.392   1.328
38639W        W10954  24.022   2.445   0.948
38640W        W10955  28.156   9.832  12.088
38641W        W10956   3.282   5.845   3.709
38642W        W10957   1.778   8.730   0.743
38643W        W10958   2.931  33.498  12.092
38644W        W10959   3.248  39.015  12.350
38645W        W10960   2.865  24.546   4.661
38646W        W10961   8.789  33.940  13.893
38647W        W10962   6.211  16.612  13.437
38648W        W10963  41.485  10.636  14.338
38649W        W10964  39.834  39.823   1.289
38650W        W10965  12.278   8.708   4.825
38651W        W10966  26.149  22.027   3.332
38652W        W10967  15.669  17.173   1.308
38653W        W10968   5.433  43.014   4.687
38654W        W10969  20.240  35.958  12.347
38655W        W10970  17.131  14.683  10.953
38656W        W10971  11.302  44.280   0.366
38657W        W10972  19.211  34.062   1.368
38658W        W10973  21.572  31.424  10.455
38659W        W10974  26.496  31.990  11.508
38660W        W10975  30.054  27.616   0.418
38661W        W10976  40.334  32.445   4.681
38662W        W10977   5.784  42.499   2.404
38663W        W10978  36.003  35.947  11.410
38664W        W10979   7.812  25.496   2.671
38665W        W10980  30.639  44.775  12.905
38666W        W10981  37.480  18.736   3.792
38667W        W10982  44.374  28.541   1.923
38668W        W10983  29.067  10.761   1.380
38669W        W10984  13.657   0.403  13.402
38670W        W10985  28.638  11.157   1.383
38671W        W10986  25.033   9.329   1.272
38672W        W10987  17.761  29.609  13.409
38673W        W10988  41.365  14.808  13.316
38674W        W10989  22.073  34.584  10.581
38675W        W10990   3.247  11.663   2.709
38676W        W10991  39.902  37.406  13.825
38677W        W10992   2.809  25.713   2.218
38678W        W10993   4.764  42.372   5.191
38679W        W10994   2.415  25.600  13.498
38680W        W10995  25.152  17.793   0.316
38681W        W10996  12.836  41.787   3.653
38682W        W10997  25.068  34.573   3.646
38683W        W10998   1.901  11.756  14.781
38684W        W10999  43.362  12.236  10.953
38685W        W11000   6.404   3.398   0.256
38686W        W11001  26.146  20.700   3.754
38687W        W11002  40.382  34.409   0.316
38688W        W11003   2.265  11.286   5.224
38689W        W11004  43.358   9.194   0.768
38690W        W11005  44.819   7.247   3.723
38691W        W11006  36.348  12.332  14.853
38692W        W11007  22.027  14.615   0.961
38693W        W11008  13.794   6.852   0.809
38694W        W11009   9.779  26.700  10.409
38695W        W11010   3.721   5.877   0.919
38696W        W11011  31.026  14.665  10.520
38697W        W11012  11.178  16.237  10.540
38698W        W11013  21.252  28.034   3.251
38699W        W11014  31.463  19.117   2.805
38700W        W11015  44.265  33.481   1.722
38701W        W11016  25.111   8.841   1.833
38702W        W11017   0.743  39.884  12.567
38703W        W11018  44.962  12.631   5.269
38704W        W11019   5.867  43.894   4.820
38705W        W11020  25.635  26.569  14.414
38706W        W11021  29.530  32.128  14.030
38707W        W11022  10.871  21.073   4.753
38708W        W11023   6.290  18.237  11.047
38709W        W11024   6.855  31.587   0.346
38710W        W11025   2.808  17.657   4.349
38711W        W11026  13.801  43.499  13.487
38712W        W11027  31.469  38.052   2.384
38713W        W11028  32.032   1.291  14.433
38714W        W11029   7.313  44.488   0.407
38715W        W11030   4.776  39.971  13.315
38716W        W11031  27.573  17.160   4.217
38717W        W11032   7.377  26.981   1.887
38718W        W11033  27.640   7.256  11.934
38719W        W11034  25.480  18.579   1.923
38720W        W11035  15.640   1.879   4.742
38721W        W11036  21.554  20.623  12.885
38722W        W11037  16.581  35.105   2.900
38723W        W11038  25.494   8.265  13.920
38724W        W11039  12.241  39.875  13.827
38725W        W11040  35.520  17.749   0.820
38726W        W11041   2.415  21.640  10.491
38727W        W11042  41.374  25.057   0.470
38728W        W11043   3.710   1.817   1.895
38729W        W11044  35.899  10.856  12.344
38730W        W11045  44.421   2.955  11.973
38731W        W11046  38.044  38.524  11.494
38732W        W11047  27.479  39.398  12.440
38733W        W11048  13.125  29.639  10.608
38734W        W11049  25.113  24.494   0.901
38735W        W11050  16.205  23.193  11.933
38736W        W11051  22.039  30.108  11.878
38737W        W11052   3.917   9.153   0.288
38738W        W11053  37.529  25.064  10.548
38739W        W11054  30.117  41.511   1.765
38740W        W11055  10.347  21.225   0.288
38741W        W11056  25.693  36.523   0.781
38742W        W11057  10.158  11.356  10.962
38743W        W11058   8.229  30.434  14.509
38744W        W11059  25.550  10.166  11.111
38745W        W11060  16.121  17.667   3.241
38746W        W11061  15.252  40.014  10.943
38747W        W11062  18.088  33.033   3.654
38748W        W11063  24.220   6.347   0.898
38749W        W11064   9.852  25.106  13.361
38750W        W11065  40.937  25.495   2.885
38751W        W11066  33.502  13.816   2.803
38752W        W11067  19.126  22.604   4.747
38753W        W11068  12.331  19.734   4.720
38754W        W11069  27.087   2.929  14.436
38755W        W11070  26.468   3.354   4.153
38756W        W11071   4.288  21.054   4.710
38757W        W11072  10.207  43.399  10.595
38758W        W11073   7.334  42.886   4.641
38759W        W11074  25.527  27.531   2.796
38760W        W11075  29.431  39.471   3.646
38761W        W11076   5.780  37.539   1.305
38762W        W11077  34.944   0.847   1.314
38763W        W11078  32.046  13.676   0.448
38764W        W11079   2.818  24.683  10.410
38765W        W11080  22.519  18.653   3.860
38766W        W11081  36.920  11.199   1.381
38767W        W11082  13.202   9.712  13.387
38768W        W11083  23.005  36.350   1.903
38769W        W11084  41.324  23.230  13.525
38770W        W11085  41.038  13.217  11.958
38771W        W11086   2.324   6.735   3.807
38772W        W11087  42.450   2.864   3.184
38773W        W11088  25.644  34.470   2.244
38774W        W11089  44.417   7.798   0.828
38775W        W11090  16.645  43.882  11.467
38776W        W11091  19.736  14.667   2.413
38777W        W11092  23.691  18.605  14.946
38778W        W11093  12.855  28.174  13.512
38779W        W11094  24.613  35.897   1.815
38780W        W11095   4.410  19.074   0.799
38781W        W11096  30.000  44.866  11.047
38782W        W11097  35.039  27.612   3.850
38783W        W11098  22.217  23.005   0.369
38784W        W11099  38.858  21.105  13.464
38785W        W11100  23.232  24.052   3.162
38786W        W11101  32.985   6.189  12.370
38787W        W11102   5.362  17.198  13.872
38788W        W11103  42.324   9.174  10.511
38789W        W11104  31.962  11.279  11.108
38790W        W11105  37.878  11.349   4.322
38791W        W11106   8.405   4.783   4.163
38792W        W11107   5.704  36.575   4.762
38793W        W11108  44.394  15.702  11.076
38794W        W11109  36.424  44.996  11.546
38795W        W11110  39.535  26.576   4.300
38796W        W11111  32.407  14.208   5.149
38797W        W11112  18.752   7.671  14.007
38798W        W11113  14.161  41.802   4.668
38799W        W11114  26.601   8.208  14.030
38800W        W11115  22.627  33.496   1.217
38801W        W11116  25.599  14.317   2.677
38802W        W11117   9.277  27.187  11.895
38803W        W11118  38.945  25.480  12.944
38804W        W11119  20.180  36.914   1.408
38805W        W11120  23.532  28.098  13.999
38806W        W11121  25.098   3.330  13.858
38807W        W11122  37.844   1.875  11.928
38808W        W11123  37.457   9.753   0.838
38809W        W11124  16.284   7.867   3.279
38810W        W11125  38.905  16.108  12.024
38811W        W11126  34.994  39.491  12.918
38812W        W11127  12.192   5.871  13.492
38813W        W11128  12.168   1.799   4.306
38814W        W11129  34.080  38.862  14.370
38815W        W11130  25.204  13.776   4.198
38816W        W11131  27.644  18.117  13.013
38817W        W11132  25.092  30.912  13.996
38818W        W11133  21.263   9.275   1.276
38819W        W11134  39.328  33.999   1.267
38820W        W11135  25.213  23.077   0.891
38821W        W11136  35.005  11.172  14.419
38822W        W11137  27.522  36.884   4.771
38823W        W11138  23.172  36.496   2.899
38824W        W11139  42.908  31.540  11.542
38825W        W11140  37.002   6.249  12.571
38826W        W11141   8.819  30.972  13.032
38827W        W11142  16.781  42.517  13.432
38828W        W11143  32.110  39.050  14.281
38829W        W11144  30.013  20.067  13.518
38830W        W11145  38.041  19.611   3.869
38831W        W11146   5.387  25.591   0.333
38832W        W11147  31.042  11.844   4.697
38833W        W11148   5.793   1.977  14.390
38834W        W11149   5.746  11.327   4.354
38835W        W11150  26.132  39.497  14.340
38836W        W11151  43.996   4.857   2.666
38837W        W11152  40.492  43.945   4.125
38838W        W11153   2.464  26.529  10.146
38839W        W11154  28.106  36.584   3.725
38840W        W11155  14.646  32.498  10.939
38841W        W11156  30.523   2.826   1.214
38842W        W11157  28.632  43.311   1.340
38843W        W11158   6.874  21.701   0.270
38844W        W11159  41.832  44.501  13.380
38845W        W11160  20.648  38.826  13.996
38846W        W11161  41.929  12.154  11.445
38847W        W11162  14.607   4.865  11.428
38848W        W11163  37.490  43.956  10.470
38849W        W11164  26.526  11.137   2.344
38850W        W11165   8.871  22.136  11.889
38851W        W11166  18.661   2.760   4.629
38852W        W11167   2.730  15.647  13.976
38853W        W11168  28.482   1.832  11.104
38854W        W11169  38.571  43.925  10.481
38855W        W11170  10.361  24.995   2.237
38856W        W11171   5.733  38.502   2.382
38857W        W11172  31.578   1.414   4.310
38858W        W11173   3.773  23.603   4.353
38859W        W11174  43.862  34.493  11.875
38860W        W11175  42.990   8.194  12.992
38861W        W11176   4.341  18.294   2.416
38862W        W11177  26.039  16.191  12.477
38863W        W11178  34.543   5.433  13.521
38864W        W11179  17.564  43.992  14.459
38865W        W11180  25.493  16.189   2.412
38866W        W11181   8.769  37.912  12.005
38867W        W11182  44.873  19.234  14.429
38868W        W11183  42.976  21.568   0.817
38869W        W11184  24.030  18.092  11.057
38870W        W11185   5.916  43.469   2.885
38871W        W11186  24.546  40.347   2.768
38872W        W11187  29.027  16.119  14.435
38873W        W11188  38.490  11.741   1.926
38874W        W11189   3.400  26.979  10.557
38875W        W11190  19.545  23.036   1.270
38876W        W11191  33.093  19.089  10.518
38877W        W11192  20.193   5.741  12.464
38878W        W11193  37.899  41.382  14.471
38879W        W11194  10.202  41.497   0.460
38880W        W11195  10.266  19.543  10.090
38881W        W11196  14.249  18.727  14.320
38882W        W11197  22.021  20.213   0.896
38883W        W11198  12.825  25.976  10.947
38884W        W11199  21.705   9.239   4.147
38885W        W11200  30.136   4.372  10.905
38886W        W11201  35.941  22.601  12.552
38887W        W11202  41.473  31.600  12.851
38888W        W11203  10.642  23.213  10.568
38889W        W11204  44.768  37.083   1.714
38890W        W11205  37.051  37.933   0.768
38891W        W11206   3.787   0.965   2.246
38892W        W11207  26.961  36.524   3.185
38893W        W11208  21.520  38.836   4.786
38894W        W11209  25.550  12.730  12.481
38895W        W11210  41.443  32.134   1.231
38896W        W11211   8.869   1.464   1.325
38897W        W11212   5.407   4.794  10.009
38898W        W11213  20.640  43.821   3.253
38899W        W11214   1.476   1.481   2.322
38900W        W11215  15.790  13.219   1.808
38901W        W11216  28.176  30.556  14.776
38902W        W11217  39.512  38.012   0.896
38903W        W11218   6.804  40.334  14.430
38904W        W11219  13.156   2.349   0.426
38905W        W11220   9.701   8.352   0.288
38906W        W11221  17.742  44.845  13.386
38907W        W11222  19.170   9.710  12.455
38908W        W11223  33.079  25.635   0.946
38909W        W11224  15.725   0.360  13.534
38910W        W11225  33.414  30.155  11.407
38911W        W11226  37.897  37.867   4.136
38912W        W11227  38.063   1.791   1.831
38913W        W11228  12.627  39.894   0.757
38914W        W11229  31.943  17.183   3.734
38915W        W11230   7.672  41.032   0.406
38916W        W11231  37.396  26.630  14.791
38917W        W11232   6.340  26.030  14.466
38918W        W11233  19.281   8.302   3.742
38919W        W11234   0.824  32.999   0.777
38920W        W11235  23.521  40.813   2.327
38921W        W11236  14.315  18.604   2.771
38922W        W11237   3.395  23.686  13.422
38923W        W11238  44.300  29.479  12.978
38924W        W11239  41.390  37.970   1.314
38925W        W11240  32.615  34.031   4.287
38926W        W11241   3.771  19.613  14.343
38927W        W11242  27.126  41.807   1.878
38928W        W11243   5.273  26.015   0.764
38929W        W11244   0.429  24.062  11.377
38930W        W11245   3.355  35.571  11.075
38931W        W11246  21.219  21.159   3.305
38932W        W11247  29.103  17.075   4.711
38933W        W11248  39.439  39.535   2.663
38934W        W11249  42.411  43.434  13.322
38935W        W11250   0.281  35.556   3.206
38936W        W11251  16.571  29.609   9.976
38937W        W11252   9.307  38.495  12.529
38938W        W11253   3.217  44.422  14.391
38939W        W11254  17.744  30.068  10.043
38940W        W11255  35.456  11.274  12.027
38941W        W11256  40.916  14.674   4.230
38942W        W11257  23.535   1.447   3.698
38943W        W11258  23.178  23.091  13.543
38944W        W11259  14.763   3.887   0.303
38945W        W11260   5.882   4.934  14.315
38946W        W11261   4.450  25.686   2.389
38947W        W11262   3.265  14.147   3.310
38948W        W11263  13.818   5.358  11.460
38949W        W11264  42.526  22.644  13.023
38950W        W11265   4.209  34.921  14.499
38951W        W11266  44.911  16.589   0.359
38952W        W11267  17.654  42.818  11.515
38953W        W11268  29.480  21.548   2.212
38954W        W11269  16.777   9.320   2.405
38955W        W11270  29.919  26.989  12.942
38956W        W11271   4.762  18.090  12.482
38957W        W11272  26.666  30.433  12.070
38958W        W11273  34.963  35.422  13.382
38959W        W11274  44.323  33.507  14.810
38960W        W11275  30.635  14.215   3.691
38961W        W11276  39.008  24.133  13.026
38962W        W11277  33.468   4.371  12.504
38963W        W11278  40.975   8.897   4.333
38964W        W11279  22.643  29.500   1.352
38965W        W11280  19.659  13.171  14.771
38966W        W11281  33.034   7.885  13.429
38967W        W11282  38.439  36.407   3.186
38968W        W11283  24.485   6.206   2.743
38969W        W11284  14.132   8.232  10.583
38970W        W11285   2.250   2.401  14.372
38971W        W11286  24.098   6.202   2.670
38972W        W11287   1.934  14.592   0.872
38973W        W11288  19.701  35.546   1.855
38974W        W11289  12.250  10.724  12.008
38975W        W11290   5.916  35.038  12.068
38976W        W11291  35.880  44.946  14.861
38977W        W11292  43.781   6.358  12.913
38978W        W11293   2.790  10.823   0.379
38979W        W11294  32.420  21.644  10.409
38980W        W11295  29.129  23.141  10.624
38981W        W11296  14.623   4.777   1.902
38982W        W11297  43.341  42.402   3.716
38983W        W11298  15.244  32.934   2.284
38984W        W11299  10.840   1.261   2.799
38985W        W11300  32.980   5.356  14.394
38986W        W11301  22.020  43.879  11.946
38987W        W11302  41.803   7.269  14.472
38988W        W11303  43.366  14.319  10.589
38989W        W11304  42.781   5.439   2.202
38990W        W11305   9.266  38.394  13.837
38991W        W11306  26.500  37.452   1.430
38992W        W11307  27.030  22.545  13.862
38993W        W11308  38.906  16.119   3.767
38994W        W11309  25.638  15.173  14.762
38995W        W11310  10.739  12.761  11.024
38996W        W11311  16.794  16.191  12.427
38997W        W11312   3.784   3.932   2.883
38998W        W11313   1.935  33.874  13.861
38999W        W11314  21.027  17.130   2.725
39000W        W11315  22.678  43.430  10.420
39001W        W11316  43.391  26.166   4.320
39002W        W11317  32.089   2.460  10.467
39003W        W11318  22.720  34.978   2.843
39004W        W11319   6.286  33.948   2.264
39005W        W11320  19.754  19.698   4.211
39006W        W11321  22.699  21.723  12.576
39007W        W11322  18.778  33.588  12.460
39008W        W11323   4.428  11.821  14.514
39009W        W11324  43.960   8.833  12.979
39010W        W11325  44.401  39.911   4.734
39011W        W11326  23.671  41.365   0.935
39012W        W11327   5.366  10.361   9.933
39013W        W11328   9.664  40.977   4.651
39014W        W11329   0.280  33.880   4.169
39015W        W11330   7.910  38.529  10.411
39016W        W11331  35.424  19.048  12.552
39017W        W11332  15.176  27.125  14.435
39018W        W11333  24.587  33.549  14.025
39019W        W11334  42.847  39.533  13.868
39020W        W11335  36.432   7.297  14.431
39021W        W11336  43.016  43.939   0.299
39022W        W11337  35.516  37.875   4.652
39023W        W11338  31.599  31.635  11.539
39024W        W11339  38.898   3.744  11.055
39025W        W11340   0.488   5.796  11.860
39026W        W11341   4.328  17.255   2.232
39027W        W11342  15.616  23.698  11.535
39028W        W11343  30.145  10.301   2.876
39029W        W11344  22.144  27.571  13.340
39030W        W11345   5.845  29.601  12.044
39031W        W11346  34.461  13.775  14.296
39032W        W11347  25.652  42.867  11.981
39033W        W11348   1.757  31.144   3.332
39034W        W11349   7.275  40.900   3.300
39035W        W11350  44.999  10.878   1.419
39036W        W11351  17.760  14.618  13.802
39037W        W11352  28.442  34.555   4.728
39038W        W11353   9.192  19.766   4.121
39039W        W11354  43.846  33.603   3.261
39040W        W11355   5.395  37.352   2.385
39041W        W11356   4.253  28.053   1.447
39042W        W11357   3.233   2.234  12.080
39043W        W11358  44.438  43.334  11.413
39044W        W11359  41.810   4.422  14.895
39045W        W11360  16.261  17.067   1.909
39046W        W11361  39.896  35.499   1.743
39047W        W11362  38.869  41.324   3.711
39048W        W11363   4.807   8.789   2.346
39049W        W11364  41.917   3.905   4.794
39050W        W11365   7.697  25.049   4.243
39051W        W11366  39.921  19.218  13.493
39052W        W11367  24.601  12.276   1.915
39053W        W11368  44.814   7.368  13.926
39054W        W11369   5.801   7.801   3.708
39055W        W11370  24.144   4.435  14.437
39056W        W11371  25.052  21.241  10.937
39057W        W11372  12.318  13.182   4.226
39058W        W11373  43.462  19.646  12.490
39059W        W11374  43.317   7.408  10.479
39060W        W11375  32.549  37.025  12.030
39061W        W11376  40.370  34.962   4.156
39062W        W11377  36.485  23.568   0.945
39063W        W11378  41.491   1.863  12.065
39064W        W11379  36.078  43.293  11.972
39065W        W11380  40.337  30.105  10.541
39066W        W11381  41.417  15.646  13.860
39067W        W11382  19.196  28.517   3.788
39068W        W11383  14.705   0.489  11.425
39069W        W11384  31.612   7.691   2.662
39070W        W11385  18.226   4.844   0.938
39071W        W11386  17.101   9.709  10.635
39072W        W11387   2.305  26.692  13.021
39073W        W11388  35.553  13.222  12.561
39074W        W11389   1.273  11.840   1.320
39075W        W11390  36.918  15.157  13.437
39076W        W11391  21.257  35.980   4.800
39077W        W11392  29.635  31.645  10.925
39078W        W11393   6.792  18.657  10.465
39079W        W11394  40.314   4.716   2.212
39080W        W11395  25.574   0.290  14.797
39081W        W11396  38.420  10.235  13.831
39082W        W11397   4.301   2.347   3.802
39083W        W11398   5.405  43.807  12.074
39084W        W11399  23.504  16.737   1.833
39085W        W11400  26.973  42.010   0.282
39086W        W11401   9.172  44.812   2.743
39087W        W11402  39.952  28.113  13.920
39088W        W11403  30.563  20.529  14.829
39089W        W11404  33.389  20.542   4.334
39090W        W11405  24.041   8.369   3.829
39091W        W11406  34.897   8.299  10.538
39092W        W11407   3.349  15.189   1.234
39093W        W11408  18.195  40.388  12.362
39094W        W11409   2.472   8.695  11.894
39095W        W11410  13.284   9.152  12.572
39096W        W11411  43.947  32.527   3.783
39097W        W11412  33.121  36.961  11.556
39098W        W11413  35.533  30.926   1.406
39099W        W11414  16.072  29.440  13.418
39100W        W11415  25.506   7.780  13.883
39101W        W11416   7.848  13.610   2.701
39102W        W11417  16.605  30.450   2.311
39103W        W11418   8.238  39.466  11.892
39104W        W11419   9.247  28.454  14.777
39105W        W11420  36.947  13.331   1.326
39106W        W11421  15.161   5.226   2.780
39107W        W11422   0.256  36.520  13.385
39108W        W11423  21.733  32.109  14.299
39109W        W11424  26.013  44.933   2.362
39110W        W11425   3.838   2.452   0.314
39111W        W11426  10.237  44.861  13.424
39112W        W11427  14.827   6.350  12.927
39113W        W11428  19.561  19.549   0.407
39114W        W11429   7.726  24.178   2.684
39115W        W11430  34.885   9.683  14.476
39116W        W11431  20.730  10.295  10.019
39117W        W11432  17.663  33.544  10.961
39118W        W11433  34.922  24.174  14.010
39119W        W11434  34.053  20.269   4.648
39120W        W11435  21.174   4.818  13.876
39121W        W11436  17.224   4.844   0.460
39122W        W11437  38.331   2.339  11.996
39123W        W11438  38.352   0.415   4.154
39124W        W11439  37.892  37.508   2.347
39125W        W11440  21.157  30.547   3.353
39126W        W11441  42.961   9.333   2.217
39127W        W11442  39.853  10.753   3.199
39128W        W11443  14.691  30.434  13.518
39129W        W11444  30.475   5.874   2.826
39130W        W11445  23.623  18.662  13.546
39131W        W11446  32.926  29.174   0.269
39132W        W11447   7.415   6.216  11.889
39133W        W11448   8.370  26.498   1.886
39134W        W11449  20.632  21.608   4.739
39135W        W11450  27.118  36.952   1.286
39136W        W11451  35.538  12.639   0.253
39137W        W11452  10.818  11.821   3.279
39138W        W11453  16.087  38.492   4.343
39139W        W11454   6.214  35.499   4.767
39140W        W11455  15.323  33.537   1.278
39141W        W11456   7.328  25.707  12.830
39142W        W11457  24.550  38.036   0.443
39143W        W11458  14.256  10.319   4.222
39144W        W11459   1.807  13.619   1.694
39145W        W11460  32.092  12.682  11.469
39146W        W11461  42.860   2.962  12.502
39147W        W11462   1.842  26.105  10.545
39148W        W11463  31.430   6.289   4.254
39149W        W11464  15.323   2.456   0.352
39150W        W11465  24.488  24.719   0.948
39151W        W11466   6.695  30.049   0.258
39152W        W11467  27.055  17.065   0.401
39153W        W11468  16.197  43.467  10.431
39154W        W11469  11.702  18.625   5.708
39155W        W11470  24.059  34.579   0.376
39156W        W11471   7.825  21.703   4.739
39157W        W11472  43.984  10.713  12.917
39158W        W11473  38.495  16.157   1.829
39159W        W11474  17.582  24.024   2.252
39160W        W11475  29.038  39.855  11.993
39161W        W11476   6.296  18.242  11.405
39162W        W11477  30.631  43.372   0.880
39163W        W11478  12.259  30.018  11.507
39164W        W11479  40.506  17.722   3.838
39165W        W11480  39.374  34.581   1.301
39166W        W11481  41.847   5.772  11.535
39167W        W11482  39.331  32.613   2.709
39168W        W11483  15.612  36.567  10.933
39169W        W11484  42.897  12.270   3.798
39170W        W11485  39.858  12.813  14.818
39171W        W11486   2.937   3.461  11.510
39172W        W11487  33.549  31.551   1.280
39173W        W11488   8.722  13.704  14.938
39174W        W11489  34.943  31.503  10.979
39175W        W11490  14.322  30.142  12.422
39176W        W11491  15.593  39.066  12.398
39177W        W11492  35.917  14.316  11.016
39178W        W11493  37.564  23.110   0.728
39179W        W11494  26.503  33.058   4.194
39180W        W11495  44.762   9.860  12.079
39181W        W11496  36.411  38.075  11.885
39182W        W11497  22.719  28.583   2.414
39183W        W11498  37.507  21.252  14.935
39184W        W11499  35.951  20.110   3.293
39185W        W11500   5.210   1.883   1.885
39186W        W11501  28.572   6.238  13.045
39187W        W11502  21.545  21.163   1.372
39188W        W11503  18.686  30.655   0.917
39189W        W11504  30.604   4.312  10.428
39190W        W11505   3.398   8.227  13.544
39191W        W11506  32.408  22.075  12.996
39192W        W11507  37.568  37.031  13.429
39193W        W11508  40.906  31.966  13.844
39194W        W11509   4.784  27.517   3.263
39195W        W11510   9.695   8.887   3.362
39196W        W11511  37.431   4.838   4.730
39197W        W11512  24.096  10.799  14.941
39198W        W11513  32.586  39.921   3.199
39199W        W11514  36.093  16.226   0.315
39200W        W11515  23.532  29.103  10.944
39201W        W11516  34.865   7.853  12.897
39202W        W11517   4.699  30.958  13.518
39203W        W11518  24.703  32.100   4.793
39204W        W11519  20.116   8.239   1.381
39205W        W11520  44.793   4.767   9.967
39206W        W11521   9.259  11.622  12.487
39207W        W11522  17.288  37.016   1.862
39208W        W11523  18.650  36.489   0.273
39209W        W11524  38.904  29.450  10.512
39210W        W11525  32.919  29.599   1.705
39211W        W11526  10.679  30.564  10.612
39212W        W11527  24.209  23.516   2.222
39213W        W11528  10.282  21.533   4.689
39214W        W11529   9.745  33.083  14.986
39215W        W11530  11.868   5.845  11.072
39216W        W11531   1.279  29.639  12.364
39217W        W11532  35.076  38.838   0.784
39218W        W11533  29.438  29.453   3.379
39219W        W11534  43.943  35.080   2.684
39220W        W11535   7.798  26.561  12.400
39221W        W11536  22.102  22.251   5.252
39222W        W11537  20.053  25.998   0.818
39223W        W11538  20.732  37.444   0.357
39224W        W11539  39.057  41.790   3.305
39225W        W11540  25.518  26.565   2.736
39226W        W11541  27.022  43.294  12.954
39227W        W11542  31.112  31.423  12.072
39228W        W11543   8.268  26.628  11.889
39229W        W11544  24.663  20.719   1.906
39230W        W11545  17.218   5.236  13.866
39231W        W11546  17.300  34.074   3.864
39232W        W11547  40.982  36.059   3.784
39233W        W11548  31.937  37.406  11.595
39234W        W11549  38.971  39.048  11.544
39235W        W11550   7.670  37.427  14.474
39236W        W11551   1.844  11.746   2.837
39237W        W11552  33.025  17.154   3.221
39238W        W11553   7.379  17.163   4.798
39239W        W11554  43.446  19.133   2.413
39240W        W11555  11.328  28.961   3.146
39241W        W11556  19.683  15.739  12.068
39242W        W11557  37.912   3.365   1.904
39243W        W11558   8.718   4.899   4.225
39244W        W11559   4.703   2.953   0.269
39245W        W11560  33.496  18.753   1.334
39246W        W11561   5.893   6.693   2.738
39247W        W11562   1.938  18.258  12.950
39248W        W11563  10.701  10.753  10.959
39249W        W11564  16.267  42.928  11.606
39250W        W11565  21.728  41.506   1.747
39251W        W11566  40.431   6.321   4.667
39252W        W11567  32.013   8.680  11.959
39253W        W11568  17.230   0.946  11.968
39254W        W11569  31.983  30.613   0.911
39255W        W11570  15.800   6.696   1.253
39256W        W11571  35.907  15.129  13.389
39257W        W11572  14.816  34.878  10.929
39258W        W11573  33.447  28.579   3.639
39259W        W11574  29.473  31.941  14.317
39260W        W11575  22.545  25.540   1.368
39261W        W11576  43.452  18.119   1.702
39262W        W11577   2.936  18.666  14.370
39263W        W11578   2.845  10.814  11.867
39264W        W11579  42.340  39.018   4.341
39265W        W11580   7.806  29.153  11.557
39266W        W11581  28.678   4.833   0.922
39267W        W11582   6.728  31.001  13.328
39268W        W11583  24.694   7.787   2.409
39269W        W11584  38.495  33.477   3.684
39270W        W11585  40.522  27.650   2.291
39271W        W11586  35.917   9.856   0.356
39272W        W11587  26.697  17.207  13.992
39273W        W11588  28.135  33.056  14.028
39274W        W11589  38.978  39.889   5.160
39275W        W11590  38.829  15.699  11.986
39276W        W11591   2.819  27.512  14.279
39277W        W11592  41.872  11.662  11.388
39278W        W11593   9.671   7.817  11.128
39279W        W11594  35.921  27.566   3.242
39280W        W11595  44.283  20.053   2.345
39281W        W11596   1.326  29.943   3.197
39282W        W11597  35.987  30.158   0.836
39283W        W11598  30.568  11.831  14.340
39284W        W11599  11.626  27.111  10.534
39285W        W11600  11.858  30.032  11.104
39286W        W11601   4.244  10.366  10.989
39287W        W11602  39.372  11.849   2.715
39288W        W11603  32.956   7.332   2.876
39289W        W11604  26.589  11.665   3.679
39290W        W11605  23.104  25.635  11.572
39291W        W11606  41.790  18.618  11.039
39292W        W11607  28.585  26.580  11.451
39293W        W11608  22.077  29.033   3.253
39294W        W11609  28.057  37.965   2.868
39295W        W11610  33.002  27.146   4.154
39296W        W11611  26.116   0.941  13.419
39297W        W11612  20.748  25.215   3.327
39298W        W11613  31.454  23.100   4.232
39299W        W11614  33.475   7.782   1.257
39300W        W11615  15.183  21.658  11.463
39301W        W11616  21.602  38.463   0.844
39302W        W11617  21.064  25.684  13.989
39303W        W11618  41.893   0.348  14.468
39304W        W11619  31.033  32.978   3.312
39305W        W11620  18.249  44.997   2.295
39306W        W11621  27.689  16.575   1.835
39307W        W11622  15.613   3.896  10.900
39308W        W11623  33.001  16.267   4.813
39309W        W11624  21.114   0.768   0.874
39310W        W11625   4.876  19.542   1.273
39311W        W11626  31.935  14.602  12.832
39312W        W11627   0.488  36.527  10.008
39313W        W11628   5.363  15.165  12.058
39314W        W11629   2.873  27.650   0.951
39315W        W11630  43.846  35.101   4.252
39316W        W11631   5.361  39.421  12.372
39317W        W11632  41.946   5.360  12.053
39318W        W11633  34.970  40.022  12.996
39319W        W11634  22.544  21.647  14.882
39320W        W11635  21.021  36.046   3.346
39321W        W11636  14.791  20.202  13.056
39322W        W11637  35.020   2.381  11.962
39323W        W11638  19.775  43.393   0.386
39324W        W11639  16.684  27.627   9.656
39325W        W11640  28.567  18.227   2.763
39326W        W11641  34.064  16.598  12.831
39327W        W11642   5.422  28.033  11.584
39328W        W11643  32.091  42.309  11.860
39329W        W11644  33.895  36.056  12.482
39330W        W11645  14.595   9.369   4.334
39331W        W11646  11.250  10.194  10.899
39332W        W11647  19.751  22.713   4.341
39333W        W11648  36.040  42.425  14.816
39334W        W11649  28.956  16.596  12.402
39335W        W11650  12.705   0.442   2.878
39336W        W11651  14.308  34.452  10.976
39337W        W11652   0.331  20.255   1.922
39338W        W11653   7.265  20.736  11.966
39339W        W11654  35.385  23.714   3.771
39340W        W11655  27.978  44.876   3.657
39341W        W11656   9.248  36.394  12.482
39342W        W11657  27.620  43.304  14.279
39343W        W11658  36.593  27.545   1.401
39344W        W11659  37.482  11.785   2.871
39345W        W11660  28.119   9.714   3.699
39346W        W11661  12.812  20.593   3.645
39347W        W11662  17.181  39.049   4.159
39348W        W11663   1.967   5.379   4.832
39349W        W11664  11.248  29.931   0.330
39350W        W11665  29.956  42.819  13.985
39351W        W11666  27.092  37.017   2.309
39352W        W11667  42.951  33.928   2.903
39353W        W11668   4.753  35.990  11.113
39354W        W11669  40.449   7.286  10.145
39355W        W11670  18.777  40.382   2.677
39356W        W11671  30.416   9.848   1.741
39357W        W11672  39.326  32.038   4.802
39358W        W11673  10.317  26.557  13.506
39359W        W11674  12.713   8.664   2.225
39360W        W11675  19.249  42.946   3.705
39361W        W11676   1.481  18.583   1.422
39362W        W11677   4.419  17.163  12.069
39363W        W11678   5.770  31.456   3.836
39364W        W11679  33.523  16.143  14.997
39365W        W11680  19.750   0.823   1.715
39366W        W11681   7.310  27.460  10.577
39367W        W11682  39.944  39.327   0.867
39368W        W11683   4.788  25.096  10.439
39369W        W11684  43.861  40.542  11.109
39370W        W11685  27.165   2.313   1.287
39371W        W11686  18.265  27.984  14.427
39372W        W11687   8.664  37.570   0.743
39373W        W11688  20.681  44.415   1.738
39374W        W11689  30.005  42.366  11.874
39375W        W11690   0.250  29.175  11.105
39376W        W11691  25.620  39.380  14.311
39377W        W11692  31.543  15.091  10.977
39378W        W11693  37.439  28.647  14.426
39379W        W11694  28.172  15.135  14.923
39380W        W11695   1.412  29.624   0.858
39381W        W11696  14.638  38.443   2.735
39382W        W11697  20.136  14.588   2.238
39383W        W11698  14.202  29.618  13.355
39384W        W11699  36.408  12.192   0.393
39385W        W11700  36.483   0.466   2.374
39386W        W11701  17.204  32.030   3.338
39387W        W11702  18.114  17.560  11.977
39388W        W11703   9.731  25.155  12.513
39389W        W11704  25.618   5.405   5.159
39390W        W11705  22.725  15.620  12.502
39391W        W11706   3.259  18.551  14.909
39392W        W11707   8.286   6.256  12.854
39393W        W11708  12.235   2.336   0.821
39394W        W11709  43.303  36.010   0.840
39395W        W11710  19.215  44.794  11.586
39396W        W11711  44.274  25.598  12.368
39397W        W11712  27.194  41.004   3.270
39398W        W11713   2.392  23.667  13.883
39399W        W11714  33.958  34.408   0.941
39400W        W11715   2.959  18.090   0.398
39401W        W11716   1.871  15.584   2.819
39402W        W11717  28.632   0.939   1.843
39403W        W11718  20.216  36.913  11.076
39404W        W11719  13.170  26.064   0.787
39405W        W11720  27.103   5.695  10.473
39406W        W11721   7.199  16.156   0.851
39407W        W11722  14.795   9.208   0.917
39408W        W11723  40.955   7.675   0.479
39409W        W11724  30.135  43.910   0.829
39410W        W11725  10.204  39.987   2.885
39411W        W11726  25.613  16.786  14.330
39412W        W11727  40.374   0.861   4.792
39413W        W11728  32.528  16.177   2.801
39414W        W11729  20.712  44.489  12.059
39415W        W11730  33.032  32.567  13.048
39416W        W11731  19.641   6.863   2.361
39417W        W11732  44.399  26.490   0.322
39418W        W11733  35.401  20.549   0.897
39419W        W11734  33.962  34.531   4.136
39420W        W11735   5.909  17.636  13.020
39421W        W11736  37.455  39.967  12.386
39422W        W11737  35.400  34.070  12.524
39423W        W11738  27.151  39.038  13.444
39424W        W11739  18.778  15.818  11.396
39425W        W11740  22.100  30.032  12.952
39426W        W11741  12.716   2.269   0.392
39427W        W11742  42.799  17.711   3.800
39428W        W11743  41.375  42.998  14.328
39429W        W11744  21.629  18.285  12.893
39430W        W11745   6.804   8.839   4.624
39431W        W11746  42.449   8.256   2.723
39432W        W11747  39.027   2.226   3.356
39433W        W11748  14.107   7.173   0.918
39434W        W11749  24.561  22.620  14.308
39435W        W11750  31.985  15.712   2.339
39436W        W11751   8.364  22.217  13.905
39437W        W11752  42.920   1.470  14.883
39438W        W11753   5.699  31.486  14.365
39439W        W11754  28.567  29.495   4.337
39440W        W11755  35.907  31.946  13.791
39441W        W11756  32.568  27.040  13.031
39442W        W11757   3.354   9.740  12.416
39443W        W11758   1.744   8.187  13.329
39444W        W11759  41.969  42.316   3.321
39445W        W11760  27.172  30.597   2.831
39446W        W11761  15.785   4.257   0.950
39447W        W11762  22.047  36.416   0.940
39448W        W11763  39.017  32.479   1.238
39449W        W11764   4.445  16.566   0.431
39450W        W11765   9.787  14.309  11.962
39451W        W11766  30.000  28.635   1.280
39452W        W11767  12.317  24.533   1.731
39453W        W11768  30.568  24.502   0.926
39454W        W11769  29.109   7.687  11.595
39455W        W11770  40.437  17.116   2.403
39456W        W11771  16.608  32.942  12.914
39457W        W11772  27.668  12.682   2.851
39458W        W11773   5.695  21.153  12.426
39459W        W11774  23.101   2.467   0.848
39460W        W11775  19.260   9.360  10.961
39461W        W11776  42.907  16.172   2.396
39462W        W11777   9.155   9.314  14.024
39463W        W11778  18.056  21.617   0.864
39464W        W11779   3.792  18.100   4.215
39465W        W11780  28.013  10.777  10.549
39466W        W11781  38.980  18.158  12.525
39467W        W11782  17.637   7.804   0.827
39468W        W11783  34.487   7.342  13.937
39469W        W11784  29.081  19.265  13.404
39470W        W11785  35.968  33.106  11.063
39471W        W11786   7.311  10.213   5.203
39472W        W11787  37.344  43.362  12.901
39473W        W11788   5.244   1.272   1.301
39474W        W11789  25.580  30.579  13.329
39475W        W11790  24.111   0.773  14.433
39476W        W11791  15.802  29.010   4.723
39477W        W11792   5.745   1.260  11.877
39478W        W11793   5.345  44.503   4.716
39479W        W11794  33.031   3.777   4.326
39480W        W11795  11.660  11.833  13.058
39481W        W11796  36.863  21.570  10.912
39482W        W11797  29.624  33.905  12.368
39483W        W11798  34.538  41.852   2.717
39484W        W11799  35.593  26.086  10.608
39485W        W11800   4.933  40.002  10.932
39486W        W11801   1.404   4.709  14.356
39487W        W11802  31.435  36.436  12.013
39488W        W11803   7.308  39.008   0.817
39489W        W11804   1.248  23.645   0.418
39490W        W11805  13.790  41.958   0.443
39491W        W11806  21.026   2.431   0.865
39492W        W11807   9.325  33.545  12.844
39493W        W11808  38.375  31.414   0.367
39494W        W11809   2.849  40.887  13.006
39495W        W11810  39.497   2.964  12.539
39496W        W11811  43.278  42.839  14.769
39497W        W11812  43.790  35.060   0.841
39498W        W11813  28.111  18.229  12.999
39499W        W11814  42.879  29.043  12.455
39500W        W11815   1.778  36.040   0.403
39501W        W11816   3.453  18.666   0.283
39502W        W11817   9.174  40.947  11.059
39503W        W11818  28.935  39.878  14.896
39504W        W11819  20.212  40.929   0.347
39505W        W11820   1.371  35.369   1.858
39506W        W11821   1.286  16.708  10.960
39507W        W11822  36.590  23.597   0.458
39508W        W11823  33.049  29.147   4.797
39509W        W11824   2.870  13.749  12.421
39510W        W11825   2.318  36.502  11.543
39511W        W11826   1.866  12.788   2.737
39512W        W11827  13.696  28.145   4.194
39513W        W11828   5.814   1.977   4.134
39514W        W11829  10.310  34.986  12.526
39515W        W11830  12.678  38.846   0.945
39516W        W11831  30.581  14.741   2.239
39517W        W11832  24.687  42.817  11.091
39518W        W11833  13.834  16.117   0.823
39519W        W11834   7.358   4.810  13.540
39520W        W11835  13.711  39.489   4.301
39521W        W11836  26.040  24.526  10.974
39522W        W11837  33.927  33.538   4.222
39523W        W11838  33.587  43.311  10.939
39524W        W11839   4.860   5.770  12.049
39525W        W11840   4.395   9.658  14.959
39526W        W11841  16.238  30.137   2.895
39527W        W11842  37.550  15.221   0.355
39528W        W11843  21.557  30.592   2.721
39529W        W11844   2.424   9.646   1.857
39530W        W11845  36.385  20.071  13.426
39531W        W11846  25.107   0.983   3.800
39532W        W11847  22.244   4.346   1.245
39533W        W11848  39.324  15.780   0.894
39534W        W11849  10.332   8.835   4.133
39535W        W11850  31.040  14.639  11.373
39536W        W11851  25.604  25.568   2.891
39537W        W11852  43.895   8.675   4.261
39538W        W11853  26.037  43.503  14.380
39539W        W11854  42.369  39.526  12.989
39540W        W11855  16.074  35.966  10.980
39541W        W11856   5.363  36.431  11.035
39542W        W11857   9.354  10.799   4.612
39543W        W11858  26.701  11.182   1.743
39544W        W11859  39.501  43.979  14.871
39545W        W11860  10.185   1.769  12.041
39546W        W11861  36.918  36.036  14.403
39547W        W11862  23.213  17.065   2.895
39548W        W11863   6.891  28.121   0.306
39549W        W11864  12.133   0.922   4.333
39550W        W11865   1.812  41.377  13.887
39551W        W11866   5.747  35.408   0.842
39552W        W11867  15.581   4.833  11.008
39553W        W11868  12.803  21.257   0.862
39554W        W11869   4.330   5.924   2.703
39555W        W11870   9.210  25.567   4.810
39556W        W11871  43.908  19.685   0.766
39557W        W11872  19.232  21.168  10.898
39558W        W11873  38.331  11.647   4.173
39559W        W11874  19.571  26.966   2.339
39560W        W11875  37.525  24.631  11.946
39561W        W11876  22.140  40.988  10.974
39562W        W11877  30.534  38.940  10.445
39563W        W11878  25.030  16.677  12.983
39564W        W11879  31.937  15.288   2.896
39565W        W11880  29.555   3.269   2.723
39566W        W11881  36.854  23.716   2.684
39567W        W11882   7.886  40.849  11.102
39568W        W11883   7.239  43.944  14.907
39569W        W11884   1.249  18.114  10.597
39570W        W11885  26.456   6.417  10.410
39571W        W11886  16.789  19.250  12.357
39572W        W11887  16.224  40.501   1.732
39573W        W11888   9.665  14.753   2.806
39574W        W11889  20.648  21.260   0.846
39575W        W11890  18.648   7.244  10.083
39576W        W11891  11.640  42.851  10.443
39577W        W11892  21.564  34.527  11.527
39578W        W11893  29.573  21.621   1.875
39579W        W11894  23.013  16.711   2.241
39580W        W11895  42.453  38.509  12.434
39581W        W11896  15.270  15.689   0.456
39582W        W11897   1.869  10.663   1.404
39583W        W11898   2.910  33.495  13.839
39584W        W11899  18.141  34.081   1.432
39585W        W11900  35.483   7.379  10.645
39586W        W11901  26.538  39.373   4.643
39587W        W11902  26.523  13.164   4.175
39588W        W11903  29.972   4.797  12.864
39589W        W11904  18.225  21.637  10.933
39590W        W11905  30.076  30.501  11.965
39591W        W11906   9.213   1.455  13.039
39592W        W11907  24.515  36.958   0.752
39593W        W11908  41.017  40.528  12.088
39594W        W11909  23.545   5.414   0.479
39595W        W11910  38.960  39.949   1.917
39596W        W11911  26.189  34.565   5.223
39597W        W11912   9.359   2.436  12.339
39598W        W11913  15.739  41.874   2.234
39599W        W11914  25.557  31.512   1.392
39600W        W11915  26.168  40.323   1.318
39601W        W11916  14.300  26.197   2.386
39602W        W11917  13.752  17.796   1.275
39603W        W11918  27.094  34.901   5.172
39604W        W11919  40.469  10.648  12.885
39605W        W11920  26.029  10.760   0.759
39606W        W11921  43.950  34.978  12.356
39607W        W11922  18.558   4.756   2.266
39608W        W11923   5.738  30.115   4.757
39609W        W11924  20.643  29.068   2.740
39610W        W11925  39.823  41.033   4.349
39611W        W11926  19.239  41.869   4.302
39612W        W11927  36.066   3.396  12.871
39613W        W11928  11.316  35.603   3.168
39614W        W11929  34.387  32.981   3.217
39615W        W11930   3.263   9.215  12.414
39616W        W11931  36.507  23.148  11.043
39617W        W11932  21.195   5.735  11.524
39618W        W11933   3.379  23.026   3.725
39619W        W11934   1.322  20.678   3.370
39620W        W11935  26.560  25.980  12.490
39621W        W11936   2.374   8.224  14.413
39622W        W11937  17.279  26.608   4.610
39623W        W11938  44.778   2.796  13.994
39624W        W11939  42.493   9.227   2.418
39625W        W11940  16.288  30.437  11.041
39626W        W11941  30.921  24.621   3.727
39627W        W11942  19.619  10.737   1.858
39628W        W11943  39.442  13.167   4.804
39629W        W11944  16.636  32.044   4.354
39630W        W11945  11.720   8.334  13.404
39631W        W11946  40.941  32.413   2.376
39632W        W11947  32.994  41.905  14.884
39633W        W11948  43.321  33.007   2.349
39634W        W11949   6.420  26.458   5.200
39635W        W11950  43.896  34.967   1.900
39636W        W11951  40.320  25.703   2.267
39637W        W11952  20.199  24.521   1.899
39638W        W11953  27.054  26.028   2.194
39639W        W11954  36.935  26.183  11.940
39640W        W11955   8.372  30.933   0.319
39641W        W11956  42.946   4.913  10.553
39642W        W11957  37.515  21.642  12.072
39643W        W11958   5.201  12.717  14.457
39644W        W11959  37.910  25.023   0.828
39645W        W11960  10.686   0.808   2.870
39646W        W11961  41.302  16.726  10.423
39647W        W11962  43.877  38.526  14.296
39648W        W11963  32.629   9.877   4.834
39649W        W11964   0.781  33.567   4.808
39650W        W11965  28.122  16.675   1.708
39651W        W11966  11.774   9.732  12.492
39652W        W11967  18.669  21.711   4.250
39653W        W11968  33.577  41.493  10.643
39654W        W11969  11.246  32.477  10.493
39655W        W11970  19.078  15.754  11.584
39656W        W11971  16.764  16.191  12.935
39657W        W11972  44.771  17.652  14.429
39658W        W11973  40.530  24.695  12.426
39659W        W11974  11.766   6.698   2.688
39660W        W11975  16.590   8.351   0.769
39661W        W11976   6.690  30.104  11.102
39662W        W11977  22.583   7.763   0.337
39663W        W11978  24.685   7.713  13.405
39664W        W11979  36.442  42.321   1.373
39665W        W11980  34.441   1.433  10.458
39666W        W11981  31.085   3.905  13.431
39667W        W11982  26.469   2.878  11.949
39668W        W11983  29.134  24.002   2.183
39669W        W11984   3.950  23.690   9.950
39670W        W11985  14.270  28.548  11.442
39671W        W11986  31.482   5.234   4.147
39672W        W11987  38.985  38.453  10.581
39673W        W11988  22.215  38.828  10.485
39674W        W11989  16.789  22.020  14.356
39675W        W11990  16.125  14.147   1.263
39676W        W11991  35.361  26.081   2.746
39677W        W11992  39.538  35.985   0.936
39678W        W11993  28.438   3.436   1.821
39679W        W11994   7.737  39.360   0.482
39680W        W11995   5.374  17.633  12.959
39681W        W11996  12.691  26.522   1.818
39682W        W11997  30.094  31.596  10.503
39683W        W11998  17.591  23.188  14.500
39684W        W11999  31.059   6.220  10.999
39685W        W12000   2.380  15.771  11.057
39686W        W12001  24.542  35.442  11.983
39687W        W12002  28.662  23.547   3.158
39688W        W12003   2.389  44.778  10.460
39689W        W12004  33.982  21.242  11.061
39690W        W12005  20.077   7.768  12.541
39691W        W12006  17.636  22.615   0.316
39692W        W12007   9.333  42.826   0.372
39693W        W12008  15.761  40.340  13.833
39694W        W12009  37.520  29.971  10.959
39695W        W12010  29.006  22.165  13.439
39696W        W12011  33.469  37.874   3.311
39697W        W12012  35.414  10.337  14.920
39698W        W12013  23.711  10.829  12.362
39699W        W12014  17.146  43.788  12.918
39700W        W12015  33.470  17.768  10.958
39701W        W12016  22.029   9.684   3.661
39702W        W12017   9.261  20.206  14.370
39703W        W12018  36.520   9.264  13.545
39704W        W12019  30.645   1.271   1.294
39705W        W12020  26.567   8.345  11.950
39706W        W12021  22.564  24.220   3.812
39707W        W12022  28.453  20.095  10.460
39708W        W12023  13.628  12.140  13.033
39709W        W12024  25.074  30.545   2.750
39710W        W12025   0.776  21.180   0.288
39711W        W12026  29.146   7.798   1.764
39712W        W12027  16.293  25.040  11.609
39713W        W12028  13.703  27.179   0.331
39714W        W12029  37.544  16.566  10.967
39715W        W12030   3.382  34.865   4.352
39716W        W12031  33.430   2.862  14.314
39717W        W12032  24.139  16.595   3.822
39718W        W12033  39.909   2.432   3.649
39719W        W12034  44.354  32.045   4.224
39720W        W12035   0.352  20.571  12.501
39721W        W12036  34.485  15.257   1.722
39722W        W12037   8.720  39.048  13.056
39723W        W12038  19.726  42.437   0.449
39724W        W12039  36.455  12.215  11.409
39725W        W12040  40.922  42.928  11.453
39726W        W12041   3.248  26.111   0.788
39727W        W12042  33.923   8.262  13.354
39728W        W12043  26.483  19.099   0.349
39729W        W12044  39.042  10.254  12.917
39730W        W12045  23.179   4.370   3.780
39731W        W12046   4.805  43.326  14.483
39732W        W12047  38.939  34.947  14.441
39733W        W12048   8.764  22.026   0.444
39734W        W12049   9.246  31.944   3.785
39735W        W12050  12.840  18.721   4.715
39736W        W12051  40.519  15.326   4.792
39737W        W12052  28.000  12.360  11.073
39738W        W12053  17.213  27.049  10.611
39739W        W12054   1.464  16.280  14.989
39740W        W12055  41.388  35.917   2.349
39741W        W12056  11.859  37.015  14.278
39742W        W12057  12.686  29.477   2.198
39743W        W12058  19.220  44.280  13.503
39744W        W12059   1.742  24.062   3.636
39745W        W12060  20.611  35.536  10.984
39746W        W12061  33.412  27.510  10.105
39747W        W12062  44.282  11.188   4.244
39748W        W12063  30.977  17.064   9.948
39749W        W12064  27.599  42.023   2.828
39750W        W12065  23.033  10.202   0.455
39751W        W12066  39.834  38.843   4.305
39752W        W12067  13.695  36.558   0.466
39753W        W12068   9.702  10.213   3.349
39754W        W12069   3.382  13.759  11.983
39755W        W12070  11.643   8.320   0.916
39756W        W12071  23.578  37.576   3.297
39757W        W12072  25.620  32.939  11.109
39758W        W12073  23.685   5.690   4.259
39759W        W12074  21.084   0.813  13.358
39760W        W12075  35.085  36.525   0.768
39761W        W12076  37.052   8.839  11.570
39762W        W12077   6.777  23.132  11.586
39763W        W12078  19.246   5.334  13.327
39764W        W12079  15.701   3.434   1.331
39765W        W12080  42.468  43.356  13.875
39766W        W12081  18.168   5.302  10.523
39767W        W12082  38.996   3.888  10.429
39768W        W12083   6.808  30.131   1.876
39769W        W12084   7.252  32.061   1.424
39770W        W12085  16.683  44.944   2.274
39771W        W12086  17.769  14.614  10.522
39772W        W12087   4.774   6.817  11.048
39773W        W12088  40.018   4.238  14.000
39774W        W12089  35.539  20.610   2.782
39775W        W12090  35.960  36.497   5.185
39776W        W12091  43.788  44.484  13.938
39777W        W12092   5.278   4.864   4.308
39778W        W12093   5.881  40.439  11.998
39779W        W12094   2.916   1.964   0.948
39780W        W12095   3.845  37.449   1.857
39781W        W12096  11.219  35.474   1.305
39782W        W12097  30.952  43.771  12.400
39783W        W12098   0.343  25.006  12.834
39784W        W12099  40.419  12.269   3.323
39785W        W12100  21.580  21.620   0.773
39786W        W12101  43.812   6.196   3.664
39787W        W12102   3.734   4.309   2.257
39788W        W12103  12.697   1.410   2.350
39789W        W12104  24.720  30.443  10.421
39790W        W12105   0.890  22.664   3.790
39791W        W12106  15.240  12.332   3.324
39792W        W12107  36.962  21.225  10.455
39793W        W12108  34.506   1.254  12.019
39794W        W12109  42.017  11.157  10.575
39795W        W12110  32.567  44.466  11.870
39796W        W12111   0.260  15.193   4.831
39797W        W12112  18.591  41.302  14.414
39798W        W12113   8.301  22.728  10.412
39799W        W12114   0.775  14.340   5.269
39800W        W12115  24.723  27.023   1.433
39801W        W12116   1.418  39.402   1.701
39802W        W12117  33.600  31.123  11.039
39803W        W12118  33.939   2.253  13.467
39804W        W12119  16.079   0.896   3.237
39805W        W12120   9.690  20.035  13.910
39806W        W12121  17.615  29.154   1.255
39807W        W12122   6.685  10.142  14.510
39808W        W12123   5.908  41.032  13.964
39809W        W12124  35.877   9.241   3.335
39810W        W12125   8.894  38.442   4.796
39811W        W12126  26.048  29.098   0.243
39812W        W12127  40.477   9.190  12.404
39813W        W12128  41.449   8.222   1.760
39814W        W12129   8.882  35.576  14.867
39815W        W12130  34.425  12.827   1.255
39816W        W12131  29.550  22.611  14.937
39817W        W12132  37.967  37.076  10.576
39818W        W12133  38.388  18.662  13.867
39819W        W12134  17.797  27.672  11.516
39820W        W12135  22.139  16.211  12.443
39821W        W12136  28.984  24.685   3.835
39822W        W12137  17.302   6.806  11.486
39823W        W12138   2.333   2.336  12.093
39824W        W12139  33.113  31.590   3.782
39825W        W12140  14.675   5.407  11.461
39826W        W12141  23.146  34.416  14.381
39827W        W12142  43.328  42.881  12.408
39828W        W12143  40.330  26.955  11.404
39829W        W12144   2.921  43.841   4.182
39830W        W12145  35.981  29.161  13.409
39831W        W12146  27.100  29.582   2.744
39832W        W12147  23.196  15.700  11.060
39833W        W12148  12.832  29.549   2.762
39834W        W12149  15.717  12.312   4.653
39835W        W12150  33.026  30.440  13.498
39836W        W12151  17.231  10.760   1.357
39837W        W12152  31.453  22.632   0.856
39838W        W12153   0.827   5.840   2.303
39839W        W12154  14.253  42.795   2.694
39840W        W12155  43.270  40.358  13.812
39841W        W12156  24.664   8.845  13.964
39842W        W12157  40.825   4.343   4.206
39843W        W12158  31.150   5.351  10.530
39844W        W12159  40.983  16.648  11.079
39845W        W12160  12.321  42.990  11.931
39846W        W12161  28.538  15.166   1.875
39847W        W12162  24.625   2.375   4.644
39848W        W12163   9.749  39.981   2.257
39849W        W12164  21.128  16.308   4.155
39850W        W12165  16.628  25.500   0.776
39851W        W12166  21.257  30.497   3.800
39852W        W12167   8.379  19.279  12.986
39853W        W12168   6.299  13.281  14.989
39854W        W12169  13.747   6.764  14.823
39855W        W12170  24.977  16.235  12.957
39856W        W12171  42.350  10.315   4.763
39857W        W12172  42.786  33.998  12.389
39858W        W12173  15.164  44.833  12.546
39859W        W12174  43.899   8.167   4.308
39860W        W12175  32.918  14.239  11.879
39861W        W12176  27.451  25.152   2.224
39862W        W12177  41.424  35.583   3.631
39863W        W12178  43.419  13.814   1.258
39864W        W12179  11.773  16.787   2.865
39865W        W12180  43.917  14.780  14.424
39866W        W12181   9.747  38.472  11.505
39867W        W12182  19.210   2.856  13.936
39868W        W12183  16.102  14.278  11.584
39869W        W12184  22.165   7.810  14.367
39870W        W12185   6.724  30.613   3.346
39871W        W12186  16.600  37.057  13.929
39872W        W12187  20.028  44.279  14.855
39873W        W12188  35.933  13.274  11.987
39874W        W12189  36.879  15.791   4.606
39875W        W12190  21.049  27.045  12.463
39876W        W12191  36.879  20.064   4.743
39877W        W12192  40.377  19.200   1.886
39878W        W12193  15.227  43.838   0.292
39879W        W12194  22.714  12.741   2.856
39880W        W12195  26.088  12.751   3.362
39881W        W12196  29.640  24.051   4.743
39882W        W12197  43.919   2.278  11.884
39883W        W12198  24.045  39.974  12.988
39884W        W12199  20.567  21.725   4.209
39885W        W12200  25.648  29.056   2.356
39886W        W12201  36.474  14.607  10.474
39887W        W12202   7.313  44.968   4.643
39888W        W12203   1.932   5.436   0.460
39889W        W12204   0.878  28.158  10.486
39890W        W12205   3.280   9.178  14.954
39891W        W12206   3.787  10.816   1.243
39892W        W12207   4.780  43.976   1.403
39893W        W12208  27.033   5.760   4.344
39894W        W12209  17.617   8.796   1.901
39895W        W12210  21.707   9.193  14.967
39896W        W12211  22.705  43.357   2.178
39897W        W12212  30.501  11.761   3.268
39898W        W12213   8.807   7.799  13.822
39899W        W12214  34.059  21.171   0.430
39900W        W12215  23.698  32.959   0.952
39901W        W12216  21.242  31.490  11.442
39902W        W12217   3.796   7.178   1.378
39903W        W12218   5.757  44.324  11.118
39904W        W12219  41.993  36.479  12.935
39905W        W12220  43.496   6.895  13.452
39906W        W12221   3.954   4.756   0.768
39907W        W12222  23.077   8.347   0.878
39908W        W12223  40.414  43.508   3.735
39909W        W12224  22.546  24.106   2.752
39910W        W12225   6.694   4.236   4.317
39911W        W12226  11.723  18.620  13.971
39912W        W12227   0.280  40.331  13.392
39913W        W12228  29.454  42.308  12.365
39914W        W12229   8.398   2.309   0.755
39915W        W12230  42.795   3.361  13.812
39916W        W12231   7.810  42.775   3.715
39917W        W12232  13.777   8.684   3.318
39918W        W12233  22.573  26.054   0.316
39919W        W12234  32.634  23.667  13.381
39920W        W12235  30.623  10.833   1.785
39921W        W12236  26.120  21.179   0.777
39922W        W12237  34.569  25.131  13.399
39923W        W12238  37.351  17.257   5.193
39924W        W12239  36.414  32.915   4.705
39925W        W12240   0.884   3.251   4.343
39926W        W12241  16.117   7.304  11.890
39927W        W12242  13.839  29.139   2.899
39928W        W12243  10.195   1.819   3.823
39929W        W12244  37.447  15.187  12.055
39930W        W12245   5.704   5.420  12.417
39931W        W12246  22.630  35.472  11.992
39932W        W12247  12.775  32.478  11.923
39933W        W12248   7.704   5.193   4.621
39934W        W12249  15.692  41.953   3.847
39935W        W12250  37.555  22.710   1.817
39936W        W12251   7.320  27.535  14.456
39937W        W12252   1.379   2.960   1.358
39938W        W12253  31.124  39.427   4.178
39939W        W12254  11.796   6.918  11.950
39940W        W12255   7.676  22.508   1.378
39941W        W12256   9.245  36.929  12.343
39942W        W12257   4.230   3.358   3.191
39943W        W12258  15.823   9.755   3.656
39944W        W12259  44.796  18.748   1.361
39945W        W12260  12.317   8.801   0.431
39946W        W12261  15.209  14.749   2.898
39947W        W12262   6.851   2.332   2.371
39948W        W12263   4.732  28.553   1.438
39949W        W12264  44.835  16.283  14.951
39950W        W12265  14.244   1.765   1.717
39951W        W12266  30.533   6.184  14.419
39952W        W12267  20.190   6.816  12.363
39953W        W12268  12.233  28.583   2.229
39954W        W12269  21.537  30.021   2.220
39955W        W12270  31.134  24.081   3.791
39956W        W12271  13.805  35.479  12.496
39957W        W12272  43.890  31.408   2.846
39958W        W12273  19.216  15.711  14.818
39959W        W12274  24.575  32.455   1.821
39960W        W12275  30.577  37.904   1.867
39961W        W12276  22.242  41.333   4.783
39962W        W12277  39.035  40.504   3.236
39963W        W12278   3.735  12.799  11.482
39964W        W12279  23.515  32.614  12.932
39965W        W12280  23.065  42.964   2.186
39966W        W12281  40.930   3.279   0.892
39967W        W12282   3.887  31.910  13.444
39968W        W12283  11.132  18.567   3.166
39969W        W12284  15.296   8.659   3.775
39970W        W12285   9.339  34.471  13.393
39971W        W12286  10.165  38.369  14.467
39972W        W12287   6.704   2.356  10.449
39973W        W12288   2.771   1.971  14.844
39974W        W12289  29.464  10.871   0.280
39975W        W12290  10.312  36.460   1.311
39976W        W12291  33.537  20.747  12.953
39977W        W12292  17.073   0.335   9.932
39978W        W12293  22.128  35.091  13.372
39979W        W12294  11.800  39.556  14.428
39980W        W12295  16.253   9.681   0.927
39981W        W12296   6.687  16.095   0.800
39982W        W12297  42.305  37.472  12.974
39983W        W12298  20.166  30.007   1.443
39984W        W12299   5.373  36.468  13.380
39985W        W12300  34.472  26.626  13.447
39986W        W12301   2.843  11.334   3.804
39987W        W12302  24.223   0.444   2.806
39988W        W12303  18.276  26.518   9.993
39989W        W12304  16.686  29.432  12.380
39990W        W12305  13.789   2.306  12.030
39991W        W12306  15.199   4.236  11.560
39992W        W12307   3.771   0.300   4.330
39993W        W12308  11.665  35.426   1.795
39994W        W12309   6.704  17.633   1.214
39995W        W12310  38.819   6.364   3.163
39996W        W12311   2.835  20.232  11.859
39997W        W12312  43.956  17.071   3.797
39998W        W12313  37.843  33.482   2.299
39999W        W12314  43.359  44.494  11.908
40000W        W12315  25.577  24.685  13.514
40001W        W12316  18.280  44.436  14.425
40002W        W12317  36.051   2.814   3.150
40003W        W12318  31.628   4.828  10.625
40004W        W12319   5.875   1.909   3.305
40005W        W12320  16.666  44.903  12.366
40006W        W12321   9.331   9.747   3.262
40007W        W12322  17.233  42.514  14.492
40008W        W12323  25.054  40.036   4.335
40009W        W12324   9.789   1.439   1.728
40010W        W12325  10.783  43.422  13.486
40011W        W12326  27.654  12.709   4.349
40012W        W12327  44.501  27.116   1.807
40013W        W12328  12.790   7.688  14.897
40014W        W12329  21.044  29.494  11.023
40015W        W12330  20.674  17.646  11.080
40016W        W12331  13.193  29.642   3.315
40017W        W12332  35.969  15.277   1.309
40018W        W12333  38.841  29.638   1.406
40019W        W12334  31.539   3.386  11.448
40020W        W12335  42.940  35.855  11.604
40021W        W12336   6.201  42.802  11.517
40022W        W12337  39.476  16.664   0.427
40023W        W12338  39.812  43.975  13.826
40024W        W12339  37.056  18.742   0.285
40025W        W12340  42.777  42.839   1.402
40026W        W12341   1.364  36.406   2.412
40027W        W12342  11.841  18.108  12.838
40028W        W12343  37.409  37.472  13.404
40029W        W12344  35.416   4.866  13.345
40030W        W12345  41.897   9.169   4.304
40031W        W12346  25.528  37.490   1.851
40032W        W12347  37.340  21.601  12.859
40033W        W12348  26.954  35.094  10.464
40034W        W12349  32.013  22.543   3.677
40035W        W12350  37.996  26.580  14.500
40036W        W12351   9.871  31.554  12.968
40037W        W12352  17.062  36.993   0.788
40038W        W12353   8.765  33.609   2.742
40039W        W12354  44.824  43.873   4.273
40040W        W12355  40.485  33.617  13.338
40041W        W12356  34.599  43.813  14.988
40042W        W12357  15.596  27.088   1.339
40043W        W12358  41.878  19.773   3.304
40044W        W12359  30.081  17.669  10.947
40045W        W12360  17.129   2.857   4.741
40046W        W12361  12.644  16.266   4.229
40047W        W12362   7.856  30.062   0.797
40048W        W12363  38.012  10.347   4.254
40049W        W12364   5.848   3.381   4.697
40050W        W12365   6.732  27.610   0.829
40051W        W12366  41.989  15.588  11.959
40052W        W12367  19.674  23.543   4.251
40053W        W12368  44.881   5.855  14.838
40054W        W12369  14.609   7.238   0.244
40055W        W12370  38.004  26.062   0.414
40056W        W12371  13.112  25.058  13.003
40057W        W12372   9.858   6.271  12.428
40058W        W12373  29.927  11.281   2.228
40059W        W12374  42.876  20.667   4.643
40060W        W12375   9.733  44.792   1.717
40061W        W12376  35.924  16.287  14.775
40062W        W12377  30.603  11.161   3.716
40063W        W12378   7.354   6.260   3.652
40064W        W12379   8.672  23.084   1.915
40065W        W12380  18.158  28.958  13.971
40066W        W12381  15.323  28.621  12.827
40067W        W12382  24.670  17.201  10.593
40068W        W12383  36.057  11.738  13.893
40069W        W12384   3.750  15.616  11.471
40070W        W12385  27.663  13.315  14.378
40071W        W12386  28.077  31.043  11.529
40072W        W12387  11.664  34.444   0.287
40073W        W12388  14.249  39.377  10.491
40074W        W12389  35.590  11.177  14.865
40075W        W12390  11.636  31.939   1.382
40076W        W12391  23.197  21.547  12.937
40077W        W12392  23.168  28.028  13.899
40078W        W12393   2.731  38.852  13.801
40079W        W12394  33.524  22.669   2.756
40080W        W12395   8.853  40.924   0.949
40081W        W12396  29.166  29.039  11.123
40082W        W12397  24.109   9.750   1.359
40083W        W12398  37.358  22.244   2.898
40084W        W12399   4.847  30.907  13.994
40085W        W12400   8.896   4.265  12.563
40086W        W12401  23.705  30.645  12.028
40087W        W12402   8.791  27.624  14.867
40088W        W12403  12.175  29.921  13.331
40089W        W12404   2.913   3.387   2.765
40090W        W12405  34.518  40.400   1.305
40091W        W12406  25.984  34.072   4.647
40092W        W12407  13.698  31.103  11.603
40093W        W12408  39.854  44.327  11.037
40094W        W12409  33.380  26.552   4.170
40095W        W12410  22.132  19.191   5.636
40096W        W12411  25.003  25.553   5.180
40097W        W12412  30.914  33.442   2.901
40098W        W12413  30.015   3.796  14.275
40099W        W12414  13.127   6.383   4.779
40100W        W12415   3.894  21.735  12.829
40101W        W12416  34.508   1.901  13.534
40102W        W12417  31.138  11.718   0.938
40103W        W12418  10.817  27.131   1.797
40104W        W12419  36.046  33.602   9.961
40105W        W12420  41.839  40.485  10.544
40106W        W12421  17.248  28.504   4.298
40107W        W12422   5.275  20.145  10.893
40108W        W12423  44.399  13.240   3.171
40109W        W12424  23.112  43.874   4.753
40110W        W12425  18.670  44.474  12.401
40111W        W12426  12.703  14.149  14.440
40112W        W12427   5.251  44.339   3.730
40113W        W12428  15.216  33.033   3.325
40114W        W12429  26.654  27.018   2.777
40115W        W12430  29.918  22.153   3.696
40116W        W12431  29.577  33.080  13.797
40117W        W12432   5.214   3.851   4.297
40118W        W12433  23.687  40.378   3.346
40119W        W12434  44.907  12.678   3.702
40120W        W12435   4.264  36.025  10.604
40121W        W12436  20.543  34.079  12.854
40122W        W12437  41.951  16.315  11.115
40123W        W12438  32.565  20.123   0.398
40124W        W12439   3.886  43.992  12.500
40125W        W12440  15.097   5.341  11.603
40126W        W12441  15.816  33.038  12.904
40127W        W12442  12.745  26.614  12.413
40128W        W12443  22.624  37.527  14.404
40129W        W12444   8.890  39.534  14.411
40130W        W12445  36.436   7.884   0.889
40131W        W12446  17.162  14.182  14.357
40132W        W12447  44.910  31.006  14.368
40133W        W12448  25.531   9.282  11.383
40134W        W12449  12.764  44.911  13.000
40135W        W12450   4.422  31.998   2.231
40136W        W12451   1.421   2.265  11.953
40137W        W12452   9.662  34.522  10.907
40138W        W12453  32.610  25.010  14.778
40139W        W12454  23.201   0.431   1.401
40140W        W12455  33.418  21.194   2.866
40141W        W12456  25.683  32.961   1.901
40142W        W12457  34.582  11.302  13.329
40143W        W12458  10.734  23.102   1.742
40144W        W12459  38.953  37.953  11.891
40145W        W12460  32.508  25.712   4.806
40146W        W12461  22.659  22.020   3.684
40147W        W12462  31.090   8.287  14.303
40148W        W12463   0.293  27.056  12.829
40149W        W12464  14.122  39.890   0.431
40150W        W12465  42.904   8.687  11.601
40151W        W12466  39.523  19.544  13.853
40152W        W12467  12.666  38.566   0.763
40153W        W12468  38.888  21.743   4.641
40154W        W12469  23.596  14.634   0.249
40155W        W12470   3.430  10.675   1.743
40156W        W12471  31.082  28.635  11.510
40157W        W12472  35.866  36.520   1.781
40158W        W12473   4.714   9.298  13.489
40159W        W12474  22.723  35.875  13.983
40160W        W12475  31.976  19.710   2.794
40161W        W12476  39.505  26.585  12.049
40162W        W12477  40.533  28.074   0.814
40163W        W12478  36.871  39.556   2.750
40164W        W12479  26.456  26.145   1.705
40165W        W12480  35.913  34.578  11.012
40166W        W12481  28.147  38.331   3.173
40167W        W12482  29.505  38.491  12.018
40168W        W12483  31.530  25.053   2.330
40169W        W12484  21.038  27.589  11.864
40170W        W12485  36.512  25.028   0.395
40171W        W12486  33.536  34.075  11.546
40172W        W12487  35.543  44.777   2.765
40173W        W12488  39.536  23.201  11.511
40174W        W12489   5.836  32.099  12.013
40175W        W12490  16.765  44.010  12.846
40176W        W12491   8.804  42.855  11.391
40177W        W12492   0.966  27.596   0.482
40178W        W12493   5.786  21.618   1.899
40179W        W12494  40.822  21.739  14.975
40180W        W12495   7.199  11.717   1.857
40181W        W12496  21.064  41.345   4.725
40182W        W12497   2.408   7.195   3.858
40183W        W12498   5.411  23.214   4.295
40184W        W12499  12.803  41.501   0.967
40185W        W12500   8.897   1.422   0.966
40186W        W12501  26.127  18.606   2.351
40187W        W12502   8.305  18.127  12.492
40188W        W12503  18.756  16.265   3.856
40189W        W12504  12.263  11.277   1.415
40190W        W12505  25.483  25.079   1.421
40191W        W12506  35.601  42.354  12.024
40192W        W12507  41.870  11.259   4.300
40193W        W12508  40.026   2.936  12.383
40194W        W12509  18.249  31.580  12.366
40195W        W12510  20.087  26.997  14.904
40196W        W12511   6.309  44.811   2.850
40197W        W12512   0.909  31.015  14.313
40198W        W12513  14.280  34.388   0.342
40199W        W12514  28.090  21.127  10.634
40200W        W12515  24.030   5.811   0.856
40201W        W12516   0.399   0.922  11.449
40202W        W12517  20.062  29.175  12.910
40203W        W12518  24.681  44.979  11.041
40204W        W12519  41.524  21.567   1.223
40205W        W12520   0.752  43.272   2.351
40206W        W12521  36.552  19.562   2.221
40207W        W12522  28.122  38.984   5.150
40208W        W12523  12.760   9.837   4.767
40209W        W12524  38.356  38.923   3.869
40210W        W12525  31.059  37.878   0.407
40211W        W12526  24.049  17.072   1.394
40212W        W12527  17.684  10.690  11.458
40213W        W12528  32.624  18.611  14.843
40214W        W12529  42.923  15.263   3.365
40215W        W12530  38.553  13.640   0.253
40216W        W12531  17.240   1.405  13.052
40217W        W12532  34.911  31.148  14.791
40218W        W12533   7.346  38.474  14.005
40219W        W12534  30.152  15.760   0.375
40220W        W12535  29.107  32.501   3.239
40221W        W12536  14.302  10.710   1.228
40222W        W12537  27.992  25.067  12.049
40223W        W12538   8.264  44.312   1.881
40224W        W12539  18.735  43.865  11.031
40225W        W12540   4.323  43.270  14.445
40226W        W12541  36.081  22.519  12.901
40227W        W12542   9.848  43.951   3.854
40228W        W12543  11.315  40.444   4.817
40229W        W12544   2.808  24.056   0.328
40230W        W12545  31.467   0.931   3.181
40231W        W12546  12.203  10.168  13.389
40232W        W12547   6.259  44.396   1.859
40233W        W12548  14.138  14.316  11.903
40234W        W12549   9.229  27.473   2.213
40235W        W12550  40.350  13.751  14.922
40236W        W12551  32.488   7.779   0.290
40237W        W12552  21.152  11.694  10.943
40238W        W12553   4.207  12.140   1.906
40239W        W12554  14.804  15.602  14.407
40240W        W12555  39.879  44.985   4.200
40241W        W12556   2.344  13.220   5.160
40242W        W12557  11.309  36.369   4.278
40243W        W12558  40.529   9.167   4.615
40244W        W12559  40.961  10.743   0.836
40245W        W12560  16.655   6.328  11.018
40246W        W12561  15.228  17.225   1.697
40247W        W12562  16.141  21.146   4.706
40248W        W12563   1.427  43.356   0.337
40249W        W12564  25.479   0.905   4.253
40250W        W12565   1.899  31.056   2.804
40251W        W12566  41.472  16.746   1.282
40252W        W12567  19.760   7.902  14.429
40253W        W12568  11.362  11.288  11.495
40254W        W12569  40.934  32.547  14.800
40255W        W12570  12.627   2.879  13.338
40256W        W12571  36.960  12.760  12.373
40257W        W12572  20.596  23.082  11.054
40258W        W12573   9.190   5.817  14.029
40259W        W12574  10.864  40.892   3.740
40260W        W12575  29.485  37.524   4.664
40261W        W12576  40.826  38.504  14.467
40262W        W12577  10.744   4.282  10.527
40263W        W12578  20.687   3.785   4.263
40264W        W12579   1.931  10.291   3.664
40265W        W12580  35.413  29.009   0.784
40266W        W12581  11.170  41.857   1.924
40267W        W12582  13.646  36.576  11.408
40268W        W12583  17.657  24.575  10.563
40269W        W12584  22.528  20.058  11.518
40270W        W12585  23.020  17.214  14.882
40271W        W12586  36.566  12.715  14.878
40272W        W12587  41.934  43.433   3.846
40273W        W12588  22.215  39.847  14.393
40274W        W12589   0.773  39.029  11.527
40275W        W12590  18.690  41.954   4.692
40276W        W12591  24.163  11.262  12.982
40277W        W12592  41.460  37.897  13.836
40278W        W12593  19.554   5.920   1.778
40279W        W12594  40.000  20.077  10.604
40280W        W12595   2.875  14.778   2.358
40281W        W12596  13.289  35.522  14.438
40282W        W12597  12.788  25.677   4.270
40283W        W12598   9.824   2.432  13.054
40284W        W12599   7.384  18.609   4.696
40285W        W12600  22.034  43.309  13.986
40286W        W12601   5.218  20.134  14.000
40287W        W12602  41.302  37.952   2.781
40288W        W12603   4.755  25.129   4.326
40289W        W12604  44.336  31.407   4.115
40290W        W12605  13.646  19.228  12.838
40291W        W12606  27.515  28.498  13.887
40292W        W12607  10.704  19.682  13.506
40293W        W12608   1.734  13.808  11.058
40294W        W12609  36.936  25.979   0.826
40295W        W12610  21.673  17.674   3.866
40296W        W12611  39.923  38.070  11.001
40297W        W12612   1.867  24.665  12.379
40298W        W12613  16.177  37.072  13.362
40299W        W12614  30.919  21.684  13.445
40300W        W12615  33.507  22.710  11.595
40301W        W12616   9.777  33.488  13.837
40302W        W12617  32.001  30.085  13.930
40303W        W12618  31.465  14.659  13.308
40304W        W12619  15.753  27.088   3.151
40305W        W12620  25.677  26.629  11.500
40306W        W12621  43.955  31.035  10.493
40307W        W12622   6.198  22.556  12.348
40308W        W12623  33.415  37.392  11.958
40309W        W12624  38.868   3.360   3.291
40310W        W12625   4.714   5.414   2.761
40311W        W12626  20.755   1.859  11.965
40312W        W12627  33.887   4.418  14.415
40313W        W12628  15.297   6.912   0.877
40314W        W12629  37.569  43.425   2.304
40315W        W12630  39.942  30.133  12.844
40316W        W12631  30.623  15.711  13.983
40317W        W12632  16.620   7.886   2.880
40318W        W12633  17.573  30.420  11.377
40319W        W12634  18.212   0.393   4.317
40320W        W12635  39.471  14.108   0.340
40321W        W12636  11.820  10.382  10.926
40322W        W12637  32.888   7.689   3.858
40323W        W12638  13.324  43.863  13.493
40324W        W12639  26.128  12.297  11.510
40325W        W12640  19.553  39.867  13.860
40326W        W12641  39.346  43.286  14.888
40327W        W12642  39.855  29.148  11.554
40328W        W12643  27.449  14.290   4.346
40329W        W12644   1.848  12.191   2.857
40330W        W12645  37.982   2.848   4.669
40331W        W12646  38.921  18.093  12.965
40332W        W12647  15.131   1.785  10.895
40333W        W12648  38.410  17.755  12.530
40334W        W12649  35.523  30.949   4.216
40335W        W12650  28.545  39.531  14.763
40336W        W12651  12.700  17.135   5.112
40337W        W12652   6.777  12.804  10.960
40338W        W12653  23.148   4.931  11.075
40339W        W12654  15.821  24.987   3.728
40340W        W12655  16.107  35.372  13.500
40341W        W12656  27.101  39.013  10.537
40342W        W12657  40.019  35.431   4.632
40343W        W12658  29.560  33.380   4.258
40344W        W12659  41.926  26.506   0.379
40345W        W12660  33.086  22.646   4.657
40346W        W12661  29.949  14.231  12.061
40347W        W12662   5.400  29.446  12.933
40348W        W12663  27.653  43.351  13.506
40349W        W12664   6.758  41.906  12.383
40350W        W12665   8.239  24.657  11.514
40351W        W12666  18.084  43.313   4.605
40352W        W12667  32.423  38.549   2.279
40353W        W12668  28.598  39.970  12.975
40354W        W12669   6.786   9.773  11.992
40355W        W12670  27.145  21.616   3.336
40356W        W12671   3.825  22.659   0.253
40357W        W12672  10.716  39.862  10.464
40358W        W12673  40.392   5.346  14.504
40359W        W12674  33.950  19.281  12.396
40360W        W12675   8.698  22.580   2.259
40361W        W12676  44.343  39.916  14.955
40362W        W12677   8.229  36.575   0.805
40363W        W12678  26.106  17.177  12.434
40364W        W12679  38.970   7.820   2.770
40365W        W12680   6.373  18.221  14.030
40366W        W12681  44.990  43.302   4.756
40367W        W12682  13.810  18.059  13.845
40368W        W12683  27.970  32.104   0.870
40369W        W12684  11.827   1.298  14.368
40370W        W12685   5.230  36.481   4.780
40371W        W12686  11.280   3.905   4.817
40372W        W12687  20.271  21.700  12.526
40373W        W12688   1.271  12.806  12.966
40374W        W12689   4.933  36.457  13.053
40375W        W12690  30.019  27.518   3.249
40376W        W12691  16.658  34.967   4.770
40377W        W12692  36.393  30.960  14.792
40378W        W12693  39.044   4.928  11.023
40379W        W12694   0.438  15.146  11.030
40380W        W12695   6.405  42.371  13.491
40381W        W12696   8.317  42.476  11.933
40382W        W12697  34.520  41.012   1.877
40383W        W12698  11.648  31.961  14.859
40384W        W12699  10.351  32.468  13.801
40385W        W12700  40.966  17.271  14.990
40386W        W12701  29.561  20.220   1.849
40387W        W12702  25.014  21.698   1.258
40388W        W12703  39.838  14.199  13.990
40389W        W12704  42.501   5.859   3.234
40390W        W12705  14.823  13.600  11.591
40391W        W12706   2.884  20.274   2.668
40392W        W12707  20.051  18.657  13.931
40393W        W12708  25.676  31.501   3.761
40394W        W12709  32.007  12.779  10.639
40395W        W12710  41.526  44.498   3.680
40396W        W12711  36.473  17.079   3.355
40397W        W12712  16.206   9.803   2.812
40398W        W12713  10.159  21.518  10.571
40399W        W12714  33.539  42.312  14.834
40400W        W12715  34.094  15.723  12.491
40401W        W12716   2.914  44.811  11.123
40402W        W12717  17.612   9.255   3.190
40403W        W12718  35.437   3.429   2.779
40404W        W12719  42.785   4.899  11.915
40405W        W12720  26.040  15.760   2.824
40406W        W12721   1.932  35.411   0.331
40407W        W12722  33.621  22.238  10.608
40408W        W12723  33.469  37.962   2.872
40409W        W12724  12.822  44.941  10.409
40410W        W12725   2.367  23.106   0.359
40411W        W12726  11.652  18.293   2.231
40412W        W12727   5.841  23.164   3.695
40413W        W12728   9.357  30.022   2.374
40414W        W12729  21.734  23.718   3.724
40415W        W12730  16.122  18.278   1.762
40416W        W12731   7.284  35.521   1.221
40417W        W12732  12.733  24.197   2.765
40418W        W12733   3.296  16.181  14.012
40419W        W12734   9.388  15.225   1.284
40420W        W12735   5.827  24.573   4.302
40421W        W12736   4.858   6.744  12.367
40422W        W12737  43.383   1.801   2.320
40423W        W12738  32.007  22.131  12.928
40424W        W12739  10.782   2.724   1.429
40425W        W12740  25.567  20.058  10.563
40426W        W12741   2.780   7.271   3.769
40427W        W12742  17.265  19.626   3.844
40428W        W12743  42.345  11.772   1.333
40429W        W12744  37.070  24.494   5.117
40430W        W12745   7.307  35.367   0.967
40431W        W12746   4.224  15.682  12.096
40432W        W12747  27.095  31.505  11.955
40433W        W12748  13.292  22.503   5.120
40434W        W12749  38.885   7.724  12.985
40435W        W12750  18.074  12.225  13.523
40436W        W12751   7.299  42.013   4.670
40437W        W12752  12.736  25.010  11.870
40438W        W12753   5.760  24.112   3.175
40439W        W12754  33.542   9.789   1.441
40440W        W12755  38.012  41.337  13.344
40441W        W12756  11.716  37.518  10.404
40442W        W12757   2.360  17.782  13.830
40443W        W12758   2.842  33.581   4.255
40444W        W12759  12.254   7.179   3.688
40445W        W12760  40.854  28.571   4.130
40446W        W12761  33.458  21.664  14.779
40447W        W12762  43.820   9.180   4.782
40448W        W12763  25.477  31.477  11.473
40449W        W12764  36.894  15.140  13.845
40450W        W12765  14.591  24.680  11.079
40451W        W12766  32.050  30.417  14.955
40452W        W12767   8.847   1.346  14.857
40453W        W12768   0.864  24.186   0.308
40454W        W12769   8.878  32.135   0.836
40455W        W12770   5.354  11.845   1.862
40456W        W12771   7.871  41.386  14.833
40457W        W12772  36.429  43.879  14.898
40458W        W12773  25.052  23.594   4.714
40459W        W12774  16.766  16.778  11.025
40460W        W12775  32.607  29.923   0.297
40461W        W12776  20.589  36.854  14.313
40462W        W12777  23.622  43.398  14.438
40463W        W12778   5.731  12.610   3.340
40464W        W12779   9.171  28.114   3.350
40465W        W12780  44.784  24.671   0.956
40466W        W12781  15.586  12.702  11.878
40467W        W12782  10.185   9.719   0.787
40468W        W12783  24.530  34.563  14.896
40469W        W12784  13.708  27.994  13.860
40470W        W12785  15.219  17.137  10.642
40471W        W12786   2.726  43.501  11.107
40472W        W12787  15.640  34.054   1.913
40473W        W12788  31.110  21.554   3.323
40474W        W12789  19.534  23.021  13.860
40475W        W12790  41.881  17.596  12.534
40476W        W12791  28.161  34.432   1.932
40477W        W12792  13.332  34.863   3.770
40478W        W12793  24.067  34.099   1.738
40479W        W12794  34.047  31.426   0.755
40480W        W12795  16.205  40.546   2.764
40481W        W12796  35.050  41.001   4.295
40482W        W12797  10.811  42.326   0.934
40483W        W12798  24.073  43.988  13.818
40484W        W12799  17.756  30.987  11.563
40485W        W12800  38.392   4.761  11.384
40486W        W12801   7.787  32.598   2.326
40487W        W12802  17.781  36.937   1.871
40488W        W12803  13.823  34.057   1.291
40489W        W12804  40.422  30.939   0.851
40490W        W12805  10.694   1.908   2.709
40491W        W12806  15.279  40.515  11.117
40492W        W12807  37.507   0.886   2.377
40493W        W12808   2.730  44.440  11.520
40494W        W12809  37.045  33.560   3.170
40495W        W12810  30.915  31.638   4.308
40496W        W12811  23.239  16.679  14.815
40497W        W12812  29.048  16.151   4.219
40498W        W12813   9.369   3.768   2.189
40499W        W12814  22.035  25.506  12.092
40500W        W12815  34.052  27.149  13.967
40501W        W12816   3.862   6.740  10.920
40502W        W12817   1.240  22.583   4.325
40503W        W12818  27.010  40.851   2.862
40504W        W12819  28.598   7.895   3.705
40505W        W12820  31.073  15.100   3.637
40506W        W12821  13.194   5.199   4.147
40507W        W12822  26.123  22.522   2.355
40508W        W12823  28.017  43.375   3.338
40509W        W12824  18.675   6.274   0.392
40510W        W12825   3.420  43.454  13.795
40511W        W12826  10.329  26.485   4.718
40512W        W12827  14.229  42.438   0.288
40513W        W12828  42.940  44.922  14.504
40514W        W12829  39.965  37.865  12.415
40515W        W12830  41.493  31.634   2.706
40516W        W12831  30.630  13.333  12.541
40517W        W12832  38.384   7.407  13.038
40518W        W12833  34.399  33.614  14.825
40519W        W12834  29.629  13.690  12.090
40520W        W12835   3.903  35.529  13.948
40521W        W12836  44.494  33.535   3.749
40522W        W12837  32.979  27.122   2.198
40523W        W12838  12.784  39.044   3.194
40524W        W12839   6.366  10.844   3.244
40525W        W12840  30.932  27.478   1.346
40526W        W12841  34.119   5.262  11.893
40527W        W12842  16.580  28.945   2.869
40528W        W12843  10.348   3.218  11.424
40529W        W12844  21.600  14.760   2.242
40530W        W12845  26.503  38.037   4.701
40531W        W12846  29.455  28.576  12.881
40532W        W12847  16.080  35.397   2.858
40533W        W12848  28.988  22.591   4.199
40534W        W12849  28.112  20.062  13.865
40535W        W12850  36.347   1.409   1.366
40536W        W12851  18.170  17.680  11.586
40537W        W12852  30.094  36.592  13.360
40538W        W12853  29.542   2.927  12.483
40539W        W12854  32.948   6.195   2.736
40540W        W12855  11.848  11.233   3.260
40541W        W12856  31.534   6.735  13.042
40542W        W12857  20.274  30.567   1.261
40543W        W12858  38.017   3.899   4.625
40544W        W12859   2.801   6.751  11.418
40545W        W12860   1.368  30.626  14.896
40546W        W12861  38.512   0.272  14.281
40547W        W12862   2.324  11.857   3.763
40548W        W12863  30.963  40.054   1.298
40549W        W12864  20.121  30.463  13.407
40550W        W12865  16.106  34.967  13.841
40551W        W12866  16.677  39.998   4.700
40552W        W12867  38.487  17.794  11.562
40553W        W12868  39.453   7.296   2.861
40554W        W12869  19.535  33.905  12.495
40555W        W12870  25.592   6.366  11.943
40556W        W12871  21.722  38.352   2.273
40557W        W12872  33.977  23.585  14.444
40558W        W12873   0.913   4.429   0.447
40559W        W12874  26.992  41.339   0.346
40560W        W12875  36.377  19.604  10.001
40561W        W12876  37.940  12.358  12.986
40562W        W12877  17.784  14.604  12.065
40563W        W12878  17.737  15.135   2.846
40564W        W12879   6.898  10.143  10.622
40565W        W12880   7.670  42.832  11.423
40566W        W12881  44.470  26.486   2.317
40567W        W12882   9.198  14.281  13.374
40568W        W12883  15.268  16.604  13.512
40569W        W12884  39.356  21.189   2.678
40570W        W12885  28.444   5.719  11.053
40571W        W12886  42.853  32.433   1.385
40572W        W12887   5.824  34.009   4.300
40573W        W12888  39.872  44.755  14.293
40574W        W12889  18.749  34.087  11.579
40575W        W12890  14.131  42.420   2.711
40576W        W12891  13.779  36.989  13.798
40577W        W12892  25.487  30.434  10.027
40578W        W12893  13.792  36.445  10.508
40579W        W12894  41.968  39.442  14.003
40580W        W12895  16.748  10.704   2.206
40581W        W12896  26.152  21.656  14.017
40582W        W12897  21.216   8.389   3.755
40583W        W12898  43.977  12.177   3.708
40584W        W12899  32.493  42.297   0.765
40585W        W12900  27.994  20.679   4.304
40586W        W12901   3.364   1.753  13.832
40587W        W12902  38.479  30.103  12.857
40588W        W12903  39.925  36.541   3.696
40589W        W12904   1.961   6.417  13.520
40590W        W12905  44.787  40.517  12.566
40591W        W12906   0.362  35.581  11.996
40592W        W12907  24.191  43.004  12.969
40593W        W12908  24.675  40.817  12.468
40594W        W12909  18.719  17.656  14.894
40595W        W12910  33.571   8.366   1.346
40596W        W12911  22.704  41.811  14.367
40597W        W12912   3.898  37.480   5.212
40598W        W12913   5.196  41.805   1.241
40599W        W12914  27.639  44.886   3.329
40600W        W12915  42.406  33.885   3.344
40601W        W12916  14.800  29.943  14.971
40602W        W12917  32.111  31.509  14.793
40603W        W12918  31.574  18.254  12.360
40604W        W12919   0.290  39.829   2.242
40605W        W12920   1.423  24.518  10.895
40606W        W12921   9.346  17.104   4.660
40607W        W12922  19.245  38.967   2.401
40608W        W12923  43.922   7.705   2.800
40609W        W12924  39.427  25.585   5.725
40610W        W12925  21.253  16.688  13.022
40611W        W12926  10.250  13.219   0.791
40612W        W12927  27.564   5.210   2.858
40613W        W12928  26.059  33.125   2.243
40614W        W12929  34.579   8.713   0.411
40615W        W12930  19.613  21.201  11.863
40616W        W12931  12.259  23.178   4.153
40617W        W12932  29.625  23.161   3.217
40618W        W12933  25.038  34.537  14.029
40619W        W12934   1.864  38.947  10.621
40620W        W12935  17.667   2.812   0.951
40621W        W12936   7.707  19.253  13.875
40622W        W12937  43.859  20.531  10.447
40623W        W12938  36.381   4.373   0.915
40624W        W12939  28.008  12.812   2.328
40625W        W12940   3.729  33.554   3.336
40626W        W12941  27.067  32.540   2.749
40627W        W12942  22.246   7.190   3.350
40628W        W12943  40.408   9.692   3.677
40629W        W12944  18.547  15.229   2.410
40630W        W12945  35.959  26.061   2.360
40631W        W12946  13.180  42.890  13.792
40632W        W12947  30.943  43.509  10.946
40633W        W12948   6.266  14.173  12.362
40634W        W12949  26.076  33.095  11.406
40635W        W12950  18.212  33.053  12.418
40636W        W12951  21.586  44.760  12.950
40637W        W12952  39.980   8.852  11.984
40638W        W12953   7.776  22.715   3.854
40639W        W12954  15.120  30.451  13.061
40640W        W12955  15.112   6.903  13.415
40641W        W12956  30.654  20.538  12.965
40642W        W12957  12.201  17.303   2.399
40643W        W12958  16.608   1.344  13.010
40644W        W12959  35.507  12.816   3.702
40645W        W12960  27.983  35.904  11.454
40646W        W12961  10.776  17.268   9.964
40647W        W12962  22.522  32.994   4.728
40648W        W12963   9.827  27.070   2.881
40649W        W12964  30.509  24.667   2.400
40650W        W12965   1.338  29.605   4.652
40651W        W12966  15.638  23.125   0.900
40652W        W12967  13.794  13.707   2.246
40653W        W12968  41.842  32.027   0.414
40654W        W12969  27.063   3.264  11.444
40655W        W12970  10.224  29.478  12.409
40656W        W12971  41.924  27.965   2.814
40657W        W12972  11.749  27.651  12.875
40658W        W12973  39.894  18.220  10.593
40659W        W12974  25.179  31.444   4.733
40660W        W12975  11.259  38.849  14.825
40661W        W12976   2.758  16.681   1.897
40662W        W12977   1.354   1.926   4.813
40663W        W12978  16.716  30.426  11.546
40664W        W12979  23.545  19.774  12.081
40665W        W12980  24.210  17.147   4.783
40666W        W12981  34.982  12.285  11.610
40667W        W12982  43.957  16.683   2.789
40668W        W12983  27.130  38.436  14.406
40669W        W12984  37.523   0.900  12.492
40670W        W12985  28.531   4.314   2.730
40671W        W12986  26.533  14.094  11.390
40672W        W12987  41.801  18.270  12.052
40673W        W12988  27.015  36.533  13.945
40674W        W12989  12.698  37.993   4.191
40675W        W12990  22.237  44.487  12.915
40676W        W12991  43.276   0.281   4.220
40677W        W12992  31.020   6.778  13.908
40678W        W12993  29.585   1.758  10.643
40679W        W12994   1.731   5.831   1.265
40680W        W12995   2.856  19.732   2.193
40681W        W12996   7.398  20.662  12.952
40682W        W12997  38.039  24.660   2.217
40683W        W12998   4.829  42.408   4.638
40684W        W12999  27.553   5.427   4.666
40685W        W13000   8.344  26.591   0.360
40686W        W13001   6.240  24.518   0.945
40687W        W13002  36.457  18.283  13.829
40688W        W13003  28.523  32.529   4.198
40689W        W13004  34.881  26.988  14.319
40690W        W13005  17.204  17.642  10.631
40691W        W13006   1.755  42.984  14.337
40692W        W13007  24.102  31.982   3.145
40693W        W13008  34.572  26.006  11.548
40694W        W13009  38.554   3.216   4.234
40695W        W13010  17.080  36.370  10.899
40696W        W13011  21.177  32.044  13.972
40697W        W13012  29.039   7.838   3.757
40698W        W13013  22.680  16.605   4.198
40699W        W13014  44.409   3.219  13.798
40700W        W13015  27.472  35.470   3.193
40701W        W13016  20.050  20.700  14.025
40702W        W13017   8.849  18.240   3.705
40703W        W13018  14.286  35.902   2.212
40704W        W13019  23.535  17.103   1.775
40705W        W13020  12.815  18.655  13.956
40706W        W13021  15.674  14.181   0.387
40707W        W13022  26.645  23.709   5.113
40708W        W13023  37.370  25.548  10.539
40709W        W13024  14.670  30.589   2.713
40710W        W13025  18.108  18.594   4.824
40711W        W13026  41.480  38.065  10.410
40712W        W13027  16.798  27.574   2.816
40713W        W13028  19.693  33.430  13.926
40714W        W13029  10.830  29.138   1.276
40715W        W13030  23.651   6.394  12.082
40716W        W13031  26.965   5.383   1.926
40717W        W13032   2.870  42.498   1.836
40718W        W13033  32.894   5.875  12.519
40719W        W13034  32.052  42.507   3.677
40720W        W13035  17.663  10.812  10.030
40721W        W13036  36.884   1.251  14.435
40722W        W13037  28.585  17.069   4.722
40723W        W13038  13.297  17.111   2.348
40724W        W13039  20.113  34.432  11.946
40725W        W13040  14.704  42.918  12.071
40726W        W13041  18.761  38.957   2.677
40727W        W13042   2.760  21.513  10.559
40728W        W13043  21.247  33.516  13.854
40729W        W13044   1.254  24.566   0.337
40730W        W13045  40.451  17.793  10.943
40731W        W13046  20.716  22.211  13.359
40732W        W13047  24.623  37.904  14.903
40733W        W13048  10.372  35.452   3.713
40734W        W13049  32.550  36.465   2.214
40735W        W13050  39.475   8.790  14.817
40736W        W13051  35.429   6.409  11.410
40737W        W13052   4.432   0.847  12.554
40738W        W13053  20.592  37.520  14.888
40739W        W13054  40.922   2.386   2.211
40740W        W13055  40.511  11.288   4.743
40741W        W13056  21.669   8.215  13.015
40742W        W13057   0.878  41.007   0.317
40743W        W13058  41.301  10.761  10.631
40744W        W13059  40.482  24.649   2.393
40745W        W13060  14.191  22.588   1.373
40746W        W13061  30.088  21.720   3.199
40747W        W13062  35.529  27.178  12.074
40748W        W13063  39.955  29.942  11.062
40749W        W13064  29.979  15.788  13.323
40750W        W13065  40.532   9.256  14.868
40751W        W13066  42.322  29.636  11.105
40752W        W13067   6.239  41.007  14.437
40753W        W13068   7.671   7.818   2.409
40754W        W13069  25.582   7.250   2.415
40755W        W13070  14.129  15.141   0.952
40756W        W13071  33.024  19.573   3.286
40757W        W13072  41.991   9.870   1.710
40758W        W13073  23.132  36.388  10.538
40759W        W13074  42.965  26.534   4.687
40760W        W13075   1.247  32.426   3.806
40761W        W13076  31.150  13.776  11.974
40762W        W13077   1.904  22.085  12.913
40763W        W13078   9.677  36.447   3.256
40764W        W13079  20.141  41.807   3.740
40765W        W13080  35.955   8.711   3.861
40766W        W13081  20.601   4.741  12.519
40767W        W13082  29.557  12.150   3.706
40768W        W13083   8.333  39.934   3.289
40769W        W13084  40.446  35.874  13.963
40770W        W13085  25.019  44.359  13.802
40771W        W13086  44.852  15.721  11.464
40772W        W13087  42.812  41.831  11.519
40773W        W13088  13.813  19.249  12.435
40774W        W13089  27.095  28.443  11.401
40775W        W13090  32.463  42.970   4.269
40776W        W13091  15.154  23.725   1.270
40777W        W13092  30.004  25.962  14.302
40778W        W13093  10.238  19.182  13.431
40779W        W13094  41.428  29.527  10.949
40780W        W13095   8.660   7.910  10.619
40781W        W13096  35.878   4.706   2.412
40782W        W13097  27.482  14.617  14.029
40783W        W13098   9.158  22.525   0.868
40784W        W13099  10.781  25.556   2.182
40785W        W13100   6.210  35.527  13.387
40786W        W13101  38.503   8.318  10.444
40787W        W13102  23.705  38.535   3.721
40788W        W13103  18.109  34.584   2.822
40789W        W13104  34.550  12.329  10.624
40790W        W13105   8.294  32.472  14.388
40791W        W13106   8.823  20.622   3.281
40792W        W13107  15.815  20.103   4.746
40793W        W13108  43.806  43.797   4.757
40794W        W13109  26.646  34.996  10.946
40795W        W13110  44.502  43.957  13.918
40796W        W13111  16.075   7.809  11.404
40797W        W13112   7.357  36.071  11.082
40798W        W13113   8.762  14.629  13.823
40799W        W13114  31.924   8.390  14.331
40800W        W13115  30.619  35.488   4.192
40801W        W13116  42.524  29.631  13.862
40802W        W13117  25.163  38.421   4.123
40803W        W13118   4.859   2.283  12.084
40804W        W13119  27.159  37.065  11.866
40805W        W13120  26.066   3.949  12.454
40806W        W13121  44.978  10.378   9.677
40807W        W13122   8.223  16.593   2.369
40808W        W13123  27.960  43.967  14.888
40809W        W13124  42.012  34.604  11.437
40810W        W13125  23.497  29.933  10.443
40811W        W13126  33.578  40.929   2.242
40812W        W13127  13.212  14.675  14.415
40813W        W13128  25.985  12.747   2.260
40814W        W13129  43.779  33.394  12.479
40815W        W13130  12.340  27.173   1.311
40816W        W13131   2.914  32.138  11.481
40817W        W13132  44.276  20.248  13.372
40818W        W13133  17.773   7.682  11.454
40819W        W13134  39.040  14.640  12.567
40820W        W13135  31.464  21.603  10.999
40821W        W13136  33.625  36.970   2.869
40822W        W13137   3.374  17.642  13.337
40823W        W13138  15.293  13.615  11.560
40824W        W13139  44.937  44.890  12.029
40825W        W13140  37.361  15.647  12.552
40826W        W13141  20.531  14.623   1.912
40827W        W13142  35.518  29.658  13.502
40828W        W13143   8.804   3.736   2.274
40829W        W13144  26.472  34.034   4.614
40830W        W13145  27.975  29.008   4.348
40831W        W13146  39.882   4.889   1.371
40832W        W13147  11.622  13.230  14.916
40833W        W13148   1.959  38.381  14.327
40834W        W13149  26.689  14.604  14.302
40835W        W13150  38.907  18.061   1.269
40836W        W13151  31.064  44.892   2.880
40837W        W13152  44.361  14.283   2.848
40838W        W13153  15.237  31.526  10.555
40839W        W13154  12.273  23.544  13.458
40840W        W13155  17.761  12.704   2.355
40841W        W13156   1.822  11.248   1.740
40842W        W13157  10.238  33.559  12.029
40843W        W13158  41.955  26.663  14.770
40844W        W13159  38.990   7.698  14.962
40845W        W13160  16.759  39.991  13.918
40846W        W13161   1.809  25.987  10.998
40847W        W13162  44.869  43.008   4.804
40848W        W13163   1.829  36.091  14.479
40849W        W13164  42.980   8.801  14.768
40850W        W13165   6.683  41.371   1.761
40851W        W13166   7.798  42.310   1.345
40852W        W13167  43.780  41.980   4.598
40853W        W13168   3.431  38.399  11.376
40854W        W13169  32.631   7.185  14.369
40855W        W13170  13.298  13.288  12.520
40856W        W13171  40.009  41.822   1.848
40857W        W13172  37.036  13.315  12.043
40858W        W13173  15.801   1.756  10.974
40859W        W13174  34.954  25.710   3.301
40860W        W13175  17.153  35.365   4.257
40861W        W13176   3.821  35.518   0.938
40862W        W13177  19.599  32.140   1.884
40863W        W13178  11.317  36.013   0.895
40864W        W13179  25.017  32.995   4.761
40865W        W13180   8.286  12.691   2.729
40866W        W13181   8.311  22.059  12.560
40867W        W13182   8.170  13.257   1.923
40868W        W13183  13.278  42.335   4.279
40869W        W13184  32.434  20.750  13.905
40870W        W13185   4.904   0.980   3.699
40871W        W13186  43.875  16.700  13.863
40872W        W13187  19.083  15.594   4.623
40873W        W13188  32.139  26.523  12.399
40874W        W13189  12.242  40.036   1.721
40875W        W13190  30.149  33.060   4.815
40876W        W13191   6.755  25.538   0.780
40877W        W13192  12.253   0.887  10.635
40878W        W13193  41.514   8.349  14.358
40879W        W13194  16.131   8.373   3.809
40880W        W13195  26.660  33.879   5.745
40881W        W13196  13.129  11.265   0.432
40882W        W13197  13.787  38.396   2.797
40883W        W13198  24.149  15.247  10.488
40884W        W13199  33.900  12.793   4.707
40885W        W13200  17.169  18.153   4.190
40886W        W13201   9.337  31.128   0.312
40887W        W13202   2.747  21.021   0.823
40888W        W13203  17.661  16.075  10.542
40889W        W13204  20.226   7.240  12.363
40890W        W13205  38.967  30.949   3.765
40891W        W13206   9.270  17.067   2.710
40892W        W13207  11.165  18.615  10.126
40893W        W13208  28.445  43.824   2.893
40894W        W13209  42.005   2.389  11.554
40895W        W13210  17.656  27.150   2.264
40896W        W13211  36.965  43.422  14.345
40897W        W13212  40.444  25.561   1.897
40898W        W13213  44.302  26.150  13.014
40899W        W13214  21.583   3.395   0.887
40900W        W13215   9.210  33.978  14.866
40901W        W13216  22.743  26.184   2.194
40902W        W13217  16.696  26.520   0.832
40903W        W13218  13.153  17.712   1.711
40904W        W13219  28.679  34.115  10.538
40905W        W13220  38.374   3.920   3.852
40906W        W13221  40.873  41.452  11.399
40907W        W13222  18.075  14.281  10.493
40908W        W13223  23.676  22.733  12.540
40909W        W13224  41.849  19.674  11.382
40910W        W13225  22.028   0.889   3.707
40911W        W13226  20.067  42.020  10.571
40912W        W13227  16.202  26.017   2.676
40913W        W13228   1.381  42.983  13.327
40914W        W13229   5.885  27.019   0.870
40915W        W13230  11.655  14.772   4.220
40916W        W13231  30.959  12.326  14.015
40917W        W13232  30.929  32.504  10.645
40918W        W13233  42.942   9.320  12.828
40919W        W13234  43.472  33.919   4.615
40920W        W13235  43.409   4.225   0.868
40921W        W13236  19.689  40.308  13.375
40922W        W13237  42.430  10.687  13.967
40923W        W13238  12.194  25.583   0.372
40924W        W13239  18.770  26.610   2.228
40925W        W13240  27.130   6.219   9.460
40926W        W13241  41.860  12.700   2.403
40927W        W13242   8.898  30.128   4.166
40928W        W13243  17.730  33.913  14.325
40929W        W13244  14.151  13.198  11.091
40930W        W13245  14.339  29.622   4.830
40931W        W13246  43.270  22.605  14.827
40932W        W13247  37.407  38.340   2.283
40933W        W13248  24.184  13.654   2.360
40934W        W13249  27.606  13.801  12.848
40935W        W13250   5.807  22.541  13.379
40936W        W13251  43.356  41.436  13.317
40937W        W13252  33.017  13.781   3.823
40938W        W13253   5.286  39.544   3.816
40939W        W13254  33.478  23.037  11.935
40940W        W13255  19.055  13.192   2.801
40941W        W13256  28.639  29.018  11.528
40942W        W13257  21.091  34.422   2.886
40943W        W13258  22.694   9.834   1.732
40944W        W13259  39.460  13.173  11.595
40945W        W13260   7.338  11.758   0.799
40946W        W13261  36.536  21.686   4.170
40947W        W13262  34.916  13.754   1.285
40948W        W13263   8.807  15.310   0.877
40949W        W13264   0.485  37.469   4.333
40950W        W13265  19.231  27.155   3.743
40951W        W13266  30.633   1.762  11.417
40952W        W13267  13.842  34.081  10.417
40953W        W13268  17.665   0.424   0.430
40954W        W13269  17.644  15.638   4.777
40955W        W13270   9.284  29.972   0.755
40956W        W13271  23.552  42.954   3.829
40957W        W13272  23.637  30.540   1.725
40958W        W13273  42.839  20.729  12.550
40959W        W13274  16.587   8.797   4.773
40960W        W13275  39.017   1.850  13.029
40961W        W13276  13.119  12.667   3.290
40962W        W13277   5.718  17.250   3.715
40963W        W13278  44.420  12.787  13.380
40964W        W13279  44.352  19.168   1.739
40965W        W13280  15.096  20.705  14.760
40966W        W13281   9.163  11.273   2.371
40967W        W13282  15.275  17.099   1.312
40968W        W13283  35.422  14.657  14.291
40969W        W13284  26.976  32.114  13.880
40970W        W13285  37.430  32.050  14.360
40971W        W13286  30.584  16.199   4.777
40972W        W13287   3.922  10.650  14.327
40973W        W13288  38.037  14.251   0.743
40974W        W13289  43.418  26.959  13.050
40975W        W13290  26.487  16.148   1.805
40976W        W13291  42.503  24.716  13.853
40977W        W13292  34.532  16.607   3.818
40978W        W13293  25.054  26.670  12.411
40979W        W13294  38.926   4.750  11.906
40980W        W13295   5.211  12.703  13.331
40981W        W13296  20.577   2.749  13.400
40982W        W13297  27.151   3.837  11.041
40983W        W13298  41.424  36.938  14.300
40984W        W13299   0.478   0.354   2.359
40985W        W13300  17.714  23.145  11.868
40986W        W13301  16.702  21.090  11.875
40987W        W13302  36.423  41.498  10.640
40988W        W13303  13.321  17.594   3.671
40989W        W13304  36.091  28.165   3.235
40990W        W13305  42.833  26.481  13.031
40991W        W13306  34.010  40.496   2.750
40992W        W13307  25.703  22.736   0.926
40993W        W13308  40.014  40.027  13.413
40994W        W13309  36.090  19.641  12.021
40995W        W13310  15.774  22.719   1.845
40996W        W13311  38.069   1.356   2.338
40997W        W13312  26.483  30.018  11.590
40998W        W13313  32.958  17.183  14.476
40999W        W13314  15.686   1.443   2.227
41000W        W13315  34.968  41.315   5.105
41001W        W13316   9.809  42.867  11.105
41002W        W13317  29.972   7.186   4.817
41003W        W13318  37.359  33.073  13.052
41004W        W13319  23.730  10.283  11.586
41005W        W13320  12.297  15.722  11.449
41006W        W13321  20.176  40.914  12.835
41007W        W13322  34.090  19.580  13.896
41008W        W13323  17.725   9.667  11.474
41009W        W13324  33.052  39.848   4.246
41010W        W13325  34.945   8.805  10.521
41011W        W13326  12.196  36.408   3.215
41012W        W13327  20.039  14.659   0.382
41013W        W13328   3.865  36.983   0.448
41014W        W13329  39.928  35.917  13.042
41015W        W13330  11.663  41.893  14.487
41016W        W13331  36.935  15.779  14.435
41017W        W13332   8.727   4.314   2.338
41018W        W13333   2.825   9.747   4.770
41019W        W13334   8.177  20.670  11.431
41020W        W13335  15.274  28.661   4.645
41021W        W13336  23.121  14.150  12.940
41022W        W13337   3.810  42.368   1.353
41023W        W13338  22.154  26.572   0.915
41024W        W13339  34.390  33.917  10.493
41025W        W13340  42.874  10.676  11.579
41026W        W13341  26.592  39.538   1.708
41027W        W13342  30.470  28.538  13.939
41028W        W13343   4.837  23.020  12.904
41029W        W13344  15.644  42.492  10.914
41030W        W13345  28.951  13.714  11.049
41031W        W13346  19.693  40.521  11.891
41032W        W13347   1.447   7.713   3.650
41033W        W13348   1.735  19.694  11.007
41034W        W13349  33.453  43.287   4.679
41035W        W13350   3.773   2.957   4.144
41036W        W13351  42.396  34.429   3.680
41037W        W13352  14.174  13.842   2.802
41038W        W13353  42.825  20.231  14.884
41039W        W13354  24.528  35.907  12.004
41040W        W13355   7.855   8.399  11.046
41041W        W13356  15.307  25.093  10.535
41042W        W13357  26.994  39.536   2.375
41043W        W13358  44.502  39.334   2.802
41044W        W13359  32.029  19.647  13.343
41045W        W13360  16.222  25.079   0.422
41046W        W13361  30.414  18.214   3.726
41047W        W13362  18.103  44.961   0.756
41048W        W13363   1.334  44.339   2.670
41049W        W13364  28.970  23.651  14.927
41050W        W13365   6.205  43.451   3.292
41051W        W13366   0.910  21.621  10.605
41052W        W13367  14.671   1.477  10.542
41053W        W13368   4.899  43.949  12.040
41054W        W13369  36.402   6.368  13.848
41055W        W13370  26.204  35.922   3.169
41056W        W13371  37.467   6.245   4.253
41057W        W13372  42.002  43.821   4.748
41058W        W13373   2.272   3.320  12.916
41059W        W13374  41.536  28.447   0.841
41060W        W13375   3.322  15.681  10.585
41061W        W13376  11.756  34.469   4.161
41062W        W13377  24.007  31.914   0.371
41063W        W13378   0.429   6.840   0.881
41064W        W13379   7.728  23.613   0.417
41065W        W13380  19.642  40.009   0.278
41066W        W13381  38.948  28.447   0.796
41067W        W13382  15.729  19.651   0.895
41068W        W13383  44.335  15.813  12.049
41069W        W13384  22.658  12.258   2.849
41070W        W13385  41.023   0.476   0.427
41071W        W13386   0.271  28.004  13.055
41072W        W13387  11.813  18.673  13.035
41073W        W13388  27.952  18.208  12.446
41074W        W13389  30.011  20.045   4.121
41075W        W13390  25.098  38.434   3.825
41076W        W13391  21.155  14.215  10.887
41077W        W13392   0.359  37.947   1.272
41078W        W13393  21.099  33.487   5.098
41079W        W13394  37.416   5.750  14.377
41080W        W13395  12.724  10.796   4.623
41081W        W13396  10.330   5.388  13.450
41082W        W13397  40.915  10.367  11.944
41083W        W13398   1.849  34.575  10.610
41084W        W13399  27.994  40.543  13.886
41085W        W13400  14.113   9.680   1.388
41086W        W13401  15.198  34.509  11.087
41087W        W13402   1.869  39.436  14.916
41088W        W13403  39.404  40.522   2.846
41089W        W13404  11.820  38.901   3.177
41090W        W13405   3.755  29.982   3.271
41091W        W13406   4.880   5.207   3.379
41092W        W13407  36.005  28.930  12.842
41093W        W13408  29.579   5.763   3.234
41094W        W13409  37.452  34.610  14.412
41095W        W13410  32.098  41.956   0.478
41096W        W13411  24.048  25.554  13.447
41097W        W13412  13.789  14.280  13.493
41098W        W13413  24.604  33.438  12.072
41099W        W13414  35.068  17.589  10.926
41100W        W13415  20.737  10.665   4.756
41101W        W13416  36.918  32.579   2.779
41102W        W13417  16.724  29.524  11.878
41103W        W13418   4.928  21.734   1.822
41104W        W13419  31.143  17.192   3.709
41105W        W13420  42.822  42.892  12.395
41106W        W13421  41.938   2.934  11.569
41107W        W13422  22.552  39.845   0.854
41108W        W13423  43.289  10.651   4.738
41109W        W13424  15.654   6.912   0.456
41110W        W13425   7.840  25.206  10.528
41111W        W13426  12.633  28.082  14.462
41112W        W13427  24.690  42.469  14.338
41113W        W13428   6.258  22.149   2.329
41114W        W13429  39.018  20.266   3.832
41115W        W13430  23.678   6.208  12.876
41116W        W13431  30.973  19.542  10.073
41117W        W13432   4.860  11.292  11.935
41118W        W13433   2.902  43.955  14.879
41119W        W13434  32.127  15.310   1.440
41120W        W13435  24.721  14.683   3.725
41121W        W13436  15.620  38.991   1.785
41122W        W13437  35.537   9.351  14.812
41123W        W13438  18.594  24.582   0.765
41124W        W13439  38.937  43.427  14.906
41125W        W13440   7.195  24.645  11.103
41126W        W13441  41.405  44.844   3.704
41127W        W13442   7.372  13.703   3.170
41128W        W13443  39.982  42.931   1.774
41129W        W13444   5.422  19.125   1.376
41130W        W13445  26.555   3.341  12.486
41131W        W13446  17.221   7.879  14.834
41132W        W13447  34.919  36.499  11.432
41133W        W13448  39.465  41.509   2.199
41134W        W13449  36.432   7.243  13.352
41135W        W13450  10.268  39.926   3.151
41136W        W13451   0.866  11.720  11.955
41137W        W13452  42.492  30.464   4.791
41138W        W13453   1.874  27.101  13.046
41139W        W13454  40.011  31.500   1.434
41140W        W13455   9.193  21.708   4.691
41141W        W13456   6.918  34.391  13.546
41142W        W13457  24.181  28.950   2.273
41143W        W13458  13.656   0.840   2.784
41144W        W13459  12.703  24.604  13.525
41145W        W13460   5.292  27.020  13.503
41146W        W13461  23.994   3.233  14.030
41147W        W13462  38.838  41.445   1.742
41148W        W13463   8.348  40.900  11.905
41149W        W13464  16.174  22.041   4.794
41150W        W13465  36.850  20.553  10.910
41151W        W13466  10.287  16.315  14.404
41152W        W13467  11.798   9.824  10.466
41153W        W13468  22.162  38.028   4.800
41154W        W13469  25.164  15.242   2.235
41155W        W13470  12.791   8.188  11.915
41156W        W13471  43.975  35.991   2.275
41157W        W13472  12.828  11.715  11.914
41158W        W13473   1.868   5.792  11.551
41159W        W13474  12.260  40.897  10.595
41160W        W13475  17.765  40.848  10.596
41161W        W13476  27.135  29.458   3.819
41162W        W13477  29.548  35.555   3.857
41163W        W13478  41.364  43.272   4.294
41164W        W13479  44.957   9.744  14.481
41165W        W13480   6.751  11.692   2.378
41166W        W13481  12.772  41.369  12.484
41167W        W13482  27.674  24.561   2.669
41168W        W13483  10.645  27.485  12.369
41169W        W13484  39.808  39.555   3.281
41170W        W13485  20.631  25.486  13.347
41171W        W13486  43.276  24.144  14.328
41172W        W13487  32.458   0.378  14.277
41173W        W13488  19.237   8.686   9.606
41174W        W13489   4.740  43.310   1.318
41175W        W13490  21.041   3.930  12.041
41176W        W13491  42.781   2.350  14.488
41177W        W13492   5.201  31.527   1.859
41178W        W13493  35.473  42.800  14.301
41179W        W13494   6.243   5.724   3.181
41180W        W13495  27.094  17.781  14.969
41181W        W13496  18.297   7.199  13.847
41182W        W13497  34.590  29.442  11.869
41183W        W13498  13.643   4.939  12.484
41184W        W13499   2.738  34.600  11.575
41185W        W13500  26.574  26.677  14.397
41186W        W13501  21.640  35.083  12.086
41187W        W13502  12.138   7.906  13.372
41188W        W13503  37.984   3.837  11.462
41189W        W13504  30.643  17.694  13.049
41190W        W13505  16.609  21.190  14.807
41191W        W13506  14.646  36.494   2.327
41192W        W13507  38.383  35.859  13.044
41193W        W13508  14.331  25.203   0.912
41194W        W13509  37.388   4.265   0.333
41195W        W13510  17.134  39.348  12.015
41196W        W13511  13.657  35.999  12.882
41197W        W13512  35.530  15.188  10.597
41198W        W13513  21.724  36.497   0.408
41199W        W13514  29.524  35.002  11.082
41200W        W13515  16.662  33.889  11.379
41201W        W13516  10.772   5.784   1.703
41202W        W13517  33.907  41.848  11.110
41203W        W13518  28.982  38.355   4.292
41204W        W13519   8.879  11.309   0.445
41205W        W13520  17.165  21.227   4.126
41206W        W13521  29.165   2.867   4.350
41207W        W13522  13.244  42.004  11.980
41208W        W13523  44.319  11.216   3.642
41209W        W13524  44.375   6.303  13.939
41210W        W13525   4.343  14.185  10.613
41211W        W13526   3.950  17.066   2.359
41212W        W13527  31.605  15.656   4.607
41213W        W13528  23.524  10.675   0.791
41214W        W13529  41.529   9.875   4.708
41215W        W13530  16.730  16.702   1.711
41216W        W13531   0.449  23.635   0.395
41217W        W13532  18.715   8.712   1.839
41218W        W13533  11.254   2.437   0.959
41219W        W13534  37.352  29.437   5.263
41220W        W13535  19.080  43.469  11.934
41221W        W13536   3.804  17.176   1.386
41222W        W13537   0.853  33.015   3.672
41223W        W13538  35.938  40.839  10.608
41224W        W13539  13.226  19.125   3.856
41225W        W13540  28.472   6.364  12.470
41226W        W13541  13.712  20.536  14.002
41227W        W13542  21.057   8.226  11.932
41228W        W13543  43.811   0.262   4.764
41229W        W13544  13.764  38.419  13.930
41230W        W13545  41.367  40.935  12.522
41231W        W13546   7.398  27.484  11.496
41232W        W13547  38.031  16.087  13.445
41233W        W13548  21.021   2.300   5.316
41234W        W13549   2.448   3.239  11.444
41235W        W13550  28.537  34.890   4.118
41236W        W13551  16.121  39.000   3.166
41237W        W13552  17.105   4.789  12.929
41238W        W13553  42.805  34.589  14.790
41239W        W13554  11.219  14.169   2.406
41240W        W13555  17.628  29.493  12.091
41241W        W13556  18.789  12.184   3.238
41242W        W13557  42.467  33.448  11.508
41243W        W13558   5.819  26.512  12.941
41244W        W13559   5.426   9.278  14.496
41245W        W13560   2.757   1.447  11.923
41246W        W13561  44.979   3.251   2.679
41247W        W13562  37.523  15.090   4.664
41248W        W13563  32.930  42.442  13.931
41249W        W13564   7.301  40.440  13.037
41250W        W13565   4.736  34.409  14.276
41251W        W13566  44.359  16.082   3.203
41252W        W13567   8.672   4.299  13.980
41253W        W13568  17.192  27.098  14.350
41254W        W13569  26.598  16.808  10.519
41255W        W13570  38.878  36.589   0.403
41256W        W13571  35.034  12.146   4.831
41257W        W13572  28.540  37.569   3.243
41258W        W13573   5.881   3.295  13.880
41259W        W13574   4.237  25.020  12.830
41260W        W13575   5.225  37.568  12.534
41261W        W13576   0.782   3.364   0.876
41262W        W13577   1.817  28.663   3.247
41263W        W13578  11.162  17.110  14.890
41264W        W13579  23.490  12.184   0.910
41265W        W13580  15.653  15.176   1.424
41266W        W13581  14.121  26.587   4.291
41267W        W13582  39.540   5.816  13.961
41268W        W13583  23.077  29.984   4.663
41269W        W13584  26.551   1.312  14.813
41270W        W13585  31.127  10.768   2.668
41271W        W13586  16.147  38.415  14.296
41272W        W13587  28.544  22.517   0.406
41273W        W13588  43.942   5.265   4.812
41274W        W13589  16.129  40.474  10.959
41275W        W13590  30.538  38.867   1.781
41276W        W13591  11.733   8.227   1.820
41277W        W13592  16.289   6.881  13.926
41278W        W13593  42.951  41.936  10.555
41279W        W13594  16.716  24.628  10.899
41280W        W13595   9.309  36.449   4.135
41281W        W13596   5.741  16.081  14.815
41282W        W13597   0.370  33.473  13.481
41283W        W13598  17.765  29.036   3.339
41284W        W13599  22.600   6.343  14.986
41285W        W13600  44.453  25.011   2.665
41286W        W13601   9.692   3.844  13.887
41287W        W13602   8.281  30.074   1.697
41288W        W13603   9.852  19.648  12.920
41289W        W13604  37.019  20.748  12.347
41290W        W13605  25.620  15.785   4.797
41291W        W13606  31.482   5.297   2.295
41292W        W13607  30.521  44.767   3.761
41293W        W13608   1.933  24.607   0.275
41294W        W13609   2.890  15.253   4.182
41295W        W13610  33.593  20.250  13.324
41296W        W13611  41.890   1.736   3.838
41297W        W13612  25.148  21.525  12.398
41298W        W13613  14.143  25.629   1.734
41299W        W13614  21.108  34.562   0.448
41300W        W13615  32.122   7.836  10.534
41301W        W13616  41.487  13.145  12.040
41302W        W13617  25.682  21.017  14.330
41303W        W13618  22.012  42.379  13.466
41304W        W13619   2.918  43.964   1.908
41305W        W13620  23.102  36.485  12.891
41306W        W13621  15.784  42.493  14.327
41307W        W13622   5.747  35.399  12.964
41308W        W13623  20.613  24.565   2.822
41309W        W13624  11.177  32.591  13.470
41310W        W13625  18.079  15.111  10.424
41311W        W13626  33.012  40.817  13.982
41312W        W13627  24.016  13.315   3.375
41313W        W13628  32.017   9.201   2.280
41314W        W13629  43.918  23.133   1.735
41315W        W13630  32.573  27.989   4.257
41316W        W13631   7.911  43.768  14.430
41317W        W13632  25.014  35.391   4.659
41318W        W13633   2.244  36.962   1.448
41319W        W13634  38.470  32.493   0.896
41320W        W13635  29.617  10.167   0.380
41321W        W13636  44.340  22.233  12.914
41322W        W13637  34.116  39.971   0.950
41323W        W13638   6.348  38.553   3.639
41324W        W13639  44.469   6.707   0.427
41325W        W13640  11.696  15.617   5.188
41326W        W13641  16.769  12.283   3.756
41327W        W13642  40.916  34.885   2.814
41328W        W13643   7.405  22.240   4.182
41329W        W13644  19.541   8.880  14.874
41330W        W13645  28.057   6.300   3.157
41331W        W13646  26.147  40.487  11.111
41332W        W13647  26.991   9.292  10.553
41333W        W13648  38.993  30.623   4.623
41334W        W13649   3.324  30.070  14.286
41335W        W13650  13.237   8.702  10.924
41336W        W13651  41.941  18.615   1.872
41337W        W13652  14.650  39.467  11.605
41338W        W13653   6.298  42.006   4.759
41339W        W13654  21.551   5.406  14.935
41340W        W13655  24.630  24.552   4.610
41341W        W13656  28.169  11.136   4.335
41342W        W13657   6.882  10.696  14.913
41343W        W13658  25.477   2.966   1.875
41344W        W13659  23.118  11.655  10.551
41345W        W13660  22.655  14.825  10.500
41346W        W13661  29.114   9.389   2.292
41347W        W13662  36.450  25.162   0.863
41348W        W13663  29.009  15.704   1.415
41349W        W13664   8.259  42.811  14.972
41350W        W13665  33.908  18.614   0.303
41351W        W13666  16.204  26.192  13.478
41352W        W13667   9.673   3.871  13.016
41353W        W13668   2.850  44.340   0.805
41354W        W13669  42.999   3.383   4.165
41355W        W13670  10.772   9.728  12.364
41356W        W13671   6.758  28.024  14.287
41357W        W13672  13.686  28.063   2.227
41358W        W13673  32.920   4.299  13.002
41359W        W13674  36.881  23.539   2.368
41360W        W13675   3.296  20.559   4.818
41361W        W13676   4.231   1.778   4.163
41362W        W13677   7.881  30.934   1.215
41363W        W13678  13.762  17.686  11.021
41364W        W13679   5.727   8.779   0.296
41365W        W13680  25.203  14.708  11.066
41366W        W13681  32.993  30.523   1.223
41367W        W13682  17.574   2.780   2.399
41368W        W13683  38.392  43.330  11.079
41369W        W13684  18.278  14.617  11.393
41370W        W13685   7.409   0.335   3.311
41371W        W13686  39.952   6.272  11.034
41372W        W13687  43.921   7.356  12.506
41373W        W13688  42.799  31.916   0.291
41374W        W13689  11.134   2.812   3.698
41375W        W13690  38.406  34.067   0.366
41376W        W13691  35.077  23.617  10.984
41377W        W13692   4.894  39.063   0.424
41378W        W13693  34.059  41.474  12.085
41379W        W13694  13.744  32.498  12.969
41380W        W13695   8.833   7.899   1.756
41381W        W13696   7.806  34.563   4.704
41382W        W13697  43.993   7.223   1.275
41383W        W13698  25.991  33.098  12.562
41384W        W13699  39.976   0.972  10.928
41385W        W13700  19.705  34.559  13.870
41386W        W13701  15.133  25.196   3.833
41387W        W13702  22.546  14.759  12.898
41388W        W13703  30.151  11.808  11.099
41389W        W13704  25.999  29.493  10.528
41390W        W13705  15.737  17.140  12.577
41391W        W13706   6.863   8.785  13.359
41392W        W13707   9.757   5.896   4.707
41393W        W13708  14.268  10.301  13.827
41394W        W13709  33.962  24.536  13.513
41395W        W13710   3.847   2.854  11.605
41396W        W13711   0.938  10.374   2.207
41397W        W13712  44.384   9.862   1.404
41398W        W13713  21.688  36.367   4.119
41399W        W13714  32.520  30.416   4.312
41400W        W13715  21.090  39.522   3.379
41401W        W13716  19.213  34.459  12.846
41402W        W13717  35.363  24.090   1.279
41403W        W13718   7.741  35.928   2.739
41404W        W13719   1.287  31.050  14.358
41405W        W13720  20.562  30.540  13.954
41406W        W13721  27.682  12.716   1.257
41407W        W13722  26.463  28.994  12.517
41408W        W13723   0.925  28.615  12.083
41409W        W13724   7.808   5.904  14.932
41410W        W13725   7.845  42.457  14.434
41411W        W13726  25.576  33.596   3.666
41412W        W13727   4.269   4.874  11.389
41413W        W13728  13.242  12.266   1.345
41414W        W13729  30.521  15.712   3.667
41415W        W13730  17.713  34.497   1.872
41416W        W13731  26.471   6.325   0.854
41417W        W13732   8.868  44.413   1.828
41418W        W13733  18.607  40.871   4.138
41419W        W13734  31.035  32.984  10.487
41420W        W13735  17.638  33.478  14.989
41421W        W13736  14.278  12.740   1.762
41422W        W13737  19.242  22.658  10.523
41423W        W13738  41.507  11.667  11.443
41424W        W13739  44.964   8.316  12.534
41425W        W13740  42.512  29.541  12.973
41426W        W13741  33.548  16.109  13.533
41427W        W13742  33.431  19.043  12.082
41428W        W13743   2.800  44.813  11.453
41429W        W13744  20.194  44.843  13.950
41430W        W13745   8.704  36.950   3.334
41431W        W13746  28.598  21.257   2.690
41432W        W13747   3.320  36.362  11.446
41433W        W13748  39.517  31.571  12.846
41434W        W13749   3.921  40.875  11.403
41435W        W13750  12.775  13.349  13.367
41436W        W13751  22.730  42.976  11.906
41437W        W13752  28.465  43.354  14.936
41438W        W13753  10.309  10.709  13.474
41439W        W13754  13.110  39.450   0.795
41440W        W13755   2.780  23.080   2.876
41441W        W13756  26.055  17.273  14.332
41442W        W13757  36.093  43.904  10.466
41443W        W13758  38.881  27.623  13.423
41444W        W13759  28.574  38.982  14.866
41445W        W13760  11.758  12.790   1.412
41446W        W13761  15.740  41.018  14.302
41447W        W13762  18.152  27.945   3.691
41448W        W13763   8.704   6.904   2.239
41449W        W13764   8.216   2.351   3.177
41450W        W13765  17.213  33.993   2.744
41451W        W13766  26.628   3.773  13.896
41452W        W13767  44.789  17.648   2.254
41453W        W13768   0.938  44.367  14.419
41454W        W13769  16.732  13.108   1.702
41455W        W13770  31.605  11.742   3.649
41456W        W13771  22.636  22.723  14.860
41457W        W13772   9.323  16.734   5.206
41458W        W13773  19.111  32.081   3.301
41459W        W13774  20.216   9.753   4.790
41460W        W13775  41.885  10.835  11.009
41461W        W13776   5.771  33.891  14.396
41462W        W13777  31.040   3.397  13.854
41463W        W13778  19.614  20.065  13.544
41464W        W13779   4.714  21.610   0.922
41465W        W13780  10.683  15.179   0.358
41466W        W13781  37.075   2.395  10.578
41467W        W13782  19.221  44.003   4.680
41468W        W13783  27.636   3.941  13.452
41469W        W13784  36.996   8.229  13.535
41470W        W13785  44.002  29.653  12.946
41471W        W13786  33.018   6.811  10.624
41472W        W13787  44.417  24.558   1.258
41473W        W13788  14.833  38.549   0.905
41474W        W13789  29.002  43.474  14.949
41475W        W13790  16.732  39.854  12.446
41476W        W13791  19.776   6.915  11.989
41477W        W13792   2.763  36.943   0.966
41478W        W13793   6.696   5.823   4.353
41479W        W13794   6.385  20.587  13.340
41480W        W13795  24.652  43.876   4.637
41481W        W13796  28.634  10.752  12.878
41482W        W13797  19.272  14.229  11.999
41483W        W13798  24.162  36.395  12.489
41484W        W13799  35.011  23.205   3.205
41485W        W13800  35.472  42.976  13.343
41486W        W13801   0.475   4.277  12.826
41487W        W13802  39.534  26.143  14.323
41488W        W13803  44.942  44.877  12.491
41489W        W13804  39.408  11.197   2.364
41490W        W13805  13.283  22.190  14.930
41491W        W13806  17.262  28.005   9.955
41492W        W13807   0.258  12.738  14.802
41493W        W13808  43.921  12.174  10.052
41494W        W13809  26.033  22.502   0.341
41495W        W13810  12.852   7.409   0.444
41496W        W13811   4.795  14.621  12.405
41497W        W13812  10.734  19.195   3.654
41498W        W13813  36.388  27.091   1.432
41499W        W13814  39.325   5.782   3.346
41500W        W13815  34.948  18.231   3.340
41501W        W13816  31.525   2.820  13.832
41502W        W13817  27.497  15.192   2.208
41503W        W13818   8.742  18.580  14.841
41504W        W13819  43.282   8.798   4.794
41505W        W13820  28.565  44.844  11.902
41506W        W13821  44.482  29.977   2.348
41507W        W13822   9.848  23.073   0.881
41508W        W13823  17.263  16.612   1.884
41509W        W13824  30.593  29.941  14.469
41510W        W13825   4.843  19.742  11.941
41511W        W13826   2.847  14.807  13.918
41512W        W13827  37.057  21.158   4.606
41513W        W13828   6.760   7.782  10.948
41514W        W13829  40.972  10.288   2.840
41515W        W13830  39.887  24.690   4.241
41516W        W13831  18.270  42.439   2.405
41517W        W13832  23.126  19.613   1.337
41518W        W13833  39.530  44.431   2.401
41519W        W13834   7.177   6.415   4.667
41520W        W13835  37.952  10.766   1.800
41521W        W13836   4.801  26.461  12.049
41522W        W13837  19.774  32.008   2.295
41523W        W13838  25.498  29.437  14.787
41524W        W13839  21.167  18.754   3.742
41525W        W13840   6.822  11.809   1.312
41526W        W13841  16.620  27.152  11.457
41527W        W13842  31.986   6.324   4.278
41528W        W13843  16.309  23.060   1.420
41529W        W13844  42.400   9.886  13.794
41530W        W13845  22.708   8.664   3.318
41531W        W13846  32.435  41.936  13.946
41532W        W13847  38.534  21.737   3.367
41533W        W13848  41.425  39.986  13.909
41534W        W13849  11.273  31.476  12.931
41535W        W13850   7.697  17.307  13.894
41536W        W13851  12.172  33.488  13.887
41537W        W13852   5.867  21.542   2.275
41538W        W13853  20.592   7.324  13.490
41539W        W13854  36.417  23.218   0.816
41540W        W13855  39.338   8.796   2.849
41541W        W13856  36.025  38.062   3.833
41542W        W13857   0.815  30.980   2.278
41543W        W13858  38.952  11.631  12.036
41544W        W13859  42.931  17.738  13.803
41545W        W13860  32.003  37.512  13.504
41546W        W13861   3.446  35.894   4.614
41547W        W13862   2.778  18.200  13.365
41548W        W13863  19.777  29.549   2.336
41549W        W13864  35.098  20.527  10.468
41550W        W13865  21.682   0.939  13.394
41551W        W13866  30.539  31.424  10.576
41552W        W13867  15.714   5.338   1.839
41553W        W13868  17.799  31.421  13.936
41554W        W13869  19.541  41.404   4.231
41555W        W13870  38.037   4.892   1.786
41556W        W13871  25.015  24.532   3.773
41557W        W13872   7.295  11.260  12.553
41558W        W13873   9.201   3.849  10.591
41559W        W13874   5.412  40.044  13.530
41560W        W13875  37.920  13.806   4.148
41561W        W13876  26.634  11.202  14.875
41562W        W13877  31.635  37.366   4.216
41563W        W13878   2.379  37.988   3.192
41564W        W13879  30.621  24.061  13.836
41565W        W13880   3.776  17.110  12.569
41566W        W13881  35.483   9.311  14.480
41567W        W13882   5.320  15.127   0.243
41568W        W13883   9.644  33.059   3.634
41569W        W13884  32.440  35.544  10.554
41570W        W13885   3.388  13.612   3.630
41571W        W13886  27.632  23.215   1.873
41572W        W13887  28.163  30.027  11.015
41573W        W13888  40.859  38.456  13.798
41574W        W13889   5.832  38.853   4.255
41575W        W13890   2.279   4.404  13.544
41576W        W13891  24.634  32.614   0.936
41577W        W13892  40.810   3.301  10.502
41578W        W13893  12.780  21.145   4.614
41579W        W13894  29.155  20.062   3.259
41580W        W13895  15.275  14.095   3.706
41581W        W13896  34.432   3.238  13.822
41582W        W13897  42.519  32.908  10.645
41583W        W13898  10.230  26.002   4.183
41584W        W13899  14.165  11.203  14.759
41585W        W13900  28.131   2.295  12.467
41586W        W13901  29.061  33.571   3.839
41587W        W13902  24.033  21.111   2.873
41588W        W13903  11.630  43.819  14.363
41589W        W13904  28.018  39.826  12.861
41590W        W13905  13.785  10.257  14.912
41591W        W13906   3.763  18.710  13.384
41592W        W13907  30.973   1.417   0.246
41593W        W13908  29.430  20.743   2.267
41594W        W13909  34.480  13.824  11.863
41595W        W13910  20.667  38.852  14.489
41596W        W13911   6.801  24.081   3.180
41597W        W13912  39.050  14.160  14.435
41598W        W13913  31.491  22.159  14.961
41599W        W13914  35.039  31.037  11.481
41600W        W13915   4.738   8.237  13.448
41601W        W13916  35.071  20.701   2.666
41602W        W13917  22.549  33.578  11.436
41603W        W13918  16.194   0.748  11.080
41604W        W13919  30.054   2.940  10.576
41605W        W13920  27.460  17.617   3.799
41606W        W13921  13.808  39.868  13.405
41607W        W13922  36.572  21.566   3.331
41608W        W13923   9.878  43.465  12.360
41609W        W13924   3.263   1.364  10.509
41610W        W13925  35.456   5.831  14.885
41611W        W13926  24.555  10.379   3.747
41612W        W13927   9.769  31.069   0.393
41613W        W13928  42.379  26.190   0.943
41614W        W13929  19.106  28.509   2.832
41615W        W13930   7.218  12.327  14.510
41616W        W13931  20.220  36.004   2.255
41617W        W13932  32.042  28.088   0.317
41618W        W13933  29.048  38.975  12.371
41619W        W13934   6.216  13.234  12.987
41620W        W13935  39.377  22.030   0.406
41621W        W13936  11.844  21.528  14.767
41622W        W13937   0.288  40.499  10.595
41623W        W13938  27.952  42.495  11.387
41624W        W13939  38.550  13.245   4.633
41625W        W13940  28.586  41.980   1.806
41626W        W13941  19.074  36.403  13.978
41627W        W13942  43.344  18.260   0.750
41628W        W13943  22.549  15.112   4.636
41629W        W13944  43.438  40.383  12.980
41630W        W13945  32.931  14.789   4.718
41631W        W13946   8.178   1.441   2.329
41632W        W13947  29.176   3.245  14.886
41633W        W13948   4.415   9.823  11.885
41634W        W13949   2.341   0.951  12.900
41635W        W13950   9.237  10.339   1.860
41636W        W13951  24.992  31.142   3.343
41637W        W13952  34.420   8.190  12.068
41638W        W13953   1.865   6.218  13.063
41639W        W13954  10.741   1.895  12.016
41640W        W13955  44.762  19.097  10.422
41641W        W13956  14.633   6.286  10.083
41642W        W13957  22.251  12.350   3.348
41643W        W13958  33.079  40.991   1.748
41644W        W13959  42.380  41.397  11.047
41645W        W13960  30.536  37.343  11.490
41646W        W13961  18.755  44.428  13.500
41647W        W13962   8.363  22.597   0.744
41648W        W13963   4.775   2.966  11.485
41649W        W13964  19.580  25.143  11.917
41650W        W13965  17.108   9.843  10.127
41651W        W13966  37.440  43.887   9.963
41652W        W13967  15.115  22.092   4.193
41653W        W13968   6.707   7.202  11.950
41654W        W13969  33.538  40.004   1.835
41655W        W13970  35.565  24.188  11.928
41656W        W13971  15.110  31.044   3.369
41657W        W13972  19.775  26.515   4.765
41658W        W13973  44.473   5.738  14.451
41659W        W13974  35.520  16.727   1.800
41660W        W13975   0.493   8.719  10.141
41661W        W13976  23.665   4.718   4.649
41662W        W13977  12.660  28.648   3.643
41663W        W13978  19.564  23.032   3.161
41664W        W13979   2.910  42.281  12.898
41665W        W13980  25.006  43.925   1.780
41666W        W13981  12.125   0.333   1.335
41667W        W13982  36.499  26.092  11.461
41668W        W13983   3.357  20.722  12.055
41669W        W13984   0.980  43.306  12.354
41670W        W13985   9.234  20.542   0.730
41671W        W13986  25.973  38.485  14.810
41672W        W13987   3.388   5.788  11.068
41673W        W13988  36.416  38.946   4.720
41674W        W13989  23.681  10.691  11.479
41675W        W13990   5.261  43.805  14.907
41676W        W13991  24.581  43.415  10.441
41677W        W13992  32.558  41.929   4.351
41678W        W13993   2.922  43.492  11.493
41679W        W13994  39.912  24.563   0.433
41680W        W13995  17.792  32.050   3.849
41681W        W13996  16.223  38.363  11.524
41682W        W13997  22.717  23.695  13.315
41683W        W13998   9.853  34.469   3.154
41684W        W13999   0.322   1.788  11.940
41685W        W14000  26.654  35.427   4.228
41686W        W14001  43.951  18.130   3.656
41687W        W14002  19.614  37.059   1.850
41688W        W14003  11.777  33.594  13.901
41689W        W14004  34.041  29.984  14.027
41690W        W14005  16.247  21.037  10.565
41691W        W14006  13.748  39.374   1.817
41692W        W14007  15.123  27.582  12.446
41693W        W14008   0.757  10.336  10.523
41694W        W14009  40.450   1.937   1.330
41695W        W14010  21.261   6.734   2.859
41696W        W14011  11.261   6.839  11.901
41697W        W14012  35.895   0.982  11.077
41698W        W14013  36.896  10.642  14.357
41699W        W14014  41.947  34.563   2.789
41700W        W14015   0.322  12.309  13.547
41701W        W14016   4.785  22.131   0.924
41702W        W14017   3.925  41.319  10.069
41703W        W14018  23.565  44.367   2.196
41704W        W14019  28.109  22.049  12.856
41705W        W14020  34.517  38.495   2.283
41706W        W14021  31.939  27.674   1.309
41707W        W14022  42.437  18.216  10.974
41708W        W14023  14.214  25.639   2.883
41709W        W14024  24.587  36.023  13.886
41710W        W14025  29.018  39.845  13.928
41711W        W14026  26.656   9.355   1.332
41712W        W14027  12.747  43.840   4.733
41713W        W14028  35.914  40.510  14.780
41714W        W14029   6.851  26.603   2.388
41715W        W14030  41.000   8.388  12.843
41716W        W14031   0.852  39.397  10.899
41717W        W14032  41.341  14.304   0.281
41718W        W14033  26.971  23.160  12.557
41719W        W14034  29.651  44.368  13.064
41720W        W14035  38.444  26.528  10.509
41721W        W14036  40.998  39.020  14.843
41722W        W14037  24.653   5.733  14.408
41723W        W14038  10.160   3.311   1.415
41724W        W14039  22.073  20.045  13.543
41725W        W14040   0.276   4.280   2.704
41726W        W14041  43.426  24.642  12.396
41727W        W14042  29.519  26.192   2.848
41728W        W14043  18.246  21.051   2.376
41729W        W14044   7.762   0.318   0.378
41730W        W14045  39.887  21.115  14.992
41731W        W14046  16.803  43.857   4.149
41732W        W14047  35.454  20.168   1.745
41733W        W14048   9.711  30.925   3.206
41734W        W14049  35.493  18.081   1.393
41735W        W14050  41.925   9.768  14.796
41736W        W14051  27.168  12.200   0.872
41737W        W14052  33.957  11.835  11.545
41738W        W14053  33.096   6.838  12.555
41739W        W14054  20.086  41.817   4.235
41740W        W14055  12.843  26.528  14.396
41741W        W14056  16.279  40.518   4.353
41742W        W14057  32.393  28.122  13.339
41743W        W14058  39.344  39.449   1.849
41744W        W14059  10.349   1.958   1.901
41745W        W14060  15.109  11.657  12.093
41746W        W14061   8.219  21.688  14.837
41747W        W14062   2.763   8.663   2.680
41748W        W14063  33.572  11.174   0.285
41749W        W14064   5.806  35.898   4.669
41750W        W14065  23.027   1.856  10.940
41751W        W14066  28.531  26.579  10.895
41752W        W14067  14.829  34.411   2.860
41753W        W14068  41.359  21.655  14.453
41754W        W14069  40.941   5.395   2.697
41755W        W14070  29.012  17.784  11.117
41756W        W14071   9.149  11.172   0.271
41757W        W14072  43.446  17.683   1.424
41758W        W14073  43.318  23.056  10.460
41759W        W14074  21.145  33.397  10.528
41760W        W14075  36.880  34.081  14.459
41761W        W14076  15.228  28.535   4.232
41762W        W14077  23.101  14.221   2.766
41763W        W14078   1.244  26.054   2.852
41764W        W14079  13.288  33.554  11.886
41765W        W14080  24.669  29.469   0.296
41766W        W14081  13.726  27.468  13.993
41767W        W14082  39.814  34.490  13.893
41768W        W14083  37.526  21.656   4.756
41769W        W14084  16.269  34.925  10.609
41770W        W14085  12.275  11.659   0.440
41771W        W14086  40.372  21.126   2.704
41772W        W14087  15.169  12.155  10.589
41773W        W14088   9.715   3.423  12.002
41774W        W14089   6.922   8.337   4.245
41775W        W14090  42.485   6.205   3.364
41776W        W14091   6.692  44.406   1.928
41777W        W14092  42.921  37.410   3.327
41778W        W14093  37.050  12.676  13.473
41779W        W14094  19.770  40.497  10.119
41780W        W14095  22.580  25.205  11.375
41781W        W14096  10.867  39.493   1.298
41782W        W14097  27.092  42.295   4.654
41783W        W14098  40.899   6.725  12.900
41784W        W14099  39.505  27.044  10.921
41785W        W14100   8.231  13.269   4.131
41786W        W14101  16.636   3.425   4.751
41787W        W14102  31.409  44.890  11.111
41788W        W14103   3.761  14.659   2.833
41789W        W14104  33.097  24.004  10.561
41790W        W14105   6.304  40.303   4.320
41791W        W14106  41.458  32.127   3.679
41792W        W14107  33.115  36.584  12.559
41793W        W14108  17.151  14.632   0.244
41794W        W14109   4.298  11.332  11.940
41795W        W14110   8.849  14.786  11.952
41796W        W14111   7.260  27.038  14.795
41797W        W14112   1.237  28.156  12.513
41798W        W14113  41.418   9.359   0.318
41799W        W14114  35.986  42.402  11.393
41800W        W14115  17.230   7.271  14.812
41801W        W14116  36.397  36.887  11.532
41802W        W14117  35.376   8.718  13.891
41803W        W14118  40.427  33.927  11.978
41804W        W14119  33.442  40.315  11.431
41805W        W14120  28.449  39.476   3.850
41806W        W14121   5.845  12.181  14.344
41807W        W14122  11.708  34.592  12.396
41808W        W14123  15.172  31.456   4.694
41809W        W14124  14.149  27.507  11.104
41810W        W14125  22.642  19.082   0.255
41811W        W14126  34.539   4.808   3.166
41812W        W14127   2.755  31.593   2.318
41813W        W14128  21.231  11.329   1.367
41814W        W14129  33.418  30.932   1.280
41815W        W14130  29.515  18.676  14.501
41816W        W14131  32.519  16.179   1.881
41817W        W14132  13.636  35.423   2.842
41818W        W14133  18.593  40.307   3.227
41819W        W14134   7.182  40.859   4.731
41820W        W14135  41.794  41.994   0.259
41821W        W14136  37.544  25.494   2.808
41822W        W14137  32.107  14.326   3.828
41823W        W14138  42.466  31.423   0.263
41824W        W14139  39.461  23.671   5.565
41825W        W14140   4.285   1.805  14.919
41826W        W14141  30.120  40.467  10.491
41827W        W14142  41.982  16.695  14.303
41828W        W14143   3.383  36.421   3.249
41829W        W14144  11.308  31.083   0.286
41830W        W14145   0.980  32.900  12.871
41831W        W14146  43.372  34.883  11.886
41832W        W14147  14.784  30.552  10.927
41833W        W14148  42.809  37.896   3.177
41834W        W14149  13.151  29.057  14.502
41835W        W14150  32.021  12.295  12.920
41836W        W14151   1.962  13.202   4.303
41837W        W14152  19.642  20.621   2.857
41838W        W14153   7.172   6.330  13.368
41839W        W14154  32.603   4.212  12.873
41840W        W14155  26.123  23.218   0.849
41841W        W14156   9.153  39.883  10.889
41842W        W14157  43.423  33.079  12.514
41843W        W14158  18.703  12.147  13.442
41844W        W14159  10.808   8.255   1.916
41845W        W14160  13.329  27.976  11.460
41846W        W14161   5.385   6.235  12.911
41847W        W14162  21.022   5.918   9.996
41848W        W14163  28.085  16.173  12.863
41849W        W14164  32.912  43.350  12.969
41850W        W14165  11.750  38.562  14.921
41851W        W14166  10.634  12.285   3.743
41852W        W14167  40.313  33.551  11.926
41853W        W14168  32.511  13.343   1.798
41854W        W14169  39.386  18.647   0.408
41855W        W14170  29.117  43.504  12.545
41856W        W14171  13.142  35.099   0.296
41857W        W14172  27.988  22.717  12.501
41858W        W14173   3.227  10.384   1.387
41859W        W14174  28.075  30.508   1.394
41860W        W14175  12.342   1.832  13.373
41861W        W14176  34.027  11.861   2.701
41862W        W14177  27.134   3.264   5.258
41863W        W14178  32.926  12.713  13.992
41864W        W14179  33.407  30.943   3.825
41865W        W14180  21.208   4.388  13.909
41866W        W14181  27.107  37.408  13.391
41867W        W14182  44.886   3.900  14.441
41868W        W14183  36.443  44.954   0.841
41869W        W14184   5.423  13.720  10.514
41870W        W14185  27.074  31.534   2.212
41871W        W14186  26.196  16.256  13.494
41872W        W14187  16.154  27.670   1.375
41873W        W14188  20.614   3.721   3.639
41874W        W14189  27.646  10.832  11.581
41875W        W14190  34.044  28.989   0.265
41876W        W14191  27.142  13.148  10.943
41877W        W14192   4.209  17.102  11.449
41878W        W14193  16.220   5.373  12.861
41879W        W14194  25.689  14.227  10.121
41880W        W14195  43.298  16.729  13.457
41881W        W14196  22.105  18.184  12.038
41882W        W14197  14.759  43.382  10.563
41883W        W14198   8.266   5.924  11.068
41884W        W14199   3.264  40.461  14.889
41885W        W14200  42.295  42.787   4.337
41886W        W14201   8.279  42.024  14.885
41887W        W14202  42.826   3.940   1.741
41888W        W14203  27.500  27.681   1.873
41889W        W14204  26.670   7.312   3.777
41890W        W14205  18.651  18.281   4.158
41891W        W14206   7.810  36.591   1.216
41892W        W14207  42.935  44.950  12.375
41893W        W14208  43.826  13.193  11.497
41894W        W14209  27.499   9.238  12.356
41895W        W14210   7.826  25.659  11.515
41896W        W14211  11.767  31.618  13.362
41897W        W14212  18.254  25.057  14.931
41898W        W14213  21.639  35.866   4.142
41899W        W14214  15.691  35.416  12.955
41900W        W14215  29.633  24.023   1.751
41901W        W14216  30.454  27.639   2.665
41902W        W14217  17.730   9.755   3.257
41903W        W14218  19.059  43.841  14.430
41904W        W14219   8.303   8.795  10.417
41905W        W14220  26.591  25.664  11.053
41906W        W14221  23.662  30.463   4.743
41907W        W14222  21.242  25.197  14.811
41908W        W14223  37.429  25.524   5.764
41909W        W14224   2.465  32.007  11.415
41910W        W14225  40.410   6.235  10.541
41911W        W14226   5.877  14.600   2.212
41912W        W14227  27.072  14.735  13.905
41913W        W14228  21.153   7.839  13.997
41914W        W14229  18.251  39.964  11.926
41915W        W14230   4.926   7.401   0.425
41916W        W14231   7.684   9.704   4.154
41917W        W14232  18.263  10.670  11.975
41918W        W14233   2.857  32.977  14.490
41919W        W14234  42.859  21.207   1.772
41920W        W14235  39.940  32.138   1.841
41921W        W14236  20.666  22.693  12.049
41922W        W14237   9.346  30.021   3.347
41923W        W14238  44.283   3.714   3.801
41924W        W14239  29.492   2.241  13.845
41925W        W14240  10.833  23.016   1.403
41926W        W14241  35.505   6.756  11.867
41927W        W14242  34.543   8.283  13.984
41928W        W14243  18.076  27.523   0.444
41929W        W14244  14.112  12.145   1.378
41930W        W14245  10.707   2.309   3.720
41931W        W14246  28.623  39.027   2.839
41932W        W14247  38.062   4.262  14.029
41933W        W14248  32.917   4.740   4.633
41934W        W14249  18.590  17.163  11.862
41935W        W14250  34.398  38.543  13.407
41936W        W14251   3.841  11.700  11.589
41937W        W14252  11.629   0.837  13.035
41938W        W14253  23.216  44.410   0.302
41939W        W14254  35.598  13.112   0.832
41940W        W14255  13.207   0.323   1.340
41941W        W14256  21.583  14.184  10.925
41942W        W14257  19.599   4.318   2.330
41943W        W14258  31.526  26.609   1.242
41944W        W14259  38.058  13.128  14.032
41945W        W14260  31.406  17.231  14.404
41946W        W14261   4.439  30.527   2.742
41947W        W14262  12.208   9.692  13.964
41948W        W14263   9.228   6.245  10.493
41949W        W14264  22.160   0.382   1.810
41950W        W14265   0.348  23.156  12.898
41951W        W14266   1.791  20.126   2.774
41952W        W14267   8.344  29.056  14.487
41953W        W14268  16.248  40.905   2.664
41954W        W14269  27.522  14.744  14.816
41955W        W14270  31.497  38.859  13.054
41956W        W14271  28.955  10.875  13.979
41957W        W14272  42.379   3.771  10.551
41958W        W14273  33.099  14.167  12.428
41959W        W14274   6.334   9.763  11.535
41960W        W14275  21.604   8.838  13.983
41961W        W14276  15.257  20.226  11.894
41962W        W14277   8.720  36.489  12.075
41963W        W14278   8.888  39.418   4.172
41964W        W14279   8.702  23.112   3.167
41965W        W14280  24.148  10.790  12.451
41966W        W14281  42.474  41.391  12.828
41967W        W14282   8.900  17.298  13.024
41968W        W14283  19.708   0.412  10.442
41969W        W14284  31.937  22.193   1.345
41970W        W14285  11.219  32.005  12.572
41971W        W14286  22.031  33.614  11.609
41972W        W14287  13.190  43.478  13.798
41973W        W14288  35.574   0.336  12.997
41974W        W14289  38.994   1.767   1.923
41975W        W14290  17.587  35.491  11.905
41976W        W14291  23.237   2.229   4.122
41977W        W14292  39.369  20.655   3.227
41978W        W14293   3.318  30.606  13.922
41979W        W14294   3.409  11.213   2.232
41980W        W14295  12.663   1.283  14.917
41981W        W14296  29.649  12.281  14.461
41982W        W14297  13.235  23.576   4.794
41983W        W14298  29.095   4.267   2.386
41984W        W14299   1.755  32.981   4.643
41985W        W14300  43.287  24.484   0.328
41986W        W14301  10.749  11.206   3.237
41987W        W14302  40.422  18.723  13.020
41988W        W14303  25.546  37.397   2.315
41989W        W14304  40.836   1.737   4.239
41990W        W14305  13.601  38.932  12.485
41991W        W14306  17.795   4.320   2.901
41992W        W14307  34.474  42.892  12.049
41993W        W14308  21.516   2.437   3.208
41994W        W14309  10.846  44.919   2.662
41995W        W14310  39.870  21.583   3.698
41996W        W14311  20.139  39.499  10.522
41997W        W14312  19.057  17.247  11.993
41998W        W14313   9.666  28.468  11.004
41999W        W14314   9.823   7.381  11.524
42000W        W14315  22.688  12.179   2.318
42001W        W14316  36.988  16.305  13.973
42002W        W14317  28.094  24.072  12.565
42003W        W14318  36.348  34.875   4.670
42004W        W14319  41.468  25.590  11.086
42005W        W14320   9.218  18.198   5.682
42006W        W14321  11.786  33.927   1.927
42007W        W14322  25.090  37.891   1.226
42008W        W14323  18.588  41.359  13.888
42009W        W14324  16.116  38.873   9.931
42010W        W14325  41.981  31.009  11.976
42011W        W14326  10.777  12.173  12.462
42012W        W14327  15.717  34.905  11.480
42013W        W14328  34.934  13.737  13.402
42014W        W14329  21.626   9.268  13.909
42015W        W14330  29.527  33.093  13.377
42016W        W14331  12.326  30.529   1.300
42017W        W14332   2.865   3.938  10.918
42018W        W14333  35.494  21.107  13.537
42019W        W14334  41.421  31.429   2.181
42020W        W14335  40.492   6.709  10.514
42021W        W14336  37.022  23.057  13.887
42022W        W14337  26.481  17.201   3.634
42023W        W14338  13.161  29.455  13.807
42024W        W14339   5.272  26.627  14.938
42025W        W14340   6.905  26.556  12.535
42026W        W14341  36.350   2.916   4.734
42027W        W14342  27.505   7.812   0.781
42028W        W14343  17.129   9.713   9.474
42029W        W14344  19.749   2.236  14.400
42030W        W14345  44.853  28.145  13.973
42031W        W14346  42.482  32.601   1.323
42032W        W14347  25.136   9.762   1.272
42033W        W14348  23.686  38.059  14.391
42034W        W14349   7.859   3.423   3.639
42035W        W14350  11.296  10.363   3.319
42036W        W14351  18.252  37.984   3.812
42037W        W14352   0.319  10.779  14.989
42038W        W14353  43.958  26.533   0.419
42039W        W14354  19.219  35.595  11.109
42040W        W14355  23.114  16.226  13.320
42041W        W14356   1.925  16.738  10.964
42042W        W14357  42.467  38.358  13.920
42043W        W14358   8.654  10.282   3.223
42044W        W14359  23.680  15.733  12.538
42045W        W14360  10.282  17.285   0.465
42046W        W14361  36.042  19.082  11.579
42047W        W14362  42.934  31.049   3.361
42048W        W14363  16.700  38.537   3.869
42049W        W14364  16.232  21.643   0.361
42050W        W14365  36.498   0.409   2.766
42051W        W14366  33.109  32.031   1.249
42052W        W14367  44.383  21.519   3.353
42053W        W14368   4.884  30.111   2.350
42054W        W14369  30.004  18.260   1.903
42055W        W14370  31.594  15.325  12.457
42056W        W14371  39.484  25.077  10.616
42057W        W14372  44.823   2.451  13.816
42058W        W14373  17.624  16.309   1.226
42059W        W14374  33.024  38.405   3.867
42060W        W14375  11.238  22.018   0.808
42061W        W14376   8.726  10.752   4.746
42062W        W14377  32.037   9.299   3.718
42063W        W14378  36.372  10.152  13.400
42064W        W14379   4.334   6.272   1.275
42065W        W14380  12.693   4.209  10.492
42066W        W14381  37.029  22.698  11.860
42067W        W14382   1.414   7.258   3.287
42068W        W14383  27.941  16.730  11.913
42069W        W14384  36.423  36.565   1.370
42070W        W14385  13.112  25.701  13.443
42071W        W14386  15.255  19.611  10.455
42072W        W14387  33.399  23.609  12.854
42073W        W14388   7.681  19.598  11.374
42074W        W14389  36.483  25.106   3.269
42075W        W14390  19.182  44.002   3.829
42076W        W14391   3.929  29.620   3.852
42077W        W14392  39.988  11.187  13.971
42078W        W14393  41.888  29.502   0.908
42079W        W14394  34.533  39.932   1.342
42080W        W14395  14.656   8.804  10.945
42081W        W14396  33.603  40.868  12.833
42082W        W14397   6.783  35.436  12.909
42083W        W14398  36.366  11.156  12.033
42084W        W14399  21.662  40.833   0.816
42085W        W14400  23.075  33.105  13.862
42086W        W14401  15.696  32.959  14.923
42087W        W14402  36.567  14.096   4.831
42088W        W14403   4.316  33.032  14.937
42089W        W14404  20.707  30.095   2.414
42090W        W14405  25.991  32.612   3.349
42091W        W14406  43.927  22.113   4.225
42092W        W14407  40.401  18.058  13.929
42093W        W14408  29.952  17.694   0.382
42094W        W14409   5.801  19.236   3.688
42095W        W14410  20.041  31.971   0.302
42096W        W14411  12.650  21.244  14.439
42097W        W14412  37.898  30.560   4.766
42098W        W14413  40.388  41.806   3.777
42099W        W14414  38.540  26.581  11.015
42100W        W14415  32.893  26.548  14.418
42101W        W14416  22.042  22.556   4.739
42102W        W14417  39.453   5.250  13.454
42103W        W14418  27.020  16.659  13.337
42104W        W14419  33.433  19.219  11.459
42105W        W14420  37.370   8.171   3.289
42106W        W14421  19.065  36.368   4.627
42107W        W14422  16.261  37.083  11.565
42108W        W14423  36.385   4.859   2.758
42109W        W14424  28.972  36.553   2.285
42110W        W14425  31.007  25.073   0.352
42111W        W14426  40.901  25.539  13.857
42112W        W14427   9.781  37.027   4.142
42113W        W14428  17.639  36.989  14.858
42114W        W14429  17.726  26.138   0.933
42115W        W14430  36.426  22.049   3.208
42116W        W14431   9.836  19.666  13.382
42117W        W14432  31.088  29.668  11.935
42118W        W14433  44.948  35.400   3.755
42119W        W14434  15.278  34.448   3.379
42120W        W14435  21.142  18.100  13.831
42121W        W14436   5.330  33.952   3.343
42122W        W14437  44.984  40.939   0.916
42123W        W14438   3.840  26.198   0.925
42124W        W14439  31.006  29.559   0.361
42125W        W14440  16.244  36.433   3.860
42126W        W14441   5.318  42.352  10.957
42127W        W14442   2.425  14.099   0.432
42128W        W14443  15.310  40.021   4.118
42129W        W14444  14.618  10.335  11.927
42130W        W14445   2.330  40.985   2.896
42131W        W14446  19.628   5.325  12.930
42132W        W14447   8.318  29.078   4.154
42133W        W14448  13.169   9.376   4.281
42134W        W14449  24.089  43.935  13.061
42135W        W14450   5.858  13.220   0.407
42136W        W14451  26.204  11.309   1.908
42137W        W14452  17.649  41.471  12.425
42138W        W14453  22.692  19.069  13.444
42139W        W14454  40.328  16.646   4.204
42140W        W14455  38.440   3.298  10.542
42141W        W14456  15.177  20.731   4.702
42142W        W14457  28.160  23.022   0.254
42143W        W14458  43.327  33.425   2.317
42144W        W14459  23.099  39.972  12.887
42145W        W14460   5.270   2.825   3.796
42146W        W14461  22.185  19.623   3.813
42147W        W14462  43.933  11.794  10.141
42148W        W14463  27.016  26.021  11.414
42149W        W14464  23.008  33.396   0.950
42150W        W14465  26.058  40.847   3.336
42151W        W14466  29.108  31.109   4.816
42152W        W14467  10.675  17.568   2.893
42153W        W14468  19.096  37.039   4.213
42154W        W14469  44.310  14.717   3.691
42155W        W14470  18.094  34.933  11.942
42156W        W14471  18.158  29.920  12.462
42157W        W14472  36.376  19.533   0.829
42158W        W14473  24.588   0.442  12.049
42159W        W14474  26.126   8.672   4.605
42160W        W14475  29.562  11.194   2.324
42161W        W14476  29.055   8.243  11.546
42162W        W14477  41.959  16.685  11.006
42163W        W14478  39.849  44.997   1.302
42164W        W14479  41.989  36.442   2.807
42165W        W14480  32.980  34.948   4.228
42166W        W14481  17.598  36.497   2.875
42167W        W14482   7.782  31.913   3.848
42168W        W14483  34.035  22.139   1.887
42169W        W14484  33.490  37.501  13.904
42170W        W14485  35.038   8.883  10.061
42171W        W14486  43.290   6.236  14.804
42172W        W14487  20.034   5.323  11.882
42173W        W14488  42.318   7.401  14.969
42174W        W14489  33.464   2.869  11.016
42175W        W14490  25.549   3.832   0.828
42176W        W14491  33.520  24.012   4.731
42177W        W14492   9.805   3.773   3.271
42178W        W14493   1.330  33.569  11.407
42179W        W14494  31.000  38.939  12.569
42180W        W14495  17.292  27.614  14.783
42181W        W14496  21.544  19.574  14.355
42182W        W14497  29.083   5.887   3.292
42183W        W14498  43.006  44.408   2.739
42184W        W14499  41.987   8.677  11.598
42185W        W14500  40.351  10.193   3.313
42186W        W14501   2.376  24.659  11.103
42187W        W14502  34.083  44.784  10.424
42188W        W14503   3.221  16.088  11.450
42189W        W14504  30.955  33.038  12.355
42190W        W14505  19.739  22.527   3.379
42191W        W14506  34.449   2.951  12.042
42192W        W14507   7.834  25.694  13.378
42193W        W14508  16.578   7.242   1.875
42194W        W14509  27.554  24.064  14.371
42195W        W14510  18.765  13.684  10.430
42196W        W14511  36.523   1.468  11.521
42197W        W14512  24.221  31.409   2.688
42198W        W14513  36.494  36.412   4.338
42199W        W14514   8.166  29.425  12.576
42200W        W14515  43.793  24.585  14.333
42201W        W14516   0.273   3.800   2.312
42202W        W14517   6.406  10.249  12.502
42203W        W14518  27.066  16.112  11.499
42204W        W14519  32.433  15.242  11.373
42205W        W14520  31.125  26.510   4.782
42206W        W14521  23.730   7.701   4.745
42207W        W14522   0.844  40.865  11.962
42208W        W14523  22.713   9.293  12.833
42209W        W14524  22.134  34.463   0.901
42210W        W14525  34.589  15.126   3.370
42211W        W14526   9.833  44.874  10.984
42212W        W14527  29.658  23.167   1.883
42213W        W14528   2.765  15.654   3.695
42214W        W14529  14.682  31.559  14.302
42215W        W14530  26.062  38.983   0.762
42216W        W14531  17.635  16.634   0.777
42217W        W14532  44.804  15.183   2.903
42218W        W14533  15.820   2.832  13.482
42219W        W14534  20.131  30.113   2.315
42220W        W14535  31.130  10.182   3.678
42221W        W14536  40.007  24.212  14.437
42222W        W14537   7.806  33.556  13.957
42223W        W14538  15.106  29.608   5.196
42224W        W14539   0.299  29.141  11.579
42225W        W14540  13.710  17.656  12.377
42226W        W14541  13.266   5.800   4.127
42227W        W14542  19.128  11.328  13.811
42228W        W14543  31.061  34.898   1.709
42229W        W14544  23.993  24.508  11.540
42230W        W14545  12.118  27.528  12.468
42231W        W14546  18.653  44.468   3.676
42232W        W14547  44.433  12.191  14.833
42233W        W14548  36.571   3.239   3.356
42234W        W14549  37.523   3.735  13.008
42235W        W14550   8.743  23.652   0.941
42236W        W14551  10.340  11.834  10.909
42237W        W14552   1.252  29.527  14.895
42238W        W14553  30.602   0.790  12.027
42239W        W14554  19.558  40.960  10.587
42240W        W14555  31.446  26.558   2.268
42241W        W14556  10.143   2.875  11.917
42242W        W14557  12.679  21.523   3.296
42243W        W14558  27.111  28.583  10.531
42244W        W14559   0.932  44.400   5.189
42245W        W14560  20.263   0.289  13.902
42246W        W14561  28.965  10.186  13.898
42247W        W14562  25.705  41.309   3.842
42248W        W14563  32.142   6.356   2.815
42249W        W14564   9.844   2.416  11.500
42250W        W14565  28.126  26.610   2.838
42251W        W14566  43.330  14.226   5.165
42252W        W14567  13.832  29.001  11.040
42253W        W14568  34.052  39.426  13.959
42254W        W14569   3.733  24.120   2.855
42255W        W14570  17.701  36.032   3.294
42256W        W14571   9.767  31.062  12.437
42257W        W14572   1.913  21.707  13.534
42258W        W14573  32.548  43.769   4.140
42259W        W14574  42.346  12.208   1.309
42260W        W14575  19.657  14.230  13.398
42261W        W14576   3.917   2.351   3.660
42262W        W14577  41.482  26.656   1.361
42263W        W14578  11.295   6.746   2.897
42264W        W14579   8.834  15.695   5.261
42265W        W14580  18.626  31.072  13.005
42266W        W14581  30.591  42.876  13.973
42267W        W14582  41.403  36.850   3.384
42268W        W14583  38.494  17.687  14.887
42269W        W14584  43.821  29.638   0.382
42270W        W14585  23.069  26.529   1.768
42271W        W14586  24.219  34.059   4.166
42272W        W14587  36.366  15.610   3.788
42273W        W14588   7.854   5.927   4.240
42274W        W14589  37.526  42.819  12.400
42275W        W14590  13.209  41.836   0.946
42276W        W14591  34.044  14.106   0.835
42277W        W14592   0.253  35.000  10.952
42278W        W14593  25.602  15.761  13.539
42279W        W14594   8.196  11.862   0.390
42280W        W14595  37.556  36.060  11.944
42281W        W14596  12.198  31.957   4.190
42282W        W14597  17.747  14.763  11.574
42283W        W14598  13.190  30.433   1.810
42284W        W14599  41.442  13.691  14.453
42285W        W14600  27.483  34.467   1.310
42286W        W14601   0.324  29.427   3.220
42287W        W14602  43.315  15.658   3.755
42288W        W14603   1.771  29.657  12.525
42289W        W14604  33.044  25.714  10.555
42290W        W14605  24.023  41.484   1.853
42291W        W14606  38.527  26.009   2.689
42292W        W14607  12.731  33.877  12.828
42293W        W14608  22.646   6.751  14.972
42294W        W14609  35.518  18.549   2.879
42295W        W14610  32.121  34.543  11.475
42296W        W14611  29.589  36.424  14.823
42297W        W14612  39.919  23.025   0.356
42298W        W14613  40.468  44.798   1.856
42299W        W14614  15.617   7.899  11.864
42300W        W14615  34.088  30.560  14.023
42301W        W14616  36.085   9.680   2.756
42302W        W14617  25.681  38.446  13.498
42303W        W14618  21.090  37.904   4.732
42304W        W14619  41.025  33.476  10.431
42305W        W14620  42.293  35.442   4.309
42306W        W14621  10.817  13.105   2.765
42307W        W14622   3.442  35.033  11.117
42308W        W14623   4.814  37.866  14.982
42309W        W14624  36.011  24.183  10.645
42310W        W14625  26.641   8.345   0.849
42311W        W14626  25.524  32.495  14.304
42312W        W14627  19.696  17.694   0.435
42313W        W14628  37.363  32.038  13.383
42314W        W14629  42.015  16.569   2.272
42315W        W14630   6.182  12.171  13.909
42316W        W14631  30.507  21.564  11.076
42317W        W14632  29.959  30.043  11.563
42318W        W14633  43.280   9.773   2.752
42319W        W14634  26.159  40.016   2.882
42320W        W14635  29.084  43.848  10.625
42321W        W14636  29.544  25.010   3.361
42322W        W14637  42.489  21.018   2.729
42323W        W14638  15.706  19.077  14.938
42324W        W14639  33.593  18.181  14.448
42325W        W14640  25.560  15.692  10.622
42326W        W14641  39.953  37.418   2.714
42327W        W14642  39.874  27.073   2.716
42328W        W14643  21.712  33.456   1.760
42329W        W14644  41.476  41.830  11.382
42330W        W14645  26.993  32.491  12.453
42331W        W14646  37.832  33.949  14.427
42332W        W14647  23.566  21.754  10.946
42333W        W14648  31.531   8.315  13.848
42334W        W14649  31.602   4.942  13.329
42335W        W14650  36.008  16.769  13.411
42336W        W14651  15.294  11.818  13.990
42337W        W14652  19.720   3.931   0.253
42338W        W14653  19.088  26.517  14.947
42339W        W14654  30.091   0.934  10.489
42340W        W14655  12.765   1.865   4.236
42341W        W14656  17.672  37.568   4.328
42342W        W14657  14.721  30.162   2.704
42343W        W14658  18.575   6.302  13.486
42344W        W14659  34.475  35.945   4.810
42345W        W14660  13.758  15.590  13.021
42346W        W14661  24.569  32.416   2.850
42347W        W14662  12.658  24.006  13.313
42348W        W14663  44.404   6.692  12.375
42349W        W14664   1.249  11.725  14.868
42350W        W14665  39.526   9.208  14.422
42351W        W14666  40.450  35.414  11.880
42352W        W14667  30.651  17.092   2.701
42353W        W14668   3.335   2.775   3.700
42354W        W14669   7.207  10.289   0.860
42355W        W14670  14.766   0.351   4.619
42356W        W14671  28.627   1.867   1.405
42357W        W14672  19.696  27.074   4.730
42358W        W14673  18.618  12.230  14.843
42359W        W14674  41.437  31.981   0.890
42360W        W14675  42.292  14.735   3.703
42361W        W14676   3.842  10.803   4.205
42362W        W14677  43.308  10.210  11.100
42363W        W14678  13.643  12.683  10.904
42364W        W14679  27.103  17.140  13.531
42365W        W14680  37.075  30.506  14.498
42366W        W14681  16.744  38.393  12.538
42367W        W14682   1.900  43.957   0.854
42368W        W14683   8.324  44.985  12.097
42369W        W14684  36.505  28.458  10.938
42370W        W14685   8.339  27.690   0.900
42371W        W14686  44.008  35.922  12.413
42372W        W14687  10.716  18.724   5.294
42373W        W14688  37.527  34.570   2.206
42374W        W14689  27.105  41.037  14.001
42375W        W14690   7.876  17.741   0.836
42376W        W14691  36.387   2.250   3.855
42377W        W14692  33.489   3.734   1.800
42378W        W14693   8.247  39.364  10.561
42379W        W14694  20.525  32.026  13.511
42380W        W14695  40.818  24.557  14.388
42381W        W14696  21.219  20.762   4.659
42382W        W14697   4.843  33.120   2.416
42383W        W14698   9.737   8.740  11.419
42384W        W14699  11.302  39.436   1.222
42385W        W14700  22.579  11.755   4.191
42386W        W14701  40.807   6.881   3.712
42387W        W14702  31.485  14.172   4.232
42388W        W14703  10.335  27.586   3.689
42389W        W14704  11.154  25.570  10.920
42390W        W14705  12.610  15.326  11.893
42391W        W14706   1.804  33.913  12.865
42392W        W14707   0.400  11.205  14.826
42393W        W14708  39.942  10.663   0.855
42394W        W14709  35.603  32.485   4.627
42395W        W14710  39.404  11.306  14.032
42396W        W14711  38.851  19.604  13.540
42397W        W14712  22.622   7.841  14.902
42398W        W14713  15.721  19.069   3.177
42399W        W14714  16.308  30.544   3.766
42400W        W14715  16.691  12.764  12.444
42401W        W14716  21.711  32.434   2.880
42402W        W14717   0.334  26.194  12.460
42403W        W14718  31.410  41.441  11.079
42404W        W14719  26.068  15.682   2.278
42405W        W14720  39.880  26.587  12.906
42406W        W14721  28.145   3.879   0.792
42407W        W14722   8.194  10.146   4.597
42408W        W14723  23.636   5.371   4.707
42409W        W14724  12.751   4.854   0.427
42410W        W14725  23.143  16.784  13.830
42411W        W14726   3.925  30.519  14.488
42412W        W14727  24.227  19.659   5.194
42413W        W14728  30.048  37.933   3.739
42414W        W14729  29.099  23.638  12.023
42415W        W14730  17.291  15.326   3.308
42416W        W14731  20.726  20.212  14.307
42417W        W14732  37.990  24.618  13.953
42418W        W14733  12.256  35.878   0.802
42419W        W14734   1.301   1.258   4.277
42420W        W14735  20.591  10.254  12.920
42421W        W14736   2.783  33.422  13.545
42422W        W14737   5.432  16.583   4.261
42423W        W14738  34.611  25.621   1.855
42424W        W14739  29.924   1.899   0.416
42425W        W14740  39.448   7.851   3.738
42426W        W14741   9.247  30.918  14.492
42427W        W14742   0.404  42.405  11.567
42428W        W14743  36.368   7.857  10.418
42429W        W14744  33.010  30.943  12.536
42430W        W14745  35.380   3.450   3.820
42431W        W14746  30.004  21.159   1.818
42432W        W14747  38.452  20.259   2.201
42433W        W14748   3.375  41.890  14.431
42434W        W14749   4.400  37.933   3.381
42435W        W14750  33.126  37.863   1.281
42436W        W14751  10.764  10.351   1.872
42437W        W14752   1.337  24.662  14.795
42438W        W14753  21.678  32.134  10.429
42439W        W14754  14.692  20.572   1.854
42440W        W14755  40.374  28.105  14.324
42441W        W14756  37.834  23.592   3.808
42442W        W14757  24.489  34.399   1.695
42443W        W14758   3.792  43.984  11.465
42444W        W14759  37.009  33.419   0.918
42445W        W14760   1.297   1.334  12.935
42446W        W14761  37.082   8.224  12.551
42447W        W14762  33.937  43.297  11.523
42448W        W14763  25.493  39.042   9.941
42449W        W14764  16.681  11.646  11.915
42450W        W14765  37.495  38.902   3.172
42451W        W14766  36.499  30.133  12.955
42452W        W14767  32.429   1.353   1.708
42453W        W14768  12.282  28.448  12.483
42454W        W14769  33.045   8.823   3.167
42455W        W14770  13.657  11.788   3.719
42456W        W14771  24.171  25.161   4.288
42457W        W14772  11.683   1.462   0.364
42458W        W14773   4.705  17.115  11.502
42459W        W14774  33.071  13.682   0.891
42460W        W14775  31.416  18.745   3.724
42461W        W14776  34.112  38.539   0.260
42462W        W14777  25.212  30.067   2.733
42463W        W14778  41.796  31.623   2.771
42464W        W14779   8.827  23.547  14.487
42465W        W14780  34.006  15.329   1.426
42466W        W14781  23.616   4.899   2.791
42467W        W14782  25.491  20.629  13.374
42468W        W14783  27.126  25.137  13.467
42469W        W14784  34.469  18.193   1.436
42470W        W14785  20.112  26.542  11.004
42471W        W14786  16.282  20.064   0.856
42472W        W14787  27.670  27.035   3.217
42473W        W14788  37.844  30.949   3.165
42474W        W14789  10.823  24.669  10.630
42475W        W14790   3.448   2.752   3.334
42476W        W14791  25.041  13.634  10.612
42477W        W14792   9.647  24.634   3.652
42478W        W14793  33.504  32.141   5.243
42479W        W14794  11.353  27.046   3.823
42480W        W14795  30.068  37.343  12.955
42481W        W14796   3.720  39.052   3.719
42482W        W14797  29.500  21.623   3.218
42483W        W14798  34.417  13.705   4.242
42484W        W14799  19.256  33.556  13.046
42485W        W14800   5.823  15.224  13.372
42486W        W14801  32.069   7.856  13.034
42487W        W14802   1.362  41.362  13.966
42488W        W14803  14.171  37.875   2.738
42489W        W14804  22.619  39.053   4.172
42490W        W14805  31.975   1.975  13.817
42491W        W14806   9.383  35.873  11.947
42492W        W14807  15.752  22.193   4.616
42493W        W14808  18.564   1.847  13.033
42494W        W14809  19.613  37.874   3.822
42495W        W14810  23.709  41.296   4.264
42496W        W14811  17.104  14.190  13.861
42497W        W14812  31.016  33.473   4.743
42498W        W14813  24.651  34.004  12.985
42499W        W14814  43.909  15.214  12.466
42500W        W14815  25.136  16.659  11.968
42501W        W14816   2.250   4.853   2.263
42502W        W14817  10.717  15.710  11.420
42503W        W14818  20.688  40.845   2.411
42504W        W14819  30.131  10.810   4.133
42505W        W14820   6.271  18.748  14.857
42506W        W14821  35.914   3.931   1.930
42507W        W14822  43.411  11.673  10.545
42508W        W14823  20.583  31.446  14.459
42509W        W14824  36.494  32.523  11.960
42510W        W14825   3.725  24.642   1.388
42511W        W14826  14.102   8.229  14.974
42512W        W14827  43.852   6.313   1.836
42513W        W14828  13.163  33.570   1.370
42514W        W14829  37.411   7.332   1.260
42515W        W14830  30.127  34.069   2.186
42516W        W14831  41.949   1.403   0.257
42517W        W14832  41.808  40.315   0.860
42518W        W14833  20.127   4.422   4.659
42519W        W14834   6.881   2.876   1.760
42520W        W14835  33.391  25.139  13.957
42521W        W14836   3.769  14.757   3.799
42522W        W14837  25.174  32.581  10.634
42523W        W14838  23.490  25.545   2.814
42524W        W14839   4.699  10.324   4.611
42525W        W14840  36.936  13.343   1.736
42526W        W14841   3.738  11.740   3.759
42527W        W14842  17.066  33.581  11.972
42528W        W14843  35.093  38.074   4.686
42529W        W14844  40.809  11.147  12.385
42530W        W14845  10.702  36.385  10.992
42531W        W14846  28.653  13.235  10.892
42532W        W14847  29.170   6.374  14.456
42533W        W14848  38.024  40.318  12.539
42534W        W14849  35.855  34.588  11.529
42535W        W14850  22.141  14.220  13.806
42536W        W14851   9.343  21.115  13.937
42537W        W14852  28.622  23.134  11.580
42538W        W14853  28.017   4.439   1.924
42539W        W14854   5.309  29.533   4.215
42540W        W14855  27.026  38.957   1.399
42541W        W14856  35.923  20.069  10.642
42542W        W14857  39.987  36.479  13.500
42543W        W14858   4.388  39.030  11.927
42544W        W14859  37.495  43.856  11.075
42545W        W14860  27.565  30.467   4.785
42546W        W14861  35.083  24.721  11.567
42547W        W14862  17.114   4.304   3.849
42548W        W14863  30.074  23.041   3.670
42549W        W14864  33.421  42.292  12.932
42550W        W14865   3.377  22.684  14.376
42551W        W14866  33.576  41.843  11.062
42552W        W14867   1.305  21.135  11.010
42553W        W14868  10.740  31.920   4.636
42554W        W14869  37.962  38.486   1.283
42555W        W14870  37.975  30.435  12.942
42556W        W14871   0.408  13.260  10.110
42557W        W14872   8.854  20.529  11.001
42558W        W14873  43.794  17.179  12.407
42559W        W14874   6.886   2.285   3.685
42560W        W14875  43.371  10.786   2.812
42561W        W14876  10.667  20.161   1.260
42562W        W14877  19.274   6.314  13.908
42563W        W14878   9.305  12.621  11.019
42564W        W14879  44.001   6.301  11.014
42565W        W14880   1.802   9.203   3.313
42566W        W14881  17.761   4.903   3.255
42567W        W14882   9.348  37.963  14.808
42568W        W14883  12.749  36.427  12.924
42569W        W14884  27.622   2.800  14.291
42570W        W14885   1.304  31.085   1.743
42571W        W14886  23.620  17.716  10.511
42572W        W14887  40.944  32.143  11.611
42573W        W14888  21.053  29.100  10.079
42574W        W14889  12.851  31.956  13.406
42575W        W14890  32.119  38.914   0.294
42576W        W14891   6.319  27.619  13.465
42577W        W14892   5.759  30.508  14.797
42578W        W14893  34.404  23.597  12.988
42579W        W14894   8.895   8.812   4.680
42580W        W14895  19.192  16.218  13.805
42581W        W14896  32.966  34.967  13.983
42582W        W14897  24.652  29.543  14.448
42583W        W14898  41.797  40.033   2.749
42584W        W14899  35.881  34.871  11.470
42585W        W14900   0.894  34.056  10.458
42586W        W14901  19.663   0.464   0.370
42587W        W14902  35.410  37.027  12.486
42588W        W14903   0.937  34.112  11.493
42589W        W14904  39.896  27.538   0.789
42590W        W14905  33.437   1.940  11.100
42591W        W14906  30.064  41.373   1.238
42592W        W14907  44.416  44.471  14.291
42593W        W14908  32.611  19.559   1.400
42594W        W14909  23.015   3.853   2.402
42595W        W14910   8.280  23.516  13.849
42596W        W14911   5.932  26.548   1.717
42597W        W14912  33.586  18.112   0.894
42598W        W14913  31.900  13.643   1.380
42599W        W14914  38.396  43.345  10.530
42600W        W14915  16.151  11.316  13.442
42601W        W14916  28.133  26.547  11.599
42602W        W14917  25.699  33.600  12.547
42603W        W14918  32.498  38.070   0.820
42604W        W14919  17.227  33.411   4.339
42605W        W14920  33.620   7.417   3.228
42606W        W14921   1.422  10.748  11.571
42607W        W14922  38.923  39.048  14.468
42608W        W14923   2.876  23.566   1.897
42609W        W14924  23.079   0.954  10.566
42610W        W14925  44.340  20.663   2.687
42611W        W14926  34.108  34.910   2.837
42612W        W14927   1.262  44.305   3.726
42613W        W14928   2.319  38.916   3.750
42614W        W14929  42.888  37.387   3.770
42615W        W14930  38.331  18.178  10.645
42616W        W14931   9.781  16.582  11.473
42617W        W14932  42.948   2.470  13.383
42618W        W14933  15.711   0.463   1.339
42619W        W14934  12.252   9.270   2.668
42620W        W14935  13.697  30.994   2.807
42621W        W14936  16.741  16.211   1.730
42622W        W14937  23.576  37.341  10.639
42623W        W14938  32.049  25.963   1.925
42624W        W14939  30.656  12.779   0.294
42625W        W14940  43.389  23.619  14.854
42626W        W14941   0.783  32.616   4.755
42627W        W14942  18.053  23.096  14.823
42628W        W14943   7.867  12.682   3.170
42629W        W14944  16.182  35.038   0.368
42630W        W14945  22.531  44.498   4.825
42631W        W14946  27.060   6.299   5.574
42632W        W14947   9.847  38.522  12.941
42633W        W14948  28.469  14.817   0.352
42634W        W14949  15.804  35.524  10.901
42635W        W14950  20.701  18.604  13.046
42636W        W14951  38.364  36.930  12.517
42637W        W14952  34.892  33.503   1.420
42638W        W14953  27.948  42.916  14.011
42639W        W14954  22.197  42.780   0.954
42640W        W14955   0.756  17.781   2.735
42641W        W14956  40.930  12.761  13.427
42642W        W14957  27.115   4.230  14.317
42643W        W14958  16.709  28.088   3.776
42644W        W14959  31.491   1.302   0.941
42645W        W14960   4.809  29.030   1.822
42646W        W14961  10.368  33.464  13.422
42647W        W14962  41.298   8.790   2.404
42648W        W14963   9.693   5.319  11.445
42649W        W14964  36.943   5.343  11.390
42650W        W14965  18.097  34.542  10.923
42651W        W14966  32.089  21.523  13.860
42652W        W14967  13.650  38.053   0.470
42653W        W14968  31.999  37.340  14.480
42654W        W14969  28.106  11.231   9.957
42655W        W14970  19.227   3.342  12.086
42656W        W14971  11.752  12.338  13.855
42657W        W14972   9.385  19.665  14.014
42658W        W14973  29.435  23.661  14.291
42659W        W14974  35.041  18.619  14.409
42660W        W14975  29.590   5.910  13.927
42661W        W14976  27.174   4.313   2.704
42662W        W14977  37.339  11.173  13.896
42663W        W14978  21.710   2.354  12.944
42664W        W14979  16.314  14.822   3.305
42665W        W14980  41.904  26.958  11.452
42666W        W14981  25.555   2.463  12.421
42667W        W14982  26.984   5.897   0.456
42668W        W14983  43.960  23.189  12.971
42669W        W14984   9.212  35.507   1.855
42670W        W14985  35.887  32.393  10.947
42671W        W14986  14.246  37.370  11.475
42672W        W14987  12.146  20.689   1.771
42673W        W14988  11.691   9.182   2.791
42674W        W14989  16.593  32.004   0.432
42675W        W14990  27.599   7.306  13.317
42676W        W14991  11.187  29.463  14.383
42677W        W14992  37.017  33.068  12.890
42678W        W14993   7.902  32.014  11.585
42679W        W14994  35.010  42.317  12.384
42680W        W14995  17.246  18.250  10.428
42681W        W14996   7.742  19.679   3.746
42682W        W14997  19.733  23.226  14.901
42683W        W14998  33.876   6.822   0.893
42684W        W14999   3.886  41.943  13.918
42685W        W15000  25.579  28.937   3.688
42686W        W15001  35.594   1.794  14.030
42687W        W15002  22.520   3.251   3.242
42688W        W15003  40.350  44.300  12.514
42689W        W15004  33.506  25.166  12.930
42690W        W15005  40.970  14.172  11.891
42691W        W15006  16.699  23.675   0.880
42692W        W15007   1.961  14.124   4.719
42693W        W15008  16.766  42.017  10.984
42694W        W15009  33.905   2.834   1.732
42695W        W15010  18.604  26.631  14.477
42696W        W15011  18.593  18.683   4.674
42697W        W15012   7.186  42.974   2.698
42698W        W15013   4.374  40.023  12.439
42699W        W15014  29.122  44.856   4.281
42700W        W15015   8.233  22.568  11.121
42701W        W15016  43.798  43.875   3.649
42702W        W15017  40.872   4.775  11.522
42703W        W15018  22.075  15.160   0.378
42704W        W15019  30.931   1.932   4.757
42705W        W15020   3.389  14.802  13.059
42706W        W15021  20.742  42.775   1.400
42707W        W15022  36.845  37.953  14.436
42708W        W15023  32.541  24.209   3.715
42709W        W15024   6.256  31.472   1.725
42710W        W15025   7.353  43.480   0.797
42711W        W15026   4.446  38.413   0.388
42712W        W15027  37.040  42.385   4.236
42713W        W15028  34.894  17.292   3.311
42714W        W15029  18.778  18.626  10.960
42715W        W15030  22.040  43.446  10.534
42716W        W15031  38.044  33.455  14.446
42717W        W15032  11.627  15.605   3.751
42718W        W15033   3.389  19.561   1.837
42719W        W15034  16.171  16.633   4.746
42720W        W15035  37.549  43.957   3.708
42721W        W15036  40.342  15.204  12.529
42722W        W15037  20.633  35.945   4.309
42723W        W15038  17.205   4.313  14.006
42724W        W15039  21.238   3.768  13.941
42725W        W15040  27.028  25.469   2.722
42726W        W15041  15.771  21.102  14.299
42727W        W15042  29.643   6.745  14.967
42728W        W15043  19.697  11.753  13.801
42729W        W15044  38.824  38.823   2.834
42730W        W15045   7.339   4.313   1.435
42731W        W15046  37.989  18.283  13.420
42732W        W15047  15.185  32.063   3.330
42733W        W15048  24.574   5.201   0.464
42734W        W15049  33.885  40.510   2.381
42735W        W15050  12.718   6.243  11.923
42736W        W15051   5.862  39.994  13.484
42737W        W15052  13.799  18.689   1.710
42738W        W15053  28.030  26.026   1.897
42739W        W15054  44.792   9.683   3.264
42740W        W15055   8.287  34.385   4.830
42741W        W15056  26.470   4.908  12.077
42742W        W15057  10.321  40.465  11.409
42743W        W15058  22.223  20.712   9.920
42744W        W15059  27.545   9.262   3.356
42745W        W15060  31.952  32.137  14.832
42746W        W15061  18.703  15.654   4.645
42747W        W15062  43.408  31.433   0.445
42748W        W15063  37.569  28.496  12.019
42749W        W15064   8.284  22.182  11.398
42750W        W15065  15.248  26.491   4.233
42751W        W15066  32.937  11.723   1.313
42752W        W15067  33.930  17.575   2.673
42753W        W15068  34.480  11.329   2.189
42754W        W15069  14.643  14.120   2.387
42755W        W15070  38.864  40.018   3.237
42756W        W15071  25.030   4.728   4.612
42757W        W15072  14.334  40.518   0.955
42758W        W15073  33.886  40.365  11.904
42759W        W15074  18.129  17.695   4.710
42760W        W15075  17.161  33.025  12.352
42761W        W15076  27.644  14.790   0.930
42762W        W15077  25.666   4.235   0.314
42763W        W15078  26.087  27.153   3.377
42764W        W15079  41.893  11.236  13.848
42765W        W15080  27.462  30.999  12.929
42766W        W15081  34.062  44.860  11.579
42767W        W15082   8.872  40.824   1.333
42768W        W15083  30.102  37.062   3.214
42769W        W15084  10.278  25.654  14.419
42770W        W15085  41.858  44.428   4.279
42771W        W15086  19.178   4.808  13.838
42772W        W15087   8.805  28.951  10.430
42773W        W15088  19.134  37.045  10.891
42774W        W15089  42.443  24.165  12.456
42775W        W15090  19.669  31.613   1.935
42776W        W15091  32.531  33.119   1.281
42777W        W15092  43.887  43.295  12.827
42778W        W15093  22.632  12.736   0.353
42779W        W15094   5.692  38.473   1.419
42780W        W15095  27.972  36.050  10.581
42781W        W15096  26.527  43.942   4.333
42782W        W15097  24.211  14.311  11.030
42783W        W15098  19.092  43.774  10.445
42784W        W15099  17.171   6.369  12.866
42785W        W15100   2.374  19.231   4.737
42786W        W15101   3.789  32.448   2.209
42787W        W15102   2.393   7.341  12.829
42788W        W15103  26.623  12.147   3.738
42789W        W15104  12.741  15.715   1.233
42790W        W15105  16.570   1.369   4.254
42791W        W15106   3.778  35.581  11.401
42792W        W15107   4.865   5.743  14.433
42793W        W15108  35.896  30.984   3.178
42794W        W15109  37.079   0.968   1.268
42795W        W15110  41.821  15.226   4.713
42796W        W15111   8.855  27.952   0.869
42797W        W15112  25.634  39.925   2.288
42798W        W15113  34.398   9.818  12.895
42799W        W15114  15.267   9.260  13.058
42800W        W15115   4.370  15.297   1.226
42801W        W15116  21.519  44.482  14.776
42802W        W15117  38.338   4.224  12.957
42803W        W15118  34.931  19.569   4.650
42804W        W15119  35.486   2.738   0.833
42805W        W15120  16.201  33.440   4.290
42806W        W15121  11.365  36.429  11.863
42807W        W15122   4.927  36.385  14.804
42808W        W15123  33.009  34.383  11.001
42809W        W15124  29.575  41.396   3.740
42810W        W15125  15.250  41.801  14.318
42811W        W15126  43.003  43.426   1.276
42812W        W15127  40.054  30.085   2.209
42813W        W15128  39.022  11.675   1.745
42814W        W15129  39.509  39.936  11.957
42815W        W15130  11.776  27.112  12.850
42816W        W15131  27.477   1.477   2.181
42817W        W15132  35.886  37.351  10.929
42818W        W15133  39.551  44.878   1.780
42819W        W15134  32.593  20.170  14.451
42820W        W15135  33.511  35.055   2.683
42821W        W15136   7.735  23.690  12.574
42822W        W15137  15.726  36.055  10.969
42823W        W15138  41.495  21.577   3.198
42824W        W15139  28.001  12.359  11.991
42825W        W15140   7.413  24.038  12.424
42826W        W15141   3.353  20.068  11.981
42827W        W15142  29.486  21.746   0.904
42828W        W15143   8.859  24.086   4.351
42829W        W15144   8.223   0.292  11.435
42830W        W15145  15.786  43.375   1.237
42831W        W15146  25.559  20.590  12.013
42832W        W15147   7.743   1.874   1.881
42833W        W15148  43.348  18.127  12.383
42834W        W15149  41.504  38.065   3.193
42835W        W15150  26.042  26.951  12.077
42836W        W15151   4.448  28.524  10.980
42837W        W15152  19.628   7.369   2.418
42838W        W15153  23.081  22.720   1.321
42839W        W15154  34.393   9.790   1.425
42840W        W15155  18.673  28.647   0.472
42841W        W15156  43.404  32.441   4.622
42842W        W15157  37.536  37.062   3.778
42843W        W15158  23.037  39.361  11.397
42844W        W15159  19.552   5.814  14.369
42845W        W15160  19.635  28.640  14.504
42846W        W15161  27.494   4.944  11.986
42847W        W15162  15.095  27.508  13.969
42848W        W15163  20.241  28.680   0.794
42849W        W15164  26.979  10.859   1.350
42850W        W15165  37.561  12.687  12.868
42851W        W15166  41.337  38.534   0.917
42852W        W15167  31.008  26.560   3.179
42853W        W15168  18.592  31.935   2.312
42854W        W15169  29.494  34.043   3.672
42855W        W15170  36.441  28.991  10.016
42856W        W15171  26.151   0.339  12.018
42857W        W15172  28.591   7.334   1.345
42858W        W15173  43.310  23.549   4.290
42859W        W15174   7.812  30.501  14.388
42860W        W15175   1.945   4.231  12.078
42861W        W15176   5.802  32.635   2.903
42862W        W15177   1.325  23.111   2.864
42863W        W15178  22.746   6.794  10.516
42864W        W15179  38.825  17.198   2.805
42865W        W15180  33.047  13.315   0.353
42866W        W15181  41.524  37.881   3.844
42867W        W15182   1.855  30.052   1.926
42868W        W15183  17.149  10.867   2.380
42869W        W15184  19.057   1.451  13.466
42870W        W15185  44.779  11.217   4.836
42871W        W15186  13.608  16.152   2.687
42872W        W15187   0.982  24.053   4.242
42873W        W15188  32.562  44.899  12.939
42874W        W15189   3.808   2.811   4.679
42875W        W15190   7.284  38.011   2.268
42876W        W15191  14.729   4.731  12.902
42877W        W15192  21.544  12.206   2.411
42878W        W15193  30.995   4.732   0.464
42879W        W15194  35.602  35.523  12.401
42880W        W15195  14.658  16.748   0.272
42881W        W15196  13.123  40.883   3.648
42882W        W15197  38.904  11.692  14.460
42883W        W15198  23.993  31.436  14.414
42884W        W15199  38.492   7.681  12.000
42885W        W15200  14.706  22.172  14.405
42886W        W15201  19.572   1.972  11.446
42887W        W15202  21.713   7.831   3.181
42888W        W15203  36.062  29.559  10.937
42889W        W15204  14.758   9.651  12.895
42890W        W15205  19.233   5.835  10.942
42891W        W15206   2.770  17.069  11.944
42892W        W15207   8.803  15.630  14.310
42893W        W15208  43.440   8.839  13.052
42894W        W15209  39.438  17.094  13.382
42895W        W15210  42.342   8.726   2.729
42896W        W15211   9.299  29.533   0.788
42897W        W15212  36.073  21.612   4.217
42898W        W15213  36.490  28.579   3.719
42899W        W15214  38.015  13.155  10.894
42900W        W15215   0.915  35.432  14.414
42901W        W15216  40.474  44.396   2.187
42902W        W15217  12.288  29.591   1.920
42903W        W15218   6.769  30.606  14.761
42904W        W15219   6.212  17.184   0.742
42905W        W15220   0.470  31.579   0.361
42906W        W15221   4.428  28.945  14.290
42907W        W15222  21.689  20.623   3.858
42908W        W15223   0.439  43.416  13.526
42909W        W15224   4.369   9.198   0.448
42910W        W15225  13.288  20.635   1.446
42911W        W15226  23.491  34.016  11.001
42912W        W15227   4.356   9.308   4.822
42913W        W15228  12.283  19.632   3.217
42914W        W15229  37.541   0.380  11.952
42915W        W15230  22.198  23.019   2.668
42916W        W15231  43.932  12.790  11.990
42917W        W15232  28.538  31.106  13.975
42918W        W15233   6.726  37.929  12.960
42919W        W15234  25.690  11.175   4.293
42920W        W15235  29.046  34.538  10.479
42921W        W15236  14.748   8.185  13.925
42922W        W15237  28.501  35.535   4.737
42923W        W15238  22.521  31.010  13.988
42924W        W15239  40.845  21.646   0.928
42925W        W15240  34.958  43.884   2.698
42926W        W15241  22.621  29.431  10.570
42927W        W15242  35.015  24.186  14.836
42928W        W15243   0.800   0.788   0.359
42929W        W15244  30.023  33.440   4.769
42930W        W15245  14.202   6.822  13.874
42931W        W15246  12.686  25.532  13.469
42932W        W15247  30.548  16.198   2.690
42933W        W15248  17.757  31.498  10.069
42934W        W15249   0.888  43.853   4.180
42935W        W15250  11.354  10.852   2.411
42936W        W15251   8.168  15.746   1.387
42937W        W15252  17.699  20.246  13.486
42938W        W15253  39.814   2.275   3.218
42939W        W15254   2.435  10.700   0.482
42940W        W15255   6.422   8.825  12.928
42941W        W15256  34.956   5.900   4.292
42942W        W15257  43.492  32.991   0.841
42943W        W15258   1.932   0.371  12.378
42944W        W15259  31.637  26.685  11.946
42945W        W15260  41.961   8.875   3.648
42946W        W15261  22.578   7.349  13.368
42947W        W15262  12.218   3.791   4.158
42948W        W15263  15.726   5.312   2.264
42949W        W15264  42.377  30.512   3.303
42950W        W15265  32.564   7.703  12.915
42951W        W15266  11.742  42.954  12.950
42952W        W15267  31.559   4.776   2.824
42953W        W15268  44.861  31.103  12.084
42954W        W15269  11.856  38.538   4.187
42955W        W15270  25.198  34.984   4.202
42956W        W15271  17.649  15.148   4.286
42957W        W15272  15.645  24.484  13.331
42958W        W15273  37.017  15.612  12.941
42959W        W15274  17.568  26.697   0.345
42960W        W15275  30.105  22.080   2.898
42961W        W15276   0.837  42.483   3.793
42962W        W15277  22.627  42.974  11.091
42963W        W15278  44.005  22.565   1.833
42964W        W15279  33.894  31.988   5.239
42965W        W15280  15.233  42.495  12.989
42966W        W15281  29.076  22.738  14.785
42967W        W15282  13.618  11.683  14.952
42968W        W15283   2.732  34.445  10.542
42969W        W15284   0.820   1.856  13.813
42970W        W15285  37.401  40.453  10.917
42971W        W15286  39.041  34.953   0.271
42972W        W15287  26.593   2.345   2.215
42973W        W15288  23.218   5.299   4.715
42974W        W15289  35.958  26.529   3.315
42975W        W15290  35.107  35.462   0.335
42976W        W15291  39.013  20.677   2.210
42977W        W15292  39.916  35.088   1.267
42978W        W15293  11.811  25.663   4.186
42979W        W15294  34.450   3.838  13.793
42980W        W15295   9.765  17.176  13.001
42981W        W15296   8.255  40.985  10.436
42982W        W15297  39.031  33.553  10.084
42983W        W15298  19.677  33.959   3.722
42984W        W15299  31.106   0.384  14.005
42985W        W15300  32.575   9.673  11.967
42986W        W15301  14.624  31.538  14.845
42987W        W15302  33.496  38.516  12.510
42988W        W15303  12.350  19.705   1.220
42989W        W15304  19.174  19.705  11.431
42990W        W15305  10.829  36.450  10.632
42991W        W15306   6.197  23.146  12.524
42992W        W15307   1.751  35.953   2.800
42993W        W15308  33.985   2.405  11.900
42994W        W15309   2.745  12.201   4.304
42995W        W15310   1.258  14.674   2.814
42996W        W15311  34.613  15.094   4.113
42997W        W15312  18.187  33.022  14.997
42998W        W15313   8.889  28.602  10.898
42999W        W15314   5.315  16.738  11.405
43000W        W15315  34.894  36.354  13.395
43001W        W15316  38.551  12.852  10.535
43002W        W15317  35.005  30.121   2.275
43003W        W15318  27.570  10.243  12.986
43004W        W15319   3.906  19.749  13.852
43005W        W15320  31.481  27.114   0.366
43006W        W15321  20.640  43.410   0.454
43007W        W15322   0.382  14.607   3.347
43008W        W15323  32.443  31.436  14.501
43009W        W15324   4.894  22.120   3.214
43010W        W15325  33.130  11.204   2.228
43011W        W15326  11.674   8.891  14.349
43012W        W15327  24.528  22.738  14.803
43013W        W15328   2.364  30.583   1.760
43014W        W15329  32.517   9.187  12.564
43015W        W15330   9.382  17.629   2.249
43016W        W15331  35.956  20.039  14.402
43017W        W15332  36.467   5.782   0.734
43018W        W15333  12.632   0.258   1.243
43019W        W15334  10.240   5.199  10.608
43020W        W15335   5.783  36.037  12.843
43021W        W15336  41.864  34.440  13.046
43022W        W15337  10.211  29.118   4.788
43023W        W15338   5.260  18.567  14.325
43024W        W15339  36.036   2.812  13.966
43025W        W15340  16.196  25.036   4.130
43026W        W15341   8.381  25.022   0.329
43027W        W15342  40.799  30.983  14.330
43028W        W15343  26.504  12.344  13.015
43029W        W15344   2.834  25.093   2.755
43030W        W15345  37.005  14.141   0.264
43031W        W15346  15.726  19.651  14.874
43032W        W15347   0.259  34.514  12.826
43033W        W15348  12.699  31.453  14.955
43034W        W15349  26.125  10.710  11.389
43035W        W15350  14.725  17.211  11.440
43036W        W15351  27.593  18.098   1.390
43037W        W15352  38.010  13.264  12.369
43038W        W15353  12.200  41.432  11.936
43039W        W15354  36.433  17.091  13.362
43040W        W15355  16.581   1.767   4.724
43041W        W15356  43.921  29.116   0.351
43042W        W15357  33.887  39.809   1.243
43043W        W15358   4.377  37.985  14.465
43044W        W15359  25.194  21.129  11.978
43045W        W15360  44.443  15.096  10.474
43046W        W15361  43.350  26.477   4.217
43047W        W15362  22.203  12.189  13.938
43048W        W15363   8.682  30.593   2.270
43049W        W15364  17.278  10.353  12.453
43050W        W15365  31.602  15.619   0.899
43051W        W15366  34.933  22.580   0.277
43052W        W15367  17.203  15.804   4.736
43053W        W15368  30.155  30.981  14.361
43054W        W15369  15.279  32.516  14.437
43055W        W15370  15.306  44.943   2.367
43056W        W15371  28.145   4.826  10.477
43057W        W15372  10.194   8.670   0.310
43058W        W15373  30.092   8.696   3.182
43059W        W15374  13.746  37.974  14.405
43060W        W15375  16.211  31.136   0.434
43061W        W15376  37.364  19.133  12.497
43062W        W15377  26.586  27.460  10.472
43063W        W15378   2.329  16.722   1.392
43064W        W15379   4.713  39.883  12.008
43065W        W15380  41.020  36.993  13.364
43066W        W15381   3.398  39.880   4.688
43067W        W15382  26.081  34.084  12.568
43068W        W15383  16.258  18.712   2.217
43069W        W15384  21.557  44.313   0.948
43070W        W15385  40.371  11.269  14.767
43071W        W15386  15.247  35.362  13.017
43072W        W15387  19.579  17.625   4.704
43073W        W15388   3.813   9.254   2.681
43074W        W15389  19.153  25.584  14.324
43075W        W15390  18.691  25.697   2.716
43076W        W15391  35.510  19.718   0.372
43077W        W15392  40.373   3.736   1.351
43078W        W15393  44.957   7.761   4.215
43079W        W15394  23.664  20.229   0.286
43080W        W15395  34.096  10.234  12.072
43081W        W15396  33.416   9.177   0.800
43082W        W15397  43.447  44.907  13.493
43083W        W15398   1.282  40.523   3.650
43084W        W15399  38.477  23.173  14.499
43085W        W15400   9.392  13.245   4.124
43086W        W15401  10.280  44.788   0.749
43087W        W15402  30.021   4.421  14.831
43088W        W15403   0.478   2.453  11.112
43089W        W15404  24.582  29.568   3.783
43090W        W15405  22.121  10.863  14.494
43091W        W15406  40.407  25.059   4.292
43092W        W15407  10.327  40.956   4.649
43093W        W15408  42.923  12.122  13.520
43094W        W15409   4.850  33.060  10.516
43095W        W15410   2.856  18.741   2.730
43096W        W15411   2.806  10.845  13.953
43097W        W15412  28.001  14.145   0.853
43098W        W15413  36.962   2.269   3.158
43099W        W15414  32.559  19.166   0.745
43100W        W15415  10.156  42.414  12.060
43101W        W15416  32.037  14.216   1.930
43102W        W15417  18.556   0.441   4.345
43103W        W15418  29.509   2.351   3.246
43104W        W15419  24.005  43.331   1.929
43105W        W15420  19.118  38.916   5.745
43106W        W15421  16.236  42.413   4.140
43107W        W15422  41.861  19.538   1.710
43108W        W15423   5.795  14.110   0.939
43109W        W15424   1.289  27.955  12.043
43110W        W15425   5.806  16.763   4.175
43111W        W15426  29.065  32.613  14.300
43112W        W15427  17.292  25.984  14.951
43113W        W15428  14.309  34.598  12.420
43114W        W15429  39.988  17.616  12.877
43115W        W15430  19.139  11.172   5.753
43116W        W15431  21.215   8.717   3.271
43117W        W15432  42.831  11.373   2.320
43118W        W15433  43.450  21.083  13.937
43119W        W15434  40.404  33.518   1.713
43120W        W15435   2.871  26.472   0.444
43121W        W15436  10.864   4.435   1.849
43122W        W15437   7.724  16.753  11.384
43123W        W15438   5.870  22.124   1.443
43124W        W15439  23.087   6.686   1.934
43125W        W15440  26.187  21.072  11.107
43126W        W15441  29.151  26.645  11.039
43127W        W15442   0.917  17.600   4.686
43128W        W15443  15.724  35.969   1.776
43129W        W15444  20.694  22.038   2.182
43130W        W15445  31.607  40.503  14.359
43131W        W15446  13.194  36.916   1.416
43132W        W15447  33.387  25.473   3.155
43133W        W15448  12.738   1.253  10.554
43134W        W15449  17.073   8.173  14.471
43135W        W15450   8.314  44.476  13.035
43136W        W15451  26.153  34.435   0.477
43137W        W15452  17.090  12.842   1.370
43138W        W15453  30.462   8.272  10.564
43139W        W15454  36.870  26.970   2.188
43140W        W15455  27.186   9.668  10.423
43141W        W15456  24.158   6.763  11.591
43142W        W15457  20.539  35.866   1.426
43143W        W15458   8.879  35.021  14.822
43144W        W15459  30.647  23.546   3.299
43145W        W15460  38.874  13.108   4.598
43146W        W15461  40.901  25.160  11.610
43147W        W15462   4.207  40.933   2.742
43148W        W15463  39.990  43.021   2.285
43149W        W15464  14.662  32.622  14.495
43150W        W15465  28.517  15.672   1.223
43151W        W15466  41.400  26.068  11.609
43152W        W15467   5.930   9.240  13.951
43153W        W15468  40.462  17.184  14.939
43154W        W15469  38.927  33.497   0.840
43155W        W15470  14.169  31.633  10.438
43156W        W15471  16.203  11.819  11.024
43157W        W15472  40.422  40.371  14.994
43158W        W15473  34.012  31.643  14.026
43159W        W15474  28.992  21.551   2.862
43160W        W15475  36.996   0.980  14.423
43161W        W15476  21.514  35.569   1.849
43162W        W15477  33.462  39.405  12.572
43163W        W15478  23.627  28.187   4.147
43164W        W15479  17.195  23.516  13.041
43165W        W15480  38.553   7.810   4.298
43166W        W15481   6.305  39.351   1.389
43167W        W15482  31.406  19.096   4.130
43168W        W15483  24.155   2.417  14.449
43169W        W15484  39.495   7.246   3.316
43170W        W15485  10.730  10.366  13.810
43171W        W15486  29.123  13.187  12.832
43172W        W15487  26.659   0.972   1.285
43173W        W15488   2.867   4.913  10.940
43174W        W15489  10.350   0.400  10.444
43175W        W15490  39.932  38.862   4.808
43176W        W15491  37.999  22.185  14.323
43177W        W15492  31.090  26.643   4.254
43178W        W15493  32.420  28.677  13.401
43179W        W15494  27.152  14.688  14.991
43180W        W15495   2.764  29.424  14.476
43181W        W15496  39.451   1.824   2.829
43182W        W15497  26.604  39.056  13.987
43183W        W15498  35.039   9.155  14.007
43184W        W15499  17.293  11.213  13.829
43185W        W15500  29.093  28.483  13.940
43186W        W15501   0.913   5.296  11.935
43187W        W15502  37.050  16.714   4.330
43188W        W15503   6.815  42.999  11.428
43189W        W15504  23.054  19.267   5.124
43190W        W15505  12.801   4.222  12.549
43191W        W15506   0.769   8.663  11.403
43192W        W15507  12.768  43.848  11.984
43193W        W15508   8.719  22.209  14.410
43194W        W15509  14.159  12.321   2.248
43195W        W15510   2.277  10.781  11.872
43196W        W15511  30.974  33.392  11.919
43197W        W15512   6.362  27.603   2.662
43198W        W15513   7.678   7.851   1.428
43199W        W15514  43.395   2.765  12.870
43200W        W15515  40.900  14.233  13.004
43201W        W15516  36.083  42.397   2.827
43202W        W15517  16.795  20.745   4.293
43203W        W15518  30.978   5.354   0.768
43204W        W15519  41.503   3.732   2.738
43205W        W15520  12.139  19.283  14.895
43206W        W15521  29.146   9.151   2.726
43207W        W15522  32.911  23.044   3.339
43208W        W15523  20.560  38.459   1.243
43209W        W15524  40.899  16.739  12.483
43210W        W15525  25.097  35.473  13.966
43211W        W15526  18.072  19.631   1.361
43212W        W15527  20.154   3.725  10.608
43213W        W15528  29.453  40.851  10.925
43214W        W15529  43.402  10.641   3.637
43215W        W15530   8.842  41.411   2.896
43216W        W15531  43.391  18.096  11.433
43217W        W15532  26.542  18.102   2.287
43218W        W15533  14.598  22.995   4.743
43219W        W15534  26.146  27.968   3.663
43220W        W15535  28.534  11.679   0.877
43221W        W15536  44.420   7.886  12.474
43222W        W15537  29.511  32.505  12.004
43223W        W15538  36.536  18.583   1.754
43224W        W15539   3.382  11.258  13.963
43225W        W15540  25.472  12.173   4.287
43226W        W15541  30.640  33.494   5.274
43227W        W15542  31.987  11.656   0.854
43228W        W15543  23.092  22.192   5.140
43229W        W15544  28.975  39.397  10.470
43230W        W15545  19.602  34.435  11.987
43231W        W15546  44.491  29.920  13.522
43232W        W15547  18.075  17.155  14.799
43233W        W15548  30.953  23.579  12.041
43234W        W15549  22.669   0.398  13.499
43235W        W15550  25.071   6.204  12.063
43236W        W15551  31.919  43.978   0.750
43237W        W15552  17.713  15.652   2.287
43238W        W15553   2.317   2.264   3.158
43239W        W15554  35.019  21.086  12.340
43240W        W15555  37.903  29.935   4.691
43241W        W15556  32.109  26.972  11.859
43242W        W15557  11.160  28.459  11.951
43243W        W15558   0.461  41.305   2.227
43244W        W15559  20.562  26.956   4.227
43245W        W15560  31.910  44.388   5.285
43246W        W15561   6.880  37.997   1.868
43247W        W15562   5.843  29.011   0.425
43248W        W15563  18.723  11.363  11.869
43249W        W15564  38.848   3.392   0.779
43250W        W15565  44.489  42.821   4.280
43251W        W15566  22.191  42.908   1.235
43252W        W15567   6.768  23.127  11.994
43253W        W15568   6.719  15.595   0.808
43254W        W15569   1.912  40.921  10.921
43255W        W15570  33.582  34.447  13.798
43256W        W15571  38.562   1.311   4.291
43257W        W15572  40.469  31.575   3.791
43258W        W15573  18.112  39.840   0.786
43259W        W15574   9.651  27.133  11.393
43260W        W15575   6.302   6.710   1.903
43261W        W15576  13.764  32.415  10.497
43262W        W15577  17.598  13.350   0.415
43263W        W15578  28.112   0.362  13.530
43264W        W15579  42.871  23.035  11.497
43265W        W15580  32.435  25.049   2.322
43266W        W15581  43.435  27.549  13.955
43267W        W15582   9.776   3.784   1.409
43268W        W15583  44.856  21.516  12.932
43269W        W15584  22.566   1.304   2.353
43270W        W15585  14.662  15.755   3.348
43271W        W15586  43.322  34.451   4.264
43272W        W15587  29.161  43.281   1.286
43273W        W15588  22.111   7.860  10.405
43274W        W15589  42.520   8.303  13.512
43275W        W15590  15.728  14.742  13.352
43276W        W15591   4.831  23.656  14.413
43277W        W15592  24.146  12.341  10.574
43278W        W15593  33.991  20.575   0.347
43279W        W15594  27.555  31.128   2.328
43280W        W15595  36.592   0.924  10.550
43281W        W15596  37.892   6.749  11.987
43282W        W15597  22.137  31.019   2.389
43283W        W15598  33.980   9.713   4.238
43284W        W15599  20.223  44.892   1.280
43285W        W15600  15.208  18.269  10.565
43286W        W15601  42.934  40.876   4.143
43287W        W15602   7.868  18.552  11.930
43288W        W15603  35.067   8.740   2.186
43289W        W15604  12.272  11.221   3.356
43290W        W15605  12.252  13.641  10.470
43291W        W15606  19.726  42.522  13.815
43292W        W15607  12.656  35.072  13.434
43293W        W15608  10.799  36.980   4.785
43294W        W15609   0.744  24.542   2.240
43295W        W15610  19.685   9.324  11.517
43296W        W15611   6.853  31.919   0.365
43297W        W15612   8.393  17.199   0.961
43298W        W15613  42.446  41.991  14.862
43299W        W15614  20.765  44.854  12.904
43300W        W15615  20.172  13.285   1.769
43301W        W15616   2.889  28.172  14.356
43302W        W15617   3.458  21.190   5.282
43303W        W15618  17.765  28.519   1.417
43304W        W15619  24.496  44.883  13.440
43305W        W15620  13.265  36.028   3.712
43306W        W15621   5.438  35.415  10.957
43307W        W15622  36.856  11.245  13.849
43308W        W15623  32.462  10.684   3.671
43309W        W15624   0.946  27.455  12.865
43310W        W15625  27.046  10.278   2.726
43311W        W15626   1.273  10.165   2.386
43312W        W15627  24.005  44.259  10.136
43313W        W15628  38.052   6.232   0.815
43314W        W15629  39.898   3.428   2.182
43315W        W15630  31.557  39.547   2.851
43316W        W15631  12.751   1.403   3.382
43317W        W15632   1.793   0.803   1.248
43318W        W15633  27.554  31.597  12.480
43319W        W15634  35.930  18.167   2.666
43320W        W15635  28.956   3.745  11.924
43321W        W15636  39.520  38.000  13.308
43322W        W15637  34.554   9.351   0.290
43323W        W15638   7.828  36.450  11.896
43324W        W15639  12.343  38.428   3.346
43325W        W15640  11.289  26.520   1.334
43326W        W15641   9.204  16.145   1.706
43327W        W15642  41.865  24.110   3.324
43328W        W15643   7.907  34.607  11.555
43329W        W15644  19.564  13.338  14.402
43330W        W15645  34.500   2.277   3.675
43331W        W15646   2.469   6.380   3.664
43332W        W15647  39.048  37.007   1.699
43333W        W15648  40.411  31.526   0.338
43334W        W15649  33.407  16.233   4.303
43335W        W15650  11.209  34.524   4.249
43336W        W15651  21.599  26.662  11.040
43337W        W15652  19.752   7.205   4.621
43338W        W15653   6.897  31.545  13.048
43339W        W15654   8.389  44.963  11.050
43340W        W15655  10.726  26.069  11.431
43341W        W15656  23.083  26.634   3.686
43342W        W15657   4.309   9.653   2.188
43343W        W15658   1.414  19.756   3.769
43344W        W15659  26.547  24.639   2.833
43345W        W15660  33.937  22.642   4.150
43346W        W15661  34.086  22.746   0.789
43347W        W15662  11.805  32.027   5.302
43348W        W15663  21.723  21.618  12.934
43349W        W15664   7.796  41.815  14.493
43350W        W15665  42.016  11.338   0.921
43351W        W15666  36.002  15.710   0.319
43352W        W15667   5.731  29.663  10.915
43353W        W15668   4.299  22.700   2.349
43354W        W15669  14.264  41.036   0.360
43355W        W15670   7.255  14.717   3.258
43356W        W15671  43.018  42.023  14.499
43357W        W15672  12.848  14.736  12.459
43358W        W15673  12.328  37.936  14.290
43359W        W15674  22.571  26.545  10.070
43360W        W15675   7.790  30.599  14.839
43361W        W15676   1.820  32.391   3.232
43362W        W15677  41.928  23.560  12.040
43363W        W15678   2.306  21.139  14.338
43364W        W15679  42.888  14.227   3.176
43365W        W15680  38.903   3.339   2.770
43366W        W15681  34.070  20.267   1.855
43367W        W15682  44.814  29.503  13.022
43368W        W15683  43.879  25.170  14.979
43369W        W15684  17.104  34.387   0.331
43370W        W15685  33.465  12.710   2.261
43371W        W15686  31.466  19.265   0.850
43372W        W15687   7.271  44.421   4.781
43373W        W15688  19.258  33.539   2.350
43374W        W15689   6.723  36.430   2.785
43375W        W15690  39.886   7.253   1.721
43376W        W15691   2.805  25.144  14.364
43377W        W15692   1.270  33.964  10.409
43378W        W15693  44.907  15.186   1.697
43379W        W15694  37.027  26.477  12.551
43380W        W15695  28.040  40.528  12.892
43381W        W15696  40.322  28.105  11.475
43382W        W15697  43.975  35.455  10.603
43383W        W15698  21.204  16.623   2.859
43384W        W15699  37.428  15.691   0.467
43385W        W15700  21.539  22.181   4.700
43386W        W15701  31.030  23.078   3.731
43387W        W15702  17.651   9.232  10.531
43388W        W15703  39.019  28.598   0.454
43389W        W15704  21.193  21.605  14.846
43390W        W15705  29.026   4.799   3.196
43391W        W15706  31.609  29.601  13.990
43392W        W15707  24.660  34.588  14.388
43393W        W15708   9.882   9.725  13.325
43394W        W15709   1.327   4.381  11.458
43395W        W15710  16.644  12.836  14.993
43396W        W15711  27.603  15.653  10.564
43397W        W15712  43.330  37.508  12.432
43398W        W15713  14.109  29.634  14.786
43399W        W15714   6.692   2.748  11.043
43400W        W15715  41.917  10.228   9.965
43401W        W15716  24.511   5.397  11.540
43402W        W15717  41.920  18.222   2.810
43403W        W15718  18.784  14.273  12.993
43404W        W15719  27.962  35.523  10.450
43405W        W15720  26.651  44.010   3.326
43406W        W15721  26.655  21.138  13.926
43407W        W15722  15.647   5.265  12.468
43408W        W15723  11.853   4.392  13.956
43409W        W15724  25.651   2.426   3.355
43410W        W15725  30.947  39.814  14.799
43411W        W15726  40.522  21.119   0.392
43412W        W15727  32.899  19.101   3.225
43413W        W15728  14.101   3.845   0.437
43414W        W15729  41.022  26.135  14.819
43415W        W15730  18.624   1.461  12.565
43416W        W15731  41.787  32.929  13.812
43417W        W15732   1.976  11.808   2.323
43418W        W15733  13.667  33.939  13.917
43419W        W15734  42.485   0.451   1.761
43420W        W15735  22.168  23.667  12.492
43421W        W15736  10.865  15.641   2.815
43422W        W15737  38.994  24.052   2.224
43423W        W15738   9.725  42.855  12.401
43424W        W15739  29.068  28.437  11.454
43425W        W15740  25.580  32.032   1.771
43426W        W15741  13.745  42.302  11.611
43427W        W15742  12.730   6.766   1.773
43428W        W15743  38.509   6.295  12.556
43429W        W15744  34.920  23.550   3.150
43430W        W15745  32.440  26.038  13.512
43431W        W15746  30.078  30.555   3.159
43432W        W15747  22.060  13.720   0.778
43433W        W15748  28.440   2.308  10.634
43434W        W15749  40.509  23.498  10.037
43435W        W15750  22.101  42.025  11.449
43436W        W15751  31.485  44.943   4.203
43437W        W15752   9.856  27.666   2.853
43438W        W15753  41.430   9.342  12.368
43439W        W15754  30.584  30.125   2.797
43440W        W15755  28.592  30.159   3.154
43441W        W15756  35.991  10.324  11.008
43442W        W15757  32.411  20.170  13.045
43443W        W15758  43.791  31.427   3.654
43444W        W15759  30.628   6.337   4.277
43445W        W15760  31.037   7.299   2.680
43446W        W15761  24.975  29.146  11.602
43447W        W15762  24.532  28.554  11.419
43448W        W15763  40.803  33.492  13.392
43449W        W15764  29.551  33.386  13.873
43450W        W15765  23.503  14.139   0.929
43451W        W15766  24.091  26.694   0.325
43452W        W15767   1.831  26.126  12.880
43453W        W15768  25.139  10.726   0.845
43454W        W15769  39.427  29.939   4.201
43455W        W15770   1.244  11.295  13.911
43456W        W15771  12.733  30.485  13.803
43457W        W15772  26.143  30.119  12.995
43458W        W15773  14.114  43.320   3.323
43459W        W15774  41.927  43.004  12.398
43460W        W15775   7.766  10.703  12.531
43461W        W15776  38.532   7.770   1.824
43462W        W15777  30.007  36.014   3.174
43463W        W15778  43.454  35.430  14.874
43464W        W15779  40.853   2.746   1.798
43465W        W15780  17.581  12.255  11.431
43466W        W15781   5.295   0.373   2.840
43467W        W15782  10.195  32.999  10.474
43468W        W15783  25.602  27.051  14.786
43469W        W15784  15.085  16.196  10.993
43470W        W15785  10.708   9.729  12.091
43471W        W15786  31.053  39.844  11.454
43472W        W15787  19.735  20.197   3.730
43473W        W15788   2.462  37.465   3.219
43474W        W15789  20.769  39.317  11.475
43475W        W15790  36.910  26.468  12.949
43476W        W15791  27.092  21.705   2.692
43477W        W15792  38.820   9.836  10.924
43478W        W15793   9.737   5.838   3.856
43479W        W15794  22.243  35.011  14.958
43480W        W15795  32.404  34.090  10.435
43481W        W15796  27.507   2.905   3.200
43482W        W15797   5.889  19.687  14.964
43483W        W15798   5.236  11.255   2.703
43484W        W15799   2.427  23.616   5.112
43485W        W15800   7.720  36.434   1.810
43486W        W15801   8.896  39.877   1.718
43487W        W15802   6.780   0.814  12.004
43488W        W15803   9.714  38.378  13.511
43489W        W15804   3.308  26.634  11.436
43490W        W15805  10.642  26.535   1.782
43491W        W15806  38.547  19.712  13.325
43492W        W15807   0.302  32.952   3.854
43493W        W15808  21.073  16.629  11.529
43494W        W15809  20.109   8.818  10.971
43495W        W15810  29.441  19.729  13.015
43496W        W15811  27.678  37.962   1.327
43497W        W15812  43.786  22.710   2.191
43498W        W15813   8.265   0.896  12.489
43499W        W15814  42.999  21.540  11.427
43500W        W15815  11.237  32.943   0.960
43501W        W15816  19.585   7.415   1.914
43502W        W15817  24.101  40.488   0.934
43503W        W15818  25.511  11.708  12.850
43504W        W15819  33.982   8.718  11.865
43505W        W15820  36.070  30.103   3.675
43506W        W15821  36.024  15.201  13.979
43507W        W15822  32.037  18.172   4.131
43508W        W15823  44.893   5.927  12.914
43509W        W15824  38.995  18.675   2.791
43510W        W15825  26.044  20.058   1.711
43511W        W15826  28.490  12.659   3.157
43512W        W15827   0.781  16.092  10.977
43513W        W15828  36.487  29.048   4.812
43514W        W15829  18.761  35.097  12.849
43515W        W15830  38.336  37.830   3.803
43516W        W15831  11.798   1.775   4.223
43517W        W15832  25.028   9.385   4.275
43518W        W15833  22.235  31.531   4.632
43519W        W15834  31.441  29.986  10.497
43520W        W15835  19.620  18.270   3.732
43521W        W15836  32.562  30.121   1.236
43522W        W15837   8.301  29.056   0.909
43523W        W15838  20.237   5.797   4.657
43524W        W15839  21.166  15.159   1.219
43525W        W15840   0.909  44.842  11.855
43526W        W15841  41.014   8.706  14.011
43527W        W15842  29.091  14.695  12.985
43528W        W15843  20.044  39.810  12.417
43529W        W15844  21.705  23.006   1.279
43530W        W15845  32.611  39.365  10.456
43531W        W15846   0.283  14.769   3.644
43532W        W15847   0.793  16.737  11.439
43533W        W15848  30.160   7.322   3.348
43534W        W15849  24.993   1.863   2.219
43535W        W15850  37.859  19.252  14.295
43536W        W15851   4.919   0.777  12.015
43537W        W15852  43.388  29.468   2.218
43538W        W15853  27.079  14.246   2.196
43539W        W15854  32.001   6.339  12.501
43540W        W15855   5.324  14.173   0.402
43541W        W15856  13.244  37.886  12.975
43542W        W15857   6.245  10.796  10.950
43543W        W15858  44.319   2.770   0.428
43544W        W15859  12.142  14.338   4.634
43545W        W15860  32.609  37.926  14.463
43546W        W15861  44.811  44.404  13.950
43547W        W15862   4.894  44.472   2.277
43548W        W15863  34.042  10.665  11.036
43549W        W15864  36.432  18.617   0.884
43550W        W15865   5.920  28.438   2.300
43551W        W15866  43.856  10.189   4.130
43552W        W15867  23.642  29.666  13.339
43553W        W15868   5.884  43.433  10.499
43554W        W15869  42.954   4.811  11.058
43555W        W15870   8.166  40.537   1.814
43556W        W15871  10.317  33.095   1.362
43557W        W15872  14.337  11.305   0.947
43558W        W15873   4.823  25.117  14.353
43559W        W15874  11.791  39.848  14.317
43560W        W15875   1.447  43.317  13.061
43561W        W15876  35.973  34.120  13.984
43562W        W15877   6.310  18.765   4.673
43563W        W15878   4.914  22.727  12.032
43564W        W15879  17.759   8.220   4.206
43565W        W15880  17.183  35.418   0.285
43566W        W15881  32.989  20.619  12.079
43567W        W15882   5.742   4.776  10.527
43568W        W15883  33.550   1.944  10.543
43569W        W15884  20.685   3.889  13.443
43570W        W15885  26.542   4.721   3.658
43571W        W15886  29.132  41.484  14.830
43572W        W15887  12.774  27.947  14.979
43573W        W15888  40.384  19.203  11.915
43574W        W15889  38.475  22.049   4.320
43575W        W15890   3.292  28.148  10.947
43576W        W15891  37.887  17.671   2.412
43577W        W15892  36.959  10.360   4.276
43578W        W15893  33.996  28.438   2.409
43579W        W15894   7.801  36.363   2.725
43580W        W15895  27.509  30.443  10.145
43581W        W15896  40.826  30.023   3.231
43582W        W15897  31.904  19.099   4.661
43583W        W15898  39.376  41.793   2.734
43584W        W15899  17.102  10.304   3.692
43585W        W15900  20.759  23.631   0.885
43586W        W15901   9.667  13.749  11.124
43587W        W15902   9.373  18.743   4.658
43588W        W15903  12.624  44.852  14.866
43589W        W15904   7.387  16.138   3.632
43590W        W15905  39.507  16.135   0.916
43591W        W15906  42.482  40.903   0.361
43592W        W15907   5.370   9.755   2.829
43593W        W15908   2.311  40.840   1.409
43594W        W15909  19.107   2.301   3.792
43595W        W15910  23.640   7.819   3.739
43596W        W15911   7.857   3.922   4.245
43597W        W15912  30.147  19.541  11.509
43598W        W15913   7.682  21.611  14.767
43599W        W15914  25.178  36.570  11.397
43600W        W15915   8.358  11.716  11.950
43601W        W15916   0.483   9.664   0.790
43602W        W15917   1.915  25.582   3.832
43603W        W15918  20.136  29.164   4.123
43604W        W15919  28.943  25.595   4.326
43605W        W15920  26.139  10.197   4.734
43606W        W15921  10.354   2.322  10.573
43607W        W15922   8.881  13.226   1.834
43608W        W15923   4.269  30.499  11.969
43609W        W15924  34.485  42.433   2.393
43610W        W15925  25.214  21.554  14.022
43611W        W15926  22.196  26.678   2.835
43612W        W15927  13.834  44.771  14.850
43613W        W15928  21.536  36.934  14.316
43614W        W15929   7.279  38.990  13.905
43615W        W15930  16.264  16.123  12.880
43616W        W15931  21.084  30.949   1.837
43617W        W15932  31.598  22.167   4.269
43618W        W15933  21.057  37.366  10.563
43619W        W15934   5.302  27.948   3.277
43620W        W15935  12.771   7.728  12.873
43621W        W15936  27.133   9.194   2.872
43622W        W15937   6.765   5.790   2.360
43623W        W15938  14.665   2.722  13.954
43624W        W15939  14.611  23.606  11.409
43625W        W15940  32.139  11.744  10.474
43626W        W15941  19.562   4.375   0.822
43627W        W15942  32.411  18.669   2.327
43628W        W15943   9.743   5.395  12.009
43629W        W15944  15.603  30.598   1.855
43630W        W15945   1.300   9.262   2.798
43631W        W15946   6.717   9.735   1.329
43632W        W15947   6.820  16.166   2.678
43633W        W15948  28.975  27.468  14.303
43634W        W15949  37.408  32.527  10.601
43635W        W15950  41.042  41.036   2.822
43636W        W15951  24.683  33.098  10.577
43637W        W15952  27.641  36.941  13.852
43638W        W15953  38.372   8.775   1.227
43639W        W15954  30.423  14.697  14.413
43640W        W15955  22.505   6.767  12.032
43641W        W15956  43.270   1.395  10.564
43642W        W15957  12.362  40.933  13.907
43643W        W15958  29.466  15.310   3.727
43644W        W15959   9.225  11.727   4.803
43645W        W15960  28.538  12.357   1.397
43646W        W15961  23.721  28.480  12.365
43647W        W15962  43.991  12.655   1.882
43648W        W15963   3.881   6.684  12.432
43649W        W15964  40.505  28.975  10.114
43650W        W15965  32.530   0.300  10.896
43651W        W15966  29.121   2.800  14.929
43652W        W15967  16.680  35.390   3.783
43653W        W15968  12.277   3.237  14.907
43654W        W15969   0.832  27.049   3.640
43655W        W15970  15.654  37.578   1.401
43656W        W15971  14.160  39.539   4.136
43657W        W15972  27.501   0.256   0.477
43658W        W15973   6.688   8.321  13.314
43659W        W15974  17.147  13.272   2.738
43660W        W15975  11.192  32.540   3.296
43661W        W15976   2.283  28.181   9.921
43662W        W15977  24.121  12.650   9.944
43663W        W15978   6.749  25.645   2.895
43664W        W15979   8.866  23.660  14.820
43665W        W15980  22.041   9.189  11.571
43666W        W15981  25.566  14.205  14.971
43667W        W15982   1.944  26.685  14.477
43668W        W15983  31.558  12.652   4.709
43669W        W15984   2.370   9.800   3.258
43670W        W15985  27.506   9.749  14.002
43671W        W15986   2.253   8.817  13.886
43672W        W15987  40.452  44.800  13.803
43673W        W15988  26.069   6.734  10.149
43674W        W15989   6.836  41.792  14.027
43675W        W15990  44.388  26.653  12.580
43676W        W15991  43.803   4.918  11.456
43677W        W15992   4.876  13.232  14.863
43678W        W15993  18.142  25.668   3.361
43679W        W15994  43.975  13.802   4.795
43680W        W15995  29.599  11.253   0.964
43681W        W15996   3.778  21.532   3.234
43682W        W15997  43.379  44.260  11.605
43683W        W15998  15.582   8.779   1.784
43684W        W15999  11.230  29.521  13.856
43685W        W16000  39.914  25.564  10.911
43686W        W16001  28.949  18.052   4.174
43687W        W16002  22.074   8.669  12.514
43688W        W16003  35.907  31.444  13.513
43689W        W16004  40.364  25.068   9.483
43690W        W16005   9.878  33.507   3.645
43691W        W16006  11.858  27.187   4.202
43692W        W16007  28.178  11.647   0.254
43693W        W16008  33.496  24.019   4.128
43694W        W16009  28.518  19.158   2.697
43695W        W16010   6.371  38.054  12.022
43696W        W16011   9.828  33.411  11.381
43697W        W16012  44.879  32.892  10.462
43698W        W16013  44.978  20.190   1.696
43699W        W16014  39.388   9.658  13.003
43700W        W16015  14.273  42.941  14.386
43701W        W16016  32.093  11.199  14.904
43702W        W16017  26.994  17.575  14.454
43703W        W16018  42.299  26.957   1.285
43704W        W16019   8.719  18.559   4.687
43705W        W16020   6.227  21.557  12.895
43706W        W16021   7.900   8.783  12.918
43707W        W16022  24.145  21.167  12.571
43708W        W16023  36.523  24.050  14.277
43709W        W16024  29.141  32.406  11.862
43710W        W16025  19.155   2.731   4.223
43711W        W16026  37.989  25.159   2.759
43712W        W16027  40.041  12.158   4.814
43713W        W16028  23.045  40.415   3.785
43714W        W16029  11.727   7.308   1.322
43715W        W16030  13.152  31.986   5.240
43716W        W16031  12.362   2.905  14.496
43717W        W16032  19.115  17.641   1.766
43718W        W16033   1.310  17.602  12.058
43719W        W16034   5.344   5.908  13.844
43720W        W16035  28.516  21.223  10.530
43721W        W16036  12.666   0.364   2.376
43722W        W16037  21.141   1.423  10.929
43723W        W16038  23.632  13.245   4.284
43724W        W16039  24.980  12.149  13.914
43725W        W16040  30.097   7.180   2.761
43726W        W16041  38.362  42.288  13.002
43727W        W16042  29.640  27.991  13.792
43728W        W16043  32.439  14.633  13.426
43729W        W16044  10.312   3.766  11.431
43730W        W16045  32.075  41.790   4.659
43731W        W16046  21.550   0.401   1.383
43732W        W16047   1.324  10.256  10.582
43733W        W16048  10.777  29.141   0.343
43734W        W16049  39.518  29.136   0.427
43735W        W16050  42.311   0.278   3.747
43736W        W16051   3.272  14.806  14.851
43737W        W16052  43.515   7.706   2.710
43738W        W16053  23.014  41.506  12.368
43739W        W16054  12.744  26.069   2.325
43740W        W16055  18.745  28.096   2.877
43741W        W16056   2.379  43.375  12.889
43742W        W16057  36.357  40.981   3.798
43743W        W16058  42.349  24.634   0.294
43744W        W16059   3.368  36.513  13.999
43745W        W16060  23.531   7.272  11.114
43746W        W16061  30.611  19.224  13.412
43747W        W16062   1.288  24.081  12.422
43748W        W16063   3.825   5.286   1.437
43749W        W16064   9.315   1.890   4.689
43750W        W16065  40.474   5.888  12.842
43751W        W16066   4.339  12.283   2.855
43752W        W16067   0.421  31.143   1.694
43753W        W16068  40.021  40.372   0.324
43754W        W16069   5.820  27.969   3.728
43755W        W16070  22.514  22.652   3.792
43756W        W16071  26.700  27.101  12.505
43757W        W16072   2.323   5.311   2.833
43758W        W16073  42.940  34.038  11.000
43759W        W16074  22.617   3.859  14.785
43760W        W16075  38.377   1.906   0.878
43761W        W16076  35.505   3.346  11.071
43762W        W16077  43.771  29.473   3.668
43763W        W16078  43.401  16.630   4.657
43764W        W16079  17.645   2.290  11.903
43765W        W16080  40.356  28.515   1.756
43766W        W16081  44.463  12.360   1.432
43767W        W16082  38.020  10.167   0.289
43768W        W16083  16.787  42.794  12.893
43769W        W16084   1.285  21.072   2.772
43770W        W16085  34.434  32.600  11.478
43771W        W16086  10.324  16.789   1.900
43772W        W16087  43.394  29.489   1.398
43773W        W16088  14.806  24.695  11.495
43774W        W16089   5.198   3.273   1.743
43775W        W16090  10.804  36.075   1.420
43776W        W16091  10.724  10.170   2.248
43777W        W16092  37.087   9.195   2.294
43778W        W16093   9.368  24.068  12.476
43779W        W16094  19.061   6.907   3.230
43780W        W16095   0.825  39.551   4.192
43781W        W16096   3.804  16.638   0.389
43782W        W16097  13.694  32.571  14.806
43783W        W16098   9.159  21.637  13.015
43784W        W16099  27.457  37.087  13.490
43785W        W16100   7.733  39.897   0.769
43786W        W16101  20.594  19.724   1.805
43787W        W16102   9.676  17.292  14.287
43788W        W16103  13.687  11.635   0.429
43789W        W16104  19.536  23.581  12.947
43790W        W16105   0.843  14.269  13.401
43791W        W16106  26.583  34.519  10.522
43792W        W16107  31.110  30.479  14.432
43793W        W16108  27.670  22.024   1.313
43794W        W16109  18.565   8.881  10.553
43795W        W16110  12.836  17.685  14.884
43796W        W16111  29.589  13.738  14.966
43797W        W16112  40.476  23.989   4.612
43798W        W16113  43.361   6.770  12.470
43799W        W16114  42.896  44.352   0.818
43800W        W16115  14.130  11.175   3.295
43801W        W16116  31.057  40.914   3.249
43802W        W16117  25.029  36.480   2.297
43803W        W16118  40.893   8.779   0.834
43804W        W16119   8.738  33.047   1.261
43805W        W16120  27.008   5.735   2.218
43806W        W16121  13.674  26.112  11.110
43807W        W16122  44.942   1.475   2.845
43808W        W16123  31.002  12.131  12.529
43809W        W16124   7.368  12.717  10.516
43810W        W16125  33.105  28.055  14.405
43811W        W16126   1.890  44.908   2.287
43812W        W16127  23.229  30.018  13.417
43813W        W16128  37.482  20.604   0.960
43814W        W16129  26.573  11.346   4.602
43815W        W16130   8.734  42.823   5.136
43816W        W16131  26.674  33.001  14.424
43817W        W16132  43.336  40.873  11.086
43818W        W16133   2.868  31.052   3.378
43819W        W16134  35.024  18.791   1.254
43820W        W16135   7.399   1.372   1.275
43821W        W16136  29.435   5.292   2.322
43822W        W16137  17.713  16.163   4.146
43823W        W16138  16.233  35.465   3.352
43824W        W16139  41.501  16.588  13.055
43825W        W16140  31.609  12.221   2.397
43826W        W16141   8.327   5.292   3.214
43827W        W16142  39.411   0.951   3.386
43828W        W16143   5.795  23.657   1.724
43829W        W16144  12.620  27.956   0.782
43830W        W16145  25.000   7.813  14.840
43831W        W16146  10.260  18.224   0.295
43832W        W16147  17.260  28.059  10.419
43833W        W16148  36.369  39.373   3.665
43834W        W16149  11.138  29.149   4.684
43835W        W16150  31.043  43.914  10.405
43836W        W16151  33.593   7.331  13.790
43837W        W16152   0.813   5.396   1.442
43838W        W16153  20.124  32.008  11.530
43839W        W16154  15.775   3.916  12.935
43840W        W16155  13.770  14.180   0.284
43841W        W16156  20.251   9.320   4.669
43842W        W16157  22.163  34.396   1.311
43843W        W16158  32.939  35.412  11.571
43844W        W16159  31.006  39.051   0.479
43845W        W16160  33.001  21.034  13.036
43846W        W16161  24.104  18.763   0.804
43847W        W16162  35.510  32.938  11.505
43848W        W16163   4.333  10.802  10.910
43849W        W16164   8.661  40.988   1.698
43850W        W16165  34.936   4.362  14.771
43851W        W16166  15.593   7.730  13.324
43852W        W16167  31.044  35.905   9.969
43853W        W16168  41.402  32.902  14.877
43854W        W16169   8.225   1.286   2.664
43855W        W16170   1.385  24.979  11.384
43856W        W16171  34.602  10.224   3.374
43857W        W16172  31.407  36.861   3.855
43858W        W16173  21.177  36.866   0.408
43859W        W16174  36.956  30.160   4.687
43860W        W16175  33.541  21.143  14.494
43861W        W16176  13.711   6.914  13.010
43862W        W16177  33.102  36.566  11.598
43863W        W16178   1.408  14.645   3.180
43864W        W16179   2.822  17.190   3.272
43865W        W16180  36.519  34.599  11.388
43866W        W16181  39.809  14.192  14.977
43867W        W16182  28.626  44.009  14.962
43868W        W16183  29.659   6.379  11.107
43869W        W16184  44.314  34.048  14.863
43870W        W16185  25.693  40.313   9.984
43871W        W16186  11.749  11.750   4.307
43872W        W16187  19.599  26.206  11.429
43873W        W16188  43.803  15.172   1.828
43874W        W16189   0.323  24.494  11.593
43875W        W16190  11.216   2.257   0.319
43876W        W16191  43.971  42.926  10.552
43877W        W16192  30.613  19.165  13.912
43878W        W16193  13.246  39.934   4.819
43879W        W16194   6.356   7.205  14.015
43880W        W16195  34.389  22.046   1.214
43881W        W16196  34.926  25.598  12.961
43882W        W16197  30.653  28.595   4.806
43883W        W16198  36.951  41.981   4.717
43884W        W16199  31.951  14.606  11.963
43885W        W16200  26.033   1.420  13.348
43886W        W16201  11.193  36.968  14.895
43887W        W16202  39.019  11.776  13.815
43888W        W16203  33.897  35.426  11.002
43889W        W16204  41.824  27.658  13.520
43890W        W16205   5.807   0.356  13.513
43891W        W16206  29.487  18.636   4.716
43892W        W16207   6.253  38.008   4.808
43893W        W16208  23.609  14.254  13.982
43894W        W16209   6.304  38.826  13.540
43895W        W16210   5.925   7.816   1.322
43896W        W16211  44.871  33.071   0.759
43897W        W16212  23.659   5.817  12.493
43898W        W16213  10.308  18.122   2.380
43899W        W16214  11.809   4.450   0.330
43900W        W16215  28.062  30.957   1.853
43901W        W16216  31.615   2.926   2.835
43902W        W16217  38.990  30.037   3.211
43903W        W16218  15.260  21.042  12.073
43904W        W16219  44.366  12.733   3.244
43905W        W16220   2.730  40.924   3.864
43906W        W16221  17.209  41.915  14.483
43907W        W16222  25.491   7.804  12.530
43908W        W16223  18.739  28.001   2.366
43909W        W16224  26.195  32.898  12.912
43910W        W16225  14.301  30.993   0.477
43911W        W16226   1.737  29.521  11.504
43912W        W16227  33.962  43.902  13.445
43913W        W16228  17.282   9.177   1.249
43914W        W16229  11.334  28.454   1.423
43915W        W16230  14.303  27.583   3.268
43916W        W16231  38.409  21.034   3.200
43917W        W16232  39.031  15.288  13.457
43918W        W16233  29.026  36.857   3.200
43919W        W16234  25.713   8.869  12.066
43920W        W16235   8.275  24.028   0.409
43921W        W16236   1.305  36.528   3.358
43922W        W16237  26.143  27.555  14.013
43923W        W16238  37.401  25.602   9.469
43924W        W16239  17.577  15.278  10.637
43925W        W16240  18.672  26.004   4.801
43926W        W16241  43.492  35.601  12.525
43927W        W16242  36.443   1.400   2.393
43928W        W16243  27.953   0.920  12.092
43929W        W16244  32.610  36.862  13.342
43930W        W16245  44.475   8.821   2.220
43931W        W16246  29.626  32.904   0.800
43932W        W16247  27.002   2.420   1.890
43933W        W16248  16.611  13.610  14.989
43934W        W16249   6.704   5.341   2.832
43935W        W16250  31.513  12.248  11.027
43936W        W16251  34.045   5.755  13.529
43937W        W16252  37.552  15.824   0.798
43938W        W16253  11.781  44.768  14.762
43939W        W16254  39.922  15.194  14.859
43940W        W16255  26.961  28.147   1.816
43941W        W16256  14.228   8.776  12.964
43942W        W16257   6.317  36.461  12.572
43943W        W16258  37.929   8.288  12.386
43944W        W16259  37.854  13.293   0.359
43945W        W16260  19.636  33.420  13.387
43946W        W16261   7.714  44.368  11.086
43947W        W16262  16.303   8.813  13.915
43948W        W16263  25.587   2.373  13.466
43949W        W16264  25.111  34.094  10.151
43950W        W16265   4.393  33.888  13.952
43951W        W16266  16.132  18.553   3.836
43952W        W16267  43.398  12.688  13.016
43953W        W16268  15.602  30.091   1.325
43954W        W16269  33.412  28.638   5.084
43955W        W16270  37.556  26.120  12.001
43956W        W16271  19.774  20.192   4.611
43957W        W16272  38.939   1.272   5.295
43958W        W16273  43.898   7.242   4.184
43959W        W16274   4.411  32.073  12.365
43960W        W16275  17.089  14.731  11.512
43961W        W16276   5.350  29.569  11.530
43962W        W16277  33.518  30.138   4.708
43963W        W16278  26.635  15.636  14.001
43964W        W16279  43.008   3.789   5.267
43965W        W16280  41.507  20.246  10.478
43966W        W16281  11.854  19.260   3.844
43967W        W16282  42.392  44.927  10.938
43968W        W16283  37.980  41.500  14.903
43969W        W16284  20.165  28.676  13.040
43970W        W16285  25.524  38.973  12.545
43971W        W16286  34.923  34.456  11.980
43972W        W16287   6.278  18.561  10.115
43973W        W16288  15.183   8.247   1.927
43974W        W16289  27.022  33.414   4.346
43975W        W16290  30.128  44.390   3.811
43976W        W16291  29.499   4.233  13.951
43977W        W16292  18.119  32.076  12.414
43978W        W16293  16.651  42.916   1.859
43979W        W16294   9.663  39.838   2.859
43980W        W16295  18.703  44.916  13.395
43981W        W16296   8.702  31.633  10.959
43982W        W16297  33.015  37.405  10.943
43983W        W16298  31.033  10.267  12.904
43984W        W16299  22.731  22.673   2.360
43985W        W16300  24.014   1.820  11.428
43986W        W16301  30.021  31.968   5.191
43987W        W16302   4.852  21.030   4.643
43988W        W16303  17.078  24.590  14.765
43989W        W16304  32.424   7.731  11.984
43990W        W16305   7.190  42.900   3.853
43991W        W16306  11.158  33.953  10.612
43992W        W16307  37.050  29.533   0.764
43993W        W16308  43.991  17.257   1.382
43994W        W16309  33.124  22.649   2.818
43995W        W16310  17.143   4.315  14.964
43996W        W16311  44.997   8.799  13.509
43997W        W16312  29.054  39.388  13.984
43998W        W16313  17.272   7.271  13.386
43999W        W16314  15.624  33.092  11.950
44000W        W16315   2.786  43.371   4.175
44001W        W16316  29.661  42.851   0.816
44002W        W16317   2.865  36.368   3.696
44003W        W16318  18.050  19.660  14.390
44004W        W16319  14.122  18.628  12.004
44005W        W16320  26.544  20.719   1.773
44006W        W16321  23.686  21.637   5.733
44007W        W16322  43.292  16.669  14.821
44008W        W16323  16.767  20.223  13.987
44009W        W16324  36.869  10.189   1.410
44010W        W16325  19.772   7.752  11.472
44011W        W16326  38.366  17.135  11.102
44012W        W16327  36.982  40.533   1.777
44013W        W16328  42.851  13.299  14.847
44014W        W16329  40.806   8.330   1.430
44015W        W16330  11.152  20.736  13.533
44016W        W16331  26.172  11.176   0.333
44017W        W16332  28.444  22.220  11.446
44018W        W16333   0.976  13.833   0.744
44019W        W16334  38.432  10.314   4.712
44020W        W16335   6.727   4.822   1.823
44021W        W16336   2.355  40.859   3.368
44022W        W16337  43.292  22.187   0.463
44023W        W16338  44.388  15.229   2.740
44024W        W16339  13.113  41.318   4.650
44025W        W16340  11.713   7.868   3.294
44026W        W16341  41.846  44.343   0.330
44027W        W16342  12.149   5.710  14.443
44028W        W16343   2.824  43.447  14.812
44029W        W16344   0.768  23.613   2.666
44030W        W16345   4.412  32.404   0.418
44031W        W16346  24.119   2.932   1.233
44032W        W16347  17.237  25.963  12.377
44033W        W16348  39.916   3.909  10.408
44034W        W16349  28.029  30.946   5.284
44035W        W16350  19.076  38.468  11.022
44036W        W16351  38.032  38.344   4.700
44037W        W16352  37.504  28.480   2.756
44038W        W16353  41.999  40.358   0.265
44039W        W16354  41.032  14.271  14.893
44040W        W16355  25.675  39.510  11.392
44041W        W16356   0.330  31.448  13.020
44042W        W16357  27.187  23.709   2.282
44043W        W16358  16.602   8.317   0.245
44044W        W16359  35.375  41.027  10.547
44045W        W16360   1.373  12.700   0.946
44046W        W16361  36.398  10.197   4.631
44047W        W16362  17.252   8.753   1.236
44048W        W16363  19.653  30.004   3.185
44049W        W16364  40.987  20.529   1.221
44050W        W16365  35.563  23.178  12.404
44051W        W16366  16.568  19.771   1.362
44052W        W16367  17.773  31.490   2.357
44053W        W16368  37.071  15.798  13.336
44054W        W16369   1.484  41.940  13.539
44055W        W16370  32.466  37.516   0.903
44056W        W16371   2.255   2.397  13.939
44057W        W16372  28.607   0.930   3.708
44058W        W16373   2.374  35.502   0.430
44059W        W16374  43.375  29.574  11.572
44060W        W16375  16.085   9.326   1.411
44061W        W16376  31.434  20.558  13.541
44062W        W16377   6.313  17.078   1.701
44063W        W16378  12.146  28.955   2.856
44064W        W16379  16.148  27.623   3.251
44065W        W16380  38.055  11.240   3.792
44066W        W16381  30.500  13.298  13.881
44067W        W16382   3.439  11.804   5.136
44068W        W16383  31.056   3.744   2.663
44069W        W16384  34.008  29.586  13.366
44070W        W16385  11.304  11.752  10.888
44071W        W16386   2.259  32.532  10.927
44072W        W16387   1.746   2.809   1.857
44073W        W16388  11.745   5.258   2.398
44074W        W16389  23.038  32.940   3.294
44075W        W16390  36.909  16.236  10.599
44076W        W16391  11.161  12.214   1.879
44077W        W16392  16.077  34.094  12.826
44078W        W16393  23.605  24.171  13.462
44079W        W16394  31.406  43.393  14.012
44080W        W16395  10.300  40.990   2.288
44081W        W16396  44.875  41.297   2.405
44082W        W16397  26.509  15.733  13.434
44083W        W16398   8.405  43.975  13.880
44084W        W16399  37.936  43.418   0.467
44085W        W16400  43.972  36.874   2.788
44086W        W16401  39.473  19.553  11.902
44087W        W16402   1.746  27.146   4.234
44088W        W16403  28.459   6.770  11.037
44089W        W16404  44.359  31.490  10.621
44090W        W16405  14.705  12.235  14.828
44091W        W16406  43.327  11.750   5.315
44092W        W16407  25.083  19.046   3.287
44093W        W16408  30.030  39.955   0.438
44094W        W16409  32.993  44.321   4.149
44095W        W16410   3.273   2.227   1.341
44096W        W16411  31.137  39.875  12.504
44097W        W16412  10.221  15.595  13.481
44098W        W16413  26.207  34.067  13.830
44099W        W16414  28.596  20.207   4.774
44100W        W16415  22.014  29.134  14.454
44101W        W16416  33.983  38.445  12.466
44102W        W16417   7.322  35.472  14.021
44103W        W16418  30.910  27.113  10.939
44104W        W16419  13.333   2.774  12.915
44105W        W16420  23.588  16.653  14.513
44106W        W16421  23.512  31.118  12.901
44107W        W16422   5.336  38.547   3.192
44108W        W16423  38.469  18.621   4.805
44109W        W16424  26.181  12.702  13.806
44110W        W16425  11.323  37.469   0.821
44111W        W16426   7.296  30.451  10.569
44112W        W16427  35.983  18.150  13.320
44113W        W16428  32.451  12.291   1.442
44114W        W16429  23.191  33.067  11.515
44115W        W16430  34.047  20.133  11.487
44116W        W16431  23.998   1.252   2.399
44117W        W16432  21.755  16.700   3.282
44118W        W16433  24.679   7.320  11.111
44119W        W16434   7.864   2.398   3.816
44120W        W16435  14.765   5.797   3.665
44121W        W16436   1.476   2.873   2.242
44122W        W16437  35.524  37.970  14.884
44123W        W16438  20.547   3.306   4.813
44124W        W16439  16.157  24.626   1.743
44125W        W16440  39.505  26.127  10.076
44126W        W16441  31.142  17.177  14.401
44127W        W16442   1.916  40.908  10.412
44128W        W16443  17.257  26.622  10.137
44129W        W16444   8.310  26.557  12.575
44130W        W16445  10.835  11.709   4.120
44131W        W16446  10.735  26.039   2.358
44132W        W16447   6.420  32.594   3.781
44133W        W16448  19.134   8.317   2.338
44134W        W16449  41.933  13.600  13.063
44135W        W16450   6.810  37.520  13.907
44136W        W16451  31.493  34.452   3.360
44137W        W16452  17.129   1.805   3.733
44138W        W16453  40.436  23.069   3.347
44139W        W16454  26.049  26.490   4.312
44140W        W16455   6.823  14.745   0.419
44141W        W16456  28.975  23.508   4.757
44142W        W16457   0.484  36.045   1.380
44143W        W16458  21.218  10.667  11.868
44144W        W16459  18.138  30.130   9.942
44145W        W16460  42.328  34.530  10.408
44146W        W16461  27.998  33.049   0.754
44147W        W16462   7.407   0.951   4.800
44148W        W16463  11.715  32.536   4.752
44149W        W16464  10.314  34.377   0.902
44150W        W16465   3.404  30.997   4.817
44151W        W16466  22.507  11.711  13.901
44152W        W16467  44.432   0.848   2.213
44153W        W16468  17.168   6.912   3.722
44154W        W16469  28.088  17.205  12.960
44155W        W16470  16.635  36.872   2.835
44156W        W16471  41.473   8.795  14.968
44157W        W16472   6.275   8.709  13.889
44158W        W16473  12.715  15.690  10.484
44159W        W16474   0.480  16.733   3.349
44160W        W16475  25.688   8.323  13.455
44161W        W16476   3.374  14.595   0.889
44162W        W16477  38.937  37.073  11.923
44163W        W16478  16.775  23.663   1.310
44164W        W16479  36.542  18.613   0.481
44165W        W16480  42.284  26.535   2.868
44166W        W16481   6.410  19.584  13.893
44167W        W16482  39.965  11.327   3.248
44168W        W16483  39.540  19.089   3.810
44169W        W16484  22.643  16.095   3.323
44170W        W16485  12.671  16.588   0.385
44171W        W16486  42.478  12.827   1.740
44172W        W16487  25.175  35.018   1.820
44173W        W16488  27.975  14.111  13.544
44174W        W16489  20.145  29.664  10.939
44175W        W16490  31.488  14.771   2.326
44176W        W16491  21.112   4.891  13.409
44177W        W16492  42.787  41.464   2.272
44178W        W16493  42.356  23.715   2.325
44179W        W16494  32.571   5.865   0.846
44180W        W16495  43.829  10.259  10.132
44181W        W16496  31.934  17.105   3.359
44182W        W16497  16.258  31.138  11.531
44183W        W16498  17.781  35.488   4.690
44184W        W16499   8.753  14.821   3.792
44185W        W16500   4.740  37.356   4.819
44186W        W16501  19.115  42.775   3.225
44187W        W16502  30.425  22.601   1.744
44188W        W16503   4.743  21.722  11.065
44189W        W16504   3.375   4.797  13.449
44190W        W16505  17.696   0.858   0.917
44191W        W16506  27.159   4.772   1.893
44192W        W16507  29.045  37.543   0.326
44193W        W16508  37.357  35.946   2.352
44194W        W16509   2.401  39.842  14.383
44195W        W16510  26.560   9.256  11.077
44196W        W16511  31.645  25.489   0.726
44197W        W16512  39.419  38.329   1.932
44198W        W16513   0.782  23.526   0.908
44199W        W16514  11.861   0.471   3.194
44200W        W16515  25.169  39.482   1.319
44201W        W16516  14.746  33.489   4.296
44202W        W16517   7.336  20.274  14.026
44203W        W16518  12.729   3.364   0.850
44204W        W16519  10.653  21.721   2.757
44205W        W16520  33.538  32.579   3.355
44206W        W16521  22.605  19.249   4.748
44207W        W16522  17.279  26.599   0.353
44208W        W16523  13.290   1.320  12.838
44209W        W16524   6.859  19.714   4.786
44210W        W16525  44.867   9.243  13.497
44211W        W16526   7.670  25.131   2.336
44212W        W16527   9.780  34.886  12.399
44213W        W16528   4.271  26.993   2.288
44214W        W16529  32.459  40.844  14.865
44215W        W16530   9.185  31.583  14.834
44216W        W16531  32.123  30.151  10.444
44217W        W16532  26.474  13.695   1.773
44218W        W16533  32.485  17.287  10.577
44219W        W16534   5.774  19.102   0.883
44220W        W16535  18.238  17.085   4.293
44221W        W16536  39.396  11.841  14.777
44222W        W16537  14.163  43.940  11.437
44223W        W16538  19.207   3.252  10.935
44224W        W16539  25.110  40.931  12.059
44225W        W16540   4.222   9.256  11.378
44226W        W16541   7.743  36.912  13.987
44227W        W16542  42.371  38.048   1.384
44228W        W16543  44.816   8.725   1.406
44229W        W16544   6.307  38.864  12.007
44230W        W16545  15.220  44.835   3.247
44231W        W16546   9.657   5.858  12.563
44232W        W16547  25.604   4.310  12.369
44233W        W16548  19.752  32.610  12.412
44234W        W16549  35.556  28.991   4.327
44235W        W16550  15.265  22.145  12.894
44236W        W16551  12.801   2.251  11.441
44237W        W16552  35.013   4.402   4.626
44238W        W16553  19.683  26.149   1.365
44239W        W16554  30.112   6.700   2.812
44240W        W16555   5.762  41.403   3.249
44241W        W16556   7.685  15.629   3.826
44242W        W16557  35.387  20.713   0.395
44243W        W16558  29.051  38.556  13.002
44244W        W16559   5.430   5.761  13.453
44245W        W16560  38.473  38.469   3.756
44246W        W16561  30.584  29.436  13.436
44247W        W16562  42.309  18.731   1.248
44248W        W16563  28.999  32.449  13.343
44249W        W16564  34.407  40.041  14.865
44250W        W16565  11.232  35.530   4.253
44251W        W16566  44.817  31.570   0.459
44252W        W16567  36.546  15.598   1.342
44253W        W16568  17.173  29.082   1.704
44254W        W16569  42.379  14.179   0.425
44255W        W16570   7.341  43.885   3.806
44256W        W16571  14.303   9.750  12.847
44257W        W16572  35.578  42.947   0.828
44258W        W16573   0.912  28.678  11.442
44259W        W16574   1.359  30.532   2.240
44260W        W16575  44.344  39.933  12.552
44261W        W16576  42.320  41.815  12.496
44262W        W16577  14.616  40.049   0.738
44263W        W16578  39.460  10.240  11.939
44264W        W16579  22.134  34.433  12.051
44265W        W16580  17.103  39.505   2.786
44266W        W16581  36.353  21.225   2.756
44267W        W16582  41.013  34.892   4.143
44268W        W16583  22.084  25.000  11.940
44269W        W16584  13.697  29.525   0.755
44270W        W16585   5.861  26.187  13.445
44271W        W16586  21.517   8.892   3.652
44272W        W16587  14.115  29.989  12.972
44273W        W16588  34.570  12.787   4.793
44274W        W16589  36.574  21.100  12.953
44275W        W16590  13.172  20.606   1.721
44276W        W16591  29.469  39.820   4.146
44277W        W16592  28.172  36.586   0.934
44278W        W16593   2.388  18.169   2.330
44279W        W16594  42.514  17.661  12.561
44280W        W16595  21.120  21.615   3.319
44281W        W16596   7.713   9.282   3.844
44282W        W16597  42.825   6.372  14.489
44283W        W16598  38.450  21.671  13.413
44284W        W16599   1.892  15.748  13.497
44285W        W16600  21.088  40.050   0.928
44286W        W16601  27.017  34.897   1.875
44287W        W16602  37.993  14.638  10.426
44288W        W16603  41.815  36.919  14.769
44289W        W16604   7.748  12.181  14.375
44290W        W16605  13.658  18.107  10.603
44291W        W16606  19.227  33.517   0.728
44292W        W16607   7.705  26.038   1.821
44293W        W16608   5.763  20.224  14.300
44294W        W16609   5.395  43.012   3.746
44295W        W16610  23.213  32.988  13.497
44296W        W16611   6.882  19.636  11.978
44297W        W16612  12.337   2.325  11.898
44298W        W16613  38.993  31.057  12.567
44299W        W16614  10.187  12.218  11.406
44300W        W16615  31.102  20.197  11.064
44301W        W16616  20.649  38.432  13.358
44302W        W16617  16.150  10.717   2.195
44303W        W16618  37.055  14.172   4.623
44304W        W16619  35.944  19.541  13.894
44305W        W16620  16.179  10.225  11.494
44306W        W16621  43.509  41.023  13.367
44307W        W16622  40.926  32.084   3.778
44308W        W16623   2.725   5.319  14.946
44309W        W16624  36.404   3.298  10.629
44310W        W16625  44.905   9.779   2.677
44311W        W16626  34.073   0.832   1.351
44312W        W16627  26.642  33.625   5.138
44313W        W16628  10.257  31.611   3.377
44314W        W16629  32.402  30.955  11.453
44315W        W16630   5.783  15.132  14.401
44316W        W16631   2.236  32.023   1.855
44317W        W16632  44.371   6.876   0.862
44318W        W16633  37.938  18.623   0.840
44319W        W16634   1.802  44.302  13.513
44320W        W16635  37.912  44.842   1.298
44321W        W16636  16.310  17.614   0.950
44322W        W16637   8.846  31.098  12.031
44323W        W16638  10.655  39.966   3.773
44324W        W16639  19.136   9.188   1.808
44325W        W16640  30.942  44.755   4.310
44326W        W16641  29.124   0.276   3.155
44327W        W16642  12.806  29.125   2.342
44328W        W16643   8.723  21.514  10.952
44329W        W16644   1.414  20.673   0.727
44330W        W16645  26.160  10.747   2.410
44331W        W16646  37.547  19.162   1.339
44332W        W16647  43.874   1.861  12.068
44333W        W16648  11.249  41.952  12.035
44334W        W16649  28.645  27.604  14.375
44335W        W16650  19.245  39.418   1.315
44336W        W16651  19.224   8.679  10.621
44337W        W16652   5.893  40.337  10.970
44338W        W16653  22.647  18.654  11.990
44339W        W16654   4.221  15.295   0.876
44340W        W16655  31.916  12.646   3.154
44341W        W16656  23.183   1.792   3.178
44342W        W16657   1.789  31.051   1.904
44343W        W16658   0.297  39.882   0.845
44344W        W16659  40.546  41.962  14.456
44345W        W16660  17.256  27.670   1.871
44346W        W16661  18.227  22.052   1.735
44347W        W16662  42.954  29.580   0.766
44348W        W16663  44.462  23.608   1.916
44349W        W16664  38.475  34.893  14.958
44350W        W16665  39.023  29.960   0.446
44351W        W16666  31.557  27.579  14.488
44352W        W16667  25.634  16.774   0.728
44353W        W16668  15.811  40.891   2.365
44354W        W16669  11.230  39.525  13.812
44355W        W16670   9.164  17.702  13.044
44356W        W16671  13.751  44.469   4.597
44357W        W16672  18.577  35.382   3.840
44358W        W16673   2.730  31.076   3.680
44359W        W16674  37.032  43.767  14.320
44360W        W16675  22.574  22.555   2.797
44361W        W16676  42.973  36.380  11.912
44362W        W16677  10.206  12.208   4.140
44363W        W16678  14.743   5.355   0.783
44364W        W16679  30.995  26.061   2.810
44365W        W16680  31.095  29.486   3.347
44366W        W16681  15.150  36.561   0.421
44367W        W16682  21.723  36.097  13.426
44368W        W16683  41.517  18.155   2.240
44369W        W16684  12.358  33.504  13.497
44370W        W16685  24.116  24.200   1.740
44371W        W16686  24.548  32.111   4.297
44372W        W16687  36.962  26.960   0.301
44373W        W16688   9.294  29.154   1.909
44374W        W16689  42.297  39.910  10.931
44375W        W16690   4.408  38.822   3.363
44376W        W16691  44.373   6.191   0.369
44377W        W16692  36.392  10.775   4.166
44378W        W16693  40.031  18.739   4.292
44379W        W16694  32.960  18.650  12.871
44380W        W16695  28.581   7.875  12.496
44381W        W16696  27.679  26.646   1.276
44382W        W16697  41.934  11.196  11.899
44383W        W16698  40.036  20.167   0.475
44384W        W16699  15.673  36.554  14.477
44385W        W16700   1.902   7.293  10.442
44386W        W16701  43.325   5.259  12.448
44387W        W16702  44.259  19.624   4.752
44388W        W16703  41.411  35.415  14.947
44389W        W16704   0.261  27.086  11.441
44390W        W16705  35.911   5.752   4.731
44391W        W16706  39.465  42.347  13.917
44392W        W16707  11.329  34.963  13.991
44393W        W16708  19.254  14.608  11.910
44394W        W16709  28.661   2.954   2.296
44395W        W16710  38.001  41.350  10.900
44396W        W16711  30.156  11.143   1.903
44397W        W16712   4.923  19.753  10.563
44398W        W16713  42.959  23.021  10.964
44399W        W16714  26.993   2.957   2.337
44400W        W16715  37.551  10.743   1.700
44401W        W16716  22.078  17.659  13.005
44402W        W16717  14.814  27.448   4.355
44403W        W16718   2.323  41.393  14.459
44404W        W16719  20.720  44.503   0.878
44405W        W16720  29.113   0.829   3.155
44406W        W16721   7.788  24.050   4.265
44407W        W16722  11.750   3.385  14.904
44408W        W16723   0.941  14.296  14.380
44409W        W16724  30.028   2.746  12.974
44410W        W16725  16.101  26.973  11.488
44411W        W16726  27.645  33.974  11.598
44412W        W16727  39.982  24.648  11.980
44413W        W16728  38.931  24.671  11.947
44414W        W16729  25.085  18.591   2.899
44415W        W16730  16.676  42.347   4.118
44416W        W16731  26.113   9.874   1.822
44417W        W16732  23.623   0.868  14.993
44418W        W16733   5.410   2.310   0.320
44419W        W16734   3.892  20.138  14.374
44420W        W16735   3.266   6.872   1.780
44421W        W16736  36.440  14.613   2.757
44422W        W16737  25.162   8.756   3.678
44423W        W16738  35.588  34.418  12.843
44424W        W16739   4.246  18.175  12.489
44425W        W16740  41.319  10.706  14.837
44426W        W16741  42.900  22.508  12.933
44427W        W16742   7.772   1.854  14.794
44428W        W16743   3.879   1.246   2.778
44429W        W16744  15.189  21.523  10.506
44430W        W16745  22.190  15.767   1.358
44431W        W16746   4.896   3.430   2.726
44432W        W16747  23.692  15.138  13.797
44433W        W16748   9.206  17.184  14.963
44434W        W16749  14.308  40.797  14.301
44435W        W16750  24.032  15.741  14.997
44436W        W16751  32.478  38.832   1.314
44437W        W16752  19.766  32.571  11.521
44438W        W16753   4.410  21.669   2.743
44439W        W16754  12.152   6.852  13.450
44440W        W16755  37.464   9.172   1.905
44441W        W16756   4.732   8.286  12.987
44442W        W16757  32.411  14.311  10.619
44443W        W16758  20.687  29.561   2.689
44444W        W16759  27.946  44.377   1.253
44445W        W16760   2.426   3.282   0.256
44446W        W16761   7.730  21.596  10.995
44447W        W16762  39.560  37.426   3.765
44448W        W16763  23.233   8.303  12.893
44449W        W16764   3.389  20.029  12.902
44450W        W16765  11.232  27.487   4.332
44451W        W16766  32.987  27.672   3.666
44452W        W16767  28.512  12.180   0.730
44453W        W16768  14.657  24.681   0.449
44454W        W16769   2.447   5.712  13.408
44455W        W16770  25.650   1.898   2.243
44456W        W16771   2.921  16.754   3.834
44457W        W16772  18.785  40.043   0.907
44458W        W16773  23.609   3.308  11.949
44459W        W16774  16.658  11.307  13.928
44460W        W16775  29.930  11.725   0.436
44461W        W16776  29.431  17.764  12.986
44462W        W16777  30.059  29.452  14.414
44463W        W16778  37.552  18.615  13.904
44464W        W16779  20.196   4.364  14.979
44465W        W16780  17.713  32.914  12.073
44466W        W16781  12.186  35.067   3.748
44467W        W16782  16.085  34.402   0.265
44468W        W16783   3.293  11.231  11.108
44469W        W16784  27.582  27.689  12.054
44470W        W16785  33.938  24.068  10.542
44471W        W16786  14.186  24.156  12.425
44472W        W16787  17.132  24.534  10.938
44473W        W16788  23.210  26.060  14.822
44474W        W16789  26.981  35.947   1.263
44475W        W16790  36.386   0.839  12.989
44476W        W16791  22.123   5.714  14.439
44477W        W16792   8.212  25.175  11.976
44478W        W16793  35.056  33.129  14.822
44479W        W16794   1.253   9.372  14.479
44480W        W16795  32.033  30.119   3.163
44481W        W16796  14.166  20.137  14.481
44482W        W16797  33.936  40.386   0.330
44483W        W16798  27.471  15.238   0.915
44484W        W16799   9.700   8.658  14.878
44485W        W16800  41.042   2.263  14.457
44486W        W16801  31.025  39.988  10.999
44487W        W16802  15.674  38.476   0.346
44488W        W16803   9.236  16.685   1.226
44489W        W16804  24.082  28.050  14.475
44490W        W16805  24.018  21.247   0.868
44491W        W16806  15.638   9.364   4.775
44492W        W16807  18.695  40.843  14.476
44493W        W16808  10.256   7.670  13.464
44494W        W16809  37.993  32.398  14.918
44495W        W16810   4.334   9.347   2.829
44496W        W16811  27.521  32.034  12.455
44497W        W16812  34.410  25.491   2.262
44498W        W16813  27.179  38.498   4.289
44499W        W16814  14.758   0.886   4.307
44500W        W16815  17.272  11.791  13.972
44501W        W16816  36.957  13.610  14.412
44502W        W16817   1.467  23.133  11.029
44503W        W16818  19.722  25.512   3.845
44504W        W16819  34.458  34.119   4.792
44505W        W16820  23.646  23.145  12.564
44506W        W16821   0.358  36.920  12.075
44507W        W16822   2.773  38.988  12.432
44508W        W16823  40.915  40.019   1.816
44509W        W16824  31.418  35.065   0.767
44510W        W16825  11.646  15.098   0.471
44511W        W16826   7.892   3.409  11.064
44512W        W16827   5.918   1.295   0.274
44513W        W16828   6.868  24.522  13.982
44514W        W16829  33.509  33.394  11.944
44515W        W16830  17.287   3.804  11.409
44516W        W16831  38.833  25.002  13.983
44517W        W16832  23.677  28.491  13.392
44518W        W16833  29.164  16.186   0.851
44519W        W16834  21.054  11.156  14.020
44520W        W16835  25.141  28.576  12.565
44521W        W16836  28.455   0.747  11.490
44522W        W16837   0.286  44.894  14.294
44523W        W16838  16.174   4.706  12.902
44524W        W16839  10.352  21.105   3.664
44525W        W16840   7.666  33.901  11.984
44526W        W16841  29.040  15.203   1.406
44527W        W16842  19.609   1.368  11.090
44528W        W16843   4.767  22.108  13.018
44529W        W16844  12.767  17.087  11.518
44530W        W16845   2.449  38.846   1.437
44531W        W16846  24.620  30.972   1.243
44532W        W16847  23.190  44.830   2.757
44533W        W16848  16.745  14.194  12.980
44534W        W16849  14.833  35.966  10.925
44535W        W16850  38.479  26.520   2.795
44536W        W16851  44.797  29.076  12.992
44537W        W16852  41.912  16.791   0.426
44538W        W16853  22.508  12.263   4.125
44539W        W16854  34.551   6.209   2.233
44540W        W16855  19.712  43.492  13.349
44541W        W16856  33.578  14.108  10.602
44542W        W16857   9.716  30.022   2.225
44543W        W16858  29.174  38.019  12.973
44544W        W16859   8.780   9.167   3.833
44545W        W16860  26.020  20.243   4.701
44546W        W16861  34.432  28.156   1.711
44547W        W16862  41.867  27.030   3.203
44548W        W16863  32.917  32.580  14.789
44549W        W16864   0.340  44.818  14.827
44550W        W16865  30.017   7.891  11.525
44551W        W16866  38.532   6.211  13.355
44552W        W16867   3.299  16.578   2.302
44553W        W16868  44.842   3.929   2.217
44554W        W16869   5.823  38.400   0.818
44555W        W16870   9.381  36.082   5.214
44556W        W16871   3.288  30.968   3.380
44557W        W16872  32.037   8.722   3.344
44558W        W16873  25.981  41.416   4.294
44559W        W16874   1.944  11.828  12.510
44560W        W16875  42.893   8.757  12.423
44561W        W16876  39.452  25.644  10.950
44562W        W16877   4.256  40.341   3.187
44563W        W16878   6.203  44.939  13.934
44564W        W16879   4.345  32.007  12.069
44565W        W16880   6.687   4.835   2.355
44566W        W16881   6.719  41.973  10.528
44567W        W16882  17.792  18.295   2.695
44568W        W16883  21.640  31.038  14.320
44569W        W16884  17.664   9.870  14.016
44570W        W16885   0.888  37.411  13.543
44571W        W16886  44.321  18.087   0.411
44572W        W16887  17.649  19.542   5.152
44573W        W16888  25.500   9.227  11.859
44574W        W16889   6.227  20.655  10.904
44575W        W16890  35.406  39.948  11.416
44576W        W16891   7.229   2.733  13.977
44577W        W16892   9.371  44.952   0.804
44578W        W16893  20.092  25.628  11.382
44579W        W16894  43.835  38.329   2.376
44580W        W16895  40.954  44.360   3.745
44581W        W16896  31.955  21.088   1.800
44582W        W16897  38.860   1.477   4.332
44583W        W16898  10.733  19.700  14.405
44584W        W16899  10.257  40.482   2.705
44585W        W16900  38.863  23.044   3.203
44586W        W16901  40.423  44.426   4.201
44587W        W16902  20.083  13.138  11.030
44588W        W16903   5.881  37.923   0.767
44589W        W16904  43.999  35.549  12.556
44590W        W16905  23.036  19.608   4.642
44591W        W16906  35.991  23.539  13.499
44592W        W16907   1.888   4.931   4.659
44593W        W16908  26.130  42.488   1.425
44594W        W16909  34.450  17.290  14.898
44595W        W16910  33.460  16.313  13.834
44596W        W16911   4.753  17.200   1.267
44597W        W16912  26.588   5.312  13.539
44598W        W16913  36.352  11.846   4.684
44599W        W16914  44.815  19.174   4.722
44600W        W16915   0.928  39.957  14.328
44601W        W16916  13.153  25.038   2.774
44602W        W16917  35.012  41.993  11.474
44603W        W16918  15.158  13.828  14.511
44604W        W16919  22.109  12.330  12.531
44605W        W16920  33.470  15.679  13.454
44606W        W16921  41.970  20.221  12.930
44607W        W16922  21.061  33.398   1.407
44608W        W16923  25.981  18.555   1.747
44609W        W16924   0.416  43.345   2.892
44610W        W16925  44.931   2.390  10.629
44611W        W16926  40.954  17.090  11.420
44612W        W16927  34.089  33.945   1.704
44613W        W16928  18.177  20.086  14.505
44614W        W16929  39.966  18.261   0.858
44615W        W16930  33.929  23.573   3.364
44616W        W16931  17.608   9.824  10.486
44617W        W16932  19.666  10.364  10.092
44618W        W16933  37.504  24.523  13.023
44619W        W16934   1.361  41.475  10.510
44620W        W16935  15.100  24.511  14.321
44621W        W16936  18.776  36.918   2.365
44622W        W16937  15.609  35.525  11.483
44623W        W16938  17.132  44.284   5.296
44624W        W16939  19.057  27.017  11.592
44625W        W16940  38.523  22.716  10.450
44626W        W16941   1.252   6.328  13.063
44627W        W16942   2.396  19.734  10.038
44628W        W16943  22.114  25.965  13.929
44629W        W16944  40.885  40.304   2.318
44630W        W16945  41.947  36.940  11.031
44631W        W16946  10.804  16.592  11.081
44632W        W16947  38.511   1.916  13.884
44633W        W16948  17.103   2.769  13.947
44634W        W16949  19.576  12.218  10.530
44635W        W16950  32.607  26.206  10.582
44636W        W16951  28.959  35.476  10.453
44637W        W16952  33.080   7.237   0.965
44638W        W16953  24.209  21.078  14.866
44639W        W16954   9.184  13.350   1.234
44640W        W16955  27.111   9.194  13.804
44641W        W16956  17.121  31.621  10.069
44642W        W16957  39.491   6.237  10.890
44643W        W16958   3.415   7.854   4.214
44644W        W16959  33.067  27.491  14.933
44645W        W16960   7.710   3.407   4.749
44646W        W16961  16.182  17.796  10.996
44647W        W16962  12.655  36.439  10.414
44648W        W16963   9.826  21.054  14.429
44649W        W16964  21.612  11.838   2.196
44650W        W16965  35.547   1.898   4.174
44651W        W16966  18.576  33.026  14.974
44652W        W16967   2.349  36.430   3.867
44653W        W16968  37.021  28.983   3.772
44654W        W16969  35.016  44.764   0.777
44655W        W16970  13.652  16.666   3.356
44656W        W16971  36.582  29.054  12.870
44657W        W16972  35.362  37.532   0.831
44658W        W16973  21.236   9.248  13.484
44659W        W16974  27.020  15.320   3.824
44660W        W16975  10.777  26.974  13.959
44661W        W16976  26.205  27.663   0.737
44662W        W16977  39.384  19.285  14.492
44663W        W16978  21.725  41.463  14.392
44664W        W16979  13.141  21.642   0.791
44665W        W16980   8.204   9.277  10.926
44666W        W16981  26.060  25.982   3.765
44667W        W16982   0.298  19.750  14.871
44668W        W16983  36.356  22.083  10.593
44669W        W16984  36.911  34.993   2.663
44670W        W16985  22.249  24.147  12.004
44671W        W16986  20.118  14.264  10.019
44672W        W16987  30.654  20.563  13.949
44673W        W16988  31.087  39.060  12.908
44674W        W16989  39.032  26.075  13.530
44675W        W16990  28.600  15.169  12.409
44676W        W16991  32.411  24.672   3.787
44677W        W16992  19.676   2.730  11.405
44678W        W16993  38.462  44.283   4.236
44679W        W16994  36.872  34.004  14.838
44680W        W16995  41.377  14.784   3.851
44681W        W16996   5.788   6.375  14.896
44682W        W16997  44.333   8.320  10.449
44683W        W16998  30.471   6.826  14.945
44684W        W16999  34.985  26.160  10.592
44685W        W17000  13.840  16.641  13.529
44686W        W17001  22.580   8.894  10.004
44687W        W17002  25.566  20.613   3.165
44688W        W17003   4.395  20.548  14.982
44689W        W17004  16.271  14.318   0.482
44690W        W17005  29.990  24.220   1.697
44691W        W17006   3.724  25.025   0.316
44692W        W17007  39.323   4.276   0.358
44693W        W17008  27.019   7.682   4.221
44694W        W17009  44.905  13.141   5.240
44695W        W17010  27.555  31.471   4.624
44696W        W17011  14.671  35.529  14.854
44697W        W17012  15.135  19.180   4.665
44698W        W17013  31.927  16.644  14.942
44699W        W17014  39.906  30.481  13.383
44700W        W17015   3.394  26.041  10.465
44701W        W17016  36.501  16.309  13.995
44702W        W17017   2.875   8.194  10.632
44703W        W17018  16.136   7.312   1.262
44704W        W17019  37.391  12.632   1.410
44705W        W17020  27.163   1.808  11.067
44706W        W17021  31.082  26.696   3.724
44707W        W17022  12.730   8.375   2.676
44708W        W17023  17.188  24.148  13.316
44709W        W17024  26.666   9.383   3.815
44710W        W17025   6.298  36.479   3.739
44711W        W17026  28.476   4.752  10.911
44712W        W17027  38.485  27.532   1.279
44713W        W17028   9.231  26.171  12.018
44714W        W17029  41.893  29.136   4.235
44715W        W17030  21.044  27.553   1.437
44716W        W17031  38.499   3.335   1.883
44717W        W17032  29.052  12.251   4.144
44718W        W17033  35.598  19.243  11.378
44719W        W17034  25.553  10.701   1.429
44720W        W17035   4.757  26.994   4.332
44721W        W17036   4.779   8.209  14.345
44722W        W17037   6.730  26.003   1.234
44723W        W17038  34.074  11.148  13.332
44724W        W17039  19.578  36.462   1.694
44725W        W17040  20.642  12.175   4.597
44726W        W17041  28.511  18.633  12.089
44727W        W17042  31.482  14.234   0.879
44728W        W17043  31.009  38.438  13.812
44729W        W17044  26.527  28.012  13.456
44730W        W17045  11.239  33.875  12.979
44731W        W17046  44.336  32.058   1.895
44732W        W17047   6.798  25.623  12.573
44733W        W17048  43.433  17.208  12.517
44734W        W17049  43.973   9.747   1.749
44735W        W17050  23.241  25.048   3.179
44736W        W17051  19.582   1.755  12.435
44737W        W17052   6.204  41.307  11.554
44738W        W17053  28.952   1.408   3.722
44739W        W17054  30.915  32.540  13.962
44740W        W17055  44.440  44.347  12.005
44741W        W17056  43.457  22.111  10.542
44742W        W17057   3.837  39.919  13.393
44743W        W17058  11.646  29.005   3.782
44744W        W17059  18.759  26.568  10.095
44745W        W17060  10.635   6.722   3.693
44746W        W17061  25.118  14.725  11.566
44747W        W17062  12.339   5.273  10.551
44748W        W17063  32.140  16.237   2.710
44749W        W17064  10.822  11.724   3.702
44750W        W17065  39.053  11.329   1.447
44751W        W17066   2.380  37.077  13.862
44752W        W17067  20.742  23.218  14.824
44753W        W17068  40.412   0.775   3.861
44754W        W17069  28.987  25.677   3.256
44755W        W17070   6.865  31.584  14.846
44756W        W17071  32.489  32.007  11.980
44757W        W17072  36.480  41.334   1.229
44758W        W17073   1.392   1.278   3.636
44759W        W17074  40.904  33.565  13.944
44760W        W17075  22.998  26.968   0.743
44761W        W17076   4.331  25.219   1.780
44762W        W17077  34.078  23.583  13.472
44763W        W17078   6.719  43.463  11.919
44764W        W17079   2.242  11.346  14.476
44765W        W17080  26.153  21.655  13.403
44766W        W17081  20.060  22.616   3.386
44767W        W17082  16.737  32.586  12.536
44768W        W17083  19.557  24.114   0.889
44769W        W17084  18.149  36.012   4.214
44770W        W17085  24.057  11.802   1.888
44771W        W17086  20.155  23.182  11.886
44772W        W17087  34.547  14.152   3.848
44773W        W17088  14.816  29.538   4.602
44774W        W17089  18.769  37.878  10.440
44775W        W17090  22.723  33.624  11.950
44776W        W17091  24.605  31.091  10.984
44777W        W17092   3.925  18.707   4.609
44778W        W17093  17.182  29.010   4.813
44779W        W17094  18.590  27.609  11.584
44780W        W17095  43.960  44.829   3.711
44781W        W17096  22.996   3.436  13.889
44782W        W17097  31.505  30.518  12.512
44783W        W17098  14.177  28.539  14.963
44784W        W17099  31.944   9.847   4.819
44785W        W17100  44.348   1.450  12.854
44786W        W17101  22.034   5.778  12.424
44787W        W17102  21.570  14.696   4.154
44788W        W17103  40.869  14.668  14.368
44789W        W17104   1.452  13.813  12.913
44790W        W17105  35.512  22.098   3.225
44791W        W17106   1.290  31.007  12.013
44792W        W17107  36.427  26.549  14.419
44793W        W17108  44.827   7.226  14.460
44794W        W17109   0.369  36.473   4.341
44795W        W17110   1.785  16.112  13.030
44796W        W17111  23.997   2.813   2.268
44797W        W17112  23.075   3.920   1.782
44798W        W17113  23.033   1.326   4.144
44799W        W17114  37.560  28.050   2.417
44800W        W17115  33.598  30.076   4.278
44801W        W17116   5.242   5.413  13.468
44802W        W17117  15.659  17.096  13.995
44803W        W17118   8.900  35.477   0.852
44804W        W17119  22.231  11.294  11.039
44805W        W17120   1.306  34.392  10.954
44806W        W17121   8.300  25.079  14.416
44807W        W17122  35.423  37.523  14.381
44808W        W17123  44.439  21.074   3.730
44809W        W17124  22.605  14.759  12.489
44810W        W17125  43.943  21.539   1.803
44811W        W17126   3.867  18.584   3.708
44812W        W17127  32.407   3.439   1.871
44813W        W17128   1.471  35.090  12.362
44814W        W17129  12.842  30.960   3.719
44815W        W17130  21.521  43.838  11.878
44816W        W17131  30.429  13.285  12.955
44817W        W17132   9.748   0.803   2.380
44818W        W17133  15.678  24.676   3.168
44819W        W17134  30.593  13.251   5.188
44820W        W17135   3.238  14.209   0.265
44821W        W17136  42.376  12.737  13.443
44822W        W17137   3.218  29.997  12.869
44823W        W17138  34.474  43.870  12.872
44824W        W17139  11.681  36.080   3.694
44825W        W17140   7.216  35.990  14.416
44826W        W17141  20.047   3.255   3.723
44827W        W17142  15.157  24.586   1.806
44828W        W17143  32.032  17.164   1.331
44829W        W17144  18.176  44.784  13.375
44830W        W17145   1.828  22.081   3.360
44831W        W17146  39.054  44.397  12.961
44832W        W17147  26.082   7.772  12.544
44833W        W17148  18.671  32.103  13.794
44834W        W17149  12.710   6.210  11.028
44835W        W17150  28.591   2.229  11.905
44836W        W17151  16.687  20.650  10.945
44837W        W17152  16.242  29.526   0.761
44838W        W17153  41.390  40.991   2.685
44839W        W17154  29.119  13.633   3.196
44840W        W17155  12.318  14.274   3.219
44841W        W17156   0.358  20.718  11.400
44842W        W17157  40.372  30.519   4.786
44843W        W17158  14.260  33.906   2.304
44844W        W17159  42.808  14.654   0.736
44845W        W17160  28.104  22.161  10.595
44846W        W17161  30.984  17.302  14.942
44847W        W17162  16.260  41.420   4.291
44848W        W17163  42.999  23.104  13.461
44849W        W17164   1.825   5.296  14.460
44850W        W17165  27.605  28.475   4.175
44851W        W17166  34.515   7.265   1.266
44852W        W17167  18.187  33.973   0.474
44853W        W17168  34.882   4.795   9.961
44854W        W17169  43.812  30.927   1.333
44855W        W17170   3.852  36.885   2.868
44856W        W17171  21.646  35.053   0.389
44857W        W17172   0.849  40.926  12.391
44858W        W17173  16.278  29.442   2.700
44859W        W17174  33.447  27.165  14.917
44860W        W17175   0.801  27.606  10.127
44861W        W17176  28.481   4.365   5.164
44862W        W17177  42.877  33.524  11.390
44863W        W17178  17.628  22.163   2.416
44864W        W17179  12.667  33.520   2.259
44865W        W17180  25.640  10.191  10.007
44866W        W17181  15.756   8.170   1.324
44867W        W17182  36.508  17.779  14.996
44868W        W17183  31.411   8.706   2.389
44869W        W17184  42.303  43.454  14.969
44870W        W17185   9.226   1.472   1.907
44871W        W17186  11.699  12.132  12.064
44872W        W17187   6.274  24.175   1.898
44873W        W17188  41.014   9.271  11.941
44874W        W17189   9.297  11.271  13.947
44875W        W17190  44.948  35.425  14.483
44876W        W17191  26.162  16.263  11.937
44877W        W17192  10.746   1.258   0.251
44878W        W17193  12.239  44.955  13.832
44879W        W17194  21.098  24.677  10.465
44880W        W17195  32.451  32.117   3.703
44881W        W17196  19.252   9.856  11.476
44882W        W17197  14.646  27.062   4.782
44883W        W17198  14.648  28.478  14.464
44884W        W17199  15.673   8.700  13.532
44885W        W17200  11.664  31.414  14.496
44886W        W17201  21.667  41.971   4.207
44887W        W17202   9.663  10.722   4.600
44888W        W17203  41.906  42.507   2.298
44889W        W17204  21.750  43.976  10.518
44890W        W17205  40.032  23.728   1.712
44891W        W17206   8.267  27.012  13.932
44892W        W17207  17.296  40.918   1.712
44893W        W17208  40.932  25.607  11.903
44894W        W17209  42.984  22.663  14.287
44895W        W17210  17.252  18.296  14.007
44896W        W17211   8.740   6.230  10.452
44897W        W17212  34.058  15.268   4.760
44898W        W17213   5.433  33.478  13.485
44899W        W17214  38.500  34.499   3.742
44900W        W17215   0.272   8.263  11.990
44901W        W17216  33.473  39.843   3.292
44902W        W17217  37.980  29.471   4.812
44903W        W17218  40.867  19.236   3.312
44904W        W17219   5.332  17.147   4.754
44905W        W17220  11.687  27.636   1.332
44906W        W17221  20.738  41.799  12.384
44907W        W17222  15.586  15.631   5.239
44908W        W17223  40.303  15.620   4.757
44909W        W17224  16.727  43.848   3.782
44910W        W17225  11.716  22.746  11.375
44911W        W17226  43.912  17.202  14.938
44912W        W17227  21.167  16.804   0.877
44913W        W17228  33.930  35.999   3.724
44914W        W17229  11.775  37.986  10.464
44915W        W17230  43.395  39.993   4.801
44916W        W17231  44.299   2.768  12.961
44917W        W17232  17.566  19.102  14.021
44918W        W17233  34.041  28.998  11.519
44919W        W17234  25.573  21.178  11.932
44920W        W17235  29.433  41.380   3.372
44921W        W17236  13.314  40.487  12.415
44922W        W17237  32.484  13.785  14.867
44923W        W17238  20.713   1.463  11.121
44924W        W17239  39.498  36.498  12.339
44925W        W17240  16.764  29.090  10.157
44926W        W17241   1.243  21.602  10.635
44927W        W17242  34.516  34.448  14.976
44928W        W17243  16.234  14.648   0.455
44929W        W17244  30.000  29.982  10.457
44930W        W17245  13.193  37.049   3.168
44931W        W17246  23.704   5.224   2.671
44932W        W17247  23.028  34.879  12.516
44933W        W17248  23.020  21.043   4.275
44934W        W17249  43.383  43.424   1.245
44935W        W17250  15.179  40.966   0.375
44936W        W17251  22.713  32.109   4.292
44937W        W17252   5.705  33.560  11.888
44938W        W17253  31.988  31.587  10.110
44939W        W17254  13.611   5.282   3.741
44940W        W17255   0.744  21.242   2.269
44941W        W17256   7.304  19.566  10.534
44942W        W17257   0.820  42.967   3.692
44943W        W17258   5.416  34.087  12.874
44944W        W17259  35.887  30.987  11.512
44945W        W17260  16.687  25.156  11.106
44946W        W17261  31.402  44.841  14.510
44947W        W17262  26.029  24.669  11.857
44948W        W17263   9.193  15.240   3.349
44949W        W17264  39.547   8.203   3.766
44950W        W17265   5.387  43.470  14.321
44951W        W17266  26.686  17.696   2.319
44952W        W17267   8.397  26.091  10.967
44953W        W17268   3.868  42.328  11.080
44954W        W17269   3.444  42.424  14.347
44955W        W17270   2.357  28.119  12.997
44956W        W17271  15.760  15.789   1.235
44957W        W17272  40.343  24.150  13.857
44958W        W17273  31.073   5.327   1.264
44959W        W17274  40.812   3.240   3.664
44960W        W17275  21.100  20.137   4.603
44961W        W17276   9.778  40.890   1.381
44962W        W17277  41.348  40.029   1.717
44963W        W17278  31.421  37.846   2.692
44964W        W17279  20.100  42.847  12.025
44965W        W17280   2.800   4.857  14.011
44966W        W17281  25.563  24.487  12.059
44967W        W17282  40.360  21.670   1.390
44968W        W17283  16.689  14.294   1.877
44969W        W17284  34.950  15.776   5.117
44970W        W17285   4.922  33.925  12.381
44971W        W17286  30.487  43.836  12.495
44972W        W17287   1.328  22.079  13.829
44973W        W17288  15.278  29.144  12.436
44974W        W17289  18.776   1.818   3.744
44975W        W17290  11.294  14.820   4.640
44976W        W17291   4.852  18.732  11.470
44977W        W17292  14.625   5.736   2.808
44978W        W17293  39.863  35.584   4.236
44979W        W17294  11.359  19.620  10.005
44980W        W17295  16.663  15.293   3.766
44981W        W17296  13.792  15.327   3.856
44982W        W17297  31.120  30.497  11.549
44983W        W17298   0.777  31.906  13.940
44984W        W17299  21.514  15.088  13.458
44985W        W17300   4.784   8.867   4.774
44986W        W17301   4.288  43.911  12.084
44987W        W17302  12.812  11.720  13.340
44988W        W17303  27.046  15.184   4.779
44989W        W17304   0.971  30.002  12.465
44990W        W17305  14.722  35.526  13.521
44991W        W17306  14.170   6.754   3.322
44992W        W17307   7.393  13.834  14.892
44993W        W17308   0.366  10.645   1.914
44994W        W17309  22.699  39.476  11.945
44995W        W17310  35.522  39.830   0.315
44996W        W17311  11.745   3.241  11.598
44997W        W17312  25.024  13.760  14.851
44998W        W17313  27.641  10.170  10.096
44999W        W17314   9.222  38.980  10.448
45000W        W17315   3.829   6.914   0.735
45001W        W17316  13.154  28.100   2.190
45002W        W17317  37.406  35.076   1.334
45003W        W17318  24.719  35.964  12.920
45004W        W17319  18.576   1.295   2.890
45005W        W17320  31.593  43.874  13.997
45006W        W17321  24.981  35.952   1.901
45007W        W17322  42.840  42.304   0.363
45008W        W17323  28.103  33.568   1.901
45009W        W17324  24.012  19.106   3.709
45010W        W17325  12.161  14.774   3.304
45011W        W17326  12.175  24.493   4.643
45012W        W17327  43.279  22.067  13.929
45013W        W17328  37.081   6.239  10.520
45014W        W17329   3.937  32.428  12.901
45015W        W17330   6.345  35.473  14.458
45016W        W17331  34.892  25.009  10.527
45017W        W17332  40.428  24.224  14.806
45018W        W17333  34.871  20.670  13.036
45019W        W17334  20.255  18.697  10.517
45020W        W17335  27.605  11.133  13.873
45021W        W17336   2.747  44.975  13.036
45022W        W17337  13.134  34.582  11.979
45023W        W17338  28.040  37.383   5.221
45024W        W17339  42.385  17.689  10.419
45025W        W17340   5.723  24.479   4.703
45026W        W17341  33.927  19.674  12.453
45027W        W17342   9.723  28.608   2.387
45028W        W17343  34.494   3.457  13.454
45029W        W17344  19.540   8.247   3.853
45030W        W17345  44.907  10.229  13.880
45031W        W17346   0.373  42.372   0.281
45032W        W17347  13.119   3.372  14.828
45033W        W17348  32.489   6.215   1.934
45034W        W17349  28.110  33.895  14.415
45035W        W17350  33.413  26.141  13.451
45036W        W17351  15.216  32.122   1.716
45037W        W17352   4.935   7.368   2.319
45038W        W17353  36.494  39.898  14.318
45039W        W17354   3.866  24.189  10.889
45040W        W17355   6.354  19.580   1.295
45041W        W17356  19.709  19.084   0.313
45042W        W17357  29.160  11.771  10.556
45043W        W17358  12.121  44.349   4.829
45044W        W17359   9.671  40.527   4.653
45045W        W17360  19.754  35.602   4.343
45046W        W17361  18.624   5.203   2.358
45047W        W17362  16.294   1.855   1.709
45048W        W17363  30.041   5.326   0.362
45049W        W17364   0.461   7.852  13.053
45050W        W17365  17.222  38.428  11.108
45051W        W17366  44.785  31.101  11.538
45052W        W17367   4.931  38.912   4.295
45053W        W17368  31.453   0.987  11.961
45054W        W17369   1.971  23.109  10.607
45055W        W17370  39.370  33.435   0.345
45056W        W17371  42.509  17.193  12.929
45057W        W17372   3.869  32.556   1.327
45058W        W17373  44.317  43.309   0.370
45059W        W17374  22.073  28.569   0.931
45060W        W17375  42.514  17.591   1.391
45061W        W17376   2.414  41.427  11.522
45062W        W17377   5.302  32.974  12.374
45063W        W17378  43.768  31.955  13.055
45064W        W17379   3.908  37.909   0.457
45065W        W17380  40.943  13.351   1.800
45066W        W17381  31.052   9.232   1.327
45067W        W17382  39.513  12.285   4.776
45068W        W17383  27.966  18.092  13.841
45069W        W17384  41.027   0.365  12.340
45070W        W17385  29.141  15.614  12.990
45071W        W17386  15.786  34.038   2.817
45072W        W17387  23.530   7.206  11.402
45073W        W17388  43.319   3.952  12.062
45074W        W17389  43.872  26.056   1.824
45075W        W17390  32.032  28.123   1.934
45076W        W17391   8.702   7.307  13.950
45077W        W17392  31.937  23.160   3.712
45078W        W17393  38.060  34.035   3.302
45079W        W17394   9.342   2.949  13.902
45080W        W17395   7.838  17.183   1.700
45081W        W17396   6.195  18.573  13.933
45082W        W17397  10.345  19.124   1.780
45083W        W17398  27.616  41.513  10.427
45084W        W17399  22.178  31.975  13.995
45085W        W17400  17.675  43.275   0.739
45086W        W17401  26.637   5.366  11.548
45087W        W17402  19.207  17.108  14.871
45088W        W17403  35.358  16.292  13.954
45089W        W17404  16.072  15.268  12.506
45090W        W17405  13.347  25.184   1.289
45091W        W17406  12.361  18.620  11.088
45092W        W17407   4.414   7.239  10.483
45093W        W17408   0.900  33.879   2.283
45094W        W17409  37.944  30.018   1.416
45095W        W17410   8.352  36.966  10.589
45096W        W17411  27.654  40.006  14.378
45097W        W17412  12.611  34.579   0.307
45098W        W17413   7.288  17.276   3.747
45099W        W17414  41.461   8.664  14.503
45100W        W17415  33.052  36.556   2.872
45101W        W17416  15.236   4.780   1.824
45102W        W17417  21.724  32.973   0.294
45103W        W17418  35.988  31.487  11.418
45104W        W17419   9.651  24.184  13.423
45105W        W17420  44.873   3.391  10.930
45106W        W17421  37.558  37.357  11.429
45107W        W17422  20.609  26.043   0.467
45108W        W17423  42.884  31.432  11.006
45109W        W17424   6.340  23.217   0.892
45110W        W17425  37.059  34.029  13.007
45111W        W17426  41.030  37.002  10.970
45112W        W17427  34.929   3.369  13.381
45113W        W17428  23.574   3.301   4.802
45114W        W17429  10.294  15.743  14.811
45115W        W17430  35.410  17.278   0.893
45116W        W17431   5.424  14.676  14.364
45117W        W17432   7.390  15.111  14.793
45118W        W17433  15.766  32.440   2.714
45119W        W17434  32.005  17.728   2.219
45120W        W17435  16.696  21.632   1.322
45121W        W17436   4.436  26.600  12.996
45122W        W17437  26.642  16.777   0.361
45123W        W17438   0.958   9.167   4.237
45124W        W17439  40.506   3.262   5.097
45125W        W17440   9.872  44.421   0.252
45126W        W17441  20.078  43.296  12.563
45127W        W17442  28.994  12.801  12.993
45128W        W17443  30.053  13.326  13.890
45129W        W17444  20.544  38.982   3.685
45130W        W17445  22.136  21.616   1.225
45131W        W17446  36.960  20.694  10.444
45132W        W17447  39.449  12.797   4.735
45133W        W17448  39.539   0.825   0.251
45134W        W17449  10.730  35.495   3.212
45135W        W17450  34.902  40.826   3.203
45136W        W17451  13.758  35.416  11.075
45137W        W17452  44.856  38.038   2.418
45138W        W17453  36.994  33.928  13.395
45139W        W17454  44.316  36.057   5.250
45140W        W17455  29.161  10.328   4.715
45141W        W17456  34.987  27.063   4.289
45142W        W17457   3.811   1.406  14.478
45143W        W17458  41.961  25.700   3.791
45144W        W17459  28.681   3.340   1.434
45145W        W17460  25.564  33.442   0.888
45146W        W17461  20.602   4.927   1.839
45147W        W17462  27.143  14.334  13.884
45148W        W17463  34.425  32.103  13.450
45149W        W17464  18.093  25.076  12.892
45150W        W17465  27.057   7.257   2.818
45151W        W17466  15.689   2.958  11.001
45152W        W17467  10.708  31.579   4.703
45153W        W17468  18.555  29.553   1.328
45154W        W17469  24.207  39.317  13.059
45155W        W17470  15.307  44.898   0.477
45156W        W17471  35.511   1.391  13.919
45157W        W17472  29.484  25.202   2.753
45158W        W17473   5.433  36.967   4.245
45159W        W17474  22.133  11.701   1.315
45160W        W17475  33.129   2.848   1.259
45161W        W17476  40.511  22.201  12.033
45162W        W17477  42.924  21.139   0.254
45163W        W17478  13.826  28.109   4.767
45164W        W17479  40.896  42.429   3.199
45165W        W17480  23.196  19.240  14.950
45166W        W17481  18.689  12.832  13.934
45167W        W17482  14.613  30.952  12.938
45168W        W17483  29.663  10.188   5.260
45169W        W17484  10.652  23.540   1.248
45170W        W17485  18.578   9.308  13.984
45171W        W17486  12.666  38.418   3.180
45172W        W17487   8.673   5.820   4.139
45173W        W17488   5.330   7.248   0.759
45174W        W17489  38.548  41.452   3.869
45175W        W17490   0.477  35.088   4.332
45176W        W17491  44.005  15.604  11.572
45177W        W17492  12.850  43.005   0.796
45178W        W17493  13.154  38.455   4.198
45179W        W17494  22.040   6.896   1.720
45180W        W17495  15.308  34.986  11.541
45181W        W17496   8.836  29.564   5.248
45182W        W17497  30.934  41.906  12.404
45183W        W17498  42.334   7.679   2.718
45184W        W17499  31.966  36.383   2.817
45185W        W17500  27.549  14.221  14.844
45186W        W17501   1.457   9.736   0.404
45187W        W17502  32.906  22.613   0.824
45188W        W17503   3.722  20.716  11.091
45189W        W17504  11.837  15.147  13.048
45190W        W17505  13.753  11.842  13.838
45191W        W17506  39.936  10.713   1.853
45192W        W17507  26.618  44.486  11.104
45193W        W17508  44.986  31.637   1.933
45194W        W17509  10.768   5.699  14.965
45195W        W17510  12.674  18.754   1.434
45196W        W17511   5.225  14.287   3.385
45197W        W17512  21.053  27.111  10.581
45198W        W17513  18.695  21.244   4.738
45199W        W17514   4.899  41.793   2.799
45200W        W17515  38.568  44.908  14.824
45201W        W17516  25.171  11.692  11.541
45202W        W17517  29.481  36.873  10.978
45203W        W17518  12.693   6.821  10.913
45204W        W17519  15.621  23.117  11.433
45205W        W17520   9.868  20.633  13.479
45206W        W17521  11.139   6.872  10.932
45207W        W17522  19.672  38.443   1.850
45208W        W17523  35.518   9.210   4.777
45209W        W17524  28.041  25.640   3.237
45210W        W17525  10.867   6.698   3.170
45211W        W17526  14.831  25.193   2.332
45212W        W17527  31.467  23.127  13.998
45213W        W17528   9.699  23.708  13.929
45214W        W17529  29.477  21.153   4.149
45215W        W17530  16.266   4.351  12.060
45216W        W17531  27.514  16.176   3.722
45217W        W17532  16.097   9.158   1.808
45218W        W17533  12.816  39.390   1.424
45219W        W17534  12.199  30.591  12.913
45220W        W17535  18.775  31.054   4.148
45221W        W17536   3.356  37.456   3.656
45222W        W17537   4.744  32.012   2.804
45223W        W17538  22.039  13.677  10.583
45224W        W17539   5.272  21.031   1.387
45225W        W17540   6.234   6.711   2.844
45226W        W17541   6.865  14.754  11.486
45227W        W17542  19.620  24.532   0.923
45228W        W17543  36.843  13.124  10.460
45229W        W17544  26.050  39.460   0.872
45230W        W17545  20.744  39.348   4.265
45231W        W17546  32.064  43.835   2.323
45232W        W17547  39.497   3.314   3.825
45233W        W17548  38.496  12.796  12.483
45234W        W17549  41.478  12.801  13.315
45235W        W17550   3.939  38.998  12.434
45236W        W17551  23.086  25.536  13.825
45237W        W17552  17.273  25.606  12.527
45238W        W17553  10.334  25.474   1.259
45239W        W17554  28.090   1.246   4.604
45240W        W17555   3.385  39.451   3.280
45241W        W17556   3.269   5.396  11.005
45242W        W17557  42.455  37.514  11.062
45243W        W17558  14.133   9.206   4.149
45244W        W17559  20.138  33.993   1.214
45245W        W17560  40.537   9.265  12.067
45246W        W17561   0.842  11.640   3.851
45247W        W17562   7.195  29.516   2.752
45248W        W17563  14.722  26.471   0.275
45249W        W17564  36.437   6.320  11.111
45250W        W17565   8.297  41.869  13.441
45251W        W17566  43.983  11.629   4.209
45252W        W17567  13.739   6.281   0.955
45253W        W17568  41.803  12.359  13.314
45254W        W17569  23.507  37.372  14.506
45255W        W17570  43.448  41.427  10.540
45256W        W17571  29.563   5.701   4.144
45257W        W17572  18.719  19.251  12.040
45258W        W17573  12.332  16.302   1.239
45259W        W17574  26.674  28.938   0.782
45260W        W17575  15.122  15.129  11.002
45261W        W17576   5.899  22.174  11.990
45262W        W17577  27.558  16.108  14.865
45263W        W17578  19.593   2.873  13.023
45264W        W17579  23.624   5.337  14.782
45265W        W17580   8.292  17.629  14.390
45266W        W17581   1.333  37.907   1.323
45267W        W17582  29.090  34.924  11.570
45268W        W17583  26.099  32.599  10.477
45269W        W17584  30.606  28.023  11.000
45270W        W17585  44.432  16.296   1.332
45271W        W17586  41.340   0.265   4.753
45272W        W17587  42.973  25.577  12.568
45273W        W17588  36.969  26.518  11.511
45274W        W17589  24.171  19.089  11.910
45275W        W17590  13.617  15.243  10.420
45276W        W17591  24.067  28.531   2.410
45277W        W17592  29.541  27.454   1.317
45278W        W17593  13.758  12.658   1.849
45279W        W17594  17.197  30.143  13.878
45280W        W17595   6.314  37.042  14.838
45281W        W17596  10.735  43.502   0.284
45282W        W17597  35.094  20.150   4.202
45283W        W17598  37.561  42.388   2.409
45284W        W17599  42.325   9.875  14.322
45285W        W17600  29.000  29.461  10.945
45286W        W17601  36.485  41.415  13.043
45287W        W17602  20.596   7.799   4.682
45288W        W17603   9.274  39.372  14.389
45289W        W17604  40.442   4.236  14.880
45290W        W17605   6.190  35.992  13.474
45291W        W17606  26.098  35.529  12.082
45292W        W17607   8.277   5.709   1.413
45293W        W17608  23.632  13.126  10.548
45294W        W17609  42.879  20.194   4.142
45295W        W17610  18.653   4.926  12.044
45296W        W17611  17.778  15.751   1.843
45297W        W17612  41.433   5.816  10.640
45298W        W17613  16.794  26.985  12.987
45299W        W17614  29.567  34.505   0.385
45300W        W17615   3.919  22.162  14.857
45301W        W17616  26.655   3.384   1.347
45302W        W17617  14.830  42.367   4.136
45303W        W17618  17.128  16.692   3.689
45304W        W17619  26.078  19.095   4.803
45305W        W17620  37.576  16.647   3.764
45306W        W17621  30.557  25.062  12.396
45307W        W17622  12.362   7.181  10.526
45308W        W17623  26.026  11.712   3.781
45309W        W17624   4.282  14.733  13.404
45310W        W17625  10.867  13.649   1.415
45311W        W17626   6.358  38.450  11.972
45312W        W17627  14.626  40.405   3.690
45313W        W17628  31.103  21.197   1.857
45314W        W17629  30.544  39.929  12.945
45315W        W17630  21.709  39.349   3.170
45316W        W17631  39.852   9.755  13.906
45317W        W17632  10.823  16.197   5.294
45318W        W17633   4.211   7.818   4.785
45319W        W17634   5.230  20.166   0.475
45320W        W17635  30.118  35.426  14.005
45321W        W17636  20.605  11.268   2.724
45322W        W17637  25.999  23.715   1.289
45323W        W17638  28.468  13.807  12.848
45324W        W17639  33.391  35.412  14.914
45325W        W17640  37.938   1.757   3.859
45326W        W17641   6.789  37.074  14.825
45327W        W17642   2.834  12.329   1.882
45328W        W17643   4.431   3.855  14.861
45329W        W17644   9.714  10.297   4.250
45330W        W17645  41.498  24.562  11.878
45331W        W17646  36.845   1.836   1.789
45332W        W17647  26.549  21.230   1.699
45333W        W17648  20.142   1.288   0.356
45334W        W17649  21.587  40.884  10.624
45335W        W17650  24.499  28.986   2.283
45336W        W17651  29.600  19.143   3.225
45337W        W17652   1.755  35.397  13.885
45338W        W17653   7.872  31.979   4.622
45339W        W17654  41.505  20.691  13.517
45340W        W17655  36.912  11.166   3.656
45341W        W17656  40.495   6.716  12.522
45342W        W17657  40.834  39.547  10.466
45343W        W17658  39.417  25.604  14.325
45344W        W17659   1.905  26.496   0.345
45345W        W17660  18.235  21.104   1.836
45346W        W17661   5.748  24.974  14.784
45347W        W17662   9.769  23.040   2.721
45348W        W17663  11.706  33.120  11.603
45349W        W17664  32.447  24.155  11.057
45350W        W17665  11.723  17.618   5.305
45351W        W17666  37.520   4.762   4.279
45352W        W17667   2.947  28.472  13.337
45353W        W17668  19.077  23.110   2.696
45354W        W17669   7.827  30.001  13.395
45355W        W17670  27.484  38.951  11.901
45356W        W17671   2.257  11.370  13.027
45357W        W17672  42.008  29.142   1.893
45358W        W17673  34.506  13.285   2.766
45359W        W17674  10.292  16.111   1.391
45360W        W17675  35.467  29.635  10.997
45361W        W17676  34.940  43.884  14.875
45362W        W17677  19.268  13.136   0.477
45363W        W17678  11.328  31.930   4.783
45364W        W17679  17.115  41.472   1.436
45365W        W17680  40.931  41.405  10.987
45366W        W17681   2.337  29.451  13.509
45367W        W17682   3.240  37.979   3.746
45368W        W17683   1.751  24.558  13.490
45369W        W17684  16.671  41.350  10.611
45370W        W17685  27.033  23.675  12.348
45371W        W17686  17.208  41.531  12.527
45372W        W17687  26.703  35.988   3.748
45373W        W17688  19.730  12.162  14.387
45374W        W17689  21.519  15.619  13.473
45375W        W17690  36.554  34.543   0.916
45376W        W17691  20.718   6.688  10.960
45377W        W17692  19.551  30.497  13.032
45378W        W17693  32.012  32.060  13.341
45379W        W17694  37.385  38.529   4.178
45380W        W17695   5.834  11.273  13.830
45381W        W17696  22.069  27.505  11.493
45382W        W17697  33.891  22.017  12.839
45383W        W17698   3.288  28.469  11.986
45384W        W17699  34.028  37.988   4.151
45385W        W17700  24.632  16.117  13.528
45386W        W17701  17.066  38.500   0.767
45387W        W17702   8.195  35.494   4.696
45388W        W17703  12.664  40.529   0.444
45389W        W17704  24.486  24.714  12.062
45390W        W17705  42.390  16.776  14.930
45391W        W17706  10.855  14.601  14.321
45392W        W17707  20.597  23.160  14.281
45393W        W17708  13.151   7.295  14.467
45394W        W17709  27.628  35.409  13.806
45395W        W17710  15.702  24.125   1.896
45396W        W17711  39.034  25.657  12.036
45397W        W17712  29.103  21.711   3.167
45398W        W17713  41.897  41.414  14.439
45399W        W17714   7.309  24.116   5.231
45400W        W17715  40.376  12.273   2.343
45401W        W17716  17.711  15.681   3.270
45402W        W17717   4.771  16.115   2.726
45403W        W17718  29.503   8.399   4.652
45404W        W17719   1.385  26.022  14.387
45405W        W17720  20.176   6.294  12.017
45406W        W17721  20.178   2.292  14.498
45407W        W17722  13.601   4.417  14.839
45408W        W17723  35.410   5.244   3.353
45409W        W17724  20.749  29.922  14.395
45410W        W17725   0.957  13.262  12.882
45411W        W17726  34.599  23.115   3.834
45412W        W17727   4.761  28.507   4.650
45413W        W17728  31.529  34.517  10.499
45414W        W17729   3.384  43.468   1.795
45415W        W17730  40.410  20.641   1.927
45416W        W17731  39.389   7.222   1.786
45417W        W17732  29.565   0.368   4.252
45418W        W17733   6.361  28.580  12.992
45419W        W17734  20.050  18.123  13.475
45420W        W17735  16.676  33.001   3.822
45421W        W17736  28.091  21.130   4.604
45422W        W17737  44.825  43.821   0.836
45423W        W17738   5.367   8.355   3.244
45424W        W17739   8.655   8.656  13.377
45425W        W17740  13.786  29.428  14.905
45426W        W17741  16.112   5.370  10.621
45427W        W17742   9.881   4.788   4.200
45428W        W17743  28.976  34.864  11.056
45429W        W17744  11.775  19.271  10.967
45430W        W17745  33.570  23.134  13.827
45431W        W17746  12.281  18.790   5.231
45432W        W17747  20.260  10.144  13.891
45433W        W17748  36.518  17.163  13.836
45434W        W17749  36.381  38.076   4.305
45435W        W17750   9.886  25.595   2.889
45436W        W17751   3.865   4.246   2.684
45437W        W17752   7.802  38.488   2.266
45438W        W17753  22.087   9.246  13.468
45439W        W17754  40.403  17.669   4.348
45440W        W17755  12.249  34.575   3.835
45441W        W17756  32.498   2.293  11.869
45442W        W17757  18.226  33.115   3.294
45443W        W17758  43.852  17.695  11.541
45444W        W17759  38.876  36.367   2.303
45445W        W17760   8.758  36.007  10.964
45446W        W17761  18.621  43.442   2.855
45447W        W17762  12.649  36.956  14.833
45448W        W17763  36.532  12.787  13.479
45449W        W17764  38.044  14.651  13.491
45450W        W17765  20.175  40.994   9.961
45451W        W17766  12.296   8.173  11.946
45452W        W17767  27.620   5.724  13.464
45453W        W17768  40.932  38.432  11.387
45454W        W17769  34.115  33.126  10.940
45455W        W17770   9.679  37.423   1.803
45456W        W17771   3.281  24.702   3.242
45457W        W17772  19.610  39.950   3.682
45458W        W17773  21.046   7.731   2.825
45459W        W17774  16.315   5.860  14.429
45460W        W17775  30.634  35.921   1.923
45461W        W17776  32.451  16.306  13.890
45462W        W17777  15.311   0.873   3.843
45463W        W17778  39.383   4.302  12.870
45464W        W17779   0.433  20.205  11.408
45465W        W17780   8.771  15.086  13.051
45466W        W17781  17.695  40.024  12.423
45467W        W17782  27.961  12.229  12.522
45468W        W17783  32.591  18.707  13.838
45469W        W17784  15.685  12.630   3.818
45470W        W17785   4.310  15.708   4.183
45471W        W17786  10.820  39.332  12.074
45472W        W17787  29.011  42.479  10.900
45473W        W17788  41.300  18.567  12.423
45474W        W17789  24.175   4.424   1.788
45475W        W17790  25.123  24.103  12.947
45476W        W17791  34.950   0.755   2.768
45477W        W17792  36.842  35.455   1.759
45478W        W17793  10.150  28.957   0.438
45479W        W17794  41.848  35.074  14.297
45480W        W17795   0.914  25.204   4.318
45481W        W17796   7.675   3.391   2.856
45482W        W17797   0.925  34.900   0.270
45483W        W17798   2.950  31.589   1.741
45484W        W17799  26.464  32.020   5.089
45485W        W17800  30.996   5.233  11.456
45486W        W17801  41.875  40.859  12.943
45487W        W17802   4.345  36.458  14.344
45488W        W17803  30.634  36.415   3.161
45489W        W17804  40.406  24.178  10.934
45490W        W17805  14.811  28.108   3.195
45491W        W17806  35.484  40.453  12.900
45492W        W17807  23.999  17.213  12.860
45493W        W17808  31.930  12.362   2.900
45494W        W17809  10.803  44.838   4.349
45495W        W17810  25.053  37.073   4.300
45496W        W17811   9.370  14.206   3.298
45497W        W17812  34.587   1.936   0.898
45498W        W17813   3.879  10.748   3.651
45499W        W17814  24.984  26.099   3.708
45500W        W17815  41.026  27.146  12.383
45501W        W17816   8.744  37.526  14.798
45502W        W17817  15.795  38.986  11.865
45503W        W17818   6.326  18.232   9.985
45504W        W17819  25.085   3.438  10.447
45505W        W17820  11.730  33.409   5.194
45506W        W17821  19.162   5.236   3.201
45507W        W17822  40.383  26.147   9.921
45508W        W17823  37.356  12.757  12.488
45509W        W17824  13.659   5.331  13.437
45510W        W17825  33.960  27.039   3.326
45511W        W17826  30.941   0.900   0.935
45512W        W17827  32.523   0.867   3.699
45513W        W17828  35.979  11.237  10.961
45514W        W17829  19.644  36.974  11.474
45515W        W17830  37.541  35.369  12.430
45516W        W17831  33.997  39.835  13.538
45517W        W17832  10.297   2.410   3.260
45518W        W17833  36.987  20.667   2.246
45519W        W17834  19.715  37.058   4.760
45520W        W17835  36.420  12.738  12.018
45521W        W17836  22.179  16.679  11.594
45522W        W17837  10.661  23.505  14.414
45523W        W17838  14.184  10.347  10.533
45524W        W17839  19.238   6.401  11.950
45525W        W17840  10.286  34.036  13.498
45526W        W17841  40.545  26.956   3.241
45527W        W17842  14.182  34.376   1.234
45528W        W17843  15.591   6.397  14.363
45529W        W17844  11.333  25.472  11.572
45530W        W17845  34.915  30.114   0.395
45531W        W17846  17.717  17.302   4.172
45532W        W17847  23.726  39.468  13.318
45533W        W17848  27.956  27.570   0.845
45534W        W17849  16.129  32.932  11.394
45535W        W17850  37.047   8.387   1.741
45536W        W17851  22.583  38.840  13.941
45537W        W17852  34.611  39.953  11.453
45538W        W17853  36.054  42.844   2.252
45539W        W17854  16.753  28.054  11.936
45540W        W17855   4.926  23.498  13.368
45541W        W17856  28.993  12.251  14.949
45542W        W17857   2.416  14.633  12.957
45543W        W17858  10.160  32.481  11.122
45544W        W17859  20.241  12.127   2.352
45545W        W17860  41.987   0.905   4.336
45546W        W17861  19.611  37.431   3.731
45547W        W17862  12.851  29.066  11.500
45548W        W17863  38.019   0.836  12.069
45549W        W17864  27.998   9.323  12.960
45550W        W17865   2.354   6.235   0.822
45551W        W17866  17.265   9.385   1.821
45552W        W17867  17.736  37.356   3.152
45553W        W17868  24.170  28.140   0.818
45554W        W17869  34.472  12.623   0.846
45555W        W17870  32.512  10.869   0.844
45556W        W17871  24.064   4.890   0.391
45557W        W17872   2.894  36.024  12.504
45558W        W17873   0.294  21.685   0.444
45559W        W17874  44.339  11.742  14.376
45560W        W17875  34.438   7.199   0.734
45561W        W17876   5.869  17.647  14.851
45562W        W17877  17.137  19.223  11.886
45563W        W17878  33.996   6.348   4.196
45564W        W17879   2.787   1.248   3.851
45565W        W17880  32.483  44.333  10.570
45566W        W17881   2.402  14.805  14.794
45567W        W17882   9.328  31.468   1.728
45568W        W17883  43.451  23.064  12.436
45569W        W17884  32.409  41.852   1.870
45570W        W17885  19.215  20.201  13.962
45571W        W17886  39.984   9.160   4.821
45572W        W17887  38.995   3.726   3.840
45573W        W17888  24.209  36.541   2.417
45574W        W17889   9.672   4.428   4.786
45575W        W17890  36.454   5.406  10.524
45576W        W17891   2.410  11.131  11.994
45577W        W17892  22.710  42.360   4.334
45578W        W17893  17.560  31.583  13.368
45579W        W17894  38.357  12.274  13.545
45580W        W17895  34.459   6.841  13.463
45581W        W17896   3.404  21.528   3.178
45582W        W17897   0.326  36.077  14.297
45583W        W17898  11.831  20.238  13.894
45584W        W17899  23.236  36.494   3.219
45585W        W17900  23.581   9.155   2.679
45586W        W17901  29.633  32.559   4.607
45587W        W17902  28.136  18.736  12.896
45588W        W17903  19.045  34.898  13.931
45589W        W17904  40.017  38.989   2.695
45590W        W17905  31.525  30.590  10.589
45591W        W17906   9.208  23.196   1.251
45592W        W17907  25.082  27.475   4.624
45593W        W17908   8.292   9.766  10.469
45594W        W17909  21.164  40.323  10.534
45595W        W17910  12.733   4.319   2.258
45596W        W17911  42.315  32.890   3.382
45597W        W17912  33.611  10.635  14.437
45598W        W17913  37.342  26.015  13.477
45599W        W17914  30.447  40.023  11.871
45600W        W17915  41.925   9.327   2.722
45601W        W17916  42.921  36.005   2.300
45602W        W17917  10.876  22.160  10.602
45603W        W17918  21.219   2.737   4.620
45604W        W17919  11.659  28.041  13.314
45605W        W17920  15.719  24.649  13.969
45606W        W17921  37.946  25.163  12.899
45607W        W17922   2.782  27.490   2.361
45608W        W17923  35.394  25.981   2.344
45609W        W17924   2.721  11.231   1.293
45610W        W17925  16.144  39.818   3.639
45611W        W17926  33.125  23.230  14.350
45612W        W17927   4.942  14.157   1.412
45613W        W17928  31.077  34.482   4.695
45614W        W17929   7.797  34.934   2.838
45615W        W17930  43.854  12.266   5.219
45616W        W17931  26.018  39.953   0.397
45617W        W17932  22.106   7.700   2.306
45618W        W17933  42.973  26.524   4.173
45619W        W17934  39.526   8.350  14.013
45620W        W17935   6.268  25.045   3.700
45621W        W17936  29.558   0.816   3.195
45622W        W17937  41.372   2.906  11.014
45623W        W17938  12.311  44.776   4.739
45624W        W17939   0.788   4.367  14.342
45625W        W17940   9.364  36.869  12.865
45626W        W17941   3.260   1.294  14.762
45627W        W17942  30.972  31.510  13.875
45628W        W17943  30.122  28.466  14.918
45629W        W17944  33.043  14.179  11.041
45630W        W17945  33.976   6.203  14.398
45631W        W17946   4.328  17.783  14.910
45632W        W17947  18.720  20.042  11.525
45633W        W17948  35.962  33.933  11.389
45634W        W17949  20.028  19.553  11.952
45635W        W17950  39.448   2.925   4.647
45636W        W17951   4.908   7.374  12.842
45637W        W17952  38.022  27.040   1.836
45638W        W17953   4.773  36.903  14.404
45639W        W17954  12.209   8.884  14.869
45640W        W17955   4.213   9.189   1.892
45641W        W17956  12.346   4.872  11.442
45642W        W17957  37.422  20.729   1.720
45643W        W17958  39.940   5.253  13.807
45644W        W17959   5.245  29.981  10.581
45645W        W17960  43.959  22.611  12.375
45646W        W17961   8.317   9.730  12.516
45647W        W17962  37.352  35.872   4.216
45648W        W17963  15.670  43.414  14.908
45649W        W17964  11.248  20.643   4.180
45650W        W17965  42.357  21.641   2.269
45651W        W17966   2.743  25.980   4.234
45652W        W17967   3.785   4.285   0.856
45653W        W17968  32.610   6.226   4.635
45654W        W17969   5.865   3.301  14.335
45655W        W17970   2.758  12.611   1.736
45656W        W17971  32.575  13.241  12.380
45657W        W17972  43.515   8.299   3.350
45658W        W17973  28.966  18.178   2.732
45659W        W17974  31.014  37.067  11.861
45660W        W17975  33.081  13.840   4.321
45661W        W17976  18.293   9.844  14.956
45662W        W17977  34.512  21.020  12.393
45663W        W17978  19.726  40.324  13.966
45664W        W17979  41.998  40.798   4.709
45665W        W17980   1.970   8.879  13.864
45666W        W17981  36.585   3.460  13.802
45667W        W17982  39.871  34.519  11.876
45668W        W17983  44.275  17.675  10.453
45669W        W17984   4.273  30.088  14.920
45670W        W17985  26.567  36.876  13.454
45671W        W17986  13.613  37.480  13.393
45672W        W17987  11.678  16.127   3.211
45673W        W17988  18.693   5.328  14.437
45674W        W17989  39.430  25.607   0.913
45675W        W17990   3.254   2.296  14.502
45676W        W17991   1.948  37.377   2.750
45677W        W17992   6.372  32.141   3.195
45678W        W17993  19.111   7.765   5.750
45679W        W17994  31.006  18.197   2.270
45680W        W17995  13.748   8.324   1.394
45681W        W17996  25.518  13.615  13.882
45682W        W17997  44.498   6.714  14.899
45683W        W17998  39.435   6.865   1.806
45684W        W17999  41.524  22.133   1.319
45685W        W18000  26.689  13.112   0.473
45686W        W18001  42.795  23.720  10.498
45687W        W18002   5.304  14.773   4.339
45688W        W18003  16.120  27.669   2.329
45689W        W18004  41.812  38.450  13.457
45690W        W18005  11.130  12.675   3.288
45691W        W18006  35.556  41.852  11.030
45692W        W18007   3.893  29.169  13.956
45693W        W18008  31.932  34.505  13.993
45694W        W18009  37.921   9.669   2.338
45695W        W18010  16.809  31.101   9.541
45696W        W18011   3.949  35.392   1.342
45697W        W18012  36.042  31.579   4.125
45698W        W18013  14.818  21.567  13.982
45699W        W18014  25.498  33.893   1.405
45700W        W18015  25.543  27.021   2.375
45701W        W18016   1.477  11.161  14.339
45702W        W18017  29.432  11.642   0.253
45703W        W18018   1.477  11.745  10.412
45704W        W18019  28.540  35.978   1.424
45705W        W18020  40.003  18.569  13.333
45706W        W18021  15.690   4.807   5.318
45707W        W18022  40.484   9.329   4.343
45708W        W18023  42.860  32.954  11.490
45709W        W18024  31.560  17.719   3.268
45710W        W18025  11.333  17.246   2.390
45711W        W18026  15.294  15.808  14.880
45712W        W18027   5.262  34.412  11.044
45713W        W18028  14.220  16.098   4.732
45714W        W18029  10.727   4.438  12.926
45715W        W18030  11.752  25.610  14.930
45716W        W18031  24.095  44.383   2.366
45717W        W18032  25.089  19.276  12.388
45718W        W18033   6.260  25.532  10.966
45719W        W18034   0.771  23.548   0.340
45720W        W18035  30.066  15.615   4.169
45721W        W18036  26.540  34.049  14.773
45722W        W18037  23.058  34.446   1.331
45723W        W18038  44.429  36.587  10.469
45724W        W18039  11.283  23.524  13.540
45725W        W18040  42.027  12.669  12.876
45726W        W18041  41.013   9.758   1.369
45727W        W18042  39.906   0.836  13.990
45728W        W18043  18.122  38.038  11.609
45729W        W18044  19.718  22.509  14.288
45730W        W18045  23.680  34.598  11.424
45731W        W18046  19.538   9.817  11.073
45732W        W18047   9.176   5.424  13.812
45733W        W18048   9.358  36.921   3.360
45734W        W18049  15.166  16.691  10.581
45735W        W18050  44.292  42.472  10.601
45736W        W18051  26.701  41.440   3.720
45737W        W18052  30.000  36.078   1.400
45738W        W18053  31.528  18.756  12.391
45739W        W18054  23.136  44.279   4.812
45740W        W18055  12.684  38.985  11.918
45741W        W18056   3.435  31.568   2.851
45742W        W18057  24.021  29.918  10.902
45743W        W18058   6.722  20.665  12.558
45744W        W18059   3.924  39.560   1.732
45745W        W18060   9.246  37.424  12.975
45746W        W18061  33.119  33.479  12.432
45747W        W18062  30.443  40.025   0.310
45748W        W18063  33.439  35.990  13.000
45749W        W18064  23.571   7.367   4.634
45750W        W18065  44.291  34.594   2.812
45751W        W18066  31.608  19.715   2.900
45752W        W18067   8.789  11.128  12.899
45753W        W18068  28.052  30.104  14.998
45754W        W18069  27.494  33.896  13.834
45755W        W18070  12.208  29.980   3.229
45756W        W18071   8.771   5.232   3.316
45757W        W18072  39.009  27.056  11.580
45758W        W18073  24.194   4.345   4.193
45759W        W18074  11.152  36.073   2.770
45760W        W18075  37.079   5.923  13.427
45761W        W18076   2.784  38.948  13.448
45762W        W18077  20.739   6.916   1.425
45763W        W18078  37.850   4.385   1.892
45764W        W18079  11.803  30.566   1.774
45765W        W18080  26.686  27.146   0.928
45766W        W18081  34.553  36.349  11.977
45767W        W18082  11.635   6.330   3.201
45768W        W18083  18.282   6.391  14.425
45769W        W18084   3.727   7.669  13.376
45770W        W18085  42.897   6.320  14.946
45771W        W18086   3.728  30.475  12.015
45772W        W18087  18.159  16.666  13.950
45773W        W18088  29.154  10.150  12.094
45774W        W18089  13.211  24.022  10.906
45775W        W18090  19.595  21.253  11.030
45776W        W18091   6.896  37.961  11.991
45777W        W18092   8.815  43.818   4.681
45778W        W18093  20.046  28.991  11.491
45779W        W18094  33.425   5.246  13.947
45780W        W18095  17.596  37.528  12.562
45781W        W18096   5.830  16.679   0.372
45782W        W18097  28.154   1.297  11.503
45783W        W18098  26.611  28.535  13.855
45784W        W18099  16.742  10.331   3.266
45785W        W18100  37.915   3.779   2.405
45786W        W18101   5.704  15.211   1.701
45787W        W18102  35.976  10.658  12.095
45788W        W18103  31.068  42.315  12.497
45789W        W18104  31.462  37.948  12.372
45790W        W18105  34.886  30.101   4.292
45791W        W18106  14.768   5.786   4.266
45792W        W18107   3.319  12.352   3.192
45793W        W18108  12.847  23.119  12.064
45794W        W18109   3.376  11.273  11.571
45795W        W18110  34.963  20.584   4.709
45796W        W18111  12.255   0.825   2.701
45797W        W18112   0.249   2.284  14.508
45798W        W18113   4.353   6.794  12.985
45799W        W18114  37.086   9.225   1.403
45800W        W18115  31.900  27.648  10.530
45801W        W18116   0.772  12.630  14.827
45802W        W18117   4.383  40.540   0.810
45803W        W18118  35.098  29.112   3.303
45804W        W18119  27.579  13.323   2.220
45805W        W18120  34.403  29.965  13.496
45806W        W18121   0.760  26.473   4.793
45807W        W18122   3.753  38.859  14.880
45808W        W18123  37.436  30.954   5.123
45809W        W18124   6.688  42.016   3.287
45810W        W18125  38.403  18.186  11.603
45811W        W18126   1.804  10.173   4.810
45812W        W18127  36.067  23.050  11.003
45813W        W18128  14.730  42.860  10.948
45814W        W18129  34.092  19.563   4.615
45815W        W18130  19.766   3.757  12.440
45816W        W18131   3.815  12.241  12.852
45817W        W18132  13.268  16.583   3.381
45818W        W18133  24.222  18.624   2.853
45819W        W18134   1.464  36.508  10.947
45820W        W18135  25.104  40.364  13.455
45821W        W18136   2.380  31.130   0.301
45822W        W18137  38.943  39.433   1.933
45823W        W18138   6.696  19.597  13.475
45824W        W18139  34.519   8.768   4.734
45825W        W18140   0.382  34.120  12.558
45826W        W18141   0.389  37.845  10.896
45827W        W18142  34.474  11.860   0.378
45828W        W18143  17.117  13.309   3.373
45829W        W18144  18.787  33.876  10.944
45830W        W18145   0.761  37.015  12.341
45831W        W18146  26.062  30.967  11.561
45832W        W18147   9.783   5.204   4.796
45833W        W18148  24.054  41.811   3.325
45834W        W18149  17.695   0.949   2.789
45835W        W18150  26.520  36.435   0.922
45836W        W18151   7.767  16.286  11.530
45837W        W18152  40.823   7.764  12.408
45838W        W18153  28.487  27.156   3.810
45839W        W18154   5.383   2.914   1.841
45840W        W18155  14.796   9.701   2.281
45841W        W18156  26.993  38.546  11.000
45842W        W18157  27.170  11.761  14.952
45843W        W18158   9.868  17.104   2.364
45844W        W18159  17.573  21.678  10.543
45845W        W18160  29.009  11.839  13.000
45846W        W18161  43.902  43.353   3.858
45847W        W18162   3.430  34.478   0.463
45848W        W18163  27.681  33.089   4.798
45849W        W18164  18.137  34.400   4.264
45850W        W18165   5.722  28.036   0.433
45851W        W18166  32.959  23.990   4.130
45852W        W18167   4.903   8.220   1.729
45853W        W18168  36.421  14.814  11.075
45854W        W18169  15.661  42.780  14.308
45855W        W18170   2.914   7.393  13.938
45856W        W18171  44.399   0.437   2.813
45857W        W18172  41.845  22.028   0.330
45858W        W18173  11.839  15.757   2.372
45859W        W18174  24.195  40.986   1.243
45860W        W18175  30.068   4.261  14.308
45861W        W18176  44.457   3.909  12.465
45862W        W18177  39.896  18.631  13.929
45863W        W18178  10.278  26.089  11.562
45864W        W18179  42.029   8.860   5.236
45865W        W18180  29.638  11.866  11.381
45866W        W18181  30.504   1.435   0.456
45867W        W18182   2.847  16.714  10.630
45868W        W18183  23.626  24.203   3.646
45869W        W18184  25.532  23.108   1.780
45870W        W18185  33.411   0.467  12.351
45871W        W18186  12.346  13.620   3.295
45872W        W18187  39.052  18.078   4.800
45873W        W18188  19.717   5.931   2.300
45874W        W18189  36.934  15.606   0.833
45875W        W18190  40.874  30.514  13.055
45876W        W18191  29.438  26.154  10.556
45877W        W18192   9.885  15.676   2.896
45878W        W18193   6.851   7.804  10.621
45879W        W18194  22.680  18.734  10.462
45880W        W18195   7.741   2.792   3.702
45881W        W18196  25.675  42.811   4.336
45882W        W18197  18.778  32.109   4.819
45883W        W18198  32.600  38.426  13.983
45884W        W18199   2.227  11.145   4.647
45885W        W18200  19.730  40.888  10.990
45886W        W18201  18.631  41.433  12.869
45887W        W18202  33.994   1.766  14.760
45888W        W18203  13.328  32.585  13.948
45889W        W18204  17.113   6.187  10.980
45890W        W18205   1.389   4.844  12.964
45891W        W18206   5.287  15.586  11.411
45892W        W18207  35.358  37.515   1.741
45893W        W18208   5.889  44.808  14.852
45894W        W18209   3.872  30.477  14.029
45895W        W18210  20.108  41.798   0.912
45896W        W18211  16.097  19.274  14.281
45897W        W18212  20.720  38.838  11.111
45898W        W18213  37.433   4.855   3.659
45899W        W18214  23.532  34.509  13.926
45900W        W18215  21.683  10.319  12.001
45901W        W18216  25.990   6.212   3.708
45902W        W18217   9.352  23.219  13.377
45903W        W18218   8.815  17.128   3.236
45904W        W18219   4.711  36.430   3.631
45905W        W18220  44.858  30.976   4.730
45906W        W18221  11.246   1.963  10.928
45907W        W18222  27.524   7.417   3.332
45908W        W18223   5.406  18.770   1.272
45909W        W18224  42.460  12.334  13.974
45910W        W18225   4.215  32.046   3.824
45911W        W18226  10.294  16.709   1.293
45912W        W18227  11.686  26.179  10.541
45913W        W18228  30.518  19.158   3.658
45914W        W18229  43.994  28.056   2.799
45915W        W18230  37.540   5.242  11.020
45916W        W18231  34.065  43.804   0.249
45917W        W18232  19.278  31.929  13.838
45918W        W18233  22.049  29.927   2.315
45919W        W18234  20.154   9.820   0.317
45920W        W18235   8.701  17.283  10.024
45921W        W18236   8.399  30.105   4.166
45922W        W18237  10.858  22.599   1.923
45923W        W18238  21.728   7.395   1.233
45924W        W18239  31.460  29.663  12.475
45925W        W18240  36.990  37.475   2.782
45926W        W18241  12.267  13.821   0.932
45927W        W18242  23.174  14.754   3.650
45928W        W18243  28.145  24.648   0.363
45929W        W18244   9.763  39.867  13.840
45930W        W18245  17.750   9.815   1.356
45931W        W18246  17.648  14.166  13.857
45932W        W18247  44.260  29.517   4.161
45933W        W18248  38.932  35.876   0.780
45934W        W18249  25.135   5.275  11.988
45935W        W18250  37.859  26.089   2.238
45936W        W18251  14.338  20.167  12.384
45937W        W18252  19.053  26.624  11.080
45938W        W18253  15.631  37.857  14.880
45939W        W18254   6.730  34.034   4.343
45940W        W18255  12.826   9.157  13.905
45941W        W18256   0.390  23.675   4.197
45942W        W18257  30.492  38.420  14.376
45943W        W18258   5.406  34.489  14.470
45944W        W18259  21.047  16.611   4.651
45945W        W18260  38.041  31.483  10.445
45946W        W18261  11.341  26.463   3.187
45947W        W18262  20.636  17.267  10.562
45948W        W18263  20.056  35.456  12.354
45949W        W18264  22.093  28.517  13.037
45950W        W18265   0.382   9.686   3.289
45951W        W18266  23.114  33.622   4.201
45952W        W18267  34.390  21.159   4.139
45953W        W18268   7.804  42.967  11.073
45954W        W18269  22.232  19.690   4.209
45955W        W18270  31.128  35.592  13.922
45956W        W18271   6.912  42.481   0.452
45957W        W18272  25.029  30.507  13.540
45958W        W18273  17.771  12.766   1.247
45959W        W18274   6.220  39.051   9.969
45960W        W18275  21.211  38.496  12.082
45961W        W18276  30.563  12.274  14.355
45962W        W18277  33.453   2.237  11.015
45963W        W18278  44.401  10.716  12.024
45964W        W18279  44.989  43.338  13.313
45965W        W18280  31.008  41.971   2.853
45966W        W18281   0.367  11.687  10.542
45967W        W18282   7.214  39.469   3.840
45968W        W18283  17.573   0.487  11.999
45969W        W18284  40.840  18.688  11.886
45970W        W18285  14.293  23.183  14.777
45971W        W18286   1.813  32.097  10.535
45972W        W18287  39.901   5.377  13.387
45973W        W18288  24.545  24.479   0.310
45974W        W18289  27.947   1.815   0.473
45975W        W18290   4.421  32.130   3.266
45976W        W18291  20.142  13.696   0.806
45977W        W18292  31.125  12.273   4.184
45978W        W18293  18.738   3.321   3.785
45979W        W18294  32.082  13.204  12.570
45980W        W18295  27.015   8.351   3.367
45981W        W18296  29.111  38.963  11.057
45982W        W18297  22.600  35.501  13.004
45983W        W18298  12.674   8.251   2.249
45984W        W18299  34.092   3.388  12.096
45985W        W18300  15.808  34.461   2.298
45986W        W18301  23.139  35.493   2.260
45987W        W18302  26.539  28.027   2.208
45988W        W18303  19.117   2.946  11.095
45989W        W18304  17.065  43.338   3.721
45990W        W18305  15.644  18.702   1.256
45991W        W18306  22.597  38.983  14.899
45992W        W18307  43.948  31.512   1.296
45993W        W18308  22.599   6.694  12.371
45994W        W18309  43.305  11.159   3.802
45995W        W18310   4.709  41.855   4.224
45996W        W18311  36.489  16.191  11.411
45997W        W18312  30.118  26.597   3.167
45998W        W18313  16.175  35.377   0.420
45999W        W18314   3.820  32.454  14.297
46000W        W18315   1.908  27.523   4.175
46001W        W18316  20.557  27.472   0.849
46002W        W18317  37.833  28.080   0.929
46003W        W18318   0.906  38.460  10.487
46004W        W18319   0.427   9.169   1.746
46005W        W18320  12.192  24.641   3.863
46006W        W18321  37.860   8.250   1.742
46007W        W18322   6.189  10.687  12.574
46008W        W18323   4.743  34.477   3.715
46009W        W18324   5.342  20.227   1.908
46010W        W18325  26.464  13.722  12.555
46011W        W18326  23.083  43.475  12.994
46012W        W18327  34.049  18.228  14.785
46013W        W18328  39.527  30.972  12.437
46014W        W18329  34.113  17.136  14.938
46015W        W18330  41.465  39.492   4.243
46016W        W18331   8.332  35.986   3.335
46017W        W18332   6.401   8.687  10.567
46018W        W18333  20.652  23.213  12.403
46019W        W18334   3.824  15.217  14.968
46020W        W18335  13.326   8.381  13.029
46021W        W18336  20.097  15.577  13.474
46022W        W18337   8.241  33.005  10.430
46023W        W18338   3.902  16.713   4.834
46024W        W18339   3.398  30.495  11.915
46025W        W18340  41.855  15.687   4.319
46026W        W18341  23.190  37.933   1.320
46027W        W18342   6.836  31.049  11.582
46028W        W18343  12.134  33.016   3.784
46029W        W18344  15.716  17.278   0.304
46030W        W18345  36.367   2.395  12.553
46031W        W18346   8.280  28.472   4.327
46032W        W18347  28.037  33.436  12.497
46033W        W18348  44.401  18.234   5.194
46034W        W18349  29.587  33.506   0.941
46035W        W18350  26.986  26.536  11.005
46036W        W18351  36.534  41.467   0.368
46037W        W18352  33.911  32.429  12.070
46038W        W18353   4.885  16.789   4.172
46039W        W18354  39.541  30.598  11.527
46040W        W18355   5.414  14.206   4.763
46041W        W18356   0.296  24.147  11.069
46042W        W18357  31.480  35.602   1.303
46043W        W18358  13.634  13.703   2.901
46044W        W18359   0.331  28.447   4.687
46045W        W18360  23.647  42.408  11.417
46046W        W18361   4.289  41.012   1.392
46047W        W18362  13.699  27.982   0.454
46048W        W18363  35.581  18.284   4.211
46049W        W18364  14.607  43.791  12.466
46050W        W18365  20.127  43.775  13.921
46051W        W18366   0.384  24.179   3.838
46052W        W18367   6.922  30.569   3.737
46053W        W18368  17.103  24.049   4.649
46054W        W18369  17.659  27.059   1.275
46055W        W18370  20.626   8.865   1.865
46056W        W18371   5.822   8.729  14.431
46057W        W18372  26.564  14.627   0.359
46058W        W18373  17.801  21.690   1.403
46059W        W18374  36.567  43.878  10.483
46060W        W18375  17.693  14.203  11.965
46061W        W18376  10.744  25.077  13.989
46062W        W18377   2.750   3.745  14.923
46063W        W18378  15.816   7.896   3.817
46064W        W18379  15.327  41.835   4.118
46065W        W18380  30.432  32.032   1.799
46066W        W18381  30.625   3.426  12.558
46067W        W18382  16.603  42.934  14.991
46068W        W18383  20.044   0.984   1.243
46069W        W18384   2.420  35.964  13.384
46070W        W18385  39.973  15.784   0.364
46071W        W18386  22.101  12.158   0.938
46072W        W18387  21.239  11.837  10.489
46073W        W18388   7.324  21.053   1.862
46074W        W18389  35.426  35.559   1.363
46075W        W18390   6.682  34.062  12.941
46076W        W18391  40.394  14.650  14.476
46077W        W18392  12.781  36.496  11.071
46078W        W18393  43.015  27.649  12.985
46079W        W18394  31.909  36.851  13.854
46080W        W18395  27.004  39.335  12.361
46081W        W18396  36.353  27.105  11.421
46082W        W18397  26.155   5.857   2.383
46083W        W18398  19.545  26.490   5.204
46084W        W18399   3.241  10.265   0.324
46085W        W18400  37.886  35.888  13.933
46086W        W18401  23.216   7.785   3.868
46087W        W18402  21.129  15.136   2.750
46088W        W18403  11.791   3.256  14.373
46089W        W18404  39.514  40.935  14.323
46090W        W18405  28.543  32.418  10.038
46091W        W18406   6.234  24.217  13.336
46092W        W18407  26.095   5.241   1.257
46093W        W18408  43.865  24.587  13.351
46094W        W18409  14.124   5.887   3.322
46095W        W18410   4.384  34.432   0.792
46096W        W18411  32.934  37.004   2.690
46097W        W18412  10.663  44.982  12.556
46098W        W18413  43.842   2.813   2.256
46099W        W18414  16.674   7.315  11.016
46100W        W18415  42.810   0.353   1.248
46101W        W18416   0.373  27.609   4.726
46102W        W18417  24.690  24.997   0.446
46103W        W18418  38.930  32.618   0.963
46104W        W18419  23.693  31.920  14.514
46105W        W18420  30.096  16.308   0.267
46106W        W18421  20.689   0.749   1.287
46107W        W18422  18.164  31.925  14.447
46108W        W18423   4.207  44.426  12.994
46109W        W18424  12.689  39.999   2.771
46110W        W18425  27.611  23.078  11.465
46111W        W18426   9.220  44.453   3.181
46112W        W18427   7.309  18.720  13.449
46113W        W18428  13.704  13.707   3.659
46114W        W18429   9.154  38.872  11.609
46115W        W18430  31.490  17.182   3.808
46116W        W18431  20.738  15.822   3.790
46117W        W18432  38.917  22.587  11.565
46118W        W18433  32.022  12.786  14.825
46119W        W18434   6.272  24.595  14.457
46120W        W18435  40.366   2.811   0.938
46121W        W18436  26.657  39.890   3.672
46122W        W18437  43.282  11.796   4.327
46123W        W18438  38.425   4.232   4.703
46124W        W18439   2.378  44.801   2.284
46125W        W18440  35.868   9.808   1.877
46126W        W18441  28.041  40.891   0.943
46127W        W18442  19.609  10.368  12.879
46128W        W18443   4.227  21.052  12.053
46129W        W18444  24.147  19.056   4.637
46130W        W18445  29.648   9.297  10.458
46131W        W18446  10.786  34.978  10.981
46132W        W18447  35.079  17.712  12.516
46133W        W18448  30.160  26.628   4.612
46134W        W18449  26.197   4.786  13.869
46135W        W18450   2.877  20.676  14.760
46136W        W18451  33.978  34.892  14.296
46137W        W18452  25.157  43.955  14.922
46138W        W18453   8.787  43.277   4.335
46139W        W18454  25.512  38.541  11.473
46140W        W18455  18.149   9.728   1.291
46141W        W18456  21.073  11.833   2.782
46142W        W18457   6.209  16.309   1.391
46143W        W18458   4.924  13.108   0.308
46144W        W18459   7.878  28.530  14.872
46145W        W18460   3.418  42.428  14.976
46146W        W18461  35.062  20.686   2.315
46147W        W18462  15.323   6.708   1.814
46148W        W18463   2.875  27.462  11.382
46149W        W18464   7.404   5.320  11.866
46150W        W18465   9.744  37.574  10.590
46151W        W18466  22.690   9.370   3.340
46152W        W18467  26.001   1.889   4.798
46153W        W18468   6.864  26.544   2.844
46154W        W18469  17.578  38.026  12.957
46155W        W18470  40.954  12.361   3.851
46156W        W18471  39.851  39.904  14.933
46157W        W18472  27.573   8.164   3.288
46158W        W18473   4.314  44.460  11.973
46159W        W18474   0.986  28.115   0.426
46160W        W18475  10.648  32.481  12.562
46161W        W18476   1.830  30.004   2.364
46162W        W18477  24.124  10.642   4.644
46163W        W18478  17.587   6.366   1.743
46164W        W18479  29.069  35.408  13.793
46165W        W18480  15.220  37.882  11.955
46166W        W18481  42.443  16.271   4.721
46167W        W18482  29.948   2.404  11.112
46168W        W18483  39.956   5.786  10.994
46169W        W18484   0.754  20.224   3.678
46170W        W18485  11.740   2.753  11.593
46171W        W18486   7.739  12.170   1.305
46172W        W18487  39.860  15.748  11.461
46173W        W18488   9.758  13.779  13.023
46174W        W18489   4.291   7.799  13.867
46175W        W18490   3.454  23.127   4.747
46176W        W18491   9.815  14.597   4.256
46177W        W18492  25.051   6.693  10.966
46178W        W18493   5.194   7.736  10.541
46179W        W18494   2.386  12.726   3.366
46180W        W18495  40.436  36.844  14.875
46181W        W18496  34.038  19.718  12.042
46182W        W18497  28.654  21.633  11.978
46183W        W18498   1.319  33.549  14.928
46184W        W18499  30.602  29.166   1.440
46185W        W18500  43.382  10.782  12.892
46186W        W18501   6.790  21.632  11.905
46187W        W18502   5.353  30.109  11.869
46188W        W18503  36.983  15.144  11.869
46189W        W18504  27.536  14.182   0.387
46190W        W18505   3.750  33.551  10.977
46191W        W18506  28.494   9.275  11.563
46192W        W18507  18.755  33.070   2.813
46193W        W18508  37.381  13.180  12.862
46194W        W18509  41.862  43.491   4.613
46195W        W18510   7.747  32.102  11.883
46196W        W18511   6.270  26.678  10.918
46197W        W18512  24.577  26.692  12.571
46198W        W18513  39.836  41.485  13.933
46199W        W18514  26.027  14.157  13.018
46200W        W18515  26.658   8.788  10.569
46201W        W18516  44.905  18.589  11.093
46202W        W18517   8.780  15.696   2.733
46203W        W18518  33.426  44.999   2.814
46204W        W18519   3.429   5.731   1.891
46205W        W18520  29.456   7.369  13.854
46206W        W18521  42.449   9.651  10.575
46207W        W18522  44.985  12.272   0.832
46208W        W18523  18.681  41.511   0.774
46209W        W18524   3.257  34.000   4.202
46210W        W18525  23.210  25.153   0.782
46211W        W18526  40.374  15.176   2.861
46212W        W18527   7.786  12.836   1.697
46213W        W18528  22.563  41.895   0.373
46214W        W18529   5.308  41.885   3.259
46215W        W18530   9.768   6.698   0.788
46216W        W18531  17.084  30.586   5.142
46217W        W18532  42.380  14.252   2.281
46218W        W18533  21.074  15.716  13.846
46219W        W18534  44.360  31.433  11.984
46220W        W18535  28.102  12.672  10.088
46221W        W18536  24.514  37.989  11.448
46222W        W18537  40.883  11.667  13.025
46223W        W18538  33.415  25.028  13.484
46224W        W18539  40.035  25.101   3.205
46225W        W18540  38.970  35.865   0.395
46226W        W18541  28.152   6.871  13.905
46227W        W18542  19.774  35.032   0.312
46228W        W18543  15.301  23.543   2.398
46229W        W18544   7.274  26.606  12.433
46230W        W18545  15.653  18.646   0.256
46231W        W18546   2.447  19.567   1.901
46232W        W18547  38.946   5.815  13.484
46233W        W18548   6.290  33.076  14.975
46234W        W18549  22.088  15.230   3.690
46235W        W18550  34.407  15.285  11.547
46236W        W18551  34.032  36.887   2.214
46237W        W18552  34.958  44.352   2.671
46238W        W18553  24.715  42.031   1.896
46239W        W18554  32.038  29.029   1.327
46240W        W18555   0.931  28.031   3.175
46241W        W18556  13.680  21.617  13.962
46242W        W18557  41.010  33.905  12.478
46243W        W18558   6.327  16.179  14.937
46244W        W18559   5.264  16.793   3.324
46245W        W18560  34.080  19.159  13.862
46246W        W18561  41.998  12.822  10.444
46247W        W18562  44.875  37.072  11.034
46248W        W18563   5.231   2.431  11.918
46249W        W18564  36.457   1.917  10.031
46250W        W18565  43.985  29.014   1.440
46251W        W18566  33.999  18.725   1.897
46252W        W18567  19.111  40.514  14.012
46253W        W18568  28.130  24.635  10.518
46254W        W18569  42.432   7.713  11.040
46255W        W18570  11.225  38.448   4.346
46256W        W18571  21.018  35.908  10.128
46257W        W18572  27.162  41.890   4.740
46258W        W18573  35.394   1.905   4.611
46259W        W18574  18.230  28.042   1.406
46260W        W18575   0.309   2.902   4.727
46261W        W18576  10.776  15.094   4.745
46262W        W18577   9.866  33.990  13.859
46263W        W18578  32.887  37.920   4.167
46264W        W18579  17.230   1.281   4.272
46265W        W18580  28.512   2.826   3.769
46266W        W18581   0.388  24.147  12.090
46267W        W18582   2.896  22.618  10.621
46268W        W18583  18.577  27.535  10.493
46269W        W18584  29.488  22.222  13.423
46270W        W18585  10.670  17.609  12.991
46271W        W18586  26.109  29.109  11.549
46272W        W18587   6.831   9.679  12.841
46273W        W18588   2.798  14.283   2.713
46274W        W18589   8.707  43.868  13.427
46275W        W18590  23.993  20.263  10.571
46276W        W18591  34.086  26.696  11.883
46277W        W18592  23.673  35.458   3.648
46278W        W18593  11.178  40.898   3.745
46279W        W18594   9.226  39.461   0.967
46280W        W18595  17.571  34.050   4.275
46281W        W18596  29.060   8.892   0.414
46282W        W18597  29.034  16.574  10.952
46283W        W18598  39.997  19.634  14.360
46284W        W18599   5.415   0.267  11.031
46285W        W18600   0.966   3.749  12.036
46286W        W18601   0.486  18.144  12.913
46287W        W18602  13.799  27.068   1.438
46288W        W18603   2.397  13.281   0.429
46289W        W18604  25.965  27.147   2.899
46290W        W18605   5.802  18.238  13.512
46291W        W18606  27.498  11.696  12.076
46292W        W18607  38.047  40.312   1.278
46293W        W18608  34.887  34.981   3.670
46294W        W18609   3.384  27.680   3.207
46295W        W18610  29.091  35.500   3.740
46296W        W18611   0.487  28.525   0.475
46297W        W18612  19.192  11.181   4.178
46298W        W18613  41.910  28.463  10.538
46299W        W18614  44.896  25.483  11.044
46300W        W18615  11.212  40.957   1.817
46301W        W18616  21.213  16.153   0.348
46302W        W18617  14.232  26.206   1.220
46303W        W18618  18.714   3.849  10.464
46304W        W18619   2.786   0.285   2.817
46305W        W18620  44.290  21.697  14.440
46306W        W18621   0.898  43.838   1.351
46307W        W18622  44.817  35.519   4.623
46308W        W18623   6.315  25.641   3.284
46309W        W18624  14.124  14.714   3.385
46310W        W18625  10.157  32.565   0.817
46311W        W18626  26.988  44.963  14.400
46312W        W18627  42.424   3.820  12.832
46313W        W18628  18.109  37.487  11.995
46314W        W18629  18.628  33.874   4.612
46315W        W18630  18.686  38.530  14.843
46316W        W18631  30.971  36.493   4.804
46317W        W18632  31.534  44.797   2.830
46318W        W18633  39.334  27.530   3.280
46319W        W18634  30.481   6.897   0.925
46320W        W18635   1.957  39.422  11.908
46321W        W18636  43.773  14.761   0.477
46322W        W18637   9.175  17.265   3.299
46323W        W18638  42.321   8.394   4.281
46324W        W18639  12.666  15.779  13.465
46325W        W18640   0.865  25.200  13.839
46326W        W18641  32.046  26.105  10.111
46327W        W18642   8.264   8.325  11.451
46328W        W18643   8.835  23.226   1.221
46329W        W18644  35.521  19.645   0.751
46330W        W18645  18.761  19.151   4.733
46331W        W18646  30.467  41.885  14.281
46332W        W18647  23.985  25.683   4.154
46333W        W18648  18.734  15.129  12.040
46334W        W18649   9.749  17.800   0.303
46335W        W18650  43.905  25.060   3.203
46336W        W18651  15.653   1.861  13.403
46337W        W18652  30.630  40.928   1.269
46338W        W18653  13.107  34.465   4.768
46339W        W18654  43.993  30.082   1.359
46340W        W18655  17.646  44.936   0.385
46341W        W18656   1.829  24.517   2.413
46342W        W18657  14.639  16.653   3.149
46343W        W18658  34.519   6.304  12.523
46344W        W18659  17.295  23.026  10.636
46345W        W18660  33.002  11.827  14.343
46346W        W18661  31.462  19.200  13.958
46347W        W18662   7.820  38.991  13.394
46348W        W18663  26.168  17.769   4.675
46349W        W18664  31.945  44.832   3.744
46350W        W18665  23.054  14.215   4.167
46351W        W18666   9.736  19.186   0.837
46352W        W18667  20.523  13.148   3.818
46353W        W18668  18.748  11.647   2.196
46354W        W18669  44.399  18.732  14.883
46355W        W18670  27.659  15.628  14.843
46356W        W18671  16.648  40.480   9.987
46357W        W18672  12.116   8.708  14.301
46358W        W18673  44.981  35.998   0.789
46359W        W18674  32.959  32.077  14.920
46360W        W18675  35.449   0.949  11.037
46361W        W18676  14.605  43.021  14.420
46362W        W18677  42.794  14.322  14.878
46363W        W18678   1.934  26.194  14.962
46364W        W18679   5.798  32.547  11.101
46365W        W18680  23.077  39.320  13.345
46366W        W18681  13.145   1.807   4.783
46367W        W18682  21.127  16.718   1.214
46368W        W18683  35.892  14.651  13.025
46369W        W18684  18.258   6.418   4.699
46370W        W18685  17.140   6.823  14.508
46371W        W18686  43.803  28.045  10.556
46372W        W18687   7.377  13.664   4.132
46373W        W18688  30.929  17.135   4.750
46374W        W18689  22.090  11.761  10.532
46375W        W18690  16.722   0.913   2.670
46376W        W18691  12.334   9.317  13.409
46377W        W18692  32.586  28.444   3.773
46378W        W18693   0.321  11.825  11.469
46379W        W18694  43.770  21.227  10.603
46380W        W18695  37.839  10.366   1.897
46381W        W18696  14.319  25.489   4.815
46382W        W18697   4.399  20.075  11.094
46383W        W18698  25.109  39.039  11.596
46384W        W18699  23.496  17.081  10.403
46385W        W18700   1.740   1.908  12.858
46386W        W18701  10.292   3.386   4.720
46387W        W18702  28.506  15.613   4.341
46388W        W18703   6.822  13.624   3.267
46389W        W18704  19.712  22.181   3.174
46390W        W18705  18.053   5.400   3.362
46391W        W18706   5.918  41.802   2.238
46392W        W18707  30.614  15.742   1.373
46393W        W18708   8.393  22.235  14.954
46394W        W18709  29.006  20.668  11.438
46395W        W18710  37.034  37.069  12.525
46396W        W18711  44.974  41.947   1.861
46397W        W18712  25.494  15.686   1.409
46398W        W18713  38.845  14.108  14.790
46399W        W18714   6.839  24.560  11.044
46400W        W18715  39.926   4.330  14.834
46401W        W18716  42.885  38.414  11.612
46402W        W18717  36.567  37.475   2.237
46403W        W18718  25.021  41.804  12.061
46404W        W18719  37.982   5.777   4.645
46405W        W18720  31.934  17.744   0.335
46406W        W18721   2.948   8.360  14.463
46407W        W18722  42.423  40.053  13.452
46408W        W18723   6.816   6.871  14.367
46409W        W18724  24.684  21.555  10.543
46410W        W18725  32.634   7.691   4.311
46411W        W18726  44.298  25.617   0.382
46412W        W18727  34.547  28.160  11.111
46413W        W18728  25.110   4.865   1.926
46414W        W18729   8.817  18.680   1.784
46415W        W18730  10.691  42.398   2.266
46416W        W18731  13.680   1.800  11.005
46417W        W18732   2.760  31.448   4.822
46418W        W18733  31.071  33.929  12.489
46419W        W18734  11.239  41.397   1.835
46420W        W18735   0.958  35.915  11.088
46421W        W18736  34.480  42.512   1.358
46422W        W18737  37.392  18.586  12.924
46423W        W18738  41.452  23.655   4.191
46424W        W18739  15.186   4.401  12.972
46425W        W18740  12.211  40.311   2.732
46426W        W18741   9.347  15.717  14.014
46427W        W18742   3.325  44.381   5.218
46428W        W18743  11.764  29.447  13.505
46429W        W18744   5.329   2.449   1.859
46430W        W18745  39.968  43.422  14.856
46431W        W18746  37.445   3.370  13.443
46432W        W18747  14.710  15.188  12.843
46433W        W18748  27.018  43.929  11.501
46434W        W18749   5.221  29.969   3.787
46435W        W18750  12.251   6.847   3.859
46436W        W18751   0.487  10.836   3.341
46437W        W18752  23.518  13.190   2.735
46438W        W18753  33.525  34.521  14.431
46439W        W18754  26.512  21.644   1.392
46440W        W18755   6.233  28.020   3.320
46441W        W18756   0.406  15.774  13.870
46442W        W18757  22.613   6.814   0.899
46443W        W18758  40.502  29.559   4.643
46444W        W18759  22.643  13.305  14.871
46445W        W18760  44.325  39.035  11.951
46446W        W18761  11.707  33.006   3.160
46447W        W18762  12.714  31.529   0.959
46448W        W18763  37.576  41.866   0.480
46449W        W18764  13.669  29.427  12.883
46450W        W18765  39.879  31.469   0.900
46451W        W18766  40.958  16.311   2.202
46452W        W18767  17.196  13.840  12.934
46453W        W18768  40.966  16.667  13.463
46454W        W18769  32.031  32.122  11.096
46455W        W18770  40.483   7.847  12.048
46456W        W18771  32.470  19.154  13.052
46457W        W18772  17.648  10.840   0.262
46458W        W18773  19.534  36.935  11.984
46459W        W18774  42.781  13.636  10.566
46460W        W18775  32.028  16.798   1.221
46461W        W18776  19.261   6.774  13.801
46462W        W18777  27.668   3.347   9.496
46463W        W18778  13.282  29.104   0.309
46464W        W18779  19.225   7.299  10.046
46465W        W18780  14.333  30.609   1.236
46466W        W18781  31.048  14.113  12.401
46467W        W18782   2.909  43.472   2.702
46468W        W18783  27.536  32.129   9.993
46469W        W18784  43.406   3.370  11.552
46470W        W18785   0.949  27.961  11.456
46471W        W18786   0.965  44.850  10.555
46472W        W18787  39.476  19.251   4.797
46473W        W18788  18.254  33.893  12.937
46474W        W18789  12.660  29.171  11.061
46475W        W18790  20.621  30.511   4.123
46476W        W18791   6.230   7.791   2.411
46477W        W18792  16.093   8.665   3.297
46478W        W18793  22.617  31.634   1.433
46479W        W18794   3.382  31.597   3.766
46480W        W18795   3.891  38.938  11.064
46481W        W18796  20.033  12.243   3.332
46482W        W18797  23.204  24.649   3.267
46483W        W18798  30.047  31.948   0.882
46484W        W18799  28.941  19.638  10.417
46485W        W18800  32.021  16.134  11.986
46486W        W18801  28.062  16.643  10.564
46487W        W18802  21.262   9.293  14.866
46488W        W18803  38.358  11.277   0.337
46489W        W18804  21.586   8.866  11.970
46490W        W18805  21.539  10.255  13.907
46491W        W18806  27.957  35.422  14.276
46492W        W18807  18.169   9.187   3.173
46493W        W18808  10.817  11.187   4.181
46494W        W18809  44.477  31.402   3.762
46495W        W18810  28.996  27.138   2.256
46496W        W18811  34.582  19.772  12.896
46497W        W18812   1.757  19.076   0.284
46498W        W18813  39.557   4.701   0.300
46499W        W18814   3.301   9.759   2.828
46500W        W18815  32.991  13.843   3.224
46501W        W18816  14.130  17.603   1.394
46502W        W18817  39.836  36.538  14.833
46503W        W18818  29.067  15.179  12.060
46504W        W18819  34.099   8.833   0.790
46505W        W18820  37.429  12.817  13.971
46506W        W18821   0.490  14.310  10.509
46507W        W18822  40.894  36.360  12.052
46508W        W18823  13.709  44.498  13.795
46509W        W18824   4.438  22.174  10.963
46510W        W18825  34.376  21.537   4.655
46511W        W18826  35.384  32.570   3.784
46512W        W18827  34.504  13.201   0.798
46513W        W18828  14.713  30.536   4.652
46514W        W18829  11.714   1.393  10.568
46515W        W18830  13.775  23.008  14.359
46516W        W18831  26.954  37.845   2.698
46517W        W18832   5.362   1.967   0.954
46518W        W18833  33.583  42.335  10.928
46519W        W18834  21.586  34.937   1.908
46520W        W18835   1.763  34.967  12.974
46521W        W18836   4.816  19.225   4.304
46522W        W18837  12.356  29.928  14.837
46523W        W18838  15.724   6.186   3.861
46524W        W18839  26.075  41.393   2.228
46525W        W18840  14.807  14.735   2.672
46526W        W18841  29.966  42.413   2.868
46527W        W18842  12.195   1.841   1.304
46528W        W18843  28.996  18.600  14.811
46529W        W18844  44.780  26.981  14.775
46530W        W18845   5.372  40.386   3.368
46531W        W18846  35.082  10.179   4.652
46532W        W18847  43.278  39.876  10.049
46533W        W18848  42.958  17.741   0.302
46534W        W18849  12.175  27.987   1.914
46535W        W18850  37.398   1.909  10.043
46536W        W18851  30.448  36.927   2.823
46537W        W18852  21.727  32.523  14.470
46538W        W18853  29.984  15.132   2.890
46539W        W18854  23.198  19.208  14.019
46540W        W18855  17.153  41.043   0.946
46541W        W18856  24.067  38.341  14.347
46542W        W18857  20.183  10.262  14.408
46543W        W18858  27.581  20.206  11.583
46544W        W18859  35.369   9.659  13.419
46545W        W18860  20.680  33.125   1.288
46546W        W18861  38.464  21.574  12.082
46547W        W18862  26.185  33.921  11.011
46548W        W18863  22.114   2.760   2.751
46549W        W18864  24.097   1.453  10.932
46550W        W18865  26.633  14.705   2.407
46551W        W18866  24.188  36.347   3.714
46552W        W18867  35.459   1.951   0.456
46553W        W18868  11.747  18.634  11.119
46554W        W18869  20.628  32.044   4.733
46555W        W18870  37.397  38.533  14.496
46556W        W18871  36.553  27.469   3.174
46557W        W18872  36.852  21.523   3.845
46558W        W18873  32.603  29.055  11.599
46559W        W18874  26.636  25.600  13.421
46560W        W18875  44.796   4.353  14.402
46561W        W18876  13.617  12.128  10.524
46562W        W18877  20.263  42.462  13.387
46563W        W18878  33.420   0.425   0.395
46564W        W18879  27.528  33.021  13.315
46565W        W18880  17.599   8.360  14.830
46566W        W18881  32.937  35.401  11.970
46567W        W18882   6.894  20.185  14.419
46568W        W18883   7.712   9.278   2.330
46569W        W18884  14.234  15.128   0.331
46570W        W18885  10.658   4.738   3.198
46571W        W18886  12.173  12.613  13.511
46572W        W18887  19.058   7.836   5.223
46573W        W18888  38.883   4.885  11.426
46574W        W18889  19.240  14.644  13.333
46575W        W18890   8.285  28.087  12.569
46576W        W18891  31.111   8.352   1.775
46577W        W18892  37.345  22.138   9.935
46578W        W18893   6.861  27.190   3.155
46579W        W18894  24.690  24.047  10.918
46580W        W18895  17.174  28.557  12.920
46581W        W18896  35.422  39.954  10.910
46582W        W18897  26.634  34.609   4.242
46583W        W18898  40.374  17.154   3.200
46584W        W18899  22.244  26.092   0.794
46585W        W18900  44.337  44.417   5.195
46586W        W18901  22.023   2.315   1.792
46587W        W18902  39.477  41.951   3.778
46588W        W18903  20.106  27.551  14.501
46589W        W18904   1.342  23.137  14.840
46590W        W18905  17.605  21.108   2.229
46591W        W18906   2.750  21.141  14.391
46592W        W18907  29.513  14.320   4.281
46593W        W18908  20.725  20.087   3.349
46594W        W18909  10.845   0.764  14.311
46595W        W18910  21.089  12.635  13.983
46596W        W18911  12.320  23.117   0.846
46597W        W18912  20.700  30.156  12.539
46598W        W18913  31.978  30.908   4.285
46599W        W18914   3.425  27.588   4.737
46600W        W18915  34.516  31.483  12.840
46601W        W18916   0.865   9.257  14.990
46602W        W18917  38.554  11.241  14.802
46603W        W18918   9.296  16.218  10.462
46604W        W18919  27.525  37.025   2.318
46605W        W18920  39.492  42.016  14.363
46606W        W18921  32.101  12.361  14.489
46607W        W18922   1.951   3.718  14.282
46608W        W18923  12.853   9.265   2.719
46609W        W18924  42.015   7.718  11.990
46610W        W18925  41.915  40.849  11.033
46611W        W18926  42.827  30.555  14.846
46612W        W18927   5.204   3.390  11.478
46613W        W18928   6.747   8.787  12.921
46614W        W18929  40.469  33.102   0.841
46615W        W18930  27.551   6.308   1.829
46616W        W18931  12.708  14.287  12.003
46617W        W18932  28.006  26.634   5.302
46618W        W18933  16.612  22.155   3.729
46619W        W18934  34.030   1.365  13.425
46620W        W18935  19.065  15.680  11.929
46621W        W18936  36.863  19.613  11.446
46622W        W18937  23.073   8.704   2.296
46623W        W18938  36.882  40.836  14.930
46624W        W18939  34.038  20.178   4.235
46625W        W18940   7.365  34.949  12.844
46626W        W18941  20.112   4.409  10.929
46627W        W18942  29.135  44.456  11.940
46628W        W18943  25.700   5.832  12.932
46629W        W18944  31.570  17.590  11.532
46630W        W18945  26.576   1.449   0.918
46631W        W18946  17.749  16.093  13.925
46632W        W18947  11.686   0.323  10.610
46633W        W18948  35.358  26.466  14.275
46634W        W18949  15.583  27.470  10.534
46635W        W18950  38.991   1.429  11.866
46636W        W18951  10.261   8.289   2.348
46637W        W18952   5.380  10.287   3.734
46638W        W18953  18.675  28.556  11.040
46639W        W18954  34.377  17.151   0.782
46640W        W18955   7.690   2.907   1.339
46641W        W18956  43.868  26.465  13.370
46642W        W18957  30.119   8.267   2.270
46643W        W18958  13.214  18.675   4.325
46644W        W18959  28.953   7.226   0.372
46645W        W18960  30.159   1.276  14.875
46646W        W18961  44.872  42.934  11.868
46647W        W18962   1.280  41.518  12.971
46648W        W18963   6.830  42.511   0.945
46649W        W18964  32.107  10.282  10.621
46650W        W18965  34.090  42.846   2.197
46651W        W18966  38.360   9.202  14.301
46652W        W18967   5.258  23.579  13.484
46653W        W18968   7.190  36.961  13.522
46654W        W18969   7.674  28.184   1.426
46655W        W18970  18.102   4.929   3.806
46656W        W18971  38.025  23.126   2.686
46657W        W18972  31.009  37.041   0.244
46658W        W18973  36.977   3.716  10.507
46659W        W18974  19.717  36.378  12.090
46660W        W18975  16.161  13.251   1.320
46661W        W18976  35.542  14.319  11.439
46662W        W18977  19.766  24.634   0.451
46663W        W18978  18.262  20.123   1.917
46664W        W18979  33.564   8.170  13.025
46665W        W18980   3.333   0.768  12.867
46666W        W18981   4.315   7.875   0.792
46667W        W18982  21.114   2.327  10.534
46668W        W18983  14.655  23.667   4.146
46669W        W18984   2.920  17.236   1.314
46670W        W18985  18.622   3.441   1.338
46671W        W18986  16.115  33.912   4.608
46672W        W18987  22.571  40.449   1.294
46673W        W18988  19.260  44.454  11.034
46674W        W18989  34.913   7.351  12.908
46675W        W18990  21.198  24.674   3.331
46676W        W18991   9.167  14.296  11.447
46677W        W18992  14.154  15.721   0.839
46678W        W18993  22.196   2.721   1.396
46679W        W18994  36.466  39.959   2.221
46680W        W18995  19.703  32.612  14.987
46681W        W18996  32.625  10.305   0.907
46682W        W18997  12.610   9.837   3.146
46683W        W18998  38.050  37.362   9.928
46684W        W18999  12.250  34.952   4.776
46685W        W19000   0.355  15.184  14.828
46686W        W19001  31.508  17.112  14.779
46687W        W19002  34.874  18.294   4.766
46688W        W19003  27.940  19.659   0.859
46689W        W19004  29.588   2.342  12.576
46690W        W19005  21.061  34.020  12.033
46691W        W19006  38.413   9.865  14.817
46692W        W19007   6.253  10.357   4.617
46693W        W19008   1.823  44.771  10.995
46694W        W19009  28.572  10.712  13.460
46695W        W19010  42.510   3.903   4.341
46696W        W19011  18.591  41.823  12.073
46697W        W19012  39.516   1.266  13.454
46698W        W19013  41.965   4.208   4.822
46699W        W19014  37.508  33.547   2.353
46700W        W19015  33.083   0.862   1.830
46701W        W19016  13.687   5.299   4.239
46702W        W19017  22.651   9.276   0.438
46703W        W19018   1.763   4.735   2.401
46704W        W19019  31.418  13.217   2.245
46705W        W19020  22.054   1.373   2.315
46706W        W19021  13.215  15.151   4.113
46707W        W19022   0.800  29.651  10.540
46708W        W19023   3.335   5.887   4.283
46709W        W19024  27.517   4.699  11.042
46710W        W19025  36.969  24.018  14.936
46711W        W19026  12.828  44.984  11.584
46712W        W19027  44.858  44.939   3.159
46713W        W19028   0.281  43.914   1.709
46714W        W19029  25.585  35.597   3.270
46715W        W19030  28.533  21.166   1.437
46716W        W19031   6.788  13.275   3.276
46717W        W19032  16.707   8.697   5.280
46718W        W19033  36.447  21.214   4.151
46719W        W19034  19.174  28.491  11.426
46720W        W19035  33.945  33.104  12.963
46721W        W19036  28.979   6.687  10.597
46722W        W19037  37.464  27.623   0.422
46723W        W19038  21.723  34.919  13.829
46724W        W19039   9.248  24.117   1.259
46725W        W19040  29.969  18.221  13.934
46726W        W19041  32.444  44.497  14.336
46727W        W19042   9.687  18.565  13.915
46728W        W19043  17.557   8.401   1.907
46729W        W19044  16.282  42.339   1.369
46730W        W19045  11.693   8.245   2.180
46731W        W19046   6.680  15.671   4.623
46732W        W19047   5.698  34.077   1.272
46733W        W19048  27.964  10.822   0.400
46734W        W19049  20.061  29.505  14.970
46735W        W19050  24.513  17.064   1.767
46736W        W19051  41.845   1.903   9.990
46737W        W19052   8.336  33.942  12.952
46738W        W19053  19.778  44.894   4.711
46739W        W19054  40.024  44.802  14.786
46740W        W19055  13.730  43.861   4.271
46741W        W19056  40.529  33.562   4.256
46742W        W19057   5.369  23.672   2.749
46743W        W19058  38.516  32.080  11.950
46744W        W19059   6.796  40.328   1.295
46745W        W19060   9.853   1.476   2.762
46746W        W19061  40.919  24.045   2.292
46747W        W19062  36.067  35.542   0.410
46748W        W19063   7.354   1.265   3.749
46749W        W19064  38.966  14.640  13.525
46750W        W19065  30.503  44.906   0.300
46751W        W19066  19.712  11.274   2.182
46752W        W19067   9.686  34.117  14.440
46753W        W19068   9.224  16.680  10.622
46754W        W19069  26.006  38.058   2.375
46755W        W19070  26.567  37.988  13.530
46756W        W19071  15.289  23.683   4.688
46757W        W19072  11.222   7.906   2.801
46758W        W19073  41.000  32.565   3.837
46759W        W19074  19.742   1.896   2.870
46760W        W19075   1.329   2.755   0.805
46761W        W19076  28.944   4.796  10.565
46762W        W19077   8.193  20.540   4.204
46763W        W19078  17.671  21.712  13.879
46764W        W19079   7.673  35.419   0.768
46765W        W19080  14.601   0.386   0.273
46766W        W19081  42.861  43.807   1.352
46767W        W19082  19.546  26.556  11.529
46768W        W19083   0.303  11.641  13.470
46769W        W19084  29.500  32.556  11.080
46770W        W19085  34.951   1.914   0.741
46771W        W19086  30.510  31.570  13.338
46772W        W19087  11.683  17.618   4.753
46773W        W19088  12.628  32.427   3.303
46774W        W19089  12.320  41.435   4.602
46775W        W19090   0.897  41.906  11.014
46776W        W19091  34.395  41.491   1.262
46777W        W19092  14.688  31.499   4.765
46778W        W19093  35.416  32.410   4.347
46779W        W19094  28.495  34.460   3.807
46780W        W19095  13.733  34.379  12.892
46781W        W19096  42.953  33.592  12.564
46782W        W19097  28.065  13.756   3.151
46783W        W19098  44.360  24.044  13.826
46784W        W19099  32.093  38.011   1.294
46785W        W19100  20.108  23.007  10.521
46786W        W19101  24.008   6.320  13.481
46787W        W19102  30.089  30.531  12.488
46788W        W19103  43.773  25.646  14.380
46789W        W19104  35.400   3.810  14.453
46790W        W19105  19.682  31.511  12.365
46791W        W19106  30.605  18.233  10.514
46792W        W19107  32.615  31.522   2.781
46793W        W19108  21.070  19.083   0.389
46794W        W19109  35.571  27.450  10.964
46795W        W19110  27.986  36.465   2.685
46796W        W19111  30.603   1.271   2.815
46797W        W19112  17.081  37.416   3.711
46798W        W19113  32.923  34.507  11.897
46799W        W19114  21.040  17.650   4.714
46800W        W19115   0.787  42.407   0.960
46801W        W19116  39.397  31.028   1.802
46802W        W19117   7.712  16.762  10.643
46803W        W19118  42.414   5.370   2.706
46804W        W19119   7.802  39.909   1.392
46805W        W19120  15.264  14.206  14.938
46806W        W19121   2.454   8.691   2.233
46807W        W19122  29.994  11.149  14.360
46808W        W19123  28.034   1.782  11.972
46809W        W19124   5.739  23.735  13.840
46810W        W19125   2.330   8.659   0.770
46811W        W19126  10.186  43.351   1.449
46812W        W19127  39.048   7.357  12.977
46813W        W19128  10.875   7.775   2.786
46814W        W19129  36.022  25.534   1.281
46815W        W19130   8.213  26.610   3.634
46816W        W19131  39.926  42.891   3.366
46817W        W19132   6.732  32.079   4.757
46818W        W19133  27.080  22.596  13.008
46819W        W19134   9.211  37.485   4.824
46820W        W19135  25.638  22.724   3.771
46821W        W19136  13.695  15.586   1.810
46822W        W19137  25.983  14.774   1.281
46823W        W19138   5.229  38.905   0.378
46824W        W19139  24.589  23.650   1.280
46825W        W19140  36.526   1.424  12.900
46826W        W19141  21.097   5.810   2.240
46827W        W19142   6.327  26.538   1.815
46828W        W19143  10.735  20.594  13.938
46829W        W19144  18.235  20.032  11.422
46830W        W19145  17.600  38.894  12.842
46831W        W19146  18.782   3.744  11.095
46832W        W19147  11.253  44.279   1.932
46833W        W19148  21.634   1.368  11.451
46834W        W19149  21.520  18.176   3.161
46835W        W19150  22.204  43.382   1.436
46836W        W19151   9.730  18.074   4.704
46837W        W19152  16.306  35.891  13.449
46838W        W19153  17.622  13.256  12.997
46839W        W19154  32.520  16.803  12.925
46840W        W19155   4.290  16.646   1.435
46841W        W19156  32.013  36.454  10.916
46842W        W19157  30.567  40.326   3.831
46843W        W19158   9.279  26.076   0.385
46844W        W19159  12.766  11.178   1.268
46845W        W19160  32.506  21.122  10.615
46846W        W19161  31.130  23.541  14.419
46847W        W19162   7.371  14.791  11.372
46848W        W19163  31.935  32.512  10.960
46849W        W19164  28.971  40.864   2.710
46850W        W19165   4.808  39.411   3.802
46851W        W19166  17.716  28.672  10.150
46852W        W19167  26.659   6.703   2.248
46853W        W19168  13.780  38.948   0.469
46854W        W19169  26.527  22.152  10.500
46855W        W19170  24.062  25.676   0.305
46856W        W19171  28.050   9.855   2.308
46857W        W19172  26.170  29.513  13.456
46858W        W19173  19.653  32.899   4.229
46859W        W19174  44.490  26.499  13.465
46860W        W19175  39.424  19.055  12.495
46861W        W19176  16.569  37.432  12.525
46862W        W19177  28.455  27.466  13.973
46863W        W19178  13.779   8.255   3.369
46864W        W19179   8.225   4.280  10.445
46865W        W19180  29.982   7.307   0.792
46866W        W19181  40.373  39.014  12.502
46867W        W19182   5.818   9.196  10.897
46868W        W19183  11.141  18.292   4.836
46869W        W19184   7.852  15.614  10.575
46870W        W19185   3.454  28.632  12.870
46871W        W19186  17.601  33.991   0.318
46872W        W19187  40.974  38.377  12.868
46873W        W19188   7.753  14.296  11.868
46874W        W19189   7.683  27.089  14.278
46875W        W19190  39.486  14.190   3.867
46876W        W19191  25.511  19.703  13.797
46877W        W19192  43.923  29.049   4.234
46878W        W19193  20.082  11.850   4.639
46879W        W19194  30.612  44.896   4.775
46880W        W19195  35.531  36.506  13.801
46881W        W19196  25.206  33.486  11.044
46882W        W19197   6.726  37.945   2.339
46883W        W19198   3.780  44.382  12.482
46884W        W19199  37.853  31.624  12.550
46885W        W19200  21.051  14.688   1.350
46886W        W19201   1.864   8.656  12.399
46887W        W19202  18.733  37.057  11.859
46888W        W19203  43.884  21.567   4.189
46889W        W19204  38.456  31.465   3.858
46890W        W19205  40.315   3.418   0.929
46891W        W19206  17.561  26.582  11.901
46892W        W19207  34.011  20.709  11.498
46893W        W19208  43.009  32.934   2.856
46894W        W19209  33.977  13.725  12.485
46895W        W19210   4.417  26.076   4.777
46896W        W19211   0.886  11.839   1.394
46897W        W19212  34.569   4.364   2.728
46898W        W19213  26.674   9.344  12.832
46899W        W19214  20.765  27.176  13.964
46900W        W19215   2.325  40.344   3.798
46901W        W19216  33.604  36.498  11.381
46902W        W19217  28.119   9.200  10.617
46903W        W19218  25.507  44.970   2.356
46904W        W19219  19.102  30.957  11.910
46905W        W19220  40.342  33.959  11.378
46906W        W19221   9.297   7.192  11.439
46907W        W19222  14.672  33.585  10.536
46908W        W19223  32.925   8.282  12.513
46909W        W19224  29.560  16.773  14.366
46910W        W19225  18.119   4.938  11.567
46911W        W19226   4.902  24.505  13.519
46912W        W19227  17.593   8.191   4.787
46913W        W19228  32.033  41.017   3.653
46914W        W19229   3.723  36.411   0.290
46915W        W19230  30.639  31.489  13.796
46916W        W19231  18.205  13.292   2.316
46917W        W19232  28.163  41.317  14.291
46918W        W19233   0.814  13.810  10.937
46919W        W19234  38.426   0.802  10.497
46920W        W19235  16.703  14.796  13.506
46921W        W19236  19.582  44.820  14.309
46922W        W19237  42.348  26.539  12.484
46923W        W19238  33.985  18.623  14.925
46924W        W19239  16.662   3.937  10.555
46925W        W19240  19.648   3.893   2.762
46926W        W19241  37.965  37.014   0.291
46927W        W19242   0.282   2.379   1.433
46928W        W19243  44.940  32.423  12.449
46929W        W19244  14.311  29.975   1.791
46930W        W19245  41.932   6.258  13.544
46931W        W19246  42.988  19.245  10.599
46932W        W19247   2.755  22.684  13.962
46933W        W19248  18.650  15.809  13.363
46934W        W19249  43.007  40.341  12.426
46935W        W19250  36.000  25.036   1.799
46936W        W19251  13.770  38.402  13.399
46937W        W19252   5.321  22.654   2.878
46938W        W19253   5.299  39.998  12.900
46939W        W19254   9.187  17.683   4.190
46940W        W19255  12.177  29.948   2.813
46941W        W19256  38.426   5.754  13.880
46942W        W19257  21.193  15.773  14.804
46943W        W19258  27.095   7.337  11.526
46944W        W19259  15.642  14.831   4.267
46945W        W19260   2.817   6.207   3.375
46946W        W19261  42.425   6.897   4.258
46947W        W19262  19.757  44.966  10.496
46948W        W19263  26.107  42.780   3.760
46949W        W19264  37.539  20.678   2.741
46950W        W19265   4.780  31.994   4.718
46951W        W19266   7.736  41.803   2.796
46952W        W19267  31.477  35.955  13.410
46953W        W19268  16.698  31.563   1.433
46954W        W19269  38.836  36.539  12.449
46955W        W19270  22.694  44.441   1.431
46956W        W19271  41.920  17.254   1.897
46957W        W19272   5.412  25.143   5.104
46958W        W19273  42.929  22.669  12.447
46959W        W19274  39.382  10.691  11.095
46960W        W19275  20.574  12.241   1.291
46961W        W19276   4.749  23.094   1.934
46962W        W19277  26.573  34.510   0.303
46963W        W19278  18.070  17.604  13.049
46964W        W19279  31.496  19.183   1.822
46965W        W19280  38.504   3.878  12.951
46966W        W19281  18.238  16.666  12.497
46967W        W19282  36.516  35.061   2.198
46968W        W19283  16.305   3.352   2.805
46969W        W19284  41.899   0.313   1.747
46970W        W19285  38.379  27.182  13.961
46971W        W19286   6.770  17.578  13.352
46972W        W19287  29.102  23.217  14.823
46973W        W19288  19.603  44.364  14.392
46974W        W19289  24.103  40.916   0.256
46975W        W19290   2.942  42.493  12.435
46976W        W19291  30.965  10.214   1.438
46977W        W19292   7.880  32.984   0.439
46978W        W19293  24.703   8.834  12.045
46979W        W19294  41.791   4.257   1.351
46980W        W19295  18.095  21.263  13.018
46981W        W19296  28.138   7.328   4.335
46982W        W19297  28.071  18.098  14.967
46983W        W19298   8.688  25.138  12.927
46984W        W19299  32.629   2.341  13.854
46985W        W19300  44.441   5.738  10.596
46986W        W19301  25.595   6.306  12.531
46987W        W19302  18.606   6.811   0.836
46988W        W19303  29.604  30.048  12.898
46989W        W19304  12.126   0.473   2.677
46990W        W19305  42.948  27.154   3.712
46991W        W19306   3.437  11.293  12.884
46992W        W19307  41.476  13.802   1.365
46993W        W19308  39.925  39.325   3.631
46994W        W19309  21.048  42.406  10.892
46995W        W19310  43.982  44.502  14.477
46996W        W19311   0.322  16.796   0.905
46997W        W19312  36.535   1.348   3.686
46998W        W19313  42.391   7.874  12.472
46999W        W19314   6.314  42.391   2.326
47000W        W19315  16.631  28.609  11.901
47001W        W19316  21.591   6.382   2.201
47002W        W19317  26.200   5.436   2.863
47003W        W19318  18.156  29.975   2.761
47004W        W19319  35.087  28.143   3.375
47005W        W19320  31.584  43.416  14.834
47006W        W19321  17.765  39.331   2.372
47007W        W19322  16.604  21.664  14.777
47008W        W19323  12.137  29.922   3.798
47009W        W19324   3.269  37.043  13.884
47010W        W19325  42.333  17.185   3.342
47011W        W19326  36.073  21.570   0.398
47012W        W19327  44.985  24.204   4.353
47013W        W19328  24.985  28.617  11.595
47014W        W19329  33.988   9.784   0.868
47015W        W19330  36.510  38.022  14.455
47016W        W19331  28.170  28.963   0.354
47017W        W19332   1.481  13.758   1.259
47018W        W19333  28.611   5.319  10.422
47019W        W19334  21.137  40.468   2.210
47020W        W19335  44.266   1.288  13.343
47021W        W19336  38.920  32.090  11.952
47022W        W19337  19.164  22.618  12.405
47023W        W19338  34.055  39.356  11.425
47024W        W19339  32.998  33.041   4.796
47025W        W19340  19.085  26.591  14.378
47026W        W19341  19.550  14.310   3.241
47027W        W19342  18.684  30.940  13.453
47028W        W19343  24.065  32.566  11.105
47029W        W19344  35.388  16.731  11.068
47030W        W19345   9.787  29.507   1.829
47031W        W19346  14.278  44.804   4.264
47032W        W19347  44.423  25.556   4.322
47033W        W19348  23.108   5.710   1.804
47034W        W19349   8.829  23.711   1.369
47035W        W19350  14.715  40.472  13.834
47036W        W19351  34.413  16.195   0.956
47037W        W19352  43.370  36.431   3.256
47038W        W19353   2.774  37.886   4.283
47039W        W19354  13.800  34.980   3.212
47040W        W19355   8.728  19.653  14.321
47041W        W19356  19.771  38.919  14.028
47042W        W19357  41.832   8.830   1.228
47043W        W19358  15.766  35.016  11.865
47044W        W19359   4.325  13.305  10.565
47045W        W19360  30.137   0.395   4.164
47046W        W19361  39.902  33.047  12.464
47047W        W19362  27.108   5.787   5.122
47048W        W19363  34.059   1.354   0.814
47049W        W19364  10.770  30.543  12.016
47050W        W19365  22.129  13.599  12.936
47051W        W19366  41.313  29.575   4.716
47052W        W19367  35.535  35.375   0.404
47053W        W19368  37.084  18.116  13.039
47054W        W19369  21.590   3.288  10.496
47055W        W19370  13.264  17.062  13.867
47056W        W19371  23.628  41.954  14.924
47057W        W19372  24.139   5.749  13.993
47058W        W19373   7.903   4.859   4.158
47059W        W19374  11.317  33.055   1.272
47060W        W19375  42.782  38.823  12.504
47061W        W19376  19.534  37.943   3.274
47062W        W19377   9.199  18.286  10.967
47063W        W19378  19.075  38.356  13.413
47064W        W19379  10.682  20.265   3.359
47065W        W19380  15.293  18.158   0.936
47066W        W19381  23.509  35.532  11.580
47067W        W19382  18.673   1.791  13.498
47068W        W19383   9.805   4.738   1.328
47069W        W19384   2.887  18.179  11.973
47070W        W19385  21.137  28.110   4.165
47071W        W19386  38.442  21.239   3.771
47072W        W19387   9.652  36.570   2.342
47073W        W19388  26.606  40.925   1.367
47074W        W19389  38.474  19.639   1.742
47075W        W19390   5.369  41.531  10.930
47076W        W19391  31.011  22.525  14.827
47077W        W19392  14.224  27.168   3.292
47078W        W19393  24.973  24.594   1.427
47079W        W19394  10.797  24.574   2.353
47080W        W19395  14.205  30.659   4.735
47081W        W19396  37.995  44.784  10.498
47082W        W19397  28.072  19.092  12.534
47083W        W19398  24.599  35.899   3.722
47084W        W19399  23.599  30.625  11.004
47085W        W19400  23.725   8.349  13.924
47086W        W19401  24.689   3.292   4.245
47087W        W19402  38.999   1.785   3.276
47088W        W19403   3.887  43.358   1.412
47089W        W19404  21.712  39.469  13.393
47090W        W19405  20.166   4.280   3.302
47091W        W19406  17.226  44.989  10.472
47092W        W19407  32.060  18.677   4.650
47093W        W19408   5.312  13.340   0.757
47094W        W19409  38.525  41.947  12.492
47095W        W19410  39.991  32.133  11.587
47096W        W19411  11.859  23.154   1.351
47097W        W19412  11.801  21.137   1.827
47098W        W19413  32.432   1.450   3.244
47099W        W19414   5.835  26.593   1.290
47100W        W19415  26.599  41.365  10.497
47101W        W19416  33.555  27.522   1.222
47102W        W19417  19.043  23.034  11.117
47103W        W19418  26.511  44.850   1.348
47104W        W19419  30.512  40.051   1.697
47105W        W19420  21.662  37.965  13.339
47106W        W19421  24.065  15.641   1.847
47107W        W19422  40.855  15.700   3.263
47108W        W19423  41.475  40.840   4.769
47109W        W19424  40.828  33.048   4.813
47110W        W19425  43.412   6.236  12.059
47111W        W19426  44.811   4.895  13.819
47112W        W19427  33.113  10.373   3.644
47113W        W19428   4.768  26.593   3.644
47114W        W19429   5.857  28.140  11.453
47115W        W19430  33.414   5.279  13.493
47116W        W19431  39.410  40.432   2.335
47117W        W19432  20.202  35.531  11.538
47118W        W19433  21.251  25.566  14.959
47119W        W19434   0.804  12.218   3.164
47120W        W19435  15.710  40.533   0.482
47121W        W19436  42.507   3.245   4.148
47122W        W19437  43.008   7.185   0.361
47123W        W19438   6.720   2.856   1.416
47124W        W19439  29.063  21.550  11.024
47125W        W19440  27.130  40.422   3.203
47126W        W19441  22.104  43.007   4.743
47127W        W19442  20.054  12.305   1.285
47128W        W19443   5.926   8.291  14.858
47129W        W19444  27.001  31.075  13.845
47130W        W19445  43.005  28.064   4.750
47131W        W19446  19.685  40.031   0.881
47132W        W19447  31.601  20.239  11.529
47133W        W19448   2.878  24.029  14.931
47134W        W19449  11.702  41.484  10.082
47135W        W19450  31.601  17.582   2.850
47136W        W19451   9.851   2.432   0.427
47137W        W19452  13.271  27.184   2.753
47138W        W19453  14.709  42.385  11.891
47139W        W19454   0.891  24.219   5.208
47140W        W19455  42.500  14.643  12.869
47141W        W19456  21.209  20.689   4.328
47142W        W19457  32.554  36.536  12.829
47143W        W19458  39.536  27.049   2.339
47144W        W19459   1.963  37.480  10.609
47145W        W19460  34.110  17.729   4.295
47146W        W19461  18.129  28.548   0.261
47147W        W19462  44.758  15.794  10.479
47148W        W19463  26.695   6.380  10.023
47149W        W19464   0.440   9.802  12.535
47150W        W19465  26.686   6.857   2.733
47151W        W19466  26.171  13.122  14.469
47152W        W19467  32.605   8.312   0.893
47153W        W19468  40.503   3.895  14.996
47154W        W19469  12.166  35.532  12.871
47155W        W19470  22.654   3.386   0.947
47156W        W19471  32.899  33.051   2.773
47157W        W19472   3.331   7.851  12.421
47158W        W19473  12.358  37.546   1.713
47159W        W19474   9.798  13.737  14.387
47160W        W19475  33.415   5.277   4.768
47161W        W19476  13.809  21.736  12.998
47162W        W19477  18.720  10.324   0.474
47163W        W19478  27.066   8.784  11.982
47164W        W19479   8.824  15.714   1.434
47165W        W19480  22.033   9.831  11.917
47166W        W19481   5.410  42.939  13.992
47167W        W19482  34.413  24.150   3.728
47168W        W19483  13.141  38.962  11.541
47169W        W19484  28.110  20.122   3.733
47170W        W19485   3.873  14.741  11.060
47171W        W19486   6.696  25.571  14.993
47172W        W19487   7.299  41.521   2.896
47173W        W19488  18.661  25.683   4.632
47174W        W19489  21.073   8.248  12.554
47175W        W19490  38.062  34.495  14.812
47176W        W19491  31.959  34.937  11.478
47177W        W19492  28.135  13.173  12.553
47178W        W19493  37.438   3.736   4.667
47179W        W19494  30.152  27.125  11.497
47180W        W19495  28.613  13.174  14.447
47181W        W19496  18.770  17.721  11.542
47182W        W19497  43.379   1.740  11.414
47183W        W19498  36.853  13.778   0.476
47184W        W19499  23.062  21.205  13.875
47185W        W19500  16.181  35.980  14.422
47186W        W19501  23.168  32.081  11.477
47187W        W19502  31.967  28.972  11.603
47188W        W19503  16.266  22.567   3.784
47189W        W19504  21.258  22.701   4.219
47190W        W19505   8.173  23.082  13.431
47191W        W19506  32.964  16.312  10.525
47192W        W19507   8.824  44.974   0.882
47193W        W19508  26.124  38.364  12.857
47194W        W19509  35.377  27.973   1.796
47195W        W19510  44.916  30.639   5.157
47196W        W19511  24.982  29.129   1.293
47197W        W19512  41.903   5.338   3.658
47198W        W19513  28.575  17.684   4.697
47199W        W19514  12.640  18.278   0.751
47200W        W19515  17.761  24.698   2.710
47201W        W19516  19.564  24.685   4.698
47202W        W19517  32.977   8.778   0.821
47203W        W19518   9.795   7.300  11.970
47204W        W19519  31.901  25.673   2.273
47205W        W19520  21.089   0.489   1.865
47206W        W19521  44.455   3.797   3.291
47207W        W19522  10.360  29.918  13.967
47208W        W19523  19.557  29.600   3.735
47209W        W19524  37.003   0.353   4.267
47210W        W19525  27.448  33.470  14.391
47211W        W19526   3.760  44.503   4.624
47212W        W19527  30.940  41.477   3.222
47213W        W19528   6.370  32.963  13.868
47214W        W19529  39.041  20.159   1.921
47215W        W19530  20.766  41.533   3.643
47216W        W19531   0.868  12.851   3.378
47217W        W19532  14.133   3.427   2.272
47218W        W19533  16.679  39.971  14.879
47219W        W19534   6.422  39.389   0.483
47220W        W19535  28.595  32.420   4.739
47221W        W19536  10.370  24.191  12.451
47222W        W19537  38.963  13.736  13.063
47223W        W19538  24.002   5.257  12.872
47224W        W19539   3.814  35.972  14.509
47225W        W19540  28.017  30.534   3.257
47226W        W19541  27.045  37.389  11.069
47227W        W19542  34.905  24.102   4.165
47228W        W19543  29.023  35.447   4.744
47229W        W19544  30.439   5.238   1.728
47230W        W19545   2.466  28.512  12.482
47231W        W19546  31.493  23.149  12.989
47232W        W19547  25.711  43.984   0.305
47233W        W19548  15.228  31.578   4.329
47234W        W19549   5.225   6.840   2.732
47235W        W19550  21.752   6.202   0.267
47236W        W19551  11.205  38.512   1.318
47237W        W19552  25.500  23.718  14.878
47238W        W19553   9.763   4.737  11.961
47239W        W19554  39.555  12.213  10.425
47240W        W19555  31.499  36.941   3.279
47241W        W19556  36.857  39.953   1.423
47242W        W19557  39.024  33.030  10.504
47243W        W19558  39.023  41.935  14.288
47244W        W19559  44.800  19.606  10.512
47245W        W19560  41.404  26.207  13.951
47246W        W19561  11.146  10.240   4.348
47247W        W19562   8.196   0.858   2.885
47248W        W19563  14.733  40.912   4.188
47249W        W19564  29.513  43.377   1.927
47250W        W19565  35.516  39.558  11.470
47251W        W19566   6.215  30.569  12.939
47252W        W19567  43.808  15.305  13.325
47253W        W19568  43.994  19.762   1.255
47254W        W19569  17.150  30.954   5.663
47255W        W19570  27.947   4.898   2.849
47256W        W19571   9.328   3.955  14.492
47257W        W19572  31.617   4.767  11.426
47258W        W19573  20.043   0.349  13.414
47259W        W19574  31.510  38.477  11.544
47260W        W19575   8.319   5.702  14.289
47261W        W19576  34.422   0.864   1.895
47262W        W19577  28.971  17.678  12.974
47263W        W19578  11.149  33.546   1.829
47264W        W19579   8.344  26.061  14.828
47265W        W19580  12.635  41.294  12.911
47266W        W19581  19.636  15.229   2.749
47267W        W19582  40.456  44.363  14.493
47268W        W19583  15.711  43.966  12.956
47269W        W19584   1.828  40.338  10.970
47270W        W19585  13.178  12.785   4.122
47271W        W19586  27.645   0.400  12.002
47272W        W19587  30.596   0.369  14.461
47273W        W19588   0.909   2.818  13.054
47274W        W19589  36.933  10.225  14.895
47275W        W19590  26.632   8.269   2.224
47276W        W19591  34.046  17.307   2.380
47277W        W19592  22.151  42.946   2.866
47278W        W19593   2.375  10.653  10.095
47279W        W19594  15.580  21.554  11.589
47280W        W19595   4.408  32.988   2.200
47281W        W19596   2.387  34.015   2.335
47282W        W19597  41.811   9.263  11.958
47283W        W19598   2.836  30.155   2.226
47284W        W19599   3.283  16.763  13.528
47285W        W19600  11.339  38.528   0.331
47286W        W19601  11.223   7.206   1.259
47287W        W19602   1.916  23.583   3.329
47288W        W19603  35.865  22.141   1.234
47289W        W19604  23.611  32.022  10.154
47290W        W19605  10.219   1.801  14.801
47291W        W19606   2.438  10.295   2.314
47292W        W19607  42.977   7.316   2.294
47293W        W19608  14.103  35.396   0.461
47294W        W19609  10.331  33.958  14.283
47295W        W19610   9.668  20.721  13.892
47296W        W19611  20.045  36.942   4.344
47297W        W19612  14.794  43.402   2.269
47298W        W19613   1.752   2.301  11.394
47299W        W19614  10.277  43.510   4.196
47300W        W19615  36.898  44.482   4.224
47301W        W19616  25.509  43.807   0.875
47302W        W19617  25.090  23.620   0.791
47303W        W19618   8.788   8.736  14.349
47304W        W19619  26.653   0.763  10.577
47305W        W19620  13.231  15.288  14.320
47306W        W19621   8.199  20.226  13.431
47307W        W19622  34.439  15.608  12.476
47308W        W19623  19.272  12.322  13.852
47309W        W19624   7.316   4.356  14.030
47310W        W19625  30.603   4.437   2.416
47311W        W19626  44.395  38.549  10.427
47312W        W19627  25.579  42.293  14.996
47313W        W19628  37.361   4.871  11.935
47314W        W19629  19.039   9.790  13.031
47315W        W19630  18.103  26.966  10.572
47316W        W19631  31.054   8.692   3.245
47317W        W19632  40.340   8.369   3.335
47318W        W19633  10.307  12.720   4.214
47319W        W19634  31.414  22.039  12.957
47320W        W19635   7.273  39.942  14.937
47321W        W19636  31.495  35.076   2.247
47322W        W19637  34.913  29.595  12.862
47323W        W19638   5.418  42.521   1.731
47324W        W19639  26.009  16.220   3.802
47325W        W19640  19.142  20.161  12.075
47326W        W19641  30.935   1.773  10.087
47327W        W19642  15.810  28.467  10.097
47328W        W19643  27.637  31.452   1.843
47329W        W19644   8.732   4.791   3.815
47330W        W19645  22.626   8.367  13.342
47331W        W19646  43.994  18.748  12.854
47332W        W19647  33.556  26.536  12.912
47333W        W19648  20.670  35.866  11.029
47334W        W19649   1.351   7.208  12.377
47335W        W19650   6.773  32.473  14.386
47336W        W19651   2.882  32.419   0.773
47337W        W19652  21.524  27.579   2.218
47338W        W19653   0.904  13.165   0.726
47339W        W19654  18.715  40.985  13.535
47340W        W19655  41.387   9.343   0.957
47341W        W19656  30.932  22.070  10.476
47342W        W19657  15.782  15.114  12.090
47343W        W19658  35.925  13.263   1.835
47344W        W19659  35.562   3.934   0.293
47345W        W19660  21.727   2.265   1.286
47346W        W19661  11.720   7.767  10.619
47347W        W19662  20.220  35.852   5.170
47348W        W19663  32.442  37.546   2.290
47349W        W19664  20.118  15.669  11.602
47350W        W19665  20.153  10.256  10.007
47351W        W19666   0.909   8.393  11.018
47352W        W19667  17.588  26.511   3.368
47353W        W19668   0.952  16.704  12.352
47354W        W19669  27.145   8.819   3.306
47355W        W19670  13.240  16.734   1.871
47356W        W19671   5.321  42.411   0.786
47357W        W19672  25.013  21.030  13.984
47358W        W19673   3.253  16.800   4.213
47359W        W19674  24.063  17.074  14.872
47360W        W19675  38.414  34.541   0.373
47361W        W19676  37.476   7.839   4.759
47362W        W19677  39.002  39.329  14.839
47363W        W19678  32.138  29.929   4.333
47364W        W19679  17.251  33.611   1.838
47365W        W19680  25.509   1.367  12.989
47366W        W19681  41.005   4.883   3.739
47367W        W19682  15.586  10.648  14.507
47368W        W19683  32.898  32.923  13.818
47369W        W19684  34.919  15.707  10.549
47370W        W19685  24.104   1.947   4.790
47371W        W19686  28.988  19.149   2.785
47372W        W19687   7.873  44.808   0.798
47373W        W19688  20.076  21.630  14.401
47374W        W19689   4.834  24.139   0.783
47375W        W19690  42.516  24.032   0.875
47376W        W19691  22.586  34.380  12.904
47377W        W19692  29.055   0.455  11.874
47378W        W19693  26.151  16.775   4.345
47379W        W19694  37.514  27.478  11.109
47380W        W19695  33.435  15.168   0.909
47381W        W19696  14.821  16.804   4.810
47382W        W19697  16.745  10.310  11.451
47383W        W19698   7.267  14.766  10.928
47384W        W19699   4.342  16.163  10.938
47385W        W19700  22.731  36.531  13.988
47386W        W19701   1.359  38.531   1.811
47387W        W19702  37.975  18.272   1.349
47388W        W19703  23.045  24.643  12.394
47389W        W19704   3.876  33.013   2.755
47390W        W19705   7.842  38.433   1.267
47391W        W19706  21.716   4.762  12.951
47392W        W19707  33.526  36.954  11.939
47393W        W19708  38.327  31.013   4.682
47394W        W19709  21.560  22.203   2.192
47395W        W19710   4.220  23.657  14.848
47396W        W19711   3.304  35.382   1.373
47397W        W19712  33.552  29.445   0.279
47398W        W19713   5.281   4.317  11.481
47399W        W19714  34.109  29.128   1.288
47400W        W19715   3.267  44.782   3.321
47401W        W19716  15.644  11.362   1.796
47402W        W19717  39.347  34.602  14.968
47403W        W19718  14.747  40.833   1.397
47404W        W19719  27.653  42.353   4.600
47405W        W19720  22.571  16.100   1.339
47406W        W19721  21.237  34.549   4.179
47407W        W19722  17.088  33.420   0.734
47408W        W19723  15.142  34.506   2.366
47409W        W19724  19.185  10.643   0.804
47410W        W19725  37.956  27.039  12.434
47411W        W19726   8.311   3.358   1.287
47412W        W19727  12.122  29.110   4.265
47413W        W19728  17.740  35.577   3.642
47414W        W19729  28.951   9.880   1.346
47415W        W19730  28.130   6.774  11.489
47416W        W19731  38.510   5.380   0.437
47417W        W19732  39.872   7.371   3.349
47418W        W19733  42.312  43.022  10.996
47419W        W19734  39.537   6.820  13.415
47420W        W19735  37.354  17.233   0.801
47421W        W19736   0.380  33.993   9.545
47422W        W19737  34.088   9.883   3.284
47423W        W19738  16.725  22.188  12.437
47424W        W19739   6.849  21.520   4.123
47425W        W19740  21.042   5.276   0.881
47426W        W19741  13.716   2.899  13.505
47427W        W19742  12.180  28.453   3.364
47428W        W19743   1.342  17.304   4.743
47429W        W19744  39.877  16.649   0.308
47430W        W19745  11.256  13.653  11.994
47431W        W19746  35.423  44.867   3.318
47432W        W19747  15.116  19.682  11.036
47433W        W19748  12.157  18.251   0.948
47434W        W19749  22.202   9.798  10.503
47435W        W19750  38.458  18.231  13.501
47436W        W19751  17.094  36.957   1.369
47437W        W19752   6.840  24.096   2.192
47438W        W19753  22.042  28.084   2.721
47439W        W19754  13.166  43.449  10.515
47440W        W19755   5.230  24.128   4.747
47441W        W19756  31.436  33.604   1.896
47442W        W19757  31.433   3.336  10.643
47443W        W19758   5.826  12.231  13.973
47444W        W19759  29.066  13.334  11.600
47445W        W19760   7.767  21.590   3.186
47446W        W19761  43.002  13.197  11.894
47447W        W19762  25.499  15.189  11.533
47448W        W19763  19.608  43.502  11.109
47449W        W19764   3.710  11.817   3.372
47450W        W19765  44.816  26.037  14.959
47451W        W19766  34.465  34.996   2.864
47452W        W19767   1.937  33.052   1.345
47453W        W19768  18.707  35.862  14.017
47454W        W19769  13.727  12.720  13.968
47455W        W19770  20.750  19.671  10.510
47456W        W19771  31.950  19.629  14.885
47457W        W19772  11.156  43.988   2.745
47458W        W19773  37.462  39.949  10.577
47459W        W19774  29.444  41.896  13.984
47460W        W19775   2.367  44.352   4.182
47461W        W19776  35.374  29.479  11.459
47462W        W19777  12.311  10.224   0.434
47463W        W19778  17.176  35.060  11.393
47464W        W19779  22.546  39.934  11.954
47465W        W19780  23.600  27.635  11.396
47466W        W19781  44.886  43.961  13.983
47467W        W19782   4.347  11.823   3.259
47468W        W19783  35.936  29.165   4.747
47469W        W19784  30.078  28.434   2.875
47470W        W19785  44.858   2.357   4.130
47471W        W19786  43.976  37.079  14.993
47472W        W19787  32.895  36.417  14.891
47473W        W19788  29.110  44.396  12.579
47474W        W19789  26.169   9.272   1.297
47475W        W19790  34.991  39.326   0.358
47476W        W19791  27.491   1.363  14.962
47477W        W19792  11.352  27.132  12.408
47478W        W19793  23.648  22.086  11.611
47479W        W19794  22.622   1.850   0.805
47480W        W19795  38.963  44.439  12.494
47481W        W19796  18.175   3.222   4.271
47482W        W19797  28.585  42.836  14.905
47483W        W19798  26.051  33.934  11.884
47484W        W19799  11.623  29.658   3.693
47485W        W19800  16.187  35.383  10.888
47486W        W19801   1.861  23.222   0.251
47487W        W19802   4.357  37.018   0.843
47488W        W19803   3.828  22.621  12.013
47489W        W19804   1.939  20.212  12.974
47490W        W19805  14.696  13.727   4.289
47491W        W19806  28.103   4.385   4.130
47492W        W19807  43.811  21.744   0.796
47493W        W19808   8.784  36.953  10.553
47494W        W19809  33.081  23.524   0.918
47495W        W19810  26.507  13.771   4.160
47496W        W19811   8.382   5.905   1.856
47497W        W19812  23.144  42.874  12.906
47498W        W19813   5.820  29.999   3.244
47499W        W19814  33.041  44.005  11.994
47500W        W19815  26.653  35.576   2.404
47501W        W19816  21.657  34.024   3.764
47502W        W19817  14.277  29.963  11.055
47503W        W19818   0.934  17.619  13.518
47504W        W19819  14.155  30.080  13.813
47505W        W19820  28.099  33.130   4.806
47506W        W19821   9.770  28.615  13.465
47507W        W19822   5.827  29.496  13.006
47508W        W19823  14.744   7.320   4.830
47509W        W19824  15.694  32.987   1.250
47510W        W19825   3.825  13.721   3.666
47511W        W19826   5.439  22.723   3.727
47512W        W19827   1.753  37.986   1.721
47513W        W19828  25.706  16.700   4.755
47514W        W19829  20.672  40.925  13.331
47515W        W19830  14.810  44.359  14.492
47516W        W19831  13.686  39.019  14.493
47517W        W19832  16.260  43.495  14.405
47518W        W19833  15.174  24.025   3.714
47519W        W19834  13.832  42.960  10.010
47520W        W19835   9.238   4.945  12.904
47521W        W19836  12.263   2.896  14.962
47522W        W19837  28.508  21.236  14.459
47523W        W19838  13.711  20.079   2.676
47524W        W19839   0.781  35.389   3.335
47525W        W19840  18.785  35.970   3.155
47526W        W19841  25.060  14.616   4.115
47527W        W19842  36.454  42.953  12.091
47528W        W19843  21.730  31.535   0.431
47529W        W19844  30.556  44.268   2.253
47530W        W19845  39.345  39.525   3.706
47531W        W19846  10.141  10.306  11.032
47532W        W19847   6.723  30.044   3.686
47533W        W19848  44.351  28.174   3.754
47534W        W19849  12.756   7.171   4.296
47535W        W19850  41.919   4.931  13.957
47536W        W19851  23.584  15.632  13.462
47537W        W19852  15.819  29.967  14.459
47538W        W19853  30.528  33.539  13.018
47539W        W19854  13.773  40.458   4.683
47540W        W19855  31.056  39.883   3.262
47541W        W19856  34.094   3.895   3.833
47542W        W19857  25.501   7.339   5.121
47543W        W19858  33.071  26.457  10.467
47544W        W19859   8.187  18.077  14.890
47545W        W19860  19.220  30.107   2.779
47546W        W19861   2.822  24.618  11.458
47547W        W19862  22.734  10.171   3.264
47548W        W19863  30.603  19.695   0.851
47549W        W19864  44.828  29.446  12.521
47550W        W19865  23.068  27.451  12.892
47551W        W19866  28.521  44.964  14.298
47552W        W19867  44.871   1.424  11.065
47553W        W19868  34.992  16.651  14.800
47554W        W19869  24.062  13.646  13.951
47555W        W19870  10.860   0.742   1.212
47556W        W19871  15.682  17.727   1.305
47557W        W19872  21.632  43.802   2.266
47558W        W19873  17.291  24.590   3.349
47559W        W19874  10.686   5.916  12.487
47560W        W19875  36.555  19.144   1.341
47561W        W19876  32.470   2.829   2.668
47562W        W19877  23.088  12.845  11.071
47563W        W19878  16.602  20.545   1.291
47564W        W19879  34.908  24.113  14.490
47565W        W19880   7.801  12.743  10.008
47566W        W19881  22.252  44.273   1.259
47567W        W19882  43.821  36.407   2.852
47568W        W19883  17.575  36.525  14.482
47569W        W19884  12.339   3.323   4.809
47570W        W19885  33.119  26.669   3.826
47571W        W19886   6.817  16.604   3.370
47572W        W19887  33.515  24.603  14.942
47573W        W19888  18.744  32.467   3.719
47574W        W19889  39.518  31.606   2.207
47575W        W19890  21.557   0.323   1.829
47576W        W19891  35.574  35.994  12.001
47577W        W19892  16.720  10.644  13.889
47578W        W19893  26.066  10.206  10.637
47579W        W19894  39.405   6.361   1.772
47580W        W19895   6.406  11.689   0.406
47581W        W19896  33.055  35.601  13.829
47582W        W19897  16.632  10.219   4.266
47583W        W19898  10.320  34.459  10.915
47584W        W19899  27.478  35.915   3.852
47585W        W19900  24.076   4.214  13.476
47586W        W19901  14.688  19.719   0.815
47587W        W19902   2.890  19.743  14.417
47588W        W19903  22.638   5.259   1.874
47589W        W19904  42.829  38.555   0.319
47590W        W19905   5.826  26.071   2.311
47591W        W19906  12.796  15.642   3.764
47592W        W19907  37.958  42.853   4.607
47593W        W19908  23.061  14.228   1.239
47594W        W19909  10.282   7.253   3.835
47595W        W19910  11.779   0.464  11.572
47596W        W19911  29.454  34.571   1.391
47597W        W19912   3.312   9.826   2.322
47598W        W19913  14.721  18.682  11.603
47599W        W19914  20.606  31.544  11.572
47600W        W19915  29.924  26.158  11.948
47601W        W19916  24.513  13.772   2.293
47602W        W19917  41.427  11.270   1.907
47603W        W19918  43.001  14.627   0.253
47604W        W19919  34.390   2.874  12.423
47605W        W19920  23.086   6.896   4.829
47606W        W19921  21.123  31.447  13.984
47607W        W19922  40.480  32.488  11.501
47608W        W19923  30.041  35.971   0.790
47609W        W19924   8.285  25.602   2.323
47610W        W19925  29.087  14.106  12.092
47611W        W19926   0.355  38.823  11.608
47612W        W19927  38.019  27.113   3.209
47613W        W19928   4.821   6.353   2.364
47614W        W19929  18.633  18.606   2.781
47615W        W19930  40.345  41.871   4.830
47616W        W19931  22.678   4.833  12.950
47617W        W19932  26.475  31.932   4.116
47618W        W19933  41.933   4.723  14.896
47619W        W19934  24.125  15.303  13.422
47620W        W19935  41.984  42.017   3.265
47621W        W19936  23.504  24.555  13.317
47622W        W19937  11.638  37.369   1.260
47623W        W19938  26.120  17.712   0.266
47624W        W19939  15.252   2.286  14.933
47625W        W19940  22.193  24.197  14.480
47626W        W19941   2.757  37.415  11.866
47627W        W19942  44.483  23.666  11.083
47628W        W19943  19.632  24.711  12.393
47629W        W19944  28.596  14.176   3.260
47630W        W19945  14.804  14.262  11.053
47631W        W19946   7.277   8.811   0.866
47632W        W19947  33.984  24.104   1.410
47633W        W19948  35.001  44.476  14.377
47634W        W19949   5.756  38.502  13.816
47635W        W19950  37.921  37.846   4.653
47636W        W19951  27.027  33.066   4.775
47637W        W19952  37.418  23.988   4.835
47638W        W19953  30.153  29.560  13.329
47639W        W19954  38.951   2.454  14.426
47640W        W19955  44.890  32.600  10.514
47641W        W19956  38.009   9.860   0.288
47642W        W19957  28.960   3.951  12.527
47643W        W19958  20.573  27.096  14.385
47644W        W19959   8.718   8.382   3.710
47645W        W19960  42.524  32.921   4.678
47646W        W19961  39.341   0.256   4.644
47647W        W19962  11.193  24.554  10.428
47648W        W19963  33.544  41.473   2.857
47649W        W19964  18.079  29.005   3.653
47650W        W19965   7.260   6.817  11.052
47651W        W19966  28.152  21.043  12.562
47652W        W19967   3.418  34.379   3.187
47653W        W19968  19.057  37.495  13.321
47654W        W19969   3.883  37.083   0.960
47655W        W19970  34.056  24.182  11.976
47656W        W19971  25.508  21.180  13.489
47657W        W19972  43.806  25.036   4.265
47658W        W19973  31.449  28.973  11.545
47659W        W19974  44.367  30.451   5.246
47660W        W19975   2.793  36.552  12.997
47661W        W19976  39.871  26.134   1.926
47662W        W19977  38.394   9.246   2.396
47663W        W19978  35.379  29.506  13.882
47664W        W19979  13.146   2.385   4.654
47665W        W19980  22.211  13.827  14.917
47666W        W19981  34.388  42.315   2.801
47667W        W19982  21.112  34.032  12.885
47668W        W19983  26.039   4.866  11.541
47669W        W19984  19.616   6.763  10.439
47670W        W19985  32.561  34.940   4.705
47671W        W19986  13.648  12.233   3.672
47672W        W19987  15.738  25.026   2.374
47673W        W19988  28.132  19.718   5.093
47674W        W19989  16.112  34.439   2.254
47675W        W19990  27.666  36.089   1.715
47676W        W19991  43.966  35.465   4.344
47677W        W19992  19.243  25.653   2.415
47678W        W19993  22.170   7.365  12.545
47679W        W19994  36.366  38.533  13.417
47680W        W19995  23.521  29.481   3.834
47681W        W19996  10.208   8.305   2.787
47682W        W19997  29.485  27.605  13.974
47683W        W19998  19.054   2.849  11.857
47684W        W19999  40.039  13.117  10.526
47685W        W20000  31.440  12.203   3.281
47686W        W20001   7.399  21.691  10.409
47687W        W20002   7.897  18.285   1.839
47688W        W20003  35.413  24.686   1.413
47689W        W20004  11.847  35.517  14.869
47690W        W20005  23.038  26.126   3.772
47691W        W20006   7.905  34.601  14.913
47692W        W20007  24.636  17.790   0.293
47693W        W20008  14.721   0.821  10.610
47694W        W20009   1.238  40.335  12.079
47695W        W20010  41.804  12.202  11.860
47696W        W20011  24.681  30.935  11.935
47697W        W20012   1.900   4.304   2.372
47698W        W20013  34.513  18.720  14.026
47699W        W20014  42.472  37.432   2.245
47700W        W20015  27.677  26.646   1.845
47701W        W20016  24.152   0.396   4.700
47702W        W20017  16.217  43.403   4.282
47703W        W20018   7.802   8.242  11.572
47704W        W20019  44.807  26.130  14.412
47705W        W20020  35.103  23.623  10.046
47706W        W20021  40.918  42.825   0.338
47707W        W20022  30.623  22.637   3.323
47708W        W20023   3.925  35.934   1.444
47709W        W20024   5.246   5.880  12.087
47710W        W20025  16.146  28.510   4.821
47711W        W20026  23.720  29.151   3.855
47712W        W20027   0.773  39.524   1.229
47713W        W20028  24.123  22.069  12.536
47714W        W20029  41.808  15.799   1.854
47715W        W20030  37.504   6.840  13.417
47716W        W20031   7.733  33.477  12.479
47717W        W20032  37.885  20.155  13.817
47718W        W20033  29.488  17.695   3.365
47719W        W20034  38.547  16.714  12.378
47720W        W20035  10.238  41.389   2.375
47721W        W20036  30.107  22.571  12.070
47722W        W20037  20.758  41.838  13.842
47723W        W20038  14.161  37.395  12.563
47724W        W20039   0.750  42.869  11.935
47725W        W20040  18.130  19.188   1.230
47726W        W20041   8.244  40.041  12.920
47727W        W20042   7.785   6.293  11.380
47728W        W20043   3.849  43.968   2.898
47729W        W20044  33.470  36.946  12.991
47730W        W20045  38.546  19.662  14.008
47731W        W20046  12.142  32.441  13.441
47732W        W20047  30.428   7.906  13.036
47733W        W20048  43.505  16.197   4.630
47734W        W20049  40.363  41.364  12.419
47735W        W20050  11.743  34.879   1.325
47736W        W20051   3.382  24.994   3.320
47737W        W20052   5.691  43.406  11.052
47738W        W20053  29.926  35.406   3.357
47739W        W20054  14.217  23.649  11.566
47740W        W20055  18.239  35.875   1.360
47741W        W20056  30.159  44.987  13.913
47742W        W20057  11.853  43.358   2.396
47743W        W20058  37.349  35.877  14.957
47744W        W20059  29.999  23.067   1.213
47745W        W20060  35.986  21.752   0.828
47746W        W20061  16.807   5.746  13.944
47747W        W20062  31.991  43.901  10.965
47748W        W20063  12.789  23.017  14.370
47749W        W20064  18.634  26.201   1.384
47750W        W20065  30.606   3.936   4.302
47751W        W20066   8.754  24.590  10.444
47752W        W20067  43.853   9.345  12.902
47753W        W20068  34.573  12.286   1.748
47754W        W20069  18.752  35.031   4.639
47755W        W20070  19.050  37.041  11.862
47756W        W20071   4.869  36.358   1.766
47757W        W20072  24.667  20.052   9.974
47758W        W20073   2.900   2.941   0.732
47759W        W20074  15.798   2.230  11.464
47760W        W20075  11.161  43.304  10.613
47761W        W20076  15.701  33.486  13.547
47762W        W20077  17.555  36.997   2.811
47763W        W20078  39.498   6.337  13.487
47764W        W20079   1.966  10.792   9.572
47765W        W20080   3.302   6.269   0.858
47766W        W20081  21.047  28.577   0.302
47767W        W20082  38.883  44.817   1.896
47768W        W20083  20.143  23.213   2.397
47769W        W20084  29.000  33.405  11.580
47770W        W20085  27.640   4.310  11.435
47771W        W20086   3.893  41.789  11.022
47772W        W20087  17.692  22.019  14.277
47773W        W20088   9.828   7.686   1.734
47774W        W20089   2.270  26.574  14.851
47775W        W20090  31.130  12.732   1.734
47776W        W20091   2.743  42.921  11.548
47777W        W20092  12.643  22.739   4.327
47778W        W20093  40.878  38.926   2.673
47779W        W20094  18.609  23.673  14.339
47780W        W20095  31.433   7.891  14.343
47781W        W20096  12.160  36.393   0.749
47782W        W20097   4.821   1.452   1.352
47783W        W20098  16.093  40.027   2.732
47784W        W20099  29.144  30.650  13.811
47785W        W20100  20.244  29.015  10.598
47786W        W20101   2.769  30.561  13.426
47787W        W20102  16.681  36.869   3.183
47788W        W20103  31.491  14.255  14.365
47789W        W20104  42.916  33.932  10.541
47790W        W20105  18.580  42.827   9.951
47791W        W20106  15.597  39.489   0.246
47792W        W20107  21.114  25.627   3.376
47793W        W20108  35.434  11.627   0.746
47794W        W20109  14.792  40.357  14.440
47795W        W20110   3.448  24.697  11.939
47796W        W20111  36.486   1.901  14.360
47797W        W20112  27.622   6.678   9.457
47798W        W20113  33.994  10.147   0.752
47799W        W20114  41.504  12.694  12.910
47800W        W20115  36.992  35.031  14.803
47801W        W20116  13.809  26.470  11.580
47802W        W20117   7.171  18.731  10.966
47803W        W20118  17.656  39.522  10.537
47804W        W20119  17.153   0.904  11.108
47805W        W20120  11.271  14.715  13.806
47806W        W20121  22.698   9.871  10.582
47807W        W20122   1.906   9.851   3.788
47808W        W20123  33.070  18.702  11.915
47809W        W20124  25.080   5.917   2.727
47810W        W20125  19.053  35.585  14.339
47811W        W20126  39.368  14.633   0.952
47812W        W20127  20.581   0.435  11.553
47813W        W20128  32.015  19.066   3.734
47814W        W20129   9.694  35.913   3.325
47815W        W20130  22.608   3.219  14.840
47816W        W20131  32.082  41.912  14.478
47817W        W20132  43.843  27.548   2.336
47818W        W20133  22.537  40.460   5.230
47819W        W20134  10.834  32.395   0.432
47820W        W20135   7.346  19.085  14.323
47821W        W20136  12.669  11.695  11.022
47822W        W20137  43.012  10.278   0.947
47823W        W20138   9.768  37.947   2.248
47824W        W20139   6.365   8.304  10.430
47825W        W20140   7.236  33.544  11.977
47826W        W20141  43.372  23.560  12.960
47827W        W20142  33.009  29.012  14.893
47828W        W20143  31.991   6.872  14.277
47829W        W20144  19.173  40.050   9.996
47830W        W20145  32.626  28.962  14.786
47831W        W20146   3.375   1.832  11.541
47832W        W20147  43.318  43.338   2.259
47833W        W20148  14.139  26.461   1.713
47834W        W20149  34.982   4.700   1.352
47835W        W20150  37.486  38.070   3.656
47836W        W20151  44.937  27.687  12.069
47837W        W20152  32.480  26.076  12.373
47838W        W20153  30.501  22.033  11.488
47839W        W20154  10.737  34.021  12.543
47840W        W20155   5.336  42.398  13.376
47841W        W20156  19.073  37.928  13.935
47842W        W20157  16.741   3.745   4.722
47843W        W20158   7.391  42.322   1.752
47844W        W20159  37.368  29.147   3.350
47845W        W20160  25.577   8.304   4.727
47846W        W20161  23.491  20.555  14.028
47847W        W20162   6.912  22.530  12.419
47848W        W20163  31.493  37.551  10.483
47849W        W20164  36.039  15.311   4.651
47850W        W20165   0.309  18.595  11.881
47851W        W20166  44.852   1.450  14.019
47852W        W20167  38.382   1.731   1.311
47853W        W20168  13.663  31.084   0.844
47854W        W20169  39.553  12.622   2.731
47855W        W20170  35.075   7.723  14.304
47856W        W20171  14.309  28.176  14.312
47857W        W20172  44.484  20.753  14.976
47858W        W20173  29.024  22.638  11.054
47859W        W20174   5.849  33.889   4.634
47860W        W20175  15.650  14.626   0.389
47861W        W20176   5.346  43.508   4.771
47862W        W20177  22.560  20.658  12.935
47863W        W20178  18.697   6.810   4.346
47864W        W20179   3.893  12.816  13.361
47865W        W20180  33.095   3.394  10.448
47866W        W20181  13.328  12.159  12.986
47867W        W20182   3.269  21.561  11.937
47868W        W20183   5.389   0.419  10.536
47869W        W20184  22.136   1.896   3.363
47870W        W20185  41.349   1.343  10.413
47871W        W20186   9.149  10.808   4.350
47872W        W20187   6.713  43.341  12.398
47873W        W20188  11.307  22.164  10.939
47874W        W20189  26.144  27.672  14.463
47875W        W20190  34.007  35.577   0.874
47876W        W20191  16.315   9.239  11.466
47877W        W20192  25.599   5.240  14.492
47878W        W20193  24.720  24.020   3.377
47879W        W20194  30.040   5.794   2.861
47880W        W20195   9.735  23.534   0.286
47881W        W20196   2.402  37.834  13.541
47882W        W20197   9.879  23.667   4.806
47883W        W20198  20.259  28.578   3.800
47884W        W20199   9.340  41.793  13.402
47885W        W20200  35.524   9.379   1.379
47886W        W20201  44.477  15.316   0.889
47887W        W20202  39.860  43.499   2.671
47888W        W20203   2.453  31.134   2.781
47889W        W20204  29.525  18.273  11.937
47890W        W20205  44.916  32.101   3.244
47891W        W20206  11.172   4.781   0.457
47892W        W20207  14.643   8.726   0.386
47893W        W20208  36.874  33.402   0.354
47894W        W20209   3.238  40.503  10.472
47895W        W20210   1.851  40.965   4.223
47896W        W20211  20.599  26.622   0.782
47897W        W20212  17.065  39.924   4.263
47898W        W20213  14.723  36.066   1.257
47899W        W20214  30.912  34.514   4.346
47900W        W20215   4.254  23.511  11.914
47901W        W20216  42.347   1.734   1.882
47902W        W20217  30.437   0.435  11.869
47903W        W20218  44.900   2.756   2.798
47904W        W20219   6.891   3.225   0.381
47905W        W20220  12.664  20.642   3.347
47906W        W20221  28.502   6.182  12.039
47907W        W20222  30.019  22.717   2.888
47908W        W20223  24.707  39.916  13.433
47909W        W20224  27.093  35.466  14.374
47910W        W20225  25.172   0.368   2.198
47911W        W20226  36.389  13.830  11.890
47912W        W20227  19.162  41.916  11.916
47913W        W20228  23.562  18.087   0.423
47914W        W20229  19.103  14.598   4.253
47915W        W20230  32.624  44.859   3.372
47916W        W20231  11.210   6.223  11.496
47917W        W20232   1.427   5.245   1.762
47918W        W20233  24.572   0.900  14.849
47919W        W20234  16.299  44.899  14.029
47920W        W20235  24.145  41.516  14.329
47921W        W20236  35.076  27.030   4.625
47922W        W20237   5.819   7.241   2.337
47923W        W20238  42.420  13.243  14.302
47924W        W20239   8.192  24.701   4.261
47925W        W20240  26.489   3.288  14.936
47926W        W20241   3.388   1.838  14.370
47927W        W20242  41.829  21.212  14.435
47928W        W20243  30.002   4.437   1.377
47929W        W20244  34.555  44.283   1.924
47930W        W20245  15.109  34.451  14.508
47931W        W20246  35.369  19.194   1.368
47932W        W20247   1.967  32.008  14.396
47933W        W20248   4.407  41.916   1.746
47934W        W20249  43.766   0.382   1.427
47935W        W20250   0.408  44.921   3.818
47936W        W20251  36.844  30.156  14.993
47937W        W20252  35.012  14.687   1.881
47938W        W20253   8.716   6.289   3.831
47939W        W20254  33.452  41.975  13.481
47940W        W20255  29.552  12.147  13.432
47941W        W20256  12.138  10.248   1.872
47942W        W20257  11.273  36.977   1.315
47943W        W20258   4.885  39.835  10.091
47944W        W20259  16.281   4.342   0.797
47945W        W20260   9.880  18.791  10.993
47946W        W20261  44.362  29.097  12.411
47947W        W20262  43.456   6.322  12.961
47948W        W20263  25.703   3.355   0.466
47949W        W20264  12.764   7.253  10.538
47950W        W20265  39.852  32.908   4.159
47951W        W20266  38.052  44.312  13.529
47952W        W20267  24.658  26.534  13.406
47953W        W20268  19.151  24.670   1.699
47954W        W20269   6.889  13.674  12.340
47955W        W20270   6.247   4.707  14.315
47956W        W20271  11.862  37.060   3.382
47957W        W20272  10.675  43.939  12.004
47958W        W20273   0.766  26.104   0.847
47959W        W20274  10.149  35.955  14.818
47960W        W20275  20.622  10.737  10.955
47961W        W20276   3.771  44.325   3.364
47962W        W20277  16.579  39.497  13.828
47963W        W20278   7.290   7.910   4.605
47964W        W20279  29.626  31.505  10.507
47965W        W20280  25.555  11.353   0.399
47966W        W20281   6.248  43.278  13.052
47967W        W20282   5.690  23.233  11.011
47968W        W20283  34.957  27.515  12.096
47969W        W20284  25.105  27.144  13.804
47970W        W20285  31.646  34.111  13.979
47971W        W20286   9.347  19.187  12.861
47972W        W20287  32.964  31.131   0.752
47973W        W20288  31.098  10.247  14.440
47974W        W20289  19.596  40.346   4.135
47975W        W20290  35.406   5.203  10.462
47976W        W20291  39.451   9.684  13.344
47977W        W20292  17.194   5.741  11.082
47978W        W20293  24.566  34.997  14.865
47979W        W20294  42.914  37.923  14.338
47980W        W20295  14.164  27.601   4.636
47981W        W20296  32.125  23.565  14.915
47982W        W20297  22.147  21.696  14.340
47983W        W20298  17.193   7.321  11.972
47984W        W20299  30.642  15.635   2.790
47985W        W20300   4.449  22.515   4.182
47986W        W20301  27.478   6.250  11.374
47987W        W20302   9.690  30.921  14.945
47988W        W20303  28.007   7.193  12.398
47989W        W20304  28.186  18.064  10.943
47990W        W20305   6.740  38.456   2.332
47991W        W20306  28.443  18.790  11.392
47992W        W20307  26.134  21.093   3.214
47993W        W20308   2.761  26.491  14.768
47994W        W20309  23.727  24.634   3.631
47995W        W20310  19.716  11.821  14.955
47996W        W20311  26.554  22.158  14.779
47997W        W20312  21.198  34.066   3.744
47998W        W20313   4.931   7.666  12.923
47999W        W20314  23.553  33.921   3.341
48000W        W20315  20.204  41.508  14.022
48001W        W20316  25.512  22.140  14.417
48002W        W20317  38.396  32.531  14.789
48003W        W20318   3.891  31.504  10.889
48004W        W20319  22.571  40.856   1.433
48005W        W20320  31.632  35.859  12.532
48006W        W20321  44.337   7.195  11.425
48007W        W20322   9.862  26.683  12.061
48008W        W20323  11.277  39.058  10.561
48009W        W20324  13.343  25.603  14.857
48010W        W20325  22.500  41.494  11.493
48011W        W20326   8.681   3.755  11.602
48012W        W20327   7.229   2.874  12.414
48013W        W20328  44.782   5.756  14.028
48014W        W20329  36.409   4.912   5.161
48015W        W20330  29.512  38.403  11.603
48016W        W20331  33.542  22.072  12.056
48017W        W20332  15.816  27.530  11.057
48018W        W20333  38.526  44.264   4.728
48019W        W20334  29.641  16.572   1.275
48020W        W20335  17.294  17.777   2.668
48021W        W20336  40.877   0.372  14.309
48022W        W20337  21.099  27.989  12.960
48023W        W20338  22.558  29.480   2.725
48024W        W20339  20.233   3.418   2.764
48025W        W20340  19.107  34.412   2.862
48026W        W20341  27.990   0.823   5.193
48027W        W20342   0.471  24.122   0.791
48028W        W20343   4.704  10.865  11.516
48029W        W20344  35.103  12.149  10.436
48030W        W20345  31.996  21.148  11.560
48031W        W20346  42.843  43.492  12.564
48032W        W20347  30.529  18.657   1.764
48033W        W20348  15.618  21.555   2.720
48034W        W20349  33.033  14.230  13.397
48035W        W20350   6.894  26.035  14.424
48036W        W20351  37.569  11.664   5.113
48037W        W20352  15.721   9.392   2.406
48038W        W20353  10.733   9.245  14.917
48039W        W20354   0.419  30.164  11.875
48040W        W20355   4.744  16.141  10.478
48041W        W20356  23.033  30.639   4.339
48042W        W20357  44.776   4.846  12.547
48043W        W20358   3.732  23.609  14.324
48044W        W20359  20.133  33.066   3.852
48045W        W20360  14.683  34.884  12.900
48046W        W20361   9.704  34.874   0.438
48047W        W20362  10.291  25.655  10.944
48048W        W20363   5.726  33.071  12.939
48049W        W20364  13.193  11.287  11.428
48050W        W20365  14.269   0.930  11.500
48051W        W20366  34.505   3.787   0.316
48052W        W20367   1.466  30.479  10.578
48053W        W20368  44.799  22.045   0.460
48054W        W20369  39.018   3.257   5.293
48055W        W20370  35.468  22.145  11.004
48056W        W20371   3.409   9.811   4.308
48057W        W20372  24.007  34.024  12.495
48058W        W20373  25.148  10.865  13.517
48059W        W20374  25.995   5.220  12.823
48060W        W20375  34.899  21.033  12.053
48061W        W20376  26.701  36.885  10.943
48062W        W20377  19.175   1.863  11.512
48063W        W20378  41.991  16.265   0.838
48064W        W20379  43.405  22.559  14.412
48065W        W20380  26.676  29.487  11.896
48066W        W20381  36.444  43.366   4.799
48067W        W20382  18.618  17.685  11.991
48068W        W20383   5.264  23.087  14.494
48069W        W20384   0.945  19.125  11.039
48070W        W20385  30.124  40.426  14.485
48071W        W20386  37.358  11.260   3.818
48072W        W20387  36.536  19.752   3.636
48073W        W20388  35.087  18.567   4.713
48074W        W20389   6.685  42.351   4.129
48075W        W20390  44.423   1.322   0.475
48076W        W20391   0.276  31.057   2.869
48077W        W20392   6.768   3.335  11.871
48078W        W20393  40.452  11.236   4.236
48079W        W20394   7.788  32.426   1.859
48080W        W20395  34.039  42.521  12.899
48081W        W20396  26.970  22.250  11.016
48082W        W20397  33.065   9.172  14.811
48083W        W20398  21.603   8.223   2.697
48084W        W20399  23.132  34.918   1.331
48085W        W20400   1.798  12.766  13.893
48086W        W20401   3.225  38.503  11.950
48087W        W20402  20.264   9.243  12.512
48088W        W20403  17.700   5.841  10.953
48089W        W20404   2.794   9.389  10.922
48090W        W20405  24.159   0.296   0.825
48091W        W20406  11.284   9.286   2.814
48092W        W20407  30.140  37.982   1.358
48093W        W20408  44.847  10.141   0.889
48094W        W20409  15.159   0.906  12.463
48095W        W20410  37.888   5.849  11.934
48096W        W20411  18.617   1.444  13.481
48097W        W20412  26.205  43.903  14.921
48098W        W20413   7.725  17.618  14.776
48099W        W20414  15.114  32.052  10.422
48100W        W20415  42.390  24.526   3.356
48101W        W20416   7.380   9.225  11.961
48102W        W20417  14.757  35.546  13.959
48103W        W20418   7.306  25.172  13.801
48104W        W20419   2.834  19.223  13.029
48105W        W20420  21.105  34.464  10.017
48106W        W20421  31.947  11.779  12.378
48107W        W20422  18.090  16.307   0.732
48108W        W20423  30.039  38.487  12.480
48109W        W20424  36.883  19.093  13.833
48110W        W20425  36.409  19.148   2.345
48111W        W20426  16.250  19.625  11.938
48112W        W20427  29.539  40.368   0.847
48113W        W20428   3.378  25.120   5.091
48114W        W20429  20.682  17.222   1.709
48115W        W20430  16.671  19.738   0.949
48116W        W20431  21.667  22.706   3.690
48117W        W20432  10.766  41.981  12.462
48118W        W20433  21.621  43.929   0.740
48119W        W20434  31.584  29.113   2.783
48120W        W20435  17.111  35.855   3.836
48121W        W20436  26.175  44.871  12.971
48122W        W20437  32.396   9.224   0.304
48123W        W20438  12.823  37.555  14.512
48124W        W20439  38.865  34.523  10.889
48125W        W20440  31.549  27.022   4.701
48126W        W20441  15.193  27.978  14.800
48127W        W20442   9.280  18.597   4.324
48128W        W20443  40.472   7.856  14.335
48129W        W20444  13.249  18.545   2.293
48130W        W20445   0.769  28.033  12.916
48131W        W20446  31.972  38.526   4.133
48132W        W20447   1.843  14.262   2.903
48133W        W20448  23.493   8.717  13.500
48134W        W20449  37.945  35.924   3.360
48135W        W20450   3.378  12.820   4.672
48136W        W20451  33.574  29.927   1.825
48137W        W20452  34.057  23.621  12.381
48138W        W20453  36.050  43.784   0.327
48139W        W20454   6.321  36.479  11.120
48140W        W20455  17.106  44.370   2.300
48141W        W20456  37.979  41.412  13.880
48142W        W20457  43.365  33.051  11.462
48143W        W20458   7.284   5.791   3.646
48144W        W20459  15.295  28.555  14.368
48145W        W20460   3.342  34.430   4.209
48146W        W20461  34.010  35.963   3.370
48147W        W20462  35.980  35.543   4.133
48148W        W20463  18.157  41.319  13.814
48149W        W20464  15.299  16.149   3.211
48150W        W20465   9.843  34.517  10.513
48151W        W20466  44.819  28.167  11.067
48152W        W20467  18.766   4.353   1.354
48153W        W20468  30.060  23.710   2.776
48154W        W20469  25.624  21.186  10.989
48155W        W20470   8.877  25.144   2.877
48156W        W20471  30.543   9.829   2.295
48157W        W20472  21.104  17.301   1.426
48158W        W20473   9.153  33.116   1.770
48159W        W20474   7.731   1.902  10.076
48160W        W20475  25.102  33.619  14.479
48161W        W20476  42.298   9.700  13.359
48162W        W20477  27.662  15.117   4.159
48163W        W20478  22.628  14.205   3.778
48164W        W20479  15.776  21.094   5.296
48165W        W20480  17.801  41.524   1.446
48166W        W20481  20.089  27.990  14.952
48167W        W20482  34.933  20.555  13.465
48168W        W20483  13.742  20.160  13.391
48169W        W20484  12.678  29.601   3.308
48170W        W20485  30.634   0.376  11.554
48171W        W20486  30.521  25.139  14.282
48172W        W20487   8.850   3.239   5.310
48173W        W20488  10.255   6.912   0.317
48174W        W20489  24.191   8.245   0.798
48175W        W20490   3.942  11.678  14.866
48176W        W20491  22.617   3.816   4.244
48177W        W20492  29.578  11.629  11.029
48178W        W20493  23.133   0.399  11.997
48179W        W20494   1.958  32.997  13.948
48180W        W20495   0.943  20.604   2.187
48181W        W20496  11.713   9.678   4.273
48182W        W20497   3.954  43.989   4.264
48183W        W20498  22.225  30.433  10.622
48184W        W20499  27.474  19.178   1.695
48185W        W20500  15.698  43.448  11.989
48186W        W20501  21.102  32.486   2.380
48187W        W20502  10.794  23.627  14.772
48188W        W20503  43.392  24.149  12.453
48189W        W20504  30.080   9.392  14.472
48190W        W20505  34.006  33.494  14.888
48191W        W20506  32.540  24.076  11.414
48192W        W20507  19.141   0.247  11.076
48193W        W20508  28.000  21.736  13.344
48194W        W20509  40.376  36.576   0.816
48195W        W20510  17.210  19.167   3.659
48196W        W20511  31.603  18.618  10.892
48197W        W20512   1.948  38.899  13.007
48198W        W20513  10.159   1.913  13.942
48199W        W20514  14.338  34.106  14.964
48200W        W20515   1.734   9.873  14.891
48201W        W20516  15.690  42.315   1.341
48202W        W20517  13.755  19.764  11.009
48203W        W20518   8.255   0.946  10.997
48204W        W20519  36.857   6.312  11.915
48205W        W20520  37.365  10.856   2.889
48206W        W20521  33.402  16.682   4.300
48207W        W20522  20.590  34.524   3.824
48208W        W20523  33.963  36.088   4.775
48209W        W20524  21.031  14.176  14.763
48210W        W20525  42.452  16.796   1.357
48211W        W20526  22.716   8.795   4.680
48212W        W20527  42.497  17.612  11.512
48213W        W20528  24.622  39.964  12.441
48214W        W20529  14.716  21.255  12.974
48215W        W20530   4.700   8.360  11.098
48216W        W20531  19.629  12.707  14.378
48217W        W20532  10.809  28.027   2.849
48218W        W20533  31.565  37.996  10.597
48219W        W20534  32.923   3.388  14.804
48220W        W20535  35.913  26.635   0.363
48221W        W20536  18.755  16.189  13.973
48222W        W20537  15.750  12.822   1.321
48223W        W20538  29.652   3.360   5.255
48224W        W20539  39.379  30.497  12.414
48225W        W20540   3.394   8.661   4.651
48226W        W20541  32.052  24.127   5.094
48227W        W20542   4.728   3.872   0.331
48228W        W20543   0.408  13.256   1.286
48229W        W20544  10.877  35.410  11.427
48230W        W20545  20.682  11.786  13.396
48231W        W20546   7.761  33.617  13.372
48232W        W20547  27.545  30.938   0.825
48233W        W20548  20.574  34.084   2.744
48234W        W20549  44.882  22.651   2.347
48235W        W20550  26.045  15.158  14.448
48236W        W20551  30.047  37.520   4.756
48237W        W20552  32.049  28.037  14.788
48238W        W20553  27.074   6.365  11.045
48239W        W20554   9.784  12.797   1.242
48240W        W20555  19.192  15.214  12.442
48241W        W20556  21.670   3.269  11.470
48242W        W20557  43.408  41.377   1.846
48243W        W20558  16.210  41.810   0.745
48244W        W20559   8.838  11.274  13.445
48245W        W20560   1.247  26.150   2.363
48246W        W20561  29.518  24.587  11.038
48247W        W20562  33.422  19.182   4.155
48248W        W20563  29.516  42.002   2.195
48249W        W20564  20.246   3.331  12.579
48250W        W20565  13.243  12.640  14.444
48251W        W20566  32.497  36.548   0.316
48252W        W20567  35.417   9.276  12.349
48253W        W20568   0.305  33.060   5.653
48254W        W20569  16.620  16.235  11.440
48255W        W20570  19.628  30.947  10.473
48256W        W20571  20.075  39.532   1.332
48257W        W20572  40.860  16.567  13.028
48258W        W20573  10.825  39.861  11.995
48259W        W20574   7.172  20.723  14.906
48260W        W20575  14.694  12.657  10.469
48261W        W20576  14.768  13.112   3.282
48262W        W20577   6.405  14.619  14.502
48263W        W20578  20.151  33.923  14.895
48264W        W20579  36.423  14.726  14.343
48265W        W20580  31.580  17.758  10.920
48266W        W20581  21.754  35.583   2.745
48267W        W20582  29.474  38.833  12.915
48268W        W20583   9.285  27.665  13.931
48269W        W20584   1.379  22.159   4.119
48270W        W20585  44.501  39.829   3.750
48271W        W20586  14.104  20.239   1.821
48272W        W20587  30.642   4.730  13.036
48273W        W20588  12.692  24.214  11.082
48274W        W20589  23.230  33.961   3.150
48275W        W20590  28.936  18.248  11.374
48276W        W20591  20.061  37.855   0.364
48277W        W20592  27.947  38.877  13.402
48278W        W20593   0.333  43.463  12.357
48279W        W20594  21.167   2.416  14.283
48280W        W20595  30.999   3.320   1.243
48281W        W20596   1.409  20.057  12.863
48282W        W20597   6.831  22.515  12.898
48283W        W20598   9.297   4.924  12.439
48284W        W20599   9.827  40.857  11.089
48285W        W20600  20.168  23.730   5.224
48286W        W20601  24.139   8.761   2.351
48287W        W20602  35.361   2.799   2.804
48288W        W20603  39.393  20.045   3.843
48289W        W20604  12.338  32.566   0.799
48290W        W20605  31.058  37.496  11.953
48291W        W20606  19.066   6.714  12.568
48292W        W20607  20.704   5.371  14.965
48293W        W20608  12.345  20.594   1.296
48294W        W20609   7.192   7.259  11.092
48295W        W20610  20.651   9.659   3.822
48296W        W20611   8.860  43.373   2.709
48297W        W20612  13.222  37.456   4.116
48298W        W20613  36.375  14.159  14.426
48299W        W20614  20.154  21.130  11.375
48300W        W20615  19.706  11.200  14.313
48301W        W20616  35.393   8.750  14.773
48302W        W20617  35.090  26.503   2.366
48303W        W20618   6.753  26.982   3.831
48304W        W20619  14.112  37.462   0.414
48305W        W20620  19.268  11.753   0.378
48306W        W20621  28.970  39.921  14.370
48307W        W20622  34.913  10.789  11.113
48308W        W20623  41.854  34.922   3.679
48309W        W20624  25.010   4.268  12.991
48310W        W20625  26.543   7.783   1.764
48311W        W20626  42.880  29.941   3.632
48312W        W20627  16.212  13.632  12.891
48313W        W20628  21.134   4.896  11.515
48314W        W20629  28.542  31.935  14.927
48315W        W20630  41.296  35.899  13.048
48316W        W20631  39.488  36.404   2.182
48317W        W20632  39.811  16.275  14.312
48318W        W20633  33.881  31.524   1.785
48319W        W20634   5.826  28.626  12.911
48320W        W20635  31.503  35.463   0.368
48321W        W20636  31.143  14.268  14.420
48322W        W20637  10.214  31.902   1.902
48323W        W20638  28.151  25.693   0.815
48324W        W20639  43.910  29.524   2.272
48325W        W20640  30.560  11.654   1.932
48326W        W20641   3.862  27.055   1.851
48327W        W20642  34.371  21.660  10.528
48328W        W20643  12.771   8.249  13.476
48329W        W20644  32.085   6.805  10.563
48330W        W20645  14.807   9.723   3.184
48331W        W20646   7.709  18.149   5.228
48332W        W20647  26.594   1.474   2.205
48333W        W20648   3.279   6.797   3.178
48334W        W20649  36.558  24.530   0.309
48335W        W20650   9.727   0.927   3.706
48336W        W20651  23.583  33.062  13.945
48337W        W20652  30.978  28.127  13.861
48338W        W20653   1.459   8.895  13.545
48339W        W20654  11.623  38.026   0.416
48340W        W20655  24.488  33.441   4.825
48341W        W20656   5.855   4.358  11.106
48342W        W20657  30.638  18.606  11.524
48343W        W20658  44.889  33.415   4.724
48344W        W20659  17.094  39.349  14.433
48345W        W20660  32.081  31.062   3.636
48346W        W20661   7.828  37.402  11.569
48347W        W20662  15.192  25.994   3.664
48348W        W20663   5.428  33.999   1.315
48349W        W20664   5.419  43.404  12.006
48350W        W20665  39.523  30.644  10.534
48351W        W20666  42.811   7.781   2.271
48352W        W20667  44.955   8.847  10.504
48353W        W20668  11.753  37.418   3.722
48354W        W20669   4.799  18.284   5.129
48355W        W20670   1.347  41.524   1.331
48356W        W20671  26.579  25.204   3.300
48357W        W20672  12.347  36.982  14.402
48358W        W20673  27.518  20.174   0.824
48359W        W20674  19.055  43.912  10.993
48360W        W20675  31.596   1.947  10.994
48361W        W20676  29.623  11.662   4.765
48362W        W20677  21.237  17.645  12.884
48363W        W20678  27.104   4.403  13.871
48364W        W20679  23.600   0.287  13.352
48365W        W20680   5.782  21.164   1.913
48366W        W20681  44.489  21.733  12.530
48367W        W20682  27.466  29.114  12.837
48368W        W20683   0.803  41.316  13.528
48369W        W20684  42.992  33.034  14.825
48370W        W20685  20.195  44.957   3.177
48371W        W20686  20.705  26.649  12.825
48372W        W20687  39.896   1.240   3.816
48373W        W20688  12.739  44.406   3.229
48374W        W20689  41.460   6.302  11.962
48375W        W20690  13.652  36.059  13.873
48376W        W20691  13.806  31.082   2.179
48377W        W20692  36.942  13.613  10.942
48378W        W20693  35.932  32.085   3.726
48379W        W20694   0.437  36.566   2.270
48380W        W20695  12.305  23.599  13.872
48381W        W20696  13.277  40.464  13.055
48382W        W20697  11.778  22.539  10.989
48383W        W20698  37.083  15.087  12.521
48384W        W20699  23.029  35.013  14.915
48385W        W20700  17.122  23.530  13.478
48386W        W20701  40.806  15.159  12.503
48387W        W20702   7.237  26.952  11.869
48388W        W20703  34.063  26.971   0.932
48389W        W20704  44.990  30.070  12.059
48390W        W20705  38.970  34.116  12.579
48391W        W20706  33.386  33.452  13.502
48392W        W20707  26.468   2.420  12.922
48393W        W20708  14.797  20.745   0.350
48394W        W20709  19.220  24.978   2.868
48395W        W20710  37.440  33.497   3.703
48396W        W20711  10.761  38.480   0.290
48397W        W20712  44.897  30.454  13.971
48398W        W20713  23.130   8.807  12.561
48399W        W20714  37.366  13.753   0.895
48400W        W20715  22.150  34.488  12.471
48401W        W20716  26.474  40.376   4.637
48402W        W20717   0.488  10.657   4.173
48403W        W20718  18.050  12.754   3.323
48404W        W20719  30.067  18.085   3.665
48405W        W20720  17.242   7.726   2.702
48406W        W20721  31.121  27.668   1.826
48407W        W20722  40.490  10.322   1.932
48408W        W20723  11.326  40.835   4.248
48409W        W20724  33.464  34.054  11.049
48410W        W20725  43.339  38.984  13.388
48411W        W20726  29.632   5.285  11.108
48412W        W20727  42.920  17.095  12.015
48413W        W20728  32.562  29.972  11.543
48414W        W20729  34.488  18.102   1.807
48415W        W20730  34.496   9.249   3.171
48416W        W20731   5.754   9.852  13.967
48417W        W20732  36.846  20.631   4.216
48418W        W20733  28.652  28.119   0.281
48419W        W20734  13.805  30.450   3.331
48420W        W20735  13.664  26.116  14.019
48421W        W20736   6.273  35.000   4.678
48422W        W20737  40.002  41.807  11.113
48423W        W20738   5.912  31.037  11.414
48424W        W20739  31.961  19.768   4.224
48425W        W20740  42.859  36.948  11.109
48426W        W20741   5.395  11.344  14.887
48427W        W20742  28.128  39.440  13.378
48428W        W20743  31.051  28.985  13.999
48429W        W20744  11.166  29.119  10.512
48430W        W20745  21.730  42.454  10.513
48431W        W20746  35.061  35.476  12.021
48432W        W20747  16.734  22.679   4.285
48433W        W20748   4.895  26.087  14.313
48434W        W20749  42.998  13.301   1.719
48435W        W20750  24.019  43.404   3.866
48436W        W20751  25.533   0.360  12.344
48437W        W20752   3.853  39.399   2.879
48438W        W20753  16.242  19.260  11.521
48439W        W20754  31.117  11.626  10.013
48440W        W20755   9.765  15.655   4.722
48441W        W20756  12.194  27.640  13.547
48442W        W20757  14.615  16.226   2.704
48443W        W20758  15.699  28.492  14.817
48444W        W20759  13.235  20.205  12.470
48445W        W20760  27.449  13.610   1.908
48446W        W20761  21.174  44.410  12.531
48447W        W20762  22.601  13.787  10.509
48448W        W20763   3.381  32.488  12.065
48449W        W20764  37.068  29.540  10.956
48450W        W20765  12.794  21.738  10.888
48451W        W20766  34.863  12.756   0.404
48452W        W20767  12.827  10.167   0.789
48453W        W20768  30.578  18.705   4.814
48454W        W20769  43.469  30.637   4.283
48455W        W20770  36.386  37.435   2.813
48456W        W20771   5.745  38.965  13.325
48457W        W20772  41.006  30.552   0.361
48458W        W20773  19.619  15.282  13.978
48459W        W20774   2.942  26.660   4.722
48460W        W20775  27.519  23.630  13.041
48461W        W20776  35.055   8.662  11.484
48462W        W20777  32.404  14.637   3.691
48463W        W20778   0.810   9.730   4.681
48464W        W20779  10.768  31.544   0.764
48465W        W20780  44.965  18.647  10.546
48466W        W20781  40.809  13.824   1.886
48467W        W20782  31.536  28.027  14.923
48468W        W20783  31.979  34.024   1.793
48469W        W20784  38.913   7.349   2.771
48470W        W20785  31.422  12.229  14.376
48471W        W20786  41.342   6.877  14.435
48472W        W20787  41.369  28.124   3.222
48473W        W20788  19.123  16.075  11.856
48474W        W20789  41.995  23.655   3.280
48475W        W20790   0.326  15.280  12.488
48476W        W20791  43.290  16.080  11.498
48477W        W20792  17.601  17.297   2.339
48478W        W20793  41.376  11.693   2.832
48479W        W20794   8.345   4.715   4.620
48480W        W20795  43.425  34.035  14.312
48481W        W20796  26.045  18.274  10.969
48482W        W20797  11.769   7.382  11.011
48483W        W20798  16.292  16.568  11.605
48484W        W20799  23.643  39.385   4.741
48485W        W20800  27.135  10.379   0.851
48486W        W20801  12.127  32.007   0.312
48487W        W20802  17.083   5.346  11.026
48488W        W20803   9.323  21.021  12.913
48489W        W20804  13.343  15.629   2.766
48490W        W20805  33.402  12.171   4.165
48491W        W20806  12.677  18.273   5.676
48492W        W20807   3.350  25.611  14.771
48493W        W20808  37.527  41.868  13.363
48494W        W20809   2.765   9.798   2.344
48495W        W20810  40.811  11.751  12.533
48496W        W20811  43.011  41.961   3.841
48497W        W20812  26.604  25.611   5.319
48498W        W20813  25.683  37.569   3.266
48499W        W20814  23.081  10.865   4.139
48500W        W20815  37.941  28.144   1.394
48501W        W20816  14.763  17.253  14.985
48502W        W20817  38.511  27.623   3.384
48503W        W20818  37.891  14.116  10.954
48504W        W20819   2.793  37.399  13.470
48505W        W20820   3.455  20.696  14.358
48506W        W20821  21.140  25.014   2.878
48507W        W20822  35.521  11.277   1.713
48508W        W20823  24.555  40.433  14.479
48509W        W20824  44.788  30.991   0.964
48510W        W20825  12.295   8.318  14.364
48511W        W20826  34.918  41.517   2.360
48512W        W20827   8.220  25.203   2.288
48513W        W20828  16.152  35.909   0.283
48514W        W20829   9.199  15.298  13.492
48515W        W20830  30.072  23.606   4.628
48516W        W20831  44.913  29.960  10.605
48517W        W20832  18.273  35.868   0.738
48518W        W20833  19.748   8.684  11.029
48519W        W20834  22.193  25.208   3.869
48520W        W20835  39.866  15.785  10.937
48521W        W20836  14.832  29.113  12.502
48522W        W20837  11.360  44.399  14.943
48523W        W20838  37.904  20.662   0.421
48524W        W20839  27.450  11.799   3.181
48525W        W20840   2.835  17.265   3.795
48526W        W20841   4.315  13.125  11.092
48527W        W20842  36.545  34.570   4.257
48528W        W20843  16.226  36.928  12.425
48529W        W20844   2.866  13.802   1.268
48530W        W20845  41.422   7.690  14.014
48531W        W20846  25.557  16.102   1.771
48532W        W20847   7.303  18.290  11.451
48533W        W20848  38.564  14.131  14.762
48534W        W20849  30.512   3.783   2.210
48535W        W20850  40.348  34.119   4.247
48536W        W20851  35.926  40.029   2.705
48537W        W20852  18.116  23.615  11.596
48538W        W20853   2.733  33.941  12.358
48539W        W20854   1.938  33.973   1.820
48540W        W20855  23.560  41.416  13.910
48541W        W20856  21.541  12.278  14.961
48542W        W20857  14.608  36.898   1.323
48543W        W20858   0.467  13.198   3.238
48544W        W20859  24.230  38.337   2.214
48545W        W20860  23.137  22.214   3.653
48546W        W20861  30.616   5.224   0.305
48547W        W20862   2.760  20.750   4.301
48548W        W20863  38.878  19.080  14.377
48549W        W20864   1.772  21.718   2.242
48550W        W20865   5.813  37.452  12.089
48551W        W20866   6.384  24.482  11.492
48552W        W20867   7.307   3.405   2.747
48553W        W20868  24.652   0.429  13.414
48554W        W20869  36.999   6.285  12.843
48555W        W20870  20.064  27.009  10.455
48556W        W20871  22.592   4.840  13.359
48557W        W20872  18.749  21.207  12.899
48558W        W20873  37.905  16.300   0.410
48559W        W20874  32.568  33.992  12.529
48560W        W20875   8.716   5.798   2.749
48561W        W20876  18.178  28.571   2.840
48562W        W20877  44.881  41.892   4.171
48563W        W20878  37.990  39.941  10.513
48564W        W20879  21.021   0.944  11.896
48565W        W20880   2.895  11.739  14.929
48566W        W20881  30.152   1.287   3.661
48567W        W20882  27.018  28.134  10.027
48568W        W20883  10.831  33.111   4.113
48569W        W20884  38.472   2.293   3.338
48570W        W20885   0.891  14.655   3.756
48571W        W20886   6.412   7.295   2.812
48572W        W20887  36.401  31.112  12.380
48573W        W20888  33.064  20.537   3.204
48574W        W20889  15.819  26.057   4.192
48575W        W20890  35.405   2.820   4.810
48576W        W20891  44.894  38.073   0.412
48577W        W20892   5.210  17.082  10.423
48578W        W20893  11.821  22.546  13.541
48579W        W20894  33.991   2.965   2.819
48580W        W20895   0.420  11.156  11.919
48581W        W20896  29.629  29.522   4.289
48582W        W20897  34.494  21.233   0.779
48583W        W20898  22.673  23.092   3.266
48584W        W20899   0.405   0.470  13.363
48585W        W20900  29.958  24.528  10.484
48586W        W20901  39.833  26.699  14.306
48587W        W20902  18.603   0.296  10.603
48588W        W20903  12.199  38.932   2.744
48589W        W20904  30.638  19.708   4.292
48590W        W20905  29.614   3.942   4.307
48591W        W20906  41.791  21.682  13.320
48592W        W20907  15.633  31.123  11.051
48593W        W20908  14.708  11.703  14.994
48594W        W20909  38.546  23.523  11.920
48595W        W20910  31.557  44.445   4.260
48596W        W20911   3.936   2.463  12.451
48597W        W20912  41.951  42.509  14.466
48598W        W20913  24.177   7.690   3.285
48599W        W20914  34.090  30.068   4.805
48600W        W20915  35.920  21.196  12.490
48601W        W20916  35.965  19.067  13.958
48602W        W20917   2.433  12.192  11.047
48603W        W20918  33.900  14.150   4.130
48604W        W20919   7.681  38.010   1.368
48605W        W20920  23.130   3.272  12.386
48606W        W20921  42.401  32.526   4.768
48607W        W20922  35.857  40.325   4.183
48608W        W20923  13.725  41.872  10.599
48609W        W20924  15.109  20.585  11.046
48610W        W20925  28.467   0.890  13.039
48611W        W20926  31.633  39.955   2.273
48612W        W20927  36.462  39.887   1.243
48613W        W20928  11.325  13.140   3.196
48614W        W20929  36.573  31.582  13.382
48615W        W20930  11.188  11.826  14.000
48616W        W20931  31.086  19.627  13.939
48617W        W20932  25.166  12.249  12.576
48618W        W20933  40.339   5.851  13.794
48619W        W20934  40.889  38.451   4.263
48620W        W20935  40.039  43.779  11.924
48621W        W20936   3.886  13.219   2.871
48622W        W20937  12.218  25.654  11.974
48623W        W20938  41.306  40.928   4.250
48624W        W20939  33.380  29.042  14.030
48625W        W20940  44.468  22.670   1.278
48626W        W20941  11.172  36.856   3.689
48627W        W20942  29.963   6.419   2.348
48628W        W20943  20.104   1.855   0.796
48629W        W20944   4.344  26.094   2.817
48630W        W20945   2.955  26.011  13.507
48631W        W20946  40.338  12.180  13.047
48632W        W20947  15.641  28.674   2.806
48633W        W20948  44.973   1.341   4.311
48634W        W20949   8.831  18.270  10.565
48635W        W20950  12.229  10.139  13.861
48636W        W20951  24.055  39.480   4.830
48637W        W20952  43.342  29.957   1.725
48638W        W20953  28.119  35.521  13.990
48639W        W20954  17.658   2.915  12.525
48640W        W20955  23.131  27.511  10.600
48641W        W20956  17.112  31.014   1.851
48642W        W20957  24.590  17.674   0.734
48643W        W20958  38.554  17.179   0.737
48644W        W20959  34.579  42.823  13.809
48645W        W20960  32.519  15.223   4.142
48646W        W20961  43.802  21.584  11.124
48647W        W20962   2.747  20.196   3.212
48648W        W20963  34.396  13.610   3.776
48649W        W20964   8.210  34.441   0.869
48650W        W20965  32.490  17.609   2.732
48651W        W20966  30.054   1.739  11.865
48652W        W20967  34.085  31.132  11.063
48653W        W20968  30.491  14.179   5.284
48654W        W20969  24.002  34.092  14.022
48655W        W20970  22.694  26.044  10.926
48656W        W20971  33.555  20.067   0.426
48657W        W20972  24.985  10.800   2.346
48658W        W20973  17.578  10.334   3.776
48659W        W20974   4.302  20.736  11.860
48660W        W20975   2.808  43.788  10.568
48661W        W20976  39.009  41.324   0.832
48662W        W20977  43.391   5.244  14.342
48663W        W20978  23.180  18.692  14.769
48664W        W20979  43.943  42.973   1.384
48665W        W20980  29.014  33.625   9.955
48666W        W20981  44.994   4.388   1.882
48667W        W20982  29.097  19.242  14.886
48668W        W20983   3.264   8.810  10.628
48669W        W20984  29.542  37.889   2.239
48670W        W20985  34.077  35.563  14.946
48671W        W20986  13.825   5.689  14.873
48672W        W20987  10.674  17.122  12.425
48673W        W20988   3.836  11.312   1.785
48674W        W20989  10.203  25.995   1.874
48675W        W20990  19.748   0.315  11.102
48676W        W20991  12.224  27.978   0.731
48677W        W20992  38.540  39.958   4.306
48678W        W20993  30.435   1.851   3.361
48679W        W20994  41.954  28.088   0.763
48680W        W20995  23.689   8.753   1.711
48681W        W20996  22.189  32.116   1.812
48682W        W20997  15.271  36.588   1.422
48683W        W20998  25.147  13.606   1.700
48684W        W20999   6.818  29.937   2.751
48685W        W21000  38.923   9.370  13.034
48686W        W21001  40.898  38.029  11.980
48687W        W21002   2.449  12.359   2.865
48688W        W21003   7.388  19.766  13.063
48689W        W21004  39.827  41.522   0.305
48690W        W21005  31.454   7.215  10.605
48691W        W21006   0.288  26.154  10.949
48692W        W21007  31.150  18.704   3.224
48693W        W21008  15.804  40.531  12.905
48694W        W21009   7.667  30.008  11.606
48695W        W21010  34.888  17.093  12.475
48696W        W21011  32.609  12.273   2.264
48697W        W21012  19.045  15.095  11.047
48698W        W21013  26.580  44.325   4.765
48699W        W21014  10.197  27.193  10.909
48700W        W21015   0.465  24.701   1.731
48701W        W21016   2.770  20.691   2.707
48702W        W21017  39.936  11.844  13.004
48703W        W21018  12.352  41.905   0.362
48704W        W21019   8.741  24.223  11.955
48705W        W21020  23.545  28.672   4.733
48706W        W21021  24.109  17.090  11.988
48707W        W21022  36.558   9.326  12.958
48708W        W21023  42.917  35.981   0.243
48709W        W21024  36.555  14.141   1.839
48710W        W21025  27.134  14.296   3.659
48711W        W21026  44.267   1.465   1.345
48712W        W21027   2.948  12.193   1.372
48713W        W21028  10.353  14.736   0.756
48714W        W21029   6.902   2.419   3.252
48715W        W21030  38.905  10.302  11.081
48716W        W21031  14.250  44.469   3.662
48717W        W21032  15.774   8.262  10.932
48718W        W21033  20.538  28.453  11.094
48719W        W21034  14.706  34.565   4.808
48720W        W21035  18.152  23.218   2.411
48721W        W21036  30.965   1.950   0.353
48722W        W21037  27.113  33.399  12.940
48723W        W21038  25.539  44.355  10.455
48724W        W21039  28.008   5.304   2.417
48725W        W21040  38.919  40.929   0.296
48726W        W21041  16.190  23.616   3.670
48727W        W21042   3.712   6.755   4.720
48728W        W21043  31.452  37.443  12.893
48729W        W21044  26.692  25.163  12.971
48730W        W21045  32.007  35.412  11.986
48731W        W21046  22.082   0.397   1.310
48732W        W21047  34.563  24.063  11.374
48733W        W21048  33.010   1.376   4.114
48734W        W21049  11.631   2.861   0.352
48735W        W21050  19.736  30.527  12.059
48736W        W21051  10.341   2.328   4.757
48737W        W21052  22.249  36.042  13.325
48738W        W21053  34.483  22.606  12.857
48739W        W21054  27.190   3.376  10.069
48740W        W21055  23.067  30.576   0.327
48741W        W21056  43.992  17.125  12.863
48742W        W21057   6.910  41.330   3.345
48743W        W21058  28.596   3.943   3.806
48744W        W21059  42.397   7.712   0.474
48745W        W21060  32.119   2.372  11.044
48746W        W21061   0.494  33.387   4.777
48747W        W21062  44.502   5.213  11.045
48748W        W21063  39.061   0.405  14.384
48749W        W21064   2.905  17.266   2.243
48750W        W21065   6.865  11.362   1.308
48751W        W21066  25.669  24.612   1.887
48752W        W21067   0.941   2.334  14.325
48753W        W21068  35.403  25.052  14.992
48754W        W21069   4.903  16.590  14.812
48755W        W21070  41.886  39.054  12.380
48756W        W21071  42.523  43.975   3.176
48757W        W21072  38.552  12.722  13.343
48758W        W21073  44.943  35.929   0.336
48759W        W21074  36.380   1.304   3.342
48760W        W21075  41.835  35.092   5.250
48761W        W21076   4.821  18.573  14.307
48762W        W21077   1.791  26.486  12.363
48763W        W21078  31.466   2.279  14.375
48764W        W21079  39.448  22.525  11.552
48765W        W21080  14.129   9.806   2.741
48766W        W21081  33.503  31.955   4.221
48767W        W21082  11.264  35.956   4.801
48768W        W21083  15.139  35.993   2.413
48769W        W21084   4.871   8.704   3.326
48770W        W21085  32.936  38.033   0.248
48771W        W21086  21.723  24.581  14.380
48772W        W21087  25.502  38.550   2.767
48773W        W21088   0.448  18.139   1.447
48774W        W21089  43.273  38.930   4.656
48775W        W21090  22.029  22.563  12.377
48776W        W21091  33.898  29.155  12.991
48777W        W21092  11.694  39.407   2.289
48778W        W21093  25.171   0.377  12.562
48779W        W21094  16.784  35.597  13.404
48780W        W21095  44.483  23.048  14.465
48781W        W21096  17.639  29.935  11.950
48782W        W21097  23.651  41.486  11.377
48783W        W21098  31.099  17.637   2.221
48784W        W21099  17.771  25.613  10.939
48785W        W21100   8.686  33.499   0.742
48786W        W21101   0.836   5.404  14.443
48787W        W21102  44.432  34.925   1.890
48788W        W21103  21.207  20.607   0.308
48789W        W21104  11.640  34.026  13.913
48790W        W21105   3.761  20.660  13.982
48791W        W21106  42.396   6.791   1.931
48792W        W21107  38.042  23.579  11.372
48793W        W21108   7.720  41.028  13.018
48794W        W21109   3.818  43.323  14.468
48795W        W21110  20.665  31.632   1.716
48796W        W21111   2.885  35.936  11.462
48797W        W21112  15.203  18.231  13.387
48798W        W21113  24.503  15.148  10.544
48799W        W21114   1.450  32.933   4.341
48800W        W21115  21.578  38.900   2.851
48801W        W21116  12.171  27.552  10.915
48802W        W21117  27.953  40.524   0.323
48803W        W21118  43.310  42.335   2.351
48804W        W21119  16.314  16.762  13.512
48805W        W21120  23.029  23.117   4.180
48806W        W21121  37.970  15.129  13.334
48807W        W21122  34.988  44.412  10.466
48808W        W21123  16.652  14.326   1.220
48809W        W21124  30.145  37.572   3.863
48810W        W21125  18.757  16.762   3.846
48811W        W21126  13.194  34.490   4.285
48812W        W21127   1.296   8.207  13.477
48813W        W21128  35.374  18.636  10.643
48814W        W21129  20.713  30.960  12.035
48815W        W21130   0.457  21.650  10.954
48816W        W21131  13.761  22.588   4.765
48817W        W21132  43.873  43.984  13.031
48818W        W21133  19.162  36.353   0.878
48819W        W21134  15.113   4.894   4.657
48820W        W21135  27.168  22.038  14.876
48821W        W21136  18.663  12.300  12.908
48822W        W21137   4.809  44.759  11.541
48823W        W21138  29.480  17.729  13.819
48824W        W21139   9.754  23.188   0.303
48825W        W21140   1.822   0.303  13.834
48826W        W21141  38.490  17.158   3.238
48827W        W21142  31.069   4.292   1.296
48828W        W21143   3.248  28.463  14.779
48829W        W21144  36.095  15.281   3.188
48830W        W21145  33.967  24.479   1.917
48831W        W21146  30.010  37.010  14.859
48832W        W21147  29.924   6.876  12.907
48833W        W21148  31.937  30.910   2.824
48834W        W21149  15.117  40.027   1.441
48835W        W21150  10.275  32.935   1.847
48836W        W21151  17.631   2.791   2.783
48837W        W21152  42.878   4.264   4.160
48838W        W21153  13.259  39.979  10.900
48839W        W21154  28.025  10.787   3.197
48840W        W21155  33.095  26.490   4.200
48841W        W21156  23.693   6.786  13.823
48842W        W21157  25.554   7.302   0.318
48843W        W21158  23.576  24.983   2.302
48844W        W21159   6.338   7.339  14.356
48845W        W21160  15.317  35.483  14.382
48846W        W21161  18.194  22.602  13.348
48847W        W21162  35.110  25.197   3.265
48848W        W21163  31.956   8.866   0.396
48849W        W21164  29.034  19.669   4.279
48850W        W21165   0.862  42.379   1.715
48851W        W21166   5.363  17.166   1.715
48852W        W21167  38.922  12.129   2.722
48853W        W21168   9.227  38.478   4.279
48854W        W21169  39.934  14.796   4.293
48855W        W21170  18.737  19.546   2.282
48856W        W21171  37.939  26.027   3.702
48857W        W21172  31.560  37.432  11.468
48858W        W21173   1.288   4.917  10.995
48859W        W21174  41.486  43.366   1.392
48860W        W21175   9.644  15.093   2.265
48861W        W21176  32.521  23.536  11.116
48862W        W21177  36.578   4.923  12.423
48863W        W21178   7.680  43.868  10.619
48864W        W21179   1.455   6.370  13.942
48865W        W21180  14.719  37.575  11.448
48866W        W21181  43.367   6.767   3.325
48867W        W21182  11.851  35.971   0.791
48868W        W21183  16.755  38.844  11.460
48869W        W21184  41.836   6.786   4.284
48870W        W21185  15.159   0.436  13.446
48871W        W21186  41.372  35.053   1.787
48872W        W21187  22.579  41.011   3.852
48873W        W21188  37.385  30.585  13.364
48874W        W21189  41.446  16.713  13.977
48875W        W21190   3.928  33.100   0.895
48876W        W21191  42.831   4.739  14.304
48877W        W21192  29.663  27.066  13.358
48878W        W21193  10.149  44.444   1.896
48879W        W21194  20.158  19.730   1.737
48880W        W21195  22.067  35.584   0.464
48881W        W21196   9.331  26.023  11.585
48882W        W21197  43.321  30.436  14.344
48883W        W21198  35.003  30.592  10.528
48884W        W21199  34.967  29.582  14.813
48885W        W21200  24.705  13.168  14.323
48886W        W21201  30.417   5.853   1.801
48887W        W21202   7.307  23.557  12.539
48888W        W21203  19.546   3.954  13.500
48889W        W21204  34.964  36.506  13.848
48890W        W21205  23.163  32.122   2.298
48891W        W21206  18.608  17.715  13.856
48892W        W21207  33.988  33.526  13.829
48893W        W21208  27.168  24.148  10.512
48894W        W21209  11.321  21.531   0.778
48895W        W21210  30.423  41.496  14.975
48896W        W21211  32.055  31.071   2.372
48897W        W21212  25.497  39.364  13.454
48898W        W21213  32.436  43.922  11.402
48899W        W21214  19.696  15.602   4.731
48900W        W21215  41.430   3.767  12.471
48901W        W21216   5.775  39.318   3.167
48902W        W21217   8.870  20.180   0.835
48903W        W21218  21.685   7.263  14.348
48904W        W21219   5.824  38.069  11.520
48905W        W21220  11.358  24.676   4.288
48906W        W21221  34.091   1.826  14.283
48907W        W21222  38.397  33.007   3.207
48908W        W21223  13.721  10.843  14.837
48909W        W21224  25.136  29.632  13.428
48910W        W21225  41.986  29.493   4.721
48911W        W21226  12.249  42.377   3.732
48912W        W21227   7.175  35.550  14.353
48913W        W21228  36.421   0.867   5.248
48914W        W21229  40.001  25.214  13.453
48915W        W21230  23.123  32.975  14.283
48916W        W21231  44.935  30.989  12.527
48917W        W21232  42.298  10.275   3.317
48918W        W21233  22.015  30.551   0.740
48919W        W21234  14.239  34.601   4.247
48920W        W21235  14.252   4.361   1.440
48921W        W21236  33.962  16.617   0.437
48922W        W21237  40.315  34.405  14.497
48923W        W21238  13.175   0.310   3.821
48924W        W21239  41.445  22.080   2.809
48925W        W21240  23.228  26.042  10.973
48926W        W21241  19.753   2.929   3.151
48927W        W21242  35.556   4.446  13.033
48928W        W21243  12.152  22.682   2.252
48929W        W21244   6.401  33.573   3.757
48930W        W21245  26.196  13.307   3.780
48931W        W21246  29.107  24.613   4.745
48932W        W21247  20.706   2.845   4.125
48933W        W21248  34.030  44.878   0.245
48934W        W21249  11.149  42.845   0.284
48935W        W21250  12.344   0.338   2.254
48936W        W21251   4.447  11.638   2.353
48937W        W21252   1.929  17.694  11.858
48938W        W21253  24.188  35.447  14.490
48939W        W21254  42.956  33.000  13.402
48940W        W21255  34.539  35.498   3.703
48941W        W21256   2.434  29.498   5.289
48942W        W21257  12.667   8.720  10.404
48943W        W21258  43.005  18.181  14.855
48944W        W21259   4.318  12.273   4.674
48945W        W21260  23.708  29.564  14.344
48946W        W21261  26.140  42.907  11.987
48947W        W21262   9.724  24.044   3.857
48948W        W21263  27.171  37.934  10.934
48949W        W21264  21.249   2.786   2.733
48950W        W21265  35.575  27.479   3.865
48951W        W21266   0.327  17.670  10.938
48952W        W21267  26.035   4.928  14.770
48953W        W21268  11.813  32.442   4.171
48954W        W21269   0.391  13.620   4.154
48955W        W21270  32.987  34.579   3.781
48956W        W21271  36.910   2.306  12.946
48957W        W21272  21.599  35.542  14.894
48958W        W21273  34.108  37.908   0.829
48959W        W21274  13.234  17.132   4.157
48960W        W21275  25.525  12.621  11.381
48961W        W21276  34.949   2.339   0.766
48962W        W21277  38.551  13.790   0.943
48963W        W21278  24.669  19.101  10.909
48964W        W21279  18.649   5.747   0.341
48965W        W21280  40.310  43.320   4.311
48966W        W21281   4.857  33.439  12.381
48967W        W21282   7.811  29.595   2.824
48968W        W21283   1.477  19.652   3.368
48969W        W21284  12.162  30.466   2.225
48970W        W21285  24.054  41.359   3.311
48971W        W21286  37.339  33.413  12.554
48972W        W21287  38.943   4.941  12.862
48973W        W21288  38.562  31.563   0.896
48974W        W21289  13.344  22.221  11.953
48975W        W21290   7.310  43.362  11.446
48976W        W21291  11.791  28.581  12.011
48977W        W21292  40.970  29.535  14.777
48978W        W21293  25.636   9.676  11.433
48979W        W21294  34.095  20.117  13.040
48980W        W21295  36.574  22.193  12.881
48981W        W21296  17.622  11.850  11.002
48982W        W21297  33.569  32.068  13.973
48983W        W21298  16.607   9.647   5.713
48984W        W21299  14.619  25.616   3.692
48985W        W21300  37.995  17.197   2.184
48986W        W21301  43.016   1.952  14.786
48987W        W21302  26.642  32.908  12.058
48988W        W21303  23.125  38.470   4.611
48989W        W21304  18.610   6.219  14.958
48990W        W21305  11.169  25.059  14.496
48991W        W21306  33.540  20.263  12.858
48992W        W21307  28.570  42.946   0.372
48993W        W21308  12.665   6.818  13.439
48994W        W21309  44.993  14.095  14.923
48995W        W21310   2.807   0.807  12.958
48996W        W21311   3.727  39.957   1.871
48997W        W21312   2.937  44.933   4.256
48998W        W21313  32.920  11.130  13.376
48999W        W21314  44.936  44.395   4.124
49000W        W21315  12.193  18.199   3.829
49001W        W21316   2.836  32.454   3.158
49002W        W21317  22.574  40.354   3.385
49003W        W21318  15.656  22.229  12.003
49004W        W21319   3.388  30.145   0.840
49005W        W21320  15.188  30.931  13.963
49006W        W21321  16.608  13.651   4.127
49007W        W21322  34.881  41.824  12.909
49008W        W21323  16.245  17.271  11.034
49009W        W21324  36.509  30.658  13.337
49010W        W21325  23.997  39.315   1.220
49011W        W21326  29.128  31.147   3.331
49012W        W21327   1.733  24.210  13.018
49013W        W21328   4.252   2.245  12.019
49014W        W21329  28.441  38.537  10.410
49015W        W21330  14.734  17.592   0.424
49016W        W21331  30.950   9.374  13.821
49017W        W21332  24.121   4.765   2.797
49018W        W21333  15.221   4.711  11.436
49019W        W21334   8.852  38.849  13.872
49020W        W21335  27.173  44.442   2.810
49021W        W21336  29.457   6.910   0.371
49022W        W21337  10.166  31.000   3.379
49023W        W21338  13.134  28.952  13.414
49024W        W21339   9.259  22.739  12.343
49025W        W21340   9.166   1.937  10.430
49026W        W21341  34.510   8.825  12.476
49027W        W21342  10.349   1.862   2.840
49028W        W21343   4.890  15.123  10.452
49029W        W21344   3.830  26.659   3.330
49030W        W21345  20.760  16.702   4.808
49031W        W21346  23.521   7.411   1.846
49032W        W21347  29.577  25.665   4.818
49033W        W21348   8.391  42.963  14.419
49034W        W21349  36.915  29.551   0.291
49035W        W21350  26.093  44.443  12.363
49036W        W21351  38.415  35.401   3.237
49037W        W21352  14.738   9.809   4.656
49038W        W21353  35.378   4.412   2.876
49039W        W21354  33.451   4.445   1.883
49040W        W21355  18.769   3.932  11.944
49041W        W21356  12.191  12.747   4.302
49042W        W21357  27.959   1.789  12.836
49043W        W21358  29.042  28.978   3.637
49044W        W21359  37.017  17.603  11.980
49045W        W21360  40.323  11.653   2.364
49046W        W21361  16.566   2.471   3.275
49047W        W21362  15.680  21.043  13.948
49048W        W21363  31.498   8.326  14.332
49049W        W21364  21.520  35.897  14.286
49050W        W21365  29.491   3.865   1.772
49051W        W21366  29.001  38.538   0.772
49052W        W21367   1.903  24.008  14.389
49053W        W21368  20.603  43.922  11.885
49054W        W21369   5.278  26.536   5.119
49055W        W21370  35.500   3.438  14.829
49056W        W21371  40.415  40.514  12.569
49057W        W21372  27.024  40.431   1.398
49058W        W21373   4.206  37.485   1.728
49059W        W21374  32.012   0.279   4.151
49060W        W21375  10.370  18.734   0.866
49061W        W21376  19.692   7.389  10.473
49062W        W21377  30.968   7.812  12.034
49063W        W21378  43.394  30.961  11.941
49064W        W21379  44.980  12.675   1.391
49065W        W21380  34.491  35.521  11.089
49066W        W21381  26.178  42.444   3.779
49067W        W21382  25.033  40.838  14.456
49068W        W21383  13.343   9.729   4.820
49069W        W21384   8.855  30.556   2.868
49070W        W21385   6.350   7.347   0.887
49071W        W21386  15.296  24.023  12.032
49072W        W21387   7.400  41.960  14.344
49073W        W21388  15.145  40.523   0.353
49074W        W21389   8.776   6.237  14.830
49075W        W21390  13.277   2.838   3.245
49076W        W21391   1.329   5.801  12.417
49077W        W21392  42.976  12.303   2.759
49078W        W21393  34.107  29.519   9.986
49079W        W21394  15.808  19.250   2.213
49080W        W21395   1.430  17.202   3.776
49081W        W21396  42.451  21.156  10.958
49082W        W21397  21.523  33.110  11.587
49083W        W21398  43.866  35.869  11.899
49084W        W21399  16.188  22.019   3.630
49085W        W21400  38.907  22.505   2.705
49086W        W21401  25.147  21.643   3.752
49087W        W21402  42.893  18.684  13.010
49088W        W21403  24.067  12.660  10.420
49089W        W21404  11.856  38.401   4.838
49090W        W21405  10.875  15.299  14.331
49091W        W21406   5.221  31.139   0.877
49092W        W21407  32.431  25.070  14.350
49093W        W21408  12.845  26.147  13.877
49094W        W21409   4.751  24.205  13.917
49095W        W21410   7.891  32.072   2.410
49096W        W21411  24.708  40.311  12.835
49097W        W21412   3.792  31.928  10.454
49098W        W21413   9.193  24.591  13.053
49099W        W21414  18.787  42.927  13.002
49100W        W21415   2.917   0.419   1.333
49101W        W21416  15.181  18.243   2.337
49102W        W21417  17.093  10.774  10.415
49103W        W21418  14.590  12.268   0.412
49104W        W21419  31.953  17.110   4.663
49105W        W21420  36.862  32.622   0.299
49106W        W21421  29.018  24.705   0.291
49107W        W21422  37.562  27.519  14.896
49108W        W21423  15.626   9.209  14.885
49109W        W21424  14.658  39.827  14.373
49110W        W21425   9.768  32.546   3.802
49111W        W21426  10.361  15.298   1.368
49112W        W21427  10.652  23.139  11.574
49113W        W21428  13.145  26.029  13.895
49114W        W21429  27.480  21.257  11.030
49115W        W21430  29.537   2.888   4.124
49116W        W21431  27.032  28.112   2.839
49117W        W21432   1.922   6.761  14.968
49118W        W21433   9.672  26.603   1.784
49119W        W21434  17.758  31.483  12.569
49120W        W21435  29.559  23.017   0.462
49121W        W21436  25.192  10.177   5.290
49122W        W21437  29.033  27.605  10.961
49123W        W21438   4.891  39.383   0.358
49124W        W21439   2.465  29.463  10.494
49125W        W21440  44.271  31.080  13.431
49126W        W21441  12.802  21.651  12.368
49127W        W21442  17.630  30.531  11.912
49128W        W21443  23.676  20.228  10.916
49129W        W21444  15.633  35.985  10.495
49130W        W21445  31.917  28.455  11.015
49131W        W21446  18.677   5.882  12.974
49132W        W21447  24.668  27.039  11.543
49133W        W21448  35.592   4.931   4.613
49134W        W21449  35.423  22.617  13.933
49135W        W21450   6.875  36.858  10.527
49136W        W21451   4.397  43.868  14.796
49137W        W21452   6.817  24.583  11.872
49138W        W21453  26.477  24.003  13.502
49139W        W21454  37.044   2.795  11.509
49140W        W21455  43.451  35.503   4.218
49141W        W21456  22.726  38.057  10.001
49142W        W21457  39.404  26.621  11.595
49143W        W21458  27.014  15.775  12.462
49144W        W21459  39.853  10.786  14.955
49145W        W21460  35.878  37.428  14.394
49146W        W21461  15.601   3.288   0.352
49147W        W21462  34.926   0.840  11.109
49148W        W21463  34.464  32.608   4.705
49149W        W21464  39.358   1.336  14.372
49150W        W21465  11.690  32.536  11.574
49151W        W21466  12.753   7.798   4.608
49152W        W21467  30.128  39.844   2.193
49153W        W21468  30.015   7.345  11.497
49154W        W21469  43.302  18.559  14.450
49155W        W21470   0.962  21.085   5.229
49156W        W21471  24.200  17.727   1.765
49157W        W21472  14.235   2.454   0.399
49158W        W21473   0.274   9.677  10.623
49159W        W21474   5.875  13.298  11.883
49160W        W21475  15.670  20.195  11.957
49161W        W21476   6.261  13.340   4.669
49162W        W21477  16.695  44.440   0.766
49163W        W21478  12.334  40.493  12.988
49164W        W21479  42.452  11.373  11.085
49165W        W21480   8.703  21.754   0.867
49166W        W21481  22.622  17.747  10.011
49167W        W21482  22.178  10.238   2.297
49168W        W21483  18.242  28.605   1.317
49169W        W21484  19.087  33.978   4.123
49170W        W21485  21.595  11.660  14.833
49171W        W21486   0.481  14.151   3.700
49172W        W21487  16.702  38.012  13.434
49173W        W21488   7.311   7.738   4.339
49174W        W21489  35.913  10.141   1.240
49175W        W21490  32.492   4.328  10.629
49176W        W21491   1.295  12.845  14.452
49177W        W21492  23.156  24.075  14.032
49178W        W21493   4.835  35.090   1.704
49179W        W21494   4.945  31.509  10.509
49180W        W21495  28.931  31.576  13.818
49181W        W21496   2.390  32.557   0.382
49182W        W21497  26.492  31.630  13.525
49183W        W21498   4.790   4.737  14.877
49184W        W21499  40.855  14.797  12.925
49185W        W21500  24.181  43.428  12.849
49186W        W21501  32.409  41.009  14.375
49187W        W21502   1.282   1.747   0.864
49188W        W21503  14.231  32.013   0.914
49189W        W21504  21.082  12.140  12.050
49190W        W21505  27.618  20.719  12.410
49191W        W21506  37.012  29.524   4.823
49192W        W21507  41.949  29.558  10.466
49193W        W21508  40.425  32.457  12.445
49194W        W21509  33.568  21.523  11.560
49195W        W21510  20.057  16.227  12.401
49196W        W21511  37.545  21.031  10.924
49197W        W21512  17.788  24.220  11.997
49198W        W21513  32.118  22.672  13.018
49199W        W21514  30.496  26.569  12.973
49200W        W21515  29.528  41.937   3.852
49201W        W21516   1.432  33.566   2.193
49202W        W21517   2.374  31.134  12.433
49203W        W21518  34.562  35.081  13.946
49204W        W21519  10.162   0.251   5.082
49205W        W21520  17.658   5.220   4.627
49206W        W21521  15.672  40.963   1.316
49207W        W21522  36.049  34.119  14.982
49208W        W21523  43.428  14.293  14.472
49209W        W21524  15.206  16.731  14.512
49210W        W21525  29.590  11.358   3.357
49211W        W21526  17.271  16.131  12.406
49212W        W21527  26.989  10.793   0.789
49213W        W21528  16.690   0.262   4.653
49214W        W21529  17.614   0.286  10.429
49215W        W21530  14.182  36.501   2.803
49216W        W21531  18.698  34.988   3.751
49217W        W21532  17.103  20.711  11.379
49218W        W21533  19.726  30.000  12.849
49219W        W21534  18.617   7.702   2.402
49220W        W21535  23.997  11.755   2.779
49221W        W21536  39.446  32.526  13.434
49222W        W21537  13.152  40.909   0.457
49223W        W21538  12.675  19.758  10.464
49224W        W21539   9.705   2.440   2.249
49225W        W21540  44.979  25.537   2.789
49226W        W21541  15.145  42.915   4.284
49227W        W21542  23.614  15.627   1.833
49228W        W21543   0.874  29.175  10.977
49229W        W21544  27.619  36.882  12.367
49230W        W21545  11.176   2.893  14.836
49231W        W21546  32.553  35.407   0.423
49232W        W21547  12.725  30.455  14.762
49233W        W21548   1.936   6.335   3.321
49234W        W21549   0.465  22.518   3.235
49235W        W21550   5.274   4.925   0.914
49236W        W21551  28.998  16.645  11.560
49237W        W21552  44.275  39.872  10.970
49238W        W21553   3.239  16.299  14.832
49239W        W21554  35.499  24.675  13.387
49240W        W21555  23.178   9.255   0.732
49241W        W21556   2.452  36.030  11.417
49242W        W21557  20.126  35.044  11.456
49243W        W21558  12.743  31.959   4.319
49244W        W21559   9.789  41.409  14.828
49245W        W21560  35.361  24.048   0.784
49246W        W21561  32.446  27.038   3.167
49247W        W21562  27.066  21.739  13.530
49248W        W21563  25.675   3.368   3.702
49249W        W21564   7.736  43.388   4.201
49250W        W21565   1.848  44.373  10.982
49251W        W21566  31.412  41.304   3.205
49252W        W21567  11.639   3.390   0.866
49253W        W21568   4.332  39.954   1.348
49254W        W21569  11.826  28.643  14.456
49255W        W21570  44.296   5.268   1.753
49256W        W21571  34.899   0.415  11.902
49257W        W21572  30.072  17.598  13.955
49258W        W21573   8.293  22.183   1.759
49259W        W21574   0.372   2.345  11.446
49260W        W21575  24.142  30.621  13.928
49261W        W21576  27.561  37.077  14.789
49262W        W21577   9.361  31.634  12.992
49263W        W21578  28.505  24.074  11.963
49264W        W21579  32.449  22.633   0.933
49265W        W21580  31.038  43.459   3.265
49266W        W21581  29.144   4.378  14.412
49267W        W21582  41.418  27.008  11.072
49268W        W21583  17.166  32.015   0.787
49269W        W21584   7.799  27.521  12.491
49270W        W21585   9.842  31.021   1.268
49271W        W21586  19.181  20.565   2.823
49272W        W21587  30.976  38.884  14.397
49273W        W21588  30.521  36.000  10.485
49274W        W21589  14.732  18.085   3.763
49275W        W21590  31.901  40.404   1.860
49276W        W21591  32.896  40.031  11.487
49277W        W21592  32.513  25.503   2.866
49278W        W21593   4.768  35.409  13.500
49279W        W21594  28.507  28.143  13.034
49280W        W21595  34.410  25.625  12.833
49281W        W21596  28.507   3.951   0.463
49282W        W21597  23.662   5.372  14.020
49283W        W21598   5.894  33.057  11.973
49284W        W21599  43.874  40.935   1.836
49285W        W21600  27.178  24.579  14.788
49286W        W21601   5.198   8.875  10.937
49287W        W21602  22.233  18.103   4.838
49288W        W21603  13.744  41.364  10.503
49289W        W21604  43.485   7.180   3.242
49290W        W21605  11.248   9.295   1.896
49291W        W21606  18.249   3.380  13.430
49292W        W21607  29.455   3.279  12.841
49293W        W21608  10.747  33.569   4.728
49294W        W21609  44.965  41.814   3.348
49295W        W21610   5.247   8.244   0.327
49296W        W21611  21.254  32.412  12.567
49297W        W21612  15.719  25.587   4.722
49298W        W21613  40.536  10.692   2.256
49299W        W21614  20.634  15.731  14.991
49300W        W21615  19.746  39.929  11.498
49301W        W21616   3.261   8.787   0.814
49302W        W21617   3.801  21.718   1.867
49303W        W21618  36.532   0.272   9.978
49304W        W21619  29.166  44.785   0.746
49305W        W21620  36.420  21.115   1.246
49306W        W21621  27.523  18.663   3.845
49307W        W21622  25.166  44.861   3.287
49308W        W21623  31.982  24.202   1.773
49309W        W21624  18.771  41.961   3.695
49310W        W21625  34.375  44.318   4.728
49311W        W21626   5.234   7.395   2.393
49312W        W21627  41.850  30.524  13.359
49313W        W21628  41.037  33.894  14.857
49314W        W21629   1.336   3.373   1.924
49315W        W21630   8.328   8.817   4.176
49316W        W21631  27.156  20.220  11.940
49317W        W21632   6.394  29.046   4.348
49318W        W21633  28.022  40.858  12.578
49319W        W21634  43.988  39.816   4.808
49320W        W21635  24.146  37.424   0.254
49321W        W21636  32.454  32.506  14.410
49322W        W21637  25.168  17.171   3.384
49323W        W21638   2.872  21.533  12.984
49324W        W21639  20.763   7.796   3.340
49325W        W21640   7.744  14.707   3.258
49326W        W21641  38.435  36.041   0.269
49327W        W21642  28.581  37.386  13.976
49328W        W21643   8.680  27.964  12.509
49329W        W21644  19.721  40.961  11.425
49330W        W21645  16.239  43.497  13.795
49331W        W21646  11.153  36.371  11.465
49332W        W21647  40.949  43.394  13.325
49333W        W21648  18.635  26.180   3.335
49334W        W21649  15.271  25.063   2.375
49335W        W21650   1.341   6.255  12.057
49336W        W21651  17.650   4.264   1.329
49337W        W21652  44.272  23.494   2.373
49338W        W21653   9.657  14.277   3.747
49339W        W21654  30.555  40.991  14.415
49340W        W21655  29.539  36.998   1.375
49341W        W21656  25.019  40.346   1.374
49342W        W21657  32.050  41.931  12.853
49343W        W21658  16.205  44.807  11.419
49344W        W21659  34.438  39.863   0.268
49345W        W21660  21.218  16.249   2.701
49346W        W21661  20.613  37.874  12.496
49347W        W21662  26.176  21.577   4.804
49348W        W21663  12.669  13.321  12.544
49349W        W21664  37.515  19.727  11.521
49350W        W21665  14.236  10.673   4.825
49351W        W21666   1.387  25.560  11.596
49352W        W21667   5.882   7.825  13.858
49353W        W21668  26.115  24.493   0.324
49354W        W21669  38.565  16.752  13.931
49355W        W21670  32.626   6.344   1.255
49356W        W21671  25.128  44.378   1.402
49357W        W21672  41.011   8.810   2.411
49358W        W21673  41.949  15.257  14.310
49359W        W21674  26.961  17.674   1.339
49360W        W21675  29.668  13.731   3.656
49361W        W21676  23.585  40.349   1.737
49362W        W21677  21.595  43.303  14.996
49363W        W21678   3.358  14.149  10.458
49364W        W21679  23.609  44.441   3.775
49365W        W21680   9.878  18.569   5.287
49366W        W21681  26.193  10.804  13.013
49367W        W21682  22.196  19.657   0.884
49368W        W21683  31.574  43.838  11.930
49369W        W21684  26.045  23.674  10.959
49370W        W21685  35.390  12.146   4.837
49371W        W21686  32.529  38.844   4.264
49372W        W21687  30.625   8.859  14.934
49373W        W21688  16.642  42.853  13.515
49374W        W21689   5.885  33.027   1.218
49375W        W21690  11.862  30.946   1.353
49376W        W21691  27.140   4.775   3.376
49377W        W21692   5.742  27.021  13.401
49378W        W21693  17.260  34.109  12.443
49379W        W21694  12.206  31.133  10.920
49380W        W21695  32.015   5.789  11.537
49381W        W21696  42.365  30.161   3.313
49382W        W21697  17.240  27.045  14.783
49383W        W21698  26.629  34.910  10.147
49384W        W21699  40.429  23.152   1.263
49385W        W21700  41.798   5.355   2.406
49386W        W21701  28.619   5.806   3.710
49387W        W21702  44.367   7.174   0.876
49388W        W21703  25.051  17.593   2.829
49389W        W21704  31.993   9.887  11.551
49390W        W21705  20.251  30.158  13.822
49391W        W21706  38.390  27.092   4.823
49392W        W21707  28.018  15.583   3.852
49393W        W21708  17.594  33.585   3.350
49394W        W21709  15.103   2.461   1.894
49395W        W21710  35.956   5.313   2.844
49396W        W21711  14.591  41.358   4.634
49397W        W21712  32.532  36.978   0.903
49398W        W21713  35.381   2.902  14.909
49399W        W21714  43.426  35.483   1.399
49400W        W21715  15.814   9.159   2.847
49401W        W21716  20.632  40.030   0.421
49402W        W21717  14.659  40.973   1.856
49403W        W21718  24.483  23.538   2.303
49404W        W21719   4.913  32.010  11.574
49405W        W21720  22.101  38.065  14.380
49406W        W21721   1.971  42.329  13.438
49407W        W21722  13.227   0.875   2.855
49408W        W21723  36.439   8.382  13.844
49409W        W21724  17.799  39.915   2.714
49410W        W21725  34.504  41.804  12.480
49411W        W21726  11.748  28.520   1.387
49412W        W21727  42.821  36.587  11.106
49413W        W21728   2.436   8.287  10.935
49414W        W21729  11.855  16.248   0.384
49415W        W21730  18.170  27.467   4.168
49416W        W21731  40.893  22.678  13.847
49417W        W21732  16.774  18.721   4.815
49418W        W21733  42.348  27.446   4.114
49419W        W21734  41.373  13.348  12.380
49420W        W21735  24.038  36.899   4.174
49421W        W21736  30.073  39.041  14.762
49422W        W21737  16.291  40.820  11.095
49423W        W21738  13.288  19.609   2.322
49424W        W21739   3.215   8.196   4.154
49425W        W21740  26.638  42.331  12.868
49426W        W21741  12.675  33.585  13.801
49427W        W21742  26.143  34.956  11.545
49428W        W21743   3.925  13.735   1.853
49429W        W21744  40.043   7.293  13.009
49430W        W21745  33.570  32.060  11.541
49431W        W21746  43.467  19.561  14.776
49432W        W21747  31.551  12.689  13.342
49433W        W21748  13.804  17.771   0.440
49434W        W21749  29.956  17.739   3.798
49435W        W21750  14.680  26.592   0.940
49436W        W21751  23.004  19.754   5.281
49437W        W21752  16.582   0.489   0.466
49438W        W21753  38.421  16.761   0.732
49439W        W21754  36.852   9.789   1.397
49440W        W21755  26.644  11.177  13.935
49441W        W21756  38.395   3.296   0.800
49442W        W21757  40.517  41.324   0.410
49443W        W21758  18.175  28.027   0.417
49444W        W21759   1.828  36.421  11.088
49445W        W21760  24.637  24.989   1.233
49446W        W21761  11.773  15.818  11.388
49447W        W21762  25.011  33.591   4.117
49448W        W21763   4.716  44.497   4.281
49449W        W21764  40.362  28.126   1.431
49450W        W21765  26.130  23.514   3.180
49451W        W21766   4.332   7.362   2.305
49452W        W21767  37.488  33.536  12.008
49453W        W21768  25.470   4.305   2.838
49454W        W21769  11.202  32.509   4.793
49455W        W21770  44.308   2.285  11.464
49456W        W21771   7.822  43.270  10.545
49457W        W21772  27.655   7.204   1.255
49458W        W21773   9.727  37.369  14.489
49459W        W21774  15.180  36.539   4.288
49460W        W21775  25.036   2.301  12.022
49461W        W21776   9.239  17.605  13.482
49462W        W21777   7.886  28.463  10.901
49463W        W21778   1.438  34.905  14.939
49464W        W21779  30.553   9.741   4.195
49465W        W21780  18.745  10.140  13.865
49466W        W21781   0.426  34.955  14.838
49467W        W21782  39.417  30.124   1.227
49468W        W21783  41.839  17.214   0.411
49469W        W21784  31.412  31.019   4.672
49470W        W21785  31.413   1.482  14.875
49471W        W21786  43.271  17.109  13.541
49472W        W21787  26.668  25.144   1.431
49473W        W21788  37.926  14.099  13.945
49474W        W21789  36.399  38.326  10.411
49475W        W21790   5.792  31.139  12.971
49476W        W21791  37.887  18.165   4.208
49477W        W21792  20.092  37.385  10.460
49478W        W21793  29.589   2.233  11.102
49479W        W21794   2.373  10.341   3.809
49480W        W21795  40.006  19.251   0.467
49481W        W21796   1.338  18.199   1.288
49482W        W21797  25.102  20.709  14.447
49483W        W21798  30.527  42.917   3.754
49484W        W21799  13.621  14.336  12.897
49485W        W21800  29.927  28.944   4.201
49486W        W21801  25.477   5.803   5.232
49487W        W21802  23.147  21.745   5.780
49488W        W21803  20.628   0.294   2.855
49489W        W21804  42.891   0.277   4.733
49490W        W21805   4.273   1.283   4.299
49491W        W21806   2.451  42.895  12.944
49492W        W21807   3.740  26.168   2.809
49493W        W21808   8.861  32.943  10.069
49494W        W21809  21.603   1.240   4.713
49495W        W21810   9.324  18.589  14.362
49496W        W21811  23.189  19.690   2.376
49497W        W21812   6.323   2.897   3.632
49498W        W21813  11.798  27.149   3.266
49499W        W21814  42.494   5.850  14.805
49500W        W21815  41.868  44.893   4.767
49501W        W21816  43.352  15.210  10.442
49502W        W21817  25.051  34.515   1.831
49503W        W21818  38.465   5.702  11.540
49504W        W21819  22.544  30.573  12.580
49505W        W21820  40.401   8.371   4.717
49506W        W21821   2.321  15.093  11.502
49507W        W21822  29.075   1.857  13.966
49508W        W21823  35.032   5.919   3.644
49509W        W21824  23.535   2.438   1.783
49510W        W21825   5.234  16.598  13.851
49511W        W21826  19.128   5.215  10.995
49512W        W21827   6.370   0.966   3.302
49513W        W21828  43.320  17.556  10.620
49514W        W21829  25.571   3.922  12.407
49515W        W21830  25.103   1.341  10.982
49516W        W21831  14.702  15.213  12.520
49517W        W21832  34.440  32.920  11.474
49518W        W21833   9.890  13.740   0.418
49519W        W21834   0.930   6.266   3.179
49520W        W21835  23.608  43.984   3.292
49521W        W21836   4.850   8.301   4.210
49522W        W21837  44.323  18.689  12.993
49523W        W21838  24.105  43.788  10.556
49524W        W21839  44.263  17.198   4.271
49525W        W21840  18.573  12.353   1.702
49526W        W21841  41.914  20.734  14.350
49527W        W21842  33.496  40.996  11.398
49528W        W21843   7.738   2.763  12.567
49529W        W21844  25.210   6.757   3.308
49530W        W21845  36.548  32.991   4.291
49531W        W21846  21.206  23.239   3.199
49532W        W21847  21.168  13.603  11.497
49533W        W21848  32.009  23.215  12.367
49534W        W21849  30.607  19.069   4.759
49535W        W21850   3.747  36.455  13.428
49536W        W21851  42.809  19.552  14.951
49537W        W21852  42.884   4.784   0.282
49538W        W21853  29.076  26.032   0.371
49539W        W21854  12.781  33.441  11.915
49540W        W21855  21.078  15.286   1.855
49541W        W21856  26.478   8.875  14.503
49542W        W21857  33.508  14.730  13.877
49543W        W21858  32.013  32.054   3.256
49544W        W21859  28.525  39.915   0.317
49545W        W21860  13.621  37.558   2.392
49546W        W21861  30.448  40.894   0.885
49547W        W21862  32.003  11.681  11.446
49548W        W21863  37.494   8.332  11.957
49549W        W21864  13.743   6.189  10.956
49550W        W21865  34.896  40.399   2.240
49551W        W21866  23.193   9.813  13.940
49552W        W21867  42.341  30.054  11.534
49553W        W21868  31.095   9.387   2.212
49554W        W21869  20.191  25.563   4.610
49555W        W21870  26.572   0.398  14.310
49556W        W21871  10.221  12.702   0.794
49557W        W21872  23.063  10.696   2.717
49558W        W21873  38.362  26.646   2.307
49559W        W21874  20.139  28.020   4.609
49560W        W21875  14.806  11.258   3.728
49561W        W21876  19.611  14.096  11.897
49562W        W21877  33.490  29.578  12.555
49563W        W21878  20.044  14.155   0.258
49564W        W21879  27.476   5.847   4.174
49565W        W21880   6.414  25.492  12.430
49566W        W21881  12.681  38.921  12.890
49567W        W21882   3.284   0.317  13.341
49568W        W21883  30.049  34.386  12.489
49569W        W21884  31.467  32.897  11.521
49570W        W21885   2.315   4.791   4.629
49571W        W21886  19.155   2.266  14.021
49572W        W21887   9.752  33.882  13.033
49573W        W21888   8.738  35.592   2.269
49574W        W21889   5.694  15.283   3.871
49575W        W21890  33.980  23.107   3.286
49576W        W21891  39.007   7.381   0.282
49577W        W21892  36.923  11.833   4.244
49578W        W21893  43.360   6.824   3.758
49579W        W21894  13.346  23.565  14.912
49580W        W21895   7.208  13.733  13.885
49581W        W21896   8.665   6.371  12.447
49582W        W21897  17.759  33.958   3.690
49583W        W21898  26.965   8.379  12.896
49584W        W21899  17.208  37.558   0.339
49585W        W21900  17.161  14.631   0.810
49586W        W21901  33.077  13.328  14.962
49587W        W21902  38.969  21.737  12.406
49588W        W21903  32.472  29.523  10.483
49589W        W21904  38.836   9.703  13.008
49590W        W21905  12.294  35.400   4.264
49591W        W21906  11.809  21.543  14.446
49592W        W21907   7.742   0.285  10.418
49593W        W21908   5.417  35.531  12.989
49594W        W21909   2.307  26.678  10.972
49595W        W21910  10.223  24.676  11.968
49596W        W21911  10.717  26.577   0.443
49597W        W21912  39.531  34.094   0.847
49598W        W21913  28.002  17.566  10.018
49599W        W21914  31.624  37.562  12.005
49600W        W21915  17.068  12.170  13.993
49601W        W21916  43.461  36.413   2.717
49602W        W21917  10.277  24.043   1.408
49603W        W21918  22.650  26.963  13.358
49604W        W21919  34.421  32.087   1.293
49605W        W21920  16.727  21.605  10.414
49606W        W21921   4.793  40.867  12.884
49607W        W21922   7.243  17.690  14.333
49608W        W21923  33.394   8.704   4.679
49609W        W21924  18.757   0.285   2.734
49610W        W21925  38.037  19.691  14.940
49611W        W21926  12.670  38.522   1.219
49612W        W21927  39.388  30.960  11.875
49613W        W21928   1.423  29.046   1.230
49614W        W21929  24.513   3.401  14.409
49615W        W21930  21.227  11.838   5.196
49616W        W21931  10.218  44.008   1.294
49617W        W21932  16.763  38.873  13.921
49618W        W21933  43.500  36.895   0.453
49619W        W21934  27.471  28.495  11.926
49620W        W21935   2.797  26.505  12.025
49621W        W21936  28.533   2.442   1.828
49622W        W21937  32.423  24.702  12.505
49623W        W21938  35.989  22.092   1.724
49624W        W21939  28.620  16.665   3.318
49625W        W21940   2.834  18.715   1.222
49626W        W21941  21.220  21.197   1.871
49627W        W21942   1.775  35.984   0.941
49628W        W21943   5.713  40.998  14.980
49629W        W21944  14.649  38.965  13.392
49630W        W21945  13.696  33.078   2.731
49631W        W21946   8.189  37.975   1.763
49632W        W21947   0.294  38.440   2.718
49633W        W21948  11.845  18.269   5.187
49634W        W21949  11.737  33.022   4.260
49635W        W21950  33.946  33.070  11.873
49636W        W21951   5.794  17.784   2.339
49637W        W21952   2.925  29.954   3.852
49638W        W21953  38.938   0.275  13.504
49639W        W21954  41.349  43.979   4.294
49640W        W21955  38.033  37.521  10.532
49641W        W21956  26.097  10.700  13.917
49642W        W21957  15.610   1.469   0.870
49643W        W21958  36.066  31.130   5.188
49644W        W21959  34.117  18.119   2.388
49645W        W21960  38.017  30.559  14.334
49646W        W21961  28.526  42.430  12.967
49647W        W21962   4.216   6.785   4.796
49648W        W21963   7.908   1.975  11.092
49649W        W21964  32.953  13.210   1.334
49650W        W21965  20.635  32.091   1.887
49651W        W21966   7.751  43.908  11.527
49652W        W21967   8.858  24.556  14.993
49653W        W21968  36.438   6.208   5.235
49654W        W21969  20.676  16.679   3.150
49655W        W21970  34.068   6.273  14.780
49656W        W21971  22.241  43.791  12.863
49657W        W21972  17.215   7.211   5.266
49658W        W21973   3.275  19.592   0.962
49659W        W21974  32.123  23.529   0.421
49660W        W21975   4.861  26.073   2.309
49661W        W21976  25.987  15.203   2.845
49662W        W21977   6.743  23.518  13.483
49663W        W21978   5.430  22.219   1.785
49664W        W21979  24.074  11.692   4.353
49665W        W21980  10.807  10.815   0.417
49666W        W21981  17.069   3.935  11.995
49667W        W21982  12.141   9.773  13.338
49668W        W21983  39.352   7.755  11.961
49669W        W21984  41.977   8.210   2.203
49670W        W21985   2.922   8.338  14.973
49671W        W21986   6.314  34.441   2.363
49672W        W21987   4.879   7.791   1.783
49673W        W21988  38.905  20.583   3.630
49674W        W21989  10.157  10.827   2.367
49675W        W21990  16.297  13.164  10.614
49676W        W21991  17.784  19.249  10.614
49677W        W21992  12.619  13.647   0.476
49678W        W21993  43.019  13.637   1.927
49679W        W21994  34.387  40.824   4.275
49680W        W21995   4.821  32.420   3.677
49681W        W21996  36.849  41.505  10.897
49682W        W21997  44.324  26.193   4.294
49683W        W21998  12.676  28.013  11.523
49684W        W21999  38.398  13.182   2.225
49685W        W22000  39.521  14.153   4.310
49686W        W22001  39.401  28.453  11.582
49687W        W22002  40.858  12.198  10.926
49688W        W22003  35.562  24.104   2.662
49689W        W22004  18.256   2.334   4.317
49690W        W22005  14.307  26.577  12.062
49691W        W22006   0.806  38.049   1.727
49692W        W22007  34.570  34.009   0.864
49693W        W22008  36.556  16.583  14.318
49694W        W22009  32.050  14.655  13.920
49695W        W22010  21.250  28.470  13.346
49696W        W22011  20.664  32.121   5.206
49697W        W22012  10.287  28.941   2.360
49698W        W22013  31.137  36.863  14.870
49699W        W22014  29.111  38.556   3.655
49700W        W22015  36.080  39.003   1.911
49701W        W22016   9.380   6.260  12.401
49702W        W22017  18.593  28.963  13.477
49703W        W22018  14.727  22.716  13.808
49704W        W22019  32.607   1.396   1.408
49705W        W22020   3.235   6.257  12.541
49706W        W22021  16.797  28.477   0.881
49707W        W22022   0.426   3.954   3.724
49708W        W22023  21.089  29.577  13.038
49709W        W22024  27.490  28.098   2.844
49710W        W22025  16.271  34.560   3.754
49711W        W22026  24.227  11.133  14.294
49712W        W22027  35.933  25.686   4.600
49713W        W22028  17.790  17.245  12.933
49714W        W22029  21.144  26.636   3.721
49715W        W22030  17.756  12.270  12.883
49716W        W22031  40.017  27.627  11.039
49717W        W22032   4.810  24.522   1.883
49718W        W22033  35.863  32.956  11.426
49719W        W22034  16.666   7.339  14.938
49720W        W22035  26.586  32.015  13.430
49721W        W22036  43.948  19.601  14.380
49722W        W22037  34.497  42.388   3.152
49723W        W22038  26.469  22.209  11.855
49724W        W22039   6.198  13.755  14.359
49725W        W22040  42.318  19.739   3.812
49726W        W22041  27.481  15.679   4.598
49727W        W22042  27.462  33.440   0.869
49728W        W22043  19.708  16.218   2.796
49729W        W22044  35.988  38.018   1.449
49730W        W22045  25.979  39.977  11.470
49731W        W22046  43.858   7.371   3.294
49732W        W22047  17.645  38.431  11.079
49733W        W22048  40.417  21.106   5.287
49734W        W22049  41.371   8.225  11.950
49735W        W22050  21.122  17.756   2.824
49736W        W22051  41.306   6.199   4.343
49737W        W22052  32.070  40.919  14.927
49738W        W22053  24.607   6.353   1.218
49739W        W22054  26.666   4.914   0.727
49740W        W22055  34.416  24.126  10.982
49741W        W22056  40.892   3.790  11.062
49742W        W22057  20.763  10.836  14.937
49743W        W22058  17.293  32.530   1.851
49744W        W22059  11.291  32.947  14.805
49745W        W22060  23.212  20.146  10.087
49746W        W22061   5.249   6.806  13.422
49747W        W22062  34.960   2.831   0.732
49748W        W22063  30.442  25.624   0.408
49749W        W22064  22.228  15.672   3.806
49750W        W22065  29.608  28.934  12.367
49751W        W22066  18.565  34.437   2.296
49752W        W22067  44.370  34.427  10.506
49753W        W22068   3.312   3.302   5.245
49754W        W22069  15.616   2.943  10.565
49755W        W22070  32.099   5.315  11.032
49756W        W22071  14.780   3.398  13.341
49757W        W22072  28.654   7.698   2.347
49758W        W22073  19.134   0.888   2.766
49759W        W22074   6.405  33.572   1.274
49760W        W22075   2.429  38.422  10.484
49761W        W22076   6.285  28.993  10.416
49762W        W22077  31.531  13.828  14.434
49763W        W22078  43.854  13.184   3.710
49764W        W22079  15.588   5.408   0.820
49765W        W22080  14.655  25.595  11.463
49766W        W22081  17.708  11.709  13.912
49767W        W22082  24.076  31.971  13.994
49768W        W22083   7.214  28.444   2.328
49769W        W22084  10.291  36.487  11.967
49770W        W22085  41.898   0.877   0.343
49771W        W22086  31.986  43.446   3.220
49772W        W22087  30.603  21.673   3.157
49773W        W22088  32.058   9.174  11.405
49774W        W22089  22.685  26.120   1.397
49775W        W22090  36.088  11.623  11.113
49776W        W22091   5.365  37.539  13.350
49777W        W22092  21.122  26.111  11.533
49778W        W22093  13.766  35.537  13.893
49779W        W22094  21.540  16.087  11.488
49780W        W22095  29.670   6.816   1.920
49781W        W22096  39.983  20.699   3.344
49782W        W22097  31.937  11.248   4.138
49783W        W22098  13.603  30.478   2.695
49784W        W22099   2.440   0.404   3.717
49785W        W22100  28.158   3.368  10.972
49786W        W22101   4.292  30.467   0.932
49787W        W22102  36.424  19.094   0.420
49788W        W22103  10.774  24.675  12.851
49789W        W22104   3.301  16.224   3.684
49790W        W22105  30.159  39.027  13.513
49791W        W22106  25.492  21.064   5.144
49792W        W22107  19.659  36.031  14.972
49793W        W22108   6.212   5.746  14.874
49794W        W22109  11.136   0.882   1.435
49795W        W22110  20.086   9.215  10.414
49796W        W22111   9.320  16.136   3.214
49797W        W22112  39.370   6.699  14.867
49798W        W22113  17.191  35.437   0.869
49799W        W22114  31.459  33.583  14.447
49800W        W22115  13.637   1.326  11.109
49801W        W22116  18.234  19.232   2.768
49802W        W22117  34.083  37.038   3.147
49803W        W22118  43.340  29.559  11.117
49804W        W22119  14.621  40.011   2.238
49805W        W22120  30.434  22.505   0.775
49806W        W22121  42.462   1.305  11.070
49807W        W22122  11.751  12.807  14.384
49808W        W22123   6.811   6.283   3.869
49809W        W22124   3.799   2.839   0.893
49810W        W22125  41.859  38.899  11.981
49811W        W22126  38.542  20.539  13.798
49812W        W22127  21.591  42.980   4.792
49813W        W22128  15.599  37.470   4.177
49814W        W22129  20.710   8.370   2.802
49815W        W22130  37.875  18.261  11.540
49816W        W22131  38.017  38.904  10.553
49817W        W22132  15.631  11.729  13.848
49818W        W22133  40.457   8.313   1.246
49819W        W22134  42.005  18.580   1.237
49820W        W22135   6.277  39.914   1.295
49821W        W22136  29.932   1.806  11.098
49822W        W22137  40.308  42.889  10.099
49823W        W22138   9.154  20.244  12.469
49824W        W22139  39.352  11.364  11.403
49825W        W22140  11.735  43.486   0.440
49826W        W22141  33.930   4.399  13.515
49827W        W22142  19.646   2.786   2.747
49828W        W22143   7.180  17.791   1.825
49829W        W22144   4.283  15.251   3.247
49830W        W22145  10.183   3.777  11.092
49831W        W22146   4.229  33.546   2.850
49832W        W22147   3.713  33.053  14.304
49833W        W22148  22.174  40.834   0.464
49834W        W22149  40.533  17.229  10.626
49835W        W22150   0.916  12.741  11.061
49836W        W22151   8.208  16.694   3.171
49837W        W22152  39.900   1.238   1.301
49838W        W22153  41.375  24.107   0.399
49839W        W22154  38.439  16.182  12.420
49840W        W22155  37.529  30.486  12.978
49841W        W22156  19.258  31.507   1.828
49842W        W22157  33.036  38.944  14.921
49843W        W22158  33.584   6.680   1.383
49844W        W22159  44.852  38.832  11.933
49845W        W22160  28.612   7.908   4.345
49846W        W22161  26.032   2.425  11.528
49847W        W22162  29.496  28.020   0.364
49848W        W22163  26.034  41.840   1.736
49849W        W22164  18.222  37.365  11.526
49850W        W22165  36.020  30.539   2.885
49851W        W22166   3.322  21.177  10.042
49852W        W22167  30.150  37.920  12.490
49853W        W22168  32.057  10.736  14.939
49854W        W22169  43.940  28.166   0.314
49855W        W22170  28.471  20.157  14.290
49856W        W22171   1.741   4.800   4.258
49857W        W22172   3.794  24.193  11.494
49858W        W22173  23.172  42.370   3.860
49859W        W22174  37.504   9.650  10.476
49860W        W22175   7.774  11.284  13.045
49861W        W22176   6.821  34.536  11.439
49862W        W22177  11.289  23.012  14.016
49863W        W22178   5.314  44.286   1.395
49864W        W22179  27.187  20.185   2.305
49865W        W22180  13.625  30.545   4.184
49866W        W22181   5.206  37.361  11.395
49867W        W22182   8.359  36.868  11.949
49868W        W22183  44.427  25.134   2.345
49869W        W22184  18.639  21.183  14.399
49870W        W22185  16.310  39.827   0.392
49871W        W22186  13.114  39.046  11.875
49872W        W22187  21.603  44.395   4.606
49873W        W22188  34.544  12.698  12.831
49874W        W22189  38.398  27.622   1.865
49875W        W22190  35.036  19.052  13.356
49876W        W22191  24.121   1.281  12.915
49877W        W22192  19.727  35.475   2.347
49878W        W22193  20.640  13.106  12.943
49879W        W22194  16.294  42.868   1.347
49880W        W22195  40.480  16.223  12.445
49881W        W22196   3.311   3.249   3.295
49882W        W22197  18.083  36.571  12.913
49883W        W22198  32.907  26.197  12.032
49884W        W22199   0.256   7.707  14.330
49885W        W22200  19.541  19.587  14.978
49886W        W22201  38.975  30.620  10.552
49887W        W22202  31.588   1.910  12.451
49888W        W22203  31.567  31.584   2.742
49889W        W22204   1.962   4.722  13.470
49890W        W22205   1.315  43.501   3.341
49891W        W22206  32.445  19.125  14.808
49892W        W22207  34.064  25.062  13.407
49893W        W22208  16.660  26.631  12.033
49894W        W22209   9.687  21.058   4.239
49895W        W22210  43.900   7.837   3.271
49896W        W22211  22.604  44.825   3.793
49897W        W22212   0.422  43.802   0.276
49898W        W22213   1.875  16.199  13.914
49899W        W22214  13.152   3.745   3.688
49900W        W22215  16.687  25.555   1.885
49901W        W22216  21.036  24.094  10.541
49902W        W22217  19.660  12.647   0.311
49903W        W22218  18.205  12.611  10.435
49904W        W22219   7.362  24.114   1.405
49905W        W22220   1.365  24.524   4.672
49906W        W22221   3.944  20.045   4.777
49907W        W22222  24.601  23.704   3.205
49908W        W22223  13.110  38.835   9.946
49909W        W22224  41.448  22.202   0.465
49910W        W22225   8.246   2.864   2.401
49911W        W22226  25.025  25.667  11.877
49912W        W22227  14.764  43.870  13.040
49913W        W22228   7.842  29.532  12.944
49914W        W22229  11.326   0.454  13.904
49915W        W22230   8.828   3.426   3.332
49916W        W22231  32.538  41.385   4.603
49917W        W22232  20.071  13.624   1.331
49918W        W22233   6.322   5.331  14.812
49919W        W22234   7.343  21.668   3.841
49920W        W22235   5.756   5.364   2.380
49921W        W22236   5.396  27.538  11.022
49922W        W22237  21.671  35.985   0.819
49923W        W22238  24.159  44.889  13.323
49924W        W22239  34.980   3.864  10.939
49925W        W22240   3.937  22.559  11.041
49926W        W22241  25.705   1.457   4.258
49927W        W22242  11.796  12.777  11.609
49928W        W22243  35.537  18.727   0.416
49929W        W22244  25.614   2.788   4.620
49930W        W22245  14.756  16.192  13.887
49931W        W22246  43.366  38.027   1.223
49932W        W22247  22.249  38.948   3.865
49933W        W22248  36.968  44.466  14.284
49934W        W22249  18.287   0.393   0.905
49935W        W22250  27.034  34.064  11.944
49936W        W22251  32.539  14.610   0.763
49937W        W22252  23.623  22.708  10.454
49938W        W22253   5.834   8.202   0.305
49939W        W22254  28.445  12.846  11.607
49940W        W22255   0.892   4.359   3.328
49941W        W22256  26.506  38.074   4.136
49942W        W22257   8.248  29.665  14.910
49943W        W22258  42.009  22.017  13.799
49944W        W22259  19.108  30.081  12.511
49945W        W22260   7.197  35.533   4.310
49946W        W22261  37.512   7.177  11.102
49947W        W22262  13.830   6.363   4.289
49948W        W22263  39.539   9.173   3.208
49949W        W22264  43.325  27.157   1.350
49950W        W22265  34.972  22.518   2.318
49951W        W22266   4.773   1.405  10.444
49952W        W22267  43.861  11.265  13.471
49953W        W22268  43.805  31.961  14.516
49954W        W22269  30.467   3.759  10.462
49955W        W22270  12.230  15.242   2.783
49956W        W22271   0.876   2.914  14.442
49957W        W22272  36.404  43.949   4.787
49958W        W22273  23.193  23.984   1.903
49959W        W22274  15.142  18.212  14.901
49960W        W22275  40.533  30.571   0.355
49961W        W22276  12.280   4.339  12.401
49962W        W22277  28.089   2.779  14.482
49963W        W22278  31.132  38.547  12.383
49964W        W22279  31.961  42.783   2.797
49965W        W22280  30.142  13.287   0.913
49966W        W22281  35.973  41.525   1.312
49967W        W22282   1.455  40.528   2.228
49968W        W22283  38.067  13.608  10.937
49969W        W22284   0.478   6.212   1.807
49970W        W22285  21.582  44.395   9.962
49971W        W22286   4.251  16.626  10.571
49972W        W22287  20.060  14.776  11.419
49973W        W22288  39.810  10.874  10.407
49974W        W22289   6.313   6.913   1.450
49975W        W22290   2.353  15.817  13.498
49976W        W22291  34.889  41.330  11.104
49977W        W22292  39.927  17.633  14.833
49978W        W22293  21.075  12.255   2.311
49979W        W22294  30.502   0.755  14.437
49980W        W22295  37.961  34.082   2.249
49981W        W22296  41.890  30.535   9.977
49982W        W22297  28.014  21.075   2.244
49983W        W22298  18.244   4.303   3.199
49984W        W22299  26.519  33.123  11.071
49985W        W22300  18.166   8.790  14.872
49986W        W22301  39.331  11.310  11.071
49987W        W22302  32.028   4.256  14.882
49988W        W22303  11.845  18.191  14.500
49989W        W22304  41.937  14.146  14.957
49990W        W22305   8.394  38.955   1.740
49991W        W22306  20.211   0.398  10.997
49992W        W22307  10.670   7.748  12.471
49993W        W22308   5.775   2.404   3.857
49994W        W22309  26.099  43.317   4.261
49995W        W22310  12.748  13.176  12.969
49996W        W22311  33.495  38.954   1.392
49997W        W22312  17.074  41.976  12.450
49998W        W22313  33.943   8.350   0.369
49999W        W22314  39.383  37.997  11.494
50000W        W22315  42.346  17.263   2.302
50001W        W22316  25.075  41.904   2.682
50002W        W22317  15.789   0.818   4.754
50003W        W22318  14.181  26.529   1.380
50004W        W22319  29.551  30.946   2.212
50005W        W22320  40.975  18.130   3.198
50006W        W22321  33.125  34.054  10.599
50007W        W22322  27.100  41.433   4.204
50008W        W22323  29.579  25.004  13.890
50009W        W22324  37.959  39.323   3.670
50010W        W22325  36.915  24.213   9.555
50011W        W22326  44.289  38.864  14.485
50012W        W22327  22.247  16.260   0.320
50013W        W22328  27.612  27.480  12.534
50014W        W22329  30.415  25.623   4.307
50015W        W22330  38.498  27.944   0.769
50016W        W22331  40.997   7.874   2.806
50017W        W22332  43.495  42.902   3.332
50018W        W22333   2.404   3.825   1.381
50019W        W22334   0.760  27.566  11.377
50020W        W22335  31.591  30.977   1.398
50021W        W22336  32.040  16.722  12.867
50022W        W22337   9.246  38.819   3.836
50023W        W22338  41.449  21.584   4.197
50024W        W22339   9.384   8.381   1.863
50025W        W22340  32.036   6.372   2.394
50026W        W22341  40.463  38.462  11.565
50027W        W22342   8.851   7.273   4.233
50028W        W22343  33.503  17.256  14.984
50029W        W22344  15.160  29.998   2.714
50030W        W22345  30.573  33.592  12.379
50031W        W22346  17.640  19.048  11.535
50032W        W22347   7.229  29.569   2.179
50033W        W22348  11.324  13.129   0.259
50034W        W22349  16.224  35.430   1.348
50035W        W22350  14.313  13.292  13.478
50036W        W22351   4.761  13.816  12.521
50037W        W22352  16.567  12.237  10.604
50038W        W22353  18.054  11.343  13.808
50039W        W22354  16.668  42.333  14.771
50040W        W22355  29.590   8.857  14.872
50041W        W22356  23.624  28.579   0.304
50042W        W22357  37.940  43.492  11.082
50043W        W22358  25.598   8.195  10.640
50044W        W22359  31.064  10.735   2.363
50045W        W22360  22.722  17.294   4.232
50046W        W22361  34.907   3.795  11.604
50047W        W22362  24.037  35.361   0.367
50048W        W22363  14.684  34.051   1.375
50049W        W22364  12.673  16.608   2.884
50050W        W22365  36.501  20.248  10.420
50051W        W22366  39.064  35.394   4.140
50052W        W22367  33.486  38.938   0.331
50053W        W22368  42.852  40.936   2.418
50054W        W22369   1.441  38.409  14.447
50055W        W22370  38.331  32.102   4.690
50056W        W22371  41.987  16.587  10.429
50057W        W22372   0.835  30.635  14.849
50058W        W22373  20.729  36.906   2.281
50059W        W22374  13.722  16.154   0.421
50060W        W22375  39.359  29.635   2.312
50061W        W22376  35.915   0.948   4.137
50062W        W22377  16.796  14.281   0.458
50063W        W22378   8.348  32.111   2.390
50064W        W22379  20.220  10.161   5.167
50065W        W22380  40.917  35.947   3.323
50066W        W22381  20.765   5.353  11.512
50067W        W22382  18.078  11.255   5.177
50068W        W22383  23.713  29.054  11.932
50069W        W22384  20.706   7.316   3.816
50070W        W22385  13.698  13.260   1.699
50071W        W22386  38.009   1.270   3.696
50072W        W22387  23.514  25.613  13.548
50073W        W22388  18.196  41.869  11.536
50074W        W22389  33.096   7.716   1.775
50075W        W22390  24.144  38.374  14.927
50076W        W22391  33.006  17.567   3.259
50077W        W22392  27.550  35.075  12.858
50078W        W22393  41.407   2.915   1.375
50079W        W22394  41.858   0.950  11.580
50080W        W22395  39.435   0.794   2.767
50081W        W22396  22.998   6.791   0.813
50082W        W22397  35.948  37.903  14.970
50083W        W22398  31.402   1.381  14.346
50084W        W22399  13.291  43.440  14.278
50085W        W22400  37.391   9.751   1.447
50086W        W22401   8.371  13.615   0.472
50087W        W22402  10.673  29.097  12.353
50088W        W22403  36.445  33.514  12.561
50089W        W22404  27.678  32.511   4.800
50090W        W22405   5.299  10.252  13.997
50091W        W22406  44.345  35.034  11.578
50092W        W22407   0.860  43.838   1.799
50093W        W22408  31.907   0.905   2.664
50094W        W22409  40.360  36.016  13.361
50095W        W22410  33.943  35.470   1.410
50096W        W22411   3.924  24.587   1.726
50097W        W22412  12.767  13.830   1.794
50098W        W22413  26.533  18.709  11.099
50099W        W22414  43.334  38.332  12.089
50100W        W22415  24.175  37.385   2.401
50101W        W22416  37.580   4.892   5.294
50102W        W22417  25.053  41.492  13.023
50103W        W22418  20.575  37.051  11.534
50104W        W22419  11.219   5.251  11.401
50105W        W22420  40.459  36.545  11.529
50106W        W22421  23.691   8.790  12.563
50107W        W22422  16.604  38.375   9.668
50108W        W22423   6.766  39.953  14.936
50109W        W22424  11.625  16.712  11.579
50110W        W22425  34.410  40.357  12.908
50111W        W22426  14.822  32.981  14.778
50112W        W22427  40.524   3.222   0.304
50113W        W22428   7.194   0.377  12.086
50114W        W22429  19.086  10.249   3.664
50115W        W22430  44.472  16.762   4.657
50116W        W22431  24.017   5.752  10.955
50117W        W22432  26.977  39.857   4.600
50118W        W22433  19.724   2.434   4.692
50119W        W22434  21.755   6.752  11.050
50120W        W22435   0.762  40.367   3.330
50121W        W22436  44.778  17.113  14.308
50122W        W22437  43.387   9.287  13.028
50123W        W22438  25.179   7.184  14.901
50124W        W22439   0.386  22.691   0.354
50125W        W22440   1.469  10.648  14.785
50126W        W22441  11.140  43.506   1.324
50127W        W22442  25.192  33.047  14.300
50128W        W22443  11.204  15.157  12.412
50129W        W22444   2.773  22.643   4.711
50130W        W22445  26.518  36.883   4.143
50131W        W22446  14.131  37.021  10.954
50132W        W22447   3.456  23.017  14.275
50133W        W22448  29.923  29.157  13.455
50134W        W22449   5.223  34.431   4.644
50135W        W22450  29.520  25.617   3.292
50136W        W22451  36.862  44.379  13.947
50137W        W22452   6.878  15.098   0.925
50138W        W22453  31.635  44.445   1.443
50139W        W22454  23.159  12.748  14.794
50140W        W22455  28.039   4.789  13.501
50141W        W22456  14.247  27.999   2.696
50142W        W22457   6.383  37.522  14.861
50143W        W22458  14.128  20.743   1.259
50144W        W22459  37.523  25.057   1.927
50145W        W22460   9.332  39.060   2.190
50146W        W22461  17.780  28.093  14.327
50147W        W22462  32.887  11.168  14.875
50148W        W22463  37.929  26.008  14.985
50149W        W22464  16.746   2.772  13.378
50150W        W22465  15.164   9.231   2.875
50151W        W22466  25.635   8.686  13.411
50152W        W22467  17.189  28.110   5.636
50153W        W22468  42.281  44.264   1.870
50154W        W22469  18.662   3.393  12.566
50155W        W22470  27.036  22.038   2.718
50156W        W22471  31.938  31.597  11.061
50157W        W22472   2.321  32.451   4.245
50158W        W22473   1.360  16.132   3.722
50159W        W22474  43.866  18.781   1.741
50160W        W22475  10.368  16.774   3.816
50161W        W22476  35.376  16.171   3.725
50162W        W22477  28.068  10.181   4.688
50163W        W22478  14.204   8.888   3.186
50164W        W22479  34.557  41.909  14.968
50165W        W22480  20.538  26.663   3.318
50166W        W22481  27.956  32.891  12.900
50167W        W22482   2.809  22.540   3.344
50168W        W22483  10.829  32.399  10.475
50169W        W22484  21.212  40.503  12.371
50170W        W22485  36.931   3.448  10.461
50171W        W22486   5.735  30.024   3.645
50172W        W22487  28.157   1.367   2.298
50173W        W22488  25.969  21.079   1.229
50174W        W22489  16.599  13.130   2.849
50175W        W22490  19.257  41.824   1.242
50176W        W22491   4.881  28.567  11.440
50177W        W22492  24.648  31.978   3.370
50178W        W22493   6.240  34.898   4.134
50179W        W22494  38.962  19.673  13.975
50180W        W22495  29.136  25.570   0.481
50181W        W22496  19.284  18.710  12.877
50182W        W22497  36.438  13.248  13.952
50183W        W22498   3.820  23.001  10.549
50184W        W22499   7.904  31.091   0.940
50185W        W22500  11.818   2.897  12.958
50186W        W22501  17.570  21.218   1.838
50187W        W22502  31.112   2.802  14.976
50188W        W22503   9.306  19.241  10.941
50189W        W22504  31.514  12.658  10.461
50190W        W22505  24.687   2.293   2.316
50191W        W22506  31.420  44.403  12.870
50192W        W22507   2.852   4.328  13.464
50193W        W22508  42.831  39.902   3.339
50194W        W22509  13.135   1.447  14.999
50195W        W22510   3.847  35.567   0.373
50196W        W22511   7.793  14.758   2.419
50197W        W22512  17.279  14.277   1.423
50198W        W22513  41.519  20.121   4.771
50199W        W22514  10.143   0.300   2.851
50200W        W22515  44.289  22.595  10.454
50201W        W22516  18.665  44.879   2.346
50202W        W22517  43.940   4.393  11.904
50203W        W22518  27.585  35.093   0.823
50204W        W22519   2.262  28.174  13.427
50205W        W22520  37.369  21.085  12.541
50206W        W22521  43.850  30.421  11.993
50207W        W22522  29.103  24.220   4.120
50208W        W22523  36.378  22.074  13.478
50209W        W22524  43.357  32.544   0.801
50210W        W22525  11.753  12.849   2.203
50211W        W22526  28.646  17.723   0.448
50212W        W22527  38.960  35.489  11.611
50213W        W22528  18.624  33.420   0.347
50214W        W22529  12.151  32.589   4.817
50215W        W22530  19.274  19.743  13.874
50216W        W22531  21.597  31.065   4.148
50217W        W22532  39.961  20.756   2.393
50218W        W22533  31.417   4.858   2.255
50219W        W22534  34.508  34.482   2.391
50220W        W22535  34.967   8.176   1.855
50221W        W22536  17.770  19.253   4.264
50222W        W22537   7.911  25.199  13.465
50223W        W22538  35.988  15.734   4.354
50224W        W22539  25.704   5.211   1.708
50225W        W22540  24.165   8.857   1.921
50226W        W22541  18.297  15.088   1.733
50227W        W22542  37.848   1.889   3.188
50228W        W22543   9.830   0.362  14.472
50229W        W22544  12.616   7.793   0.333
50230W        W22545  42.362  16.262  12.000
50231W        W22546  23.715  24.509   4.152
50232W        W22547  10.212  13.677   3.147
50233W        W22548  12.168   7.753   1.384
50234W        W22549   6.843   7.236   0.862
50235W        W22550  16.755  33.965  10.479
50236W        W22551  42.002  20.039   2.737
50237W        W22552  10.692  22.019  14.453
50238W        W22553   5.789  35.376   3.801
50239W        W22554  26.148  24.027  13.363
50240W        W22555  17.261  19.725   4.749
50241W        W22556  41.360  12.318   1.296
50242W        W22557  22.201  24.227  13.448
50243W        W22558  41.827  44.793  14.934
50244W        W22559  44.008  11.838   9.595
50245W        W22560  42.319  20.558   2.669
50246W        W22561  13.718  26.588   2.694
50247W        W22562  22.224   0.493  10.899
50248W        W22563  27.580  33.420  10.486
50249W        W22564  28.030  23.514   2.887
50250W        W22565  15.776   3.360   2.306
50251W        W22566  31.409   7.215   0.459
50252W        W22567  34.868  38.015   0.858
50253W        W22568  18.261   8.795   5.254
50254W        W22569  43.883  41.938   0.902
50255W        W22570  32.622   6.388  10.469
50256W        W22571  44.426  28.659  13.527
50257W        W22572  33.883  26.189  10.473
50258W        W22573  20.078   4.340   2.346
50259W        W22574   2.875   5.734   4.754
50260W        W22575  35.474  41.515   1.340
50261W        W22576   9.850  20.569  10.464
50262W        W22577   0.857  19.564  10.921
50263W        W22578  18.219   2.882  11.522
50264W        W22579  40.055  25.532   3.306
50265W        W22580   5.400  11.319  11.487
50266W        W22581  44.848  18.293   1.812
50267W        W22582   0.806  11.866  10.013
50268W        W22583  26.475  11.275   0.336
50269W        W22584  25.020  24.602   4.269
50270W        W22585  35.535  21.249  10.970
50271W        W22586  10.720  21.153   3.259
50272W        W22587  35.052   6.751  12.093
50273W        W22588  10.180  44.858  14.795
50274W        W22589   2.732  14.757  14.998
50275W        W22590  12.331  21.701   0.256
50276W        W22591  42.491  30.463   0.928
50277W        W22592  16.773  12.682   3.678
50278W        W22593  36.977  33.066  14.331
50279W        W22594  25.194  27.602   1.272
50280W        W22595  41.946  40.941  10.614
50281W        W22596   3.796   1.881   3.681
50282W        W22597  17.302  31.519  12.501
50283W        W22598  28.054  28.055  12.068
50284W        W22599  24.013  39.545  11.522
50285W        W22600  41.002  12.302   4.127
50286W        W22601  13.703  29.479   3.356
50287W        W22602  42.403  28.443  11.433
50288W        W22603  22.139  13.341  11.079
50289W        W22604  26.951  39.824  13.994
50290W        W22605  14.811  22.660  13.405
50291W        W22606   9.161  21.254  11.417
50292W        W22607  36.921   7.369  11.035
50293W        W22608  19.179   0.773  13.966
50294W        W22609   7.292  27.625   4.643
50295W        W22610  43.866  20.071   4.199
50296W        W22611  11.785   0.759   3.806
50297W        W22612  17.168  33.062   0.880
50298W        W22613  31.487  17.225  12.434
50299W        W22614   1.876  44.905  14.766
50300W        W22615   4.447   3.918   4.755
50301W        W22616  29.965  34.886   0.799
50302W        W22617  21.638  20.031   9.482
50303W        W22618  38.981  30.124  14.416
50304W        W22619  16.768  44.887  13.843
50305W        W22620  18.698  13.600   2.300
50306W        W22621  29.117   1.733  11.912
50307W        W22622  18.095  36.025   0.252
50308W        W22623  21.655   5.889   2.787
50309W        W22624  17.767  36.947  13.538
50310W        W22625  40.001  31.555  11.897
50311W        W22626   0.921  32.506  10.912
50312W        W22627  36.560  38.474   3.161
50313W        W22628   3.385  44.328   1.327
50314W        W22629  26.159   1.888  13.503
50315W        W22630  13.624  41.494   0.920
50316W        W22631  20.702  44.345   4.346
50317W        W22632  38.542  11.128   4.145
50318W        W22633  29.531   3.909  11.586
50319W        W22634  25.143   0.296  13.902
50320W        W22635  34.976   4.263  12.561
50321W        W22636  14.158  28.629   2.845
50322W        W22637   2.446   4.865   3.801
50323W        W22638  21.017  14.128  12.380
50324W        W22639  29.113   3.714  14.881
50325W        W22640  37.915  24.010  13.348
50326W        W22641  42.345  17.681  12.032
50327W        W22642  33.605  15.205   1.448
50328W        W22643  26.191   0.926   3.309
50329W        W22644  18.164  13.212   4.726
50330W        W22645  23.517  11.233   2.847
50331W        W22646  32.407  15.308  11.021
50332W        W22647  25.037  39.037  10.518
50333W        W22648  30.069   7.835  11.868
50334W        W22649  14.658   8.326   2.780
50335W        W22650  15.270  39.501  12.468
50336W        W22651  34.895  18.080  10.588
50337W        W22652   4.371  15.245   4.327
50338W        W22653  26.060   3.790  10.921
50339W        W22654  17.701  32.466   4.216
50340W        W22655  15.676  40.371  11.960
50341W        W22656  12.164  24.629   2.213
50342W        W22657  41.972  17.269   4.654
50343W        W22658   9.379   5.748   1.897
50344W        W22659   9.339  22.537  14.788
50345W        W22660   5.723  16.215   0.294
50346W        W22661  10.216   0.771   2.352
50347W        W22662   2.799   7.750  14.479
50348W        W22663  39.848  10.329   0.275
50349W        W22664  39.056  30.014   2.728
50350W        W22665   4.886  13.699  14.806
50351W        W22666   9.798  17.630   4.634
50352W        W22667  24.566   7.813   3.700
50353W        W22668  17.236  32.469  13.963
50354W        W22669  20.050  35.886   3.853
50355W        W22670  21.234  41.856   0.944
50356W        W22671   8.366  16.755  12.375
50357W        W22672  32.996  28.477   2.827
50358W        W22673  38.443  41.912  11.412
50359W        W22674  31.443  40.466   4.215
50360W        W22675   9.649  13.174  12.485
50361W        W22676  36.458  25.087  14.855
50362W        W22677  40.468  24.080  11.522
50363W        W22678  32.999  36.386   0.765
50364W        W22679  13.634  33.594   0.804
50365W        W22680  44.424  14.222  12.903
50366W        W22681  35.573  43.851  11.047
50367W        W22682  17.184  39.945  11.545
50368W        W22683  31.097  38.026   1.716
50369W        W22684   1.807  31.526   0.409
50370W        W22685   3.834  44.993  12.406
50371W        W22686  31.613  18.613  13.480
50372W        W22687  42.366  15.788  11.944
50373W        W22688  34.073  25.541  10.953
50374W        W22689  13.246  10.189   9.964
50375W        W22690  14.746  36.862  12.947
50376W        W22691  23.065  15.297  13.430
50377W        W22692  13.183  24.111  13.005
50378W        W22693  17.279  42.440   0.437
50379W        W22694  32.614  34.864  14.836
50380W        W22695  44.805  25.172  13.960
50381W        W22696  35.079   3.435   1.448
50382W        W22697  15.135  14.773  13.383
50383W        W22698  40.846  38.540   3.864
50384W        W22699  22.524  40.042   1.291
50385W        W22700  34.373  12.156  13.308
50386W        W22701   6.821  23.576   4.276
50387W        W22702  12.269  37.066  10.504
50388W        W22703  37.399  19.147   2.233
50389W        W22704  41.886  41.482  13.832
50390W        W22705  22.113  20.199  12.390
50391W        W22706  34.382  14.286   2.891
50392W        W22707  25.982  32.467  12.413
50393W        W22708  30.993  20.596  13.386
50394W        W22709  24.129  34.557   2.743
50395W        W22710  38.385  17.746  10.950
50396W        W22711  40.492  15.722  10.058
50397W        W22712  28.976  15.328   2.712
50398W        W22713  29.481  16.215   3.172
50399W        W22714  10.682  27.166   2.755
50400W        W22715  25.566   7.692   1.212
50401W        W22716  43.339  17.223   1.745
50402W        W22717   9.255  24.195   3.850
50403W        W22718   0.898   7.414   1.759
50404W        W22719   7.336  30.118   3.329
50405W        W22720   1.876  44.891   3.263
50406W        W22721  24.051   8.669  13.445
50407W        W22722  27.068  17.230  11.120
50408W        W22723  34.489  35.956   3.160
50409W        W22724   9.311  30.529   9.926
50410W        W22725  33.957  35.888   1.820
50411W        W22726   8.299   8.287   1.396
50412W        W22727  36.396  26.979  12.381
50413W        W22728  14.824  18.621  12.825
50414W        W22729   0.883  39.838  12.945
50415W        W22730   2.471  11.658  13.416
50416W        W22731  29.046  44.974  14.480
50417W        W22732  35.392  25.101  12.006
50418W        W22733  10.200   6.229   3.843
50419W        W22734  32.504   8.264  10.432
50420W        W22735  33.624  33.098   3.185
50421W        W22736  37.482  22.700  14.944
50422W        W22737  40.430   8.786  14.811
50423W        W22738  13.744   3.764  13.369
50424W        W22739  32.040  10.254  13.545
50425W        W22740  36.864  10.165  11.866
50426W        W22741  44.460  30.053  12.543
50427W        W22742  37.477   2.452  11.942
50428W        W22743  19.129  43.900  12.515
50429W        W22744   9.751  12.141  12.974
50430W        W22745  13.161  18.176  11.438
50431W        W22746  37.082  20.058   3.656
50432W        W22747  33.946  35.600  12.544
50433W        W22748  25.489   2.395   4.615
50434W        W22749  25.153  15.187  13.870
50435W        W22750  34.904   9.382   3.848
50436W        W22751  43.465  24.193  14.959
50437W        W22752  30.937  13.780   0.915
50438W        W22753  14.592  44.006   3.297
50439W        W22754  29.942  31.480  14.831
50440W        W22755  16.745  33.036   4.692
50441W        W22756  29.029  44.473   3.232
50442W        W22757  28.099  20.239  11.125
50443W        W22758  16.654  10.711  13.023
50444W        W22759   0.474  12.262   5.795
50445W        W22760  11.656  20.088   3.325
50446W        W22761  35.440  31.412  12.367
50447W        W22762  29.509  37.461   9.927
50448W        W22763  16.084  39.961  10.101
50449W        W22764  10.645  23.134   4.736
50450W        W22765  27.030  26.986   0.393
50451W        W22766  20.567   1.253  12.866
50452W        W22767  33.095   9.382  13.012
50453W        W22768  21.233  30.625  13.901
50454W        W22769  43.867   7.274  13.981
50455W        W22770  40.363  16.185   4.769
50456W        W22771  10.189  34.375  10.461
50457W        W22772  11.257  32.556   2.881
50458W        W22773  28.151  44.010   0.767
50459W        W22774  37.934  18.748  12.846
50460W        W22775  44.989  33.908   3.705
50461W        W22776   4.827  17.148  14.775
50462W        W22777  31.063  19.672  12.524
50463W        W22778  30.571   1.815   1.323
50464W        W22779  42.456  44.887  13.412
50465W        W22780   2.298   2.305   4.608
50466W        W22781  18.776  20.251  14.384
50467W        W22782  34.088  19.099   0.953
50468W        W22783  17.631   9.149  13.904
50469W        W22784   9.846  25.090   2.379
50470W        W22785   6.423  20.754   0.272
50471W        W22786  33.577  39.041   2.377
50472W        W22787  21.258   6.899   1.239
50473W        W22788  21.595  16.132  10.958
50474W        W22789  11.653  40.054   3.636
50475W        W22790  12.777   0.431  14.884
50476W        W22791  38.980  27.631   0.752
50477W        W22792  20.604  17.635   1.763
50478W        W22793  36.018   9.237   4.607
50479W        W22794   8.169  16.570  14.375
50480W        W22795   0.772   7.809   1.774
50481W        W22796  19.550  28.086   4.194
50482W        W22797  16.244  20.574   4.118
50483W        W22798  34.882   6.364  12.458
50484W        W22799   2.288  14.248   2.853
50485W        W22800  10.786   0.488  14.032
50486W        W22801  11.864  33.517   0.465
50487W        W22802  33.943   4.394  12.878
50488W        W22803  43.329  33.566   2.719
50489W        W22804   1.478   8.754  13.975
50490W        W22805  30.957   4.231   2.387
50491W        W22806  31.429  12.236   4.623
50492W        W22807  23.238  15.623  12.515
50493W        W22808   9.886   4.735  14.514
50494W        W22809  11.177  39.902  14.890
50495W        W22810  21.217  21.250  11.963
50496W        W22811  41.504  29.980   2.245
50497W        W22812  40.880  19.150  14.915
50498W        W22813  29.032   2.238  11.393
50499W        W22814  33.915  28.091   2.216
50500W        W22815  31.088  33.453   0.339
50501W        W22816   7.729  11.865   2.264
50502W        W22817  34.987  11.785   1.277
50503W        W22818  15.163  35.068   3.153
50504W        W22819  17.790  12.235   2.217
50505W        W22820  22.127  38.888   1.339
50506W        W22821  35.036  42.456   4.174
50507W        W22822   7.866  43.841   3.667
50508W        W22823  24.576  16.261  13.922
50509W        W22824  44.296  42.402   2.867
50510W        W22825  31.956  29.593  10.996
50511W        W22826  20.739  25.045  11.977
50512W        W22827  13.693  31.912  13.980
50513W        W22828  19.052  40.499  10.641
50514W        W22829  10.781  29.451  13.339
50515W        W22830  44.392  26.666  14.288
50516W        W22831  19.626  44.902  11.933
50517W        W22832  15.782  12.842  10.460
50518W        W22833   2.865  42.296  13.491
50519W        W22834  29.562  31.055   3.210
50520W        W22835  21.588  14.805  11.454
50521W        W22836   8.359  22.647   3.768
50522W        W22837   6.831  33.963  12.444
50523W        W22838  44.953   3.449  14.286
50524W        W22839  37.405   6.213   2.903
50525W        W22840  35.853  24.981   4.794
50526W        W22841  11.316  26.047  11.120
50527W        W22842  14.094  15.174  11.532
50528W        W22843  37.581  37.841   4.634
50529W        W22844   1.734  22.728  13.956
50530W        W22845  33.951   7.827  12.029
50531W        W22846  25.502  42.322  13.528
50532W        W22847  44.965  20.247   1.361
50533W        W22848  23.042  19.115   4.123
50534W        W22849  21.043  17.261  12.490
50535W        W22850  32.069  27.510  14.875
50536W        W22851   4.741   2.413  11.458
50537W        W22852  34.524   7.376   2.350
50538W        W22853   3.409  38.889   5.139
50539W        W22854   9.741  30.617   0.816
50540W        W22855   9.682  33.453  10.992
50541W        W22856  31.104   0.947   2.383
50542W        W22857  40.896  15.666   5.142
50543W        W22858  39.501   3.277  10.595
50544W        W22859  42.324  31.522   3.827
50545W        W22860  38.571  20.658  14.423
50546W        W22861  10.361  18.562  11.094
50547W        W22862  22.662  40.998  13.400
50548W        W22863  44.398   8.793   1.887
50549W        W22864  16.250  16.736   2.374
50550W        W22865  25.085  33.023  12.020
50551W        W22866  25.982  41.871   4.271
50552W        W22867  29.173   9.707  10.590
50553W        W22868  22.619  42.866   2.773
50554W        W22869   8.766  22.740  11.982
50555W        W22870  18.720  28.446  14.949
50556W        W22871  31.989  14.172  12.499
50557W        W22872  40.952  27.571  13.026
50558W        W22873  29.931   3.318   4.259
50559W        W22874  33.486  10.331  11.981
50560W        W22875  32.141  27.196  10.906
50561W        W22876   4.712  15.323  14.306
50562W        W22877   1.464  28.952  11.886
50563W        W22878  11.355  42.498  13.309
50564W        W22879   4.874   0.396  13.822
50565W        W22880   3.241  12.236   0.964
50566W        W22881   4.775   4.850   1.804
50567W        W22882  35.363  40.889   2.219
50568W        W22883  16.622   4.440  13.456
50569W        W22884  38.061  31.475   4.768
50570W        W22885  40.890  17.768  14.333
50571W        W22886  44.779  39.990   4.297
50572W        W22887   9.650  30.520   2.374
50573W        W22888  20.075  23.698  11.475
50574W        W22889  34.012   4.853   4.805
50575W        W22890   4.234  40.994  11.387
50576W        W22891  34.471  33.527  12.388
50577W        W22892   5.731  14.800   0.941
50578W        W22893  29.468  24.554  14.280
50579W        W22894  25.187  14.212   4.609
50580W        W22895  18.617  20.219  14.843
50581W        W22896   5.253   0.390  12.071
50582W        W22897  19.248   0.397   3.846
50583W        W22898  16.623   9.840  11.101
50584W        W22899  41.976  22.656  12.940
50585W        W22900   4.236  37.473  11.520
50586W        W22901   9.660  31.603   3.161
50587W        W22902  43.457  41.481   3.209
50588W        W22903  40.315   0.322   1.697
50589W        W22904  41.935  39.906   2.181
50590W        W22905  22.730  27.514  12.846
50591W        W22906  33.010  11.852  11.104
50592W        W22907  33.946  17.696  11.893
50593W        W22908  33.990  38.350   3.738
50594W        W22909  35.086  17.636  11.597
50595W        W22910  37.051  30.617   3.329
50596W        W22911  42.423   7.751  14.799
50597W        W22912  42.360  29.144   3.386
50598W        W22913  28.596  21.645  13.486
50599W        W22914  14.214  19.100   2.707
50600W        W22915   8.297  13.631  12.096
50601W        W22916  31.480  44.753  12.013
50602W        W22917  30.567  27.194   0.781
50603W        W22918  27.592  23.219   1.320
50604W        W22919  35.557  19.203   3.645
50605W        W22920  11.330   7.171   3.148
50606W        W22921  33.982  25.499   0.873
50607W        W22922  21.258  15.664   2.687
50608W        W22923  15.758  22.175  10.439
50609W        W22924  29.600   0.447   0.269
50610W        W22925  33.585  41.329   3.817
50611W        W22926  44.982  34.083   9.939
50612W        W22927  17.209  42.925   3.694
50613W        W22928  29.431  10.771   2.692
50614W        W22929   1.877  34.551  13.366
50615W        W22930  39.810  25.666  14.824
50616W        W22931  31.528  36.860  11.109
50617W        W22932  22.562   3.911   0.950
50618W        W22933   1.281  26.117   4.605
50619W        W22934   9.872  34.871  12.854
50620W        W22935   5.396  12.269   1.321
50621W        W22936   4.413  40.422  12.910
50622W        W22937   2.458  20.087  14.979
50623W        W22938  35.958   1.909  12.929
50624W        W22939  18.257  10.708  14.276
50625W        W22940   7.903  19.632   4.825
50626W        W22941  43.440  18.083   2.727
50627W        W22942  35.399   4.735  11.479
50628W        W22943  38.021  31.538  13.323
50629W        W22944  39.008  35.928  13.808
50630W        W22945   2.734  17.216   0.393
50631W        W22946  43.297  40.935  13.865
50632W        W22947  12.799  42.289   3.765
50633W        W22948  43.839  33.399  12.006
50634W        W22949  34.421   6.869  13.010
50635W        W22950  19.105   9.184   2.255
50636W        W22951  22.031  22.206  10.583
50637W        W22952  25.701  38.462  10.562
50638W        W22953   2.766  41.940  10.963
50639W        W22954   1.314   4.941  12.029
50640W        W22955  16.730  39.863   3.198
50641W        W22956  37.555  25.611  11.592
50642W        W22957  42.509  33.425   3.757
50643W        W22958  24.103  31.974   4.745
50644W        W22959  40.501   9.309   2.259
50645W        W22960  42.330  36.991  13.034
50646W        W22961  23.715   5.925   1.314
50647W        W22962  13.282  25.559  13.965
50648W        W22963  36.460  32.092   2.276
50649W        W22964  10.365   7.185  11.580
50650W        W22965   4.887   6.358   0.872
50651W        W22966  15.590  26.152  10.485
50652W        W22967  41.386   0.989  12.049
50653W        W22968  31.587  12.217  11.533
50654W        W22969  16.199  13.247  12.966
50655W        W22970  11.320   1.466   1.394
50656W        W22971  38.561  18.673  14.858
50657W        W22972  30.031  36.886   4.343
50658W        W22973  25.036  26.206  14.428
50659W        W22974  18.647  11.684  10.110
50660W        W22975  21.192  20.273  11.092
50661W        W22976  25.176  26.118  10.956
50662W        W22977   1.945  20.567  14.937
50663W        W22978   9.691   4.244   0.907
50664W        W22979  13.816  10.363   0.879
50665W        W22980  14.118  11.835   4.275
50666W        W22981  37.569  20.244   3.834
50667W        W22982   2.413  35.990  12.854
50668W        W22983  15.597   1.760   3.170
50669W        W22984  41.462   7.363   3.768
50670W        W22985  34.394  23.167  14.493
50671W        W22986   4.885  14.741   2.234
50672W        W22987  14.271  34.022   4.619
50673W        W22988  24.611   5.798  12.831
50674W        W22989   5.205   3.931  12.093
50675W        W22990  36.572  26.036   1.374
50676W        W22991  25.480   7.391   0.854
50677W        W22992   4.909  17.754  12.827
50678W        W22993  41.419   7.868   0.314
50679W        W22994  29.540   4.787   2.787
50680W        W22995  34.037  27.484   2.192
50681W        W22996  31.034   9.354   2.779
50682W        W22997  16.167  29.461   4.245
50683W        W22998   9.193  23.068  10.568
50684W        W22999  39.889  15.157  13.483
50685W        W23000   2.262  34.015   0.350
50686W        W23001   3.713  38.338  11.084
50687W        W23002  24.624   4.303  10.987
50688W        W23003  10.814  35.036  12.443
50689W        W23004  21.062   4.305   2.786
50690W        W23005  23.504  39.334   1.450
50691W        W23006  44.473  31.433   0.901
50692W        W23007  33.560  32.635   4.253
50693W        W23008  23.663  26.658   2.399
50694W        W23009  18.722  37.343  14.927
50695W        W23010  35.492  17.260  12.575
50696W        W23011  30.048  21.721   1.782
50697W        W23012  28.593  26.616  12.870
50698W        W23013   2.905   8.853  12.052
50699W        W23014  32.944  28.169   1.888
50700W        W23015  31.146  20.611  11.918
50701W        W23016  20.062  19.119  10.607
50702W        W23017  18.115  33.533   4.614
50703W        W23018  32.023  36.539  14.896
50704W        W23019  22.104  43.981   2.868
50705W        W23020  26.112  13.343  13.843
50706W        W23021  44.991  27.572  13.380
50707W        W23022   6.771   2.800   2.781
50708W        W23023  40.380  26.601   5.285
50709W        W23024  11.158  14.710   2.289
50710W        W23025  15.675  19.241   2.898
50711W        W23026  41.991  15.690  10.509
50712W        W23027  29.064  39.369   1.375
50713W        W23028  20.649  21.587  13.430
50714W        W23029  34.874  10.148  10.418
50715W        W23030  35.502  29.925  12.570
50716W        W23031  31.917  23.142  14.432
50717W        W23032  25.081  13.124  14.881
50718W        W23033  40.845  24.514  14.974
50719W        W23034  12.843  30.939   0.383
50720W        W23035  17.102  18.789   4.742
50721W        W23036  40.819  11.750  12.082
50722W        W23037  27.096   4.257   0.740
50723W        W23038  32.416  34.375  12.540
50724W        W23039  29.511  15.324   3.191
50725W        W23040  38.942  32.568  14.511
50726W        W23041   7.872  19.067   1.236
50727W        W23042  16.300  27.998  14.848
50728W        W23043   5.876  18.109  11.574
50729W        W23044   0.972  19.048   3.276
50730W        W23045   4.404   2.861   3.860
50731W        W23046  21.039  21.750  10.152
50732W        W23047  30.934  40.952  14.283
50733W        W23048  21.640  43.868  14.426
50734W        W23049  44.463  41.934  14.792
50735W        W23050  12.744  11.632   0.926
50736W        W23051  27.950  17.793   2.856
50737W        W23052  31.643  26.109  11.875
50738W        W23053  11.172  42.948   1.836
50739W        W23054  26.185  23.180  10.435
50740W        W23055  18.268  12.809   0.886
50741W        W23056  25.505  16.777   0.340
50742W        W23057  33.047   4.799   0.359
50743W        W23058   2.963   1.445   0.282
50744W        W23059  13.271  23.499   0.404
50745W        W23060  23.604  26.001  14.358
50746W        W23061  23.019  25.118  10.466
50747W        W23062  39.478  21.245  11.587
50748W        W23063  34.954   0.976   5.219
50749W        W23064   8.778   9.886  10.993
50750W        W23065  38.340  25.580   3.643
50751W        W23066  19.663   9.242   4.599
50752W        W23067  32.054   4.938   0.441
50753W        W23068   7.360  41.478   4.318
50754W        W23069   8.889  35.590  13.485
50755W        W23070  25.125  43.328   1.226
50756W        W23071  32.998  38.551  14.947
50757W        W23072   5.410  30.935   3.219
50758W        W23073  38.041   6.791   2.414
50759W        W23074  40.018   2.793   2.192
50760W        W23075  29.472   2.728  13.377
50761W        W23076  34.067   7.222   1.382
50762W        W23077   8.294   0.488  11.966
50763W        W23078  42.012   2.323   1.330
50764W        W23079   0.301  40.352  14.501
50765W        W23080   6.826   5.867   3.698
50766W        W23081  19.143  41.526  10.485
50767W        W23082  26.113  41.416   0.295
50768W        W23083   4.337  35.509   4.808
50769W        W23084  17.256   8.326   0.877
50770W        W23085  16.671  11.223   2.385
50771W        W23086  42.881  33.497   1.890
50772W        W23087   1.373   4.264   1.334
50773W        W23088  29.164   9.305  12.974
50774W        W23089   3.307  28.559   4.305
50775W        W23090  33.951  31.094   1.901
50776W        W23091  35.497  16.131   0.964
50777W        W23092   7.275   6.188   1.908
50778W        W23093  32.097   4.355  13.859
50779W        W23094  20.531  19.581   3.752
50780W        W23095  13.842  37.883  10.445
50781W        W23096  43.313   7.195   0.751
50782W        W23097   1.289  19.201   3.300
50783W        W23098  35.987   6.200  10.907
50784W        W23099  12.142  43.858  10.636
50785W        W23100  40.450  21.562   2.757
50786W        W23101   7.851  37.432  11.990
50787W        W23102  37.016  30.659  14.807
50788W        W23103  43.287  10.186   9.578
50789W        W23104  11.240  17.192   3.325
50790W        W23105   4.403   5.711  11.988
50791W        W23106  17.732   7.691   3.731
50792W        W23107  34.068  44.869   2.267
50793W        W23108  33.535  44.484  11.874
50794W        W23109   1.406  18.207  11.458
50795W        W23110  26.560  15.145   4.234
50796W        W23111  26.007   8.873  13.064
50797W        W23112  13.831   3.911  14.913
50798W        W23113  36.515  26.487   1.264
50799W        W23114   9.870  22.222   4.137
50800W        W23115  36.020  40.931  13.810
50801W        W23116  37.020  35.890  12.441
50802W        W23117  27.070  43.879  11.915
50803W        W23118  21.041  42.385  11.925
50804W        W23119  39.839  30.113  11.963
50805W        W23120  44.989  16.574  13.803
50806W        W23121  10.345   0.445  10.016
50807W        W23122  18.144   0.254   1.358
50808W        W23123  34.396   3.917   1.353
50809W        W23124  26.012   5.883  10.893
50810W        W23125   5.238  24.025   2.324
50811W        W23126  44.395  23.641   3.805
50812W        W23127  28.600  40.509   4.195
50813W        W23128  35.942  28.178  11.520
50814W        W23129  10.204   3.923   4.681
50815W        W23130  38.984  15.716   2.736
50816W        W23131  32.912  20.146   4.641
50817W        W23132  38.895   8.872  14.381
50818W        W23133  36.359  27.605  12.848
50819W        W23134  22.623  25.984  14.428
50820W        W23135   2.461   9.305   1.329
50821W        W23136  31.080  16.785  11.121
50822W        W23137  25.581  35.991  10.010
50823W        W23138  37.034  23.531   3.254
50824W        W23139  21.134   9.324   4.834
50825W        W23140  39.401  26.977  13.453
50826W        W23141  28.066  39.549   1.714
50827W        W23142  26.039  21.071  14.807
50828W        W23143  21.653   0.456   4.273
50829W        W23144  20.249  28.941  10.020
50830W        W23145  24.555   9.696   0.266
50831W        W23146  39.963  30.629   3.843
50832W        W23147  18.607  29.561   2.179
50833W        W23148  11.320  21.739   0.245
50834W        W23149   0.494  44.756  13.413
50835W        W23150   9.176  38.553   0.908
50836W        W23151   9.201  30.053  11.961
50837W        W23152   4.423  41.492  14.409
50838W        W23153   8.775  22.016  13.972
50839W        W23154  30.924  32.912  11.562
50840W        W23155  33.532   9.720   1.853
50841W        W23156  12.806   9.327   0.957
50842W        W23157  24.150  19.188   0.801
50843W        W23158  42.877  21.105  13.035
50844W        W23159   1.965  14.813  12.420
50845W        W23160   1.475  44.963  13.923
50846W        W23161  22.666  39.051  13.322
50847W        W23162   3.388  39.031  14.305
50848W        W23163  20.132  20.685   2.887
50849W        W23164  19.666  43.409  12.037
50850W        W23165  33.085  24.180  11.054
50851W        W23166  36.847  31.513   1.287
50852W        W23167  44.287  23.693   3.298
50853W        W23168  30.962  40.505   1.381
50854W        W23169  14.802  27.538   0.417
50855W        W23170  41.458  13.810   1.725
50856W        W23171  44.275  42.957   2.257
50857W        W23172  40.029   2.452   4.675
50858W        W23173   9.709  31.603  11.408
50859W        W23174  34.492  21.565  14.422
50860W        W23175  14.789   4.857   4.329
50861W        W23176  21.683  30.094  11.423
50862W        W23177  21.141   9.751  13.835
50863W        W23178  32.933  17.696  11.053
50864W        W23179  25.659  27.583  10.954
50865W        W23180  17.634  26.125   0.299
50866W        W23181  39.524  25.575  10.562
50867W        W23182   0.986  17.249   3.870
50868W        W23183  11.129  30.529  11.547
50869W        W23184  33.566  41.424   4.725
50870W        W23185   4.933  44.767  14.352
50871W        W23186  24.643  18.227   4.701
50872W        W23187  25.118  34.066   2.757
50873W        W23188  33.880  10.784   4.133
50874W        W23189   1.851   2.840   2.788
50875W        W23190   4.254   9.215  12.480
50876W        W23191   8.189  27.074   1.879
50877W        W23192  13.241  44.356   5.315
50878W        W23193  39.983  13.600   2.824
50879W        W23194  40.546  20.697  12.344
50880W        W23195  28.459  20.061   0.412
50881W        W23196  38.345  30.970   2.185
50882W        W23197   6.343  24.978  12.087
50883W        W23198  11.164  27.586  11.604
50884W        W23199  39.391  28.666  13.537
50885W        W23200  31.079  31.573   4.598
50886W        W23201  23.129  29.945   1.905
50887W        W23202  16.233   7.763  14.956
50888W        W23203  39.959  16.117   3.696
50889W        W23204   4.261  24.229  11.464
50890W        W23205   8.852  17.305  14.774
50891W        W23206  29.973   8.765  14.437
50892W        W23207  35.555  11.197  13.541
50893W        W23208   2.945  33.501  14.949
50894W        W23209   2.311   2.850   3.159
50895W        W23210  17.778  22.124   0.388
50896W        W23211  15.664   8.378   4.649
50897W        W23212  34.928   7.265   3.338
50898W        W23213  17.588  38.387   0.291
50899W        W23214  21.105  27.128  14.934
50900W        W23215  13.304   2.294  11.390
50901W        W23216  13.341   9.797  14.441
50902W        W23217  18.669  41.797  13.004
50903W        W23218  16.581   9.328   5.194
50904W        W23219   4.827  28.443   4.238
50905W        W23220   0.927   8.251   1.747
50906W        W23221  40.360  14.594   3.264
50907W        W23222  16.708  19.763   3.222
50908W        W23223  38.923  28.134  10.421
50909W        W23224  24.125  29.490  11.055
50910W        W23225  29.525  37.437   0.478
50911W        W23226  27.631   9.767  10.533
50912W        W23227   2.813  26.027  11.569
50913W        W23228  21.671  28.479   1.707
50914W        W23229  13.749   5.796   1.301
50915W        W23230  14.230  23.527   3.250
50916W        W23231  40.030  18.665  11.423
50917W        W23232  18.211  36.046  10.926
50918W        W23233  20.640  20.165   1.788
50919W        W23234  19.678  33.060  13.015
50920W        W23235  24.573  30.112   4.792
50921W        W23236  13.196  13.113  14.476
50922W        W23237  42.021  37.911  11.543
50923W        W23238  43.515  26.636   0.291
50924W        W23239  29.069  33.450   5.094
50925W        W23240   0.767  12.299   2.380
50926W        W23241  25.615  24.059  12.369
50927W        W23242   0.443  39.925  12.385
50928W        W23243  33.991  40.499   1.742
50929W        W23244  41.036  21.706   3.719
50930W        W23245  32.513   3.267  12.494
50931W        W23246  11.759  13.344  12.577
50932W        W23247  35.986   3.283  10.991
50933W        W23248  35.446  43.486  12.457
50934W        W23249   9.360  21.071   1.384
50935W        W23250   8.320  26.123  14.357
50936W        W23251  29.523  33.488   5.189
50937W        W23252  42.373  13.293  10.524
50938W        W23253  36.051   1.382  13.530
50939W        W23254  30.046   3.241   3.227
50940W        W23255  36.087  29.455   2.800
50941W        W23256  32.508  12.656   3.339
50942W        W23257  37.471  43.849  13.325
50943W        W23258  22.127  28.632   1.388
50944W        W23259   9.318  34.017  13.394
50945W        W23260  19.196  26.694   4.741
50946W        W23261  24.517   4.763   1.292
50947W        W23262  40.464  12.807   9.922
50948W        W23263  25.527  33.969  12.361
50949W        W23264   5.687  35.957   1.922
50950W        W23265   0.248  27.096   3.303
50951W        W23266  12.307  19.043  11.386
50952W        W23267  16.584  19.142  10.958
50953W        W23268  19.602   3.744   3.315
50954W        W23269  38.035   3.458   4.702
50955W        W23270  38.500  20.646   4.751
50956W        W23271  15.122   7.231  13.343
50957W        W23272  31.957  24.500   4.125
50958W        W23273   3.792  43.320  10.890
50959W        W23274  32.435  39.468   3.848
50960W        W23275  37.926   8.338  13.521
50961W        W23276  24.538  36.955   3.768
50962W        W23277  11.790   9.720   0.744
50963W        W23278  16.688  11.669   2.901
50964W        W23279  15.181  35.969  10.593
50965W        W23280  26.010  19.740   3.703
50966W        W23281   4.449  25.190   2.782
50967W        W23282   3.360  10.706  12.001
50968W        W23283  10.152  28.586  13.010
50969W        W23284  36.880  20.153  13.806
50970W        W23285  37.911  39.877   3.797
50971W        W23286  28.052   0.442   2.662
50972W        W23287  12.666  31.437   3.768
50973W        W23288  39.879  31.981   4.233
50974W        W23289  37.926  38.346   4.211
50975W        W23290  21.158  26.697   2.675
50976W        W23291  13.234  23.638   1.885
50977W        W23292  41.844  35.455  13.917
50978W        W23293  15.759  11.829   4.680
50979W        W23294  37.000   3.893  12.403
50980W        W23295   1.444  22.655  11.539
50981W        W23296   7.707  24.515   1.711
50982W        W23297  27.692   8.395  13.381
50983W        W23298  15.780   0.946   1.842
50984W        W23299  42.961  15.804   1.834
50985W        W23300   4.339  13.744  11.868
50986W        W23301   6.833  35.603   1.436
50987W        W23302  24.201   4.808   3.737
50988W        W23303  33.395  12.300  14.974
50989W        W23304  25.579  22.599  13.954
50990W        W23305  29.008  38.897   0.952
50991W        W23306  22.057   7.665  10.923
50992W        W23307  38.959  13.698  11.996
50993W        W23308  20.718  21.158   0.263
50994W        W23309  44.362  27.510   2.257
50995W        W23310   3.916  41.398  14.383
50996W        W23311   1.958   0.435   3.681
50997W        W23312   1.885  11.819   4.147
50998W        W23313  43.865  21.169  12.947
50999W        W23314  24.008  42.520  10.893
51000W        W23315   3.835  24.530  13.912
51001W        W23316  20.149   9.189  13.014
51002W        W23317   6.864   6.699  10.506
51003W        W23318   7.358   3.364   0.321
51004W        W23319  22.547  20.187  14.337
51005W        W23320  28.051  17.099  11.944
51006W        W23321  35.580   2.926  13.505
51007W        W23322  18.140  34.927  14.323
51008W        W23323  25.037   3.839  12.075
51009W        W23324  44.439  35.853  10.952
51010W        W23325  14.328  24.575  12.971
51011W        W23326  19.759  17.160   2.266
51012W        W23327  40.432  28.978   4.344
51013W        W23328   7.190  32.121   1.764
51014W        W23329   3.737   9.668  14.790
51015W        W23330  21.041  34.435   0.854
51016W        W23331  10.216  18.295  13.514
51017W        W23332   7.287  21.541  12.013
51018W        W23333  44.789  41.985   0.809
51019W        W23334  26.592  20.175  12.068
51020W        W23335  34.522   4.290   2.358
51021W        W23336  17.261  22.662   4.198
51022W        W23337   8.768  24.687  14.395
51023W        W23338  41.876  13.829  10.949
51024W        W23339  33.550  37.370   1.416
51025W        W23340  15.760  24.221   1.280
51026W        W23341  12.233  30.944   2.263
51027W        W23342  24.176   5.701   2.695
51028W        W23343  13.229  35.511   2.196
51029W        W23344  15.752  26.627   5.267
51030W        W23345  14.779  37.569   0.904
51031W        W23346  37.356  29.503  12.458
51032W        W23347  44.394  13.659  12.520
51033W        W23348  18.115  43.998  11.942
51034W        W23349  42.319  34.583   3.154
51035W        W23350   1.912  23.057  14.812
51036W        W23351   9.332  20.636   3.680
51037W        W23352  27.524   5.767  14.009
51038W        W23353   5.812  28.666  13.869
51039W        W23354  40.010  39.898   0.436
51040W        W23355  11.188  29.918   0.939
51041W        W23356   3.722  17.216  10.081
51042W        W23357  32.907  43.971   3.240
51043W        W23358  37.047   7.686   4.232
51044W        W23359   7.722  15.223   0.303
51045W        W23360  14.240  32.572  13.024
51046W        W23361  43.835  37.384  12.955
51047W        W23362  22.731  11.689  11.418
51048W        W23363  43.276  41.791  13.957
51049W        W23364  38.429  39.382   1.816
51050W        W23365  26.160  15.665  14.988
51051W        W23366   4.890   4.907   3.689
51052W        W23367   8.198   3.306  13.420
51053W        W23368  12.323  34.420  10.411
51054W        W23369  16.598  43.389   0.266
51055W        W23370  13.249  33.398  11.021
51056W        W23371  17.659   8.834   0.916
51057W        W23372  40.482  31.960  12.973
51058W        W23373  11.713  37.841  11.580
51059W        W23374   4.316  43.502   0.277
51060W        W23375  35.370  22.007  13.795
51061W        W23376  15.632  21.721   0.950
51062W        W23377  40.338  23.631   5.726
51063W        W23378   0.454  43.462   4.216
51064W        W23379  25.057  13.766   2.808
51065W        W23380  33.498   9.302   4.695
51066W        W23381  39.452  43.019  10.925
51067W        W23382  38.984  23.550  10.617
51068W        W23383  13.267  22.085   2.827
51069W        W23384  22.080   0.873  11.399
51070W        W23385   7.254  22.691  10.577
51071W        W23386  24.161   4.848  14.961
51072W        W23387  29.557  44.922   1.434
51073W        W23388  23.117  35.910   0.380
51074W        W23389   1.362  33.399  12.972
51075W        W23390   7.272   2.791  11.519
51076W        W23391  18.696  32.076   0.919
51077W        W23392   6.362   1.309   2.398
51078W        W23393   1.311  22.076   0.753
51079W        W23394   4.940  18.297   2.889
51080W        W23395   3.779   1.974   5.223
51081W        W23396  42.874  20.695  13.537
51082W        W23397  41.500  17.116   0.357
51083W        W23398  35.011  38.846   1.401
51084W        W23399  27.495  29.135   2.218
51085W        W23400  42.945  16.310   4.210
51086W        W23401  10.294  28.453   2.774
51087W        W23402   8.805   9.864   3.815
51088W        W23403  31.460  35.935   1.450
51089W        W23404  42.841  12.776   4.834
51090W        W23405  35.421   5.354  12.020
51091W        W23406  35.537   5.733   4.696
51092W        W23407  18.063   6.773   3.213
51093W        W23408  33.580  15.178   2.784
51094W        W23409  38.495  35.090  13.895
51095W        W23410  42.921  32.107   3.805
51096W        W23411  10.153  30.090   0.428
51097W        W23412   9.754   1.337   1.234
51098W        W23413  33.423   8.311  14.902
51099W        W23414  17.575  26.171   2.685
51100W        W23415  34.104  26.700  14.956
51101W        W23416  15.683  26.597   1.886
51102W        W23417  12.747  34.396   4.115
51103W        W23418  12.647  13.682  13.395
51104W        W23419  28.563   8.704  13.336
51105W        W23420   9.263  23.712  10.471
51106W        W23421  29.010  31.995   9.593
51107W        W23422  10.156  42.371   1.316
51108W        W23423  20.708   0.415  11.112
51109W        W23424  29.085  23.218  13.457
51110W        W23425  39.464  11.797   3.688
51111W        W23426  42.777  26.694  12.386
51112W        W23427  34.501  10.224  11.479
51113W        W23428  32.625  28.481  12.487
51114W        W23429  40.332   8.764   0.852
51115W        W23430  28.994  30.934   0.790
51116W        W23431  14.612  25.499   1.746
51117W        W23432  25.588  14.592   4.708
51118W        W23433  19.121   1.820   1.705
51119W        W23434  24.151  30.931   1.860
51120W        W23435  11.193  10.853   4.120
51121W        W23436  22.729   2.396   1.888
51122W        W23437  29.975  22.244  12.995
51123W        W23438  23.154   7.190   1.296
51124W        W23439  19.585  36.445   1.326
51125W        W23440   7.687   1.296  11.007
51126W        W23441  35.395  18.590   0.804
51127W        W23442  35.545  32.048  11.411
51128W        W23443  36.558  31.632  14.418
51129W        W23444   6.875  30.950   1.449
51130W        W23445  21.155   5.431  12.470
51131W        W23446  11.683  27.985   3.835
51132W        W23447  17.576  37.420  11.058
51133W        W23448  25.124  35.071   2.411
51134W        W23449  14.745  34.538  11.995
51135W        W23450  42.467  26.609  14.763
51136W        W23451  24.042  24.580  14.447
51137W        W23452  37.447   7.364  14.814
51138W        W23453  36.953  30.028  12.831
51139W        W23454   5.722  13.332   1.916
51140W        W23455  31.005  36.910   2.703
51141W        W23456  10.322  17.658   2.402
51142W        W23457  12.183   6.898   0.735
51143W        W23458  32.055  44.924  11.126
51144W        W23459  15.644  16.668  10.942
51145W        W23460  21.092  13.810  14.906
51146W        W23461  42.788   5.914   1.238
51147W        W23462  19.270  19.055  13.479
51148W        W23463   8.807  36.085   2.844
51149W        W23464   9.851  38.006  11.375
51150W        W23465  28.978  19.130   4.710
51151W        W23466  10.251   7.875   2.887
51152W        W23467  41.847  29.608  10.019
51153W        W23468  27.688  41.404  12.438
51154W        W23469  33.438  35.455  14.378
51155W        W23470   3.402  31.467  11.981
51156W        W23471   9.180  26.627   1.793
51157W        W23472  22.218  27.553   1.759
51158W        W23473  37.869   6.923  12.846
51159W        W23474  24.543  13.246   2.380
51160W        W23475   7.721   1.797  12.990
51161W        W23476  42.784  14.803  12.995
51162W        W23477  32.509  37.920   2.360
51163W        W23478   9.722  34.099   2.349
51164W        W23479   4.735   7.175   2.673
51165W        W23480   5.800   5.904  14.876
51166W        W23481   2.379  40.001   4.116
51167W        W23482  13.789  28.976   3.640
51168W        W23483  23.564  37.876   4.659
51169W        W23484  12.686   9.719   0.386
51170W        W23485  25.145  17.741  12.568
51171W        W23486  18.574  13.669   1.364
51172W        W23487  36.938  26.569   0.779
51173W        W23488  22.600   9.233   2.326
51174W        W23489   9.311   3.422   1.434
51175W        W23490  24.195   3.367   3.750
51176W        W23491  37.873  32.987   3.349
51177W        W23492   2.351  25.710   2.834
51178W        W23493   0.935  43.833   3.797
51179W        W23494  20.210  10.821  14.890
51180W        W23495  37.458  17.164  12.389
51181W        W23496   9.255  12.658   4.769
51182W        W23497  35.431  13.182  12.934
51183W        W23498  42.319  39.460  11.951
51184W        W23499  11.672  32.415  11.044
51185W        W23500   2.290  26.053  10.611
51186W        W23501   9.764   2.312   1.796
51187W        W23502  33.037  35.359   1.267
51188W        W23503  10.679  16.126  10.150
51189W        W23504  34.880  23.134  13.914
51190W        W23505  40.517  19.698   0.891
51191W        W23506  23.586  23.051  12.032
51192W        W23507  28.082  37.970   4.679
51193W        W23508  30.518  28.679   1.352
51194W        W23509  19.253  10.228   1.806
51195W        W23510  36.997  17.075   3.158
51196W        W23511   0.742  41.969   2.724
51197W        W23512  25.198  31.904   4.291
51198W        W23513  40.386  40.426  13.383
51199W        W23514   7.334  35.460   1.935
51200W        W23515  39.494  25.642   4.797
51201W        W23516   8.899   3.845  12.994
51202W        W23517  28.506  28.153  11.588
51203W        W23518   7.365  12.854  13.983
51204W        W23519  30.134  21.248   3.339
51205W        W23520   1.960  17.213  11.463
51206W        W23521  12.782  41.810   0.274
51207W        W23522   0.284  35.447   1.403
51208W        W23523  32.132  39.843   0.834
51209W        W23524  14.255  13.209   3.329
51210W        W23525  13.325   7.784  14.402
51211W        W23526  43.895  35.892   3.242
51212W        W23527  34.050  44.404   2.732
51213W        W23528   9.178   6.313  13.928
51214W        W23529  18.638   4.760  12.858
51215W        W23530  21.674  44.007  11.012
51216W        W23531  34.573  20.763  11.426
51217W        W23532  36.850  29.491   2.299
51218W        W23533  12.146   6.797  14.004
51219W        W23534  14.264  24.086  13.885
51220W        W23535   4.345  42.457  10.479
51221W        W23536  33.083  42.994   2.342
51222W        W23537  33.495  17.294  13.901
51223W        W23538   3.270  22.680  11.402
51224W        W23539   5.312  12.621   4.353
51225W        W23540  28.648   4.400  14.294
51226W        W23541  23.179  38.850  13.319
51227W        W23542  19.723  22.133  11.456
51228W        W23543  43.430  41.963  13.356
51229W        W23544  25.477  17.222   2.739
51230W        W23545  12.285  42.409   0.298
51231W        W23546   1.398  19.118   4.718
51232W        W23547  28.436  10.195   1.713
51233W        W23548  12.265  17.614   0.743
51234W        W23549   8.185  35.596   2.338
51235W        W23550  30.638  39.462   2.734
51236W        W23551  28.527  24.230   1.712
51237W        W23552  18.221   8.348   4.810
51238W        W23553  27.950  18.638  10.923
51239W        W23554  27.945  13.161   3.252
51240W        W23555   0.960  42.949   4.807
51241W        W23556  42.475  42.861  13.807
51242W        W23557   6.182  19.733   0.390
51243W        W23558  26.967  28.962  12.053
51244W        W23559   6.352  29.470   5.165
51245W        W23560   7.331  13.281  13.793
51246W        W23561  15.129   3.346  14.509
51247W        W23562   4.802   7.404   4.679
51248W        W23563  16.698  33.525  12.949
51249W        W23564  19.547  20.180   2.397
51250W        W23565  30.157  27.531  10.909
51251W        W23566  27.655   8.353   3.869
51252W        W23567  23.062   7.328   0.406
51253W        W23568   4.318  23.612   1.712
51254W        W23569  33.408   1.405  11.566
51255W        W23570  34.935  30.990   4.744
51256W        W23571  23.066   7.242   2.827
51257W        W23572  35.549  10.646  11.601
51258W        W23573  42.793  22.716   1.728
51259W        W23574  36.511  15.712  14.411
51260W        W23575  13.642  37.490  14.965
51261W        W23576   0.865  16.775   2.250
51262W        W23577  18.167  14.614  14.022
51263W        W23578  37.373   1.841   2.759
51264W        W23579  42.425  34.948   4.728
51265W        W23580  36.070  11.157  11.610
51266W        W23581  14.098  17.213   5.320
51267W        W23582  37.055   1.783   2.877
51268W        W23583  16.082  32.942   1.859
51269W        W23584  17.211  12.290  11.484
51270W        W23585  30.040  30.585  13.981
51271W        W23586  39.415   0.807  12.943
51272W        W23587  17.299   5.748  14.887
51273W        W23588  13.729  18.270   1.219
51274W        W23589  39.029  25.623   2.202
51275W        W23590  32.080  23.181   4.767
51276W        W23591  34.108  10.646  13.952
51277W        W23592  18.164   0.322  13.424
51278W        W23593  39.515  11.199  11.987
51279W        W23594  31.938   9.302   0.829
51280W        W23595  36.983  42.420  12.500
51281W        W23596  22.549  36.016  10.408
51282W        W23597  25.981  23.989  12.454
51283W        W23598  19.253  19.136  14.829
51284W        W23599  36.402   3.260   5.180
51285W        W23600  37.533  26.649   3.704
51286W        W23601  12.217  15.220  11.513
51287W        W23602  22.746   5.285  12.461
51288W        W23603  29.584  38.422  13.378
51289W        W23604  14.324   8.258  11.584
51290W        W23605   9.256  42.850   5.145
51291W        W23606  44.841  28.443   0.803
51292W        W23607   5.789  22.608  11.520
51293W        W23608  34.403   7.859   2.691
51294W        W23609  41.991  12.774   3.751
51295W        W23610  34.894  19.582  11.499
51296W        W23611  43.014  43.286   2.408
51297W        W23612  41.865  21.626  10.464
51298W        W23613  33.036   9.850   1.294
51299W        W23614  30.532  22.081   4.777
51300W        W23615  24.991  39.998  11.980
51301W        W23616  34.476  22.163  13.869
51302W        W23617  16.142  29.987  13.000
51303W        W23618  25.007  27.621   2.179
51304W        W23619  19.723  40.986  13.457
51305W        W23620  33.395  40.810  14.312
51306W        W23621   8.244  24.557  11.906
51307W        W23622  33.032  25.110   4.304
51308W        W23623  26.200  37.530   1.709
51309W        W23624   6.324  41.390   2.785
51310W        W23625   0.941   1.258   2.853
51311W        W23626   6.313   4.442   2.386
51312W        W23627   8.820  43.464   2.342
51313W        W23628   7.377  32.998   2.808
51314W        W23629  13.261  14.205  14.863
51315W        W23630  44.810   3.234   0.274
51316W        W23631  17.773  11.243  14.386
51317W        W23632  43.905   2.914  13.829
51318W        W23633  28.187   9.681  10.125
51319W        W23634  44.475  12.315  10.951
51320W        W23635  25.490  26.086   2.302
51321W        W23636  40.464  42.987  13.439
51322W        W23637  25.542  35.384  13.510
51323W        W23638  36.938   3.338  13.845
51324W        W23639  43.485   3.263   1.773
51325W        W23640  23.024  17.150   1.842
51326W        W23641  18.230  33.967   0.899
51327W        W23642  22.142  35.108  13.011
51328W        W23643  14.102  32.941  11.947
51329W        W23644   0.959  20.225   4.613
51330W        W23645  33.448   4.898   5.299
51331W        W23646  31.450  17.761   2.213
51332W        W23647  43.331  28.519  12.919
51333W        W23648  33.546  38.454  13.370
51334W        W23649   7.762  22.232   0.898
51335W        W23650  30.635  29.959  11.088
51336W        W23651  20.118  28.090  13.320
51337W        W23652  41.786  42.483   0.327
51338W        W23653  23.533  18.743   1.851
51339W        W23654  37.865  36.569  14.394
51340W        W23655   7.872   6.785   2.868
51341W        W23656  33.559   6.188  11.922
51342W        W23657  17.275   0.279  12.379
51343W        W23658   5.872  21.058   1.392
51344W        W23659  10.642  25.989  12.050
51345W        W23660   9.693  44.841   2.791
51346W        W23661  37.034  36.559  10.895
51347W        W23662  12.753  19.682  13.426
51348W        W23663  33.626   9.837  13.498
51349W        W23664  10.239  19.743  10.543
51350W        W23665  36.986  10.816   0.924
51351W        W23666  27.128  36.991   1.711
51352W        W23667  29.993   4.870  14.419
51353W        W23668  10.152  32.089   2.883
51354W        W23669  24.116   3.846   4.344
51355W        W23670  10.234  15.777  11.930
51356W        W23671  31.504  18.646   2.285
51357W        W23672  24.187  16.139  14.924
51358W        W23673   4.846  21.082  10.495
51359W        W23674  22.160  30.542  14.799
51360W        W23675   4.738   2.733   1.297
51361W        W23676  10.664  26.078   4.800
51362W        W23677  10.199  14.620  12.405
51363W        W23678  42.320  13.779  14.849
51364W        W23679  34.868  23.006  12.851
51365W        W23680  11.722   8.815   4.199
51366W        W23681  18.678   3.836   1.863
51367W        W23682  40.443  32.450   3.325
51368W        W23683  41.000   9.767   0.320
51369W        W23684  40.834  11.287  13.533
51370W        W23685  25.126  12.848   1.265
51371W        W23686  35.068  17.671   0.726
51372W        W23687  43.404  21.224   2.341
51373W        W23688  27.165  35.582  13.872
51374W        W23689  14.338  35.547   3.637
51375W        W23690  42.967  19.661   4.226
51376W        W23691  18.663  13.697   3.251
51377W        W23692  43.404  36.888   0.771
51378W        W23693  29.036  19.247  14.469
51379W        W23694  23.097  38.929   4.189
51380W        W23695  19.633  27.626  12.964
51381W        W23696  39.508  14.664  12.975
51382W        W23697  40.358  40.398  11.061
51383W        W23698  23.717   9.165  12.520
51384W        W23699   1.344  22.196   3.732
51385W        W23700  43.441  30.518  14.947
51386W        W23701  41.307   5.912   2.778
51387W        W23702   3.880  43.347   3.162
51388W        W23703  10.837   2.901  12.881
51389W        W23704  27.554  44.437   1.304
51390W        W23705  29.429  39.359  12.462
51391W        W23706  15.686   1.794  12.834
51392W        W23707  21.516  43.819   3.764
51393W        W23708   3.718  32.118  13.041
51394W        W23709  24.641   6.406   3.745
51395W        W23710   3.327   0.844  10.575
51396W        W23711  12.340  43.955  14.021
51397W        W23712  24.090  14.149   4.264
51398W        W23713  22.074  22.598   2.715
51399W        W23714  21.236  42.942  14.325
51400W        W23715  22.587   4.715  12.372
51401W        W23716  27.159   3.742  13.830
51402W        W23717  35.923   7.411  10.505
51403W        W23718  16.188  37.342  12.993
51404W        W23719   7.321  18.262   2.237
51405W        W23720  20.118   6.894   3.196
51406W        W23721  26.568  23.060  11.919
51407W        W23722  16.193  27.135  11.090
51408W        W23723   8.404  38.848   1.409
51409W        W23724  35.456  29.165  13.965
51410W        W23725   0.858   3.346   9.958
51411W        W23726   0.905  42.494  12.060
51412W        W23727  33.011   7.237   4.166
51413W        W23728   1.896  10.281   4.226
51414W        W23729  12.680  12.744  13.452
51415W        W23730  23.197  38.873  12.071
51416W        W23731  23.171  32.081   1.774
51417W        W23732   0.365  42.403   4.828
51418W        W23733  33.543  32.425  13.502
51419W        W23734  32.929  31.908   4.151
51420W        W23735  11.779   3.767  12.831
51421W        W23736   2.349  12.658  11.885
51422W        W23737  26.667  28.113  10.970
51423W        W23738  26.587  17.614  12.973
51424W        W23739  16.251   4.860  14.443
51425W        W23740  32.954  34.079  11.937
51426W        W23741  27.486  21.103   3.271
51427W        W23742  39.054   0.426  11.981
51428W        W23743   7.885  25.193  12.516
51429W        W23744  11.622  30.019  10.636
51430W        W23745  27.126  14.687   4.812
51431W        W23746  44.294   0.853   5.094
51432W        W23747   0.367  38.066  11.546
51433W        W23748  25.693  32.913  14.838
51434W        W23749  27.006  35.081   2.382
51435W        W23750  22.526  34.887  13.974
51436W        W23751  15.172  33.947  11.566
51437W        W23752   7.336  15.647  11.104
51438W        W23753  16.110  35.899  13.019
51439W        W23754  30.460  34.959  14.854
51440W        W23755  11.220  14.171  13.950
51441W        W23756  32.569  15.322   0.966
51442W        W23757  22.171  31.057   0.382
51443W        W23758   2.953  33.581  12.964
51444W        W23759  21.602  44.295   2.271
51445W        W23760  10.752  26.991   4.635
51446W        W23761  39.057  26.985   0.468
51447W        W23762  21.702  34.438   4.304
51448W        W23763  28.531  34.982  10.513
51449W        W23764  32.128  25.112  12.878
51450W        W23765  31.631   0.438   3.302
51451W        W23766  17.573  28.485  13.864
51452W        W23767   1.752  21.193  12.384
51453W        W23768   4.402  25.194   2.403
51454W        W23769  33.105  30.937   1.392
51455W        W23770   3.749  15.584  13.814
51456W        W23771   8.170   2.831  14.489
51457W        W23772  33.898  32.926  10.570
51458W        W23773  41.368  22.675  12.921
51459W        W23774   9.364  30.542  11.523
51460W        W23775  34.033   6.733  14.878
51461W        W23776  35.005  34.545   4.784
51462W        W23777  18.220  24.065   0.780
51463W        W23778  28.680  40.891  14.500
51464W        W23779   0.484  26.534   1.240
51465W        W23780  34.029  27.099  14.417
51466W        W23781  37.892  44.279  10.061
51467W        W23782  17.116  11.235   2.263
51468W        W23783   9.694  24.501   1.868
51469W        W23784  13.797  43.457  13.918
51470W        W23785  40.812  18.603  14.768
51471W        W23786   6.891  21.206   0.909
51472W        W23787  27.530   8.729  11.856
51473W        W23788  20.663  24.628   2.366
51474W        W23789  10.873  30.505  11.446
51475W        W23790  18.075  22.060  10.409
51476W        W23791  28.132  38.930  12.890
51477W        W23792  28.607  14.793  14.297
51478W        W23793  28.042  25.031   5.220
51479W        W23794  21.724  16.084  14.399
51480W        W23795   1.332  30.463   1.717
51481W        W23796   8.873  38.961  12.431
51482W        W23797  15.247  28.939   2.183
51483W        W23798   1.783  20.179  12.415
51484W        W23799  29.973   9.719   0.862
51485W        W23800  39.354  34.562   4.812
51486W        W23801  27.518  17.743  11.096
51487W        W23802   0.362  40.417  12.527
51488W        W23803  44.273  30.483  14.446
51489W        W23804  22.636  13.126  10.888
51490W        W23805  24.670  14.314  11.026
51491W        W23806  14.673  39.851   4.622
51492W        W23807   2.820  23.007   4.245
51493W        W23808  31.993  22.579   5.283
51494W        W23809  23.094   1.254  13.439
51495W        W23810  17.249  23.024   3.832
51496W        W23811  12.688  20.605  12.446
51497W        W23812  31.144  10.729   4.771
51498W        W23813  34.438  33.417  13.540
51499W        W23814  28.168  38.068  13.425
51500W        W23815   4.847   3.438  12.579
51501W        W23816   7.707  41.501   2.407
51502W        W23817  24.214  38.074   0.777
51503W        W23818  22.739   9.353   2.690
51504W        W23819   6.766  29.643  12.514
51505W        W23820  41.358  29.934  10.473
51506W        W23821  23.154  36.960  11.531
51507W        W23822  17.731   0.803   4.194
51508W        W23823  36.018  32.524  13.460
51509W        W23824   9.741  44.376   4.667
51510W        W23825  10.853   1.454   1.280
51511W        W23826  14.316  43.843  11.987
51512W        W23827  14.173   1.871  11.041
51513W        W23828  40.997  16.609  11.496
51514W        W23829  39.327   0.974   1.446
51515W        W23830   6.914  25.014   1.908
51516W        W23831  34.110  32.938   1.724
51517W        W23832  39.498  21.253  10.980
51518W        W23833  35.575   8.887  13.538
51519W        W23834  18.633  15.632   4.212
51520W        W23835  29.427  15.721  12.351
51521W        W23836   8.753  16.155   3.656
51522W        W23837  35.452  38.512  13.987
51523W        W23838  35.578  36.478  12.859
51524W        W23839  26.199   9.825  14.301
51525W        W23840   1.424  38.052  14.764
51526W        W23841  19.537  28.060  13.528
51527W        W23842   3.814  27.500   4.613
51528W        W23843  32.958  19.630   1.220
51529W        W23844  15.115   3.730  14.787
51530W        W23845  20.566  13.188   2.820
51531W        W23846  32.066  17.701   4.770
51532W        W23847  38.327  36.981   2.244
51533W        W23848   9.836  20.155   2.823
51534W        W23849  18.195  13.812  11.549
51535W        W23850   4.855  39.890  12.540
51536W        W23851  18.643  37.492   0.966
51537W        W23852  30.087  12.783  11.970
51538W        W23853  33.108  22.641  12.966
51539W        W23854   2.388  28.169   0.279
51540W        W23855  11.629   6.851   3.187
51541W        W23856   1.828   8.669  10.470
51542W        W23857   8.400  21.176   4.281
51543W        W23858  17.633  33.546  13.904
51544W        W23859   4.366  43.397   4.198
51545W        W23860   8.208  36.413   0.421
51546W        W23861  41.985   2.747  12.860
51547W        W23862  16.242   8.698   5.169
51548W        W23863  41.884  12.330   2.759
51549W        W23864   3.817  23.233   3.691
51550W        W23865  12.339  33.522   1.328
51551W        W23866   6.325  17.132  12.526
51552W        W23867  40.936  15.112   2.739
51553W        W23868  44.486  37.450  12.939
51554W        W23869   7.834  10.814  10.500
51555W        W23870   0.774  35.988  12.826
51556W        W23871  20.640   6.918  14.854
51557W        W23872   5.896  37.853   1.921
51558W        W23873  37.853  10.669  14.876
51559W        W23874  15.236   2.797   0.288
51560W        W23875  16.610  40.402   5.109
51561W        W23876   3.767  35.575  11.114
51562W        W23877  44.962  24.131  14.830
51563W        W23878   7.825   1.951   4.622
51564W        W23879  10.373  17.735   3.363
51565W        W23880   4.944  44.448   1.311
51566W        W23881  11.647  33.102   3.774
51567W        W23882  18.227  17.265   2.246
51568W        W23883  33.116  41.956   1.931
51569W        W23884  33.484  17.673  11.961
51570W        W23885  23.644  25.596  14.393
51571W        W23886  27.536   5.331   2.341
51572W        W23887  17.645   0.914   1.385
51573W        W23888  12.664   5.399   4.738
51574W        W23889  18.645  24.017   2.183
51575W        W23890  24.574  29.579  11.463
51576W        W23891  33.587  41.835   1.734
51577W        W23892   6.234   2.468   1.305
51578W        W23893  37.012  22.012   4.703
51579W        W23894  24.221  11.743  10.120
51580W        W23895  43.315  31.059   4.751
51581W        W23896  25.048   7.212   0.937
51582W        W23897  40.428  30.128   4.737
51583W        W23898   1.922  30.975  10.908
51584W        W23899  26.477  32.121  12.528
51585W        W23900   7.298   2.337  14.004
51586W        W23901  13.136  30.983   4.615
51587W        W23902  27.664  33.388   3.273
51588W        W23903  37.407   0.309   4.766
51589W        W23904  11.340  40.992  14.787
51590W        W23905  11.826  22.182   2.259
51591W        W23906  19.558  26.048   0.884
51592W        W23907   9.669  33.482   0.325
51593W        W23908  38.077  26.964   2.271
51594W        W23909   6.427  38.345   4.187
51595W        W23910  44.938  25.214   4.640
51596W        W23911   5.925   8.879   3.738
51597W        W23912  24.480  11.355   0.401
51598W        W23913  17.701  33.960  11.537
51599W        W23914  27.465  27.611  11.039
51600W        W23915  26.564  13.108  12.573
51601W        W23916  43.505  18.643   3.731
51602W        W23917  22.016  39.499  14.389
51603W        W23918  17.715  12.735  10.406
51604W        W23919  32.998  44.930  10.937
51605W        W23920  30.090  26.596  14.970
51606W        W23921  29.645  23.178  12.444
51607W        W23922   0.889  11.207   2.345
51608W        W23923   5.410  38.510   0.347
51609W        W23924  13.113  37.877  14.364
51610W        W23925  17.278   1.916  11.521
51611W        W23926  30.114  40.420   3.294
51612W        W23927  12.154  37.863  13.959
51613W        W23928  26.480  14.175  10.562
51614W        W23929   2.472  43.910   3.847
51615W        W23930  28.621  36.010   4.817
51616W        W23931   5.383  34.955  12.905
51617W        W23932   0.905  37.411   3.309
51618W        W23933  44.354  22.694  14.008
51619W        W23934   7.911  16.134  11.003
51620W        W23935  11.634  18.178   4.326
51621W        W23936  10.728  30.504   4.821
51622W        W23937   7.346   7.203   1.844
51623W        W23938  11.275  11.694   1.809
51624W        W23939  24.681  41.957   3.850
51625W        W23940  17.089  26.683   3.813
51626W        W23941  26.620  22.100   1.364
51627W        W23942   4.940  15.182  11.397
51628W        W23943   4.221  28.184  10.551
51629W        W23944  26.616  17.121   1.384
51630W        W23945  42.367  38.391   1.295
51631W        W23946  33.537   0.424  12.976
51632W        W23947  30.496  42.391  13.479
51633W        W23948  30.601   1.280  12.544
51634W        W23949  11.335  10.719   3.846
51635W        W23950   4.868  28.960  11.603
51636W        W23951  23.020  26.000  11.407
51637W        W23952  16.569  42.806   3.773
51638W        W23953  23.219  25.574  11.109
51639W        W23954   3.394  26.173  14.848
51640W        W23955  18.560  24.000   1.392
51641W        W23956  14.827  23.037  10.527
51642W        W23957  33.414   2.883  13.998
51643W        W23958  26.513  28.044  11.545
51644W        W23959   5.815  25.212   3.278
51645W        W23960  24.119  18.148   1.707
51646W        W23961  14.705  44.004   3.791
51647W        W23962  37.997  12.783  10.477
51648W        W23963  41.888  25.124   2.825
51649W        W23964  17.114  26.586   3.315
51650W        W23965  32.548  35.441  12.833
51651W        W23966   7.814  26.690  10.626
51652W        W23967  22.649  39.987  14.490
51653W        W23968  24.988  41.920   4.810
51654W        W23969  12.190  41.890  12.491
51655W        W23970  12.185  40.414  13.401
51656W        W23971   3.262  19.130  13.864
51657W        W23972  37.547  34.025   4.282
51658W        W23973  20.272  18.234   1.443
51659W        W23974  34.468  14.687  14.842
51660W        W23975  23.724  25.022   1.778
51661W        W23976  42.933  25.603   3.804
51662W        W23977  14.750  39.376   2.201
51663W        W23978  11.689   0.954  14.986
51664W        W23979  44.959  13.782  13.989
51665W        W23980  25.683  20.223   1.322
51666W        W23981  44.828  38.999   4.236
51667W        W23982  35.995  15.711   2.363
51668W        W23983   8.883  28.967   4.792
51669W        W23984   5.213  38.978  14.435
51670W        W23985  35.508  38.507   4.713
51671W        W23986  39.898   6.397  13.028
51672W        W23987  41.815  26.512   3.337
51673W        W23988  17.279  15.259   4.736
51674W        W23989  36.491  13.284   1.791
51675W        W23990  23.183   4.369  10.578
51676W        W23991  39.830  42.869   0.471
51677W        W23992  30.958  19.585  14.422
51678W        W23993   6.267  22.649  11.043
51679W        W23994  16.686  39.376  14.835
51680W        W23995  38.564  14.261  10.494
51681W        W23996  28.503  31.559   3.336
51682W        W23997   7.302  42.973  11.965
51683W        W23998  36.084  20.029   1.411
51684W        W23999  18.606  25.058   3.832
51685W        W24000   1.439  26.090  12.978
51686W        W24001   4.701  34.918  10.936
51687W        W24002  30.599  28.014  14.404
51688W        W24003  21.049  26.516  13.356
51689W        W24004  26.629  22.717   2.183
51690W        W24005  44.917  17.719  12.866
51691W        W24006  21.657  35.030   1.266
51692W        W24007  21.580   6.329  11.429
51693W        W24008  11.187  22.555  13.534
51694W        W24009  34.104  37.473  12.996
51695W        W24010  12.843  43.923   1.876
51696W        W24011  24.985  38.018  13.825
51697W        W24012  22.012  13.707  12.029
51698W        W24013   9.362  39.825   1.334
51699W        W24014  13.733  38.394  12.883
51700W        W24015  11.312   5.224  10.431
51701W        W24016  20.687  27.966   4.118
51702W        W24017  38.867   2.767  13.932
51703W        W24018  42.896  25.594   0.427
51704W        W24019  12.124  30.623  10.988
51705W        W24020  15.256  27.505  10.950
51706W        W24021  40.392  18.133   5.280
51707W        W24022   1.255  13.259   2.698
51708W        W24023  17.688  42.484   1.309
51709W        W24024  24.630  13.156   4.647
51710W        W24025  30.484  18.755  11.072
51711W        W24026  18.173  24.535   2.250
51712W        W24027  20.176   9.299   1.302
51713W        W24028   0.426   9.657  14.872
51714W        W24029  18.630  39.373   0.356
51715W        W24030  15.265  38.512  14.765
51716W        W24031   6.370  12.764   5.214
51717W        W24032  13.743  18.661  12.363
51718W        W24033  41.488  41.033  12.935
51719W        W24034  22.580  18.188  11.553
51720W        W24035   3.223  27.468   2.817
51721W        W24036  40.959   2.446  14.820
51722W        W24037  17.297  39.532  10.433
51723W        W24038  24.226   0.249  10.435
51724W        W24039  20.061  26.617  12.365
51725W        W24040  27.093  40.335  11.425
51726W        W24041   4.419   5.841  11.397
51727W        W24042  21.588  23.099  13.374
51728W        W24043  12.352   0.418   4.605
51729W        W24044   7.856   9.174  12.494
51730W        W24045   1.419  10.366   5.092
51731W        W24046  44.303   8.675  12.906
51732W        W24047   6.248  31.591  13.344
51733W        W24048  21.710  35.581   2.402
51734W        W24049  17.634  24.221  14.813
51735W        W24050   6.260  10.378  13.039
51736W        W24051  21.709  23.217  11.457
51737W        W24052   8.796  23.518  10.587
51738W        W24053  35.586  15.121   1.852
51739W        W24054  13.807   2.304  14.316
51740W        W24055  43.860  11.279   1.324
51741W        W24056   2.904  23.120  14.974
51742W        W24057   7.840  33.015   2.862
51743W        W24058   6.344   3.780   4.727
51744W        W24059   9.800  22.669   0.867
51745W        W24060  19.141  44.292  14.878
51746W        W24061   2.751  38.006  14.857
51747W        W24062  33.496  13.271  11.568
51748W        W24063  20.736  10.764   0.385
51749W        W24064  26.150  18.199   4.807
51750W        W24065  27.166  24.683  11.858
51751W        W24066  15.632  22.142   0.267
51752W        W24067  26.653  35.556  11.955
51753W        W24068   7.391  42.481   1.427
51754W        W24069  25.000  29.479   2.216
51755W        W24070  24.676  21.062   3.165
51756W        W24071  14.719  26.963   2.324
51757W        W24072   8.778  10.833   3.803
51758W        W24073  24.148  35.904  10.614
51759W        W24074  20.706  13.799   0.833
51760W        W24075  33.397   8.730   3.868
51761W        W24076   8.277  10.664  13.053
51762W        W24077  11.324  13.163   1.272
51763W        W24078  40.012  30.158  11.491
51764W        W24079  31.936  11.852   2.832
51765W        W24080   8.782  26.560   2.356
51766W        W24081  42.518  24.533   0.903
51767W        W24082   4.875  16.581  12.999
51768W        W24083  13.635  21.736  13.441
51769W        W24084  30.522  15.259   4.303
51770W        W24085  22.081  19.079   2.406
51771W        W24086   6.679  12.329   0.286
51772W        W24087  44.414  41.328   2.331
51773W        W24088  18.209  44.402   4.158
51774W        W24089  35.894  36.434   0.764
51775W        W24090   9.362  43.898  12.576
51776W        W24091   8.172   4.926   2.304
51777W        W24092   0.893  13.683   4.216
51778W        W24093  36.383  32.887  13.533
51779W        W24094  22.208  21.599  12.478
51780W        W24095   6.851  13.176   2.825
51781W        W24096  40.035  20.594  10.985
51782W        W24097  32.620   2.268  13.048
51783W        W24098   5.220   0.412   1.371
51784W        W24099  36.911  31.027  10.625
51785W        W24100  36.961  35.937  13.059
51786W        W24101   4.792  20.056   1.406
51787W        W24102  18.226  12.710  11.548
51788W        W24103  26.070  41.338   1.774
51789W        W24104  33.876   0.416  14.503
51790W        W24105  40.531  31.144   2.188
51791W        W24106  17.711   0.407  14.760
51792W        W24107  29.040  11.759  12.056
51793W        W24108  18.548  30.076  12.512
51794W        W24109  40.938   6.295  13.933
51795W        W24110  28.572  26.026   0.271
51796W        W24111  40.382  28.617   3.385
51797W        W24112   4.786  35.566  10.955
51798W        W24113  24.107  16.682   4.804
51799W        W24114  38.983  14.147   0.388
51800W        W24115   2.935  11.283  12.946
51801W        W24116   6.335   6.230  10.943
51802W        W24117   2.419   6.414   5.091
51803W        W24118  25.701  38.999   4.748
51804W        W24119  17.208  21.546  11.983
51805W        W24120  21.095  30.933  12.056
51806W        W24121  39.328  34.992   1.311
51807W        W24122  19.259   5.933   3.349
51808W        W24123  27.964  11.838  14.976
51809W        W24124  25.489  39.371  14.787
51810W        W24125  35.978   7.867   1.382
51811W        W24126   8.851  17.102   1.433
51812W        W24127  33.026   1.857  13.928
51813W        W24128  25.537  23.733  13.060
51814W        W24129  10.800  20.201   2.370
51815W        W24130  37.009  16.291  13.052
51816W        W24131  22.181  40.001   4.735
51817W        W24132   6.304  12.794   0.298
51818W        W24133  28.935   3.943   0.796
51819W        W24134   0.421  13.749  14.358
51820W        W24135  26.476  41.821  14.003
51821W        W24136   1.754  29.611   3.314
51822W        W24137  25.039   0.410  10.983
51823W        W24138  24.638  27.508   1.333
51824W        W24139  22.694  29.454  13.908
51825W        W24140  38.965   7.171  11.477
51826W        W24141  27.170  34.398   5.641
51827W        W24142  35.578  34.073   3.300
51828W        W24143  44.850  25.661   4.195
51829W        W24144  41.406  35.025  14.287
51830W        W24145  10.351  16.624  12.846
51831W        W24146   1.427  14.668   1.421
51832W        W24147  27.586  16.576  12.418
51833W        W24148  27.184  32.416   3.359
51834W        W24149  41.315  25.685   4.218
51835W        W24150  13.767  23.033   2.178
51836W        W24151  12.124  34.462  11.547
51837W        W24152  30.618  19.256  14.325
51838W        W24153  32.636  44.456   2.827
51839W        W24154  27.170  16.611   4.197
51840W        W24155  25.594  44.328  13.967
51841W        W24156  27.519   5.718   3.838
51842W        W24157  34.488   0.757  13.914
51843W        W24158   2.231  16.195  13.993
51844W        W24159   7.829  11.726  11.399
51845W        W24160  22.714  11.341  10.468
51846W        W24161  27.642  14.614   1.298
51847W        W24162  15.635  13.757  14.776
51848W        W24163  36.363   1.384  10.625
51849W        W24164   1.841  21.050   3.203
51850W        W24165   1.782  43.365  13.930
51851W        W24166   1.370  30.124   0.927
51852W        W24167  38.945   4.920   2.271
51853W        W24168  31.056  16.309   4.721
51854W        W24169  20.074  28.495   4.145
51855W        W24170  44.491   8.220  13.505
51856W        W24171  33.127  35.876   1.411
51857W        W24172  39.479   0.268  11.066
51858W        W24173  40.495  13.107  12.052
51859W        W24174   2.954  14.811   1.811
51860W        W24175  39.327  30.585   3.739
51861W        W24176  15.240  13.736  14.009
51862W        W24177  24.975  22.694  10.959
51863W        W24178  43.397  21.558   1.769
51864W        W24179   7.285   4.774   0.851
51865W        W24180  15.261  25.030   2.891
51866W        W24181  39.998   2.768   0.367
51867W        W24182  18.720  35.550   0.755
51868W        W24183  22.541  40.971  10.063
51869W        W24184  14.221   5.358   2.722
51870W        W24185  12.680  33.906   4.793
51871W        W24186  25.531  33.429  12.951
51872W        W24187  33.911   9.204  10.536
51873W        W24188  29.585  35.458   2.889
51874W        W24189  28.478  24.978  10.484
51875W        W24190  36.513  33.519   3.677
51876W        W24191  19.681  43.308   2.276
51877W        W24192  29.530  12.245  12.514
51878W        W24193  40.967  27.565   2.700
51879W        W24194   8.701   4.288   4.229
51880W        W24195  19.553  21.525   1.326
51881W        W24196  13.322  27.490  14.794
51882W        W24197  33.385  43.830   0.435
51883W        W24198  27.538   0.858   4.722
51884W        W24199  36.584   8.806   4.352
51885W        W24200  17.632   6.737  11.507
51886W        W24201  41.510   2.796  14.866
51887W        W24202   7.801  44.977  11.538
51888W        W24203  41.039   2.890  14.392
51889W        W24204  13.787   5.345  11.957
51890W        W24205   9.734   6.720   1.876
51891W        W24206  32.894  40.366   0.480
51892W        W24207   3.897   9.798   2.869
51893W        W24208  21.541  19.654   0.428
51894W        W24209   1.828  22.209   4.350
51895W        W24210   3.750  37.864   0.802
51896W        W24211  32.580  24.067   3.379
51897W        W24212  42.492   2.286  12.941
51898W        W24213  26.460  12.275   1.710
51899W        W24214  41.937  29.476   5.309
51900W        W24215   4.743  39.003  14.322
51901W        W24216  21.573  43.013  10.945
51902W        W24217  29.955  34.040  14.398
51903W        W24218  18.618  26.596   3.641
51904W        W24219  34.018   1.884  12.859
51905W        W24220   0.764  21.658   2.330
51906W        W24221  42.921   1.816   2.332
51907W        W24222  10.226  37.530   4.249
51908W        W24223  14.695  41.440   5.248
51909W        W24224  17.739  16.278   0.288
51910W        W24225   3.229  36.405   3.866
51911W        W24226   4.803   2.364   4.604
51912W        W24227  23.711  33.516   2.212
51913W        W24228  37.922  44.470   0.937
51914W        W24229  39.052  31.532   4.713
51915W        W24230  21.237   2.273   2.236
51916W        W24231  11.822  44.933   9.995
51917W        W24232   4.700  29.067  14.308
51918W        W24233  36.540  16.634   3.811
51919W        W24234  23.532   2.323  11.510
51920W        W24235   2.399  36.429   0.271
51921W        W24236   6.355  39.987   2.275
51922W        W24237   8.243  15.600  14.775
51923W        W24238  10.238  26.167   3.675
51924W        W24239   1.744  40.312   3.715
51925W        W24240  23.241  30.971  11.584
51926W        W24241   1.897  14.307  12.917
51927W        W24242  19.544   4.215  10.406
51928W        W24243  38.956  33.401  13.051
51929W        W24244  36.521  18.702  13.349
51930W        W24245  42.295  31.930   1.371
51931W        W24246  16.789  23.060   2.762
51932W        W24247  35.488  20.219  14.461
51933W        W24248  27.101  30.416  10.426
51934W        W24249  43.836  20.193   2.397
51935W        W24250  27.559  28.606   0.347
51936W        W24251  16.763   7.274   3.824
51937W        W24252  35.049  21.221   4.208
51938W        W24253  26.496  29.064   1.756
51939W        W24254  34.552  39.329   4.164
51940W        W24255  12.353   0.766  12.037
51941W        W24256  22.132  18.700   1.853
51942W        W24257  23.725   8.817   0.405
51943W        W24258  34.916  24.135  12.081
51944W        W24259   4.739  40.538   1.934
51945W        W24260  38.844  14.260   4.603
51946W        W24261  20.574  30.614  13.476
51947W        W24262  43.979  35.990   1.422
51948W        W24263  14.220  18.121   3.651
51949W        W24264   2.735  22.078   2.197
51950W        W24265  28.670  38.934   9.983
51951W        W24266  12.251  19.193   4.150
51952W        W24267  17.765   5.228  11.099
51953W        W24268  26.094  27.611  12.937
51954W        W24269  37.469  33.913  10.523
51955W        W24270  41.814   3.916  14.772
51956W        W24271  19.162  41.477   0.391
51957W        W24272  34.974  20.626   3.196
51958W        W24273  40.304  14.826  13.333
51959W        W24274  37.948   8.402  11.866
51960W        W24275   3.722  26.614  14.345
51961W        W24276  40.352  34.043  13.862
51962W        W24277  22.561  28.477  12.503
51963W        W24278  14.708  17.561  13.368
51964W        W24279  15.293  37.965   3.360
51965W        W24280  42.972  23.524  11.402
51966W        W24281  25.666  15.660  13.891
51967W        W24282   3.366  44.772   4.627
51968W        W24283  32.544  25.220  11.416
51969W        W24284   4.865  14.277   0.916
51970W        W24285  17.592  34.588  13.437
51971W        W24286  43.834   9.387  14.405
51972W        W24287  24.088   8.763  14.485
51973W        W24288  29.470  39.839   4.780
51974W        W24289  22.564  14.621  11.879
51975W        W24290  33.387   5.319  11.861
51976W        W24291  20.242  31.424  10.629
51977W        W24292  22.643  40.011   0.376
51978W        W24293  32.913  21.236   1.916
51979W        W24294   1.373  25.497  12.064
51980W        W24295  25.664  25.667  14.936
51981W        W24296   8.214  39.932   0.890
51982W        W24297  15.634  15.823  10.926
51983W        W24298  38.046  32.545   4.232
51984W        W24299  43.816  38.393   3.655
51985W        W24300  43.309  24.006   3.315
51986W        W24301  15.609  20.231   1.725
51987W        W24302  35.878  44.344   2.332
51988W        W24303  19.196  14.174  10.961
51989W        W24304  14.591  19.747  12.572
51990W        W24305  10.218  33.418  12.511
51991W        W24306  33.926   1.743  11.459
51992W        W24307  20.646  31.522   1.255
51993W        W24308   3.807   9.260   4.672
51994W        W24309   8.243  38.397  13.546
51995W        W24310  29.974  32.398  12.557
51996W        W24311  28.097  24.121  10.437
51997W        W24312   6.815  24.018  14.020
51998W        W24313  26.667  19.272   2.288
51999W        W24314  36.923   1.929  10.918
52000W        W24315  20.740  21.528  13.973
52001W        W24316  14.286   8.827  14.368
52002W        W24317  25.087   1.320   4.702
52003W        W24318   1.780   1.358   2.229
52004W        W24319  36.882   8.709   0.960
52005W        W24320  11.296  21.058   3.632
52006W        W24321  40.318  26.464   3.848
52007W        W24322  15.626  10.780  11.445
52008W        W24323   6.404  32.049  11.502
52009W        W24324   3.772   0.250   0.818
52010W        W24325  38.992  44.408   2.899
52011W        W24326   9.727  33.060   3.168
52012W        W24327  10.650  22.740  14.315
52013W        W24328  35.047  37.982  10.919
52014W        W24329  22.121  14.299  14.815
52015W        W24330   8.742  44.467   0.440
52016W        W24331  17.090  21.140  10.050
52017W        W24332  25.064  34.383   0.406
52018W        W24333  19.212  20.582   4.167
52019W        W24334  40.376  29.151   1.303
52020W        W24335  39.906   1.413   2.313
52021W        W24336  21.092  26.467   0.887
52022W        W24337  17.087   7.710   2.342
52023W        W24338  18.168  35.944   3.648
52024W        W24339  18.115  43.487  11.066
52025W        W24340   4.784  11.342   2.354
52026W        W24341  42.914  12.669  14.808
52027W        W24342  26.691  10.339   1.290
52028W        W24343   4.868  31.418   0.435
52029W        W24344  21.551  42.467  11.993
52030W        W24345  21.020  20.715  11.405
52031W        W24346  15.259   5.402  13.963
52032W        W24347  10.191   6.301  13.487
52033W        W24348  11.329  16.780  13.902
52034W        W24349  30.934  26.016  12.491
52035W        W24350   6.423  23.228   3.794
52036W        W24351  30.937   9.220   4.279
52037W        W24352  22.630  27.070  10.462
52038W        W24353  38.468  29.447  14.922
52039W        W24354  17.262  42.485   3.202
52040W        W24355  24.606  31.510   0.876
52041W        W24356  31.946  12.242   1.251
52042W        W24357  16.301   3.445   2.356
52043W        W24358   2.923  41.381  12.441
52044W        W24359  24.627   8.724  13.497
52045W        W24360  33.452   7.890  10.479
52046W        W24361  34.072  26.631   4.719
52047W        W24362  17.272  10.764   3.836
52048W        W24363  23.728  11.346  11.934
52049W        W24364  27.014   6.317  14.918
52050W        W24365   8.341  17.282   3.170
52051W        W24366  22.730  25.081  13.007
52052W        W24367  20.241  14.707  14.351
52053W        W24368   1.958  25.475   3.356
52054W        W24369  34.926   8.210   2.326
52055W        W24370   6.893  15.820   1.344
52056W        W24371   6.790  11.659   0.797
52057W        W24372  24.689  25.672   0.952
52058W        W24373  24.723  18.546   2.730
52059W        W24374  19.536  28.935   3.845
52060W        W24375  12.843  32.553  11.422
52061W        W24376  34.961  16.811   3.356
52062W        W24377   6.236  13.173   1.796
52063W        W24378  22.152  40.826  11.413
52064W        W24379  19.186   2.471   0.813
52065W        W24380  43.452  21.182   4.774
52066W        W24381  16.788  27.643  13.987
52067W        W24382  14.780   7.764  14.813
52068W        W24383  20.124  42.791   1.303
52069W        W24384   4.789   6.719   3.350
52070W        W24385   1.410  30.071   1.850
52071W        W24386   3.942  18.593  11.975
52072W        W24387  44.363  28.652   2.791
52073W        W24388   3.788   4.422   4.630
52074W        W24389   0.904  27.076   0.853
52075W        W24390  38.913  42.478   3.168
52076W        W24391  23.020   1.766   4.642
52077W        W24392   4.348   8.901   1.358
52078W        W24393  12.237  10.716   3.321
52079W        W24394  38.475  36.368  12.897
52080W        W24395  10.640  42.433   0.355
52081W        W24396   3.861  40.940  12.940
52082W        W24397  29.536  21.043  14.958
52083W        W24398  37.948  29.632   3.153
52084W        W24399   6.392  20.064  12.514
52085W        W24400  41.855  19.108  10.517
52086W        W24401  38.003   2.743   2.353
52087W        W24402  22.606  38.369  12.943
52088W        W24403  28.145  22.155  11.911
52089W        W24404  12.320   1.426  14.888
52090W        W24405  44.333   3.440   2.355
52091W        W24406  40.031  26.182  12.572
52092W        W24407   1.878  35.527   5.643
52093W        W24408   4.220  35.438  13.999
52094W        W24409  10.222   3.356  10.590
52095W        W24410  44.760   1.295   1.351
52096W        W24411  10.790  41.506  10.994
52097W        W24412  11.295  18.217  12.440
52098W        W24413  33.619   1.763   0.464
52099W        W24414  41.510   8.187   2.189
52100W        W24415   5.929  27.630  10.518
52101W        W24416  20.242  11.241  11.109
52102W        W24417  40.548  30.467  13.388
52103W        W24418   0.466  28.495   3.307
52104W        W24419  20.127  32.977  13.467
52105W        W24420  29.005  12.694  11.477
52106W        W24421  42.977  31.410   2.717
52107W        W24422   0.254  17.174  13.876
52108W        W24423  37.941  22.650   0.836
52109W        W24424  32.576  23.054   1.800
52110W        W24425  42.305  15.281   1.238
52111W        W24426  14.709  23.220  12.351
52112W        W24427  33.957  40.854   2.817
52113W        W24428   6.776   4.807   0.784
52114W        W24429  36.043  43.417   0.916
52115W        W24430  39.953   7.713  10.913
52116W        W24431  22.733   0.270   4.277
52117W        W24432  20.555  25.969  12.462
52118W        W24433   4.379  39.062   3.820
52119W        W24434   6.238  25.062  14.310
52120W        W24435  40.429  42.339   1.402
52121W        W24436  24.585  14.692   0.408
52122W        W24437  26.967  11.730   4.270
52123W        W24438  35.430  11.212   3.689
52124W        W24439  35.871  36.905  12.557
52125W        W24440  42.909  11.701  10.593
52126W        W24441  21.117   6.345   3.861
52127W        W24442  25.975  43.976   3.291
52128W        W24443  24.185   1.376   2.871
52129W        W24444   0.947  30.413   1.237
52130W        W24445  17.192  37.086  13.036
52131W        W24446   8.225  39.059   2.336
52132W        W24447  14.218  41.845  14.443
52133W        W24448  37.085  35.464   3.366
52134W        W24449  39.398  16.205   2.316
52135W        W24450   8.292  20.616   3.668
52136W        W24451  32.542  31.136   3.739
52137W        W24452  21.052  10.162   3.823
52138W        W24453  27.480  21.521   4.212
52139W        W24454  17.586  39.953  10.482
52140W        W24455  22.217  11.244   4.340
52141W        W24456  31.086  11.756  12.489
52142W        W24457  29.983  13.317   1.451
52143W        W24458  23.593  33.383  10.581
52144W        W24459  40.517  24.135  14.493
52145W        W24460  14.803  20.659  13.896
52146W        W24461  13.317  22.590   3.376
52147W        W24462  25.131   9.876  10.898
52148W        W24463  33.004  38.044  10.625
52149W        W24464  29.029  19.708  11.120
52150W        W24465   3.913  15.315  13.539
52151W        W24466  44.492  17.695   4.784
52152W        W24467  38.333  39.010   4.617
52153W        W24468  15.223  32.064   4.135
52154W        W24469  29.084  36.388  10.431
52155W        W24470  15.668  22.660  13.400
52156W        W24471   1.955  42.015   3.265
52157W        W24472  12.158  28.145  13.431
52158W        W24473  33.922   2.431   0.290
52159W        W24474  31.979  21.513   4.715
52160W        W24475   1.413  21.686   4.256
52161W        W24476  42.527  15.781   0.953
52162W        W24477  19.052  26.595  10.461
52163W        W24478  44.930  44.426  10.517
52164W        W24479  40.943  26.041  12.494
52165W        W24480  13.728  39.991  14.420
52166W        W24481  34.377  40.438   3.685
52167W        W24482  37.550  14.758  14.909
52168W        W24483  22.209   5.419   3.273
52169W        W24484   2.858   8.799   3.153
52170W        W24485  17.714   4.820   0.805
52171W        W24486  18.750  29.433  11.035
52172W        W24487  14.312  21.618   2.205
52173W        W24488  13.618   0.281  10.435
52174W        W24489  14.143   5.870   2.795
52175W        W24490  34.019  32.981   2.775
52176W        W24491  41.338   6.767  14.999
52177W        W24492  31.128   7.186  11.856
52178W        W24493  25.672   0.874  10.061
52179W        W24494  42.906  11.157  11.385
52180W        W24495  19.139   6.356   4.185
52181W        W24496  17.281  10.742   3.234
52182W        W24497  12.293  15.163  14.426
52183W        W24498  19.221   9.360  13.922
52184W        W24499  35.981  33.995  10.953
52185W        W24500  31.627  26.059   4.159
52186W        W24501  24.669  12.342   1.222
52187W        W24502  38.438   8.377   1.769
52188W        W24503  17.801  39.324  12.559
52189W        W24504  41.937  24.021  13.413
52190W        W24505  29.076  18.287  12.415
52191W        W24506   7.862  26.003   4.181
52192W        W24507   7.852  41.020   4.687
52193W        W24508  11.841  42.469  12.028
52194W        W24509  37.573   5.242   4.798
52195W        W24510  38.556  13.111  14.394
52196W        W24511  30.514  13.637  10.940
52197W        W24512  10.797   2.344   1.851
52198W        W24513  27.184  35.371   4.157
52199W        W24514  37.868  12.818  14.926
52200W        W24515  24.118  24.156   4.338
52201W        W24516  33.036  39.828   0.281
52202W        W24517  16.269  14.268  10.516
52203W        W24518  26.135   8.755  12.457
52204W        W24519  13.709  23.100   3.277
52205W        W24520  21.529  24.548   2.769
52206W        W24521   8.764  39.895  12.450
52207W        W24522   5.379  40.053  10.405
52208W        W24523  39.990  30.651   1.738
52209W        W24524  21.168  40.421  13.947
52210W        W24525  14.674  17.743  11.958
52211W        W24526  22.589  15.644  13.979
52212W        W24527  25.502   3.745   2.834
52213W        W24528  37.370  44.438   2.405
52214W        W24529  36.394  18.254  12.078
52215W        W24530  44.409  32.522  14.958
52216W        W24531  12.799   2.772  10.935
52217W        W24532  41.445  20.139   0.323
52218W        W24533  35.902  30.105  10.449
52219W        W24534  41.503  35.516   4.286
52220W        W24535   3.436  38.440  14.479
52221W        W24536  12.313  32.480  14.815
52222W        W24537  41.950   7.271  12.040
52223W        W24538  26.625  44.484  10.630
52224W        W24539  39.535  31.514  14.447
52225W        W24540   9.650  36.032  11.112
52226W        W24541  16.771   1.427  14.431
52227W        W24542  24.088  30.419  11.458
52228W        W24543  24.637  42.779   2.722
52229W        W24544  42.011  26.617   0.918
52230W        W24545  18.065  24.149  12.873
52231W        W24546   2.459  22.075  12.506
52232W        W24547  34.473  15.812   2.267
52233W        W24548  13.613  14.194  12.496
52234W        W24549  20.754  10.843   2.343
52235W        W24550  36.437  24.040  13.849
52236W        W24551   1.444  26.533   4.759
52237W        W24552  35.062   7.276  11.464
52238W        W24553  42.778  16.757  13.957
52239W        W24554  14.159  36.395   4.682
52240W        W24555  28.499  44.895   2.713
52241W        W24556   7.280  29.532  11.454
52242W        W24557  35.531   1.735  13.500
52243W        W24558  37.859  36.953  10.960
52244W        W24559  30.511  21.638  11.418
52245W        W24560  30.932   1.810  13.388
52246W        W24561  27.546  11.220   3.727
52247W        W24562  28.073  26.104  14.937
52248W        W24563  31.124   5.211   3.736
52249W        W24564  13.345   4.407   1.928
52250W        W24565   2.398  28.444   0.948
52251W        W24566  36.976  43.302  11.521
52252W        W24567  32.609  42.342   0.420
52253W        W24568   8.742   6.190   1.886
52254W        W24569  10.374   5.739   3.257
52255W        W24570  16.623  15.089   1.237
52256W        W24571  12.146  17.136  13.405
52257W        W24572  38.003   0.267  14.825
52258W        W24573   6.253   6.763  14.400
52259W        W24574  23.124  18.739   5.681
52260W        W24575   2.309  12.348  10.009
52261W        W24576  17.138  29.941  11.936
52262W        W24577   4.362  12.681   1.296
52263W        W24578  41.502  39.976  10.634
52264W        W24579   2.879   3.307   4.748
52265W        W24580  29.579  29.951  14.301
52266W        W24581  41.495  27.519  13.027
52267W        W24582   8.862  29.984  11.909
52268W        W24583   9.291  41.801   2.695
52269W        W24584  11.208  28.670  14.385
52270W        W24585  36.948  16.568  12.850
52271W        W24586  38.478  27.594  12.878
52272W        W24587  44.474   1.953   0.329
52273W        W24588  18.679   7.394  13.001
52274W        W24589  13.145  31.118   3.295
52275W        W24590   6.254   6.272   0.880
52276W        W24591  14.252  14.154  10.637
52277W        W24592  32.529  12.255  10.571
52278W        W24593  30.476  20.183   1.874
52279W        W24594   7.252   9.814   1.434
52280W        W24595  32.095  38.037   0.789
52281W        W24596   9.279   5.783   0.862
52282W        W24597  43.834  18.215   3.150
52283W        W24598  12.216  30.966   0.470
52284W        W24599  27.466  33.520   1.811
52285W        W24600  23.126  42.505   4.144
52286W        W24601  38.517  25.539   9.468
52287W        W24602  20.668  35.027   2.723
52288W        W24603  18.181  24.525   4.787
52289W        W24604  37.380  15.305  10.582
52290W        W24605   8.689  39.012   5.314
52291W        W24606  14.138  29.649   0.784
52292W        W24607  44.322  24.569  12.534
52293W        W24608  32.023  40.849   1.856
52294W        W24609  30.490  11.865   0.270
52295W        W24610  12.847  20.556  10.511
52296W        W24611  37.518  37.987  14.351
52297W        W24612  19.284  40.493  11.094
52298W        W24613  32.491  28.153  14.384
52299W        W24614   4.266  17.156  12.472
52300W        W24615  13.111  14.684   4.250
52301W        W24616  21.056  16.276  11.961
52302W        W24617  33.472  32.899  13.829
52303W        W24618   7.792  38.845  10.432
52304W        W24619  32.981  27.018  13.038
52305W        W24620  38.842  40.393  10.450
52306W        W24621  13.670  25.156  13.974
52307W        W24622  15.268   8.169   0.818
52308W        W24623  31.057  43.005   3.827
52309W        W24624  38.379  17.274  12.425
52310W        W24625  19.659  18.232  13.027
52311W        W24626  12.315  11.358  14.447
52312W        W24627  31.064  32.091   4.123
52313W        W24628  14.709   9.395   0.465
52314W        W24629  17.783  38.444  12.404
52315W        W24630  39.322  22.185  13.547
52316W        W24631  29.984  11.756   1.402
52317W        W24632  24.527   7.681   1.356
52318W        W24633  16.572  10.151  12.553
52319W        W24634   5.864  18.768   1.792
52320W        W24635  29.037  32.061   3.190
52321W        W24636  38.888  43.432   4.763
52322W        W24637  32.062   3.760  12.410
52323W        W24638   8.897  12.121  11.548
52324W        W24639  13.167  10.766   1.362
52325W        W24640   3.867  37.855  11.401
52326W        W24641  22.667  15.177  14.361
52327W        W24642  36.016  35.859  11.948
52328W        W24643  27.020  33.103  11.979
52329W        W24644  27.628  10.701   4.331
52330W        W24645  26.983  31.517  12.563
52331W        W24646   1.450  39.406   2.395
52332W        W24647   6.214  22.656  11.938
52333W        W24648   5.241  15.713  12.394
52334W        W24649  28.560  33.124   1.331
52335W        W24650   8.764  14.714  14.796
52336W        W24651  35.973  40.415  11.042
52337W        W24652  22.551   0.354   0.841
52338W        W24653  14.283  40.316   1.764
52339W        W24654  42.779  44.830   2.712
52340W        W24655  17.673  26.059  14.004
52341W        W24656  41.889  34.034   2.734
52342W        W24657  23.680  40.315  12.993
52343W        W24658  35.542  18.550   4.673
52344W        W24659  12.181  12.292   1.261
52345W        W24660  28.472  32.009   9.660
52346W        W24661  14.594   1.478   2.212
52347W        W24662   8.704  12.621  14.419
52348W        W24663  44.466  12.135  11.914
52349W        W24664  23.587  35.483   2.773
52350W        W24665  33.127   6.311   0.410
52351W        W24666  17.761   7.785   4.289
52352W        W24667  23.182   1.860  11.418
52353W        W24668   8.672   6.372   1.438
52354W        W24669  21.610  17.640   4.647
52355W        W24670  35.060  38.963   0.467
52356W        W24671  25.621  22.698   0.355
52357W        W24672  21.635   7.775  10.445
52358W        W24673  26.659  37.441  10.454
52359W        W24674  14.740  32.481   0.740
52360W        W24675  16.659  31.950  13.548
52361W        W24676  26.649   9.833   3.632
52362W        W24677  22.561  20.704  13.997
52363W        W24678  15.154   0.813  10.476
52364W        W24679  10.336  40.811  12.095
52365W        W24680   8.758  14.604   4.176
52366W        W24681  30.974   5.904   4.121
52367W        W24682  22.537  13.327  12.875
52368W        W24683   2.854  17.119  14.017
52369W        W24684  34.905  44.890   4.682
52370W        W24685  43.830  36.983   4.195
52371W        W24686   1.481  21.163   4.705
52372W        W24687  39.878  36.397  14.300
52373W        W24688   4.708  21.018   3.381
52374W        W24689  30.066   1.939  14.470
52375W        W24690  42.859  31.994  14.822
52376W        W24691  43.449   7.197   2.783
52377W        W24692  33.389  14.135   3.848
52378W        W24693  21.518  43.018  13.032
52379W        W24694  10.367   1.840  12.461
52380W        W24695   7.817  22.206   0.402
52381W        W24696  14.176  41.430  13.418
52382W        W24697  19.266  33.440  12.088
52383W        W24698  37.560  33.065   0.913
52384W        W24699  44.962  38.890   0.766
52385W        W24700  44.331   3.348   3.218
52386W        W24701   0.374  33.479  10.441
52387W        W24702  34.392   9.155   3.841
52388W        W24703  37.904  36.457   0.243
52389W        W24704  17.103  18.216  11.417
52390W        W24705  27.964  38.995  14.817
52391W        W24706   1.316   5.320  11.047
52392W        W24707   6.730   6.236   4.194
52393W        W24708  13.111  10.734   3.673
52394W        W24709  12.203  19.574  14.913
52395W        W24710  33.524  30.450  12.458
52396W        W24711  34.563   9.153  11.039
52397W        W24712  41.955  13.834  14.418
52398W        W24713  33.568  28.485  12.896
52399W        W24714  19.192  44.794   2.316
52400W        W24715  37.400  13.804  13.325
52401W        W24716   9.751  31.516   0.805
52402W        W24717  24.605  31.626   0.420
52403W        W24718  26.516   7.309   2.682
52404W        W24719  43.410  26.650  14.857
52405W        W24720  29.173  21.239  12.071
52406W        W24721  21.688  25.521   3.311
52407W        W24722  37.960  19.137   4.788
52408W        W24723  29.023   1.301   2.378
52409W        W24724   2.387  38.536   1.402
52410W        W24725  24.643  12.804  13.878
52411W        W24726  41.461  28.122   2.326
52412W        W24727  21.596  30.507   4.719
52413W        W24728  33.439  18.703  11.097
52414W        W24729  22.120   1.378   1.314
52415W        W24730  30.080   1.824   2.232
52416W        W24731  11.171  16.808   3.334
52417W        W24732  24.487  29.484  14.832
52418W        W24733  21.165  33.027  14.899
52419W        W24734  26.608  44.265  12.876
52420W        W24735   8.194   8.369  12.990
52421W        W24736  15.140  18.617  12.023
52422W        W24737   7.779  34.992   0.775
52423W        W24738  23.685  13.603  11.937
52424W        W24739  39.534  12.628  13.469
52425W        W24740  41.926  40.431   3.734
52426W        W24741  15.752  34.019   4.157
52427W        W24742  15.679  11.698   1.857
52428W        W24743   1.757  27.652   4.777
52429W        W24744   2.453  16.725   3.649
52430W        W24745  12.228   6.850  10.407
52431W        W24746  29.137   3.401  11.595
52432W        W24747  13.279   7.904  12.373
52433W        W24748  13.215   0.968   0.402
52434W        W24749   2.316  34.429   0.948
52435W        W24750  19.642  24.015  12.093
52436W        W24751  20.028   5.208   0.773
52437W        W24752  23.635  22.210   9.988
52438W        W24753  15.813  12.694  14.293
52439W        W24754  16.316   6.848  11.435
52440W        W24755  25.112  23.723   2.700
52441W        W24756  29.585  14.648   4.726
52442W        W24757  35.565  35.856   4.337
52443W        W24758  43.334  32.412   3.245
52444W        W24759   4.852   8.751  13.531
52445W        W24760  40.487  35.537   3.731
52446W        W24761  42.284   8.772  12.515
52447W        W24762  22.711  21.612   0.257
52448W        W24763  23.595  27.571   1.765
52449W        W24764  12.665  34.568  11.603
52450W        W24765  27.070  39.441  10.944
52451W        W24766   4.845  36.073   2.323
52452W        W24767   5.861  15.199   2.205
52453W        W24768  24.204  30.484  12.551
52454W        W24769  37.405  44.788  11.952
52455W        W24770  42.285  43.877   2.740
52456W        W24771  31.005  22.169  13.913
52457W        W24772  40.919  25.094   0.317
52458W        W24773  28.940  22.537   1.267
52459W        W24774  25.172  26.680  10.437
52460W        W24775  40.358  23.017  11.611
52461W        W24776  22.064  39.359  14.870
52462W        W24777  22.507  37.006  11.606
52463W        W24778  37.369  10.368   4.714
52464W        W24779  26.644  17.612   1.228
52465W        W24780  26.614  41.988   4.620
52466W        W24781   5.327  26.162  13.799
52467W        W24782   8.845  21.648  11.491
52468W        W24783   3.402  37.882   4.838
52469W        W24784  26.084   7.216   4.784
52470W        W24785  14.338  11.266  12.840
52471W        W24786  22.039  28.053  11.578
52472W        W24787  17.772  27.013   4.158
52473W        W24788   8.823  17.741   3.794
52474W        W24789  18.635  25.493   1.741
52475W        W24790   1.852  33.929   3.731
52476W        W24791   1.271  41.857  14.473
52477W        W24792  26.976  11.251   1.451
52478W        W24793   6.772   8.874   3.299
52479W        W24794  44.434  13.736  11.507
52480W        W24795  42.838   7.890   2.793
52481W        W24796  44.800   0.931  11.906
52482W        W24797  22.604  21.572   1.418
52483W        W24798  35.854  20.736   0.780
52484W        W24799  30.911  20.729   3.347
52485W        W24800  11.857  36.017   2.393
52486W        W24801   2.417  29.569  12.028
52487W        W24802  13.710  44.381   2.698
52488W        W24803  34.953  10.699  13.801
52489W        W24804  26.983  30.542  14.837
52490W        W24805  12.359  25.009   2.770
52491W        W24806  18.215   0.371  13.925
52492W        W24807   2.900  25.669   3.759
52493W        W24808  11.669  37.559  13.473
52494W        W24809  19.676  38.333  11.968
52495W        W24810  24.486  13.215   3.855
52496W        W24811  19.645  21.026  13.838
52497W        W24812   7.711  22.252   2.764
52498W        W24813  39.017  44.495  11.114
52499W        W24814  18.077   5.239   2.273
52500W        W24815   0.852   6.354  13.453
52501W        W24816  37.971  16.786  10.588
52502W        W24817   4.323  29.602  10.414
52503W        W24818  20.724  39.045  12.927
52504W        W24819  14.322  15.588   2.352
52505W        W24820  18.068  30.556  12.918
52506W        W24821  16.171   4.933   3.638
52507W        W24822  27.108  10.703  13.394
52508W        W24823   3.804   3.774   4.800
52509W        W24824   6.266  42.502   0.870
52510W        W24825   8.290  27.543  10.528
52511W        W24826  25.068  28.457   1.229
52512W        W24827  16.623  27.993  10.142
52513W        W24828  41.875   2.348   0.430
52514W        W24829   5.892  43.832  11.434
52515W        W24830   6.697  23.137   4.617
52516W        W24831  27.157   5.755   0.773
52517W        W24832  10.671  42.939  10.604
52518W        W24833   7.684  24.581  11.059
52519W        W24834   9.794  37.545   2.352
52520W        W24835  21.618  25.129   4.173
52521W        W24836  19.267  25.536   1.699
52522W        W24837  40.976  29.162  13.801
52523W        W24838   3.387  24.580  12.437
52524W        W24839  19.246  32.997  13.386
52525W        W24840   9.175   5.297  10.523
52526W        W24841  35.565   5.747  13.314
52527W        W24842  35.597  26.550  11.055
52528W        W24843  35.379   2.726  14.335
52529W        W24844  24.556  18.737   0.818
52530W        W24845  22.525  13.254   1.309
52531W        W24846   4.833  27.144   0.478
52532W        W24847  16.803  16.639   1.286
52533W        W24848  33.430   8.208   1.837
52534W        W24849   9.306  35.481   3.339
52535W        W24850  15.304  33.047   4.815
52536W        W24851  18.055  24.724   1.818
52537W        W24852  27.553   0.332  11.114
52538W        W24853   2.359  40.312   2.334
52539W        W24854  23.109   9.775  13.372
52540W        W24855  30.647  43.515  14.900
52541W        W24856  36.060   7.278   4.632
52542W        W24857  19.636  15.176  10.896
52543W        W24858   1.860  37.390  14.776
52544W        W24859  23.063   0.808   1.899
52545W        W24860  17.230   7.836  14.017
52546W        W24861   3.337  30.091  12.092
52547W        W24862  10.658  10.354   4.165
52548W        W24863  33.550  18.624  12.562
52549W        W24864   9.188  16.637  11.511
52550W        W24865   5.233   0.477  11.461
52551W        W24866  18.067  36.469   1.331
52552W        W24867  28.019  20.568   3.702
52553W        W24868  25.550  15.690   2.284
52554W        W24869  39.330  42.893  11.474
52555W        W24870  30.918  28.561  13.958
52556W        W24871  24.148  38.474   1.402
52557W        W24872  37.063   2.962  14.031
52558W        W24873  34.978  25.560  13.414
52559W        W24874  43.355  31.974  14.978
52560W        W24875  18.108  12.646  11.919
52561W        W24876  14.198  44.379   0.415
52562W        W24877  19.141  11.371  10.914
52563W        W24878  44.357  20.126   0.867
52564W        W24879  22.064  19.098   2.733
52565W        W24880  19.214  23.691   2.830
52566W        W24881   4.923  13.289  10.624
52567W        W24882  38.871  15.186  10.893
52568W        W24883  11.196  14.135  14.945
52569W        W24884  12.352   1.402   3.250
52570W        W24885  31.535  39.982   3.368
52571W        W24886  35.040  26.178  13.477
52572W        W24887  35.586   9.662   2.820
52573W        W24888  43.505  16.083   1.694
52574W        W24889  23.160  35.402  10.560
52575W        W24890  35.527  20.187  14.936
52576W        W24891  13.326   8.726   2.805
52577W        W24892  20.552   7.895  13.995
52578W        W24893  43.458  26.638   2.716
52579W        W24894   5.384  24.499   0.733
52580W        W24895  13.111  18.614   1.310
52581W        W24896  13.183  15.322   3.365
52582W        W24897  15.240   3.457  10.892
52583W        W24898  27.541  32.897   5.227
52584W        W24899  24.616  27.574   2.827
52585W        W24900  18.698  31.407   1.320
52586W        W24901  33.511   5.720  11.463
52587W        W24902   6.309  16.809   4.730
52588W        W24903  44.490  43.498  12.011
52589W        W24904  22.110   9.645  14.333
52590W        W24905  17.177  42.017   4.802
52591W        W24906  22.032  16.239  11.114
52592W        W24907  31.029  43.358  13.522
52593W        W24908  12.810  33.432   4.181
52594W        W24909   6.267  43.780   2.799
52595W        W24910  38.459   6.802   4.250
52596W        W24911  11.855   5.757   2.205
52597W        W24912  34.425   2.251  11.528
52598W        W24913  34.039  33.418  13.537
52599W        W24914  40.955   7.872   3.288
52600W        W24915  17.251   1.828  12.011
52601W        W24916   3.433  12.293   4.299
52602W        W24917   6.384  43.967  12.971
52603W        W24918  31.076  44.496   0.296
52604W        W24919  13.681   7.318   2.891
52605W        W24920  18.549   2.930  11.554
52606W        W24921  35.924   8.828   3.161
52607W        W24922   6.869  23.047   2.283
52608W        W24923  16.204  40.870  14.332
52609W        W24924  30.047  24.543  14.992
52610W        W24925  10.194  34.007   4.264
52611W        W24926   7.177   0.839  13.343
52612W        W24927  37.927  39.021   2.714
52613W        W24928  21.229   8.181  11.546
52614W        W24929   4.372  32.110  14.414
52615W        W24930  44.805  10.785   3.723
52616W        W24931  39.014  23.165   9.481
52617W        W24932  28.952   9.670  11.570
52618W        W24933  18.168   1.415  14.967
52619W        W24934   7.407  19.586   4.625
52620W        W24935   2.878  31.517   3.850
52621W        W24936  25.965   3.947   2.705
52622W        W24937  29.488  44.482   2.409
52623W        W24938  41.899  13.119   2.304
52624W        W24939  26.603  22.045  13.537
52625W        W24940   4.241   5.389   1.699
52626W        W24941   9.656  39.863  12.386
52627W        W24942  32.906  28.106   0.289
52628W        W24943  44.280  10.808   3.328
52629W        W24944  28.549  19.776  14.971
52630W        W24945  29.170  31.082   3.707
52631W        W24946   4.312  17.674   1.212
52632W        W24947  22.721  10.281   1.423
52633W        W24948  41.513  37.036  11.911
52634W        W24949  13.322   7.748   1.856
52635W        W24950  11.842  20.031  13.434
52636W        W24951  39.989  33.569  11.930
52637W        W24952  32.510   0.872  14.466
52638W        W24953  21.708  31.013  13.487
52639W        W24954  28.460  27.587   4.187
52640W        W24955  27.495  20.057  11.049
52641W        W24956   0.395  16.197   0.326
52642W        W24957  32.500  34.425  11.075
52643W        W24958  23.121  30.419  11.912
52644W        W24959  21.105  42.933   4.285
52645W        W24960  32.578  37.880  13.987
52646W        W24961  23.708  29.968   4.820
52647W        W24962  24.546   1.264  14.824
52648W        W24963  36.870   7.861  10.942
52649W        W24964  36.533   7.234   4.314
52650W        W24965   6.709  28.115  14.907
52651W        W24966   1.363  34.489  14.340
52652W        W24967  30.625  10.174   2.813
52653W        W24968  24.181  19.724   3.211
52654W        W24969  44.975  18.697   0.250
52655W        W24970  39.510  13.256   3.683
52656W        W24971   3.829  13.295  10.580
52657W        W24972  17.596  14.206   2.842
52658W        W24973  29.137  12.291  11.016
52659W        W24974  31.039  37.029  12.464
52660W        W24975  26.042  36.416  13.543
52661W        W24976  18.150  34.059   3.724
52662W        W24977  14.170   1.872  12.011
52663W        W24978   8.351  26.148   3.632
52664W        W24979   6.868  18.694  13.352
52665W        W24980  23.045  30.535   1.364
52666W        W24981  38.357   2.298  14.461
52667W        W24982  12.283  35.884   3.266
52668W        W24983  18.723  11.157   4.174
52669W        W24984  15.637  13.204   0.347
52670W        W24985  24.575  32.600  14.864
52671W        W24986  37.391  21.730  14.952
52672W        W24987  13.307  20.609  11.500
52673W        W24988  38.436  38.831   1.844
52674W        W24989  12.709   3.296  10.119
52675W        W24990   2.323  27.599   2.369
52676W        W24991  26.483  13.212  14.859
52677W        W24992  40.940  42.981  10.073
52678W        W24993   2.418  24.073  13.986
52679W        W24994  21.072  10.357  12.950
52680W        W24995  42.401  37.907  13.388
52681W        W24996  22.152  16.808   1.352
52682W        W24997  18.637  17.789  12.866
52683W        W24998   9.703  35.904  12.884
52684W        W24999  39.509  39.002   3.707
52685W        W25000   1.385  18.628  11.900
52686W        W25001   5.693  10.216   0.813
52687W        W25002  36.079   3.335   0.459
52688W        W25003   4.357   9.311  10.638
52689W        W25004  43.983  32.478  14.992
52690W        W25005  33.609  38.564   1.315
52691W        W25006   0.285  15.638  11.560
52692W        W25007  16.207  13.189   4.835
52693W        W25008   5.259   0.864  10.534
52694W        W25009  43.488  25.710   4.235
52695W        W25010  17.206   0.770  12.380
52696W        W25011  11.263  20.214   2.228
52697W        W25012  36.917  23.495   5.264
52698W        W25013  32.616  28.482   3.307
52699W        W25014  12.692  44.890   4.245
52700W        W25015  23.034  40.344   0.426
52701W        W25016  38.074  36.971   4.836
52702W        W25017  31.502  10.662  12.954
52703W        W25018   5.913  25.487   0.459
52704W        W25019  21.735  14.226  10.595
52705W        W25020  13.753   0.856  14.882
52706W        W25021  23.034  37.407   0.316
52707W        W25022  26.647  40.797   2.269
52708W        W25023   9.384  27.951  10.504
52709W        W25024  38.039  25.641  10.058
52710W        W25025  37.519   2.355  14.349
52711W        W25026  35.923  19.268  14.299
52712W        W25027  25.186  33.081  11.450
52713W        W25028   6.735  16.812   4.643
52714W        W25029  12.320  22.548  14.780
52715W        W25030  13.334   0.970   1.217
52716W        W25031  41.477  32.080  11.609
52717W        W25032   0.948  16.308  13.345
52718W        W25033  38.466  33.936   1.818
52719W        W25034  11.628  14.683  13.012
52720W        W25035  17.158   9.763   2.197
52721W        W25036   6.387   4.934  13.392
52722W        W25037  25.208   0.301   0.310
52723W        W25038  24.659  31.949  13.361
52724W        W25039  22.056  36.353   1.374
52725W        W25040  22.712  35.934  12.558
52726W        W25041   5.228  26.552  11.561
52727W        W25042   1.857  13.702  13.967
52728W        W25043  31.024  42.466   4.178
52729W        W25044   7.857  24.211  12.009
52730W        W25045  18.153  30.102   4.189
52731W        W25046  41.027  44.863  13.861
52732W        W25047   6.286  23.541   4.173
52733W        W25048  29.457   9.691  11.961
52734W        W25049  24.120  10.768   2.840
52735W        W25050  32.914   5.856  11.550
52736W        W25051  34.434   2.401   4.814
52737W        W25052  41.806  33.088   0.315
52738W        W25053  17.290  35.981   2.329
52739W        W25054  44.402  13.745   1.860
52740W        W25055  38.908   2.422  14.946
52741W        W25056  10.715  37.940   2.712
52742W        W25057  34.401  19.693  12.496
52743W        W25058  11.325  34.018   4.826
52744W        W25059  19.110   9.351   2.824
52745W        W25060  35.507  14.705   2.825
52746W        W25061  15.253   9.352  10.415
52747W        W25062   3.334   5.207   3.747
52748W        W25063  34.405  22.009  10.577
52749W        W25064   3.436  25.669  11.039
52750W        W25065  38.890  12.178  11.584
52751W        W25066  32.139  30.948   0.378
52752W        W25067  43.783  23.223   3.721
52753W        W25068  38.932  18.119  10.445
52754W        W25069  21.592  32.471  13.904
52755W        W25070  19.555  40.038  14.463
52756W        W25071  36.506  36.472  14.285
52757W        W25072  42.439  39.915   1.772
52758W        W25073  38.373  21.529  13.048
52759W        W25074  17.633  15.618   0.770
52760W        W25075  32.916  40.846  12.886
52761W        W25076  32.028   7.838  13.436
52762W        W25077  29.918  31.631   1.443
52763W        W25078   9.766  38.021  13.363
52764W        W25079  24.207  44.416  13.041
52765W        W25080  39.059   8.233   4.753
52766W        W25081  20.717  40.519  11.964
52767W        W25082  26.476  21.030  10.975
52768W        W25083  28.529  36.951   2.735
52769W        W25084  18.687  22.745  11.879
52770W        W25085  32.398  17.769  14.792
52771W        W25086   0.823  35.949  12.023
52772W        W25087   6.776  27.612  14.288
52773W        W25088  39.359  20.274  10.949
52774W        W25089  12.311  37.020  11.945
52775W        W25090  44.937  22.626   4.247
52776W        W25091  38.355  39.475  14.349
52777W        W25092  15.217  39.480  10.561
52778W        W25093  31.995  37.559  12.458
52779W        W25094  18.092  13.764   1.762
52780W        W25095  42.339   5.864  11.424
52781W        W25096  24.098  28.668  10.497
52782W        W25097  40.510  36.472   4.341
52783W        W25098  28.942   3.357  13.991
52784W        W25099  32.043  24.228  14.438
52785W        W25100  10.379  20.175  12.865
52786W        W25101  36.544   6.787   1.763
52787W        W25102  20.579  35.423  12.833
52788W        W25103  29.110  28.126  13.989
52789W        W25104  18.556  18.236   3.752
52790W        W25105   2.723   8.823   0.789
52791W        W25106  10.145  33.504   2.350
52792W        W25107  28.642  27.077  11.973
52793W        W25108   4.271  33.900   3.190
52794W        W25109   5.848  14.211  13.983
52795W        W25110  22.561   2.469   1.371
52796W        W25111   3.384  39.388  12.360
52797W        W25112  38.558  12.122   3.764
52798W        W25113  13.691  23.132  12.550
52799W        W25114  20.061   4.416   4.126
52800W        W25115  10.764  35.866  11.374
52801W        W25116  20.153  10.384  13.451
52802W        W25117  37.427  25.672   3.813
52803W        W25118  24.112  10.658   3.283
52804W        W25119   2.382  17.564   0.445
52805W        W25120  14.266   8.221   1.806
52806W        W25121  13.192  37.838   4.818
52807W        W25122  11.784  10.142  13.933
52808W        W25123   9.234   6.807   2.378
52809W        W25124  39.870  35.865  12.444
52810W        W25125  17.266   3.938   4.726
52811W        W25126  34.588  19.283   4.760
52812W        W25127  17.199  12.261   1.873
52813W        W25128  42.480  36.420   0.956
52814W        W25129  15.286   4.293  12.025
52815W        W25130  39.503   8.760   1.343
52816W        W25131  24.528   8.658   0.414
52817W        W25132  23.208   5.241   0.349
52818W        W25133  42.978  27.160  11.501
52819W        W25134  40.872   1.793  12.492
52820W        W25135  40.800   5.253  12.997
52821W        W25136  21.715   1.747  13.020
52822W        W25137  21.560   0.451  12.574
52823W        W25138  39.450  38.038   1.349
52824W        W25139  28.576  32.622   3.328
52825W        W25140  13.777  25.080   1.311
52826W        W25141  12.733  24.106   4.183
52827W        W25142   4.761  39.848   2.813
52828W        W25143  14.332  43.367  13.399
52829W        W25144  33.601   6.700  10.579
52830W        W25145  26.071  42.983   0.889
52831W        W25146  14.614  27.515  11.406
52832W        W25147  14.761  30.999   0.254
52833W        W25148  18.055  11.813  11.594
52834W        W25149   3.444  19.751   2.857
52835W        W25150   5.348  20.743   4.621
52836W        W25151   2.372  25.608   1.897
52837W        W25152   9.800  16.304   2.208
52838W        W25153  13.708  22.532  14.298
52839W        W25154  39.958  16.617  11.068
52840W        W25155  43.858   3.362  10.501
52841W        W25156  29.057  37.415  14.862
52842W        W25157  22.231   6.284   4.346
52843W        W25158  13.155  43.497   0.385
52844W        W25159   7.331   4.761   4.308
52845W        W25160  37.899  28.971  12.924
52846W        W25161  38.439   2.401   1.823
52847W        W25162  42.792  20.631   0.271
52848W        W25163  20.050  21.177   2.239
52849W        W25164  11.868   8.685   5.174
52850W        W25165   2.329  44.797   3.853
52851W        W25166  24.995   6.689   1.410
52852W        W25167   8.898  44.498  12.561
52853W        W25168  44.933  20.625  14.936
52854W        W25169  22.061  38.927  12.399
52855W        W25170  11.776   5.852   0.325
52856W        W25171  34.981  25.151   5.166
52857W        W25172  38.888  25.005  13.425
52858W        W25173  20.187   7.873   2.348
52859W        W25174  41.456   5.753  13.442
52860W        W25175  28.516  16.570  14.859
52861W        W25176  34.064  11.309   1.285
52862W        W25177  38.497  37.382  13.538
52863W        W25178  14.287  28.161  13.538
52864W        W25179  27.470  16.112   4.325
52865W        W25180  19.097  17.569   0.794
52866W        W25181  10.354  37.384  13.406
52867W        W25182  14.171  19.224   1.232
52868W        W25183   1.798  26.557  11.944
52869W        W25184  16.637  30.445  14.912
52870W        W25185  33.938   3.345   3.221
52871W        W25186  17.095  31.071  12.370
52872W        W25187   5.349  20.127  11.536
52873W        W25188  31.119  25.987  14.961
52874W        W25189  25.711  16.284  14.402
52875W        W25190  41.904  21.591  12.352
52876W        W25191   0.834  31.503   2.348
52877W        W25192  20.624  37.424   1.876
52878W        W25193  26.559  31.147  10.132
52879W        W25194  14.804  19.565   3.642
52880W        W25195  26.467  17.621   0.347
52881W        W25196  38.415   2.729  13.876
52882W        W25197  17.241  44.333  10.604
52883W        W25198  26.978   1.781   4.616
52884W        W25199  10.202  17.624  11.106
52885W        W25200   0.962   0.344  13.938
52886W        W25201  34.093   9.165   1.296
52887W        W25202  13.707  30.960  14.891
52888W        W25203  41.381   0.308   4.317
52889W        W25204   6.284   9.338   0.947
52890W        W25205  10.777  39.469   3.754
52891W        W25206  34.881  38.942   5.232
52892W        W25207  14.197  35.909  14.501
52893W        W25208  10.318  24.161   3.767
52894W        W25209  41.895  33.392   2.796
52895W        W25210  29.569   9.847  12.437
52896W        W25211   9.331  42.023  14.339
52897W        W25212  21.161   7.834   2.376
52898W        W25213   6.769  12.847  13.316
52899W        W25214   3.935   5.315   0.810
52900W        W25215   9.829  15.621   0.299
52901W        W25216  34.428  38.451  11.030
52902W        W25217  26.058  16.775  14.762
52903W        W25218  28.656  44.454   2.804
52904W        W25219  12.647  31.474  11.861
52905W        W25220  25.644  17.188  14.969
52906W        W25221  43.463  41.912   3.749
52907W        W25222  23.618  39.055   4.303
52908W        W25223   5.372   9.653  11.942
52909W        W25224  44.968  30.461   0.432
52910W        W25225  43.854  27.618   1.258
52911W        W25226  44.762  44.901   4.630
52912W        W25227  13.237   9.393   3.266
52913W        W25228   7.858  23.188   1.343
52914W        W25229  25.197   7.873   3.715
52915W        W25230  24.522  42.972   0.329
52916W        W25231  38.402  20.049   2.805
52917W        W25232  38.862  25.153  12.048
52918W        W25233  33.391  24.558  14.303
52919W        W25234  15.163  26.696  12.421
52920W        W25235   3.279   0.299  13.928
52921W        W25236  12.249  27.571   0.861
52922W        W25237   9.312  36.435   2.719
52923W        W25238  18.592   2.766  14.897
52924W        W25239  28.060  34.492   0.256
52925W        W25240  27.659  29.061   3.149
52926W        W25241   2.753  27.113   0.805
52927W        W25242  41.812  32.053   4.215
52928W        W25243  19.631  43.845   4.223
52929W        W25244   9.271   8.750  11.402
52930W        W25245  18.266  41.462  10.118
52931W        W25246  16.727  18.169  14.373
52932W        W25247  14.308  11.308   3.645
52933W        W25248  14.668  33.486   1.427
52934W        W25249  44.977  35.493  10.540
52935W        W25250  17.154  11.629  14.473
52936W        W25251   3.221  22.623   0.822
52937W        W25252   6.864  15.660  11.069
52938W        W25253   1.754   6.292  10.918
52939W        W25254  31.080  36.952   4.265
52940W        W25255   6.418  24.194   4.211
52941W        W25256  28.675   3.872  11.043
52942W        W25257  15.767  25.071   0.244
52943W        W25258  16.572   1.799  10.588
52944W        W25259  22.512  22.576   4.722
52945W        W25260  18.109  19.043   3.730
52946W        W25261  38.431   8.858  13.321
52947W        W25262  38.917  21.515  13.356
52948W        W25263  29.551  14.807   1.829
52949W        W25264  33.952  38.515   2.408
52950W        W25265  38.077  40.857  12.433
52951W        W25266  39.819  21.051  10.633
52952W        W25267  27.635  32.502   2.842
52953W        W25268  28.047  23.167  12.535
52954W        W25269  21.655  37.934   0.462
52955W        W25270  27.055  10.811   2.376
52956W        W25271   9.846   8.882   0.742
52957W        W25272  18.786  32.558   1.277
52958W        W25273  33.510  17.300  12.418
52959W        W25274  26.466  30.514  10.150
52960W        W25275  30.998  26.472  11.474
52961W        W25276  30.038  36.493   2.757
52962W        W25277  38.006   3.868  12.412
52963W        W25278  22.072  25.219  12.521
52964W        W25279  17.606   7.218  14.759
52965W        W25280  27.097  18.550  11.926
52966W        W25281  33.530   7.266   1.866
52967W        W25282  35.360  42.882  14.806
52968W        W25283  19.726  29.093   4.815
52969W        W25284   8.295  19.700  14.986
52970W        W25285  43.807  37.567   4.641
52971W        W25286   1.281  17.197   2.876
52972W        W25287  27.123  34.383   0.826
52973W        W25288  34.588  34.588  14.003
52974W        W25289  27.083  31.058   9.461
52975W        W25290  21.534   5.347  10.534
52976W        W25291   3.409   6.776   2.181
52977W        W25292  42.474  42.358   1.440
52978W        W25293  13.637  29.981   3.639
52979W        W25294  12.761  22.689  10.458
52980W        W25295   5.892   7.766  14.968
52981W        W25296   6.746  36.075   2.347
52982W        W25297   4.798  35.882  14.792
52983W        W25298   3.399  44.765  12.522
52984W        W25299  15.109   9.191   1.338
52985W        W25300  42.391  32.395  10.888
52986W        W25301  37.020  14.167   1.702
52987W        W25302  30.936  32.482   2.698
52988W        W25303  25.981  18.577   4.646
52989W        W25304  14.208   2.394  12.341
52990W        W25305  11.317  37.921   1.430
52991W        W25306  30.420  13.646   4.216
52992W        W25307  27.526  13.793  10.518
52993W        W25308   1.784  41.414  11.874
52994W        W25309  24.490  21.139   4.610
52995W        W25310  34.919  10.832  12.876
52996W        W25311  22.669  31.152  11.080
52997W        W25312  29.961   8.873   2.686
52998W        W25313  27.655   7.689   0.250
52999W        W25314  37.567  40.440   4.662
53000W        W25315  41.947  33.082   1.216
53001W        W25316   8.726  36.584   1.850
53002W        W25317  18.756  10.792   1.869
53003W        W25318  29.545  14.600  11.393
53004W        W25319   2.877  15.169  14.027
53005W        W25320  31.430   9.333  12.412
53006W        W25321  44.860   2.895  10.508
53007W        W25322  24.699   8.868  12.443
53008W        W25323  38.076  33.448   3.158
53009W        W25324  37.338   1.789   0.448
53010W        W25325   0.412  19.597   4.272
53011W        W25326  13.271  34.005   2.207
53012W        W25327  35.400  32.111   4.301
53013W        W25328  18.775  27.517   3.831
53014W        W25329  22.508  15.669  11.948
53015W        W25330   8.329   0.875  10.440
53016W        W25331  37.438  38.410  13.417
53017W        W25332  40.404  25.554  10.135
53018W        W25333   8.314  43.899  11.500
53019W        W25334   4.716  31.034  12.487
53020W        W25335  37.983  42.353  14.371
53021W        W25336  44.952  25.146   4.289
53022W        W25337   5.871  17.162   2.885
53023W        W25338  35.388  14.740   2.379
53024W        W25339  42.386   0.385  10.510
53025W        W25340  28.120  34.059  10.107
53026W        W25341   2.761  40.388   0.836
53027W        W25342  16.256  38.355   1.306
53028W        W25343  37.408   8.732  11.036
53029W        W25344   4.272  23.130   1.742
53030W        W25345   7.729  17.717  10.502
53031W        W25346  18.619   9.644  12.502
53032W        W25347  34.525  13.599  10.526
53033W        W25348   7.351  12.694   2.390
53034W        W25349  18.639  36.447   3.315
53035W        W25350   3.948   4.779  14.978
53036W        W25351  26.613  44.494  13.487
53037W        W25352  20.106   2.869   4.141
53038W        W25353  30.482  24.127   0.310
53039W        W25354  27.530   8.662   0.963
53040W        W25355  11.705  44.912   0.437
53041W        W25356  25.676  26.008   1.371
53042W        W25357  15.631  14.159   4.608
53043W        W25358  39.480   6.354   0.792
53044W        W25359  35.392  40.523   4.237
53045W        W25360   8.736   4.769   1.742
53046W        W25361  40.935  24.658  13.794
53047W        W25362  13.282   9.335  11.886
53048W        W25363  10.166  38.357  13.044
53049W        W25364  44.911  23.570  12.898
53050W        W25365  33.447  18.111  10.005
53051W        W25366  31.436  40.849  14.298
53052W        W25367  28.068  43.413  14.351
53053W        W25368  30.032   9.306  10.497
53054W        W25369  16.807  34.438  13.923
53055W        W25370  24.229  15.084   1.855
53056W        W25371   0.782  43.827  14.354
53057W        W25372  22.167   9.167  14.796
53058W        W25373  37.549  23.026  12.481
53059W        W25374  11.866  14.157  10.893
53060W        W25375  44.485  10.841   1.432
53061W        W25376  35.982  15.822   3.214
53062W        W25377  14.214   1.423  12.531
53063W        W25378  26.150  41.351   2.900
53064W        W25379  11.810  10.232   3.822
53065W        W25380  21.051  30.041  10.958
53066W        W25381  33.062  13.208   2.720
53067W        W25382  22.060  30.609   1.400
53068W        W25383  23.004  38.938  14.903
53069W        W25384  42.519  43.356  11.507
53070W        W25385  19.614  22.743  14.768
53071W        W25386   8.339  41.845   1.240
53072W        W25387  17.088  30.042   2.346
53073W        W25388  18.676  30.109  11.008
53074W        W25389  19.710  41.870   2.262
53075W        W25390  19.592  19.177   2.355
53076W        W25391  32.123  21.599  11.062
53077W        W25392  35.042  39.847   4.762
53078W        W25393   7.771  37.346  13.972
53079W        W25394  32.419  11.659   3.224
53080W        W25395  34.528  29.111  10.638
53081W        W25396  36.941  19.709   2.357
53082W        W25397  41.969  23.513  13.371
53083W        W25398   1.418  43.458   4.686
53084W        W25399  29.578  20.195  14.423
53085W        W25400  33.936  35.510   1.900
53086W        W25401  28.587  42.483   0.445
53087W        W25402  37.993  33.464  11.093
53088W        W25403  43.441  29.499   1.922
53089W        W25404  37.398  39.432  12.432
53090W        W25405  40.836  15.246  11.488
53091W        W25406  36.492  10.296  11.060
53092W        W25407  16.742   2.415   2.198
53093W        W25408  10.248  11.759   4.163
53094W        W25409   5.869  40.363  13.835
53095W        W25410  22.544  44.927  14.422
53096W        W25411  17.718  21.096  13.329
53097W        W25412  16.794   5.809  14.360
53098W        W25413  22.721  21.624   5.783
53099W        W25414   3.328   4.353  11.406
53100W        W25415  33.509  33.081  12.394
53101W        W25416  18.644  39.055   3.824
53102W        W25417  42.797  14.667   1.232
53103W        W25418  41.326   1.963  14.460
53104W        W25419  29.544  24.040   2.786
53105W        W25420  36.965  25.642  12.023
53106W        W25421   7.861  43.344  11.378
53107W        W25422  24.618  21.211  11.950
53108W        W25423  17.635  27.155  10.571
53109W        W25424   3.326  24.042  13.996
53110W        W25425  43.020  18.200  10.599
53111W        W25426  41.864  37.539   2.343
53112W        W25427   6.412  24.595   2.664
53113W        W25428  13.166  10.180   4.731
53114W        W25429  35.559  23.130   1.723
53115W        W25430   4.921   7.905  10.418
53116W        W25431  21.577   1.430  13.461
53117W        W25432   4.352   6.848   2.719
53118W        W25433  42.869  24.627  11.601
53119W        W25434   3.245   1.743  13.049
53120W        W25435  11.237  26.611  14.468
53121W        W25436  38.852  39.840   0.825
53122W        W25437  11.820  18.072  10.614
53123W        W25438  35.998  27.556   1.702
53124W        W25439  30.590   2.424  12.052
53125W        W25440   6.244  22.641   4.185
53126W        W25441  37.409  42.291  12.503
53127W        W25442  14.792  41.032   4.709
53128W        W25443  11.190  23.035  12.857
53129W        W25444  41.905  13.216  13.510
53130W        W25445   3.249   0.960   5.137
53131W        W25446  23.040  10.333  13.361
53132W        W25447  11.333  14.709   1.226
53133W        W25448  34.511  33.043   4.689
53134W        W25449  35.912  16.581   3.771
53135W        W25450   8.681  11.623  12.938
53136W        W25451  31.629  40.953  11.082
53137W        W25452  40.812  15.205  14.383
53138W        W25453  35.049  43.941  10.896
53139W        W25454  14.824  40.476   1.277
53140W        W25455  31.434  36.517  12.994
53141W        W25456  30.059  12.157  13.023
53142W        W25457  11.348  39.404  11.520
53143W        W25458  16.091  15.129  13.409
53144W        W25459   7.834  32.622  10.963
53145W        W25460   2.237  41.351   2.810
53146W        W25461  30.630   0.793  14.768
53147W        W25462  29.133  27.043   4.761
53148W        W25463  24.492  30.581   1.427
53149W        W25464  33.132  27.601   2.280
53150W        W25465  33.123  38.490   4.185
53151W        W25466  24.692  40.037   4.186
53152W        W25467  19.632  37.345   1.883
53153W        W25468  34.076   5.924   3.706
53154W        W25469  15.261  34.455   1.409
53155W        W25470  33.455  42.982  13.975
53156W        W25471  41.984  18.225   0.303
53157W        W25472  12.694   6.909   4.751
53158W        W25473  43.296  19.627  13.843
53159W        W25474  26.161   2.272   3.157
53160W        W25475  33.049  31.481  14.448
53161W        W25476  40.833  38.371   1.242
53162W        W25477  11.733   3.241   2.691
53163W        W25478  35.912  42.439   0.249
53164W        W25479  37.380  28.028  14.880
53165W        W25480  24.537  40.541   3.319
53166W        W25481  33.421   2.339   3.204
53167W        W25482  18.273   1.330   1.409
53168W        W25483  11.830   8.215  11.041
53169W        W25484  24.655  30.463   4.784
53170W        W25485  17.264  10.752  11.458
53171W        W25486  10.239  44.767   4.606
53172W        W25487  19.217  29.618  14.381
53173W        W25488  42.851   0.835   1.357
53174W        W25489   6.818  31.539   2.757
53175W        W25490  36.925  24.148   5.292
53176W        W25491  42.347  13.296  13.802
53177W        W25492  18.670  23.695   1.359
53178W        W25493  40.506  43.379   1.781
53179W        W25494  28.982   8.224   0.338
53180W        W25495   9.686  11.621  13.326
53181W        W25496  16.190  34.951   0.814
53182W        W25497   3.927  31.616  14.994
53183W        W25498  36.886   0.844   4.675
53184W        W25499  13.834  12.668   0.464
53185W        W25500   6.254  32.109  12.836
53186W        W25501  27.602   2.462  14.020
53187W        W25502   5.291  13.627   2.690
53188W        W25503  31.991  39.027  10.965
53189W        W25504  26.083   9.831  14.843
53190W        W25505  16.806  41.310   3.174
53191W        W25506  19.247  27.520   0.464
53192W        W25507  32.068   4.784  10.894
53193W        W25508  10.229   1.905   4.308
53194W        W25509   6.781   4.395  10.464
53195W        W25510  30.940  29.056   0.482
53196W        W25511   9.769  38.414   4.323
53197W        W25512  13.120  16.632  10.114
53198W        W25513  39.417  12.730   0.390
53199W        W25514  12.311  15.194  13.873
53200W        W25515   3.867  14.783   1.287
53201W        W25516  17.776  27.033  11.375
53202W        W25517  22.561   0.301   3.294
53203W        W25518  24.507  19.157  10.020
53204W        W25519   3.931  15.147   0.918
53205W        W25520  11.353  15.191  13.022
53206W        W25521  24.669  21.098  10.509
53207W        W25522   2.952  35.023   4.604
53208W        W25523  10.711  31.453  10.479
53209W        W25524  15.248  29.528   1.799
53210W        W25525  38.040   6.871   4.154
53211W        W25526  14.201  29.503  12.979
53212W        W25527   9.361  42.965  10.070
53213W        W25528  15.713  17.689  14.368
53214W        W25529  44.392  28.145   0.745
53215W        W25530  29.636  22.070   2.818
53216W        W25531  41.036   4.263  14.819
53217W        W25532  12.287  30.626   0.809
53218W        W25533  28.466   8.742  10.570
53219W        W25534  31.932  11.804   2.247
53220W        W25535  19.243   4.407   1.236
53221W        W25536  14.180  33.431   3.147
53222W        W25537  43.399   5.755  12.551
53223W        W25538   7.194  13.222  10.513
53224W        W25539  32.576  24.615   1.830
53225W        W25540   8.729  15.088  13.355
53226W        W25541  14.203  33.002  12.471
53227W        W25542  24.981  28.460  13.981
53228W        W25543  44.913  25.198  11.078
53229W        W25544  10.235  34.969   1.874
53230W        W25545   5.383  29.096  10.644
53231W        W25546  41.805  23.097  10.439
53232W        W25547  14.742  43.792  10.942
53233W        W25548  25.164  16.177  14.985
53234W        W25549   1.432  42.402  14.456
53235W        W25550  28.156   4.813   2.188
53236W        W25551  31.544  29.034   4.789
53237W        W25552   5.900  22.169  12.541
53238W        W25553  20.708   9.856   4.225
53239W        W25554  30.048  31.408   3.671
53240W        W25555   1.877  25.467  10.966
53241W        W25556  22.180  15.687   2.884
53242W        W25557  33.541  39.463   3.856
53243W        W25558  14.214   7.669  12.418
53244W        W25559  26.199  30.519  10.463
53245W        W25560  16.306  29.469  14.330
53246W        W25561  13.128  36.393  10.622
53247W        W25562  32.010   0.266  12.494
53248W        W25563  44.324  38.369   3.830
53249W        W25564  38.562  22.668  13.969
53250W        W25565   7.725  13.663   3.318
53251W        W25566  34.476   4.294   4.310
53252W        W25567  43.863  31.452   3.160
53253W        W25568  11.240   7.747  11.451
53254W        W25569  25.490  42.809   0.881
53255W        W25570  15.810   7.256  10.588
53256W        W25571  27.078  41.408   2.203
53257W        W25572   5.252  18.218  11.094
53258W        W25573  37.007  26.606   2.356
53259W        W25574  18.165   0.792  14.967
53260W        W25575  40.410  12.345  10.948
53261W        W25576  25.113   4.413   3.330
53262W        W25577  29.604  29.427  13.903
53263W        W25578   6.317  15.631   1.423
53264W        W25579  42.376   2.358   3.754
53265W        W25580  43.992  28.655  12.539
53266W        W25581  38.027  10.774  12.473
53267W        W25582  23.505  23.033  12.966
53268W        W25583  24.597  31.981  11.917
53269W        W25584  27.690  30.997  10.520
53270W        W25585   4.914   2.325  11.034
53271W        W25586  20.690  18.207  13.867
53272W        W25587  25.528  25.121  14.005
53273W        W25588  21.644  19.684  14.826
53274W        W25589  40.328  21.692   4.148
53275W        W25590  34.067  16.608   1.814
53276W        W25591  33.446  11.250  13.349
53277W        W25592  30.061  34.466   1.740
53278W        W25593  28.656  36.954  10.602
53279W        W25594   2.466   9.650   0.825
53280W        W25595  20.668  29.627   3.355
53281W        W25596  28.942  38.521   4.664
53282W        W25597   6.915  41.395   1.350
53283W        W25598   4.320  43.314  10.405
53284W        W25599  18.239  30.580   0.475
53285W        W25600  38.995  20.112  13.383
53286W        W25601  36.980  37.546   1.851
53287W        W25602   8.780  23.102  13.794
53288W        W25603  21.585   9.284   4.758
53289W        W25604  35.993  16.229  14.376
53290W        W25605   7.334  12.830   0.371
53291W        W25606  35.361   8.743   3.321
53292W        W25607  15.089  14.237   2.388
53293W        W25608  14.097  22.561  11.418
53294W        W25609  20.068  27.677   4.744
53295W        W25610  27.994  27.140   0.450
53296W        W25611  36.956  23.527  12.911
53297W        W25612  37.022  25.058   1.410
53298W        W25613  39.314  17.207   4.806
53299W        W25614  12.690  25.533  10.487
53300W        W25615  20.256  14.218   1.288
53301W        W25616  16.667  21.026   1.697
53302W        W25617  32.414  26.992   1.299
53303W        W25618   1.466  18.561   3.367
53304W        W25619   1.426   1.930  14.465
53305W        W25620  21.100  43.905  14.488
53306W        W25621  39.939  37.943  14.415
53307W        W25622  13.328  36.882   0.753
53308W        W25623  41.305  22.537  14.820
53309W        W25624  43.390  18.652  10.454
53310W        W25625  11.179  14.230   0.833
53311W        W25626  39.932  15.817  11.964
53312W        W25627  42.409  40.878   1.838
53313W        W25628   3.937  20.713   2.700
53314W        W25629  28.013  20.579   1.339
53315W        W25630  23.583  29.496   4.710
53316W        W25631  36.372  36.943   4.280
53317W        W25632  20.089  17.651   2.239
53318W        W25633  35.454   5.771  14.029
53319W        W25634  25.175  12.727   3.695
53320W        W25635  10.193  21.544  13.974
53321W        W25636  32.608  21.047  12.894
53322W        W25637   4.384  26.201   1.848
53323W        W25638  18.556  23.592  13.875
53324W        W25639   8.669  18.762  12.930
53325W        W25640  17.771  17.263   1.798
53326W        W25641  10.200  43.952   5.081
53327W        W25642  21.734  27.002   1.822
53328W        W25643   7.796   2.900  13.838
53329W        W25644   2.872   9.213   2.822
53330W        W25645   9.388  34.957  13.487
53331W        W25646  10.669  28.020   4.715
53332W        W25647  18.280  40.497   5.090
53333W        W25648  29.985   3.867   0.387
53334W        W25649  35.594  28.582   3.761
53335W        W25650  13.203  21.258   2.756
53336W        W25651  25.637   9.314   1.738
53337W        W25652   1.957  29.458   4.745
53338W        W25653   1.281  44.805   0.935
53339W        W25654  32.128  32.112   2.833
53340W        W25655  44.804  37.528   4.233
53341W        W25656  11.305  43.807  11.891
53342W        W25657  24.215  38.031  14.345
53343W        W25658  20.541   5.764  13.053
53344W        W25659  39.511  18.135   3.784
53345W        W25660   1.359  37.880   0.379
53346W        W25661  39.061  25.701   1.889
53347W        W25662  25.083   9.749  14.477
53348W        W25663  13.808  37.001  12.088
53349W        W25664   3.868  43.851   1.916
53350W        W25665  25.504  36.483  14.011
53351W        W25666   1.435  22.703   1.855
53352W        W25667   9.202  10.281  12.403
53353W        W25668  22.672  13.818  10.953
53354W        W25669  28.979  13.679   1.284
53355W        W25670  28.100   1.837   4.245
53356W        W25671   5.710  22.585  14.409
53357W        W25672  23.229  40.340   1.408
53358W        W25673   5.287   2.937  11.118
53359W        W25674  25.150  32.549   0.726
53360W        W25675  23.182  30.987   3.633
53361W        W25676  12.647  36.934   2.757
53362W        W25677   4.908  14.629  13.881
53363W        W25678  28.567  16.808   1.893
53364W        W25679  41.984  29.633   2.855
53365W        W25680  26.699  10.173   3.364
53366W        W25681  43.921   9.330  10.917
53367W        W25682  26.069   5.213  11.404
53368W        W25683  29.171  42.424  14.873
53369W        W25684  12.790  30.601   3.252
53370W        W25685   5.766  13.171  13.455
53371W        W25686  37.938  32.133  12.365
53372W        W25687  36.852  23.000  11.065
53373W        W25688  42.882   7.667  14.476
53374W        W25689  10.178  13.245   3.749
53375W        W25690  26.658  32.986   1.312
53376W        W25691  16.711   0.831  11.974
53377W        W25692  12.727   7.722  13.828
53378W        W25693  27.630  28.579  10.531
53379W        W25694  34.993  30.614   4.833
53380W        W25695  38.528   7.697  13.840
53381W        W25696   4.838   1.289   4.741
53382W        W25697  17.712   2.272   3.183
53383W        W25698  21.589  35.595   1.318
53384W        W25699   6.345  34.508  10.506
53385W        W25700   5.273  29.624  14.441
53386W        W25701   8.303  39.033  13.841
53387W        W25702  37.478  38.430  14.959
53388W        W25703  34.575  32.578   0.831
53389W        W25704   5.280   1.952   2.880
53390W        W25705   1.735   1.456  14.346
53391W        W25706  31.506  16.143   4.739
53392W        W25707  15.185   7.738  14.446
53393W        W25708  31.069  15.646  11.885
53394W        W25709  29.061   7.262   2.325
53395W        W25710  32.949  23.121  13.901
53396W        W25711  26.021  16.749   0.280
53397W        W25712  25.129  21.723   2.689
53398W        W25713  36.937  12.661   0.388
53399W        W25714  31.545  34.608   1.793
53400W        W25715  42.918   2.804  14.444
53401W        W25716  42.878  33.902  13.899
53402W        W25717  10.160  11.675   0.420
53403W        W25718  17.739   9.271  11.406
53404W        W25719  29.508  20.696   4.168
53405W        W25720   0.948  13.793  13.432
53406W        W25721  27.128   3.948   9.579
53407W        W25722  17.254  27.070  13.015
53408W        W25723  44.437  34.603  12.540
53409W        W25724  30.056  13.180   1.812
53410W        W25725  37.424  21.587   1.704
53411W        W25726  22.663  12.201  14.281
53412W        W25727  37.029  32.141   3.206
53413W        W25728  19.709   4.871  13.843
53414W        W25729  33.532  27.011   4.123
53415W        W25730   6.907  28.951  11.440
53416W        W25731  12.733  23.575   2.791
53417W        W25732  10.713  26.576  13.462
53418W        W25733  12.791   0.987   4.781
53419W        W25734  41.977  33.466   3.845
53420W        W25735  20.113  18.779   0.792
53421W        W25736  24.199  42.474   2.877
53422W        W25737  31.491   8.816  11.052
53423W        W25738   1.911  19.240  12.969
53424W        W25739  24.073  17.102  13.368
53425W        W25740  39.046  33.534   3.309
53426W        W25741  14.115  31.434  14.900
53427W        W25742  33.480  44.951   3.265
53428W        W25743   0.982   1.296  14.957
53429W        W25744  18.262  30.515  12.005
53430W        W25745  16.085  14.718  12.417
53431W        W25746  15.126  21.228  12.386
53432W        W25747  20.566   1.846   1.785
53433W        W25748   7.407   9.356  10.509
53434W        W25749  23.523  38.569  12.986
53435W        W25750  38.030  16.163   0.822
53436W        W25751   6.741   6.904   0.470
53437W        W25752   6.201  37.857   0.898
53438W        W25753   9.887  15.215   4.606
53439W        W25754  36.024   3.392  13.892
53440W        W25755  26.666  19.663   4.602
53441W        W25756  43.296   2.938   4.820
53442W        W25757  21.752  36.064   4.742
53443W        W25758  29.043  23.123   2.746
53444W        W25759   3.340  26.000  11.884
53445W        W25760   8.676   0.814  11.384
53446W        W25761  29.455  43.501   0.793
53447W        W25762  28.591  43.770   4.301
53448W        W25763  29.590  17.714   3.819
53449W        W25764  31.646  40.372   0.873
53450W        W25765   5.316  20.097  13.319
53451W        W25766  34.382  36.041   0.285
53452W        W25767  25.531  38.043  14.811
53453W        W25768  28.567  24.059   2.401
53454W        W25769   9.219  35.108  13.939
53455W        W25770   9.232  38.521  11.383
53456W        W25771  29.147  15.219  14.397
53457W        W25772  16.810   4.814  14.443
53458W        W25773  19.622  35.571  13.810
53459W        W25774  24.019  16.289  13.354
53460W        W25775  40.377  15.256   1.748
53461W        W25776  32.511  36.030   5.100
53462W        W25777  21.705   0.809  10.902
53463W        W25778  36.497   5.705  11.445
53464W        W25779   2.873  44.489   3.151
53465W        W25780  39.897  10.877  10.920
53466W        W25781  21.082  10.794   0.444
53467W        W25782  25.205  10.384   2.366
53468W        W25783  20.595  37.921  11.433
53469W        W25784  34.975   1.969   4.151
53470W        W25785   8.382  15.291  12.051
53471W        W25786  40.001  19.711   0.432
53472W        W25787   4.799  43.003  14.325
53473W        W25788  25.556  32.077   3.296
53474W        W25789  13.262  11.859  12.412
53475W        W25790  17.773  32.420  14.985
53476W        W25791  22.708   4.390   0.379
53477W        W25792  43.928  42.465  14.501
53478W        W25793  44.368  39.462   4.272
53479W        W25794   2.909  40.383  10.591
53480W        W25795  34.568  23.061  13.848
53481W        W25796  15.186  10.847   0.336
53482W        W25797  21.737  22.705   3.192
53483W        W25798  34.949  28.004   9.940
53484W        W25799  42.424  29.644   1.371
53485W        W25800  30.957  15.298  14.828
53486W        W25801   3.920  15.620  12.889
53487W        W25802  13.303  28.972   1.883
53488W        W25803   7.226  17.574  12.465
53489W        W25804  28.486  29.017  14.771
53490W        W25805  14.617  29.154   0.343
53491W        W25806   3.754  16.272   2.671
53492W        W25807  27.585  43.410   2.358
53493W        W25808   6.291  36.013  12.968
53494W        W25809  23.517  25.967  13.510
53495W        W25810   8.370  25.043   3.351
53496W        W25811  11.248  44.500  13.982
53497W        W25812  25.657  34.457   3.696
53498W        W25813  14.310  32.037  11.909
53499W        W25814  20.695  29.123  11.870
53500W        W25815  37.469  31.067  13.463
53501W        W25816   5.392  12.818   1.402
53502W        W25817  39.450  19.606   2.710
53503W        W25818  42.974  19.611   2.372
53504W        W25819  18.730  15.790  10.002
53505W        W25820  40.007  30.437  12.004
53506W        W25821  40.495  40.848  11.968
53507W        W25822  44.853  35.902   1.932
53508W        W25823   8.382  39.546   2.333
53509W        W25824  15.626  37.896  12.055
53510W        W25825  43.505   8.865   3.673
53511W        W25826  29.663  33.517   0.349
53512W        W25827  22.746   7.832   0.842
53513W        W25828  39.840  34.000   3.169
53514W        W25829   9.231  14.131   5.229
53515W        W25830  32.480  42.005  14.975
53516W        W25831  40.809  42.518  11.547
53517W        W25832   0.342  26.631  12.893
53518W        W25833  15.693   2.905  14.769
53519W        W25834  13.843  18.095  11.507
53520W        W25835  16.178   1.402   2.685
53521W        W25836  19.660  12.268  14.937
53522W        W25837  43.378  24.064   0.285
53523W        W25838  16.297  13.235  11.398
53524W        W25839  39.451  11.216   2.737
53525W        W25840  23.562  24.079  11.076
53526W        W25841  14.322   3.444   0.861
53527W        W25842   0.803   0.464  14.877
53528W        W25843  13.158  30.564  10.899
53529W        W25844  24.159  44.280   1.378
53530W        W25845  13.752  13.772  12.923
53531W        W25846  31.934  40.801  12.862
53532W        W25847  40.894  19.045  14.438
53533W        W25848  17.219   8.694   2.274
53534W        W25849  24.149  27.524   0.734
53535W        W25850  35.520  15.209   0.286
53536W        W25851  27.004  17.789  10.993
53537W        W25852  21.737  42.442   1.390
53538W        W25853  33.424  11.744  14.284
53539W        W25854  15.718  19.606  14.432
53540W        W25855   5.706   9.363   2.788
53541W        W25856   6.272  27.029  14.426
53542W        W25857  23.683   3.455   4.196
53543W        W25858  32.393  41.416  12.088
53544W        W25859  18.066  44.360  13.338
53545W        W25860  20.064  28.664  11.891
53546W        W25861  39.500  18.268   1.250
53547W        W25862  17.649  16.304   2.343
53548W        W25863  37.393  40.907  11.036
53549W        W25864  43.854   8.693  10.403
53550W        W25865  26.080  17.698  11.039
53551W        W25866  20.606  19.162   4.605
53552W        W25867  13.146  15.758   5.099
53553W        W25868   7.827  44.345  10.048
53554W        W25869  31.152  10.210   0.439
53555W        W25870  31.527  41.833  11.438
53556W        W25871  12.174  30.155  10.404
53557W        W25872  36.396  32.627   0.961
53558W        W25873  10.147  33.020  14.919
53559W        W25874  17.268  13.270   0.754
53560W        W25875  25.647  18.771  14.425
53561W        W25876  11.349  21.528   4.718
53562W        W25877  41.895   0.912   5.268
53563W        W25878  32.518  10.774  13.848
53564W        W25879  13.689  11.680  12.417
53565W        W25880  16.141  30.565  12.042
53566W        W25881  23.173   4.234  11.904
53567W        W25882  44.860   2.294   0.333
53568W        W25883  38.407  24.542   9.927
53569W        W25884   3.244  25.019   3.713
53570W        W25885  43.363  20.725  10.538
53571W        W25886  34.612   2.311  11.860
53572W        W25887  23.139  10.815   0.900
53573W        W25888  30.992   3.330  12.835
53574W        W25889  18.210  41.386   4.822
53575W        W25890   6.748  37.511   5.259
53576W        W25891  23.630  22.554  11.887
53577W        W25892  43.816  41.514   1.782
53578W        W25893  27.075   5.771  12.880
53579W        W25894  16.715  41.040   2.850
53580W        W25895  28.954  30.097   0.408
53581W        W25896  13.317  30.956  10.632
53582W        W25897  26.097   8.396   1.235
53583W        W25898  29.056  39.478  11.417
53584W        W25899  14.751  40.810  14.760
53585W        W25900  18.730  26.187  12.496
53586W        W25901  35.108  25.498  11.982
53587W        W25902  16.746  40.382   1.420
53588W        W25903  18.142   9.167  10.920
53589W        W25904  16.212   6.215   3.641
53590W        W25905  12.260  24.103  13.923
53591W        W25906  19.070  35.920   0.366
53592W        W25907  31.432   5.773   1.875
53593W        W25908   0.769  22.179  11.592
53594W        W25909  21.543  32.587   4.161
53595W        W25910  15.670   1.425   5.219
53596W        W25911   0.951   1.842   3.267
53597W        W25912  24.014  37.066  14.487
53598W        W25913  21.077  41.364   1.709
53599W        W25914  44.851  18.238   4.784
53600W        W25915  30.601  22.721  13.425
53601W        W25916  41.917  35.897   4.213
53602W        W25917   2.404  38.476  12.074
53603W        W25918  43.876  42.901   2.815
53604W        W25919  25.675   2.885  13.425
53605W        W25920   9.356  43.984  13.909
53606W        W25921  39.030  25.485   3.747
53607W        W25922   9.662  21.531  13.948
53608W        W25923  20.689  32.069  13.962
53609W        W25924  15.241   6.701  13.890
53610W        W25925  36.986   5.839  12.554
53611W        W25926  13.263  42.353   0.399
53612W        W25927  27.669  24.144   0.795
53613W        W25928  12.189  31.146  13.028
53614W        W25929  17.240  30.998   9.455
53615W        W25930  29.065   4.323  11.522
53616W        W25931   3.272  34.602   2.332
53617W        W25932  39.397  31.102  14.815
53618W        W25933  13.833   9.175   4.812
53619W        W25934  40.483  14.204   0.793
53620W        W25935  39.847  16.809  12.457
53621W        W25936  23.663  40.494   0.473
53622W        W25937  30.537  24.002  14.930
53623W        W25938  38.941  26.175   3.721
53624W        W25939   7.325  27.008   3.809
53625W        W25940  39.349  36.922  13.892
53626W        W25941  28.123  28.052   0.900
53627W        W25942  28.991  22.722  14.372
53628W        W25943   5.746  33.969   1.730
53629W        W25944  28.013   4.704   5.305
53630W        W25945  44.295  35.854  13.833
53631W        W25946  35.490   2.412  14.908
53632W        W25947  12.613   9.648  11.987
53633W        W25948  35.897  17.223  12.085
53634W        W25949   0.842  28.089   1.843
53635W        W25950  27.585  38.990  14.452
53636W        W25951   8.313  39.002  11.598
53637W        W25952  43.887  32.112  11.014
53638W        W25953  14.682  20.089   0.355
53639W        W25954  25.531  14.152  13.842
53640W        W25955  26.200  24.013   4.246
53641W        W25956  13.198  26.208  10.639
53642W        W25957  32.519  21.184   3.307
53643W        W25958  29.044  20.266  14.970
53644W        W25959  13.681  41.406  12.493
53645W        W25960  36.025  30.552  14.922
53646W        W25961  31.622  40.904  14.843
53647W        W25962   7.265  36.092   0.932
53648W        W25963  32.917   8.253  10.940
53649W        W25964   0.343  31.415   2.188
53650W        W25965  37.949   1.871   2.206
53651W        W25966  37.394  34.051  10.984
53652W        W25967  44.949  41.530   3.815
53653W        W25968  11.671  19.085   5.259
53654W        W25969  21.215  16.297   0.742
53655W        W25970  24.723  22.534  10.499
53656W        W25971  13.108  23.985  13.915
53657W        W25972  43.463   6.818  11.983
53658W        W25973  35.424  13.346   4.213
53659W        W25974  36.392  24.634   1.312
53660W        W25975  40.366   9.357  12.974
53661W        W25976  21.714  13.779  10.407
53662W        W25977  13.736   4.733  11.921
53663W        W25978  17.633  13.788  10.618
53664W        W25979   1.349  22.178  11.877
53665W        W25980  35.108  18.161   0.866
53666W        W25981  18.767   8.853   2.362
53667W        W25982  17.198  40.534  14.320
53668W        W25983  11.621  23.011  13.387
53669W        W25984  25.175  15.766   3.666
53670W        W25985  14.291  13.656  14.879
53671W        W25986  14.321  43.782   1.837
53672W        W25987  40.863  30.020   1.398
53673W        W25988  28.974  43.319   2.214
53674W        W25989  20.084   2.747   3.793
53675W        W25990  32.126   5.897  11.034
53676W        W25991  24.706  39.459   2.751
53677W        W25992   8.173  31.930   4.322
53678W        W25993  17.261  29.442  13.996
53679W        W25994  15.648  26.133  11.546
53680W        W25995  39.877  43.787  13.501
53681W        W25996  41.335   7.813  13.320
53682W        W25997  42.968  14.705  11.874
53683W        W25998  36.416  29.118   1.703
53684W        W25999  18.766  19.113  13.428
53685W        W26000  44.376  31.577  13.482
53686W        W26001  24.568  18.645  14.442
53687W        W26002  17.275  40.524   4.836
53688W        W26003  22.584  42.953   9.970
53689W        W26004  24.717  14.329   2.755
53690W        W26005  20.035  22.122   2.419
53691W        W26006   3.441  36.089  13.881
53692W        W26007  33.036   4.207   3.650
53693W        W26008   6.388  24.055   1.269
53694W        W26009   9.169  15.122   1.770
53695W        W26010  23.146  19.650  10.549
53696W        W26011  10.358  14.176   3.358
53697W        W26012   2.734  36.394  13.931
53698W        W26013  44.468  16.794  10.058
53699W        W26014  19.088  33.973   0.829
53700W        W26015  19.195  39.447  10.049
53701W        W26016  44.328  11.336   4.636
53702W        W26017   9.867  11.324  13.495
53703W        W26018  38.033  42.299   0.830
53704W        W26019   4.312   1.875   1.273
53705W        W26020  30.620  24.023  13.403
53706W        W26021  20.703  20.539  11.485
53707W        W26022  24.176  16.692   4.301
53708W        W26023  31.079   2.248  12.543
53709W        W26024   6.412  33.036  13.408
53710W        W26025  37.927   8.248  11.519
53711W        W26026   3.349  41.847  10.982
53712W        W26027  13.802   4.287   4.632
53713W        W26028  17.204  41.438   3.646
53714W        W26029  13.171   4.782  14.325
53715W        W26030  18.637  11.796  12.069
53716W        W26031  23.115  44.403  12.509
53717W        W26032  24.013  22.701  11.472
53718W        W26033   5.749   1.476   0.837
53719W        W26034  30.588   8.267   2.411
53720W        W26035   1.292  30.533  11.440
53721W        W26036  36.496  13.314   4.610
53722W        W26037  15.697  16.669  11.934
53723W        W26038   6.762   9.725   0.288
53724W        W26039   1.941  40.528  11.398
53725W        W26040  16.796  27.020   0.291
53726W        W26041  12.176  19.138   5.704
53727W        W26042  32.098  10.159  11.393
53728W        W26043   9.673  26.698   3.206
53729W        W26044  29.976  17.236   2.794
53730W        W26045  27.031   5.300  13.376
53731W        W26046  27.071  42.980  14.474
53732W        W26047  14.147   2.304  12.924
53733W        W26048  19.086  23.687  11.956
53734W        W26049  18.287  30.115   1.289
53735W        W26050   9.394   9.237   3.841
53736W        W26051   1.890  22.633  12.523
53737W        W26052  11.249  32.991  11.435
53738W        W26053   1.239  20.216   4.792
53739W        W26054   0.391  14.274  11.463
53740W        W26055  40.545   0.862   2.386
53741W        W26056  20.055  11.239  11.925
53742W        W26057  36.867  34.992   0.244
53743W        W26058  31.555  34.998  11.491
53744W        W26059  36.906  24.053   4.269
53745W        W26060  17.599  38.050   2.678
53746W        W26061  41.039   6.252   1.231
53747W        W26062  21.022  40.951  12.988
53748W        W26063  44.402  33.490  12.825
53749W        W26064  42.296  33.112  11.429
53750W        W26065  31.086  33.611   0.837
53751W        W26066  24.687  33.929   0.845
53752W        W26067  44.766  41.917   3.709
53753W        W26068  29.049  25.636   2.181
53754W        W26069   5.267   9.173   3.357
53755W        W26070  39.348  22.691   0.293
53756W        W26071  31.592  22.610   2.236
53757W        W26072  19.079   3.712  11.571
53758W        W26073  29.122   3.420  10.889
53759W        W26074  33.028  24.220   4.698
53760W        W26075  23.609  25.158   4.763
53761W        W26076  21.172   5.752  12.882
53762W        W26077  43.969  15.588  10.936
53763W        W26078  13.243   4.881   1.776
53764W        W26079   4.298  34.922  12.543
53765W        W26080   7.375  17.286   0.920
53766W        W26081  40.844  13.325  13.312
53767W        W26082   7.805  19.040  14.866
53768W        W26083  13.295  31.128   1.920
53769W        W26084  15.799  21.711   3.223
53770W        W26085  19.170  39.854   4.187
53771W        W26086  33.472  29.950  13.468
53772W        W26087  20.566  14.152  11.536
53773W        W26088  16.100  36.534   2.882
53774W        W26089  20.631  15.721  10.437
53775W        W26090  32.522   4.807  12.010
53776W        W26091  26.082   5.308   0.352
53777W        W26092  13.636   9.737  11.405
53778W        W26093  24.530  43.881   3.172
53779W        W26094   3.915  31.405   3.649
53780W        W26095  28.968   7.808   0.795
53781W        W26096  40.421   7.189  12.466
53782W        W26097  18.552   2.798   2.302
53783W        W26098  22.246  30.448   3.206
53784W        W26099   8.694  42.962  13.835
53785W        W26100   3.221  31.133  13.485
53786W        W26101   9.262  17.133  12.477
53787W        W26102  12.738  29.433   4.603
53788W        W26103  35.106   6.343   5.164
53789W        W26104  13.806  41.978  13.308
53790W        W26105  42.373  41.346  14.831
53791W        W26106  30.935   5.806  11.006
53792W        W26107  20.161  18.549  13.049
53793W        W26108  39.044  26.176   2.187
53794W        W26109  31.044  10.204   2.372
53795W        W26110  44.796  28.503   1.369
53796W        W26111  10.767   8.816   4.813
53797W        W26112   0.433   9.220  12.864
53798W        W26113  24.665  11.298   3.158
53799W        W26114  23.020  15.796  10.476
53800W        W26115  30.639   7.176  10.418
53801W        W26116   2.916  31.146   0.278
53802W        W26117   6.883  10.216   2.378
53803W        W26118   7.793   8.375  14.380
53804W        W26119  29.017  20.675  11.040
53805W        W26120  30.643  13.346  11.930
53806W        W26121  37.506  15.820   3.369
53807W        W26122  13.255  21.181   5.172
53808W        W26123  17.121  12.189   3.221
53809W        W26124  22.743  19.707   5.577
53810W        W26125   9.867   8.199   1.249
53811W        W26126  36.089  32.016   3.190
53812W        W26127  13.327  12.628  13.471
53813W        W26128  38.372  38.454   2.678
53814W        W26129   7.688  23.230  12.354
53815W        W26130  24.543  35.913   4.730
53816W        W26131   3.816  27.503  14.888
53817W        W26132   4.920  20.547  11.102
53818W        W26133  26.457  30.616   2.354
53819W        W26134  37.466   9.873  12.399
53820W        W26135   2.939  13.163   2.880
53821W        W26136  29.948   0.885  14.896
53822W        W26137  28.080  13.666  11.511
53823W        W26138  38.065  43.892  11.970
53824W        W26139  33.069  21.676  13.893
53825W        W26140  22.248  26.552   1.325
53826W        W26141  18.204  12.134   2.702
53827W        W26142   8.723  38.846  14.352
53828W        W26143  40.002  20.044   2.262
53829W        W26144  44.423  11.361   0.891
53830W        W26145  19.161  10.834   1.862
53831W        W26146  21.140   5.762   2.758
53832W        W26147  43.826  16.812  14.309
53833W        W26148   2.856  22.024  13.902
53834W        W26149   9.712  11.219   3.169
53835W        W26150  25.027   2.744   3.298
53836W        W26151  33.550   1.788  13.384
53837W        W26152  28.035  28.081  13.910
53838W        W26153   9.363  34.524   2.401
53839W        W26154  24.545  23.129   4.598
53840W        W26155  24.572  13.165   4.139
53841W        W26156  41.361  11.705  13.985
53842W        W26157   8.383  43.912  10.567
53843W        W26158  44.461  43.771   3.275
53844W        W26159  40.942   0.493   2.686
53845W        W26160  28.015  20.243  14.294
53846W        W26161  31.986  29.564   4.600
53847W        W26162  21.541  39.870  10.471
53848W        W26163  41.332  34.041   1.378
53849W        W26164   6.776  24.639   4.208
53850W        W26165  29.650  31.485   2.323
53851W        W26166  27.529  41.344   1.300
53852W        W26167   6.826  33.402  13.386
53853W        W26168  31.927  30.499   3.729
53854W        W26169   5.311  17.665  12.073
53855W        W26170  37.040  31.101   2.318
53856W        W26171   7.361  16.688   3.211
53857W        W26172  25.643  14.140  14.314
53858W        W26173  11.832  22.119  13.998
53859W        W26174   3.285  44.972   1.336
53860W        W26175  12.777  14.590   1.248
53861W        W26176   4.279  35.428  11.043
53862W        W26177  18.210  15.785   1.736
53863W        W26178   0.848  44.822   1.414
53864W        W26179   8.871  13.270  11.982
53865W        W26180   5.248  32.926  13.471
53866W        W26181  37.052   5.290   0.429
53867W        W26182  24.013  19.212   5.281
53868W        W26183  12.836  34.081   3.700
53869W        W26184  28.157   7.789   0.760
53870W        W26185   6.787  37.506   3.216
53871W        W26186  16.311  37.925  12.045
53872W        W26187  35.101  27.597   4.787
53873W        W26188   6.917  28.603  11.898
53874W        W26189  31.405  31.555   3.263
53875W        W26190   9.679  18.097   2.860
53876W        W26191  12.846  14.656   3.360
53877W        W26192  35.056  32.974  13.458
53878W        W26193   3.718  19.135   3.762
53879W        W26194  37.508  12.819   0.255
53880W        W26195   4.717  10.330  10.453
53881W        W26196  32.488  33.560  10.637
53882W        W26197  26.960  10.813  12.890
53883W        W26198  41.813  44.324  11.597
53884W        W26199  27.142  21.216   2.893
53885W        W26200  33.567  28.504   2.831
53886W        W26201  25.524   2.877   2.272
53887W        W26202  30.155  37.939   3.219
53888W        W26203  31.527  12.660  12.458
53889W        W26204  25.979  27.141   1.363
53890W        W26205   2.926  24.503   1.901
53891W        W26206  24.101  20.131  14.762
53892W        W26207  38.882   1.483   2.696
53893W        W26208  44.777  36.003   3.332
53894W        W26209   0.919  36.417  11.559
53895W        W26210   9.785  35.423   1.925
53896W        W26211  14.677  13.292   4.145
53897W        W26212  35.574  25.645  10.467
53898W        W26213  43.281  13.715   3.755
53899W        W26214  27.532   5.728   3.277
53900W        W26215  17.274   5.297   3.783
53901W        W26216   7.821  11.371  10.997
53902W        W26217  31.946  12.622  10.105
53903W        W26218  25.537  16.617  13.537
53904W        W26219  18.209  25.990   2.683
53905W        W26220  24.017  32.918   0.395
53906W        W26221   3.800   0.843  13.909
53907W        W26222   9.153   3.781  13.930
53908W        W26223  18.735  25.151   4.140
53909W        W26224  19.179   3.911   4.651
53910W        W26225  28.091  41.905  10.585
53911W        W26226  27.096  44.907   3.637
53912W        W26227  23.568  42.850   0.268
53913W        W26228  34.093  21.617   4.696
53914W        W26229   6.336  11.843  13.828
53915W        W26230  16.151  10.187   3.157
53916W        W26231   4.790  40.961  13.459
53917W        W26232  22.705  35.901  10.954
53918W        W26233  35.902  28.527  13.437
53919W        W26234  21.747  19.045   1.834
53920W        W26235  41.878  30.553  11.892
53921W        W26236  17.200  40.309   1.244
53922W        W26237  19.125  29.455   2.266
53923W        W26238  34.587  22.156  14.990
53924W        W26239  18.548  42.002   5.082
53925W        W26240  42.421   3.819  12.440
53926W        W26241   7.886  21.547   4.231
53927W        W26242  26.616  28.632  13.489
53928W        W26243  21.084  26.528  14.424
53929W        W26244   3.364  16.726   3.361
53930W        W26245  38.962  40.001  10.922
53931W        W26246  41.491  27.118   2.227
53932W        W26247  23.040  20.094   0.731
53933W        W26248  43.920  37.956   1.700
53934W        W26249   8.297  37.573   3.654
53935W        W26250  30.609  30.656   3.686
53936W        W26251  24.108  17.079   5.302
53937W        W26252  24.687  35.377   3.794
53938W        W26253  25.069   4.225   2.670
53939W        W26254   2.738   1.361  10.450
53940W        W26255  27.036  18.633   1.261
53941W        W26256  33.603  12.817   4.217
53942W        W26257   4.799  29.060   4.176
53943W        W26258   2.348  26.679   3.238
53944W        W26259  25.557  32.101  10.900
53945W        W26260  30.122  43.884  13.018
53946W        W26261   0.890  36.386   0.789
53947W        W26262  18.268  28.608   5.184
53948W        W26263  28.528  21.698   0.267
53949W        W26264  24.104  31.547  12.066
53950W        W26265  25.493  17.701   3.165
53951W        W26266  30.618   4.341   1.807
53952W        W26267  13.192  11.168  10.927
53953W        W26268   0.770  31.925   2.298
53954W        W26269  40.969  31.060   3.272
53955W        W26270  34.948  25.184  11.859
53956W        W26271  22.651  16.273   0.747
53957W        W26272  21.068  25.625  14.426
53958W        W26273  19.661  43.792   1.230
53959W        W26274  39.537  36.014  10.935
53960W        W26275   2.353  22.702   3.633
53961W        W26276  34.536  30.475   1.396
53962W        W26277  25.644  25.107   3.658
53963W        W26278  26.490  30.599  13.341
53964W        W26279  24.528  11.686  12.897
53965W        W26280  11.798  17.076  13.903
53966W        W26281  19.203  17.086   1.418
53967W        W26282  28.543   6.273   9.648
53968W        W26283  21.106  23.598  12.490
53969W        W26284  40.396  37.007  11.611
53970W        W26285  44.794   1.475   0.967
53971W        W26286  40.467  29.596   1.322
53972W        W26287  32.435  39.961  13.891
53973W        W26288  24.690  19.679  13.490
53974W        W26289  29.929  30.992   0.732
53975W        W26290  22.712  12.127  13.855
53976W        W26291  26.479  21.022   5.100
53977W        W26292  14.604   8.267  11.588
53978W        W26293  14.783  24.575  13.379
53979W        W26294  19.693   7.209   1.366
53980W        W26295  21.176  23.545  10.511
53981W        W26296  19.726  42.415  10.980
53982W        W26297   4.862  34.011   0.397
53983W        W26298  33.909  36.382  11.375
53984W        W26299   5.225  40.844   4.268
53985W        W26300  34.498   7.766  13.868
53986W        W26301  44.849  30.127   3.768
53987W        W26302   2.273  26.600  11.519
53988W        W26303  26.695  16.075  11.951
53989W        W26304  28.950  40.981   3.716
53990W        W26305  11.795  33.513  12.432
53991W        W26306  38.377  29.576  10.579
53992W        W26307  35.508   9.769   3.307
53993W        W26308  24.539  11.357   1.377
53994W        W26309  12.116  42.424  12.576
53995W        W26310  12.323  23.708   1.875
53996W        W26311  30.913  18.245  14.880
53997W        W26312  39.516  26.568  12.865
53998W        W26313   6.384  18.746  13.064
53999W        W26314  15.643   8.385  11.513
54000W        W26315   4.407  34.378   0.365
54001W        W26316   3.338   9.692   0.743
54002W        W26317  24.153   4.781   3.189
54003W        W26318  15.815   1.436  13.503
54004W        W26319  43.007   9.322   3.231
54005W        W26320  38.347  32.035   1.263
54006W        W26321  24.126  18.174  11.939
54007W        W26322  32.449  13.705  10.980
54008W        W26323   8.891  33.009   3.295
54009W        W26324  30.115   7.685   0.280
54010W        W26325  29.964  37.526   0.728
54011W        W26326  23.689   5.859   3.274
54012W        W26327  13.161  36.401   1.425
54013W        W26328   0.407   4.282  10.535
54014W        W26329  24.604   2.248  12.040
54015W        W26330  39.424  16.763   3.795
54016W        W26331  25.646  19.059  12.030
54017W        W26332  14.125  20.763   3.180
54018W        W26333  43.834  18.598  10.569
54019W        W26334  12.692   3.863   1.910
54020W        W26335  14.326  36.503   1.917
54021W        W26336  40.870  20.605   0.751
54022W        W26337  14.737  31.940  11.558
54023W        W26338   4.793  31.067  11.594
54024W        W26339  29.618  18.139  13.887
54025W        W26340  21.177  44.491   0.470
54026W        W26341  11.160  28.010   4.198
54027W        W26342  15.305  26.201  14.885
54028W        W26343  35.442  42.907   3.214
54029W        W26344  39.423  13.729  13.830
54030W        W26345  34.904  39.967  14.966
54031W        W26346  14.289  15.771   5.217
54032W        W26347   0.774  44.438  11.925
54033W        W26348   2.825  38.064   3.854
54034W        W26349  37.996  19.089   1.890
54035W        W26350  37.558  18.174   4.145
54036W        W26351  39.826  44.392  13.832
54037W        W26352  30.419  41.522   0.939
54038W        W26353  35.980  37.060  14.911
54039W        W26354  27.980  11.735  11.071
54040W        W26355  18.291  27.584  10.633
54041W        W26356   8.398  28.513  12.003
54042W        W26357  20.126  26.193  11.890
54043W        W26358  27.534  42.858   1.335
54044W        W26359   6.807  36.530   3.786
54045W        W26360  44.920  31.956   0.327
54046W        W26361  25.696  14.122  12.534
54047W        W26362   5.353  17.722  13.508
54048W        W26363   3.853  37.375   1.430
54049W        W26364  18.159  14.731  13.013
54050W        W26365   7.716  32.399   1.250
54051W        W26366   2.904  39.878   2.329
54052W        W26367   1.816   3.309   0.949
54053W        W26368  39.425  15.194   4.619
54054W        W26369  10.815  27.467  11.940
54055W        W26370   3.900  28.465  11.001
54056W        W26371  10.140  43.285  14.398
54057W        W26372  25.519  23.632  11.858
54058W        W26373  25.172  42.932   2.408
54059W        W26374  27.035  29.937  13.059
54060W        W26375   0.339  16.711   1.775
54061W        W26376   3.407  30.485   4.226
54062W        W26377   1.412  22.739  12.522
54063W        W26378  28.049  14.208  12.399
54064W        W26379  24.506  44.371  14.279
54065W        W26380  10.656  10.378   3.377
54066W        W26381  32.539  10.199   1.330
54067W        W26382  19.256   4.865  10.146
54068W        W26383  30.633   5.411  14.295
54069W        W26384  18.782  19.046   1.343
54070W        W26385  21.209  29.512  14.381
54071W        W26386  25.013  37.059   0.251
54072W        W26387   4.859  24.195   4.210
54073W        W26388   8.693  23.232   2.336
54074W        W26389  41.794  42.929   3.361
54075W        W26390  38.454  32.932   4.677
54076W        W26391  17.646  11.846  12.020
54077W        W26392   4.312  18.753   1.832
54078W        W26393  40.813   2.926   4.232
54079W        W26394   5.896  22.716   2.893
54080W        W26395  20.234  29.663  11.969
54081W        W26396  44.879  33.495  12.571
54082W        W26397  30.571  11.656  13.428
54083W        W26398  40.807  32.118   2.254
54084W        W26399  38.992   5.707   4.743
54085W        W26400  39.039   7.323  14.436
54086W        W26401  20.692  38.033   2.763
54087W        W26402  21.590  11.764   4.346
54088W        W26403  33.083  35.936  12.452
54089W        W26404  24.206  39.838  11.867
54090W        W26405  10.239  35.066  13.987
54091W        W26406  31.596  37.884   0.243
54092W        W26407  30.051  14.693   4.762
54093W        W26408  42.295   9.702   0.765
54094W        W26409  31.014   0.254   2.739
54095W        W26410  12.217   1.748  11.393
54096W        W26411  15.796   0.816   0.728
54097W        W26412   2.392  15.247   0.439
54098W        W26413  35.536   6.838  13.448
54099W        W26414  27.185  26.550   3.806
54100W        W26415   5.421  25.598  13.488
54101W        W26416   3.224  32.925   1.833
54102W        W26417  22.123  34.570  13.004
54103W        W26418  44.900   3.858   1.416
54104W        W26419  21.669   5.844  11.393
54105W        W26420  27.572   7.854  14.846
54106W        W26421  23.126  27.952   2.398
54107W        W26422  27.518  44.883  14.954
54108W        W26423  20.193   7.353  11.007
54109W        W26424  12.250   3.220  11.475
54110W        W26425  23.633   6.808  13.548
54111W        W26426  17.067  20.216  13.908
54112W        W26427  37.032  25.149   2.734
54113W        W26428  20.692  23.567   0.470
54114W        W26429  34.515  21.695   0.796
54115W        W26430  36.040  28.973   3.682
54116W        W26431  35.972   1.280  14.442
54117W        W26432  31.414  35.592  10.422
54118W        W26433  37.867  35.528  11.528
54119W        W26434  38.336  32.010  13.531
54120W        W26435   0.354  19.606   0.459
54121W        W26436  16.640   3.730   0.401
54122W        W26437  37.352   7.720  10.475
54123W        W26438  32.038  35.881  13.348
54124W        W26439  23.712  34.418   4.250
54125W        W26440   4.225  17.696   4.250
54126W        W26441  19.725   5.918   1.287
54127W        W26442  39.045  34.061  11.437
54128W        W26443  39.957  15.308   2.357
54129W        W26444   8.871   9.674  14.426
54130W        W26445  22.667  33.079   3.340
54131W        W26446  44.336  41.807   0.360
54132W        W26447  17.728  15.634  13.308
54133W        W26448  24.693  22.233  13.981
54134W        W26449   3.461   5.869   4.826
54135W        W26450  39.980   5.334   4.335
54136W        W26451  15.094  33.129  14.466
54137W        W26452  29.472  16.629   0.830
54138W        W26453  33.449  37.988  13.540
54139W        W26454  20.171  36.577   2.903
54140W        W26455  31.418  14.815   1.439
54141W        W26456  12.774  17.218   1.824
54142W        W26457  37.054  26.128   1.340
54143W        W26458  23.526  34.502   1.694
54144W        W26459   4.416  32.997  10.595
54145W        W26460  25.966   5.391  11.944
54146W        W26461  27.184  34.932   0.287
54147W        W26462  18.700  39.940   4.704
54148W        W26463  44.293  12.323   5.170
54149W        W26464  29.935   6.805  14.020
54150W        W26465  13.215  42.433  13.921
54151W        W26466  17.073  33.544  11.433
54152W        W26467  20.704  32.592  11.475
54153W        W26468  34.549   1.971  12.484
54154W        W26469  30.107  18.700   2.396
54155W        W26470   9.697  22.134  14.395
54156W        W26471  18.185   2.770   4.743
54157W        W26472  31.476  35.979   0.965
54158W        W26473  19.248  38.964   0.804
54159W        W26474  15.818  28.036   1.921
54160W        W26475  38.935   3.427   1.791
54161W        W26476  39.816  20.259  13.311
54162W        W26477   5.798  19.648  12.415
54163W        W26478  16.705  38.888   1.436
54164W        W26479   3.854  28.004  12.433
54165W        W26480  43.338  19.213  13.000
54166W        W26481  28.465   3.825   0.786
54167W        W26482  26.995  20.541   0.254
54168W        W26483  25.664  44.469   4.205
54169W        W26484  18.547  38.876   5.105
54170W        W26485  19.576  34.024   1.366
54171W        W26486  35.953  29.110  11.596
54172W        W26487   4.209  28.980  11.506
54173W        W26488  28.452  25.070  11.918
54174W        W26489  15.683  20.220  13.020
54175W        W26490   3.354  10.204   1.790
54176W        W26491  22.637  38.533   0.466
54177W        W26492   3.849  43.785  13.372
54178W        W26493  23.733   4.421   2.750
54179W        W26494   0.756  33.617   3.854
54180W        W26495  27.100  44.331   1.253
54181W        W26496  18.699  12.224  11.074
54182W        W26497  22.241   5.911  11.556
54183W        W26498  31.553  10.703   4.667
54184W        W26499  39.415  40.417   1.816
54185W        W26500   6.867  32.456  13.476
54186W        W26501   9.805  24.624   3.276
54187W        W26502  12.808  30.095  14.471
54188W        W26503  42.886  26.038   4.692
54189W        W26504  43.922  28.953   4.828
54190W        W26505  23.038  44.373   9.925
54191W        W26506  23.662   0.324   1.397
54192W        W26507   8.771  25.524   2.339
54193W        W26508   3.320  32.036  13.314
54194W        W26509  39.973  38.326  11.090
54195W        W26510  14.205  38.395  11.494
54196W        W26511  11.721  29.664   2.851
54197W        W26512  29.627  14.221   3.659
54198W        W26513   3.807  21.125   1.908
54199W        W26514   2.737  34.095  13.341
54200W        W26515   1.427   0.471   0.745
54201W        W26516  14.228  19.692  11.435
54202W        W26517  22.063   5.816   2.314
54203W        W26518   4.366  16.761   4.281
54204W        W26519  20.690   1.860  13.993
54205W        W26520   7.877   4.297   3.782
54206W        W26521  18.612  23.623   2.279
54207W        W26522  32.440  40.936   2.287
54208W        W26523  44.986  34.547  12.439
54209W        W26524  10.247  38.979  14.820
54210W        W26525  28.142  16.158  12.580
54211W        W26526   5.333  22.061   0.918
54212W        W26527  17.069  40.826   4.703
54213W        W26528  23.026  25.687  12.375
54214W        W26529  33.900  42.285   4.775
54215W        W26530   0.756  19.241  14.899
54216W        W26531  43.827  27.480   0.918
54217W        W26532  35.053   1.358   3.825
54218W        W26533  16.122  42.502   2.247
54219W        W26534  18.762  17.589   2.684
54220W        W26535  27.657  25.645   0.259
54221W        W26536  14.675  43.364  13.859
54222W        W26537   6.879  37.409  11.465
54223W        W26538  38.973  35.878   3.665
54224W        W26539  28.516  22.153   0.267
54225W        W26540  24.995  22.181  13.953
54226W        W26541  21.753  11.218  12.893
54227W        W26542  32.022  39.941   1.333
54228W        W26543   7.208  10.321   3.248
54229W        W26544  43.997   4.776   2.345
54230W        W26545  25.019  32.425   4.138
54231W        W26546  30.959  12.116   2.863
54232W        W26547  17.633  10.198   1.351
54233W        W26548  42.905   1.763   4.651
54234W        W26549  40.334  40.843   1.357
54235W        W26550  25.116   6.832   2.404
54236W        W26551  37.962   6.823  11.380
54237W        W26552  37.545  36.002   0.425
54238W        W26553  36.473  21.260  14.961
54239W        W26554  29.022  24.085  12.406
54240W        W26555  15.112  14.682   4.732
54241W        W26556  20.718  26.484  13.996
54242W        W26557   3.842  10.215  11.377
54243W        W26558  43.875  35.981   1.824
54244W        W26559  31.899   9.338  12.577
54245W        W26560  16.222  14.653   1.809
54246W        W26561   8.320   0.928  13.433
54247W        W26562   5.708  35.893   3.224
54248W        W26563   7.898  34.044   4.834
54249W        W26564   6.882  22.149  12.471
54250W        W26565  27.634  30.455  11.968
54251W        W26566  43.316  35.927   2.250
54252W        W26567  12.697  40.965  13.321
54253W        W26568   1.280   3.319   3.289
54254W        W26569  12.739   1.474  13.464
54255W        W26570  34.536  36.460   2.827
54256W        W26571  44.827  35.083  11.028
54257W        W26572   2.946  25.210  12.982
54258W        W26573   6.342  10.692  12.014
54259W        W26574  24.141  22.151  12.854
54260W        W26575  25.032  21.746  12.852
54261W        W26576   0.424  15.183  14.502
54262W        W26577   8.679   0.837   4.716
54263W        W26578  36.472  15.101   3.276
54264W        W26579  43.833  19.102  14.926
54265W        W26580   5.356  25.680  12.394
54266W        W26581  42.976  26.103  14.767
54267W        W26582  17.297  40.447   3.803
54268W        W26583  39.506  26.957   2.833
54269W        W26584   4.828  38.479   3.696
54270W        W26585  34.929  18.237  12.839
54271W        W26586  35.939  19.725  14.470
54272W        W26587  36.565   5.323  13.801
54273W        W26588  20.700  22.632   3.850
54274W        W26589   2.342  44.433  13.514
54275W        W26590  19.543  41.860   4.127
54276W        W26591  23.552  36.938   0.246
54277W        W26592   5.690   4.243  14.805
54278W        W26593  23.039  12.350   4.217
54279W        W26594  17.631  14.727   0.430
54280W        W26595  41.346  14.717  14.803
54281W        W26596  28.502  32.521  13.059
54282W        W26597   1.806  33.875  10.907
54283W        W26598  20.724   0.434   0.243
54284W        W26599  34.986   2.820  12.008
54285W        W26600   5.871  19.646   2.883
54286W        W26601   7.905  36.547  13.411
54287W        W26602  20.727  21.086   3.318
54288W        W26603  36.050  11.693   4.688
54289W        W26604  20.215  14.115  13.957
54290W        W26605   1.838  33.025   0.331
54291W        W26606  21.595  25.980  11.041
54292W        W26607  19.632  27.054  11.064
54293W        W26608   1.874  22.235   1.251
54294W        W26609  43.996  40.975  11.487
54295W        W26610  35.928  17.109   5.286
54296W        W26611  27.003  36.873  10.903
54297W        W26612  15.704  20.678  10.623
54298W        W26613  30.437   0.380  14.794
54299W        W26614  23.148  27.677  13.349
54300W        W26615  13.678   9.766  14.472
54301W        W26616  35.972  41.478  10.478
54302W        W26617  30.150   4.753  11.472
54303W        W26618  13.311  27.607  13.048
54304W        W26619  12.685   4.864  13.013
54305W        W26620  18.187  37.910   1.701
54306W        W26621  26.585  15.696   4.315
54307W        W26622  37.981   5.924  14.288
54308W        W26623  44.001  10.800  10.892
54309W        W26624  17.630  21.560   2.841
54310W        W26625  11.247  40.925  12.552
54311W        W26626   1.747  30.443  13.425
54312W        W26627  24.170  42.361  13.504
54313W        W26628  40.377  26.055  13.432
54314W        W26629  16.240  26.996   4.741
54315W        W26630  22.681   0.843   1.315
54316W        W26631  14.313  12.816   0.363
54317W        W26632  34.950  20.134  13.330
54318W        W26633   8.775  25.603  12.453
54319W        W26634  12.640  30.908  13.905
54320W        W26635  35.358  32.124  14.357
54321W        W26636  43.780  12.163  11.093
54322W        W26637  10.705  35.007   0.466
54323W        W26638  43.430   0.954  13.327
54324W        W26639  20.214   0.786   2.666
54325W        W26640  16.176   5.438  11.610
54326W        W26641  41.030  42.379   0.937
54327W        W26642  28.608  21.032  12.369
54328W        W26643  14.296  38.454   3.702
54329W        W26644  34.017   3.731   4.700
54330W        W26645  42.436  21.128   0.966
54331W        W26646  33.590  39.314  14.395
54332W        W26647   8.186  38.999  14.423
54333W        W26648  34.481  39.463  13.835
54334W        W26649  33.097  20.601  13.018
54335W        W26650  15.676  41.429  12.529
54336W        W26651  11.214  28.440   0.772
54337W        W26652   4.287  30.944   0.840
54338W        W26653  37.836  20.260   4.816
54339W        W26654  44.758  39.809  11.456
54340W        W26655   4.937  13.792   1.728
54341W        W26656  37.850  39.017  13.379
54342W        W26657  13.774  30.548  13.969
54343W        W26658   6.892  29.162  14.797
54344W        W26659  20.270   3.787   4.312
54345W        W26660  13.705   1.420  11.860
54346W        W26661  40.326  19.650   2.373
54347W        W26662  27.021  43.889   2.371
54348W        W26663   7.676  17.641  13.326
54349W        W26664  21.620  26.109  12.868
54350W        W26665  44.777  44.415   1.323
54351W        W26666  34.593   9.841   1.847
54352W        W26667  15.207  30.565   4.275
54353W        W26668  33.534   0.256  13.956
54354W        W26669  42.794  11.148   1.258
54355W        W26670   3.763  25.564   0.825
54356W        W26671  19.095  39.960   2.374
54357W        W26672  26.076   5.917   4.237
54358W        W26673  40.858   9.770  13.347
54359W        W26674  17.082   5.345   2.853
54360W        W26675  19.235  33.936   3.730
54361W        W26676  43.306  39.362   3.660
54362W        W26677  43.896  28.653  10.513
54363W        W26678  22.635   7.786   2.789
54364W        W26679  12.155   2.933  11.430
54365W        W26680  24.640  25.027  13.928
54366W        W26681  33.003  18.786   2.743
54367W        W26682  15.762  30.490   4.649
54368W        W26683   6.886   3.440  11.444
54369W        W26684  42.775   2.397   2.252
54370W        W26685  14.732   5.821  13.020
54371W        W26686  18.137  19.662  12.859
54372W        W26687  21.520   8.174   1.853
54373W        W26688  19.779  22.081  14.792
54374W        W26689  40.368   3.860  11.085
54375W        W26690  29.100  21.635   1.329
54376W        W26691  19.678   4.853  10.509
54377W        W26692  27.531  37.570   0.419
54378W        W26693  24.553  43.872  11.498
54379W        W26694  11.851  36.074  11.483
54380W        W26695  41.977  19.569  14.511
54381W        W26696   3.829  26.576   4.340
54382W        W26697  23.509  38.514   0.888
54383W        W26698  32.491   9.778  11.566
54384W        W26699  24.622  40.996   4.181
54385W        W26700  28.443   3.412   3.668
54386W        W26701   9.158   8.755  14.286
54387W        W26702  19.554   7.759   3.338
54388W        W26703  25.980  22.716  10.489
54389W        W26704  19.215  37.939   1.732
54390W        W26705  35.974   6.329   0.413
54391W        W26706  20.104  11.739   4.166
54392W        W26707  24.179  31.504  11.403
54393W        W26708  13.727  18.763  14.490
54394W        W26709  12.624  30.007   2.825
54395W        W26710   9.196  24.615   1.326
54396W        W26711  30.490  39.449  12.374
54397W        W26712   3.379  41.481  12.018
54398W        W26713   9.755  27.535   0.425
54399W        W26714  22.616  38.501   2.399
54400W        W26715   6.275  23.543   3.313
54401W        W26716  44.831  28.588  14.823
54402W        W26717  19.585  44.349   0.465
54403W        W26718  27.191   2.359  13.936
54404W        W26719  26.054   4.764   2.883
54405W        W26720  23.156  26.981  13.458
54406W        W26721  40.536  14.746   4.254
54407W        W26722  18.279  22.156  14.813
54408W        W26723   4.267  36.935  14.406
54409W        W26724  33.394  28.109   4.661
54410W        W26725  24.231  36.427   0.464
54411W        W26726  27.565  25.010   4.746
54412W        W26727   8.282  36.001   4.294
54413W        W26728  13.729   8.198   4.260
54414W        W26729  11.692  12.757  14.971
54415W        W26730   2.764  38.996  14.417
54416W        W26731  15.796  41.951   0.882
54417W        W26732  28.475  34.019  13.417
54418W        W26733  22.745  36.020  14.918
54419W        W26734  21.079  42.366  14.325
54420W        W26735  43.369   4.871  14.827
54421W        W26736  31.441  40.549  13.978
54422W        W26737  28.112  36.964  10.936
54423W        W26738  40.465  11.149   2.409
54424W        W26739  22.541  28.493   1.397
54425W        W26740  24.697  18.271  10.518
54426W        W26741  32.988  40.490  14.867
54427W        W26742  18.213  27.567  14.813
54428W        W26743  30.486  18.763  13.458
54429W        W26744  27.953  18.652   5.298
54430W        W26745  40.003  11.259  12.052
54431W        W26746  28.485   8.200   0.922
54432W        W26747  23.017   8.698   3.804
54433W        W26748   7.835   3.378  12.903
54434W        W26749  25.603   0.323   3.303
54435W        W26750  13.154  21.697  14.505
54436W        W26751  27.555  10.284  14.968
54437W        W26752  30.144   6.765   2.258
54438W        W26753  16.710  34.929  14.809
54439W        W26754  42.935  40.913  10.489
54440W        W26755  33.966  14.184   0.474
54441W        W26756   6.801   5.354   2.383
54442W        W26757  43.351  13.655  11.469
54443W        W26758   1.261  44.308   1.441
54444W        W26759   5.280  16.737  12.892
54445W        W26760  20.180  20.154  14.510
54446W        W26761  44.915  30.659  11.991
54447W        W26762   6.704  42.525   1.870
54448W        W26763  16.651   8.316  11.979
54449W        W26764  21.680  29.033   3.675
54450W        W26765  10.872  40.051   2.833
54451W        W26766   7.229  25.153   4.326
54452W        W26767   7.239   7.665  12.374
54453W        W26768  11.640  19.178   9.950
54454W        W26769  28.955   3.293   1.911
54455W        W26770  26.548   1.775  12.889
54456W        W26771  16.661  40.906   4.635
54457W        W26772  32.034  18.258  12.431
54458W        W26773  31.143  15.300  10.922
54459W        W26774  12.843  14.206  13.353
54460W        W26775  18.705  13.105   3.631
54461W        W26776  40.882  41.883  14.963
54462W        W26777  16.811  40.546  14.374
54463W        W26778  41.920  42.359   0.865
54464W        W26779  32.427  13.644  13.431
54465W        W26780  10.296  36.014  13.475
54466W        W26781  43.436  41.935   3.216
54467W        W26782  27.041  43.011  11.990
54468W        W26783  35.520  17.634  13.006
54469W        W26784  30.068  30.088  14.886
54470W        W26785   7.238  18.739  11.421
54471W        W26786  13.772   1.366  14.897
54472W        W26787  17.562   8.687  12.556
54473W        W26788  34.420  33.444   1.375
54474W        W26789  12.233   8.335  10.524
54475W        W26790   1.736  32.421   3.667
54476W        W26791  24.501   3.780   2.752
54477W        W26792  18.640   1.306  10.984
54478W        W26793  15.608  40.394   0.757
54479W        W26794  39.983   3.398   1.399
54480W        W26795  30.444  41.534   4.203
54481W        W26796  31.614  12.682  12.830
54482W        W26797  15.727  29.926   5.684
54483W        W26798  22.144   7.799  12.040
54484W        W26799   5.245  30.456  13.389
54485W        W26800  32.480  13.829   2.713
54486W        W26801  39.922  40.025   4.667
54487W        W26802  25.180  11.697   3.287
54488W        W26803  13.251  44.371  12.423
54489W        W26804  23.036  39.054   9.998
54490W        W26805  16.117   1.258  12.498
54491W        W26806  29.075  32.902   9.593
54492W        W26807  25.676   4.725   0.402
54493W        W26808  34.416  18.560  11.073
54494W        W26809   0.374  34.376   3.864
54495W        W26810  18.082  27.183   4.124
54496W        W26811  13.655  39.429  13.896
54497W        W26812  41.811  37.027   3.778
54498W        W26813  29.482  25.506  14.897
54499W        W26814  17.091  24.178   1.710
54500W        W26815  43.960  24.694  14.919
54501W        W26816  17.770  22.680   3.232
54502W        W26817  27.614  38.035  10.937
54503W        W26818  37.926  29.148   5.287
54504W        W26819   8.406  25.625   4.180
54505W        W26820   1.457  39.318  14.791
54506W        W26821   1.363   7.686   3.203
54507W        W26822  31.146  27.665   2.302
54508W        W26823  25.039  15.820  12.982
54509W        W26824   8.245  42.835   2.835
54510W        W26825  43.793  28.665   2.324
54511W        W26826   6.917  20.112  14.005
54512W        W26827  29.947  13.804  12.964
54513W        W26828   1.938  27.975   3.690
54514W        W26829   5.294  37.490   1.733
54515W        W26830  22.166  21.612   1.848
54516W        W26831  11.214   6.193  13.908
54517W        W26832  11.306  25.552   1.252
54518W        W26833  13.329   2.351   4.273
54519W        W26834  40.344  39.866   0.850
54520W        W26835  11.679  23.026  14.796
54521W        W26836  36.372  12.239  13.528
54522W        W26837  40.456  13.250  10.982
54523W        W26838  21.513  12.213   3.772
54524W        W26839   6.358   9.235   2.357
54525W        W26840  12.664   5.697  11.965
54526W        W26841  41.471   2.788   4.305
54527W        W26842  10.190  26.635   3.223
54528W        W26843  36.361  31.593  10.518
54529W        W26844  10.165   1.385  11.077
54530W        W26845  13.320   9.862   1.249
54531W        W26846  30.993  39.848   0.301
54532W        W26847   7.289  28.608  11.918
54533W        W26848  13.186  27.993   0.913
54534W        W26849  31.536  16.082  13.061
54535W        W26850  16.587  44.841   4.767
54536W        W26851   2.330  12.242  11.549
54537W        W26852   7.832  13.642  12.030
54538W        W26853  39.534  16.234  14.502
54539W        W26854  23.032  43.764   0.808
54540W        W26855  13.302  38.940   2.179
54541W        W26856  17.285  40.426  13.509
54542W        W26857  30.556   8.871   1.446
54543W        W26858   8.895  22.574  14.913
54544W        W26859  16.667   7.708   3.689
54545W        W26860  16.241  36.921   2.385
54546W        W26861  20.028  15.190  13.978
54547W        W26862  29.139  10.637   4.768
54548W        W26863   7.791  10.143   2.851
54549W        W26864   9.286  43.795   1.377
54550W        W26865  26.185   8.733   2.397
54551W        W26866  29.130  20.676  10.643
54552W        W26867  16.812   3.859   4.305
54553W        W26868  13.777  20.676   0.881
54554W        W26869  13.337  23.566  12.555
54555W        W26870   9.371  33.510  13.404
54556W        W26871  39.388  16.297   2.862
54557W        W26872   3.263  20.093   3.198
54558W        W26873  20.228  15.791   3.645
54559W        W26874  17.602  12.118  13.859
54560W        W26875  20.551   2.297   1.408
54561W        W26876   6.204   9.785   0.336
54562W        W26877   7.665  44.777  13.405
54563W        W26878   1.870  17.794   1.804
54564W        W26879  33.904   3.361   4.739
54565W        W26880  40.526  20.702  13.475
54566W        W26881   0.429  30.087  14.765
54567W        W26882  19.638  14.666   0.852
54568W        W26883  20.143  36.402  14.825
54569W        W26884  23.021  42.444  12.097
54570W        W26885   4.771   6.232   0.302
54571W        W26886  37.018  16.647  11.375
54572W        W26887  27.963   5.911  14.782
54573W        W26888  22.719  29.046   4.684
54574W        W26889  15.271  31.117  13.405
54575W        W26890  38.946  22.554   9.920
54576W        W26891  36.552  20.635   4.165
54577W        W26892   7.851   5.433  14.455
54578W        W26893  16.610   8.890  12.425
54579W        W26894   9.845  44.497  14.371
54580W        W26895  24.534   9.863  12.523
54581W        W26896  11.264  44.299   0.914
54582W        W26897  42.775  13.202  10.613
54583W        W26898   9.226  24.488  11.880
54584W        W26899   5.791   4.918   2.373
54585W        W26900   4.924  19.567   2.307
54586W        W26901   0.827  12.311   5.152
54587W        W26902  35.939  22.688   4.604
54588W        W26903  17.075  37.469  12.926
54589W        W26904  10.182  35.473   1.893
54590W        W26905   0.946  13.129  11.385
54591W        W26906  22.626  30.922  12.435
54592W        W26907  16.584  16.692  11.883
54593W        W26908  31.499  25.537   2.828
54594W        W26909  41.866   6.195   1.332
54595W        W26910   0.963  12.159   2.663
54596W        W26911  27.085  22.634   0.944
54597W        W26912  43.982  13.142  14.395
54598W        W26913   3.720  22.634   4.352
54599W        W26914  25.583  40.435   0.377
54600W        W26915   6.351  22.652  13.927
54601W        W26916  40.432  41.439   9.975
54602W        W26917   7.905   3.845  14.436
54603W        W26918  18.070  38.022  12.571
54604W        W26919  11.812  14.691   4.750
54605W        W26920  11.161  24.667  11.123
54606W        W26921   8.770   3.777  14.924
54607W        W26922  16.581  44.370   3.319
54608W        W26923  12.839   6.204   3.749
54609W        W26924  41.008  33.979   4.273
54610W        W26925  17.156  18.580   1.738
54611W        W26926  15.284  26.516   1.422
54612W        W26927   1.464  21.124  10.110
54613W        W26928   4.351  25.642   0.776
54614W        W26929  14.745  32.405   3.338
54615W        W26930  29.174  32.045   0.437
54616W        W26931   9.277   6.761   1.859
54617W        W26932  34.005   4.254   3.251
54618W        W26933  19.092  13.657  10.947
54619W        W26934  22.740  13.742   1.348
54620W        W26935  40.894  36.467   2.221
54621W        W26936  15.229  22.144  15.000
54622W        W26937  21.716   9.360   1.813
54623W        W26938  26.690  35.955  12.939
54624W        W26939   1.970  27.448  12.910
54625W        W26940  31.987  22.226   9.974
54626W        W26941  38.063  20.666  10.570
54627W        W26942  27.584  43.305  11.480
54628W        W26943  32.519  16.757  13.393
54629W        W26944  17.276   0.860   9.940
54630W        W26945  19.605   7.334   9.934
54631W        W26946  40.465   3.387  13.815
54632W        W26947  44.318  41.891   4.634
54633W        W26948  20.034   2.728  14.289
54634W        W26949  43.308  12.332  14.791
54635W        W26950  44.759   9.822  13.842
54636W        W26951  20.687  28.118  11.952
54637W        W26952  31.992   0.769  14.876
54638W        W26953  23.130  13.846   4.830
54639W        W26954  22.110  24.683   0.436
54640W        W26955  12.189  20.734   3.292
54641W        W26956   1.452  19.747   1.297
54642W        W26957  16.145  30.475   9.969
54643W        W26958  26.457  21.133   0.844
54644W        W26959  42.976  27.132  12.075
54645W        W26960  15.647   3.376   3.386
54646W        W26961   7.839  16.205  11.861
54647W        W26962  33.519  21.158   1.855
54648W        W26963  17.240  17.259   5.311
54649W        W26964  40.537  42.402   1.914
54650W        W26965  14.263  14.806  11.060
54651W        W26966   4.821  31.499   2.783
54652W        W26967  24.631  44.802  14.503
54653W        W26968  40.932  28.031   0.325
54654W        W26969  39.430  31.008   3.818
54655W        W26970  20.636  19.250  12.043
54656W        W26971   5.868  40.547   0.371
54657W        W26972  41.029  18.284   2.777
54658W        W26973  30.490  23.016  11.918
54659W        W26974  40.034   0.876  10.584
54660W        W26975  17.255  33.018  12.011
54661W        W26976  38.017  44.297   4.119
54662W        W26977  38.393  41.515   0.384
54663W        W26978  37.909  18.262  12.874
54664W        W26979  34.004   0.945   4.608
54665W        W26980  22.152  34.478  13.849
54666W        W26981   1.439  15.598  13.946
54667W        W26982   2.943   8.367  11.934
54668W        W26983  41.984  43.395  13.339
54669W        W26984  31.908   4.844  13.449
54670W        W26985  16.794  18.790  11.080
54671W        W26986  36.447  44.953   2.880
54672W        W26987  14.740  36.368   4.655
54673W        W26988  18.594  31.116  11.919
54674W        W26989  26.130  25.571  13.994
54675W        W26990  24.088  28.464  13.387
54676W        W26991  13.770  25.982  11.986
54677W        W26992  32.951  13.637   2.808
54678W        W26993  23.084  34.915  14.326
54679W        W26994   9.358  22.702  12.021
54680W        W26995   0.339  26.015  14.348
54681W        W26996  10.370  12.610   1.778
54682W        W26997   7.412  12.748  13.463
54683W        W26998   4.843  14.667  13.034
54684W        W26999  22.568  15.630   9.948
54685W        W27000   1.916   6.336   0.902
54686W        W27001  36.010  37.079  10.442
54687W        W27002  40.409  28.565  12.480
54688W        W27003  41.033  15.658  13.878
54689W        W27004  37.488  36.001  10.618
54690W        W27005  42.423  23.525   3.647
54691W        W27006   9.268  38.550  13.392
54692W        W27007   6.847   3.236   2.410
54693W        W27008  26.573  15.640   0.299
54694W        W27009   2.840  28.006  12.438
54695W        W27010  41.910  14.288  10.014
54696W        W27011   7.900  17.643  14.032
54697W        W27012  30.946  16.653  12.368
54698W        W27013  20.696   8.667  14.773
54699W        W27014  18.687  42.025  13.922
54700W        W27015  41.376  13.241   1.805
54701W        W27016  41.808  43.999   3.336
54702W        W27017  29.540  26.676   5.194
54703W        W27018  11.250  27.527   2.709
54704W        W27019  22.503  31.622  14.345
54705W        W27020  28.586  31.556   3.864
54706W        W27021  32.519  25.614   3.326
54707W        W27022  13.143  16.673   0.379
54708W        W27023  18.117  10.808   9.442
54709W        W27024   3.304  28.611   4.831
54710W        W27025  35.919   8.188  10.924
54711W        W27026  16.074  38.012   2.355
54712W        W27027  22.539  39.537   0.772
54713W        W27028  28.614  18.606  13.815
54714W        W27029  42.843  25.157  14.813
54715W        W27030   8.779  31.104  10.920
54716W        W27031  32.116   9.669   3.387
54717W        W27032  40.502  25.006  10.890
54718W        W27033  26.089  30.599   3.789
54719W        W27034  28.096  36.956  14.840
54720W        W27035   4.311  35.594   4.140
54721W        W27036  27.488   2.237  14.467
54722W        W27037  20.130  34.450   0.883
54723W        W27038  37.551  19.626  10.526
54724W        W27039   7.698  37.465   1.353
54725W        W27040  42.974  18.749  11.069
54726W        W27041  32.491  22.603  14.807
54727W        W27042  10.789  13.264   4.206
54728W        W27043  20.261  11.223   3.161
54729W        W27044  30.937  17.565  11.001
54730W        W27045  31.019  23.089   4.234
54731W        W27046  43.770  42.950  14.412
54732W        W27047  16.677   9.395   0.428
54733W        W27048   8.362  33.991   2.663
54734W        W27049  31.054   2.388  14.296
54735W        W27050  17.301  14.599  10.031
54736W        W27051  41.364   5.272  11.046
54737W        W27052  25.185  38.035  13.434
54738W        W27053  28.658  40.477  11.077
54739W        W27054  37.366   6.821   0.892
54740W        W27055  32.077  10.248   2.188
54741W        W27056  29.656  17.136  11.528
54742W        W27057   7.825  28.544   3.710
54743W        W27058  38.356  29.533   4.774
54744W        W27059  38.363  43.379  13.006
54745W        W27060   6.242  17.274   3.724
54746W        W27061  34.371   7.828   3.821
54747W        W27062   4.423  11.142   2.352
54748W        W27063   5.309   6.357  12.429
54749W        W27064  33.521   6.766   0.415
54750W        W27065  13.738  22.181  14.425
54751W        W27066  25.006   6.864   4.602
54752W        W27067  33.570  33.129   4.799
54753W        W27068   5.202   9.862  11.053
54754W        W27069  16.158  41.389  11.877
54755W        W27070  32.941   1.795   4.640
54756W        W27071  17.561  27.678  13.848
54757W        W27072  37.437  29.534  14.898
54758W        W27073  35.895   0.902  13.373
54759W        W27074   0.781  26.519  13.847
54760W        W27075   4.914  20.107   2.767
54761W        W27076  34.428  21.654  13.451
54762W        W27077   2.809  39.488   0.460
54763W        W27078  29.164  14.802  11.914
54764W        W27079  40.344  38.413   1.715
54765W        W27080  40.018  22.535  10.515
54766W        W27081   7.907   7.275   4.288
54767W        W27082   5.702  25.516   4.144
54768W        W27083  34.038   0.397   3.358
54769W        W27084  41.800  44.291   3.158
54770W        W27085   4.206  42.291   3.329
54771W        W27086   5.778  33.024  11.440
54772W        W27087  24.633  34.965   3.728
54773W        W27088  35.010  37.338  10.893
54774W        W27089  15.253  23.031   4.174
54775W        W27090  29.143  42.876  10.589
54776W        W27091  20.699  44.004  13.381
54777W        W27092  23.550   9.844   2.235
54778W        W27093  40.407  36.097   3.368
54779W        W27094  31.012  39.426   0.419
54780W        W27095   5.314  15.728   3.386
54781W        W27096  36.482  18.781   4.307
54782W        W27097  30.567   4.848   3.662
54783W        W27098  44.416   8.750  10.967
54784W        W27099  11.680  25.187  13.840
54785W        W27100   2.267  29.498   3.825
54786W        W27101   8.349  42.496   0.827
54787W        W27102  42.485  26.093  13.886
54788W        W27103  32.515  27.522  14.298
54789W        W27104  44.416  27.965  14.352
54790W        W27105  16.213  33.407  13.482
54791W        W27106  42.340   1.797  13.857
54792W        W27107  16.188   2.763  13.941
54793W        W27108  29.504  33.613   1.849
54794W        W27109  38.024   4.375  14.305
54795W        W27110  39.005   0.855  12.996
54796W        W27111  36.965  39.334   4.245
54797W        W27112  33.537  24.686   1.373
54798W        W27113  15.176  39.947  13.986
54799W        W27114  13.147  35.057   0.748
54800W        W27115   3.233  24.055  10.480
54801W        W27116   2.230  29.667  13.991
54802W        W27117   6.368  33.594  13.526
54803W        W27118  19.739  27.511  10.516
54804W        W27119   5.310   0.981   2.799
54805W        W27120  32.021  15.624   2.773
54806W        W27121  32.087  42.862   4.324
54807W        W27122  22.727  33.490  13.398
54808W        W27123  10.853  19.117   2.359
54809W        W27124  37.457  44.374   3.757
54810W        W27125  15.092  25.559   0.325
54811W        W27126  44.776  12.807   5.621
54812W        W27127   3.760  32.570  10.966
54813W        W27128  40.960  38.051   3.650
54814W        W27129  16.096  39.002  13.046
54815W        W27130  24.685   1.905   1.425
54816W        W27131   6.848  33.482  11.958
54817W        W27132   5.359  38.886   0.811
54818W        W27133  34.377  32.058   1.917
54819W        W27134  11.330  18.268   0.415
54820W        W27135  10.740  38.554   3.282
54821W        W27136   9.866   9.368   0.953
54822W        W27137   3.256  15.716  11.509
54823W        W27138   5.808  18.674   0.891
54824W        W27139  42.993  43.005   3.835
54825W        W27140  20.686   9.262   3.339
54826W        W27141  15.649  26.690   2.893
54827W        W27142  43.410  43.974   1.421
54828W        W27143  42.497  43.437   3.815
54829W        W27144   0.467  15.261   3.278
54830W        W27145  35.477  10.759   2.247
54831W        W27146   1.418  10.666   2.684
54832W        W27147  20.654  18.056  12.388
54833W        W27148   0.303   4.748   3.830
54834W        W27149   9.729  10.689  11.514
54835W        W27150  12.754   9.369   4.816
54836W        W27151  18.582  10.265  12.089
54837W        W27152  32.423  37.403   5.160
54838W        W27153  41.376  36.409   1.277
54839W        W27154  18.555   5.267  11.126
54840W        W27155   4.226   8.765   2.270
54841W        W27156   6.408  32.466  11.583
54842W        W27157  37.959  25.184   1.352
54843W        W27158  44.801   4.272  14.799
54844W        W27159  39.349  35.366  12.980
54845W        W27160  18.626  26.057  14.331
54846W        W27161  35.876  42.892  14.815
54847W        W27162  44.432   0.799  11.443
54848W        W27163  36.012  11.689  11.469
54849W        W27164  32.422   3.451  11.506
54850W        W27165  12.836  36.522   2.694
54851W        W27166  23.095  31.008  10.423
54852W        W27167   0.471   5.317   4.141
54853W        W27168  19.141  20.662  11.602
54854W        W27169  18.692  43.766  14.503
54855W        W27170  19.083  29.107  14.312
54856W        W27171  17.271  29.641  14.353
54857W        W27172  21.694  42.470   4.193
54858W        W27173  23.008  16.091   3.334
54859W        W27174   6.427  28.017   0.473
54860W        W27175  42.495  43.368  14.437
54861W        W27176  21.089  10.852  13.456
54862W        W27177  23.556  14.707   3.290
54863W        W27178  40.919  28.537  11.918
54864W        W27179  23.586  43.814   1.430
54865W        W27180  37.547  41.398   0.911
54866W        W27181  12.144  36.414   2.826
54867W        W27182  35.413  14.816  11.458
54868W        W27183  19.632  32.517   4.632
54869W        W27184  24.223  36.493   1.289
54870W        W27185  24.225  12.330  14.760
54871W        W27186  39.904  28.972   0.417
54872W        W27187  21.047  36.094  14.516
54873W        W27188  14.188  37.579  10.440
54874W        W27189  44.829  29.962  13.433
54875W        W27190  27.021   2.899  10.603
54876W        W27191  11.741  27.024  14.419
54877W        W27192  31.527  36.916  10.460
54878W        W27193  40.306  36.481   4.636
54879W        W27194  22.086   4.315   1.909
54880W        W27195  38.952   2.352  12.533
54881W        W27196   9.852  25.155  11.375
54882W        W27197   4.856  31.972  12.952
54883W        W27198  18.620  19.051   1.731
54884W        W27199  10.810  10.753   2.384
54885W        W27200  40.850  30.953   0.857
54886W        W27201  19.537  17.296   0.893
54887W        W27202  32.071  30.637  14.498
54888W        W27203  41.872  30.451  10.954
54889W        W27204  41.888  20.741   0.785
54890W        W27205  28.674   1.474  12.360
54891W        W27206  29.502  33.008   1.343
54892W        W27207  28.946  20.174  10.516
54893W        W27208   6.677  37.467  14.420
54894W        W27209   9.353  42.811   2.839
54895W        W27210   1.455  17.739  11.121
54896W        W27211   5.699  10.238   0.345
54897W        W27212  30.584  29.117   4.285
54898W        W27213  16.227  23.511  11.004
54899W        W27214  34.575  25.975  14.794
54900W        W27215  43.335  23.100   3.680
54901W        W27216  31.532  25.500  11.969
54902W        W27217  17.561   8.314   5.106
54903W        W27218  18.173  22.107   4.600
54904W        W27219  24.550  26.654  14.337
54905W        W27220   0.339  17.078  14.949
54906W        W27221  27.520  21.740  12.521
54907W        W27222  38.964   9.878   4.662
54908W        W27223  32.514  43.285   3.697
54909W        W27224   4.773   6.192   4.326
54910W        W27225  34.031   8.790   2.302
54911W        W27226  36.967  20.723   0.416
54912W        W27227  44.794  13.144  14.384
54913W        W27228   3.278  36.866   4.266
54914W        W27229  16.579  24.027   3.321
54915W        W27230  36.400  40.922  11.468
54916W        W27231  30.150   4.209  13.515
54917W        W27232   9.191   2.343  11.868
54918W        W27233  11.367   1.932  14.381
54919W        W27234   2.786   5.299   1.718
54920W        W27235  11.814   2.334   2.741
54921W        W27236  43.932   1.420   0.889
54922W        W27237   3.244  44.502  11.430
54923W        W27238  24.054  31.115  10.927
54924W        W27239  42.834  24.505   1.322
54925W        W27240   4.228  32.930  11.010
54926W        W27241   4.236  26.027   0.839
54927W        W27242   3.243  38.967   2.367
54928W        W27243  34.078  17.194  12.998
54929W        W27244  13.328  21.703   2.878
54930W        W27245  43.368  32.518  12.014
54931W        W27246  15.795   0.815  10.500
54932W        W27247  37.567  11.729   4.185
54933W        W27248  16.265  37.026  14.494
54934W        W27249  40.306   3.256  10.502
54935W        W27250  20.686  42.318   4.802
54936W        W27251  15.795  11.809  12.830
54937W        W27252  40.882  44.759   3.348
54938W        W27253  15.204   5.815   0.960
54939W        W27254  33.069  43.500   3.729
54940W        W27255  18.106  17.228   0.823
54941W        W27256  19.041  23.187   4.647
54942W        W27257  30.540  23.115  13.338
54943W        W27258   5.719  34.594  11.123
54944W        W27259  40.984  14.230   0.931
54945W        W27260  37.501  18.279   4.638
54946W        W27261  40.910  19.119   0.742
54947W        W27262  14.212  38.974   0.482
54948W        W27263  10.251  27.110  14.840
54949W        W27264  35.375  22.137   0.406
54950W        W27265  23.026  15.592  10.087
54951W        W27266  11.211   3.380  14.014
54952W        W27267   8.702  13.659  13.018
54953W        W27268   3.924  29.035  10.609
54954W        W27269   8.266  38.366  12.424
54955W        W27270  42.831   0.775  13.469
54956W        W27271  37.558  10.368  12.410
54957W        W27272  38.474   4.316  14.883
54958W        W27273  32.034  19.714  13.862
54959W        W27274   4.235  44.490   0.259
54960W        W27275  26.637   8.695   3.273
54961W        W27276  44.269  42.915  12.062
54962W        W27277  41.365  39.401  13.439
54963W        W27278  18.267  11.130  11.071
54964W        W27279  37.073   1.244  14.022
54965W        W27280   4.338  18.765  14.889
54966W        W27281  15.594  11.861  14.412
54967W        W27282  27.059   5.215  11.907
54968W        W27283   4.897  32.626  12.526
54969W        W27284  17.104  36.891  12.558
54970W        W27285  19.271   0.462   1.273
54971W        W27286  23.164  19.203   2.773
54972W        W27287  30.412  28.643  13.392
54973W        W27288   0.808  14.738  13.389
54974W        W27289   8.404  15.329  14.501
54975W        W27290   7.249  11.812   5.287
54976W        W27291  20.140  20.175   2.273
54977W        W27292  40.339  24.624  12.844
54978W        W27293  17.144  11.729   4.820
54979W        W27294  39.953  25.076   4.273
54980W        W27295  39.905  38.863  10.527
54981W        W27296  17.142  40.965  14.774
54982W        W27297  18.081   0.261   2.330
54983W        W27298   2.378  32.401   2.758
54984W        W27299  15.640  28.960  13.044
54985W        W27300  18.717  22.222  11.125
54986W        W27301  10.161  20.726   4.817
54987W        W27302  28.543  38.821   3.255
54988W        W27303  11.287  14.332  10.459
54989W        W27304   1.348  10.171   4.828
54990W        W27305   6.752  17.223   3.797
54991W        W27306  30.457  33.495  12.054
54992W        W27307  25.080  15.093   1.846
54993W        W27308  21.202  18.721   2.340
54994W        W27309  25.512  38.424   1.903
54995W        W27310  26.061   5.226   3.225
54996W        W27311  31.924  19.742   3.644
54997W        W27312  34.397   6.876  14.802
54998W        W27313  12.729   7.687  14.367
54999W        W27314  26.115  22.045   2.178
55000W        W27315  19.159  18.247  10.988
55001W        W27316  43.851  37.422   3.359
55002W        W27317  14.823  39.849  11.120
55003W        W27318  23.094  42.381   3.257
55004W        W27319  35.045  12.661  10.408
55005W        W27320   2.417  24.647  12.867
55006W        W27321  27.541  33.483   2.238
55007W        W27322   7.717  29.039  12.054
55008W        W27323   3.875  16.174  14.286
55009W        W27324  28.026  10.340  11.373
55010W        W27325  18.624  28.455   1.311
55011W        W27326   2.726  43.780   3.812
55012W        W27327  32.973  42.524  10.535
55013W        W27328  37.371  41.371  10.522
55014W        W27329  12.254  16.229  11.379
55015W        W27330   4.721  16.233  14.025
55016W        W27331  27.628  42.832   4.675
55017W        W27332   1.830  22.137   2.832
55018W        W27333   0.886  41.515  13.821
55019W        W27334  12.184  40.976   4.320
55020W        W27335  43.877  23.701  13.967
55021W        W27336  17.181  17.716  14.997
55022W        W27337   6.187  18.211   5.280
55023W        W27338  36.959   5.327   1.734
55024W        W27339  27.583  32.102   5.257
55025W        W27340  35.373  34.429  11.397
55026W        W27341  14.304  10.733  13.505
55027W        W27342  18.250   8.205   3.674
55028W        W27343  12.321  17.758  13.853
55029W        W27344  21.234  18.595   3.164
55030W        W27345  29.071  17.297  11.383
55031W        W27346  24.580   0.466  13.887
55032W        W27347   8.368  13.344   0.951
55033W        W27348  10.176   6.807   4.334
55034W        W27349  42.782  32.607   0.245
55035W        W27350  21.111  36.480   2.826
55036W        W27351  27.617   9.328   1.900
55037W        W27352  25.117  34.881   0.471
55038W        W27353  37.549  11.244   0.811
55039W        W27354   0.887   3.441  12.420
55040W        W27355  27.548  31.453  10.606
55041W        W27356  20.741  27.535   3.817
55042W        W27357  44.464   9.336  11.969
55043W        W27358  23.136   2.824  10.623
55044W        W27359  16.811  23.614   3.250
55045W        W27360  38.832  12.736  10.098
55046W        W27361   1.875  44.504  11.951
55047W        W27362  44.416   7.885   4.631
55048W        W27363  42.028  33.430  11.104
55049W        W27364  27.014  38.386  14.870
55050W        W27365   6.894  26.962  11.511
55051W        W27366  30.024   0.401  12.087
55052W        W27367  19.138  30.996   0.798
55053W        W27368  17.121  26.693   4.195
55054W        W27369  25.203  10.849  12.418
55055W        W27370  19.762   4.782   3.850
55056W        W27371   5.302  31.126   2.244
55057W        W27372  28.990  41.859  11.865
55058W        W27373  28.481   0.465  13.388
55059W        W27374  35.042  28.167   4.755
55060W        W27375  27.168  22.607   1.257
55061W        W27376  38.870  33.482  10.958
55062W        W27377  28.032  36.942   1.883
55063W        W27378  20.658  34.571  12.380
55064W        W27379  12.184  13.830   3.792
55065W        W27380   5.717   0.316   3.737
55066W        W27381  41.441  25.029  10.553
55067W        W27382  41.868   0.754   3.166
55068W        W27383   6.804   0.789   0.385
55069W        W27384  39.318  32.015   2.264
55070W        W27385  36.929  28.536  14.773
55071W        W27386  37.884  14.683  12.981
55072W        W27387  29.958  24.529  14.454
55073W        W27388  10.638  27.472  10.598
55074W        W27389  42.810  42.428   0.941
55075W        W27390   6.806  42.969   2.341
55076W        W27391  37.455  41.868  12.012
55077W        W27392   7.728  24.216   3.264
55078W        W27393  40.407  23.603  10.603
55079W        W27394  29.437  42.457  11.550
55080W        W27395   0.928  13.139   1.725
55081W        W27396  43.810  37.945   4.311
55082W        W27397  12.656  23.079  14.928
55083W        W27398  25.067  38.540   0.376
55084W        W27399  42.798   3.390   2.191
55085W        W27400  29.434  44.475  12.053
55086W        W27401  36.414  19.075   1.876
55087W        W27402  24.698   1.954  11.940
55088W        W27403   0.492  25.532   0.264
55089W        W27404  18.775   1.857   2.775
55090W        W27405   7.880  20.752   0.840
55091W        W27406   1.775   5.793   3.173
55092W        W27407   5.727  11.166   3.162
55093W        W27408  28.180  32.984   1.350
55094W        W27409   0.379  11.286   1.211
55095W        W27410  27.044  17.155   0.768
55096W        W27411  10.835  24.036   3.297
55097W        W27412  16.085  43.316   0.390
55098W        W27413  16.260  33.125   3.169
55099W        W27414  39.977   5.854  12.545
55100W        W27415   0.896  19.208   0.884
55101W        W27416   2.344  14.771   4.301
55102W        W27417  19.649   7.892   0.859
55103W        W27418  15.713  12.136  11.869
55104W        W27419  41.826  44.867   2.320
55105W        W27420  12.121  23.492  10.900
55106W        W27421   2.293  25.029   3.790
55107W        W27422  18.590  12.727   1.326
55108W        W27423  15.152  23.586  14.022
55109W        W27424  13.308   5.288  10.912
55110W        W27425  34.427   5.405   4.271
55111W        W27426  31.619  11.798  13.050
55112W        W27427   6.228  31.104  12.405
55113W        W27428  29.069  20.249   2.898
55114W        W27429  41.357  19.094  14.383
55115W        W27430  39.371  25.075  13.435
55116W        W27431  32.489   5.334  14.353
55117W        W27432  23.736   0.855   3.247
55118W        W27433  15.771  33.130   0.795
55119W        W27434  16.313   7.847  13.034
55120W        W27435  14.123  37.361   1.309
55121W        W27436  18.779  29.572  13.840
55122W        W27437  13.308  32.584  14.482
55123W        W27438  34.503   8.799  10.564
55124W        W27439  17.579  21.262  10.414
55125W        W27440  32.957  38.949  13.387
55126W        W27441  27.953  18.272   1.732
55127W        W27442  29.629  10.324  13.405
55128W        W27443  30.157   5.738  14.895
55129W        W27444  36.429   6.687   2.292
55130W        W27445  33.936  31.618  12.543
55131W        W27446   7.851  25.567  11.966
55132W        W27447  37.352  31.040  12.834
55133W        W27448  12.856  26.112   3.689
55134W        W27449  28.470  28.082   1.846
55135W        W27450  33.623   9.887   4.611
55136W        W27451   8.385  40.974  12.901
55137W        W27452   4.306  24.480  13.541
55138W        W27453   3.832   5.903  13.541
55139W        W27454  21.154  39.024  11.528
55140W        W27455  38.061  40.002   4.795
55141W        W27456  21.577  24.012   4.324
55142W        W27457  11.168  25.006   1.251
55143W        W27458  29.927  26.015  13.862
55144W        W27459  37.977   5.710  13.833
55145W        W27460  38.515  19.653  14.514
55146W        W27461  19.114  20.266   3.236
55147W        W27462  20.205   8.354  10.457
55148W        W27463  23.589  28.997  10.587
55149W        W27464   3.329  26.000   4.166
55150W        W27465  32.547   5.844   1.902
55151W        W27466   0.857  15.166  11.549
55152W        W27467  13.127   1.825  13.311
55153W        W27468  20.251   1.975  10.143
55154W        W27469  13.119   5.930  14.467
55155W        W27470  18.105  18.734   0.850
55156W        W27471  32.904  42.497  14.278
55157W        W27472  13.257  42.963  14.351
55158W        W27473   3.351  17.226   0.411
55159W        W27474  33.014  33.945   0.830
55160W        W27475  11.836  18.602  14.473
55161W        W27476  38.459  25.540  11.009
55162W        W27477  27.165   5.207  14.465
55163W        W27478  23.652   6.705  10.987
55164W        W27479  10.335  31.967   5.308
55165W        W27480   5.372  31.973  11.584
55166W        W27481  27.041  21.601  14.437
55167W        W27482  37.954   0.414  12.395
55168W        W27483  27.584  40.048  12.480
55169W        W27484  34.390  35.513  12.528
55170W        W27485  25.490  30.595   2.262
55171W        W27486   1.806  12.225   3.784
55172W        W27487  27.182  14.276  14.881
55173W        W27488   2.888   5.923   3.223
55174W        W27489   7.405  18.239  11.061
55175W        W27490   0.285  27.997   1.326
55176W        W27491   4.756  44.312   1.770
55177W        W27492  37.072  39.366  14.801
55178W        W27493  29.583  38.498  10.558
55179W        W27494  18.772  11.831   3.357
55180W        W27495  33.562  22.733  12.977
55181W        W27496  33.100  23.142   4.636
55182W        W27497  15.726   0.279   1.726
55183W        W27498  21.544   5.431  11.530
55184W        W27499  23.725   0.906   0.813
55185W        W27500  42.857  26.140   3.158
55186W        W27501  13.214  23.602   1.309
55187W        W27502  26.632   6.407  13.930
55188W        W27503   2.420  23.519   4.735
55189W        W27504  13.739  19.681   1.797
55190W        W27505  43.351  40.498  12.457
55191W        W27506  32.049  12.136   0.398
55192W        W27507  29.574  34.924   2.262
55193W        W27508  42.485  42.921   3.162
55194W        W27509  14.696  44.441   3.818
55195W        W27510  22.634  30.037   0.320
55196W        W27511  12.293  34.607  12.456
55197W        W27512  11.131   5.773   1.430
55198W        W27513  35.010   4.260   4.269
55199W        W27514  13.633   7.912  12.354
55200W        W27515  11.374   6.424   3.379
55201W        W27516  44.977  43.425  10.432
55202W        W27517   2.884  30.591   2.764
55203W        W27518   4.285  31.480   0.356
55204W        W27519   1.262  38.422   2.872
55205W        W27520   0.880   2.869   1.699
55206W        W27521  44.806  25.144   2.291
55207W        W27522  17.595   2.934  14.985
55208W        W27523  16.295  27.965  10.521
55209W        W27524  17.588  43.863   1.740
55210W        W27525  30.620  28.102  14.759
55211W        W27526  11.298  13.260  11.897
55212W        W27527  27.969  29.501  13.805
55213W        W27528  15.690  44.993   3.251
55214W        W27529  32.032   5.769   1.912
55215W        W27530  24.719  19.741   4.658
55216W        W27531   2.295  13.291  11.410
55217W        W27532  36.933  36.032  10.485
55218W        W27533  30.907  27.016  11.886
55219W        W27534  31.094  11.851   0.469
55220W        W27535  36.000  26.137  14.310
55221W        W27536  38.905  32.999   4.276
55222W        W27537  16.101  32.083   1.213
55223W        W27538  44.807  31.068   3.823
55224W        W27539  42.976  20.596  11.051
55225W        W27540  28.505   2.433  10.988
55226W        W27541   9.731  36.046   0.428
55227W        W27542  15.128  37.026   0.443
55228W        W27543  40.317  43.783  14.993
55229W        W27544  24.153  31.428   3.308
55230W        W27545  34.019   8.205   2.212
55231W        W27546  23.014  26.523   0.930
55232W        W27547  25.574  30.443  13.059
55233W        W27548  18.665  23.156   1.786
55234W        W27549   4.774  16.230   4.691
55235W        W27550  29.076   4.758  12.499
55236W        W27551  25.044  21.558  10.063
55237W        W27552  19.051  41.498   0.755
55238W        W27553  31.909   5.766  13.901
55239W        W27554  36.058  34.411   1.787
55240W        W27555  33.990  28.180   0.791
55241W        W27556  30.473  16.143  13.903
55242W        W27557   7.789   0.329   4.123
55243W        W27558  18.666  23.678   3.711
55244W        W27559  44.263  25.626  14.485
55245W        W27560  20.248  24.191   0.779
55246W        W27561  24.641  10.241  13.414
55247W        W27562  11.830  14.117  14.032
55248W        W27563   9.360  43.501   4.132
55249W        W27564  38.527  32.003  14.947
55250W        W27565  14.764  32.937  14.342
55251W        W27566  30.487  38.993   4.793
55252W        W27567  20.647   5.903  11.908
55253W        W27568  11.282  32.121  14.947
55254W        W27569  35.883  30.143   2.857
55255W        W27570  32.560  30.136  12.494
55256W        W27571  32.899   9.737   2.728
55257W        W27572   7.902   9.304  13.967
55258W        W27573  13.176  13.228  11.021
55259W        W27574  10.190   1.260   1.264
55260W        W27575  23.595  10.865   3.234
55261W        W27576  26.080  41.821   3.683
55262W        W27577  10.351   5.243   4.604
55263W        W27578  18.065  11.691  14.962
55264W        W27579  30.481  17.237   3.150
55265W        W27580  22.560  33.989   0.364
55266W        W27581  15.748  44.439   1.734
55267W        W27582  24.606  10.265  12.389
55268W        W27583  24.579  30.536   0.327
55269W        W27584  10.206   0.939  14.338
55270W        W27585   7.873  31.536  11.423
55271W        W27586  24.664  17.232  13.321
55272W        W27587  30.523  25.615   3.234
55273W        W27588  30.515  31.097  11.986
55274W        W27589  41.950  31.081   3.191
55275W        W27590  25.036  40.432   4.309
55276W        W27591  39.935   5.755  11.538
55277W        W27592  12.266   4.912  10.418
55278W        W27593  30.101  41.303  10.892
55279W        W27594  11.273  14.703  11.922
55280W        W27595  20.764   2.236  11.958
55281W        W27596  38.413   5.882   0.933
55282W        W27597  24.701   4.208  13.478
55283W        W27598  19.747  25.994  10.996
55284W        W27599  33.950  29.536  14.389
55285W        W27600  19.060  21.263   4.226
55286W        W27601  37.972   7.861   3.820
55287W        W27602  38.066  28.461   4.150
55288W        W27603  39.048  33.880  10.586
55289W        W27604   0.811  29.979   4.607
55290W        W27605  40.384  32.101   5.166
55291W        W27606  44.863  31.575   0.806
55292W        W27607   4.273  37.361   4.684
55293W        W27608  38.000  38.960   3.353
55294W        W27609  44.768   4.377  12.491
55295W        W27610   1.279  27.126   0.257
55296W        W27611   1.867  18.634  14.998
55297W        W27612  11.733   4.722  10.615
55298W        W27613  12.285  14.783  10.483
55299W        W27614  14.732   8.266  14.772
55300W        W27615  38.020  40.405   3.751
55301W        W27616  29.591  16.738   0.392
55302W        W27617   3.272  31.107   1.395
55303W        W27618  43.878  20.753   3.738
55304W        W27619  37.017  18.785   4.291
55305W        W27620  21.652  34.963   4.751
55306W        W27621  13.620  37.901  13.985
55307W        W27622  27.959   3.798   2.315
55308W        W27623   7.819   6.224   0.442
55309W        W27624  21.159   1.770  13.861
55310W        W27625   6.397  35.367  10.976
55311W        W27626  12.219  22.536  14.497
55312W        W27627  33.567  38.554  10.535
55313W        W27628   6.236   5.762   4.791
55314W        W27629  34.396  19.593   3.806
55315W        W27630  20.044  43.493  12.074
55316W        W27631   3.763  15.816   3.715
55317W        W27632   3.899  40.513   2.189
55318W        W27633  16.265  16.089   4.334
55319W        W27634  17.069  33.404   2.722
55320W        W27635  12.652  33.452  13.383
55321W        W27636  26.474   8.320   4.177
55322W        W27637  24.157   6.296   3.663
55323W        W27638  43.975  32.592  12.558
55324W        W27639   1.895  22.228  11.934
55325W        W27640  17.726  37.019  11.604
55326W        W27641   0.806  22.234  11.964
55327W        W27642   8.886  37.545  14.392
55328W        W27643   6.215  14.216   9.929
55329W        W27644  41.403  28.543   0.303
55330W        W27645   3.823   0.775  11.574
55331W        W27646  43.371  11.840  11.091
55332W        W27647  28.472  33.551  10.497
55333W        W27648   6.423   3.399   3.850
55334W        W27649  39.914  34.893  14.805
55335W        W27650  17.200   1.451  14.294
55336W        W27651  37.500   4.871  11.448
55337W        W27652  30.996  42.854  11.598
55338W        W27653   9.192  43.967   2.824
55339W        W27654   1.859  18.693   3.755
55340W        W27655  17.179  23.558   1.729
55341W        W27656  23.545  21.045  14.874
55342W        W27657  43.813   0.765  10.493
55343W        W27658  17.235  25.578   2.788
55344W        W27659   7.769  41.931  13.484
55345W        W27660  28.061  28.620   3.274
55346W        W27661  21.738  43.391   4.176
55347W        W27662  26.163  17.610  13.909
55348W        W27663  10.687   8.375   4.805
55349W        W27664  38.956  31.068  11.394
55350W        W27665   9.219  16.594  11.096
55351W        W27666  44.418  37.352   4.690
55352W        W27667  22.031   3.255  13.527
55353W        W27668  25.096  43.367  12.081
55354W        W27669   2.316  44.813  14.970
55355W        W27670  11.350  25.688   2.772
55356W        W27671  42.787  44.296   2.180
55357W        W27672  14.310  37.405   2.363
55358W        W27673   8.202  15.821  10.964
55359W        W27674   9.646   6.799   4.221
55360W        W27675  26.547  30.006   3.697
55361W        W27676   1.275  23.194  13.883
55362W        W27677  30.070  42.416  12.948
55363W        W27678  25.475  32.616  13.375
55364W        W27679  15.164  35.439   2.832
55365W        W27680  34.995  21.071  13.418
55366W        W27681  42.461  39.042   2.234
55367W        W27682   7.380  25.536  12.405
55368W        W27683  20.651   2.936   0.902
55369W        W27684  30.080  37.981  14.000
55370W        W27685  33.056  12.272  14.771
55371W        W27686  21.190  34.023  13.935
55372W        W27687   9.756  31.551  11.014
55373W        W27688  31.638  23.686   0.760
55374W        W27689  30.592  11.356   3.312
55375W        W27690  13.659  41.874   1.446
55376W        W27691   3.729  12.344  10.984
55377W        W27692  35.920  10.224  13.878
55378W        W27693   9.224  10.139  14.440
55379W        W27694   9.225  41.451   0.912
55380W        W27695   8.314  42.019  12.939
55381W        W27696  13.266  16.110   3.642
55382W        W27697  37.999  30.601  12.365
55383W        W27698  24.136   5.788  12.466
55384W        W27699  24.624  21.049  11.460
55385W        W27700  18.055   5.307   2.707
55386W        W27701  31.470   7.341  12.456
55387W        W27702  19.207   6.809   4.643
55388W        W27703  14.131  17.177   1.420
55389W        W27704  41.962  29.533  13.468
55390W        W27705  19.730  29.636   0.356
55391W        W27706  24.218  44.893   3.286
55392W        W27707  10.775  36.567   2.374
55393W        W27708  23.131  11.856  11.916
55394W        W27709  19.091  33.617   3.802
55395W        W27710  14.623   1.394   3.712
55396W        W27711   4.725   6.282  13.829
55397W        W27712   4.404  23.165  11.596
55398W        W27713  11.704  11.652   0.786
55399W        W27714   6.296  26.611  13.049
55400W        W27715  29.144  11.133  13.899
55401W        W27716  32.038  17.575  14.014
55402W        W27717  42.341  36.943  14.417
55403W        W27718  33.583   2.335   0.411
55404W        W27719  44.997  21.141   1.743
55405W        W27720   7.183  21.630  10.926
55406W        W27721  23.657  38.917   0.838
55407W        W27722  26.185  24.076   3.325
55408W        W27723  17.117  18.236  14.482
55409W        W27724  39.514   2.773  11.519
55410W        W27725  20.571   1.757   0.333
55411W        W27726  23.579  25.490   1.319
55412W        W27727  13.801  15.271  13.863
55413W        W27728   8.340  36.041   3.758
55414W        W27729  35.403  42.874   5.186
55415W        W27730   6.317  35.544   1.223
55416W        W27731  22.612  26.068   4.629
55417W        W27732   1.814  36.524   3.246
55418W        W27733  12.693  19.100   2.190
55419W        W27734  43.499   3.428   0.851
55420W        W27735  44.996  23.704   0.408
55421W        W27736  27.686  22.694  12.969
55422W        W27737   3.752  30.079  12.882
55423W        W27738  22.029  24.158   1.733
55424W        W27739  36.545   2.370  11.965
55425W        W27740  16.158  21.085   3.301
55426W        W27741  26.551  19.157  10.971
55427W        W27742  25.153  11.801  12.024
55428W        W27743  15.215  32.578   1.432
55429W        W27744   0.866  37.900  12.468
55430W        W27745   7.188  38.879  12.077
55431W        W27746   6.913   7.732   4.621
55432W        W27747   5.212  33.997  14.912
55433W        W27748  17.726  27.614  10.991
55434W        W27749  37.542  34.479   4.653
55435W        W27750  37.440  37.571   5.316
55436W        W27751   4.336  13.708   0.916
55437W        W27752  34.466  22.179  12.421
55438W        W27753  11.815   1.915  14.974
55439W        W27754  27.988   6.192   0.925
55440W        W27755  15.730   7.265   3.807
55441W        W27756  24.988   7.208  14.441
55442W        W27757   2.340  33.070   0.912
55443W        W27758  38.329  10.360   3.360
55444W        W27759   1.900  19.042  14.805
55445W        W27760  43.347  36.052  11.120
55446W        W27761   0.903  35.027   1.695
55447W        W27762  40.877   0.480   0.838
55448W        W27763  33.380  17.567  12.359
55449W        W27764  35.390  32.081   2.685
55450W        W27765   1.735  19.579  13.404
55451W        W27766  41.859  31.058  14.792
55452W        W27767  32.427   5.288   0.825
55453W        W27768  30.627  41.314  12.517
55454W        W27769  43.831  34.426   2.802
55455W        W27770  37.378   0.933  11.049
55456W        W27771  42.979  41.464  14.884
55457W        W27772  35.065  11.143   3.305
55458W        W27773   4.346   1.923   3.689
55459W        W27774   5.313  33.876  11.414
55460W        W27775  26.131  12.284   3.364
55461W        W27776   8.184   3.317  12.926
55462W        W27777  18.718   4.867   4.257
55463W        W27778  28.097  24.998   1.250
55464W        W27779  40.468  37.530   4.642
55465W        W27780  24.993  24.027  11.487
55466W        W27781  30.428   5.261   3.767
55467W        W27782  22.998  12.722  11.882
55468W        W27783  38.372  11.625   3.282
55469W        W27784  22.658  25.060  12.402
55470W        W27785  32.990  22.537   0.256
55471W        W27786  38.426   0.407  13.487
55472W        W27787  32.537  37.880   3.643
55473W        W27788  19.616  23.546   0.471
55474W        W27789   5.374  44.329   0.327
55475W        W27790  39.985  28.050  10.423
55476W        W27791  33.541  18.599  11.423
55477W        W27792   9.350  30.657   1.267
55478W        W27793  34.546  23.169  12.096
55479W        W27794  23.688  37.377  12.563
55480W        W27795  34.034  20.226   2.748
55481W        W27796   9.863  28.669  12.908
55482W        W27797   7.343   5.356   1.749
55483W        W27798   9.837  11.251  14.369
55484W        W27799  20.037  17.608  10.467
55485W        W27800  43.479  12.244  14.280
55486W        W27801  11.676  42.899  13.455
55487W        W27802  18.214  29.141   2.730
55488W        W27803  25.085  31.137   4.129
55489W        W27804  39.343   7.354  12.914
55490W        W27805  27.040   3.884   0.335
55491W        W27806  19.197  35.502   2.767
55492W        W27807  23.223   3.409  10.619
55493W        W27808  23.648   7.892  11.963
55494W        W27809  36.037  25.634  14.998
55495W        W27810  26.540  44.767  13.824
55496W        W27811  20.156  24.070  14.323
55497W        W27812   8.219  30.962  12.484
55498W        W27813  26.184   9.313  14.493
55499W        W27814  39.424   4.365   0.869
55500W        W27815   0.334  36.541   1.833
55501W        W27816  12.347   0.323   1.782
55502W        W27817   1.923  30.624  13.824
55503W        W27818  33.548  38.436  14.765
55504W        W27819  21.555  11.295  13.941
55505W        W27820   5.750  42.792   4.201
55506W        W27821  36.965   7.250   3.230
55507W        W27822  44.871  31.520  14.458
55508W        W27823  12.317  42.485  13.028
55509W        W27824   8.788   2.342  14.358
55510W        W27825  36.526  37.508  11.123
55511W        W27826  43.910  25.176  14.458
55512W        W27827  27.512   0.342   4.283
55513W        W27828   4.939  15.184  10.950
55514W        W27829   6.293  33.916  13.464
55515W        W27830  39.016   5.202  10.132
55516W        W27831  18.150   3.456   0.246
55517W        W27832  17.693  44.911   4.676
55518W        W27833  25.979  22.672   1.817
55519W        W27834  34.036  32.072   0.746
55520W        W27835  26.954  34.608   1.313
55521W        W27836  34.555  14.694   2.778
55522W        W27837  38.330  32.914   3.728
55523W        W27838  19.670  17.141  11.873
55524W        W27839  34.980  19.249  10.602
55525W        W27840  15.767  25.519  10.422
55526W        W27841  20.626  44.904  11.062
55527W        W27842  16.707  14.730  14.467
55528W        W27843  42.515   7.323  13.809
55529W        W27844  33.535  20.061   2.268
55530W        W27845  37.028   3.299  14.350
55531W        W27846  28.093  29.044  12.039
55532W        W27847  38.456  16.077   0.749
55533W        W27848   3.338  24.107  14.332
55534W        W27849  42.398  31.600  13.931
55535W        W27850   1.476   5.893  10.528
55536W        W27851  12.824  36.538   2.371
55537W        W27852  30.910  19.630   2.411
55538W        W27853   6.240  31.043   3.700
55539W        W27854   0.442  19.552   3.694
55540W        W27855  30.128  35.526  11.922
55541W        W27856   9.696   1.261  12.542
55542W        W27857  44.859  29.100  11.568
55543W        W27858  33.095  18.050   2.202
55544W        W27859  24.137  42.432  11.404
55545W        W27860  16.114  44.286   3.799
55546W        W27861  37.901   2.763   3.797
55547W        W27862  39.988  22.090   4.748
55548W        W27863   3.829  43.415  11.553
55549W        W27864  24.985  15.114  13.534
55550W        W27865  20.591  24.091   4.637
55551W        W27866  22.640  24.219  14.983
55552W        W27867  44.273  35.503   0.463
55553W        W27868  33.570  34.537   1.868
55554W        W27869  22.209  26.506   0.274
55555W        W27870  21.111  14.230   4.316
55556W        W27871   0.848   7.391  13.871
55557W        W27872   0.310  44.307  13.412
55558W        W27873  41.981  13.701   1.720
55559W        W27874  23.090  44.842  13.020
55560W        W27875  30.951  20.718   0.382
55561W        W27876  35.109  18.654  11.468
55562W        W27877  43.502  42.991   3.752
55563W        W27878   8.747  14.210   3.330
55564W        W27879  44.433  37.493  13.952
55565W        W27880  28.501  16.188   4.764
55566W        W27881   1.897  40.304   2.307
55567W        W27882  37.987  14.745  11.447
55568W        W27883  38.873   1.849   1.398
55569W        W27884  11.365  26.982   2.850
55570W        W27885  14.645  31.457   3.859
55571W        W27886  24.689  37.446  12.096
55572W        W27887  32.522  26.014   4.270
55573W        W27888   4.363  37.498   0.894
55574W        W27889   9.881   7.318   4.140
55575W        W27890   7.699   7.396  10.498
55576W        W27891  34.931  19.592  14.349
55577W        W27892  40.814  12.734   0.734
55578W        W27893  15.744  15.129   9.957
55579W        W27894  28.598  37.036   1.699
55580W        W27895   6.213  14.699   4.703
55581W        W27896  42.895  23.609   3.277
55582W        W27897  34.368   5.252   0.364
55583W        W27898  18.146  40.423   5.635
55584W        W27899  27.130  22.244  13.332
55585W        W27900  22.104  14.833  12.554
55586W        W27901  16.606  24.710  11.454
55587W        W27902  11.782  12.301  10.558
55588W        W27903  36.937  37.462   0.324
55589W        W27904  24.538  37.085  12.565
55590W        W27905  17.092   2.374  13.865
55591W        W27906  24.202   8.283  14.961
55592W        W27907  38.328  11.270   1.727
55593W        W27908  39.829  26.993  14.368
55594W        W27909  35.866  17.675  14.394
55595W        W27910  30.116   7.263   0.474
55596W        W27911  32.525  13.769   4.296
55597W        W27912   4.363  31.124   1.439
55598W        W27913  27.546   3.320   2.276
55599W        W27914  21.198  43.893  11.422
55600W        W27915  37.336  16.242   2.778
55601W        W27916  20.261  34.548  13.931
55602W        W27917   5.739  10.227   3.843
55603W        W27918  33.991  34.615  13.393
55604W        W27919  39.882  23.659   2.219
55605W        W27920  25.973  13.653   4.152
55606W        W27921   8.791  41.974  13.966
55607W        W27922   6.396  40.807   1.427
55608W        W27923  44.453  41.818   3.325
55609W        W27924  29.536  26.962   1.439
55610W        W27925  10.834  15.789  13.848
55611W        W27926  33.071  27.198  13.977
55612W        W27927  29.929   2.359   3.198
55613W        W27928   8.748   2.230   1.894
55614W        W27929  40.423   6.306  13.921
55615W        W27930  36.942  24.685   1.424
55616W        W27931  31.511  23.179   4.746
55617W        W27932  41.906  33.545  12.875
55618W        W27933  37.483  35.007  14.384
55619W        W27934   4.316  14.187   1.219
55620W        W27935   1.946   9.644   1.264
55621W        W27936  15.149  12.704   3.705
55622W        W27937  16.670  12.167   2.417
55623W        W27938   7.261  17.275   1.451
55624W        W27939  35.074  13.178   3.298
55625W        W27940  24.129  35.375  13.545
55626W        W27941   1.458  19.105  12.962
55627W        W27942  42.466  21.515  14.429
55628W        W27943  16.646   7.700  12.845
55629W        W27944  21.541   4.240   2.208
55630W        W27945  38.514  10.252  11.893
55631W        W27946  16.754  16.298   3.145
55632W        W27947  10.205  42.029   0.268
55633W        W27948  17.627  20.126  14.294
55634W        W27949  19.072  39.895   5.277
55635W        W27950  39.979   9.760  12.491
55636W        W27951   6.411   0.431   3.773
55637W        W27952   0.420   6.872  13.990
55638W        W27953  30.116  39.320  11.416
55639W        W27954  35.853  24.720  10.621
55640W        W27955  14.199   4.866  14.990
55641W        W27956  19.718  24.559  14.890
55642W        W27957  30.983  26.058  10.493
55643W        W27958  14.156  30.606  12.560
55644W        W27959   2.781  23.009  13.820
55645W        W27960  10.703  22.203   2.800
55646W        W27961  36.466  28.028   1.746
55647W        W27962   9.329  36.979   2.793
55648W        W27963  30.086  38.469   1.934
55649W        W27964  39.489  22.582  13.893
55650W        W27965   7.186   1.952  11.547
55651W        W27966  44.410   7.885   3.318
55652W        W27967   8.323   6.363   1.803
55653W        W27968   8.798  16.574   0.317
55654W        W27969  21.186  30.436  12.520
55655W        W27970  40.530  41.815   2.692
55656W        W27971  38.963  42.843   3.681
55657W        W27972  14.197  35.389   0.940
55658W        W27973   7.817  32.490  12.557
55659W        W27974   6.733  21.171  14.450
55660W        W27975   8.743   2.387  14.765
55661W        W27976  42.406  30.042  13.500
55662W        W27977  44.931   5.688   0.291
55663W        W27978   3.450  34.487  12.876
55664W        W27979  27.982   6.741   4.767
55665W        W27980  38.418  44.456  11.413
55666W        W27981  20.028   7.888  11.428
55667W        W27982   6.747  38.528   3.787
55668W        W27983  14.636  16.195  11.128
55669W        W27984  38.443  20.052  11.061
55670W        W27985  11.836  31.943  10.929
55671W        W27986  23.578  35.896   0.841
55672W        W27987  31.623  43.898   3.361
55673W        W27988  15.127   0.454  11.567
55674W        W27989  33.909  21.513  12.850
55675W        W27990  27.487  30.095   4.321
55676W        W27991   3.435  18.061   0.751
55677W        W27992  24.095  25.097   0.474
55678W        W27993   0.477  43.863  12.482
55679W        W27994   8.795  36.550   2.216
55680W        W27995   6.392  42.776   3.231
55681W        W27996   5.340  19.085   2.714
55682W        W27997  14.676  44.778  11.557
55683W        W27998  23.047  26.002  13.335
55684W        W27999  29.539  43.417  12.980
55685W        W28000   6.279  19.635  12.899
55686W        W28001  19.641  16.640   4.143
55687W        W28002  17.166  35.005  10.155
55688W        W28003  38.028  32.051   3.309
55689W        W28004  19.669  24.194   5.232
55690W        W28005   5.758   2.735   1.388
55691W        W28006  29.606  16.741   2.753
55692W        W28007   5.891  20.258  12.368
55693W        W28008   7.272  19.154   2.261
55694W        W28009   0.431   1.299  11.020
55695W        W28010  37.903  28.013   2.202
55696W        W28011  29.005   7.808   4.333
55697W        W28012  25.007  34.928   3.254
55698W        W28013  39.911  15.205  11.400
55699W        W28014  12.705   4.420  13.515
55700W        W28015   7.369  19.233   3.696
55701W        W28016  41.497  10.802  11.952
55702W        W28017  33.449  15.761   9.929
55703W        W28018   8.320   8.665  10.907
55704W        W28019  38.429  26.109   1.800
55705W        W28020  36.990   2.863   1.308
55706W        W28021  23.700  12.284  11.083
55707W        W28022  12.626   8.851  12.557
55708W        W28023  30.424   6.311   3.719
55709W        W28024  23.147  17.557   2.356
55710W        W28025  24.494  26.594   2.734
55711W        W28026  30.096  38.052   4.181
55712W        W28027  28.155  27.013  14.331
55713W        W28028  27.093   7.730  13.004
55714W        W28029  10.239  16.590   9.976
55715W        W28030   3.766  26.029   3.693
55716W        W28031   6.336  42.807  12.971
55717W        W28032  34.387  16.304   3.693
55718W        W28033  33.055  13.822   2.214
55719W        W28034  17.730  33.016  14.931
55720W        W28035  14.794  29.526   0.865
55721W        W28036  29.578  19.120   0.739
55722W        W28037  31.423   4.356   0.863
55723W        W28038  12.689  13.771  13.052
55724W        W28039  32.079  36.432   2.404
55725W        W28040  31.954  14.594  13.418
55726W        W28041   7.754  25.468   1.445
55727W        W28042  20.666  31.410   0.794
55728W        W28043   5.223  34.102   0.764
55729W        W28044  27.155  26.600   4.322
55730W        W28045  18.649  13.305  10.490
55731W        W28046   1.482  34.577  12.521
55732W        W28047   0.839  28.059   4.666
55733W        W28048  17.107  21.155   4.777
55734W        W28049  33.105  12.255   3.635
55735W        W28050  37.533   2.766  11.536
55736W        W28051   3.751  28.597   2.871
55737W        W28052  32.528  44.469   0.440
55738W        W28053   9.191  40.912   0.469
55739W        W28054  29.165  16.689  10.539
55740W        W28055   0.974   2.817  10.062
55741W        W28056  20.055  31.470  12.071
55742W        W28057  19.201  32.550  13.987
55743W        W28058   7.802  21.514   0.257
55744W        W28059   2.385  12.188  13.520
55745W        W28060  20.130  22.666  14.316
55746W        W28061  27.687  37.034  10.923
55747W        W28062   5.834  37.913  12.863
55748W        W28063  17.114  27.592   2.664
55749W        W28064  31.591   4.864  14.458
55750W        W28065  12.233  18.279   4.166
55751W        W28066  33.035  16.588   3.241
55752W        W28067  30.027  43.438   1.921
55753W        W28068  31.152  41.360   3.782
55754W        W28069  16.567   8.262  11.415
55755W        W28070  14.625  12.126  11.887
55756W        W28071  39.495  25.967   1.441
55757W        W28072  19.149  33.428   2.861
55758W        W28073  35.977  25.105  14.954
55759W        W28074   5.315   2.463  14.416
55760W        W28075  34.911   2.748  12.468
55761W        W28076  43.851  33.033  11.071
55762W        W28077  19.094   3.907  13.453
55763W        W28078  33.459  37.948  13.822
55764W        W28079  41.903  41.805   1.827
55765W        W28080  41.513   5.283  13.837
55766W        W28081  22.615  38.865  10.447
55767W        W28082  26.702   5.801  10.971
55768W        W28083   1.922   2.936   1.233
55769W        W28084  12.641  34.512  14.370
55770W        W28085  16.176  24.996   2.187
55771W        W28086  20.161  25.988   3.646
55772W        W28087  25.050   7.803  11.483
55773W        W28088  10.749  32.080  14.328
55774W        W28089  36.942  40.026  14.957
55775W        W28090  44.855  14.819  13.874
55776W        W28091  18.246   2.368  14.885
55777W        W28092  43.390  27.176  10.923
55778W        W28093  29.446   8.883  14.300
55779W        W28094   4.829   3.284   1.253
55780W        W28095  25.678  27.090  14.299
55781W        W28096  15.259   3.305  13.417
55782W        W28097   9.709  42.303   2.856
55783W        W28098  30.089  16.700   3.705
55784W        W28099  42.389  39.494   2.698
55785W        W28100   9.334  26.149  10.984
55786W        W28101   6.391   2.831   2.858
55787W        W28102  25.207   0.872   0.418
55788W        W28103  39.359  21.250  12.921
55789W        W28104  43.319   2.390  11.921
55790W        W28105  27.631   4.759   4.139
55791W        W28106   3.829   5.876   2.779
55792W        W28107  27.974  23.121  13.507
55793W        W28108  17.677  28.932   0.287
55794W        W28109  30.962   6.723   0.836
55795W        W28110  44.456  42.421   1.344
55796W        W28111  27.131   7.315   9.462
55797W        W28112  41.400  32.888  13.492
55798W        W28113   0.946   6.821   1.787
55799W        W28114  39.408  25.189   1.866
55800W        W28115  18.143  42.346  11.993
55801W        W28116  34.009  19.746   4.298
55802W        W28117  43.386  32.905  14.885
55803W        W28118  41.318  29.571   2.340
55804W        W28119  18.693  30.980  11.590
55805W        W28120  29.575  18.245  12.449
55806W        W28121  26.648  22.603  10.988
55807W        W28122  30.518  27.108  11.491
55808W        W28123  19.598  44.963   3.818
55809W        W28124  20.249   6.258   4.232
55810W        W28125   3.295  23.052  11.522
55811W        W28126   2.934  34.110   2.236
55812W        W28127   4.878  17.162   0.368
55813W        W28128   7.174  31.984  13.917
55814W        W28129   6.871   1.272   3.777
55815W        W28130  42.502   3.360  10.907
55816W        W28131  16.246  25.081  13.908
55817W        W28132  44.498   7.231  14.283
55818W        W28133  27.019  17.092  14.991
55819W        W28134  24.046  40.407  12.949
55820W        W28135  13.670  34.535   2.847
55821W        W28136   4.358  26.528   1.771
55822W        W28137  10.335  15.796   2.731
55823W        W28138   1.397  20.719  10.413
55824W        W28139  43.339  38.510   2.871
55825W        W28140   2.779  11.816  12.048
55826W        W28141   3.863  38.424  14.023
55827W        W28142  41.011  20.602   2.902
55828W        W28143  32.957  25.570   2.807
55829W        W28144  39.933   8.832  11.089
55830W        W28145  27.602   8.845  11.084
55831W        W28146  34.885  36.085  10.036
55832W        W28147  27.173  16.232   2.741
55833W        W28148  36.097  43.807  14.506
55834W        W28149  16.782  40.855  12.879
55835W        W28150  39.502  22.100  14.985
55836W        W28151  36.475  37.353   4.305
55837W        W28152  14.232  32.895  14.814
55838W        W28153  22.176   3.734   1.893
55839W        W28154  30.583   1.796   0.368
55840W        W28155   3.420   2.465   4.738
55841W        W28156  17.247  40.053  12.982
55842W        W28157  26.459   8.703   4.313
55843W        W28158  18.647  27.128   4.258
55844W        W28159  21.573  38.371  13.984
55845W        W28160  27.661  26.102  13.971
55846W        W28161  31.077  25.616  13.536
55847W        W28162  30.425  33.114   2.816
55848W        W28163  16.685  30.475  11.093
55849W        W28164  44.869  11.865   4.351
55850W        W28165  24.060  15.595   0.808
55851W        W28166  17.149  30.140  14.808
55852W        W28167  24.023  39.065  10.953
55853W        W28168  28.140   3.286  11.435
55854W        W28169  39.424  30.001   1.725
55855W        W28170  30.102  38.427   0.907
55856W        W28171  36.446  38.001  10.989
55857W        W28172  21.516   4.861   3.177
55858W        W28173  34.414   2.800   3.781
55859W        W28174  34.915  44.304   1.699
55860W        W28175  44.893  19.213  13.005
55861W        W28176  18.748   4.888   1.758
55862W        W28177  16.118  17.676   1.797
55863W        W28178   5.799  10.167  10.515
55864W        W28179   6.920  20.681  10.912
55865W        W28180  30.435  12.727   1.291
55866W        W28181  36.923  26.064  10.997
55867W        W28182   2.472  10.249   1.328
55868W        W28183  28.014  21.700  11.089
55869W        W28184  28.449  11.201  11.934
55870W        W28185  36.950  16.744  13.436
55871W        W28186  41.979  19.197  13.522
55872W        W28187   2.862  40.508  12.350
55873W        W28188  39.460  38.968  10.903
55874W        W28189  13.791   3.942   2.244
55875W        W28190  19.597  30.632  11.541
55876W        W28191  39.445   2.770   0.898
55877W        W28192  17.126  43.325  14.418
55878W        W28193  17.651  12.788   2.809
55879W        W28194  37.022   4.235  10.434
55880W        W28195   1.273  10.755   2.187
55881W        W28196  18.224  12.801   2.709
55882W        W28197  32.498  38.560   0.305
55883W        W28198   1.791  23.226  12.465
55884W        W28199   6.185  20.201  13.462
55885W        W28200  27.140   3.893  12.844
55886W        W28201  24.135   4.269  12.060
55887W        W28202  28.588   1.753   1.884
55888W        W28203  20.224  18.598   3.855
55889W        W28204  10.879   4.398   3.804
55890W        W28205  36.534  26.151   4.812
55891W        W28206  34.956  30.491   4.158
55892W        W28207  42.440  29.572   3.273
55893W        W28208  22.599  34.533  13.826
55894W        W28209   7.749  36.482  12.480
55895W        W28210  30.098  12.636  12.431
55896W        W28211   3.882  38.365  10.582
55897W        W28212  12.326  15.635  13.457
55898W        W28213  18.571  42.822  14.843
55899W        W28214  17.187  26.518   5.209
55900W        W28215  40.458  41.321  12.071
55901W        W28216   9.765  11.790   4.699
55902W        W28217   7.908  29.150   4.177
55903W        W28218  42.838  39.878  12.445
55904W        W28219  21.693   3.896   0.879
55905W        W28220   7.357  13.146   2.848
55906W        W28221  42.309  12.765  14.020
55907W        W28222  38.919   6.682   1.919
55908W        W28223  22.128  16.808  10.916
55909W        W28224   5.927  41.502  13.312
55910W        W28225  18.600  20.267  12.549
55911W        W28226   4.740  18.678  13.957
55912W        W28227  43.010  25.015  12.991
55913W        W28228   4.766  11.206  13.470
55914W        W28229  29.920   6.269   0.326
55915W        W28230  39.373  44.272   0.872
55916W        W28231  23.734   3.925  11.596
55917W        W28232  38.853  19.717   2.782
55918W        W28233   5.778   3.245  12.093
55919W        W28234  22.691  28.964   3.663
55920W        W28235  24.711  30.083  12.945
55921W        W28236  36.435  37.556  12.468
55922W        W28237  16.570   2.286  11.435
55923W        W28238   7.394  38.361   2.230
55924W        W28239  30.006   9.685   3.208
55925W        W28240  19.045   9.679  14.890
55926W        W28241   1.910  24.105  12.074
55927W        W28242  12.695  24.104   0.402
55928W        W28243  29.600  24.629   3.865
55929W        W28244   9.853  15.220   0.466
55930W        W28245  24.138  30.015   4.194
55931W        W28246   4.782  35.974   3.338
55932W        W28247  29.128  20.125   3.648
55933W        W28248   0.846  40.984  14.335
55934W        W28249  37.838  28.563  10.571
55935W        W28250  38.878  37.875  10.951
55936W        W28251   4.874   3.230  10.894
55937W        W28252   9.367  14.263   3.821
55938W        W28253  13.630   7.222   3.667
55939W        W28254  41.002  39.004   4.195
55940W        W28255  18.644  19.044   2.396
55941W        W28256  39.493  21.522  13.035
55942W        W28257  24.193  44.838  11.122
55943W        W28258   5.198  36.933   2.273
55944W        W28259   1.330  24.523   4.141
55945W        W28260  12.736  22.656   1.827
55946W        W28261  10.176  34.586   2.778
55947W        W28262  39.064  38.864  13.307
55948W        W28263  42.973   4.365  12.547
55949W        W28264  39.814  17.589   1.827
55950W        W28265  11.773   1.932   1.901
55951W        W28266  21.147   5.766   3.361
55952W        W28267  24.615  20.753   5.281
55953W        W28268  39.809  31.424  14.390
55954W        W28269  22.188  17.307  14.762
55955W        W28270  43.950  14.157  14.392
55956W        W28271  19.568  22.564  13.373
55957W        W28272  31.063  41.020   2.841
55958W        W28273  21.657  42.402   0.897
55959W        W28274  32.484  27.485   1.418
55960W        W28275  12.686  32.999  14.910
55961W        W28276   1.765  40.871  11.371
55962W        W28277  42.897  28.943  12.931
55963W        W28278  31.909  37.973   1.729
55964W        W28279   5.845  30.121  12.883
55965W        W28280  44.285   1.407   1.872
55966W        W28281  36.967   3.866   0.298
55967W        W28282  26.173   1.813   1.718
55968W        W28283   9.155   5.839   4.154
55969W        W28284  34.578  31.620  11.449
55970W        W28285  11.750   0.442   3.675
55971W        W28286  30.453  22.618   2.220
55972W        W28287  35.897  16.161   1.695
55973W        W28288  42.030   7.174   1.923
55974W        W28289   0.309  35.077   0.955
55975W        W28290  41.901  22.520  13.384
55976W        W28291  26.511  22.046   0.244
55977W        W28292   9.783   4.797  11.389
55978W        W28293  22.177   1.799   1.812
55979W        W28294   0.801  39.882  13.396
55980W        W28295  16.245   9.328   2.814
55981W        W28296  14.306  10.249   1.413
55982W        W28297   9.674  39.375  11.986
55983W        W28298  18.665  31.633   3.215
55984W        W28299  22.688  17.109   0.463
55985W        W28300  14.762  21.154  11.097
55986W        W28301  21.086   5.905  13.939
55987W        W28302   4.282  28.441   0.440
55988W        W28303  31.551  44.355   4.676
55989W        W28304  27.674  37.934  12.048
55990W        W28305  25.170  34.465   3.163
55991W        W28306  21.050  14.610  11.594
55992W        W28307  42.340  29.432  13.528
55993W        W28308  28.549  42.786  11.935
55994W        W28309   8.774  21.739   4.255
55995W        W28310  27.078  39.535   1.374
55996W        W28311  43.989  28.050  14.785
55997W        W28312  34.492  12.325   4.273
55998W        W28313  40.422  24.582   5.269
55999W        W28314  10.163   1.751  10.613
56000W        W28315   8.691  21.178   3.732
56001W        W28316  11.216  15.121   0.754
56002W        W28317  30.911  40.880  14.013
56003W        W28318   4.931  20.531   3.780
56004W        W28319  37.429   5.310   2.693
56005W        W28320  41.478  22.532  12.074
56006W        W28321   3.890  24.169   4.659
56007W        W28322  43.336   5.767   1.406
56008W        W28323  11.655  11.313   4.650
56009W        W28324  39.867  20.642   0.775
56010W        W28325  12.693  32.527   2.250
56011W        W28326  32.462  16.259   3.229
56012W        W28327  15.192  37.468  12.376
56013W        W28328  21.090   3.423  13.458
56014W        W28329  22.210  31.567   0.424
56015W        W28330   8.278   1.786   1.931
56016W        W28331  38.462   8.803   0.877
56017W        W28332   7.874   8.404   0.784
56018W        W28333  23.001   8.285   2.363
56019W        W28334   2.268  10.853   4.722
56020W        W28335  11.239  31.545   0.806
56021W        W28336  19.621  37.900   1.891
56022W        W28337  15.717  42.513  13.519
56023W        W28338  37.359  39.389  11.108
56024W        W28339  27.135  25.168  14.478
56025W        W28340   3.933  35.440  12.406
56026W        W28341  39.946   6.245  11.990
56027W        W28342  35.589  23.096   0.903
56028W        W28343   1.392  20.173  14.860
56029W        W28344  18.270   2.733   3.834
56030W        W28345  28.934  41.452  14.477
56031W        W28346   4.903  10.798   0.890
56032W        W28347  39.315  12.619   1.836
56033W        W28348  40.441  34.451   1.730
56034W        W28349  20.245   8.707  14.759
56035W        W28350   3.340  39.456   4.687
56036W        W28351  21.062   8.374  14.991
56037W        W28352   4.875  35.091  13.465
56038W        W28353  44.848   6.906  12.074
56039W        W28354   7.885   6.677  11.067
56040W        W28355  40.320  36.953   0.376
56041W        W28356   5.901   2.336  14.956
56042W        W28357   5.261  28.568  11.995
56043W        W28358  24.995  32.460   5.123
56044W        W28359   4.852   4.753   4.129
56045W        W28360  26.510  34.987   3.301
56046W        W28361  34.515  35.549   0.794
56047W        W28362  16.728  10.667   1.924
56048W        W28363   5.784   2.350   2.212
56049W        W28364  25.192  19.553   3.733
56050W        W28365  11.803  38.023   0.847
56051W        W28366  14.324   0.405   0.959
56052W        W28367  15.259  20.140  10.640
56053W        W28368  40.374   1.465   4.706
56054W        W28369   3.913  34.523   2.818
56055W        W28370  38.399  37.379   0.479
56056W        W28371  35.394  19.655   4.779
56057W        W28372  42.476  44.358  13.841
56058W        W28373  34.877  13.165  12.849
56059W        W28374   7.886  27.639  12.017
56060W        W28375  41.343  34.931  12.891
56061W        W28376  31.454   6.718  14.803
56062W        W28377  44.976   6.751   0.429
56063W        W28378  16.244  24.086   2.389
56064W        W28379  28.578  37.358   4.130
56065W        W28380  24.569   2.906  10.952
56066W        W28381   5.715  44.315  14.454
56067W        W28382  40.330  30.916   2.899
56068W        W28383  40.473  11.322  10.500
56069W        W28384  18.172  29.648   2.372
56070W        W28385  15.232  29.039   5.650
56071W        W28386   5.692  29.107  12.874
56072W        W28387   9.785  23.015   4.302
56073W        W28388   8.203  28.585   0.437
56074W        W28389  40.397  11.748  10.495
56075W        W28390  21.189   4.395  13.374
56076W        W28391  39.355  16.124  12.826
56077W        W28392  19.060   8.285   2.771
56078W        W28393  35.006  24.536   3.681
56079W        W28394  16.242  23.501   0.264
56080W        W28395  32.635  25.039  12.432
56081W        W28396  12.118  41.430   4.288
56082W        W28397  10.765  12.185  10.536
56083W        W28398  40.480  29.054  12.846
56084W        W28399  10.647  33.953  14.956
56085W        W28400  33.488  23.648   0.733
56086W        W28401  15.254  28.582   0.341
56087W        W28402  15.823  29.557   3.816
56088W        W28403  16.293  39.923   1.737
56089W        W28404   5.818  33.890  12.340
56090W        W28405  15.698   3.846   3.679
56091W        W28406   3.218  24.035  12.508
56092W        W28407  19.576   8.376   1.222
56093W        W28408  30.036  11.357   3.854
56094W        W28409  35.466  16.786   4.169
56095W        W28410  15.605  18.067   1.866
56096W        W28411  13.170  11.803  13.977
56097W        W28412  31.581  13.658   3.635
56098W        W28413  32.926  38.827   2.380
56099W        W28414  14.117  21.116  11.104
56100W        W28415  23.197  34.469  13.338
56101W        W28416  11.819  11.860   3.340
56102W        W28417   4.378  24.611  12.413
56103W        W28418  33.590   9.830   4.291
56104W        W28419  44.434   5.272  13.046
56105W        W28420  17.297  24.100   2.333
56106W        W28421  12.335  39.895   3.215
56107W        W28422  14.727  25.216  14.494
56108W        W28423  21.729  14.779   1.797
56109W        W28424  12.638   1.763   2.846
56110W        W28425  39.031  20.155  11.494
56111W        W28426  27.510  26.001   1.907
56112W        W28427  36.996  37.083   1.440
56113W        W28428  13.816  33.043  14.336
56114W        W28429  29.440  26.677  12.445
56115W        W28430  18.076   6.733  14.442
56116W        W28431  34.576  19.127  14.376
56117W        W28432  24.095  25.107   1.800
56118W        W28433  21.213  16.763  10.040
56119W        W28434  42.827   9.235   1.720
56120W        W28435  40.966  12.244  11.948
56121W        W28436   9.663  12.182  13.920
56122W        W28437  40.829   1.943   1.932
56123W        W28438  39.904  33.876   2.304
56124W        W28439  37.517   9.219   4.643
56125W        W28440  43.340  18.083   3.727
56126W        W28441  18.278   3.923   1.313
56127W        W28442   0.828   7.812   0.389
56128W        W28443  16.784  43.879   0.806
56129W        W28444  15.296  26.583   3.649
56130W        W28445  13.322  41.809  11.076
56131W        W28446  20.538   1.402   3.755
56132W        W28447  26.132  15.633   1.808
56133W        W28448  27.600  43.353   4.832
56134W        W28449  42.303  37.347  14.804
56135W        W28450   6.891  28.184   2.838
56136W        W28451  11.322  37.386   3.703
56137W        W28452  39.328   2.457  12.857
56138W        W28453  15.731  43.389   0.915
56139W        W28454   1.454   3.902  13.544
56140W        W28455  23.598  41.026   0.281
56141W        W28456  40.379  34.589   4.622
56142W        W28457  23.550  38.350  14.811
56143W        W28458  34.865  12.763   4.811
56144W        W28459   2.827  37.076  13.351
56145W        W28460   5.784  21.637   3.167
56146W        W28461  27.175  12.207  12.905
56147W        W28462  33.874  41.808   1.825
56148W        W28463  22.561   7.271   9.964
56149W        W28464  21.076  37.459   0.323
56150W        W28465  40.845  43.943  10.932
56151W        W28466  36.077  17.800   4.694
56152W        W28467  26.635   3.267  13.505
56153W        W28468   1.303   5.333   1.330
56154W        W28469  24.184  12.656  13.309
56155W        W28470  21.586  28.580   3.658
56156W        W28471  23.040  11.813   2.811
56157W        W28472  17.133  15.662   0.273
56158W        W28473   5.796  11.313  14.337
56159W        W28474   7.262  40.910  10.601
56160W        W28475   8.323  30.048  12.466
56161W        W28476  26.047  22.728  14.908
56162W        W28477  40.972  39.936   0.958
56163W        W28478  38.952   0.252  12.440
56164W        W28479  24.019  29.955   0.265
56165W        W28480   2.850  23.066   0.260
56166W        W28481   0.484   0.441   2.723
56167W        W28482  41.973  43.294  14.826
56168W        W28483   4.336  12.705  13.488
56169W        W28484  19.210  32.006  10.470
56170W        W28485  34.088  23.118  11.504
56171W        W28486  20.208  23.627   1.421
56172W        W28487  25.498  39.823   0.734
56173W        W28488  10.247  38.327  11.524
56174W        W28489  32.471  19.745   4.674
56175W        W28490   8.219  28.047   4.809
56176W        W28491  23.701  40.306  12.475
56177W        W28492  38.381  29.159  12.579
56178W        W28493  16.808   7.805   1.362
56179W        W28494   2.892  19.051   3.360
56180W        W28495   4.223  39.409   4.180
56181W        W28496  22.143  41.532   1.242
56182W        W28497  35.451  31.919  13.910
56183W        W28498  36.041   3.215   1.737
56184W        W28499  16.790  13.126   3.334
56185W        W28500   1.415  40.360   0.935
56186W        W28501   1.826  42.473  10.513
56187W        W28502   0.343  27.955   0.297
56188W        W28503  37.535  14.733   0.382
56189W        W28504  31.999  27.577  12.956
56190W        W28505   9.823  15.309   2.755
56191W        W28506   6.819  17.755   3.630
56192W        W28507  37.409  17.237   4.117
56193W        W28508   1.825  43.771   1.733
56194W        W28509   1.883  25.151  11.385
56195W        W28510  11.148  20.528   4.654
56196W        W28511   4.699  16.079  13.463
56197W        W28512  37.860  14.610   2.292
56198W        W28513  19.751   7.720  13.427
56199W        W28514  30.623   4.326  13.913
56200W        W28515   3.753  25.200   9.956
56201W        W28516   1.900  27.068   1.346
56202W        W28517  22.087  44.753   4.156
56203W        W28518  25.985   6.314   0.477
56204W        W28519  38.457  14.186   1.812
56205W        W28520  43.996  10.250   5.682
56206W        W28521  37.008  32.084  14.978
56207W        W28522  10.857  13.280   0.362
56208W        W28523   9.394   1.483   2.251
56209W        W28524   8.873   3.764  10.890
56210W        W28525  22.747  42.481  11.973
56211W        W28526  37.428  36.517   3.293
56212W        W28527  25.106   8.813   1.278
56213W        W28528  14.756   0.958   1.239
56214W        W28529  35.535  40.477  10.917
56215W        W28530  32.594   7.264   2.877
56216W        W28531   3.738  42.912   1.843
56217W        W28532  28.134   3.869  14.496
56218W        W28533   9.757   2.849  12.539
56219W        W28534  26.171  36.093  13.385
56220W        W28535  44.364  24.479   2.848
56221W        W28536  37.575  10.148   2.207
56222W        W28537  32.887  29.061   0.904
56223W        W28538  30.006  23.637  10.950
56224W        W28539  23.134  21.085   5.300
56225W        W28540  34.591  25.519   0.353
56226W        W28541  23.499  29.458  13.027
56227W        W28542  29.569  16.745   3.302
56228W        W28543   9.836   4.709  14.803
56229W        W28544  41.535   6.779  12.555
56230W        W28545  43.001  41.448  10.638
56231W        W28546  31.527  30.012   0.297
56232W        W28547  13.644  20.225   3.667
56233W        W28548   9.306   6.423   2.202
56234W        W28549  40.021  19.750   0.914
56235W        W28550  12.253   5.194  11.096
56236W        W28551  34.441   6.298  12.850
56237W        W28552  17.797   8.786  10.500
56238W        W28553   9.329  15.139   0.799
56239W        W28554  21.714  23.583   1.907
56240W        W28555  33.894  20.256  14.937
56241W        W28556  26.512  40.367   4.121
56242W        W28557  35.419  18.709  11.090
56243W        W28558  43.773  28.561   0.303
56244W        W28559  10.207  33.601   4.223
56245W        W28560  43.924  20.603  13.438
56246W        W28561  18.066   4.247   0.737
56247W        W28562  13.834  42.519  13.358
56248W        W28563   2.427  16.579  14.924
56249W        W28564  35.520  43.424   4.807
56250W        W28565  44.284  34.489   4.154
56251W        W28566  19.052  15.221   0.961
56252W        W28567  36.865   0.291  12.553
56253W        W28568  13.698  38.845  13.321
56254W        W28569  21.592  13.764   2.870
56255W        W28570  19.780   8.684   1.257
56256W        W28571  38.065   1.940  11.466
56257W        W28572  37.467  35.072  14.982
56258W        W28573  10.648   6.415  11.512
56259W        W28574  37.846   2.350   1.881
56260W        W28575   4.242  15.795  13.809
56261W        W28576   5.370  23.512   4.819
56262W        W28577  10.273   0.807  13.823
56263W        W28578  40.035  38.494  10.439
56264W        W28579  26.202  26.519   4.695
56265W        W28580   4.853  32.933  14.983
56266W        W28581  42.516   9.300   4.641
56267W        W28582  31.471   0.976  13.797
56268W        W28583  20.255  38.425  13.059
56269W        W28584  37.364  17.061  13.012
56270W        W28585  37.408  16.168  12.532
56271W        W28586  18.689   9.781  11.888
56272W        W28587   5.342   9.788   0.353
56273W        W28588  43.420  41.806   4.607
56274W        W28589  42.418  11.682  13.852
56275W        W28590  18.252  39.509  14.365
56276W        W28591   0.406   5.321   1.759
56277W        W28592   5.864  39.924   4.745
56278W        W28593  20.169  31.503   2.411
56279W        W28594  26.597  18.781   3.770
56280W        W28595  36.450   3.270  12.059
56281W        W28596   8.194  14.700   4.178
56282W        W28597   6.255  42.953   1.253
56283W        W28598  44.422  28.142   4.249
56284W        W28599  26.153  15.774   3.146
56285W        W28600   7.856  25.146   1.895
56286W        W28601  30.012  17.775  14.913
56287W        W28602  12.739  37.899   4.787
56288W        W28603  28.464  17.128  11.957
56289W        W28604  19.227  13.814  13.511
56290W        W28605  16.177  32.438   4.158
56291W        W28606  23.223  22.589  12.069
56292W        W28607  25.129   9.254   2.673
56293W        W28608  10.683  12.737  12.075
56294W        W28609   0.323  28.991   1.364
56295W        W28610   6.811   7.394  14.335
56296W        W28611  27.972   8.206   3.757
56297W        W28612   4.878  30.029   0.848
56298W        W28613  18.753   1.405   4.716
56299W        W28614  42.917  22.231  13.469
56300W        W28615  22.678  40.909   4.726
56301W        W28616   6.251  37.900   2.258
56302W        W28617  16.143  11.702  14.827
56303W        W28618  17.626  24.684   3.859
56304W        W28619  31.427  32.584  11.942
56305W        W28620  14.126  34.942  11.605
56306W        W28621  32.889  15.292   1.751
56307W        W28622  25.469  20.053  11.012
56308W        W28623  32.119  43.310  12.553
56309W        W28624  25.511  36.559   3.223
56310W        W28625  39.003   3.386  11.598
56311W        W28626  34.079   8.845   2.747
56312W        W28627  39.334  33.988   1.878
56313W        W28628   0.479   1.876   2.246
56314W        W28629   2.835  17.562  12.886
56315W        W28630  37.041  15.239   0.471
56316W        W28631  38.068  32.995   1.393
56317W        W28632   1.261   9.309   3.352
56318W        W28633  11.715  29.571   0.860
56319W        W28634  15.152  22.507   2.820
56320W        W28635  11.212  26.702  13.883
56321W        W28636  26.100   4.699  13.475
56322W        W28637   3.326  41.854   2.823
56323W        W28638   7.239  21.577  11.443
56324W        W28639   5.691  12.781   1.704
56325W        W28640  33.964  12.646  13.846
56326W        W28641  27.025   2.279   2.346
56327W        W28642  38.495   4.427  10.422
56328W        W28643  12.245  12.308  11.088
56329W        W28644  43.915  29.154  14.282
56330W        W28645  41.835   2.760  10.468
56331W        W28646  16.758  10.252   9.566
56332W        W28647  38.421  41.428  13.329
56333W        W28648  29.976  25.194   1.899
56334W        W28649  35.898  25.567   1.808
56335W        W28650  27.014  26.990  12.969
56336W        W28651  12.782   3.910   2.324
56337W        W28652  13.656  37.916   2.351
56338W        W28653  30.549  31.127   0.870
56339W        W28654  33.576  27.037  13.882
56340W        W28655  16.297  38.361   2.395
56341W        W28656  30.017  14.210  13.355
56342W        W28657  35.369  43.840   3.237
56343W        W28658  10.182   7.250  10.485
56344W        W28659  39.009  31.968   2.851
56345W        W28660   8.670  42.288  14.761
56346W        W28661  23.996   0.779   1.410
56347W        W28662   7.733  18.245  14.348
56348W        W28663  14.263   3.919  12.930
56349W        W28664  10.284  34.499  14.510
56350W        W28665   4.820   3.932   0.807
56351W        W28666   5.756  17.082   0.799
56352W        W28667  42.777  14.598   3.260
56353W        W28668   4.862  33.946  13.428
56354W        W28669   7.787  31.416  12.930
56355W        W28670  25.622   7.257  10.551
56356W        W28671  31.459  38.488   0.466
56357W        W28672  22.524   4.250   0.741
56358W        W28673   7.710  20.229   0.325
56359W        W28674  34.000  19.770   0.874
56360W        W28675  21.063  36.583  11.503
56361W        W28676  44.971  11.139  12.367
56362W        W28677  26.988   1.287  11.014
56363W        W28678  12.273  28.143   4.767
56364W        W28679  18.716  44.789  12.908
56365W        W28680  34.425  32.599  10.568
56366W        W28681   6.796  44.800  14.495
56367W        W28682   8.747  12.690   1.410
56368W        W28683  30.989  32.581   1.768
56369W        W28684  42.366  26.487  11.022
56370W        W28685  15.809  44.327  14.496
56371W        W28686  12.167   5.825  14.798
56372W        W28687  31.070  22.193   1.399
56373W        W28688  38.372  40.840  14.368
56374W        W28689  32.570   5.831   2.681
56375W        W28690  17.150  44.485   2.774
56376W        W28691  26.628  25.609   3.781
56377W        W28692  42.523  13.263   2.371
56378W        W28693  44.416  23.147  11.427
56379W        W28694  31.060   3.419  12.075
56380W        W28695  14.196  18.114   2.860
56381W        W28696   5.245  38.062   3.264
56382W        W28697  14.666  25.478   0.284
56383W        W28698  40.917   3.897   1.274
56384W        W28699  21.586   5.848   1.776
56385W        W28700  41.907   3.722   1.297
56386W        W28701  36.026  26.697  13.334
56387W        W28702   4.364  22.242  12.576
56388W        W28703  28.102  40.500  12.472
56389W        W28704   2.311  35.087  13.344
56390W        W28705  36.006  40.805  11.472
56391W        W28706  37.347   2.249  14.950
56392W        W28707  42.941  23.155   1.276
56393W        W28708   4.922   4.207   0.815
56394W        W28709   7.763  44.443  11.574
56395W        W28710  42.379  10.822   0.811
56396W        W28711   3.403  15.764   3.785
56397W        W28712  20.095  42.972   3.301
56398W        W28713  36.520  33.549  10.894
56399W        W28714  40.850  14.819   4.744
56400W        W28715  38.913  44.794  12.037
56401W        W28716  41.347  18.074  14.801
56402W        W28717  21.719  19.759   1.720
56403W        W28718  26.192  32.972  14.817
56404W        W28719  43.412   6.700   2.844
56405W        W28720  35.935  17.065   3.184
56406W        W28721   1.838  38.946  14.447
56407W        W28722  14.758  42.487  14.965
56408W        W28723  15.713  40.906  10.489
56409W        W28724  19.722  21.630   3.646
56410W        W28725   2.923  22.015   3.838
56411W        W28726  34.514   6.746   4.744
56412W        W28727   4.398  41.032  14.375
56413W        W28728  28.437  28.500  14.318
56414W        W28729  38.539  36.445  13.862
56415W        W28730  40.308  30.639  12.011
56416W        W28731   4.207  38.439   2.399
56417W        W28732  44.867  15.282   4.233
56418W        W28733  30.628  15.663   1.832
56419W        W28734  44.441  31.600  14.850
56420W        W28735   7.217  43.278  14.333
56421W        W28736   8.674  34.502   4.254
56422W        W28737  12.737  42.502  10.956
56423W        W28738  11.318  11.837  12.355
56424W        W28739  33.486   6.277  13.002
56425W        W28740  16.712  31.968  10.109
56426W        W28741  17.788  28.136   1.307
56427W        W28742  23.140  41.898   4.154
56428W        W28743   6.395  41.486  13.316
56429W        W28744   2.449  36.992  12.990
56430W        W28745   9.705  32.601  11.004
56431W        W28746   4.715  33.917  14.948
56432W        W28747  36.442   1.341   2.785
56433W        W28748  34.428  39.031   3.155
56434W        W28749  37.441  12.356  12.089
56435W        W28750  42.506   6.187  14.020
56436W        W28751  35.389  27.149   4.249
56437W        W28752   5.704  13.320   2.347
56438W        W28753  21.184  31.077   0.839
56439W        W28754  41.901  25.090   1.694
56440W        W28755  22.192  22.708   4.196
56441W        W28756  35.101  19.080   1.440
56442W        W28757  27.047   0.336  10.533
56443W        W28758  28.941  40.321   1.403
56444W        W28759   3.308  14.168  11.536
56445W        W28760   8.854  28.525   4.683
56446W        W28761   9.307  34.996   3.232
56447W        W28762  20.066  12.256   2.783
56448W        W28763  27.692   2.395  12.574
56449W        W28764  42.791  19.053  11.889
56450W        W28765  44.933  22.656  10.990
56451W        W28766   4.905  30.637   3.347
56452W        W28767  43.971  34.958  11.067
56453W        W28768  33.913  40.369  10.609
56454W        W28769  31.540  24.610  14.966
56455W        W28770   0.268  10.160  11.401
56456W        W28771  27.176  41.889  12.516
56457W        W28772   1.825  16.087  12.097
56458W        W28773  26.057  30.925  10.453
56459W        W28774  43.474  27.576   3.224
56460W        W28775   2.357   8.215  11.485
56461W        W28776  37.525  11.326  11.425
56462W        W28777   0.889   9.874  12.494
56463W        W28778   8.217  44.355   3.280
56464W        W28779  15.236  23.134   2.183
56465W        W28780  11.691  18.605   4.606
56466W        W28781  34.423  25.966  12.441
56467W        W28782  24.522  40.530   0.955
56468W        W28783  36.543  39.929  10.600
56469W        W28784  35.386  40.011   2.274
56470W        W28785   3.754  28.946   5.306
56471W        W28786  39.426   4.924   0.947
56472W        W28787   6.330   8.259  13.883
56473W        W28788  32.911   2.307  13.967
56474W        W28789  19.718  34.555   3.665
56475W        W28790  42.002  27.944   3.372
56476W        W28791  18.632  14.718   3.254
56477W        W28792  27.075  18.775  10.474
56478W        W28793  12.297  44.295   0.405
56479W        W28794  35.912  35.057  12.977
56480W        W28795  40.361  20.126  13.525
56481W        W28796   9.652  36.476   4.752
56482W        W28797  21.226  37.581   3.798
56483W        W28798  43.016  10.291  13.893
56484W        W28799   2.870  29.024   1.273
56485W        W28800  41.020  21.648  12.042
56486W        W28801  31.547  12.304  11.966
56487W        W28802   5.311   2.293  11.054
56488W        W28803  20.761  10.752   9.453
56489W        W28804  13.768   1.801   2.805
56490W        W28805  40.872  35.433  13.017
56491W        W28806   2.762  22.614  14.846
56492W        W28807   7.857   3.285   5.106
56493W        W28808  20.673   3.809  12.395
56494W        W28809  11.773  11.349  11.037
56495W        W28810   2.795  21.261   2.409
56496W        W28811  14.254  15.753  10.559
56497W        W28812  42.426  24.044  14.908
56498W        W28813  24.602  38.362  11.430
56499W        W28814   1.914  10.743  12.450
56500W        W28815  33.110   5.854  14.876
56501W        W28816   9.315  23.103  13.063
56502W        W28817  24.057  15.088   2.829
56503W        W28818  40.823  27.151  12.990
56504W        W28819   9.842  12.280   4.720
56505W        W28820  13.731  13.107   2.722
56506W        W28821  16.616  15.098   4.604
56507W        W28822  10.813  41.835  12.867
56508W        W28823  39.917  28.519   2.801
56509W        W28824  36.541   6.701   0.799
56510W        W28825  44.277  25.609  11.529
56511W        W28826  38.367  30.076  14.459
56512W        W28827  24.507  23.205   2.353
56513W        W28828  40.835  23.582  12.938
56514W        W28829  11.132  35.559  10.446
56515W        W28830  31.912  41.820  12.567
56516W        W28831  31.567   1.976   0.416
56517W        W28832  22.150   9.673  11.491
56518W        W28833  14.203  41.396  10.600
56519W        W28834  17.239   2.797   3.187
56520W        W28835  27.522   1.282   4.651
56521W        W28836  42.356  39.868   2.224
56522W        W28837  42.820   8.372  13.926
56523W        W28838  43.894   8.174   0.362
56524W        W28839   0.742  36.590   0.394
56525W        W28840  30.975  14.707   3.268
56526W        W28841  13.658   1.279  13.380
56527W        W28842  23.046  43.442  10.463
56528W        W28843  25.125  25.083  13.983
56529W        W28844  29.950  23.567   0.343
56530W        W28845   2.900   3.317   0.427
56531W        W28846  27.489  28.170   4.830
56532W        W28847  12.297  18.115  12.571
56533W        W28848  12.164   4.779   2.799
56534W        W28849  31.058  35.501  11.946
56535W        W28850  15.666  27.497   3.734
56536W        W28851  29.173  42.481   4.324
56537W        W28852  12.656  37.036  12.506
56538W        W28853   7.201  14.629   2.213
56539W        W28854  32.910  34.944   4.639
56540W        W28855  19.766   7.319  14.317
56541W        W28856  21.263  41.866   3.668
56542W        W28857  41.487  39.036   1.867
56543W        W28858  17.268  27.505  14.389
56544W        W28859  23.679  37.498  10.919
56545W        W28860  32.600  27.165  11.047
56546W        W28861  29.620  10.338   2.275
56547W        W28862  10.381  38.517  14.943
56548W        W28863  28.436  44.360  14.846
56549W        W28864  43.489  10.288  13.331
56550W        W28865   3.789  20.212   0.281
56551W        W28866  10.213  31.583  12.552
56552W        W28867  35.901  11.252   4.233
56553W        W28868  13.812  24.543   4.349
56554W        W28869   4.292  33.016  11.866
56555W        W28870  16.190  34.074  11.441
56556W        W28871   0.251  35.570   1.710
56557W        W28872   3.328  33.477  11.611
56558W        W28873   6.699  28.036  10.580
56559W        W28874   8.738  32.506  11.396
56560W        W28875  29.666  15.767  13.493
56561W        W28876  30.122  23.055   1.903
56562W        W28877  28.665  19.739   0.818
56563W        W28878   4.785  23.038  14.453
56564W        W28879  35.600  11.756   4.168
56565W        W28880  38.855  31.000   3.248
56566W        W28881  41.472  41.495   3.202
56567W        W28882   3.273  40.815   0.825
56568W        W28883  39.997  21.201  10.931
56569W        W28884  13.846  39.361  14.355
56570W        W28885  26.542  43.410  12.553
56571W        W28886  33.959  15.277   4.195
56572W        W28887  13.315  41.373  12.954
56573W        W28888  15.241  44.819  10.444
56574W        W28889  34.973  44.821   2.871
56575W        W28890  30.441  44.355  12.932
56576W        W28891  43.980   3.934   1.934
56577W        W28892   9.741  34.070   3.287
56578W        W28893  43.412  28.644   0.262
56579W        W28894  25.137   1.842   0.454
56580W        W28895  16.156  29.435   3.870
56581W        W28896  25.212  19.607  14.377
56582W        W28897  28.517  44.770   4.255
56583W        W28898  41.396  22.165  10.486
56584W        W28899   1.381   1.442  11.075
56585W        W28900  41.305  42.458  11.432
56586W        W28901  18.091  24.699  14.398
56587W        W28902  20.693  13.801  11.014
56588W        W28903  42.417   2.724  11.910
56589W        W28904   1.946  39.993  10.963
56590W        W28905  43.986  44.400  12.500
56591W        W28906  38.928  13.237   2.331
56592W        W28907  34.421  41.978   1.400
56593W        W28908  42.906  28.186  14.791
56594W        W28909  17.100  27.497  12.947
56595W        W28910   7.848   6.785  10.615
56596W        W28911   4.906  25.991  13.017
56597W        W28912  33.876  18.240  10.893
56598W        W28913  21.662  37.354  11.929
56599W        W28914   0.925   6.799   3.224
56600W        W28915  32.912  37.338   2.818
56601W        W28916  35.006  22.036   1.894
56602W        W28917  31.433   5.419   2.679
56603W        W28918  13.279  37.551  12.519
56604W        W28919  44.869  29.550  11.597
56605W        W28920  20.678  37.982  13.908
56606W        W28921  32.459  42.351  11.384
56607W        W28922  23.140  20.209   0.337
56608W        W28923  10.714  10.356   0.732
56609W        W28924  19.179  39.833  14.462
56610W        W28925  15.177  13.184  12.872
56611W        W28926  26.687  42.885  14.759
56612W        W28927  10.791  40.529   3.352
56613W        W28928   7.404  40.835  13.338
56614W        W28929  30.104  42.971   0.410
56615W        W28930   2.903  34.896   2.178
56616W        W28931  20.529  17.586   1.403
56617W        W28932   8.871  13.621  13.490
56618W        W28933   4.866   4.329  10.572
56619W        W28934   0.326  38.822  13.412
56620W        W28935  43.933  28.092   4.349
56621W        W28936  28.532  40.884   0.872
56622W        W28937  23.037   7.788  12.941
56623W        W28938  43.864  22.562  13.909
56624W        W28939  22.237  31.434   3.865
56625W        W28940  38.367  15.119  14.773
56626W        W28941  17.573  11.257  13.009
56627W        W28942  21.633  34.098   1.828
56628W        W28943  27.173  43.823   3.150
56629W        W28944  27.187   2.312  11.462
56630W        W28945   3.716   3.796  13.965
56631W        W28946  33.892  38.876   4.232
56632W        W28947  34.544  42.379  10.952
56633W        W28948  22.070   5.416   1.788
56634W        W28949  13.642   3.955   4.285
56635W        W28950  12.187  18.671  12.370
56636W        W28951  17.119  10.203   2.394
56637W        W28952  36.064  44.004   3.182
56638W        W28953  13.284  20.099   2.309
56639W        W28954  39.964  36.910   0.776
56640W        W28955  37.050  25.710   5.242
56641W        W28956  44.883  37.350   3.731
56642W        W28957  38.949  29.470  11.397
56643W        W28958  35.918  10.781  14.444
56644W        W28959  31.490  42.460  14.886
56645W        W28960   5.305  40.419  11.527
56646W        W28961   2.779  15.168  13.502
56647W        W28962  37.087  11.264   4.811
56648W        W28963   0.344  44.268   4.264
56649W        W28964  11.160  30.628  10.425
56650W        W28965  10.216  30.459   2.811
56651W        W28966   7.870  40.400   0.877
56652W        W28967  37.077  42.473   0.824
56653W        W28968  19.665  33.010   4.659
56654W        W28969   0.928   8.759  14.970
56655W        W28970   4.340  43.839   2.238
56656W        W28971  17.248  28.574  12.543
56657W        W28972  15.687   5.854   2.318
56658W        W28973   5.906  20.038  13.375
56659W        W28974  35.042  31.574   0.464
56660W        W28975  37.857  22.726  13.878
56661W        W28976  35.950  12.325   0.768
56662W        W28977  17.085   8.749   5.083
56663W        W28978  13.125  13.112  12.017
56664W        W28979  27.586   2.942  12.971
56665W        W28980  34.082  25.038   4.192
56666W        W28981  31.111  20.115   1.792
56667W        W28982  37.078  11.832  12.054
56668W        W28983  11.279   2.896   3.294
56669W        W28984  22.594  44.876   2.284
56670W        W28985   2.446  31.090  11.530
56671W        W28986   1.391  30.628   0.911
56672W        W28987   7.414  18.214  14.437
56673W        W28988  42.304  37.421   1.756
56674W        W28989   8.785   0.809   0.855
56675W        W28990  35.481   4.811  11.961
56676W        W28991   7.852   4.368   4.628
56677W        W28992  25.994  22.067  10.910
56678W        W28993   8.261  34.427   4.282
56679W        W28994  34.943  34.980  12.360
56680W        W28995  16.658  19.582  14.849
56681W        W28996  18.110   2.358   1.850
56682W        W28997  37.369  16.099   0.944
56683W        W28998   3.442  26.961   1.858
56684W        W28999  35.081  40.048   0.342
56685W        W29000   2.460  34.447  12.090
56686W        W29001  36.881  10.840   1.834
56687W        W29002  36.378   2.911  14.949
56688W        W29003  42.444  19.166   4.189
56689W        W29004  18.184  20.153  10.617
56690W        W29005  26.688  26.116  14.020
56691W        W29006   5.236  41.358  12.078
56692W        W29007  18.678  15.819  11.119
56693W        W29008  28.000  26.985  11.561
56694W        W29009  34.114  34.048   3.301
56695W        W29010   3.912  43.377  12.411
56696W        W29011  30.461  35.093   0.299
56697W        W29012  42.323   7.217   4.214
56698W        W29013   5.844  19.047   4.734
56699W        W29014   2.781  44.837  13.428
56700W        W29015   2.743  36.589  13.356
56701W        W29016  29.615  37.381   1.235
56702W        W29017  34.541  10.206   0.369
56703W        W29018  15.227  26.097   4.190
56704W        W29019  38.547  27.688  11.574
56705W        W29020  21.078  38.571  11.407
56706W        W29021  11.362   0.873   0.872
56707W        W29022   3.381  16.318  12.066
56708W        W29023  35.062  34.389   3.209
56709W        W29024  21.068  34.441   1.279
56710W        W29025  31.417   6.877   2.857
56711W        W29026  37.036  29.041   0.360
56712W        W29027  21.710  10.199  10.140
56713W        W29028  41.805  14.165  12.053
56714W        W29029  23.507  21.085   0.800
56715W        W29030   7.295  34.384   1.306
56716W        W29031  40.943  12.797   1.365
56717W        W29032  21.109  35.551   2.253
56718W        W29033  31.945  23.045  14.800
56719W        W29034  37.871  34.055   2.842
56720W        W29035  15.776  12.676   2.310
56721W        W29036  16.244  10.146  13.028
56722W        W29037  23.225  20.535  14.861
56723W        W29038  42.903  13.843  11.090
56724W        W29039  13.343  22.717  14.862
56725W        W29040  32.905  36.374   3.839
56726W        W29041   6.701  35.003  12.541
56727W        W29042  41.458  24.702  11.424
56728W        W29043  27.607   5.338   3.308
56729W        W29044  33.101   7.198   1.220
56730W        W29045  23.563   4.872   3.861
56731W        W29046  31.941  10.230   4.791
56732W        W29047  25.576   8.836  14.476
56733W        W29048  36.559  10.812  11.112
56734W        W29049  23.623  26.536  14.509
56735W        W29050  26.578  30.081  12.973
56736W        W29051  15.797   5.770  12.051
56737W        W29052   5.201  14.142  11.054
56738W        W29053  41.429   4.234   0.302
56739W        W29054  22.141  23.548   3.285
56740W        W29055  33.967  32.955  13.398
56741W        W29056  26.091  16.264   1.787
56742W        W29057  37.956   2.879   4.129
56743W        W29058  17.758  32.597   1.703
56744W        W29059  20.708  18.097   0.386
56745W        W29060   2.277  30.444   4.625
56746W        W29061  34.988  39.535   3.704
56747W        W29062  36.466  32.514  12.910
56748W        W29063  28.476   9.204  13.871
56749W        W29064   9.825  37.555  12.984
56750W        W29065  33.610  19.203   1.300
56751W        W29066  39.521  13.260   0.444
56752W        W29067  30.541  38.969  13.324
56753W        W29068  10.873   8.188  14.848
56754W        W29069  10.332  22.572   4.645
56755W        W29070   9.177   0.271  11.978
56756W        W29071  41.382  41.375   1.891
56757W        W29072   1.936  22.070  10.553
56758W        W29073  14.201  21.559  13.803
56759W        W29074  20.264   5.336  12.481
56760W        W29075   3.773  11.641  10.115
56761W        W29076  36.866  20.637   1.264
56762W        W29077   0.939  14.169   4.304
56763W        W29078   9.741   5.416   2.202
56764W        W29079  36.003  27.066  13.872
56765W        W29080   9.735  11.232  10.638
56766W        W29081  30.527  23.583   1.274
56767W        W29082   8.278  28.514   3.217
56768W        W29083  27.547  22.680  11.972
56769W        W29084  16.212  20.157   3.748
56770W        W29085   8.659  28.591  11.410
56771W        W29086  24.564  16.084  10.949
56772W        W29087   9.198   1.312   4.729
56773W        W29088  27.560  10.854   2.714
56774W        W29089   7.285  11.203  12.836
56775W        W29090  42.827   3.311  13.456
56776W        W29091  36.986  29.093  14.788
56777W        W29092  12.229  36.844   3.762
56778W        W29093  30.054  20.712  13.957
56779W        W29094  42.483  33.950   2.222
56780W        W29095  20.078  38.484  13.884
56781W        W29096  18.668  17.087  10.997
56782W        W29097  28.119  38.958  14.427
56783W        W29098  13.307   3.905  13.441
56784W        W29099   7.310   5.911   2.847
56785W        W29100  16.623  40.434   5.732
56786W        W29101  35.080  43.451  11.082
56787W        W29102  35.978  37.515   4.268
56788W        W29103  33.131  28.565  12.974
56789W        W29104  22.082   8.786  14.788
56790W        W29105  20.608   0.872  13.947
56791W        W29106  40.941   7.340  10.948
56792W        W29107   2.875  37.845   1.262
56793W        W29108   7.311  20.540   1.733
56794W        W29109  15.738   9.265  14.487
56795W        W29110  33.558  18.208   2.806
56796W        W29111  24.213  30.589   3.688
56797W        W29112  16.200  13.187   1.831
56798W        W29113   2.841  28.467  10.945
56799W        W29114   0.904  38.988  12.037
56800W        W29115  16.220  29.630  11.485
56801W        W29116  22.098  12.171  14.836
56802W        W29117  34.420   6.283   2.719
56803W        W29118  15.259  13.836  14.835
56804W        W29119   8.188  31.946   9.922
56805W        W29120  30.969  11.286  14.871
56806W        W29121  23.127  13.815   2.210
56807W        W29122  32.526   0.780   2.866
56808W        W29123  41.315  44.957  11.444
56809W        W29124   8.242   6.816   3.698
56810W        W29125  25.054  11.840   0.398
56811W        W29126  27.682  39.536   4.200
56812W        W29127   1.265  32.444  13.870
56813W        W29128  25.683   6.390  14.317
56814W        W29129  26.142  39.319   1.435
56815W        W29130  13.839   1.241  12.832
56816W        W29131  26.501  24.162  12.482
56817W        W29132  32.084   4.402  11.553
56818W        W29133  33.398   9.271   2.248
56819W        W29134   9.206   4.793   3.683
56820W        W29135  13.250  29.162  11.581
56821W        W29136   9.278   6.227   1.287
56822W        W29137  36.956   8.832   4.773
56823W        W29138  21.059   1.445  10.475
56824W        W29139  44.404  34.514  14.759
56825W        W29140  22.531  34.522   0.394
56826W        W29141   8.727  22.647   0.253
56827W        W29142  27.585  37.886  10.470
56828W        W29143  44.837  41.535  11.909
56829W        W29144   0.880  27.504  13.486
56830W        W29145  43.515  10.638  12.438
56831W        W29146   2.817   7.197  12.906
56832W        W29147  17.603  38.504   2.814
56833W        W29148  23.521  15.269  12.354
56834W        W29149  22.523  25.677   3.351
56835W        W29150   6.754  38.888  13.996
56836W        W29151  10.660  33.017   0.424
56837W        W29152  27.121  32.063   5.592
56838W        W29153  20.727  33.088   3.718
56839W        W29154   5.243  25.131  14.866
56840W        W29155  34.864  25.615  13.831
56841W        W29156   8.668  27.673   1.428
56842W        W29157  19.251  16.802   2.704
56843W        W29158  36.089  14.218   4.781
56844W        W29159   1.949   3.429   2.214
56845W        W29160   3.865  27.190  13.031
56846W        W29161   3.871  27.137  10.959
56847W        W29162  10.700   8.240  12.871
56848W        W29163   3.419  15.613   4.149
56849W        W29164  44.305  44.791   1.401
56850W        W29165   0.779   5.411   3.833
56851W        W29166  24.671  30.924   0.364
56852W        W29167   1.746   4.861  14.394
56853W        W29168  28.982  38.912   1.240
56854W        W29169   8.343  34.975   1.931
56855W        W29170  28.961  39.478   2.691
56856W        W29171  19.729  27.545  13.960
56857W        W29172  15.793  11.220   2.894
56858W        W29173  36.513  18.714   1.289
56859W        W29174   9.648  20.526   3.330
56860W        W29175  18.615  31.957  12.030
56861W        W29176   3.345  18.738  14.475
56862W        W29177   5.828   6.393  11.396
56863W        W29178   9.380   0.889   1.800
56864W        W29179   0.768  33.541   1.267
56865W        W29180   4.754  10.251   1.928
56866W        W29181  27.977   6.371  11.588
56867W        W29182  25.153  12.711   2.371
56868W        W29183  24.989  29.957  14.928
56869W        W29184  30.978  23.496   0.809
56870W        W29185  16.594   3.909  11.557
56871W        W29186   7.258  22.097   1.299
56872W        W29187  23.729  14.641  12.521
56873W        W29188  19.545  43.919  14.827
56874W        W29189  43.879   7.758  11.913
56875W        W29190   5.324  30.019  10.953
56876W        W29191  11.657  16.156  12.487
56877W        W29192  35.884  10.181   2.410
56878W        W29193  29.106  26.155  12.542
56879W        W29194  41.997   1.868   0.777
56880W        W29195   9.784  15.601   0.740
56881W        W29196  11.676   1.463   4.148
56882W        W29197  17.795  31.141  10.937
56883W        W29198  13.682  34.558   0.393
56884W        W29199  15.773  36.984   2.185
56885W        W29200  34.962  34.493  10.911
56886W        W29201   9.822  34.591  12.033
56887W        W29202  10.145  39.061   1.248
56888W        W29203  15.666  19.573  10.968
56889W        W29204  25.116  16.754   3.205
56890W        W29205  31.974  29.597  10.490
56891W        W29206   3.362  18.257  10.452
56892W        W29207  12.145  18.618   2.237
56893W        W29208  33.456   0.774   4.185
56894W        W29209   2.427   6.786  14.003
56895W        W29210  41.367  18.151   1.291
56896W        W29211  32.513  42.931  13.458
56897W        W29212  24.979  37.518   2.226
56898W        W29213   9.239  41.306   3.192
56899W        W29214   7.791  41.847   0.372
56900W        W29215  38.003  41.501   4.652
56901W        W29216  39.437  17.751  11.400
56902W        W29217  41.948  17.741   1.244
56903W        W29218   3.916  24.024   0.947
56904W        W29219  10.810  15.715   3.757
56905W        W29220  31.096  21.681  10.943
56906W        W29221  29.930  41.431  10.487
56907W        W29222  32.974   0.824   0.928
56908W        W29223  33.591  43.393   1.813
56909W        W29224  44.888  15.306  12.501
56910W        W29225  41.386  23.554   1.400
56911W        W29226  16.684  32.500  11.892
56912W        W29227  30.613   8.301   0.380
56913W        W29228  15.255  23.734   3.706
56914W        W29229  27.950  43.340  14.850
56915W        W29230  12.849  16.634  13.401
56916W        W29231  22.723  43.915   0.450
56917W        W29232  28.048   7.237  14.371
56918W        W29233  38.031  10.294   4.620
56919W        W29234  29.017  43.987   3.267
56920W        W29235  30.616  38.055   3.766
56921W        W29236  13.315  41.977  14.465
56922W        W29237  32.918  22.041  13.837
56923W        W29238   3.448  34.383   9.991
56924W        W29239  19.697  15.617  12.954
56925W        W29240  37.961  39.527  13.030
56926W        W29241  39.933  10.676  12.994
56927W        W29242   3.249   1.361   1.785
56928W        W29243  42.362   6.727   3.750
56929W        W29244  21.238  27.473   9.955
56930W        W29245  35.461  12.709   0.865
56931W        W29246  40.324   4.355   0.859
56932W        W29247  35.486  12.245  13.865
56933W        W29248   4.372  40.936  10.943
56934W        W29249  22.127  11.255  10.616
56935W        W29250  12.154  44.780  13.008
56936W        W29251   5.709   4.272   2.807
56937W        W29252  12.219   3.263  11.011
56938W        W29253  14.649  34.427   1.894
56939W        W29254  40.397  25.657   4.779
56940W        W29255  42.355  25.115   2.419
56941W        W29256  42.463  26.079  12.952
56942W        W29257  32.913   9.724   3.361
56943W        W29258   1.957  30.911   4.250
56944W        W29259  13.274  29.436   0.762
56945W        W29260   1.435  13.223  13.339
56946W        W29261   6.705  37.352   4.655
56947W        W29262  34.558   4.787   1.909
56948W        W29263  15.717  35.556  13.405
56949W        W29264   5.390  27.533   3.272
56950W        W29265  34.878  42.995  12.925
56951W        W29266  43.787  23.562   4.667
56952W        W29267  42.484   5.286   4.236
56953W        W29268  20.693  24.170   0.332
56954W        W29269  14.622  36.469   2.796
56955W        W29270  32.499  30.491   3.190
56956W        W29271  43.483  40.312  14.851
56957W        W29272  40.865  34.578   1.334
56958W        W29273  11.746  42.462  14.333
56959W        W29274  16.087  31.442   1.312
56960W        W29275   0.429  31.146  13.921
56961W        W29276   8.789  25.559   1.750
56962W        W29277  16.584  39.959   3.859
56963W        W29278   8.813  23.035  10.604
56964W        W29279  21.682  14.335   4.137
56965W        W29280  37.561   1.447   3.239
56966W        W29281  29.129  10.768  10.553
56967W        W29282  31.911  10.729   1.868
56968W        W29283  11.791  31.955   4.748
56969W        W29284  39.451   5.220  12.563
56970W        W29285  37.978  15.579   1.382
56971W        W29286  11.719   5.212  13.026
56972W        W29287  39.551  23.087   3.727
56973W        W29288  40.469  31.560   1.811
56974W        W29289  32.470  29.022   1.826
56975W        W29290  13.729  27.019   4.600
56976W        W29291  40.835  23.553  12.489
56977W        W29292  23.606   6.291   4.735
56978W        W29293  31.079  17.670   2.826
56979W        W29294  18.211  43.810  11.565
56980W        W29295  15.587   9.337  13.480
56981W        W29296  43.970  25.155  10.464
56982W        W29297   7.376  39.342   0.274
56983W        W29298   1.422  33.115   5.598
56984W        W29299  20.066  40.018  13.007
56985W        W29300  26.475   4.440  13.995
56986W        W29301   9.748  17.581   0.903
56987W        W29302  38.458  42.952  11.601
56988W        W29303  13.275  16.792   4.625
56989W        W29304  30.592  34.515   3.289
56990W        W29305  41.043  13.742  11.075
56991W        W29306   0.377  39.037   1.271
56992W        W29307  40.316   4.215  14.379
56993W        W29308  40.548  13.650   3.654
56994W        W29309  31.932   0.972  14.278
56995W        W29310   4.355  34.878   1.315
56996W        W29311  30.000  34.522  13.530
56997W        W29312  17.164  24.531   0.868
56998W        W29313  28.159  12.198   1.435
56999W        W29314  35.461  26.467   4.748
57000W        W29315  35.055  40.339   4.822
57001W        W29316  18.277  15.648  10.028
57002W        W29317  37.954  13.253   4.705
57003W        W29318  36.052  24.222   3.734
57004W        W29319  39.466  19.175   2.224
57005W        W29320  35.979  40.010  10.944
57006W        W29321   3.947  21.251  13.926
57007W        W29322  13.151  38.414   4.705
57008W        W29323  19.757  27.957  11.969
57009W        W29324  14.277  18.720  11.552
57010W        W29325  10.290   6.382  14.887
57011W        W29326   7.705  30.156   4.178
57012W        W29327  43.382   3.789   0.327
57013W        W29328  28.673  11.341  13.362
57014W        W29329  38.976   7.191   4.128
57015W        W29330  36.593   3.866  12.051
57016W        W29331  41.839  30.033  13.800
57017W        W29332   2.409  37.506  11.128
57018W        W29333   1.321   6.794  12.454
57019W        W29334  11.696  36.047  13.453
57020W        W29335  24.484  44.359   2.384
57021W        W29336  37.084  36.980  14.287
57022W        W29337  29.976  17.612   2.701
57023W        W29338  33.412   8.898   5.128
57024W        W29339  20.769  42.882   0.412
57025W        W29340  44.467  37.974   0.331
57026W        W29341  37.959   7.347  13.827
57027W        W29342  12.243  26.968  12.994
57028W        W29343  43.465  37.357  14.763
57029W        W29344   2.334   1.953  11.901
57030W        W29345  36.973  22.119  14.396
57031W        W29346   2.462  38.860  14.352
57032W        W29347  19.256  40.980   5.138
57033W        W29348  30.969   6.852  11.460
57034W        W29349  31.617   1.878  12.920
57035W        W29350  39.918   0.785  12.342
57036W        W29351  42.367  19.605  11.389
57037W        W29352  21.710   4.260  13.939
57038W        W29353  43.503   2.895  13.899
57039W        W29354  30.427   4.882   3.321
57040W        W29355  31.936  36.883  14.323
57041W        W29356   4.937  13.279  14.371
57042W        W29357  13.700  14.235   3.164
57043W        W29358  25.137  34.549  13.469
57044W        W29359   5.705   1.326  12.880
57045W        W29360  20.264  44.372   1.759
57046W        W29361  24.152  23.596  13.329
57047W        W29362  40.855  24.653  12.490
57048W        W29363  26.982  41.324   0.838
57049W        W29364  26.084  15.151   1.819
57050W        W29365  28.621  15.631  12.014
57051W        W29366  41.929   2.830  14.761
57052W        W29367  36.021   4.753  13.904
57053W        W29368   4.865  37.921   3.714
57054W        W29369   5.912  36.924   4.298
57055W        W29370   6.683  36.844  13.856
57056W        W29371  23.090  16.779  11.906
57057W        W29372  13.138   6.742  11.381
57058W        W29373  10.778  41.411  14.808
57059W        W29374  41.831  12.653  13.415
57060W        W29375  16.260   6.786   0.472
57061W        W29376   9.726  33.063  13.383
57062W        W29377  42.805   1.764   1.896
57063W        W29378  12.297  19.180  13.543
57064W        W29379  25.008  42.032   1.897
57065W        W29380   1.944  43.912  14.398
57066W        W29381  18.221  27.043  13.444
57067W        W29382   9.672  42.338  12.411
57068W        W29383  40.348   5.248   3.684
57069W        W29384  39.429  18.652  13.862
57070W        W29385  28.077  26.664   1.764
57071W        W29386  44.381  19.688   0.428
57072W        W29387  18.582  24.192  13.043
57073W        W29388  30.021  24.717  12.510
57074W        W29389  22.100  40.397  12.424
57075W        W29390   5.313  29.980  13.873
57076W        W29391  25.116  32.478   4.821
57077W        W29392  19.102  24.190   0.782
57078W        W29393  17.072   2.740   1.409
57079W        W29394  28.667  21.677  10.911
57080W        W29395  43.776  12.636  10.569
57081W        W29396  31.600  41.400  14.918
57082W        W29397  16.231   6.713   4.736
57083W        W29398  34.105  28.672   1.420
57084W        W29399  19.710  24.075   4.661
57085W        W29400   5.401  13.809  12.036
57086W        W29401  35.900  42.839   4.335
57087W        W29402  34.396   2.854   0.444
57088W        W29403  15.758  24.996  10.605
57089W        W29404   7.741  18.643  14.000
57090W        W29405  22.547  18.235   2.371
57091W        W29406  28.986  28.169  14.441
57092W        W29407  28.077  18.720  12.558
57093W        W29408  35.485  38.452   1.296
57094W        W29409  40.995  12.216   0.440
57095W        W29410  26.972  27.666  12.364
57096W        W29411  11.840  36.405   4.278
57097W        W29412  27.012  13.167  14.403
57098W        W29413   4.438   6.259  13.796
57099W        W29414  18.057  32.974  13.978
57100W        W29415   2.451  32.985  13.468
57101W        W29416  17.101  14.122   1.808
57102W        W29417  42.017   5.758  13.915
57103W        W29418  17.220  43.820   0.480
57104W        W29419  41.346  19.775  11.928
57105W        W29420  30.160   9.690  10.896
57106W        W29421  27.503  15.613  13.859
57107W        W29422  19.718  35.589  14.440
57108W        W29423  29.102   8.811   0.791
57109W        W29424  29.930  32.546   4.826
57110W        W29425  22.237  10.229  10.940
57111W        W29426   1.292  28.177   4.310
57112W        W29427   9.185  20.730  11.899
57113W        W29428  18.623   3.387  10.069
57114W        W29429  25.473  22.145  13.854
57115W        W29430   5.410  30.627   1.909
57116W        W29431  21.142   8.774  10.012
57117W        W29432   8.271   3.250   4.705
57118W        W29433  30.060   9.378   1.388
57119W        W29434   8.356   6.255  14.934
57120W        W29435  22.591  17.709  12.511
57121W        W29436   2.402   7.820   4.669
57122W        W29437   3.835   0.921  12.557
57123W        W29438  11.243  19.706   3.221
57124W        W29439  27.068  27.611   2.664
57125W        W29440   8.196  12.225  13.866
57126W        W29441   5.701  29.166  14.318
57127W        W29442   1.880  17.127  13.034
57128W        W29443  17.104  26.546  14.500
57129W        W29444  26.149  42.394   4.284
57130W        W29445  36.069  17.574  13.856
57131W        W29446   3.837  30.528  13.347
57132W        W29447   0.451  22.999  11.024
57133W        W29448  37.536  34.006  13.493
57134W        W29449  20.757  37.954  14.484
57135W        W29450  20.671  28.598   4.280
57136W        W29451  31.428  17.785  11.994
57137W        W29452   1.774   9.278  13.799
57138W        W29453  33.573  43.845  12.989
57139W        W29454  32.582  39.458  12.051
57140W        W29455  19.138   9.740   1.287
57141W        W29456  21.187  12.144   1.916
57142W        W29457   8.310   0.796  12.985
57143W        W29458   1.913   7.788  10.996
57144W        W29459  12.816  42.300   2.242
57145W        W29460  39.901   3.318  11.054
57146W        W29461  30.121  37.865   2.232
57147W        W29462  15.774  22.034  14.930
57148W        W29463  26.057  14.648  10.592
57149W        W29464   2.380  20.587  10.633
57150W        W29465  44.791  12.762   3.302
57151W        W29466  33.074  41.822   2.328
57152W        W29467  40.973  44.997  12.442
57153W        W29468  29.066   9.861   1.778
57154W        W29469  17.557  13.185  12.400
57155W        W29470  26.071  39.377  14.949
57156W        W29471  41.995  32.135  11.974
57157W        W29472   5.906  22.521   3.871
57158W        W29473  30.016   9.245  13.425
57159W        W29474  39.836  26.958   3.179
57160W        W29475  21.212   1.435   3.669
57161W        W29476  34.416  21.194  13.509
57162W        W29477  41.310  29.116   4.234
57163W        W29478  21.728  16.645  14.311
57164W        W29479  29.612   8.712   1.882
57165W        W29480   1.949  20.201   2.406
57166W        W29481  21.153   4.419  14.814
57167W        W29482  29.118   9.192   0.898
57168W        W29483  41.429  15.130  14.370
57169W        W29484  23.588  42.914  10.498
57170W        W29485  18.775  33.883   1.797
57171W        W29486  34.943  41.801   0.733
57172W        W29487  28.476  26.077   2.722
57173W        W29488  35.903  39.542  10.413
57174W        W29489  37.517  12.683  12.023
57175W        W29490  17.729  35.878  14.488
57176W        W29491  39.393   6.406  10.535
57177W        W29492  32.046  41.526   0.732
57178W        W29493  25.567  42.806   1.866
57179W        W29494   9.883  34.572   4.326
57180W        W29495  25.640  15.601   4.149
57181W        W29496   9.796   1.939   1.860
57182W        W29497  31.975  27.471   2.361
57183W        W29498  21.648   5.257   0.855
57184W        W29499  42.027  30.524   2.744
57185W        W29500  28.976  33.931  11.429
57186W        W29501  10.275  12.170   1.374
57187W        W29502  28.147   8.197   3.345
57188W        W29503  23.114  21.056   0.352
57189W        W29504  18.080   8.230  14.871
57190W        W29505  39.936  43.015  14.462
57191W        W29506  11.364  17.160  12.946
57192W        W29507  11.850  20.572  14.822
57193W        W29508  25.156  25.108  13.484
57194W        W29509  28.128  17.753   0.467
57195W        W29510  10.738  21.104  14.278
57196W        W29511  39.955  42.314  10.957
57197W        W29512  12.332   6.391   0.465
57198W        W29513  15.120  28.659  11.380
57199W        W29514  31.115   2.890   4.639
57200W        W29515  27.471  32.926   3.304
57201W        W29516  32.396  38.498   1.835
57202W        W29517  24.215   9.362   0.430
57203W        W29518  12.699   3.898  14.891
57204W        W29519  17.565   0.346   3.821
57205W        W29520  25.178  10.842  10.422
57206W        W29521  10.650  39.856   2.303
57207W        W29522   7.841  14.202   1.736
57208W        W29523  44.802  35.030   4.165
57209W        W29524  34.558  23.531  13.410
57210W        W29525  33.423   1.847  12.920
57211W        W29526  35.415  22.605  12.939
57212W        W29527   5.378  16.686   2.722
57213W        W29528  41.493  20.206   4.350
57214W        W29529  33.571  31.426   0.801
57215W        W29530  30.940  21.695   4.207
57216W        W29531  26.486   6.375  11.583
57217W        W29532  28.171  28.951   3.836
57218W        W29533  26.153  22.089   4.668
57219W        W29534   2.381   7.883   2.340
57220W        W29535  33.551  27.169   3.368
57221W        W29536  21.247  23.611  13.806
57222W        W29537  23.102  22.670   4.130
57223W        W29538   0.819  29.155   0.821
57224W        W29539  36.568   8.365  12.922
57225W        W29540   8.716  24.524  12.519
57226W        W29541  15.802  16.079  10.596
57227W        W29542   8.239  23.661   2.826
57228W        W29543  19.772  16.100   4.178
57229W        W29544   4.799  21.039   1.931
57230W        W29545  24.585  36.590  11.885
57231W        W29546   2.749  41.949   0.736
57232W        W29547   5.731  43.825   3.811
57233W        W29548  33.381  35.040   4.266
57234W        W29549  32.127  20.574   2.314
57235W        W29550  32.627  25.032   4.146
57236W        W29551   3.354  27.177   3.670
57237W        W29552  30.647   3.929   4.804
57238W        W29553  38.059   2.790  12.547
57239W        W29554  34.010  13.293   2.284
57240W        W29555   3.811  19.274   3.336
57241W        W29556  35.031   6.863   3.716
57242W        W29557  32.030   4.326   2.898
57243W        W29558  13.237  25.082  13.339
57244W        W29559  23.045   3.347  14.904
57245W        W29560  15.166  27.017   2.838
57246W        W29561  25.069  21.624  14.457
57247W        W29562  16.293   0.758   2.181
57248W        W29563  15.118  31.978   0.944
57249W        W29564  30.547  29.123  13.360
57250W        W29565  40.502  17.609   0.335
57251W        W29566  12.724  44.847   0.456
57252W        W29567  32.088  36.403  12.573
57253W        W29568   7.716  37.443  12.865
57254W        W29569   0.268  31.905  11.016
57255W        W29570  18.647  23.532  12.950
57256W        W29571   5.199  15.212   3.329
57257W        W29572  39.980  35.425   0.356
57258W        W29573  24.179  41.996  11.571
57259W        W29574  22.532  34.888  11.602
57260W        W29575  42.962   9.660   1.314
57261W        W29576  26.647  40.349   2.364
57262W        W29577  24.088  42.805  13.946
57263W        W29578  35.536  32.960  12.865
57264W        W29579  32.142  42.413  14.920
57265W        W29580  43.021  29.970   2.706
57266W        W29581  39.036  11.846   0.316
57267W        W29582  10.858  29.524   1.216
57268W        W29583   2.449  18.126  14.307
57269W        W29584  30.138  30.604   3.783
57270W        W29585   9.776  13.331  11.940
57271W        W29586  10.736  14.154   0.779
57272W        W29587  14.732  39.486   4.236
57273W        W29588  41.840  38.462  12.544
57274W        W29589  21.569  17.585  11.046
57275W        W29590  42.790  32.087   4.826
57276W        W29591  14.754  14.309  12.549
57277W        W29592   4.439  23.200   0.911
57278W        W29593  39.422  18.157  14.325
57279W        W29594  25.470  29.497  12.430
57280W        W29595   8.298  20.037   4.769
57281W        W29596  19.555  33.460  12.568
57282W        W29597  39.379  39.352  14.886
57283W        W29598  13.610   1.921  12.538
57284W        W29599  13.696  22.065  13.945
57285W        W29600  20.232   7.712  10.549
57286W        W29601  30.607  14.688   3.215
57287W        W29602  28.471  13.181  12.495
57288W        W29603  37.351  41.378   3.270
57289W        W29604   2.394   8.252   3.698
57290W        W29605  21.640   7.325   0.461
57291W        W29606   3.844  31.586  11.527
57292W        W29607  42.808   9.846  11.411
57293W        W29608  43.373  25.621  11.995
57294W        W29609   7.814   6.309   1.791
57295W        W29610  16.594  28.557   5.188
57296W        W29611  25.654  14.733  13.021
57297W        W29612   9.797  44.294  10.980
57298W        W29613   9.742  26.558  14.842
57299W        W29614  26.189  16.122  10.589
57300W        W29615  23.562  18.736   2.372
57301W        W29616  16.080  11.821   4.701
57302W        W29617  35.363  20.683  11.924
57303W        W29618  16.286  18.774   1.418
57304W        W29619  26.586  41.496  13.803
57305W        W29620   7.710  33.938   2.834
57306W        W29621  36.507   0.803   2.249
57307W        W29622   3.317  31.447   4.270
57308W        W29623   5.749  25.141  10.421
57309W        W29624  21.103  24.123  11.093
57310W        W29625  34.609  18.589   1.439
57311W        W29626  30.916   0.863  10.131
57312W        W29627  40.809  24.065   4.660
57313W        W29628  41.017   8.280   2.316
57314W        W29629  10.832   4.935  10.558
57315W        W29630   6.902  11.208  13.876
57316W        W29631  21.051   3.214  10.945
57317W        W29632   9.311  22.235   3.800
57318W        W29633  41.020  26.117   3.661
57319W        W29634  13.150  14.305  11.053
57320W        W29635   8.308   8.167  11.899
57321W        W29636   9.384  31.634  11.415
57322W        W29637   4.883   6.864   0.245
57323W        W29638   6.752  37.568  13.315
57324W        W29639  25.025  31.053  14.302
57325W        W29640   9.793  29.988  14.902
57326W        W29641  24.084  13.125   3.726
57327W        W29642  25.133  43.956  12.924
57328W        W29643  24.638  35.016  13.987
57329W        W29644  41.390  42.897   0.475
57330W        W29645  36.589  42.438  14.314
57331W        W29646   7.341  23.092   0.324
57332W        W29647  16.804   2.357   4.191
57333W        W29648  28.139  35.928   4.716
57334W        W29649  39.526  34.484   1.732
57335W        W29650  18.065  30.108  13.526
57336W        W29651  20.641  35.410  14.019
57337W        W29652  22.170  37.362  10.031
57338W        W29653  42.971  29.014   3.362
57339W        W29654   9.714  37.036   3.211
57340W        W29655  21.551  21.609   0.317
57341W        W29656  38.448  44.378  11.125
57342W        W29657  41.930   6.318  10.438
57343W        W29658  22.233  15.320  12.469
57344W        W29659  37.543   4.288   3.279
57345W        W29660  10.844  15.197   2.315
57346W        W29661  44.792   1.252   4.682
57347W        W29662   1.938  16.237   1.400
57348W        W29663  21.543  33.615   2.192
57349W        W29664  37.448  28.146   0.440
57350W        W29665  44.860  17.286  10.019
57351W        W29666  31.962  43.977  14.965
57352W        W29667  16.294  15.190   3.789
57353W        W29668   4.845  17.776   1.780
57354W        W29669   4.319   4.811  11.049
57355W        W29670  23.996  34.978  10.910
57356W        W29671  25.701  15.221   4.782
57357W        W29672  20.612  22.510  11.071
57358W        W29673  16.682  26.146   1.402
57359W        W29674  38.019  23.121   3.652
57360W        W29675  31.094  29.621   4.210
57361W        W29676   3.226  41.458  10.534
57362W        W29677  29.657  27.102  14.339
57363W        W29678  23.659  41.952   2.220
57364W        W29679  33.021  39.480  13.851
57365W        W29680  22.048  24.579   4.707
57366W        W29681   8.683  17.083  10.508
57367W        W29682  39.981  33.965   3.865
57368W        W29683  24.496  37.472   2.794
57369W        W29684  25.568   0.794   4.835
57370W        W29685  19.210  12.667  12.002
57371W        W29686  12.822  41.795  11.979
57372W        W29687   8.659   8.694   1.419
57373W        W29688  17.565  18.108  11.586
57374W        W29689  44.499   8.333   2.281
57375W        W29690  19.259   5.352   2.777
57376W        W29691  42.832   3.256  12.536
57377W        W29692  25.141  25.666  13.795
57378W        W29693  33.097  25.505   0.425
57379W        W29694  11.740  10.738  12.418
57380W        W29695  22.063  38.889   0.741
57381W        W29696  15.797  27.065  13.382
57382W        W29697  31.630  20.669  11.455
57383W        W29698  40.940  36.993   0.921
57384W        W29699   2.460  24.601   3.258
57385W        W29700  38.569  13.235  14.827
57386W        W29701  38.897  38.358   4.227
57387W        W29702   5.920   0.919  12.433
57388W        W29703  20.238   4.206   2.674
57389W        W29704  34.496  18.132   2.357
57390W        W29705  40.948   2.846   2.325
57391W        W29706   1.799  23.535   0.285
57392W        W29707  22.516  22.120   5.633
57393W        W29708   4.881   4.339   2.204
57394W        W29709  33.606  16.665   4.624
57395W        W29710  14.685  38.861  12.545
57396W        W29711   0.447  29.970   3.207
57397W        W29712   5.298  18.674  13.465
57398W        W29713  11.271   2.793  11.893
57399W        W29714  25.621  28.032  10.547
57400W        W29715  40.882  19.281   1.347
57401W        W29716   9.823  36.455  13.469
57402W        W29717   7.690  40.389  12.941
57403W        W29718  11.819  34.934  14.826
57404W        W29719  42.777   8.210  12.558
57405W        W29720  32.406   8.333  11.119
57406W        W29721  20.594  28.973  10.441
57407W        W29722  26.628  31.507   9.974
57408W        W29723  38.424  32.472  10.542
57409W        W29724   2.907  43.917   0.917
57410W        W29725   0.275  30.020  10.929
57411W        W29726   5.274  10.746  11.470
57412W        W29727   8.848  22.669   4.292
57413W        W29728  23.538  13.759   3.861
57414W        W29729  36.888  17.601  13.813
57415W        W29730  23.031  31.406  11.037
57416W        W29731   6.418   7.212  10.940
57417W        W29732   3.892  12.671   4.120
57418W        W29733  19.181  13.230  11.603
57419W        W29734   8.276  22.695  13.548
57420W        W29735   1.446   7.354  11.381
57421W        W29736  23.595  11.842  13.949
57422W        W29737   7.293   1.240  13.852
57423W        W29738  37.935  25.103  13.440
57424W        W29739  10.738  16.169  14.303
57425W        W29740  22.225  14.268   3.186
57426W        W29741  17.189   9.332   5.145
57427W        W29742   6.795  25.128  10.426
57428W        W29743  18.052  25.152   1.778
57429W        W29744  25.471  10.184   2.298
57430W        W29745  38.980  21.261   4.319
57431W        W29746  10.829  26.006  14.501
57432W        W29747  28.155   8.858  12.064
57433W        W29748   4.746  26.607   4.230
57434W        W29749  20.219   7.272   5.163
57435W        W29750   3.865  19.639  10.142
57436W        W29751  24.073   0.747  13.373
57437W        W29752  16.730   1.806   2.312
57438W        W29753  34.887  32.034   4.354
57439W        W29754   6.360   5.214   2.773
57440W        W29755  24.667  34.926  12.852
57441W        W29756  23.633  17.754   4.202
57442W        W29757  34.588  30.053  13.903
57443W        W29758  39.020  37.910   0.351
57444W        W29759  10.655   3.454   0.322
57445W        W29760   9.742  43.299  11.041
57446W        W29761   1.281  42.293   3.334
57447W        W29762  34.408  43.999   4.709
57448W        W29763  21.714  42.477  13.934
57449W        W29764  15.602  43.437  14.310
57450W        W29765  43.783   6.404   0.245
57451W        W29766  19.731  12.639   3.764
57452W        W29767  34.451  27.532   1.239
57453W        W29768  34.086   0.767   2.358
57454W        W29769  12.159  21.579   1.933
57455W        W29770  12.842  25.212   0.406
57456W        W29771  11.735  30.522  10.060
57457W        W29772  21.173  37.834  14.459
57458W        W29773   5.824  15.707   0.287
57459W        W29774  36.000  21.205   2.414
57460W        W29775  35.890  18.751  10.630
57461W        W29776  33.877  23.650  12.971
57462W        W29777  18.206   4.917   3.342
57463W        W29778  28.020  32.103  12.376
57464W        W29779  16.084  35.988  14.007
57465W        W29780   1.317   0.757   2.251
57466W        W29781  23.542  42.441   1.331
57467W        W29782  12.674  38.543   4.635
57468W        W29783  41.009  19.618   0.364
57469W        W29784  18.169   9.342  12.065
57470W        W29785  40.345  14.750  12.852
57471W        W29786  12.644  18.659   0.777
57472W        W29787   0.302  32.477   4.196
57473W        W29788   0.771  32.572  10.507
57474W        W29789  36.420  24.063   3.386
57475W        W29790   4.893  14.813   0.916
57476W        W29791  21.544  25.555  11.386
57477W        W29792  26.627  20.632  12.970
57478W        W29793  33.123  42.298   3.371
57479W        W29794  32.493  28.565   2.275
57480W        W29795   0.967  13.276   3.802
57481W        W29796  29.552  44.807  11.090
57482W        W29797  27.191  19.757   0.761
57483W        W29798  10.722  11.207   1.372
57484W        W29799  31.921   8.254  10.637
57485W        W29800   8.824   5.258  11.035
57486W        W29801  43.019  26.058  12.506
57487W        W29802  33.613  10.152  12.916
57488W        W29803  13.302  40.018   3.233
57489W        W29804   6.262  29.997  10.607
57490W        W29805   8.213   5.387  14.473
57491W        W29806  11.765  34.070  14.463
57492W        W29807   2.447  12.853   4.130
57493W        W29808  10.203  22.620   0.263
57494W        W29809  28.943  39.452   1.916
57495W        W29810  32.069  33.414  11.419
57496W        W29811  41.523  37.536  14.937
57497W        W29812  39.843  43.002   3.674
57498W        W29813  39.488   5.235  10.500
57499W        W29814  34.418  20.260   0.376
57500W        W29815  20.634   0.781  11.598
57501W        W29816   5.393   1.299   0.770
57502W        W29817  14.824   4.929   3.650
57503W        W29818  40.015   2.746   1.294
57504W        W29819  37.442  31.438  13.325
57505W        W29820   0.269  15.307   4.271
57506W        W29821  14.339  15.307   4.658
57507W        W29822  10.141  25.996   0.401
57508W        W29823  31.537  20.150   2.875
57509W        W29824  15.171   8.173   2.316
57510W        W29825  28.477  34.026   3.324
57511W        W29826   3.370  21.044   1.439
57512W        W29827  21.707  15.155   4.317
57513W        W29828  18.266  41.873   4.179
57514W        W29829  17.583  34.927  13.815
57515W        W29830   2.390   1.405  13.049
57516W        W29831  14.654   1.389   3.237
57517W        W29832  11.171  37.843  11.092
57518W        W29833  36.039  44.869   2.751
57519W        W29834  13.777  31.023   1.432
57520W        W29835  20.529  14.284   1.720
57521W        W29836  21.086  20.030  14.970
57522W        W29837  21.567  44.395   1.833
57523W        W29838  40.470  16.663  12.088
57524W        W29839  42.297  37.007   1.730
57525W        W29840  44.983  23.681   1.394
57526W        W29841   7.288   2.469   1.315
57527W        W29842  31.556  28.117  13.010
57528W        W29843  10.289  27.093   1.290
57529W        W29844  21.240  39.837   1.790
57530W        W29845  15.204  12.308  14.947
57531W        W29846   6.304   2.760   2.402
57532W        W29847   0.828  19.199   2.374
57533W        W29848   8.749  30.130  11.029
57534W        W29849  12.657  10.650   3.719
57535W        W29850  12.795  32.541   0.762
57536W        W29851   4.801  24.986  10.894
57537W        W29852   1.364  23.139   3.659
57538W        W29853  33.888  20.158   2.194
57539W        W29854   3.251  19.779  12.967
57540W        W29855   8.167  12.137  12.940
57541W        W29856  41.415  27.621  10.584
57542W        W29857   7.194   5.195   1.444
57543W        W29858  22.250   5.700  14.854
57544W        W29859  33.383  16.740   1.276
57545W        W29860   0.861  30.998   4.701
57546W        W29861  20.742  17.162   3.301
57547W        W29862   2.303  11.230   3.256
57548W        W29863  25.533  31.624  13.484
57549W        W29864   3.752  23.611   4.664
57550W        W29865  17.793   4.765   3.848
57551W        W29866  15.798   6.779  11.579
57552W        W29867  31.954  38.948   4.173
57553W        W29868  10.652   6.399   2.256
57554W        W29869   6.913  31.410  11.534
57555W        W29870   0.892  27.992  14.797
57556W        W29871  22.603   6.217   3.691
57557W        W29872  33.424  26.605  13.443
57558W        W29873  37.580   1.862   1.385
57559W        W29874  16.236  37.848  13.959
57560W        W29875  33.964  23.521  10.928
57561W        W29876  25.635   0.886   3.869
57562W        W29877   8.360  42.474  10.415
57563W        W29878  41.336  14.609   3.262
57564W        W29879  20.159  30.980  12.871
57565W        W29880  22.568   1.923  14.787
57566W        W29881  26.066   2.951   1.211
57567W        W29882  27.546  36.990   0.896
57568W        W29883   6.393  26.056  12.451
57569W        W29884   0.324  33.941   0.779
57570W        W29885   6.423   2.235  12.520
57571W        W29886   9.685  14.742  12.451
57572W        W29887  17.647  19.536   0.328
57573W        W29888  36.379   0.427   4.260
57574W        W29889  36.075  11.857  10.605
57575W        W29890  32.522  23.136  12.095
57576W        W29891   3.411  32.069  11.466
57577W        W29892  18.645   4.715  10.107
57578W        W29893  42.287  34.923   1.791
57579W        W29894   4.740  31.588   3.669
57580W        W29895  32.474   5.418  11.997
57581W        W29896  15.324  24.576  13.822
57582W        W29897  25.040  43.803   4.813
57583W        W29898  39.040  11.736   0.946
57584W        W29899  23.011  41.857  13.386
57585W        W29900  13.627  23.497   0.807
57586W        W29901  29.013  36.537  14.290
57587W        W29902  38.968  17.794   3.341
57588W        W29903  13.288   6.374   2.770
57589W        W29904  30.119  13.134   0.291
57590W        W29905  27.621  11.706  11.069
57591W        W29906  37.543  41.900  14.956
57592W        W29907  15.326  12.626  12.946
57593W        W29908  33.421  25.046   1.438
57594W        W29909  27.558  43.991   4.311
57595W        W29910   2.863  41.394  10.904
57596W        W29911  15.633  39.345  10.029
57597W        W29912  34.447   5.371   3.251
57598W        W29913   9.382  21.035   1.925
57599W        W29914  23.177  16.649  11.488
57600W        W29915  28.627  23.732  14.933
57601W        W29916  21.688  37.009  10.602
57602W        W29917   5.759   2.777  11.855
57603W        W29918   5.388  26.205   3.658
57604W        W29919  14.158  23.628   2.833
57605W        W29920  37.969  34.401  11.930
57606W        W29921  19.718  15.660   5.252
57607W        W29922  31.467  34.936  14.773
57608W        W29923   5.898  42.895  13.041
57609W        W29924  20.526  28.477  11.909
57610W        W29925  38.971  31.997  10.420
57611W        W29926  17.571  33.493   4.745
57612W        W29927   5.345  33.414   2.709
57613W        W29928  39.551  28.582   0.754
57614W        W29929  17.166  22.157  11.885
57615W        W29930  14.713  37.017  14.314
57616W        W29931  37.500  36.515   0.857
57617W        W29932  26.049  41.336   3.381
57618W        W29933  44.279  15.178   2.331
57619W        W29934  30.931  22.244  13.507
57620W        W29935   8.342  11.745  10.541
57621W        W29936  24.714  44.305  11.609
57622W        W29937   2.291  30.091  14.807
57623W        W29938  10.635   3.818  14.426
57624W        W29939  26.626   2.749   4.723
57625W        W29940  32.397  38.969   0.884
57626W        W29941  21.526  41.977  13.923
57627W        W29942   9.839  11.730   1.930
57628W        W29943  36.902  28.133   4.601
57629W        W29944  28.048  29.439   2.373
57630W        W29945  39.026  17.674  14.320
57631W        W29946  15.809  33.975  13.814
57632W        W29947  21.252  35.588   1.449
57633W        W29948  22.544  27.120  14.444
57634W        W29949  36.905  34.106   0.372
57635W        W29950  30.636  42.413   2.210
57636W        W29951  40.374  39.973   1.380
57637W        W29952   1.969  18.066   4.602
57638W        W29953  21.712   1.802  13.479
57639W        W29954  24.153  36.060  11.584
57640W        W29955  13.196  35.597   0.462
57641W        W29956  40.518   1.269   1.437
57642W        W29957   4.757  24.699  11.468
57643W        W29958  23.128  42.957  11.879
57644W        W29959  30.941  10.290  12.095
57645W        W29960  27.952  16.191  13.844
57646W        W29961  21.150   1.851  12.024
57647W        W29962  38.524  33.101   0.783
57648W        W29963  42.486  44.327   3.272
57649W        W29964  35.000  33.571  11.084
57650W        W29965  42.833  17.064   2.322
57651W        W29966  17.584  30.584   0.945
57652W        W29967   7.675  24.482   0.937
57653W        W29968  31.520   9.739  13.391
57654W        W29969  29.596  40.395  11.065
57655W        W29970  16.620   3.226  13.956
57656W        W29971  11.654  34.016   0.821
57657W        W29972  26.596  31.536   5.621
57658W        W29973  20.721  43.360  12.479
57659W        W29974  29.483  37.833  12.462
57660W        W29975  26.636  36.366  12.058
57661W        W29976  15.277  27.494   3.313
57662W        W29977   2.958  41.800  14.331
57663W        W29978   2.335  32.039  12.897
57664W        W29979  15.722   5.247  11.855
57665W        W29980  37.341  23.011  14.411
57666W        W29981  12.791  13.347   3.745
57667W        W29982  31.519  19.535   2.256
57668W        W29983  20.608  10.204   3.730
57669W        W29984  37.853  22.115  10.549
57670W        W29985  39.815  27.621   4.676
57671W        W29986  29.510   5.689  11.564
57672W        W29987   9.736  34.937  11.087
57673W        W29988  16.583  40.945   5.304
57674W        W29989  29.035   3.758   1.895
57675W        W29990  10.324   5.874  10.420
57676W        W29991  34.017  10.697  12.871
57677W        W29992  43.457  40.899   0.735
57678W        W29993  14.172  24.193   4.739
57679W        W29994  37.353   4.282  14.321
57680W        W29995  18.742  33.123  12.037
57681W        W29996  26.634  26.038   3.760
57682W        W29997  15.102   3.739  10.450
57683W        W29998  30.932  44.324  14.497
57684W        W29999  41.313  32.608   3.838
57685W        W30000  13.742  11.776   4.201
57686W        W30001  27.462  26.187  12.930
57687W        W30002  15.103  37.401   1.916
57688W        W30003   4.413  34.577   2.673
57689W        W30004  32.545  17.675   4.814
57690W        W30005  43.903  15.225  11.453
57691W        W30006  19.052  22.059   0.797
57692W        W30007   4.294  13.233  11.406
57693W        W30008  44.821   0.822   3.228
57694W        W30009  21.521  40.459  11.528
57695W        W30010   1.448   7.795  13.792
57696W        W30011  44.300  26.460   3.331
57697W        W30012  12.198  37.953   3.232
57698W        W30013  43.884  41.392  14.846
57699W        W30014   5.216  14.783  13.502
57700W        W30015  15.157  37.570   3.214
57701W        W30016  24.148  16.158   1.354
57702W        W30017  36.988  37.581   1.373
57703W        W30018  32.554  44.485   0.943
57704W        W30019  43.846  11.247  10.485
57705W        W30020   9.181   9.766   0.260
57706W        W30021  39.873  36.454   4.297
57707W        W30022   5.806  18.206  10.977
57708W        W30023   9.382  38.010   4.627
57709W        W30024  37.831  32.437   2.804
57710W        W30025   2.748  22.022  13.318
57711W        W30026  14.316  15.234  14.966
57712W        W30027  30.146  36.509   4.701
57713W        W30028  43.435  14.614  11.040
57714W        W30029  20.719   7.892   4.286
57715W        W30030  24.167  18.640  12.579
57716W        W30031  23.216   9.163  13.432
57717W        W30032  44.491  11.852   5.272
57718W        W30033  23.658  10.209  13.384
57719W        W30034  34.083   6.748   3.644
57720W        W30035   0.789   9.281  10.965
57721W        W30036  44.500  32.609  11.067
57722W        W30037  43.506  22.103   1.403
57723W        W30038  43.986  24.037   4.773
57724W        W30039  26.165  13.155  12.914
57725W        W30040  24.183  38.030  12.481
57726W        W30041   1.749  23.641  14.509
57727W        W30042  27.656  32.954  10.535
57728W        W30043  11.855  40.328  11.437
57729W        W30044  43.378  34.485  11.519
57730W        W30045   4.873  14.694   3.320
57731W        W30046  37.532  14.625   4.712
57732W        W30047  10.256  38.479   4.757
57733W        W30048  28.565   0.974   3.352
57734W        W30049  21.209   4.917  10.459
57735W        W30050  21.726  16.216   2.384
57736W        W30051   8.716  39.554  13.063
57737W        W30052  43.444   1.299  12.020
57738W        W30053   9.250  26.473  12.984
57739W        W30054   7.680  17.138   1.336
57740W        W30055   0.796  29.066   1.262
57741W        W30056   2.872  11.302  12.495
57742W        W30057  35.017  26.467   1.882
57743W        W30058   6.865  18.732  14.890
57744W        W30059  43.985  25.580  10.942
57745W        W30060  43.375  34.405  11.989
57746W        W30061  34.464  13.260   3.341
57747W        W30062  24.159  24.602  12.994
57748W        W30063  43.283   4.864   4.668
57749W        W30064   4.861  12.669   0.250
57750W        W30065   8.828  33.592  12.343
57751W        W30066  32.974  30.021   4.734
57752W        W30067  15.811   2.390   1.311
57753W        W30068  28.976  34.456  11.567
57754W        W30069  26.017  38.925   2.216
57755W        W30070  14.831   9.878  14.862
57756W        W30071  30.019  21.037  11.608
57757W        W30072  36.440   2.833  13.507
57758W        W30073  43.967   6.805  13.993
57759W        W30074  31.425  43.332   2.766
57760W        W30075  42.887  18.135  14.478
57761W        W30076  26.102  21.740  12.347
57762W        W30077  32.138  22.547   1.833
57763W        W30078  29.137  16.079  10.561
57764W        W30079   7.846  14.321  14.809
57765W        W30080  26.610  42.005   2.301
57766W        W30081  41.394  39.841   2.260
57767W        W30082  16.751  30.920   2.331
57768W        W30083  31.419  23.523   0.301
57769W        W30084  28.601  23.705   2.278
57770W        W30085  17.647  31.493  14.768
57771W        W30086   3.824  44.811  11.590
57772W        W30087  35.917  10.264   0.343
57773W        W30088  39.437  19.696   1.220
57774W        W30089  28.149  27.638   3.232
57775W        W30090   5.776  28.557  13.524
57776W        W30091  12.178  41.920  11.479
57777W        W30092  15.313  11.342   2.355
57778W        W30093  40.485  10.766  12.404
57779W        W30094   3.847   1.766  14.930
57780W        W30095   5.921   5.868  10.534
57781W        W30096  25.651   9.686  14.345
57782W        W30097  41.345  32.100  13.509
57783W        W30098  30.988   6.209   3.170
57784W        W30099  15.184  15.261  14.904
57785W        W30100  20.650  21.091   2.893
57786W        W30101   3.252  14.607  10.428
57787W        W30102  26.003  14.697  14.867
57788W        W30103  18.266  26.037  11.884
57789W        W30104   1.428  39.464  10.551
57790W        W30105  10.262  16.587   2.882
57791W        W30106  44.415  27.990   0.269
57792W        W30107  22.106  39.357   0.938
57793W        W30108  16.715   0.983  12.415
57794W        W30109  10.369  21.101   4.794
57795W        W30110   2.460  25.983   4.766
57796W        W30111  19.727   8.861  12.823
57797W        W30112   1.888  29.923  13.534
57798W        W30113  29.122  43.017   5.286
57799W        W30114  42.463  10.697  14.858
57800W        W30115  17.788  27.687  12.436
57801W        W30116  39.934  25.641   0.362
57802W        W30117   5.433  12.813  10.487
57803W        W30118  11.771  13.227  11.932
57804W        W30119  26.583   2.732   3.230
57805W        W30120  27.972  31.479   9.507
57806W        W30121  29.159  21.727   3.702
57807W        W30122  26.110   1.422  12.502
57808W        W30123  44.000  16.601  11.071
57809W        W30124  16.802  33.429   0.846
57810W        W30125   2.256   7.394  11.543
57811W        W30126  25.025  12.311   2.876
57812W        W30127  41.820  26.609  13.018
57813W        W30128   8.805  13.743  14.446
57814W        W30129  18.607  23.039  12.442
57815W        W30130  33.607  38.838  11.113
57816W        W30131  33.599  14.170   4.326
57817W        W30132   8.287  15.699  13.934
57818W        W30133  30.589  26.168  13.994
57819W        W30134  18.259   1.860  12.562
57820W        W30135  22.695  13.141  10.610
57821W        W30136  14.675  43.327   1.403
57822W        W30137  30.979   7.728  12.905
57823W        W30138  26.530   7.206  10.465
57824W        W30139  22.131  17.293  13.334
57825W        W30140   7.830  11.294   3.319
57826W        W30141  21.023   1.424  11.380
57827W        W30142  10.784  39.056  14.968
57828W        W30143  20.606   4.890   3.187
57829W        W30144  21.080  40.346   4.662
57830W        W30145  15.190   1.336  14.445
57831W        W30146  25.173   9.889  10.458
57832W        W30147  14.101   0.399   2.842
57833W        W30148  20.038  22.229   1.272
57834W        W30149   3.843  18.612  13.806
57835W        W30150  16.631  44.971   1.809
57836W        W30151   5.867  11.241   2.725
57837W        W30152   1.946  17.661   4.325
57838W        W30153  37.348  26.057   0.377
57839W        W30154  44.357  44.783  11.884
57840W        W30155  36.451  10.870  13.440
57841W        W30156  30.953   1.379  12.516
57842W        W30157  31.146  24.570  12.896
57843W        W30158  19.277  18.153  12.575
57844W        W30159   3.458  26.491   5.247
57845W        W30160  19.231  10.816   0.426
57846W        W30161  36.078  15.755  14.431
57847W        W30162  38.058  10.187  13.004
57848W        W30163   6.793  18.775  14.509
57849W        W30164   0.885  39.523   3.646
57850W        W30165   4.863  11.150  12.472
57851W        W30166  44.833  42.452  10.916
57852W        W30167  33.883   9.307   2.811
57853W        W30168  21.160   7.792  12.559
57854W        W30169   4.766  18.615   3.810
57855W        W30170  14.715   6.261  13.339
57856W        W30171  36.409  10.742  13.885
57857W        W30172  25.177  32.463  11.100
57858W        W30173   4.438  23.535  14.358
57859W        W30174  41.452  42.400   2.778
57860W        W30175  18.229   1.844   4.261
57861W        W30176  40.478  33.123  10.977
57862W        W30177   4.892  14.150   2.881
57863W        W30178  43.771   4.741   1.844
57864W        W30179   8.357  11.239   4.615
57865W        W30180  25.595  15.153  10.937
57866W        W30181  18.787  18.652  14.764
57867W        W30182  24.995  31.458   3.784
57868W        W30183   2.806  27.610   4.174
57869W        W30184  17.709  31.979  12.007
57870W        W30185  44.352  27.172   0.727
57871W        W30186   2.749   6.742   2.299
57872W        W30187  33.538  36.057   3.287
57873W        W30188   6.344   1.466   1.847
57874W        W30189  17.137   1.919  12.431
57875W        W30190   9.221  42.805   2.247
57876W        W30191  32.002  20.209  14.902
57877W        W30192  22.517  36.351  12.577
57878W        W30193  18.750  33.608   3.834
57879W        W30194  26.539  20.205  10.457
57880W        W30195  43.994  42.491   0.841
57881W        W30196  16.294  17.772  13.522
57882W        W30197   7.896  21.747   0.919
57883W        W30198  28.013  43.793  10.539
57884W        W30199  12.699  36.915  13.965
57885W        W30200  20.157  11.269   5.084
57886W        W30201  24.626   0.985  10.942
57887W        W30202  17.713  11.353   1.780
57888W        W30203  18.171  40.337  10.103
57889W        W30204  36.521  19.248  12.928
57890W        W30205  44.899  41.871  11.870
57891W        W30206  10.741  28.471  14.760
57892W        W30207  15.265  44.350   4.333
57893W        W30208  44.358  22.080  10.483
57894W        W30209  27.155   2.944   1.293
57895W        W30210  44.385  31.905  12.479
57896W        W30211  25.188   6.888  12.908
57897W        W30212  27.159  37.863   3.785
57898W        W30213  17.127  42.405   0.808
57899W        W30214  44.477   2.459  10.991
57900W        W30215  34.496  27.957   0.934
57901W        W30216  39.819  33.611   2.896
57902W        W30217  30.605  12.332  12.366
57903W        W30218  25.680  34.454  11.034
57904W        W30219  32.419   3.271   4.626
57905W        W30220  16.109  44.836   4.671
57906W        W30221  25.164  12.786  13.358
57907W        W30222  20.657  31.410  13.880
57908W        W30223  14.731  36.939   0.341
57909W        W30224  11.287   1.476  12.367
57910W        W30225  33.959  21.682   4.298
57911W        W30226   9.884   0.935  13.829
57912W        W30227  11.171  39.955   2.742
57913W        W30228   5.322  22.120   4.281
57914W        W30229  25.212  39.951   3.839
57915W        W30230  27.653  16.767  14.968
57916W        W30231  37.852   6.373   0.272
57917W        W30232  44.370  41.878   1.361
57918W        W30233  25.151  43.452  14.928
57919W        W30234  23.557  32.086  11.061
57920W        W30235  18.658  18.129   0.260
57921W        W30236  31.065  11.167   4.799
57922W        W30237  29.009  26.198  13.897
57923W        W30238  37.406  31.488   0.911
57924W        W30239   8.757  31.927   3.790
57925W        W30240  26.172   3.381  14.302
57926W        W30241  37.575  40.414  12.055
57927W        W30242  22.528  32.570   0.948
57928W        W30243  19.703  11.736  12.062
57929W        W30244   3.918  31.545  12.849
57930W        W30245  41.537  20.689   3.677
57931W        W30246  19.126  12.313   1.377
57932W        W30247   7.723  37.986   2.378
57933W        W30248  19.069  32.102  14.454
57934W        W30249  13.282  30.607   9.958
57935W        W30250   0.254  40.865   3.383
57936W        W30251  33.121  27.949   4.250
57937W        W30252  36.034  34.448  14.804
57938W        W30253  25.977   6.693  13.982
57939W        W30254   1.735  42.510   2.682
57940W        W30255  20.576  14.810   2.744
57941W        W30256  41.486  42.814   4.227
57942W        W30257  40.029  42.984   4.201
57943W        W30258  10.827   6.304  10.596
57944W        W30259  33.572  18.086  12.870
57945W        W30260  25.174   5.431   4.773
57946W        W30261   1.411  41.537  11.964
57947W        W30262   7.807  36.844   1.791
57948W        W30263  34.615   8.333   4.609
57949W        W30264  39.863  17.724  11.509
57950W        W30265  39.472  43.855   3.719
57951W        W30266  41.822   1.394  13.804
57952W        W30267   5.895  40.999  12.544
57953W        W30268  15.257   0.873   3.340
57954W        W30269   1.247  20.169  12.042
57955W        W30270  29.573  34.441   3.674
57956W        W30271  44.911  35.090  12.081
57957W        W30272  16.692  14.339   3.770
57958W        W30273  17.241  19.658   1.934
57959W        W30274  12.751  19.116  11.411
57960W        W30275  17.767  16.601  12.392
57961W        W30276  25.188  24.151  10.506
57962W        W30277  17.711  38.929   9.927
57963W        W30278   1.903  34.022  10.490
57964W        W30279  44.853   2.821  10.958
57965W        W30280  23.595  25.495   3.264
57966W        W30281  15.312   3.446  10.644
57967W        W30282  43.354  41.315  13.851
57968W        W30283  28.599  27.676   3.170
57969W        W30284   9.389   3.309   2.222
57970W        W30285   3.408  34.577  14.451
57971W        W30286  41.892   0.262   4.291
57972W        W30287  19.124  16.260   4.188
57973W        W30288  34.422  29.665  11.399
57974W        W30289  20.739  27.555  10.960
57975W        W30290  36.515   8.726   1.694
57976W        W30291   3.761  29.093   3.653
57977W        W30292   7.740  10.168  12.526
57978W        W30293  28.992  41.900   0.746
57979W        W30294  20.237   5.354  12.879
57980W        W30295  33.051  37.873   4.630
57981W        W30296   9.380  29.613  12.051
57982W        W30297  17.637  21.074  11.542
57983W        W30298  10.147  35.062   2.748
57984W        W30299  26.169  15.760   0.244
57985W        W30300  34.472  27.062   3.776
57986W        W30301  19.772  25.219   4.142
57987W        W30302  42.909  20.597   4.324
57988W        W30303  25.685  12.718  14.349
57989W        W30304  35.489   2.463  10.476
57990W        W30305  35.022   8.282   2.829
57991W        W30306   9.678  18.654   4.671
57992W        W30307  10.770  38.987   0.365
57993W        W30308  39.468   5.811   2.401
57994W        W30309  10.311  18.552  13.872
57995W        W30310   6.751  17.778  12.000
57996W        W30311   7.349  13.629  10.965
57997W        W30312  12.664   5.393   1.386
57998W        W30313  31.931  16.567   3.164
57999W        W30314   8.861  11.173   3.238
58000W        W30315  12.632  34.112   2.365
58001W        W30316  43.410   1.369   0.461
58002W        W30317  24.648  22.250  12.079
58003W        W30318  29.632  23.072   0.911
58004W        W30319  17.131  27.628  12.500
58005W        W30320  25.629  21.699   2.701
58006W        W30321  33.505  43.324   3.354
58007W        W30322   3.942   0.338   0.256
58008W        W30323  28.522  25.202   1.401
58009W        W30324  37.448  42.297  11.443
58010W        W30325   0.284  15.220  13.359
58011W        W30326  33.056  19.587  14.944
58012W        W30327  26.657  41.463  12.928
58013W        W30328  15.593  28.454  12.412
58014W        W30329   2.369  15.179  12.395
58015W        W30330  20.605  37.505  10.111
58016W        W30331   1.789  13.615  12.049
58017W        W30332  19.086  34.989   2.851
58018W        W30333  10.755  15.701   0.298
58019W        W30334  38.001  35.477  14.852
58020W        W30335  34.556  31.936  13.834
58021W        W30336   9.665  43.020   4.344
58022W        W30337   4.312   3.712  10.959
58023W        W30338   9.847  30.522   1.853
58024W        W30339  24.699  40.879  13.928
58025W        W30340  24.683  20.681   4.186
58026W        W30341   3.864  40.475   2.886
58027W        W30342  39.913  10.685  12.369
58028W        W30343  37.455   7.381   3.847
58029W        W30344  26.542  12.170   4.114
58030W        W30345  11.139  16.193   5.131
58031W        W30346  29.612   6.313  12.527
58032W        W30347  28.516  23.095  12.912
58033W        W30348  36.995   9.714   3.720
58034W        W30349   0.466   8.896   1.448
58035W        W30350  18.137  17.159   1.806
58036W        W30351  10.191   6.743   4.839
58037W        W30352  24.081  39.866   0.917
58038W        W30353  38.927  42.017  13.825
58039W        W30354  26.496  40.539   3.704
58040W        W30355  27.510  22.726  14.279
58041W        W30356  32.439  12.718  10.461
58042W        W30357   2.889  38.887  11.030
58043W        W30358  12.334  15.308   4.284
58044W        W30359   2.862  33.453   1.751
58045W        W30360  38.867  30.066   1.250
58046W        W30361  27.578  22.733   1.742
58047W        W30362  29.172  37.357  10.539
58048W        W30363  14.197   0.293   4.639
58049W        W30364  32.946  37.498  14.910
58050W        W30365   9.229   7.904  14.980
58051W        W30366   7.841  22.175   1.359
58052W        W30367  26.168  20.148  14.864
58053W        W30368  25.186  36.075   4.609
58054W        W30369   4.840  30.916   2.803
58055W        W30370   2.326  27.184   1.326
58056W        W30371  28.461  39.468  11.967
58057W        W30372   2.446  30.501  11.892
58058W        W30373   6.194   4.809  11.939
58059W        W30374   3.953  26.553   0.891
58060W        W30375   0.332  31.123  10.458
58061W        W30376  20.213   4.733   0.344
58062W        W30377  21.094   5.422  14.425
58063W        W30378  20.040  27.603   0.480
58064W        W30379  13.810  11.326   3.842
58065W        W30380  17.238  23.133  14.305
58066W        W30381  17.153  41.401   4.621
58067W        W30382  40.501  36.057   5.146
58068W        W30383   4.359  43.843  13.531
58069W        W30384   8.169   4.771  12.844
58070W        W30385  28.966  30.073  11.389
58071W        W30386  37.082  14.711   3.662
58072W        W30387  43.894  33.582   4.836
58073W        W30388  15.279  36.870  11.547
58074W        W30389  31.070   4.406  13.345
58075W        W30390  40.417  21.219   0.877
58076W        W30391  38.532  14.105  12.846
58077W        W30392  32.497  41.920  13.514
58078W        W30393  29.634  32.615   0.411
58079W        W30394  21.684  28.133  12.866
58080W        W30395   8.379   8.222  13.449
58081W        W30396   4.701   6.343  14.347
58082W        W30397   4.716  29.627   4.278
58083W        W30398  39.338   8.840   4.227
58084W        W30399  27.588  29.967  13.944
58085W        W30400  12.691  21.126   2.262
58086W        W30401  21.232  21.075  13.824
58087W        W30402  15.582  39.542  11.582
58088W        W30403  27.006   1.405  12.936
58089W        W30404  18.141  15.248  13.337
58090W        W30405  40.905  37.504   2.296
58091W        W30406   0.898  33.384  13.533
58092W        W30407  16.579   5.903   1.415
58093W        W30408  42.794  15.313  11.023
58094W        W30409  15.642   8.680   2.309
58095W        W30410  11.627  30.530  12.986
58096W        W30411  20.096   9.815   2.770
58097W        W30412  26.596  10.197   0.261
58098W        W30413  16.618  35.916  12.970
58099W        W30414  16.180  26.701  14.324
58100W        W30415  23.037   4.776   3.703
58101W        W30416  24.637  23.188  11.558
58102W        W30417  15.583   7.284   4.212
58103W        W30418  11.673  43.339  14.011
58104W        W30419  21.044  40.048   4.674
58105W        W30420  11.652  20.651   2.232
58106W        W30421  10.292  15.125   4.815
58107W        W30422  40.411  15.281  14.777
58108W        W30423  35.995  32.984   1.717
58109W        W30424  36.963  36.569  11.883
58110W        W30425  19.625   9.211   1.877
58111W        W30426  12.310  25.130  13.876
58112W        W30427  42.446  18.130  12.911
58113W        W30428   4.828  24.180   2.196
58114W        W30429   9.358  34.473  12.008
58115W        W30430   6.757  30.964   0.863
58116W        W30431   3.241   4.898   2.179
58117W        W30432  40.846  28.000  13.850
58118W        W30433  37.475   1.811  11.575
58119W        W30434   5.304  38.380  10.513
58120W        W30435  16.606  25.659   4.352
58121W        W30436  39.367  26.044   3.807
58122W        W30437  38.822   6.726  10.483
58123W        W30438  13.120   2.947   4.601
58124W        W30439  24.662  16.591  11.915
58125W        W30440   1.262  10.743  11.977
58126W        W30441  43.881  43.772   3.169
58127W        W30442  32.014  29.437   1.913
58128W        W30443   2.470  19.156  10.555
58129W        W30444  23.205   3.851  10.931
58130W        W30445  14.200  24.977  12.394
58131W        W30446   1.830  21.695  14.784
58132W        W30447  37.457  11.816   3.327
58133W        W30448  44.433  20.596  13.386
58134W        W30449  19.182  44.425   0.293
58135W        W30450   1.919   3.389  12.880
58136W        W30451   4.714  25.664   0.731
58137W        W30452  16.572  16.190   4.187
58138W        W30453  29.458  28.533   1.259
58139W        W30454  30.446  32.982  11.015
58140W        W30455  33.598  18.276  12.062
58141W        W30456  32.397  10.220  11.486
58142W        W30457  39.017  28.085   1.890
58143W        W30458   4.215  13.177   2.737
58144W        W30459  36.430   7.821   1.441
58145W        W30460  30.603  14.825  10.582
58146W        W30461  23.152  36.931   2.418
58147W        W30462  27.077   6.723   5.274
58148W        W30463  22.634  42.893   0.453
58149W        W30464   8.759   4.294   0.257
58150W        W30465   6.226  35.050  13.383
58151W        W30466  26.458  44.336   4.280
58152W        W30467  23.037  41.452  13.383
58153W        W30468  29.146  32.072   2.662
58154W        W30469   9.699  33.076   1.262
58155W        W30470  30.103  16.642  14.399
58156W        W30471  25.028  20.050  14.478
58157W        W30472  31.514  17.215   1.707
58158W        W30473   3.384  29.958   2.862
58159W        W30474  40.983  24.199  10.405
58160W        W30475  31.967  36.519   1.270
58161W        W30476   2.243   6.677   2.744
58162W        W30477  25.641   4.263  12.092
58163W        W30478  18.218  42.320  11.552
58164W        W30479   6.262  16.742  11.902
58165W        W30480   2.355  22.081   0.453
58166W        W30481  41.925  30.502   0.316
58167W        W30482  13.772  12.817  11.520
58168W        W30483  40.337   8.771  14.010
58169W        W30484  20.226  44.905  11.880
58170W        W30485  33.430  39.433  13.367
58171W        W30486  23.015  10.674   1.890
58172W        W30487  18.108  42.318  13.853
58173W        W30488  27.509  11.838   3.788
58174W        W30489  34.476  15.676  10.441
58175W        W30490  21.512  39.813  12.089
58176W        W30491  31.600  44.877   1.331
58177W        W30492  10.381   2.889   1.385
58178W        W30493  13.350  17.581  11.570
58179W        W30494  37.054  28.574   3.334
58180W        W30495  42.333  30.928   3.849
58181W        W30496   2.777  44.825   0.339
58182W        W30497  10.844  38.030  10.952
58183W        W30498  38.374  15.782  12.930
58184W        W30499   0.925  13.253  10.538
58185W        W30500  31.407  35.581   0.777
58186W        W30501  11.243  30.024  12.868
58187W        W30502  31.639  25.491   3.779
58188W        W30503  24.013  40.313   1.793
58189W        W30504   1.830  26.514   2.766
58190W        W30505  38.569  36.475  13.536
58191W        W30506  18.279  25.990  14.446
58192W        W30507   0.378  27.095   0.395
58193W        W30508  35.460  13.842   2.787
58194W        W30509  27.628   3.405  11.880
58195W        W30510  34.567  37.462  12.941
58196W        W30511  26.209   4.207   5.687
58197W        W30512   1.482  44.980  10.517
58198W        W30513  30.585  23.181  14.516
58199W        W30514  35.365  20.560   1.272
58200W        W30515  37.867  22.011  14.994
58201W        W30516  16.127  30.998   4.817
58202W        W30517  20.752  12.261   3.379
58203W        W30518  15.251   1.871  12.896
58204W        W30519  32.937  30.605   4.184
58205W        W30520  39.987  27.994   2.268
58206W        W30521  38.919  10.201   3.811
58207W        W30522  35.946   8.771  13.057
58208W        W30523  20.717  14.774  10.927
58209W        W30524  23.074  39.421  14.993
58210W        W30525  35.904   0.330   0.277
58211W        W30526  39.983  42.848  13.876
58212W        W30527  38.958   9.667   0.873
58213W        W30528  29.979  32.585   3.244
58214W        W30529  15.262   4.831  11.959
58215W        W30530   8.723  14.759  12.958
58216W        W30531   6.229  44.848   4.785
58217W        W30532  43.417  14.617   3.729
58218W        W30533  16.210  41.493   2.362
58219W        W30534  15.626  41.940  11.895
58220W        W30535  41.483   1.312  12.057
58221W        W30536  14.241  21.032   3.147
58222W        W30537  10.793  38.498   0.918
58223W        W30538  18.106  14.185   1.821
58224W        W30539  10.686  28.965  14.826
58225W        W30540   7.794  40.355   2.293
58226W        W30541  40.412   5.358  12.000
58227W        W30542  25.694   2.777   1.251
58228W        W30543  34.601  28.506  10.501
58229W        W30544   2.422   6.790  11.901
58230W        W30545  22.630   5.783  13.906
58231W        W30546  26.471   2.388  12.368
58232W        W30547  35.399   6.262   1.824
58233W        W30548   9.775   5.710  11.090
58234W        W30549  20.670  14.300   0.929
58235W        W30550  24.585  33.482  11.428
58236W        W30551   4.945  44.798   2.376
58237W        W30552   8.283   2.777  13.003
58238W        W30553  41.001  12.744  11.048
58239W        W30554  36.381  11.220  11.598
58240W        W30555  30.587   5.719   4.119
58241W        W30556  34.373  38.403  12.042
58242W        W30557  23.555  17.180   2.226
58243W        W30558  37.506  29.614  14.283
58244W        W30559   9.733  13.774  11.882
58245W        W30560  27.486  41.832   4.154
58246W        W30561   4.905  11.170   4.796
58247W        W30562  44.329  28.179   2.748
58248W        W30563   1.858  29.567  13.009
58249W        W30564  16.294   9.313   4.679
58250W        W30565  31.520  13.133  10.890
58251W        W30566  11.261   4.340   3.155
58252W        W30567  35.903  24.202  12.421
58253W        W30568  39.477  38.953  14.288
58254W        W30569   8.889  18.165   0.431
58255W        W30570  40.879  14.773   3.377
58256W        W30571  21.040   6.198  13.019
58257W        W30572  25.610   7.889  13.524
58258W        W30573  26.655  40.539  10.945
58259W        W30574  15.185  41.965   2.404
58260W        W30575  32.396   7.707  10.514
58261W        W30576  26.699  26.181  12.880
58262W        W30577  37.528  18.247  11.904
58263W        W30578   2.728   2.820  14.431
58264W        W30579  13.684  30.491  10.598
58265W        W30580  35.094   5.743   4.745
58266W        W30581  34.109   8.753  11.515
58267W        W30582  41.407  14.734   4.149
58268W        W30583   1.283  20.270  13.466
58269W        W30584  40.033   7.738  12.359
58270W        W30585   5.245  31.646  14.513
58271W        W30586  32.454   3.731   0.757
58272W        W30587  13.265  15.131   4.785
58273W        W30588  37.842  14.603   3.768
58274W        W30589  24.976  11.627   0.937
58275W        W30590  44.455  34.869   3.637
58276W        W30591  11.847  15.116  10.584
58277W        W30592  26.506  22.147   2.216
58278W        W30593   7.368  23.683   2.820
58279W        W30594   4.219  32.586   1.803
58280W        W30595  24.067  37.916  13.903
58281W        W30596  25.193  31.929  13.840
58282W        W30597   2.967   7.394   2.238
58283W        W30598  36.457  37.568   3.353
58284W        W30599   8.793  12.301  13.899
58285W        W30600  18.638  14.786   1.790
58286W        W30601  12.842  21.612  13.952
58287W        W30602  33.463   3.860   0.432
58288W        W30603  18.099   1.282  14.010
58289W        W30604   8.329  17.126   4.625
58290W        W30605  42.815   6.708  13.807
58291W        W30606   4.449  18.220   4.648
58292W        W30607  19.146  32.982   4.689
58293W        W30608  38.047  18.599  10.598
58294W        W30609  28.083   8.189  13.829
58295W        W30610  23.105   8.204   0.427
58296W        W30611  26.100   9.384   4.764
58297W        W30612  34.863  14.701  13.417
58298W        W30613  20.523  27.166   0.763
58299W        W30614   4.917  41.496  12.404
58300W        W30615  39.501  22.070  11.910
58301W        W30616  10.760  26.037   2.787
58302W        W30617  11.813  26.102  14.309
58303W        W30618  42.786   7.766   0.472
58304W        W30619  29.491  28.087   1.790
58305W        W30620  40.819  25.094  11.860
58306W        W30621  39.342  27.613  11.923
58307W        W30622  14.756  34.938   2.250
58308W        W30623  26.126  38.022   4.731
58309W        W30624  27.510  23.191  13.384
58310W        W30625   7.333  12.795  12.526
58311W        W30626  42.368  35.570   0.409
58312W        W30627  44.831   7.783   3.201
58313W        W30628  25.972   7.219  11.512
58314W        W30629  40.042   9.157   2.405
58315W        W30630  32.509  10.702   0.406
58316W        W30631  11.174   7.669  14.896
58317W        W30632  16.651   2.777  14.301
58318W        W30633  21.101  30.019  11.516
58319W        W30634   1.240  37.566  10.019
58320W        W30635  20.697   3.273  14.979
58321W        W30636  29.006  31.025  10.573
58322W        W30637   3.242  13.144   3.842
58323W        W30638  12.649   9.179   3.259
58324W        W30639  40.945  19.546  11.578
58325W        W30640  36.453  19.684   0.251
58326W        W30641  37.477  27.485  12.554
58327W        W30642  19.590  18.173   2.835
58328W        W30643  23.013  42.337  11.467
58329W        W30644  35.079  25.067   4.785
58330W        W30645  41.379  12.803  11.484
58331W        W30646  30.979  21.110  13.847
58332W        W30647   9.863   0.248  13.936
58333W        W30648  10.362  40.827   0.767
58334W        W30649   0.856   6.188   0.351
58335W        W30650  32.536  44.475   3.383
58336W        W30651  18.187  25.031  12.096
58337W        W30652  29.939   5.322   4.640
58338W        W30653  20.082  42.318  12.954
58339W        W30654   1.758  11.652   5.244
58340W        W30655  34.431  27.087  12.836
58341W        W30656  43.863  13.229   2.275
58342W        W30657   9.275   0.350  13.011
58343W        W30658  14.293   7.405   1.840
58344W        W30659  31.614  31.570   4.352
58345W        W30660   1.244   3.828   2.206
58346W        W30661   4.258  35.860   1.798
58347W        W30662  29.438  36.474  11.961
58348W        W30663  14.696  27.572  11.062
58349W        W30664  44.505  30.656  14.854
58350W        W30665   3.460  41.933  13.465
58351W        W30666  20.737  34.016   1.222
58352W        W30667  44.409  36.498  11.112
58353W        W30668  30.619   9.217  13.051
58354W        W30669  40.395  12.816  13.520
58355W        W30670  11.647   7.225   2.720
58356W        W30671  28.532  35.544   4.277
58357W        W30672  28.658  28.472   0.917
58358W        W30673  26.618  29.067   0.332
58359W        W30674   1.323  43.924  13.384
58360W        W30675  40.921   1.427   3.371
58361W        W30676  31.988  33.918   1.252
58362W        W30677  33.583  27.674   0.324
58363W        W30678  20.605  43.309   2.721
58364W        W30679   9.653  23.491  14.322
58365W        W30680  33.588  13.339   3.368
58366W        W30681  25.193  15.191  12.928
58367W        W30682   1.259  23.496  10.921
58368W        W30683  35.059  19.749   5.136
58369W        W30684  33.008  34.065   2.819
58370W        W30685  37.349   8.324   0.729
58371W        W30686  15.770  11.310  12.079
58372W        W30687  33.932   0.926   0.445
58373W        W30688  15.756  38.007   0.904
58374W        W30689   2.784  10.695   4.727
58375W        W30690  36.864  34.492   3.203
58376W        W30691  14.694  23.515   1.415
58377W        W30692   6.354   9.242  13.391
58378W        W30693  33.961  19.143   0.479
58379W        W30694  18.217  17.150  13.052
58380W        W30695  13.805  36.534   4.278
58381W        W30696   0.459  14.831   4.260
58382W        W30697  20.711  39.531  10.441
58383W        W30698  11.749  19.773  13.484
58384W        W30699   0.349  27.522  10.469
58385W        W30700  39.503  13.114   1.386
58386W        W30701  43.275  25.064  14.370
58387W        W30702  20.037  35.490  10.552
58388W        W30703  13.226  26.508  11.021
58389W        W30704  35.994   4.793   0.787
58390W        W30705  44.978  22.181   1.433
58391W        W30706   7.819   7.759  12.565
58392W        W30707   8.239   7.326   1.323
58393W        W30708  12.668  37.535   0.918
58394W        W30709  44.938  41.816  13.918
58395W        W30710  20.612  32.923   2.393
58396W        W30711   5.725  43.007   0.406
58397W        W30712  10.779  34.943  10.548
58398W        W30713  20.769  33.495  13.373
58399W        W30714   0.264  27.943  10.469
58400W        W30715  19.595  16.808   2.336
58401W        W30716  15.225  17.154  12.968
58402W        W30717  12.704  31.405   4.185
58403W        W30718  23.736  40.989   4.831
58404W        W30719  42.850  36.922  13.980
58405W        W30720  41.515  40.308   1.861
58406W        W30721  35.056  39.501   4.190
58407W        W30722  29.003  10.283   4.354
58408W        W30723  44.943  31.995  14.479
58409W        W30724  20.218  33.057  13.045
58410W        W30725  18.206  16.244   4.714
58411W        W30726  22.552  18.148  14.296
58412W        W30727   0.757  12.119  12.372
58413W        W30728  15.304  41.527  12.994
58414W        W30729   6.415  13.743  11.392
58415W        W30730   6.409  14.637   0.850
58416W        W30731  19.254   4.312  12.571
58417W        W30732   0.361  35.920  12.849
58418W        W30733  17.678  36.064   0.943
58419W        W30734  44.819  42.980  10.609
58420W        W30735   0.766  33.598  10.073
58421W        W30736  43.431   3.870  10.629
58422W        W30737   5.737  41.980  11.542
58423W        W30738  39.433  19.718  10.555
58424W        W30739  33.493  19.740  10.610
58425W        W30740  29.635  15.808  13.869
58426W        W30741  41.483  36.995  11.550
58427W        W30742  18.188  32.076  13.928
58428W        W30743  32.573  12.213  14.451
58429W        W30744  30.104  30.979   3.180
58430W        W30745  44.913   3.364   2.318
58431W        W30746  34.945   1.306  14.899
58432W        W30747   1.790  13.295  11.395
58433W        W30748  33.450   9.225   2.729
58434W        W30749  18.639   2.359  14.878
58435W        W30750  32.982  23.550   4.193
58436W        W30751  15.231  20.577  13.363
58437W        W30752  40.037  43.797  14.334
58438W        W30753  21.520   4.228   2.896
58439W        W30754  10.829  24.141   3.675
58440W        W30755  36.464   0.917   3.189
58441W        W30756  14.648  25.077  12.402
58442W        W30757  13.212  42.473   1.870
58443W        W30758  43.806  11.781  12.386
58444W        W30759   1.755  20.628  10.980
58445W        W30760  39.978   8.722   4.240
58446W        W30761   0.353  13.304  14.391
58447W        W30762  40.844  24.593   1.336
58448W        W30763  38.551  38.435  14.827
58449W        W30764   6.260  10.327   3.800
58450W        W30765  28.600  24.191   0.470
58451W        W30766   9.747  43.860  10.469
58452W        W30767  15.645  39.473  14.425
58453W        W30768  29.508  14.120  12.393
58454W        W30769  18.678  25.164  14.760
58455W        W30770  11.827   5.345  10.410
58456W        W30771  18.189  37.072   2.278
58457W        W30772  43.301  20.270  11.490
58458W        W30773   3.869  26.144  14.014
58459W        W30774  16.778   2.352   1.896
58460W        W30775  16.297   6.289   1.746
58461W        W30776  19.752  19.210  14.991
58462W        W30777  13.711  36.886  10.431
58463W        W30778   7.353  10.160   1.403
58464W        W30779   9.823  15.668  13.806
58465W        W30780  32.108  36.906   1.786
58466W        W30781  25.992   1.350   1.859
58467W        W30782  24.228  41.876  10.466
58468W        W30783  18.624  15.725   3.797
58469W        W30784  44.883  29.536   4.767
58470W        W30785   7.812  26.554   1.736
58471W        W30786  26.535  23.650   4.772
58472W        W30787  34.519  19.708   4.791
58473W        W30788  23.032  13.162   0.818
58474W        W30789  33.433  19.542   1.307
58475W        W30790   0.880  35.038  13.840
58476W        W30791  27.197  31.411   5.115
58477W        W30792   6.426  17.275   2.274
58478W        W30793  26.101  20.645   1.879
58479W        W30794  37.931  42.970  10.918
58480W        W30795  36.057  19.161   2.688
58481W        W30796  38.981  10.264   1.750
58482W        W30797  40.999  27.460  12.044
58483W        W30798   4.753  42.919   1.825
58484W        W30799  12.773  18.656  10.151
58485W        W30800  15.168  28.934   3.307
58486W        W30801   6.269   7.886   3.832
58487W        W30802  17.253  34.890  13.036
58488W        W30803  11.762   5.197  11.092
58489W        W30804   4.449   2.843  12.501
58490W        W30805   2.371  40.033   3.305
58491W        W30806  28.583  30.984  14.972
58492W        W30807  23.238  21.601   2.762
58493W        W30808  22.027  20.717   2.331
58494W        W30809  15.689  29.961  10.569
58495W        W30810  43.904   0.400  11.957
58496W        W30811  16.693  16.132  14.808
58497W        W30812   5.862  16.576  13.892
58498W        W30813   1.856  41.966   0.883
58499W        W30814   2.366  21.737   1.807
58500W        W30815  42.943  21.173   5.319
58501W        W30816  42.371  33.114  13.034
58502W        W30817  31.914   4.230  11.942
58503W        W30818  43.402   2.404   3.816
58504W        W30819   6.254  19.590  11.884
58505W        W30820  41.930  20.682  10.567
58506W        W30821   6.725  31.468   3.776
58507W        W30822  26.539  28.008  14.806
58508W        W30823  44.349  17.584   3.386
58509W        W30824  14.317  25.966   0.367
58510W        W30825  19.251  27.687   1.332
58511W        W30826  39.994  15.773   0.747
58512W        W30827  36.584   0.862   1.255
58513W        W30828  15.322  35.453   4.154
58514W        W30829  34.949  34.520   0.428
58515W        W30830   4.930   2.430  13.309
58516W        W30831  19.631   0.893   3.192
58517W        W30832  36.436  33.893  14.357
58518W        W30833  24.014  37.360   1.248
58519W        W30834  23.701  26.069   2.370
58520W        W30835  20.601  12.249  11.494
58521W        W30836  21.175  42.975   2.869
58522W        W30837  18.290  28.969  13.429
58523W        W30838  21.590  18.755   9.988
58524W        W30839  27.978   1.277   0.444
58525W        W30840  32.452  11.295   3.675
58526W        W30841  27.461  23.638  14.945
58527W        W30842  37.414  42.927  14.808
58528W        W30843  40.987  27.472   0.385
58529W        W30844  41.949  17.794   3.271
58530W        W30845  27.091   4.841  13.979
58531W        W30846  37.038   0.434   3.263
58532W        W30847  31.112  35.440   4.187
58533W        W30848   7.669   9.760   2.240
58534W        W30849  21.632  14.280   2.846
58535W        W30850   7.211  26.533   2.283
58536W        W30851  40.842   7.293   3.195
58537W        W30852  30.982  26.607  10.913
58538W        W30853  32.574  19.046   3.705
58539W        W30854  20.242   0.374   3.196
58540W        W30855  24.659  17.123   1.270
58541W        W30856  18.773  22.146   0.953
58542W        W30857  26.168  11.781   4.627
58543W        W30858  20.582  17.286   4.729
58544W        W30859  22.168  42.906  13.934
58545W        W30860   8.182  18.753   2.773
58546W        W30861  38.951  44.293   1.235
58547W        W30862   9.261   0.920  11.480
58548W        W30863  42.493  44.347  11.486
58549W        W30864   3.865  14.749  13.365
58550W        W30865  21.517  10.830   4.318
58551W        W30866  31.133   0.476   4.759
58552W        W30867  18.086  17.152  11.901
58553W        W30868   1.308  17.132  11.514
58554W        W30869   3.446  35.414   3.794
58555W        W30870  10.772  39.369  13.516
58556W        W30871  23.155  27.135   2.327
58557W        W30872  21.056  14.288  13.329
58558W        W30873  26.146  27.475  13.425
58559W        W30874  33.939  36.372  10.425
58560W        W30875  38.942   8.252  10.067
58561W        W30876  35.359  10.688   2.755
58562W        W30877  43.285  15.730  13.848
58563W        W30878  35.936  29.103  14.769
58564W        W30879  12.623  15.678   2.845
58565W        W30880   3.269  37.480  10.483
58566W        W30881  13.743  10.293   0.348
58567W        W30882  39.878   9.666  12.915
58568W        W30883  39.919  20.697   0.309
58569W        W30884  10.222  22.213  12.456
58570W        W30885  39.816   6.742   0.945
58571W        W30886  18.683   5.885   1.747
58572W        W30887   1.309  41.388   1.888
58573W        W30888  22.590  27.610  10.455
58574W        W30889  21.549  13.262  10.548
58575W        W30890  42.920  27.074  14.282
58576W        W30891  21.117  21.638  12.042
58577W        W30892  28.531  18.107   1.912
58578W        W30893  11.267  30.128  11.100
58579W        W30894  12.651  17.698  11.916
58580W        W30895  21.123   5.899   1.924
58581W        W30896   8.799  19.230   1.280
58582W        W30897  30.611  29.602  14.890
58583W        W30898  30.108  29.536   0.402
58584W        W30899  28.522  13.185   0.817
58585W        W30900  22.708  35.078   5.308
58586W        W30901  44.823  38.538   2.836
58587W        W30902  16.204   7.241  12.481
58588W        W30903  30.636  18.553  11.965
58589W        W30904  22.999  24.168   4.229
58590W        W30905  40.408  26.552  11.973
58591W        W30906  18.194  22.153  14.441
58592W        W30907  16.301  13.339   2.303
58593W        W30908  44.907   5.765  11.953
58594W        W30909  10.234   5.931  13.932
58595W        W30910  15.226  36.045   0.960
58596W        W30911   1.441  35.980  10.455
58597W        W30912   4.425  10.281  13.496
58598W        W30913   1.931  11.774  13.308
58599W        W30914  43.773   8.765  13.435
58600W        W30915  14.658  28.633   4.717
58601W        W30916  26.997  19.589   4.139
58602W        W30917  31.454  24.568  10.618
58603W        W30918  19.225  15.127   4.804
58604W        W30919  14.102   6.329  10.460
58605W        W30920  41.943   9.888   4.635
58606W        W30921  39.009   8.761  10.435
58607W        W30922  37.960   1.274  12.022
58608W        W30923  33.941   3.777   2.205
58609W        W30924  29.627   0.354  13.064
58610W        W30925  11.249  27.473  11.065
58611W        W30926   4.335  34.381   1.795
58612W        W30927  12.176  24.588   0.795
58613W        W30928  37.519  43.825   2.199
58614W        W30929  25.642  39.558  12.347
58615W        W30930  37.912  15.293  14.481
58616W        W30931  19.594   8.221   2.232
58617W        W30932  39.003  17.248   3.197
58618W        W30933  27.056  20.576   1.886
58619W        W30934  25.685  10.764   3.285
58620W        W30935  38.448  28.108  14.820
58621W        W30936  23.728  28.661  11.520
58622W        W30937  21.689  28.493   2.751
58623W        W30938   5.365  43.823  12.463
58624W        W30939  25.474  40.423  11.886
58625W        W30940   2.912  36.078   4.229
58626W        W30941   4.809  32.947   3.649
58627W        W30942  36.506   6.697   2.679
58628W        W30943  33.954  29.583   4.303
58629W        W30944  13.801  22.624   3.262
58630W        W30945  25.013  39.955   0.960
58631W        W30946  44.788  38.429  10.537
58632W        W30947   9.778  31.914  14.847
58633W        W30948  18.176   9.780   4.629
58634W        W30949  25.637  34.933   3.248
58635W        W30950  40.868  42.320  11.964
58636W        W30951  22.671  29.939   2.377
58637W        W30952   8.826  35.482   4.680
58638W        W30953  11.801  25.123   3.356
58639W        W30954  33.456   8.272  13.832
58640W        W30955  18.750  36.013  12.505
58641W        W30956  41.501  26.559  14.012
58642W        W30957  14.255  21.603   4.672
58643W        W30958  15.592   1.366   4.257
58644W        W30959  13.648  43.368   3.151
58645W        W30960  18.123  43.963  14.323
58646W        W30961  40.378   4.897   0.864
58647W        W30962  37.917  30.617   2.182
58648W        W30963  19.652  18.659   3.310
58649W        W30964  25.618  28.584   2.318
58650W        W30965  13.676  41.458   3.237
58651W        W30966  38.543  38.067   2.885
58652W        W30967  23.564   6.279  14.361
58653W        W30968  12.185  38.848   0.246
58654W        W30969  28.988  21.222   2.250
58655W        W30970  20.160  37.473   2.408
58656W        W30971  13.252   0.881   4.227
58657W        W30972  19.132  10.269   1.289
58658W        W30973  33.026   9.840  10.440
58659W        W30974  13.654  21.560  10.987
58660W        W30975  34.583  34.944  14.515
58661W        W30976  30.587  13.806  10.598
58662W        W30977  14.300  34.080   4.132
58663W        W30978  13.201  29.966  12.021
58664W        W30979  20.274   4.277   3.859
58665W        W30980   2.753   4.227  10.467
58666W        W30981  20.526  35.943   0.784
58667W        W30982  21.154  28.663  11.403
58668W        W30983   0.425  20.555   3.757
58669W        W30984  22.143  26.148   3.731
58670W        W30985  11.171   4.775  10.486
58671W        W30986   0.819  33.882   5.155
58672W        W30987   3.895  14.735   0.323
58673W        W30988  22.570  40.828  12.908
58674W        W30989  19.160  40.882  11.014
58675W        W30990  43.412  11.850  14.896
58676W        W30991  12.353  26.687   2.246
58677W        W30992  29.487  16.204   1.788
58678W        W30993  36.490  41.897  12.086
58679W        W30994   6.841  32.095  10.573
58680W        W30995  36.362  25.600  12.079
58681W        W30996   4.935  30.071   3.224
58682W        W30997   9.883  31.502  11.900
58683W        W30998  11.849  44.790   0.837
58684W        W30999   1.263  12.707  14.881
58685W        W31000  42.399  24.560  13.354
58686W        W31001  38.902  41.864  13.441
58687W        W31002  11.790  24.063  13.400
58688W        W31003  37.866  17.675   0.383
58689W        W31004   8.296  21.185   9.978
58690W        W31005  27.530  12.310  12.538
58691W        W31006   2.299  18.127   5.239
58692W        W31007  14.161   8.781   1.261
58693W        W31008  28.992  28.930  13.833
58694W        W31009  42.312   2.409  10.963
58695W        W31010  32.137  26.506   2.810
58696W        W31011  10.810  42.435  12.034
58697W        W31012  44.493   9.362  13.517
58698W        W31013  24.116  28.463   1.441
58699W        W31014  19.136  33.973  12.535
58700W        W31015  15.653  34.485   2.820
58701W        W31016  44.463  31.631   1.850
58702W        W31017  36.441  39.048   2.840
58703W        W31018  40.817  26.493   3.775
58704W        W31019  15.789   0.790  12.016
58705W        W31020  27.135  31.041  14.440
58706W        W31021  22.719  38.541   1.317
58707W        W31022  24.673  18.273  14.881
58708W        W31023   6.730  44.425  12.057
58709W        W31024  24.558  16.219   3.842
58710W        W31025  16.645   1.806  14.883
58711W        W31026  31.060  29.433   2.709
58712W        W31027  35.871  15.655  11.520
58713W        W31028  37.920  14.256   4.739
58714W        W31029  37.353  23.215  11.932
58715W        W31030   1.463  21.568  13.801
58716W        W31031  44.799  13.125  11.097
58717W        W31032   6.329  18.119  12.347
58718W        W31033  40.800  24.020  11.118
58719W        W31034  14.336   7.387  12.530
58720W        W31035  16.693  38.487  13.446
58721W        W31036  22.727  16.174   2.688
58722W        W31037  44.905  15.312   4.640
58723W        W31038  42.811  32.037   3.151
58724W        W31039   1.771  17.190   4.827
58725W        W31040  10.690  23.083   3.752
58726W        W31041   9.282  30.039  14.291
58727W        W31042  42.438  26.656  13.495
58728W        W31043   4.935   5.359  11.562
58729W        W31044  21.166  33.566   4.321
58730W        W31045  21.033  41.400   4.289
58731W        W31046  38.068   9.870  14.401
58732W        W31047  28.563  42.927  14.375
58733W        W31048  13.743  27.467   4.114
58734W        W31049  23.038  21.642   1.887
58735W        W31050  39.007  44.827   1.318
58736W        W31051  24.033  13.248   0.792
58737W        W31052  32.000   5.819   4.255
58738W        W31053  29.661   7.871   3.647
58739W        W31054   5.318   8.389   4.166
58740W        W31055  17.167  13.127   4.298
58741W        W31056  19.774  28.164   3.821
58742W        W31057  43.354   2.797  11.937
58743W        W31058  44.931  12.620   0.842
58744W        W31059   2.233  19.699   4.706
58745W        W31060  23.716  20.123  13.521
58746W        W31061  14.133  19.630  12.071
58747W        W31062  14.783  39.352   0.385
58748W        W31063   8.161  15.729   3.155
58749W        W31064  15.750  18.700  12.353
58750W        W31065  25.129   5.888   5.139
58751W        W31066  16.107  36.015  12.516
58752W        W31067  35.001  41.939  13.972
58753W        W31068  14.614  25.149  10.966
58754W        W31069  42.840  13.802   2.782
58755W        W31070  23.988  25.473  12.940
58756W        W31071  36.847  26.071  14.306
58757W        W31072  10.799   4.326   1.266
58758W        W31073  29.173  38.005   4.185
58759W        W31074  29.578  35.947  11.022
58760W        W31075  44.938  16.293   3.363
58761W        W31076  11.208  18.239   2.410
58762W        W31077   0.347  42.969  11.406
58763W        W31078   7.723  32.542   0.254
58764W        W31079  34.938  34.609  10.023
58765W        W31080   1.908  41.834  12.439
58766W        W31081   3.882  31.923   1.393
58767W        W31082  21.246  18.060  12.561
58768W        W31083  18.250  29.466  12.523
58769W        W31084  21.723  13.753  13.516
58770W        W31085  10.323  32.397  14.832
58771W        W31086   8.300  13.815  13.369
58772W        W31087  44.852  33.901  12.517
58773W        W31088   4.363  14.303  10.919
58774W        W31089  35.475  38.452  13.408
58775W        W31090  16.640   0.969   0.848
58776W        W31091  23.164  19.577  13.963
58777W        W31092  44.504  38.545  13.495
58778W        W31093  13.803  34.374  12.063
58779W        W31094   4.343   3.809   0.793
58780W        W31095  15.650   1.868   0.376
58781W        W31096   8.788  39.393   3.817
58782W        W31097   0.967  13.249   5.294
58783W        W31098  27.953  30.501   4.163
58784W        W31099  14.222  24.123  11.476
58785W        W31100   7.311   8.292  11.963
58786W        W31101  34.612  26.562   4.827
58787W        W31102   0.261  16.568  13.413
58788W        W31103  41.962  26.127   4.351
58789W        W31104  16.177   8.363   1.757
58790W        W31105  15.103  41.343   2.185
58791W        W31106  23.561  32.044  13.408
58792W        W31107   0.979  33.502   2.885
58793W        W31108  11.665  28.505   3.829
58794W        W31109  34.588  37.442   2.700
58795W        W31110  23.072  39.946  12.342
58796W        W31111  10.274  31.647  11.499
58797W        W31112   5.267   2.902   0.780
58798W        W31113  18.678  18.245   0.819
58799W        W31114  43.467  23.169  13.491
58800W        W31115  25.482  10.801   4.821
58801W        W31116  20.062   8.822   0.451
58802W        W31117  17.637  39.416   2.834
58803W        W31118   4.849  10.291  12.352
58804W        W31119  35.484  15.300   3.649
58805W        W31120  36.363  20.669   0.425
58806W        W31121   5.781   6.750  13.869
58807W        W31122  32.437  35.400  13.395
58808W        W31123  28.186  42.431   4.607
58809W        W31124  16.660  21.239  13.018
58810W        W31125  34.021  27.469   4.796
58811W        W31126   0.386  30.007  11.425
58812W        W31127  38.995  36.969  11.009
58813W        W31128  18.743  44.871  11.001
58814W        W31129  12.194   7.172  12.350
58815W        W31130  42.384  38.536   4.730
58816W        W31131  29.526  26.484   2.419
58817W        W31132  44.798  37.347   2.769
58818W        W31133  12.841  26.482  13.003
58819W        W31134  38.326  19.252   4.355
58820W        W31135  33.934  10.364  12.830
58821W        W31136  41.519   3.888  12.972
58822W        W31137  26.589  27.471  13.428
58823W        W31138  23.240  26.556  12.500
58824W        W31139  27.678  25.152  14.448
58825W        W31140  37.453  40.507   2.736
58826W        W31141  20.120  43.939  12.965
58827W        W31142   8.764   6.238  13.935
58828W        W31143  29.585  14.197   0.346
58829W        W31144  10.205  28.015  11.611
58830W        W31145  22.232  27.136   2.879
58831W        W31146  19.678   0.351   4.298
58832W        W31147  42.819   8.295  13.505
58833W        W31148  25.997   0.980  11.927
58834W        W31149  14.726  26.622  11.932
58835W        W31150  25.576  13.684   0.759
58836W        W31151  35.386  12.139  13.500
58837W        W31152  18.091  40.973  11.925
58838W        W31153   2.752  10.794   4.199
58839W        W31154  23.569  36.028  14.982
58840W        W31155   8.668  26.103  13.805
58841W        W31156  42.340  40.366  14.340
58842W        W31157  27.068   4.368  12.936
58843W        W31158  31.116  42.438   0.887
58844W        W31159  15.617  11.152  13.818
58845W        W31160  11.278  20.157   1.417
58846W        W31161  18.787   4.747   0.796
58847W        W31162   9.381  12.220   1.279
58848W        W31163  25.097  23.228   1.262
58849W        W31164  44.799  25.006  12.339
58850W        W31165  12.118  14.158   0.315
58851W        W31166  36.933  37.866  10.969
58852W        W31167   4.907  39.353   3.329
58853W        W31168  26.050  11.745  12.364
58854W        W31169  15.161  29.555  11.373
58855W        W31170  13.792   0.884   0.334
58856W        W31171  41.888  38.378   3.240
58857W        W31172  39.831  13.746   3.698
58858W        W31173  36.448   4.306   1.923
58859W        W31174  26.068  18.613  14.905
58860W        W31175  28.076  26.600   1.301
58861W        W31176  26.480   6.892   5.290
58862W        W31177  14.801  38.442  14.822
58863W        W31178  32.559  15.208   4.712
58864W        W31179   1.939  32.908   3.778
58865W        W31180   7.195  28.156   5.303
58866W        W31181  11.158  15.787   5.110
58867W        W31182   4.938   3.955   3.233
58868W        W31183   3.447  33.521  12.455
58869W        W31184  29.629  14.094  12.055
58870W        W31185  26.171  34.908  13.820
58871W        W31186  24.039  42.849  11.572
58872W        W31187  21.102  31.049   0.362
58873W        W31188  29.482   7.894  11.574
58874W        W31189  22.555  41.839  11.122
58875W        W31190   0.811  20.675  11.492
58876W        W31191  30.059  39.499   4.695
58877W        W31192  14.143  24.015   1.820
58878W        W31193  30.486  41.937   3.833
58879W        W31194  14.835  18.585   0.932
58880W        W31195  36.458   0.877   4.196
58881W        W31196   9.873  42.882   5.145
58882W        W31197  40.491  16.589   2.860
58883W        W31198  39.959  11.344   3.869
58884W        W31199  39.457  11.663   3.349
58885W        W31200   2.264  42.952   3.246
58886W        W31201  17.560  11.707  10.519
58887W        W31202  34.497  33.538   0.950
58888W        W31203  43.959  36.397   2.212
58889W        W31204  26.580  38.557   2.772
58890W        W31205  13.790  31.112  14.494
58891W        W31206  16.809   4.873   0.405
58892W        W31207  13.831  22.639   4.170
58893W        W31208  25.216   4.844  12.360
58894W        W31209   6.373  26.496   2.207
58895W        W31210  37.527  44.909  13.441
58896W        W31211  13.701  39.443   3.288
58897W        W31212  21.045   2.249  12.494
58898W        W31213   3.229  17.062  13.462
58899W        W31214  17.099  31.010   3.816
58900W        W31215   5.436  38.571  11.108
58901W        W31216   3.954  44.499  10.974
58902W        W31217   4.773  21.083  14.475
58903W        W31218  40.885  11.149   3.869
58904W        W31219  22.191  12.146   3.724
58905W        W31220  39.880  40.464   1.867
58906W        W31221  10.763  18.553   4.279
58907W        W31222  32.483   5.387   4.766
58908W        W31223  24.054   6.375  14.360
58909W        W31224  19.181  20.541   0.339
58910W        W31225  41.474   9.718  12.962
58911W        W31226  32.550   9.336   4.229
58912W        W31227   3.745  34.568   4.798
58913W        W31228  25.168   4.335   4.664
58914W        W31229  27.943  26.644   0.363
58915W        W31230  39.854  30.613   0.757
58916W        W31231  39.001  25.132  10.517
58917W        W31232  35.412  41.328   3.208
58918W        W31233  17.680   4.816  14.348
58919W        W31234  15.785  27.679   4.599
58920W        W31235  26.101  11.310  12.012
58921W        W31236  36.557  43.947  10.937
58922W        W31237  39.462  43.879   0.336
58923W        W31238  34.982  29.655  12.055
58924W        W31239  17.272   5.368  10.454
58925W        W31240  14.132  28.970   4.128
58926W        W31241  25.636  14.310   0.920
58927W        W31242   2.448  27.581  12.486
58928W        W31243   7.192  33.022  10.545
58929W        W31244  15.159   8.785   2.385
58930W        W31245  10.874  15.127   3.843
58931W        W31246  43.956  27.988  14.318
58932W        W31247  30.937  25.539   0.753
58933W        W31248   0.760  20.590   3.288
58934W        W31249  22.503   4.930   2.681
58935W        W31250   4.427  18.594   4.832
58936W        W31251   8.717  24.540   3.716
58937W        W31252  18.079  12.654  11.097
58938W        W31253  23.054  34.888  10.907
58939W        W31254  33.453  20.145  11.990
58940W        W31255   4.713  38.476  10.996
58941W        W31256  33.088  38.325   2.688
58942W        W31257  31.126   1.927   3.854
58943W        W31258   3.725  36.464   1.920
58944W        W31259  37.897  33.623  13.970
58945W        W31260  33.982   8.687   0.264
58946W        W31261   9.836  18.667  13.492
58947W        W31262  21.162  40.429  14.822
58948W        W31263  34.581  26.465  14.810
58949W        W31264  33.539  37.412  10.629
58950W        W31265  29.019  43.419   1.705
58951W        W31266   5.437  36.088  11.486
58952W        W31267  36.984  27.447   2.889
58953W        W31268  41.378  20.588  13.033
58954W        W31269   1.858  10.818  13.336
58955W        W31270  29.093  25.551   0.791
58956W        W31271  24.628  13.312   0.942
58957W        W31272  24.717  23.715  13.433
58958W        W31273  21.050  11.279  14.964
58959W        W31274  35.034  25.167   2.860
58960W        W31275   7.280  28.992   4.672
58961W        W31276  14.762  34.100  10.925
58962W        W31277  25.045  26.185   0.911
58963W        W31278  32.419  16.207  14.858
58964W        W31279  29.043  16.734   3.384
58965W        W31280  23.630  43.319  13.445
58966W        W31281  16.293   0.818  12.405
58967W        W31282  35.365  19.100   0.274
58968W        W31283   0.837  10.226  11.452
58969W        W31284  42.351  31.406   2.703
58970W        W31285   7.827  36.380  11.414
58971W        W31286  15.602  28.462   0.875
58972W        W31287  32.523   3.402   3.299
58973W        W31288  30.430  42.856   4.207
58974W        W31289  12.120  30.464  12.026
58975W        W31290  38.825  36.032  12.907
58976W        W31291   9.827  35.375  14.947
58977W        W31292  35.057   8.336  12.849
58978W        W31293  37.924  12.218   0.827
58979W        W31294  32.964  28.560  10.581
58980W        W31295  11.277  14.640  10.474
58981W        W31296   5.749  38.533  14.431
58982W        W31297  26.538  17.678  10.909
58983W        W31298   4.909  11.181  14.425
58984W        W31299  39.504  33.985   2.280
58985W        W31300  28.477  31.027   2.673
58986W        W31301  10.641  24.542  13.988
58987W        W31302  37.451  39.997  13.470
58988W        W31303  14.109  24.201  13.500
58989W        W31304   4.757   1.748  12.496
58990W        W31305   6.335  32.436   0.805
58991W        W31306  34.549  15.806  12.056
58992W        W31307  36.041  44.786   3.179
58993W        W31308   3.798  24.043  12.354
58994W        W31309  44.346  37.443   2.411
58995W        W31310  34.035  37.022   0.384
58996W        W31311  20.657   3.218   0.427
58997W        W31312  43.896  33.958   4.770
58998W        W31313  39.002  38.376  11.905
58999W        W31314  29.015  25.617  13.815
59000W        W31315  40.016  43.432  11.958
59001W        W31316  41.889  32.488  12.344
59002W        W31317  32.413  40.012  11.989
59003W        W31318  11.715  25.062  12.959
59004W        W31319  40.046  43.440  11.491
59005W        W31320  30.638  40.515  14.923
59006W        W31321  14.810  15.147   4.239
59007W        W31322  37.404   6.321   0.735
59008W        W31323  43.958   0.748   3.856
59009W        W31324  24.614  39.361   4.306
59010W        W31325  22.744  44.476   3.843
59011W        W31326  22.212  18.766  13.808
59012W        W31327  24.162  37.025   2.310
59013W        W31328  34.107  28.521  14.305
59014W        W31329  21.672  15.686  14.502
59015W        W31330   0.335   9.672   1.738
59016W        W31331   6.866  29.522  10.575
59017W        W31332  29.465   2.836   3.267
59018W        W31333  13.184  31.491   2.758
59019W        W31334   2.723  22.538   1.850
59020W        W31335  41.853  44.489  12.042
59021W        W31336  21.135  35.058  10.445
59022W        W31337  18.759  31.533  13.820
59023W        W31338  41.834   4.806  10.055
59024W        W31339   5.904   4.221  14.483
59025W        W31340  37.864  35.575  11.869
59026W        W31341  40.049  18.748  10.901
59027W        W31342  10.662  28.101  13.366
59028W        W31343  38.017  34.379  12.900
59029W        W31344  31.112  15.669   3.280
59030W        W31345  12.309  26.698  11.430
59031W        W31346  28.965  12.770   4.224
59032W        W31347  10.330   2.402  11.463
59033W        W31348  44.335  20.690  10.545
59034W        W31349  22.033   8.268   2.715
59035W        W31350  36.383  16.762   2.832
59036W        W31351  38.056  23.063  12.932
59037W        W31352  14.764  21.605  10.583
59038W        W31353   0.267  43.304  12.875
59039W        W31354   7.677  16.695  13.946
59040W        W31355  22.610  13.613   3.368
59041W        W31356  41.327   7.338  14.412
59042W        W31357  43.344  19.700   1.742
59043W        W31358  21.119  28.939  10.606
59044W        W31359  41.481  42.950  10.086
59045W        W31360  26.117  35.549  13.352
59046W        W31361  22.051  35.580   3.685
59047W        W31362  25.580  16.790   1.817
59048W        W31363  26.974  30.616  14.379
59049W        W31364  27.676   7.816  11.999
59050W        W31365   7.360  20.220   4.689
59051W        W31366   5.695  36.555  13.382
59052W        W31367  21.720   4.715  10.936
59053W        W31368  32.487  14.105   4.173
59054W        W31369  32.041  39.989   4.308
59055W        W31370  43.507  39.999  13.864
59056W        W31371  42.871  29.020   4.152
59057W        W31372  15.666   0.825   3.840
59058W        W31373   4.752  42.784  11.104
59059W        W31374   2.285   3.879   4.634
59060W        W31375  41.383  25.205   2.757
59061W        W31376  38.401  43.910   0.441
59062W        W31377  24.530  14.707  13.408
59063W        W31378  33.457   6.805  13.852
59064W        W31379  38.533   9.340  12.433
59065W        W31380  33.034   1.297   0.444
59066W        W31381  12.226   9.327  10.415
59067W        W31382   5.384  15.213   2.191
59068W        W31383  27.537   7.277  10.491
59069W        W31384  34.573   3.727  11.491
59070W        W31385   0.748   4.887  11.532
59071W        W31386  36.043   8.848   0.896
59072W        W31387  34.110  18.185  10.474
59073W        W31388  36.034  41.883  13.459
59074W        W31389  19.597  38.002  10.910
59075W        W31390  39.995  26.041  14.304
59076W        W31391  17.241  24.505  13.929
59077W        W31392  12.138   6.763  12.014
59078W        W31393  26.600   8.374   3.241
59079W        W31394   9.879  36.454   1.353
59080W        W31395  19.159  20.119  14.855
59081W        W31396  32.407  11.782   4.834
59082W        W31397  17.647  19.695  12.863
59083W        W31398  12.208  42.396   1.843
59084W        W31399  31.989  14.213  11.035
59085W        W31400  43.369  44.307   0.935
59086W        W31401  41.351   8.179  11.035
59087W        W31402   6.814   9.702  11.469
59088W        W31403  39.042  20.191  13.030
59089W        W31404   2.873  18.680   0.327
59090W        W31405  30.146   3.305   2.239
59091W        W31406   8.321  37.831   0.320
59092W        W31407  23.234   7.868   3.179
59093W        W31408  38.978  42.908   1.310
59094W        W31409  30.588  35.854  14.507
59095W        W31410  33.533  19.245  14.958
59096W        W31411   7.316  22.197   3.670
59097W        W31412  40.509   9.172   3.819
59098W        W31413  13.776   6.811   2.295
59099W        W31414  27.631   1.736  14.414
59100W        W31415  42.299  32.587  14.024
59101W        W31416  22.249  40.953  13.979
59102W        W31417  28.609   0.394   0.424
59103W        W31418  10.869  39.467  12.546
59104W        W31419  44.977  38.019   1.850
59105W        W31420  17.688   2.446  14.403
59106W        W31421  28.454  22.112   4.730
59107W        W31422  28.048   6.284   1.780
59108W        W31423   6.286  35.477   3.384
59109W        W31424  42.398  20.569  14.368
59110W        W31425  36.461   2.964   2.731
59111W        W31426  38.963  26.528   9.638
59112W        W31427  31.444  12.726   1.311
59113W        W31428  31.115  14.791   2.399
59114W        W31429  31.924  12.125   4.172
59115W        W31430   9.792  41.534  13.372
59116W        W31431  19.053  39.410  14.471
59117W        W31432  37.854  38.530  13.998
59118W        W31433  26.170  35.860   2.351
59119W        W31434  23.680  37.544   2.219
59120W        W31435  12.259  26.130  13.923
59121W        W31436  15.188  15.193  13.366
59122W        W31437  26.621   6.840  12.392
59123W        W31438  20.594  36.569   3.301
59124W        W31439  15.609  42.972   1.714
59125W        W31440   8.881  16.716   2.857
59126W        W31441  27.686   5.389  14.444
59127W        W31442  39.005  43.339   2.816
59128W        W31443   5.388   4.260  14.495
59129W        W31444  17.233  43.346  12.365
59130W        W31445  26.479  32.454  11.603
59131W        W31446  41.974  10.767  13.489
59132W        W31447  29.165   8.328   3.244
59133W        W31448  20.192  30.978   3.161
59134W        W31449  22.719   3.305   2.889
59135W        W31450  35.865  15.633  13.950
59136W        W31451  22.537  39.456   1.388
59137W        W31452  19.648  17.720  11.013
59138W        W31453  17.775  38.568  11.903
59139W        W31454  32.498  13.324   0.921
59140W        W31455  26.156  14.307  13.461
59141W        W31456  42.783  38.502   1.273
59142W        W31457  39.035  17.127   3.664
59143W        W31458   8.307  26.071  13.513
59144W        W31459  10.329  21.218  13.448
59145W        W31460  28.607  17.654  12.517
59146W        W31461   5.249  38.428  13.408
59147W        W31462  43.426   0.318  14.946
59148W        W31463  12.179  27.137   4.813
59149W        W31464  15.318  15.648  11.478
59150W        W31465  32.492   3.350   2.374
59151W        W31466  35.922  40.820  14.317
59152W        W31467   3.458  12.612  12.570
59153W        W31468  21.557  32.432  14.875
59154W        W31469   2.305  42.976  14.490
59155W        W31470  10.762   1.358   3.642
59156W        W31471  27.652  39.868   0.290
59157W        W31472  27.109  26.504  10.110
59158W        W31473  20.218  41.994   0.270
59159W        W31474  17.212  17.657  13.814
59160W        W31475  16.304  34.558   1.766
59161W        W31476  10.220  34.510  13.420
59162W        W31477  26.662   9.239  14.835
59163W        W31478   5.808   5.381  11.005
59164W        W31479  16.652  30.932  14.473
59165W        W31480   3.334   3.347  13.540
59166W        W31481  42.943   2.347   1.918
59167W        W31482   2.806  29.626   4.784
59168W        W31483  43.828   0.926   0.252
59169W        W31484  42.914  27.522  12.559
59170W        W31485  40.907   7.771  13.329
59171W        W31486  27.070  24.579   3.153
59172W        W31487   2.734  18.656  14.911
59173W        W31488   2.371   0.847   2.684
59174W        W31489   9.696  20.658   0.880
59175W        W31490  26.965  19.090   1.418
59176W        W31491  35.972  43.867  11.584
59177W        W31492  33.057   4.929   3.373
59178W        W31493  39.445   1.480  13.891
59179W        W31494  14.798  24.082  14.924
59180W        W31495   6.705   7.860  11.909
59181W        W31496  16.166  33.981   2.798
59182W        W31497  20.583  30.907  10.983
59183W        W31498   3.332  15.669   5.156
59184W        W31499   1.453  28.063   0.926
59185W        W31500   3.221  21.228   2.693
59186W        W31501  43.289   2.451  10.530
59187W        W31502  38.995  16.775   1.838
59188W        W31503  26.582   1.389   3.745
59189W        W31504  13.742  34.941   2.283
59190W        W31505  29.139   6.908  13.372
59191W        W31506  44.932  26.043  13.970
59192W        W31507  20.525   9.372  12.449
59193W        W31508  16.220  22.527  13.470
59194W        W31509  44.305  27.658   0.454
59195W        W31510  41.971   6.884  10.509
59196W        W31511  23.078   7.313  14.866
59197W        W31512  34.024  11.227  14.419
59198W        W31513  37.973  10.321   0.869
59199W        W31514  20.540  15.275   4.230
59200W        W31515  29.007  17.207   3.282
59201W        W31516   5.353  41.931   0.476
59202W        W31517  30.530  30.575  14.896
59203W        W31518  13.170  32.916  11.908
59204W        W31519   7.352  34.109   0.842
59205W        W31520  23.645   9.275   1.295
59206W        W31521  18.698  34.901  11.865
59207W        W31522  29.565  32.005  13.415
59208W        W31523   8.685  43.291  13.907
59209W        W31524  18.221  15.722  12.927
59210W        W31525  23.084  42.800  13.351
59211W        W31526   2.256  34.508  12.943
59212W        W31527  44.462  15.188  12.095
59213W        W31528   2.429  33.015   2.244
59214W        W31529   7.303  10.662  10.490
59215W        W31530  39.027  12.277   2.313
59216W        W31531  34.478  25.046  12.542
59217W        W31532   8.671  31.962  11.485
59218W        W31533  37.008  43.013  12.451
59219W        W31534  40.337  43.808   2.682
59220W        W31535  26.514  26.674   0.334
59221W        W31536  11.629  37.546   0.327
59222W        W31537  18.687  12.668  12.931
59223W        W31538  33.491   6.254   0.890
59224W        W31539  30.941  28.171  10.101
59225W        W31540  36.891  27.153  12.561
59226W        W31541  30.607   4.901  13.438
59227W        W31542  23.714  11.270  10.640
59228W        W31543  10.719  25.148  14.771
59229W        W31544  12.327   6.698   2.893
59230W        W31545  30.592  40.053  13.521
59231W        W31546  32.628  10.715  14.389
59232W        W31547   2.900  27.465  11.059
59233W        W31548  12.621  36.417  14.304
59234W        W31549  17.097  20.068  13.423
59235W        W31550  16.233  15.619  12.904
59236W        W31551   6.336   3.331   4.722
59237W        W31552  22.111  23.520  11.876
59238W        W31553  40.820  39.976   1.354
59239W        W31554  35.985  38.871   2.894
59240W        W31555  39.966  16.569  12.833
59241W        W31556  26.609  14.287   3.276
59242W        W31557  17.126  42.386  11.495
59243W        W31558  30.655  27.678  12.350
59244W        W31559  26.011   7.802  13.858
59245W        W31560   6.792  12.789   3.645
59246W        W31561   4.700  30.431  13.015
59247W        W31562  25.609  36.892  14.872
59248W        W31563  30.570   0.433   0.886
59249W        W31564   3.743  22.631   1.438
59250W        W31565  12.142   9.383  12.562
59251W        W31566  26.999  32.933  12.456
59252W        W31567  14.755  31.127   2.314
59253W        W31568  33.067  41.319   0.799
59254W        W31569  11.229  42.361   3.164
59255W        W31570  26.637  20.620  14.021
59256W        W31571  37.985  11.157   2.668
59257W        W31572  25.135   4.818   3.179
59258W        W31573   9.806  44.495   4.288
59259W        W31574  39.825  31.462  11.462
59260W        W31575  34.593  29.554   4.626
59261W        W31576  19.722  28.972   4.206
59262W        W31577  34.588   5.868  14.304
59263W        W31578  20.061  17.626   4.820
59264W        W31579  38.001  35.460   4.257
59265W        W31580  33.512  31.102   0.448
59266W        W31581   7.904  11.665  10.584
59267W        W31582  25.157  36.884  10.625
59268W        W31583  28.632  26.056  10.908
59269W        W31584  40.918  20.086  11.010
59270W        W31585  39.913  27.070   1.697
59271W        W31586  28.545   5.910   0.286
59272W        W31587   8.403  29.606   1.232
59273W        W31588  34.086  28.561  10.553
59274W        W31589  44.890   4.912   2.261
59275W        W31590  39.502  27.998   1.383
59276W        W31591   8.265   6.337   2.828
59277W        W31592   9.758   0.836  12.005
59278W        W31593  42.318  32.055   3.255
59279W        W31594  20.176   1.975   3.658
59280W        W31595  24.036   7.338  13.439
59281W        W31596   3.742   5.776  12.948
59282W        W31597  21.128  32.423   2.885
59283W        W31598  31.923  11.175   0.408
59284W        W31599  21.655  32.597   1.394
59285W        W31600   9.673  38.564   0.398
59286W        W31601  37.050  41.805  13.487
59287W        W31602  36.402  15.243  12.902
59288W        W31603  30.134   0.923  13.395
59289W        W31604  33.067  33.458   4.810
59290W        W31605  43.828   8.655   2.815
59291W        W31606   2.262  43.440   1.288
59292W        W31607   7.277  11.710   2.902
59293W        W31608  12.709  24.641   1.244
59294W        W31609  17.731  41.489  11.976
59295W        W31610   4.860  20.577   3.220
59296W        W31611  11.756   2.915  12.071
59297W        W31612  28.446  37.855   0.453
59298W        W31613  41.831  17.559  14.913
59299W        W31614  25.147  24.996  10.578
59300W        W31615  26.599  32.407  14.322
59301W        W31616  39.455  37.041  10.559
59302W        W31617  39.393  43.943  11.580
59303W        W31618   1.778  35.023  13.891
59304W        W31619   5.407  15.298  11.121
59305W        W31620  28.942  26.002   0.863
59306W        W31621  31.577  25.531  14.341
59307W        W31622  40.544  26.030   1.394
59308W        W31623   6.287  30.067   2.293
59309W        W31624  42.902  27.477   1.301
59310W        W31625  30.131   7.710  12.561
59311W        W31626  29.957   6.765  12.515
59312W        W31627  14.691   3.281   0.870
59313W        W31628  10.359  23.647   4.343
59314W        W31629  35.412  21.051   4.737
59315W        W31630  11.755  29.515  11.381
59316W        W31631  32.013   3.237   0.833
59317W        W31632  25.967  13.649   0.264
59318W        W31633  22.240   8.361   3.630
59319W        W31634   2.814  22.602  11.464
59320W        W31635  13.795  23.559  10.611
59321W        W31636   5.804  23.626  14.954
59322W        W31637  20.116  16.567  11.599
59323W        W31638  11.187  25.219   1.736
59324W        W31639  18.628   4.322  10.569
59325W        W31640  37.000  44.421   0.276
59326W        W31641  19.632  20.261  12.976
59327W        W31642  12.795  11.798   0.435
59328W        W31643  35.518  23.494   0.257
59329W        W31644   1.398  31.137   4.675
59330W        W31645   9.815  31.554   4.129
59331W        W31646  34.029  44.976  11.874
59332W        W31647  11.835  17.174  13.485
59333W        W31648   9.231  36.433   0.936
59334W        W31649  23.033  24.049  12.085
59335W        W31650  39.416  24.067   2.786
59336W        W31651   3.803  33.085  11.041
59337W        W31652   6.428  12.851  11.483
59338W        W31653  34.534  39.384   2.791
59339W        W31654  44.766  11.867   3.753
59340W        W31655  19.283   9.252   0.471
59341W        W31656  44.348   6.864  13.329
59342W        W31657  35.929  24.203  13.463
59343W        W31658  18.123  34.417   3.226
59344W        W31659   4.904  39.398   2.298
59345W        W31660  43.947  16.098  14.341
59346W        W31661  32.518   9.389   1.865
59347W        W31662  39.042  36.095  14.894
59348W        W31663  19.778  37.871   1.394
59349W        W31664  33.472  43.501   3.636
59350W        W31665  37.028  44.444   3.706
59351W        W31666   2.392  42.441  11.536
59352W        W31667  30.571  36.451   2.781
59353W        W31668  24.641  30.942  12.444
59354W        W31669  39.957  21.597  12.502
59355W        W31670   6.362  14.764   3.356
59356W        W31671  27.164  14.284  13.532
59357W        W31672  26.566   9.715  14.407
59358W        W31673  25.001  15.686  12.024
59359W        W31674   7.668  14.263   2.892
59360W        W31675  31.082  13.275   4.830
59361W        W31676   5.404   6.860  12.399
59362W        W31677  17.611  25.050   4.738
59363W        W31678   1.386  23.559  14.483
59364W        W31679  40.006  35.962  13.437
59365W        W31680  28.147  14.691   0.405
59366W        W31681   6.215   2.432   0.320
59367W        W31682   3.763  42.404   3.379
59368W        W31683  26.638  22.651   5.102
59369W        W31684   4.205  23.555  10.960
59370W        W31685  22.586  34.074  12.957
59371W        W31686  44.834  20.737  11.046
59372W        W31687  40.001  37.081  12.010
59373W        W31688  39.432  11.647  12.523
59374W        W31689  26.462  18.778  14.304
59375W        W31690   8.167  22.201   0.847
59376W        W31691   0.281  31.954  14.390
59377W        W31692  43.503   1.358   3.185
59378W        W31693  39.548  43.375   2.761
59379W        W31694  14.215   4.848   0.860
59380W        W31695  28.446   1.924   2.198
59381W        W31696  36.357  12.849  11.478
59382W        W31697  20.727   2.951  11.011
59383W        W31698  28.598   9.728   2.752
59384W        W31699  44.319  43.328  12.428
59385W        W31700   4.699  33.511  10.464
59386W        W31701  15.214   3.321   3.174
59387W        W31702  16.670  35.525   2.278
59388W        W31703  30.035  30.644   1.443
59389W        W31704   5.379  13.288  14.898
59390W        W31705  34.388  34.550  12.084
59391W        W31706   9.759  35.010  11.566
59392W        W31707  34.574  17.217   0.284
59393W        W31708   7.804  30.956  11.082
59394W        W31709  12.347  15.222  14.787
59395W        W31710  21.134  38.983   2.819
59396W        W31711  11.176  16.214  12.843
59397W        W31712  37.392  12.651   4.833
59398W        W31713  12.196  30.943   4.208
59399W        W31714  18.202  12.202   1.377
59400W        W31715  21.246   6.375   1.846
59401W        W31716  22.224  10.721   2.279
59402W        W31717  17.742  40.873  14.892
59403W        W31718   3.321   2.456  14.947
59404W        W31719  42.484  12.139   0.304
59405W        W31720  12.627  40.373   1.278
59406W        W31721  14.098  41.022  12.452
59407W        W31722  24.091  19.176   1.770
59408W        W31723  41.522  10.323  14.787
59409W        W31724  20.057  16.241   0.328
59410W        W31725   7.245   1.445  12.408
59411W        W31726  11.298  39.355  12.496
59412W        W31727   1.361  30.093   1.265
59413W        W31728  19.168  28.002   2.261
59414W        W31729  44.500  11.771   0.277
59415W        W31730  36.895  10.810  11.862
59416W        W31731  34.564  36.510   1.432
59417W        W31732  23.654  43.939  14.500
59418W        W31733  33.589  23.211   0.255
59419W        W31734  34.915  17.569   1.736
59420W        W31735  38.025  28.487   0.368
59421W        W31736  36.579  19.771  12.553
59422W        W31737   5.257  19.550  11.559
59423W        W31738  18.216   8.764   9.965
59424W        W31739  40.483  25.571   5.138
59425W        W31740  11.853   3.431   0.473
59426W        W31741  13.216  18.696   2.872
59427W        W31742  44.000  29.920  10.438
59428W        W31743  35.521  41.892  13.025
59429W        W31744  44.425  32.960  14.474
59430W        W31745  30.977  12.122   2.209
59431W        W31746   5.193   0.878   3.810
59432W        W31747  22.722  11.252  14.436
59433W        W31748  29.669  30.639  13.858
59434W        W31749  36.405  29.600   0.741
59435W        W31750  24.626  10.335   2.727
59436W        W31751  20.060  11.639   2.240
59437W        W31752  23.179  38.834   1.699
59438W        W31753  23.002  12.219   0.960
59439W        W31754  27.075   1.951   3.379
59440W        W31755  36.480  34.613   3.662
59441W        W31756  33.905  43.840   2.301
59442W        W31757   3.382   6.882  14.939
59443W        W31758  32.117   8.173  12.089
59444W        W31759  11.367  19.045  10.520
59445W        W31760  42.436  18.258  11.886
59446W        W31761   3.252  33.593  10.516
59447W        W31762  42.447  42.991  13.452
59448W        W31763  16.699  42.511  12.824
59449W        W31764  21.606  38.965  10.919
59450W        W31765  10.340  10.271   1.732
59451W        W31766  27.017   8.253  13.372
59452W        W31767   3.866   9.321  12.929
59453W        W31768   5.799   2.355  14.415
59454W        W31769  12.778  34.429   1.722
59455W        W31770  11.244  37.563  14.969
59456W        W31771  41.991  30.526   1.835
59457W        W31772  10.798  32.571  11.066
59458W        W31773  38.331  33.056  14.908
59459W        W31774  15.731  35.062  13.947
59460W        W31775  24.229  23.492  14.278
59461W        W31776  31.920   8.784   3.686
59462W        W31777  17.176  37.395  14.451
59463W        W31778   3.307  21.722  13.988
59464W        W31779  39.554  26.501   0.759
59465W        W31780   7.338  11.254   4.780
59466W        W31781  15.760  44.870  11.595
59467W        W31782  41.935   1.748  14.291
59468W        W31783  32.134   9.366  10.404
59469W        W31784  16.623  43.317  13.494
59470W        W31785   4.337  35.548   2.196
59471W        W31786   0.873  44.480   2.407
59472W        W31787  15.608  38.328   1.850
59473W        W31788  24.150  34.063   1.215
59474W        W31789   2.458  29.134   1.244
59475W        W31790  35.581  42.950   1.325
59476W        W31791  31.418  32.051  10.423
59477W        W31792  25.149  14.695   1.380
59478W        W31793  28.672  18.083  14.450
59479W        W31794  27.093  35.505   4.795
59480W        W31795  18.640  33.913   4.223
59481W        W31796   0.274   9.246  10.073
59482W        W31797   1.968   7.318  10.958
59483W        W31798  20.605  38.841   1.731
59484W        W31799  32.632  43.832   0.291
59485W        W31800  36.393  37.025  13.514
59486W        W31801  31.626  34.429   1.253
59487W        W31802  26.183   3.740   9.646
59488W        W31803  26.555  16.301  11.543
59489W        W31804  28.017  29.105  11.610
59490W        W31805  23.680  42.293   1.761
59491W        W31806  27.650  27.595   4.295
59492W        W31807   7.911  10.739   1.804
59493W        W31808   9.189  36.509   3.754
59494W        W31809  33.386  15.635  12.056
59495W        W31810  34.035  42.841  13.496
59496W        W31811  26.532   5.748   2.768
59497W        W31812  44.409  21.226   1.797
59498W        W31813  36.871  14.772  13.471
59499W        W31814  13.344  23.603  11.093
59500W        W31815  12.153  32.092   3.284
59501W        W31816  16.128  26.648   2.395
59502W        W31817  17.168  10.780   9.653
59503W        W31818   5.337  12.306  11.484
59504W        W31819  43.513   9.287  14.825
59505W        W31820  13.650  10.304  14.389
59506W        W31821   1.482  13.671   0.282
59507W        W31822  14.170  24.707   3.202
59508W        W31823   0.942   8.289  12.959
59509W        W31824   1.853  43.500  14.946
59510W        W31825  33.528  35.445  13.993
59511W        W31826  31.931  43.843  11.382
59512W        W31827   3.421  26.677  12.981
59513W        W31828  24.588  15.634  13.055
59514W        W31829   0.416  34.560  11.116
59515W        W31830  41.465  38.965  10.521
59516W        W31831   2.725  28.681  11.572
59517W        W31832  27.155   1.788   0.274
59518W        W31833  16.103  16.296   2.714
59519W        W31834   6.282  24.119   2.751
59520W        W31835  32.490  11.127   4.769
59521W        W31836  36.583  41.908   0.472
59522W        W31837   1.300  30.060  11.991
59523W        W31838  13.206  40.516  13.331
59524W        W31839  27.647  21.110  13.845
59525W        W31840  13.625  29.942   1.279
59526W        W31841  23.539  11.625   3.753
59527W        W31842  26.473  33.474   3.630
59528W        W31843  33.444  15.277   0.394
59529W        W31844  33.472  37.544  13.339
59530W        W31845  40.524  21.107   2.234
59531W        W31846  24.546  15.119   1.772
59532W        W31847  11.867  12.662   3.362
59533W        W31848  24.188   8.845  13.990
59534W        W31849  21.618  20.730   0.274
59535W        W31850  41.914  21.579   0.267
59536W        W31851   3.219  17.799   2.695
59537W        W31852  35.976  13.791   1.256
59538W        W31853  40.871  21.077   4.163
59539W        W31854  17.124  26.651  13.406
59540W        W31855  35.055  23.565   2.851
59541W        W31856  23.234  38.403  14.449
59542W        W31857  33.892   5.925  11.953
59543W        W31858  40.043   6.680  13.807
59544W        W31859  13.835  24.613   0.476
59545W        W31860  38.975  36.037   2.358
59546W        W31861  15.196  11.830  12.940
59547W        W31862   7.665  43.778   4.294
59548W        W31863   0.256  17.750  12.056
59549W        W31864  44.891   5.435   3.291
59550W        W31865   7.805   1.959  14.025
59551W        W31866  37.538  25.106   2.400
59552W        W31867  41.301  41.018  13.333
59553W        W31868  21.636  25.507  12.936
59554W        W31869  41.798  10.712   4.273
59555W        W31870  41.421  19.725  11.080
59556W        W31871   7.694  13.125  12.825
59557W        W31872  16.245   0.962  12.947
59558W        W31873  26.198  44.901  14.512
59559W        W31874   0.466  41.994   1.783
59560W        W31875  32.551   4.868   3.379
59561W        W31876  38.942  29.096   0.308
59562W        W31877  27.583  32.934   1.294
59563W        W31878  22.126  22.014   2.364
59564W        W31879  16.182   6.812   2.321
59565W        W31880  29.609  39.496   4.786
59566W        W31881  25.004   6.347   4.598
59567W        W31882  23.999  30.950  11.870
59568W        W31883  17.670   3.367   1.349
59569W        W31884   8.277   3.925  13.490
59570W        W31885  13.299   7.197  13.050
59571W        W31886  32.973   1.862   3.225
59572W        W31887   6.251   3.331   4.146
59573W        W31888  16.649  31.120   1.332
59574W        W31889  12.856  25.685  12.448
59575W        W31890  10.195  39.538  14.506
59576W        W31891  44.488   4.790  14.324
59577W        W31892  36.523  13.660  12.983
59578W        W31893  23.519  19.621  12.557
59579W        W31894  32.625   1.785   0.260
59580W        W31895  21.619  12.353  11.529
59581W        W31896   2.951  38.479   4.314
59582W        W31897  18.168   8.728  11.432
59583W        W31898  35.471   3.243  12.499
59584W        W31899  24.484  30.934   0.942
59585W        W31900  38.026   7.230   3.730
59586W        W31901   6.753  26.486  10.601
59587W        W31902   6.328  12.220  14.922
59588W        W31903  32.936  21.573   2.838
59589W        W31904  16.083  20.077  11.509
59590W        W31905  36.899  24.594  12.068
59591W        W31906  14.296  13.295   0.398
59592W        W31907  31.633  25.711   4.165
59593W        W31908  21.582  21.211  14.840
59594W        W31909  12.740  16.115   0.834
59595W        W31910  27.629  29.571  10.611
59596W        W31911   8.328  35.594   2.727
59597W        W31912  37.830  25.143  14.022
59598W        W31913   9.863  17.103  13.326
59599W        W31914  22.509  34.469   2.855
59600W        W31915  44.483  39.338  12.476
59601W        W31916  42.417  31.511  12.546
59602W        W31917  44.408   4.873   3.286
59603W        W31918  39.514  38.871   0.799
59604W        W31919  38.514  15.277  14.411
59605W        W31920  42.384  33.905   1.377
59606W        W31921  42.896  12.236  14.816
59607W        W31922  22.678  42.404   0.387
59608W        W31923   9.746  26.645   0.793
59609W        W31924   9.712  33.595  12.056
59610W        W31925  43.429  25.145  14.989
59611W        W31926  27.542  13.199   1.292
59612W        W31927  11.651  21.063  14.807
59613W        W31928  29.532   1.465   4.197
59614W        W31929  32.579   8.865  11.538
59615W        W31930  34.059  14.798   3.150
59616W        W31931  10.341  22.171   4.723
59617W        W31932   6.416   4.361  14.295
59618W        W31933  15.748  31.110  11.912
59619W        W31934  36.570  19.687   1.825
59620W        W31935  38.475  37.911  10.523
59621W        W31936  10.239  42.852  12.417
59622W        W31937  13.165   4.810   2.746
59623W        W31938  21.165  24.536   1.368
59624W        W31939  34.940  12.140  14.871
59625W        W31940  37.891  42.898   2.880
59626W        W31941   5.731  34.056  12.055
59627W        W31942  25.516  18.775   1.449
59628W        W31943  33.030  41.329   2.335
59629W        W31944  22.649  10.700   3.288
59630W        W31945   7.322   0.264  14.927
59631W        W31946  36.006   1.909   3.316
59632W        W31947  26.157  30.043   2.316
59633W        W31948  32.929  44.821   2.759
59634W        W31949  20.693  18.120   4.780
59635W        W31950  14.313   9.348   5.293
59636W        W31951  26.477  19.705   0.931
59637W        W31952  15.308  13.638   4.618
59638W        W31953   2.427   7.251   2.255
59639W        W31954  33.964  44.397   4.598
59640W        W31955  30.098   4.258  10.569
59641W        W31956  43.836   9.259  13.388
59642W        W31957  41.802  43.936  13.890
59643W        W31958  11.283   4.293  12.997
59644W        W31959  10.664  27.941   3.286
59645W        W31960  22.575  24.018   3.182
59646W        W31961  28.445  38.862   1.796
59647W        W31962   1.239   9.272  11.008
59648W        W31963  43.893  26.583   1.750
59649W        W31964  35.437   1.278  12.564
59650W        W31965   7.317  10.718  13.037
59651W        W31966  34.498  41.453   2.794
59652W        W31967  11.143  32.581   0.427
59653W        W31968  20.747  25.649   4.115
59654W        W31969  10.313  34.114  12.084
59655W        W31970   9.849  44.993  12.422
59656W        W31971  27.538  25.134   3.716
59657W        W31972   2.945   2.409   1.840
59658W        W31973  16.759  15.659  13.875
59659W        W31974   9.341  40.860   4.146
59660W        W31975   8.681  12.703   2.197
59661W        W31976  43.018  12.706   3.218
59662W        W31977  40.019  10.764   2.755
59663W        W31978  44.308  31.638  12.514
59664W        W31979  29.156   8.846  13.456
59665W        W31980   5.304  36.394  14.952
59666W        W31981  28.146  28.526   2.800
59667W        W31982  27.957  21.251  11.055
59668W        W31983  42.840  44.358  14.366
59669W        W31984   5.274  42.853  11.396
59670W        W31985   9.194  13.114   3.735
59671W        W31986   1.971  22.663   3.322
59672W        W31987  16.180  31.595  10.542
59673W        W31988  17.790  39.887   3.862
59674W        W31989  10.655  38.953  11.066
59675W        W31990  25.623  44.354   0.481
59676W        W31991  25.603  19.568  11.083
59677W        W31992  24.218  12.183  13.514
59678W        W31993  22.648  33.961  14.804
59679W        W31994  19.630  41.797  13.843
59680W        W31995  32.954   7.209  12.534
59681W        W31996  37.939  44.441  11.591
59682W        W31997  38.948  12.189   1.881
59683W        W31998  30.914  19.214   3.339
59684W        W31999   5.220  19.558   0.794
59685W        W32000  39.463  34.507  12.913
59686W        W32001  22.096   2.939  12.373
59687W        W32002  18.713  13.254   4.638
59688W        W32003  23.533   6.302   2.782
59689W        W32004   0.951  22.140  12.897
59690W        W32005  40.842  44.489  13.937
59691W        W32006  38.357   8.393  10.968
59692W        W32007  32.425   6.212  14.012
59693W        W32008  18.782  35.566  11.420
59694W        W32009  15.592  41.986   2.715
59695W        W32010  27.679  21.556  14.331
59696W        W32011  22.737   1.361  13.989
59697W        W32012  24.523  39.492  10.434
59698W        W32013  22.609  31.642   1.707
59699W        W32014  11.309  35.865  14.369
59700W        W32015   1.327  25.980   1.708
59701W        W32016  33.033  17.747   4.613
59702W        W32017  12.623  38.041  14.954
59703W        W32018  16.702  30.045   1.310
59704W        W32019  38.842  17.301  14.911
59705W        W32020   4.735  10.705  10.600
59706W        W32021  41.363   8.346   4.647
59707W        W32022  40.036  39.029   3.239
59708W        W32023  24.669   1.356   1.912
59709W        W32024  30.121  18.143  11.600
59710W        W32025  36.564  32.419   2.392
59711W        W32026  32.078   9.280  12.018
59712W        W32027  29.930  29.581   2.844
59713W        W32028  16.641   2.874   1.755
59714W        W32029   3.269  25.635  14.305
59715W        W32030  11.362  42.398  14.386
59716W        W32031  28.592   3.417  12.086
59717W        W32032  34.467  35.918  10.532
59718W        W32033  35.964  39.892   4.621
59719W        W32034  12.319  43.918   1.234
59720W        W32035  25.215  18.199   2.324
59721W        W32036   6.427  36.031   4.157
59722W        W32037   4.849  29.558   1.227
59723W        W32038   1.369   0.964  11.012
59724W        W32039  29.454  34.109   1.735
59725W        W32040  14.597  21.705   1.897
59726W        W32041  29.602  27.603  10.564
59727W        W32042  42.032   4.295   3.650
59728W        W32043  25.582   1.253  12.056
59729W        W32044  17.682   0.331   4.205
59730W        W32045  16.241  40.483  12.578
59731W        W32046  29.945  35.467   4.629
59732W        W32047  40.456   3.220   4.322
59733W        W32048  37.891  22.573  10.004
59734W        W32049  27.020   1.445  13.375
59735W        W32050   5.397  40.518  14.298
59736W        W32051   0.389  28.054  13.335
59737W        W32052  14.249  21.681  14.409
59738W        W32053  23.519   5.737  12.973
59739W        W32054  32.090  41.455   4.205
59740W        W32055  40.838   9.182  10.999
59741W        W32056  16.156  19.074   0.876
59742W        W32057  13.142  21.635  13.057
59743W        W32058  30.034  22.250   3.328
59744W        W32059  30.971  20.197   4.771
59745W        W32060  17.148  28.159  11.560
59746W        W32061  42.447  19.262   3.294
59747W        W32062   0.302  42.952  12.414
59748W        W32063  24.695  34.465  10.512
59749W        W32064  18.241   2.887  14.463
59750W        W32065  31.508  14.178   1.847
59751W        W32066   8.236  12.627  12.398
59752W        W32067   3.895  26.673   3.785
59753W        W32068  38.970  24.500   9.954
59754W        W32069  43.764  36.893  13.793
59755W        W32070   3.262  15.325   3.858
59756W        W32071  22.076  37.463  11.003
59757W        W32072  32.433  39.955  14.970
59758W        W32073  39.000   7.417  10.027
59759W        W32074  12.292  39.382   3.850
59760W        W32075  16.216  39.903  13.383
59761W        W32076  26.103   0.928  10.534
59762W        W32077  17.208  39.019   1.394
59763W        W32078  14.745  24.609   2.282
59764W        W32079  43.793   4.275  13.414
59765W        W32080  25.184  26.519   1.393
59766W        W32081  15.783  30.924   2.748
59767W        W32082  36.960  28.006  13.823
59768W        W32083  10.252  35.090   3.756
59769W        W32084  15.323  36.062  13.541
59770W        W32085  32.531  38.386  13.450
59771W        W32086  28.651  11.338  11.396
59772W        W32087   6.283   3.874   2.206
59773W        W32088  38.443  42.847   3.300
59774W        W32089  38.956   6.369  11.035
59775W        W32090  17.078  20.598   3.217
59776W        W32091  32.918  36.505   3.178
59777W        W32092  19.193  15.812  13.951
59778W        W32093  34.985   7.344  12.564
59779W        W32094  43.466  23.181   0.356
59780W        W32095  23.086  27.124   0.410
59781W        W32096  32.422  16.257  14.359
59782W        W32097  30.001  20.190  14.366
59783W        W32098  42.980  13.773   2.278
59784W        W32099  29.623   1.793   4.275
59785W        W32100  15.116   5.419  10.488
59786W        W32101  22.101   9.263  13.917
59787W        W32102  36.063  24.484   3.786
59788W        W32103  16.264  28.018   5.101
59789W        W32104   5.924  19.061   2.205
59790W        W32105  20.069  27.612  12.834
59791W        W32106  40.361  14.684  11.396
59792W        W32107  27.960   3.935   3.198
59793W        W32108  11.312  31.000   2.708
59794W        W32109   5.209  27.650   2.900
59795W        W32110  33.063  24.722   4.140
59796W        W32111  25.030  38.005   4.317
59797W        W32112  35.024  32.562   4.118
59798W        W32113  30.510  14.207  12.942
59799W        W32114  33.589   2.472   1.358
59800W        W32115  43.996  40.466   3.831
59801W        W32116  26.189  44.845   0.945
59802W        W32117   7.318  37.453  12.365
59803W        W32118  33.459  40.993  11.107
59804W        W32119   4.312  44.810   1.240
59805W        W32120  27.163  39.000  11.998
59806W        W32121   1.426  16.619   3.671
59807W        W32122   6.763  15.181  11.412
59808W        W32123  41.469   8.748   1.792
59809W        W32124  35.398  12.646  13.494
59810W        W32125  42.369  14.821  14.945
59811W        W32126  26.701  11.191   0.893
59812W        W32127  36.505  32.606  14.290
59813W        W32128  41.016  43.283   1.347
59814W        W32129  44.959  12.691  14.364
59815W        W32130  43.395   7.764  12.376
59816W        W32131   2.291  10.753  13.467
59817W        W32132   9.743   3.359   1.420
59818W        W32133   8.303  35.378  12.515
59819W        W32134  25.538  30.923   3.853
59820W        W32135   6.897  35.531   1.717
59821W        W32136  41.852  18.760  14.811
59822W        W32137  11.228  11.189  10.976
59823W        W32138  21.077   6.311   0.273
59824W        W32139   8.163  38.076   2.356
59825W        W32140  32.543  23.560   0.957
59826W        W32141   9.723  11.175   0.294
59827W        W32142  31.632   9.661   0.739
59828W        W32143  22.626  19.248  13.053
59829W        W32144  37.840  22.248  11.582
59830W        W32145  26.634  37.542  11.453
59831W        W32146  18.185  22.076  11.906
59832W        W32147  12.678  34.381  14.948
59833W        W32148   2.230  17.236  12.570
59834W        W32149  15.580  13.646   4.350
59835W        W32150  14.592  26.143   3.178
59836W        W32151  43.963  31.124   3.356
59837W        W32152  38.917  27.071   2.727
59838W        W32153  31.595   8.311  10.479
59839W        W32154   1.457  12.725   1.825
59840W        W32155   0.744   8.366   3.723
59841W        W32156  20.166   7.396  12.833
59842W        W32157  30.993  32.045   1.224
59843W        W32158   9.223   0.362  12.343
59844W        W32159  12.720  31.144   1.706
59845W        W32160  17.239   6.235  14.861
59846W        W32161  42.436  11.843  14.292
59847W        W32162   4.714  39.973   4.653
59848W        W32163  43.451   5.435   2.812
59849W        W32164  28.088  28.955  14.479
59850W        W32165  29.426   8.374  11.092
59851W        W32166   8.386  23.529   4.279
59852W        W32167  11.188  21.196  11.032
59853W        W32168  19.674  27.168   1.815
59854W        W32169  38.839   6.212  10.595
59855W        W32170   8.833  20.587   2.697
59856W        W32171  29.635  15.769  11.990
59857W        W32172  41.026  26.128   2.778
59858W        W32173  11.655  26.576  10.405
59859W        W32174  25.139  19.185   2.345
59860W        W32175  21.224  30.041   4.628
59861W        W32176  22.057  39.826   3.149
59862W        W32177  11.160  14.221  12.024
59863W        W32178  41.820   4.279   3.295
59864W        W32179  25.103  31.917   0.286
59865W        W32180  16.090  20.736   3.387
59866W        W32181  31.553  17.763  12.863
59867W        W32182  20.642  32.056   0.860
59868W        W32183  18.704  25.533   2.386
59869W        W32184  24.049  42.905   5.134
59870W        W32185  28.052   9.313  13.457
59871W        W32186  26.029  30.421  12.503
59872W        W32187  21.198  14.754  13.313
59873W        W32188  43.279  39.957   0.735
59874W        W32189  18.626  19.549  11.947
59875W        W32190  32.619  21.684  11.607
59876W        W32191   9.717  31.541   0.382
59877W        W32192   6.779   8.850  14.329
59878W        W32193   3.794  30.140  10.975
59879W        W32194  24.643   6.819   4.185
59880W        W32195  13.278  34.492   1.922
59881W        W32196  42.949  18.189   3.738
59882W        W32197  35.078  13.324   1.850
59883W        W32198  19.265  24.545  11.919
59884W        W32199   2.444  43.878   0.345
59885W        W32200   7.774  37.446   3.327
59886W        W32201  15.808  35.518   3.745
59887W        W32202  37.373  14.603   4.305
59888W        W32203   7.702  22.623   4.336
59889W        W32204  32.611  25.531  12.389
59890W        W32205  24.030   0.866   5.305
59891W        W32206  21.226  22.096   1.743
59892W        W32207   7.725  19.224   1.732
59893W        W32208  12.854  15.185   0.416
59894W        W32209  16.783  33.520  12.573
59895W        W32210  10.377  23.602  11.412
59896W        W32211  16.248  21.053   0.406
59897W        W32212  21.605  11.845   1.901
59898W        W32213   6.410  13.274   4.136
59899W        W32214   3.308   7.678   1.356
59900W        W32215  22.714  11.720   2.214
59901W        W32216  14.224  14.713   0.280
59902W        W32217  25.654   9.220   4.270
59903W        W32218   8.329  34.443  14.486
59904W        W32219  13.625  28.096  14.401
59905W        W32220   1.944  11.765   0.761
59906W        W32221  37.868  13.797  11.599
59907W        W32222  11.345  20.143  13.842
59908W        W32223   9.302  44.336  11.885
59909W        W32224  22.732  44.955  11.548
59910W        W32225  24.481  15.100   2.245
59911W        W32226   0.837  37.479  12.568
59912W        W32227  34.111   2.294   2.333
59913W        W32228  14.763  40.830   0.359
59914W        W32229  11.649   0.964  10.004
59915W        W32230  27.099  33.122   4.131
59916W        W32231  23.717  26.598   9.967
59917W        W32232  39.057   9.754  11.961
59918W        W32233   8.316   8.730   1.722
59919W        W32234   1.338  36.041   3.647
59920W        W32235  20.163   9.848   4.340
59921W        W32236  18.742   7.744  14.409
59922W        W32237  38.067  40.448  14.839
59923W        W32238  43.780   3.401   4.599
59924W        W32239  40.935  39.491   0.923
59925W        W32240  15.301  30.019   2.303
59926W        W32241  10.738   6.711  10.642
59927W        W32242  37.480  15.091  13.964
59928W        W32243   6.777  13.327  14.879
59929W        W32244  21.619  18.628   0.293
59930W        W32245  21.659  40.428  12.353
59931W        W32246  12.830  43.329  10.621
59932W        W32247  14.828  40.537  13.369
59933W        W32248  39.967   6.384   0.938
59934W        W32249  24.219  37.073  10.418
59935W        W32250  35.377  24.124   1.750
59936W        W32251   4.418  37.939  14.943
59937W        W32252  41.492  36.454   3.800
59938W        W32253  39.845  30.923   0.790
59939W        W32254  43.488  20.184   0.375
59940W        W32255  41.537  25.008  12.503
59941W        W32256  20.615  31.980  14.813
59942W        W32257  20.248  11.361  10.602
59943W        W32258  17.680  35.531  11.613
59944W        W32259  41.963  39.914  13.794
59945W        W32260   2.428  22.237   3.161
59946W        W32261  27.990   3.304   2.310
59947W        W32262  33.557  17.085  12.964
59948W        W32263  15.697  42.366  12.076
59949W        W32264  31.020  44.953  12.923
59950W        W32265  30.503  32.496  11.984
59951W        W32266  33.907  16.212   0.295
59952W        W32267  22.170  20.687  10.978
59953W        W32268  20.574  16.154  10.506
59954W        W32269  18.262  21.608  14.919
59955W        W32270  20.638   9.181   2.712
59956W        W32271  11.712  11.667   5.172
59957W        W32272  26.629  27.942   0.845
59958W        W32273   5.236   6.250  14.814
59959W        W32274  13.769  32.142  11.553
59960W        W32275  35.001   3.820  13.315
59961W        W32276  32.997  32.025  12.854
59962W        W32277  18.270  19.775   2.711
59963W        W32278  28.961  15.704   3.153
59964W        W32279  21.051  39.384  13.862
59965W        W32280  14.644  30.092  10.964
59966W        W32281  28.933  26.038  11.894
59967W        W32282  29.452   1.345  12.988
59968W        W32283  34.912  22.084   3.372
59969W        W32284  20.653  12.161  12.358
59970W        W32285  32.043  40.034  11.552
59971W        W32286   1.442  11.706   5.155
59972W        W32287  39.910  37.887   0.790
59973W        W32288   0.382  28.541   1.311
59974W        W32289  41.028  35.899   2.746
59975W        W32290  25.614  34.015   9.596
59976W        W32291   4.412  41.368  12.534
59977W        W32292   4.393   7.887   0.345
59978W        W32293  35.601  40.943   1.361
59979W        W32294  40.333  41.358   2.326
59980W        W32295   5.336   1.940   0.323
59981W        W32296   8.401  15.204   1.366
59982W        W32297  25.108   4.262  13.981
59983W        W32298  16.743  28.539  14.837
59984W        W32299   4.840   6.389  14.992
59985W        W32300  18.284  16.656  12.955
59986W        W32301   2.754  41.297   4.298
59987W        W32302  20.524   4.880  14.022
59988W        W32303  24.020  14.283  13.922
59989W        W32304  29.946   0.419  13.366
59990W        W32305  35.861  41.983   0.808
59991W        W32306  37.070  36.427   2.776
59992W        W32307  31.627  41.925  13.325
59993W        W32308   7.371  31.060   1.825
59994W        W32309   7.860   3.724   0.327
59995W        W32310  33.524  13.824  12.875
59996W        W32311  14.799   9.800   4.352
59997W        W32312  36.386  35.047   1.298
59998W        W32313   4.893   6.358  11.902
59999W        W32314  36.365  28.945   1.353
60000W        W32315  38.977  38.013  12.349
60001W        W32316   3.339  36.032  11.441
60002W        W32317  44.344   0.324  14.275
60003W        W32318   7.364  13.707  12.061
60004W        W32319  30.060  36.365   0.421
60005W        W32320  19.760  33.623   2.212
60006W        W32321  39.921   3.289  11.894
60007W        W32322  40.903  32.570  11.019
60008W        W32323  32.620  32.039  12.963
60009W        W32324  40.958  31.121   0.370
60010W        W32325  28.108  23.147   1.357
60011W        W32326  39.830  31.004  12.531
60012W        W32327  18.158  22.162  13.852
60013W        W32328  24.679  20.724  14.355
60014W        W32329  41.905  21.038  10.898
60015W        W32330  17.116  16.635  14.486
60016W        W32331  28.020  17.235   2.729
60017W        W32332  19.173   0.806   4.293
60018W        W32333  40.848  27.147  14.960
60019W        W32334  41.431  12.323  10.438
60020W        W32335  23.522  31.066  11.552
60021W        W32336   7.786   6.890   1.910
60022W        W32337   6.192  33.908  11.116
60023W        W32338  18.093  10.321  13.388
60024W        W32339   8.743  27.073   0.299
60025W        W32340   7.370  43.404  14.827
60026W        W32341  26.473  43.503   1.249
60027W        W32342   5.360  42.456   3.348
60028W        W32343  42.337  44.403   0.913
60029W        W32344  28.119  21.190  14.330
60030W        W32345  38.057  31.967  10.437
60031W        W32346  16.126  37.971   4.315
60032W        W32347  21.131  13.109   3.334
60033W        W32348  14.267   3.328  11.477
60034W        W32349  13.149  15.101  11.397
60035W        W32350  14.718  11.223   3.206
60036W        W32351  41.794  28.570  12.411
60037W        W32352  42.478  14.833  11.532
60038W        W32353  25.498  29.572  11.864
60039W        W32354   7.183  23.992  14.318
60040W        W32355   7.694  32.445   2.742
60041W        W32356  13.114  26.493   1.876
60042W        W32357  28.981  21.625  13.889
60043W        W32358  38.944  35.876  14.315
60044W        W32359   4.298  43.330   1.766
60045W        W32360  38.367  17.270   0.328
60046W        W32361   2.451   4.762  11.896
60047W        W32362   4.229  15.083  11.999
60048W        W32363  14.304  16.644   2.741
60049W        W32364  33.546  38.957  12.060
60050W        W32365  29.467   8.891   3.838
60051W        W32366   1.849  40.537   0.827
60052W        W32367  37.914  27.455  10.450
60053W        W32368  31.540   0.812  10.494
60054W        W32369  29.466  21.515   4.609
60055W        W32370   0.978  25.529   2.792
60056W        W32371   2.845  27.959   3.351
60057W        W32372   6.361  30.501   1.890
60058W        W32373  18.157  20.730  10.974
60059W        W32374  29.023  19.594   0.733
60060W        W32375  36.399  31.125  12.946
60061W        W32376  39.967   8.810  11.598
60062W        W32377  15.611  39.007  14.383
60063W        W32378  42.410  28.181   0.767
60064W        W32379  24.704  35.079   0.362
60065W        W32380  29.158  32.960  10.535
60066W        W32381   8.719  27.632   3.743
60067W        W32382   8.885  41.987  13.424
60068W        W32383   2.731  41.811   2.228
60069W        W32384  33.970  23.558  11.526
60070W        W32385  44.892  31.015   1.762
60071W        W32386  29.010  14.312  11.421
60072W        W32387  15.238  28.581  10.113
60073W        W32388   6.186  38.044  12.860
60074W        W32389  28.522   7.250   2.194
60075W        W32390  14.240  22.618   3.730
60076W        W32391   8.365  30.492   3.268
60077W        W32392  13.681   9.869   1.739
60078W        W32393  31.075  40.898   1.236
60079W        W32394  33.599   8.831   0.921
60080W        W32395   4.394   9.149  13.510
60081W        W32396  15.797  20.753   1.449
60082W        W32397  31.514   6.209   2.394
60083W        W32398  10.658   5.379  12.848
60084W        W32399  19.154  14.273   2.875
60085W        W32400  17.777  28.161  10.604
60086W        W32401   5.864  26.055  11.971
60087W        W32402  18.178  23.703  10.639
60088W        W32403  26.164  34.378   3.296
60089W        W32404  13.294  19.268  12.493
60090W        W32405  30.121  10.207   2.320
60091W        W32406  40.511  17.760   3.150
60092W        W32407   9.883   4.226   1.729
60093W        W32408  36.916  30.055   0.325
60094W        W32409  39.042   5.874  12.053
60095W        W32410  14.220  22.107   4.678
60096W        W32411  37.892   6.708   1.902
60097W        W32412  23.137   5.760  13.792
60098W        W32413  32.550  37.574  12.463
60099W        W32414  25.585  14.319  11.592
60100W        W32415  23.644  36.861  12.992
60101W        W32416  41.505  30.916  11.606
60102W        W32417  39.960  14.198   2.213
60103W        W32418  17.572   8.389   9.955
60104W        W32419  42.971  18.614  14.446
60105W        W32420   9.854  35.893  14.857
60106W        W32421  25.063  26.120  11.876
60107W        W32422  13.128  43.472  11.049
60108W        W32423   4.446  12.318  12.488
60109W        W32424  32.970  10.840   2.235
60110W        W32425   2.457  40.303   1.836
60111W        W32426  17.130  22.641   3.671
60112W        W32427  12.721  18.743  13.388
60113W        W32428  44.446  21.119  10.446
60114W        W32429  23.544  24.202  11.606
60115W        W32430  30.479  13.690   0.900
60116W        W32431  10.155  25.064  11.609
60117W        W32432  41.962  19.062  12.970
60118W        W32433   7.198  33.122  13.492
60119W        W32434  27.505  38.032   4.134
60120W        W32435  38.991   3.414  11.978
60121W        W32436  37.489   5.237  13.812
60122W        W32437  31.140  29.540   2.328
60123W        W32438  20.567  29.120  12.982
60124W        W32439  42.396  40.392   1.379
60125W        W32440  12.636   1.388   3.868
60126W        W32441   9.158   2.303  10.921
60127W        W32442   9.772  31.970   0.469
60128W        W32443  19.258  18.286   3.194
60129W        W32444  30.550  28.568  11.908
60130W        W32445   3.266  41.990  14.966
60131W        W32446  27.539   9.369   0.891
60132W        W32447  37.435  17.113   4.726
60133W        W32448  36.856  34.895   3.642
60134W        W32449  32.614  36.488   4.136
60135W        W32450  42.438  15.815   3.283
60136W        W32451  31.086   7.415  12.840
60137W        W32452  23.619  39.360  13.975
60138W        W32453  44.460   0.434   3.669
60139W        W32454  22.046  36.459   3.684
60140W        W32455  12.134  44.792  11.395
60141W        W32456  15.190  18.757  13.524
60142W        W32457  33.103  36.027   4.297
60143W        W32458  27.152   8.267   0.952
60144W        W32459   3.353  21.230  11.893
60145W        W32460  40.916  15.643  14.863
60146W        W32461  40.391   0.360  10.986
60147W        W32462  18.183  35.915  13.031
60148W        W32463  24.116  42.410   3.352
60149W        W32464  16.754  39.411   1.718
60150W        W32465  44.771  22.587   1.262
60151W        W32466  27.631  32.109  14.483
60152W        W32467   6.398  33.077   2.824
60153W        W32468   2.769  29.174  13.012
60154W        W32469  28.530   6.425  14.376
60155W        W32470  32.621  18.601   0.924
60156W        W32471   6.391  41.468  11.993
60157W        W32472  14.754  40.480  11.388
60158W        W32473  17.222  25.542  14.945
60159W        W32474  26.584  24.035   5.238
60160W        W32475  19.144  24.057  12.538
60161W        W32476  24.096  16.181  10.553
60162W        W32477  31.090  30.485  14.870
60163W        W32478  38.931  25.491   0.279
60164W        W32479  12.277  35.080   4.211
60165W        W32480  35.564  13.217   2.857
60166W        W32481  15.722  31.061  14.321
60167W        W32482  30.138  27.484   3.674
60168W        W32483   1.385   8.875  10.974
60169W        W32484  10.864  14.600  13.951
60170W        W32485   5.366  23.131  12.978
60171W        W32486  11.136  43.807  14.889
60172W        W32487  25.641  32.081  13.015
60173W        W32488  15.646   8.661   1.320
60174W        W32489   8.276  20.768   3.378
60175W        W32490  23.587  15.738  14.339
60176W        W32491  10.256   5.228   0.861
60177W        W32492   8.208  37.391  14.449
60178W        W32493  39.030  32.081   5.226
60179W        W32494  21.675  38.825  14.770
60180W        W32495  27.465  44.918  12.007
60181W        W32496   1.823   1.448   2.881
60182W        W32497   1.749  36.072  14.871
60183W        W32498  44.416  36.526   2.703
60184W        W32499  26.493   6.908  10.426
60185W        W32500   5.209  20.697   3.312
60186W        W32501   1.437  42.302  13.422
60187W        W32502  15.243  29.025  14.025
60188W        W32503  20.147  42.359  10.517
60189W        W32504   4.251  34.544   3.369
60190W        W32505   4.317  33.442  14.361
60191W        W32506  12.225  10.837  13.900
60192W        W32507  43.286   9.332   2.665
60193W        W32508  11.220  18.668  14.014
60194W        W32509  11.261  24.621  12.850
60195W        W32510   1.849  37.086   3.384
60196W        W32511   6.678  11.705  13.878
60197W        W32512  10.308  12.292  12.493
60198W        W32513  38.441  31.525   2.884
60199W        W32514  15.291   8.855  13.311
60200W        W32515   1.765  22.546   0.887
60201W        W32516  32.492  11.663  14.029
60202W        W32517   8.330  27.067   0.300
60203W        W32518  34.415  15.712   1.868
60204W        W32519   8.178  31.898   3.360
60205W        W32520  27.186  24.201   0.471
60206W        W32521  43.878  24.491   0.407
60207W        W32522  35.003   4.364  13.400
60208W        W32523  44.441  28.176  12.372
60209W        W32524   9.671  21.083  10.478
60210W        W32525  42.945  24.521  10.913
60211W        W32526  43.273  32.414  13.000
60212W        W32527  43.333  36.961  11.495
60213W        W32528  26.570  39.893   0.773
60214W        W32529  19.163   3.361   2.205
60215W        W32530   3.405  21.648   3.854
60216W        W32531  22.108  35.004  10.405
60217W        W32532  27.615   7.883  13.009
60218W        W32533  28.625  35.493   0.863
60219W        W32534  13.351   3.360   4.299
60220W        W32535  15.137  28.535   9.636
60221W        W32536  13.668  30.538   0.317
60222W        W32537  23.529  30.093   2.179
60223W        W32538   1.271   8.170  10.543
60224W        W32539  33.929  11.178   3.270
60225W        W32540  11.152  14.313   2.742
60226W        W32541   5.850  42.385  12.350
60227W        W32542  30.045  43.469   1.223
60228W        W32543  37.415  44.844  14.851
60229W        W32544  30.070  43.417  11.896
60230W        W32545   3.753  42.779   2.320
60231W        W32546   9.652  17.684   2.713
60232W        W32547  13.599   9.759  13.882
60233W        W32548  27.137  28.162   0.381
60234W        W32549   7.741  30.926  12.556
60235W        W32550  29.590  30.975   1.885
60236W        W32551  13.251   8.777   3.166
60237W        W32552  18.166  18.227   2.768
60238W        W32553  10.192  31.091   0.737
60239W        W32554   8.764  27.687   0.354
60240W        W32555   2.784  30.620  13.956
60241W        W32556  25.178  42.451   1.746
60242W        W32557   7.676  12.194   0.856
60243W        W32558  10.760  16.705   0.417
60244W        W32559  28.609  27.555   3.778
60245W        W32560  36.473   4.814   0.811
60246W        W32561   2.788  14.725  10.911
60247W        W32562  14.657  20.190  11.939
60248W        W32563  22.556  44.412  14.833
60249W        W32564   6.424  20.070   0.470
60250W        W32565  13.665   4.295  14.419
60251W        W32566  29.966   5.784  11.121
60252W        W32567  19.136  21.627  13.487
60253W        W32568   9.259  18.562  12.361
60254W        W32569  26.561  17.152  10.926
60255W        W32570  17.783   5.817  13.427
60256W        W32571  15.751  44.451  10.506
60257W        W32572   3.723  14.769   4.611
60258W        W32573  25.573   5.304   0.806
60259W        W32574  13.251  38.989  13.902
60260W        W32575  21.131  11.177  10.639
60261W        W32576   4.809   8.884  10.965
60262W        W32577  31.407  15.765   4.348
60263W        W32578   6.234   3.733  14.460
60264W        W32579  27.446   6.276  13.951
60265W        W32580   5.699  41.418  11.572
60266W        W32581  14.307   2.840   3.222
60267W        W32582  19.763  11.623  10.521
60268W        W32583  39.340  10.183  12.835
60269W        W32584  41.429  10.175  13.410
60270W        W32585  26.608  26.113  10.968
60271W        W32586   1.946   7.873   0.919
60272W        W32587  39.520  19.666  13.006
60273W        W32588   1.319  16.603   2.704
60274W        W32589  16.204  26.118  11.530
60275W        W32590  17.758  32.627   0.902
60276W        W32591  41.447  11.826  11.943
60277W        W32592  18.755  36.960   0.859
60278W        W32593  22.078  38.522   2.329
60279W        W32594  33.126  41.887   4.169
60280W        W32595  42.433   7.752   4.829
60281W        W32596   2.729  43.907  14.364
60282W        W32597   4.940  26.526   1.928
60283W        W32598  35.530   8.818   1.742
60284W        W32599  35.895   9.191   1.774
60285W        W32600  43.884  33.578  14.493
60286W        W32601  31.130  25.134   4.755
60287W        W32602  16.309  37.549  13.471
60288W        W32603  44.333  10.805   4.686
60289W        W32604  20.039   6.207  13.912
60290W        W32605  41.014  28.646   1.350
60291W        W32606  13.802  44.820   1.726
60292W        W32607  13.205  34.531  11.065
60293W        W32608  22.674   6.680   0.299
60294W        W32609   6.800   5.854  10.927
60295W        W32610  42.962  37.347  14.967
60296W        W32611   4.711  38.463  10.029
60297W        W32612  17.657  17.649  11.109
60298W        W32613  32.541  44.797  13.469
60299W        W32614  18.641  22.177   4.337
60300W        W32615  35.014  14.117   1.694
60301W        W32616   9.783  24.113   0.887
60302W        W32617   4.917  34.963  12.402
60303W        W32618  19.126  18.575   2.683
60304W        W32619   1.366  20.738   1.897
60305W        W32620  28.638  16.768  12.400
60306W        W32621  33.624  25.488  12.088
60307W        W32622  16.805  44.400  11.594
60308W        W32623  32.533  10.647   1.841
60309W        W32624  35.450  26.058  12.071
60310W        W32625   8.216  19.164  11.022
60311W        W32626   6.376  12.336   4.625
60312W        W32627   8.215  41.011   4.326
60313W        W32628   5.870  42.826   1.415
60314W        W32629  29.430  21.030   0.875
60315W        W32630  35.502  16.685   3.322
60316W        W32631  15.090  39.407  12.870
60317W        W32632  31.023  27.586   2.885
60318W        W32633  29.658   2.942   1.846
60319W        W32634   7.770  33.920   0.930
60320W        W32635   8.344  11.263   3.639
60321W        W32636   2.941  23.580  11.030
60322W        W32637  22.022  21.176  10.567
60323W        W32638  41.478   4.379   2.797
60324W        W32639  28.677   7.251  14.453
60325W        W32640  21.209   8.667  11.493
60326W        W32641  38.975  25.182   2.385
60327W        W32642  20.067  22.037   0.387
60328W        W32643  26.143   2.784  13.058
60329W        W32644  23.650  42.370   2.713
60330W        W32645   6.840  44.765   3.633
60331W        W32646  17.689  17.786   3.204
60332W        W32647  43.406  15.233   1.393
60333W        W32648  35.853  20.231   2.728
60334W        W32649  10.313  38.426   0.735
60335W        W32650  29.479   0.809  14.805
60336W        W32651  24.979  41.355  12.027
60337W        W32652  39.059  34.020  11.940
60338W        W32653  37.357  13.712  11.859
60339W        W32654  15.092  28.649  12.522
60340W        W32655  10.674  15.754  12.016
60341W        W32656  13.306  37.843  11.036
60342W        W32657   4.923   9.240  13.040
60343W        W32658  25.124  15.637  13.900
60344W        W32659   9.376  35.944  10.043
60345W        W32660  15.657   3.785   4.182
60346W        W32661  23.994  18.610  13.975
60347W        W32662  40.356  33.623   9.998
60348W        W32663  20.260   1.317   1.312
60349W        W32664  17.063   6.899  12.565
60350W        W32665   7.731  18.720  14.942
60351W        W32666  39.343  23.650  13.043
60352W        W32667   7.180   7.865  12.860
60353W        W32668  36.582  39.515  11.391
60354W        W32669  12.199  29.084   4.637
60355W        W32670  10.708  28.666   4.116
60356W        W32671  35.402  32.046   2.411
60357W        W32672  24.497   4.926   4.258
60358W        W32673   1.358  34.032  13.878
60359W        W32674  44.780   3.332   1.775
60360W        W32675  37.477   0.812  13.338
60361W        W32676   6.183   9.373  14.918
60362W        W32677  30.425  10.146   1.237
60363W        W32678  23.719   8.184  11.877
60364W        W32679   2.313  40.319   1.441
60365W        W32680  40.354  37.378   5.278
60366W        W32681  34.991  33.961   0.354
60367W        W32682  12.799  21.623   4.756
60368W        W32683   8.855  24.137  10.577
60369W        W32684  19.724   0.370  13.822
60370W        W32685  18.169  24.016  13.909
60371W        W32686  22.696  25.069   0.867
60372W        W32687  13.305  12.673  13.040
60373W        W32688  26.557   7.758   4.637
60374W        W32689  10.856  44.411   3.729
60375W        W32690   6.713  36.867   2.335
60376W        W32691  35.007  21.688   4.195
60377W        W32692  20.630  12.265   2.228
60378W        W32693   8.354  21.073  12.457
60379W        W32694  39.515  18.615   2.325
60380W        W32695  34.967  18.142   1.873
60381W        W32696  29.930   1.247  10.469
60382W        W32697  20.554  41.020  11.934
60383W        W32698  26.545  32.111  12.865
60384W        W32699  17.238  43.012   4.322
60385W        W32700  43.415  38.938  10.151
60386W        W32701  12.212  16.150   4.770
60387W        W32702  23.162   3.324   2.770
60388W        W32703  22.702   0.314  12.879
60389W        W32704  10.761  11.245  12.858
60390W        W32705  17.299  24.720   2.775
60391W        W32706  19.721  18.633  10.441
60392W        W32707   9.836  20.043  14.436
60393W        W32708  23.527  19.276   1.223
60394W        W32709  39.519   0.386   3.238
60395W        W32710  36.388  39.980   3.292
60396W        W32711  42.397  14.270  10.890
60397W        W32712  22.651  31.958   0.879
60398W        W32713  23.036  13.739  10.940
60399W        W32714  16.760  29.530  14.881
60400W        W32715  30.463  36.499   0.353
60401W        W32716   4.312  19.156   1.353
60402W        W32717  16.665  20.268  14.880
60403W        W32718  17.090  36.002   1.224
60404W        W32719  11.162  33.963   0.812
60405W        W32720  27.578  32.398  11.088
60406W        W32721  31.093  35.364   2.395
60407W        W32722  11.859  15.650  14.284
60408W        W32723  19.611  24.116  10.626
60409W        W32724  13.846  18.647   2.404
60410W        W32725  25.080  12.348  14.483
60411W        W32726  21.529  39.930  13.842
60412W        W32727  30.537  33.433   2.726
60413W        W32728   1.436  39.426  13.543
60414W        W32729  20.747  28.598   3.629
60415W        W32730  35.053  37.861   2.841
60416W        W32731  13.768  40.959  10.560
60417W        W32732  35.504  25.685  10.919
60418W        W32733  29.506   5.829   0.841
60419W        W32734  24.019  10.674   1.425
60420W        W32735  13.650  28.539  10.593
60421W        W32736  21.745  40.376  13.506
60422W        W32737  44.852  16.256  11.590
60423W        W32738   9.190  24.094  11.430
60424W        W32739   8.402  12.353   3.294
60425W        W32740  39.327  13.326  13.379
60426W        W32741  29.668  20.653   1.313
60427W        W32742  32.078  43.479   1.905
60428W        W32743   5.328  11.193  10.984
60429W        W32744  37.986  24.014  12.055
60430W        W32745  38.363  30.499   0.336
60431W        W32746   8.765  17.286   0.962
60432W        W32747  14.224  33.030   1.246
60433W        W32748  38.933   0.247   1.808
60434W        W32749   7.359   4.728   1.792
60435W        W32750  14.105   8.290   2.189
60436W        W32751  22.066  11.648   2.765
60437W        W32752  40.963  44.010   2.246
60438W        W32753   5.339  40.823   4.785
60439W        W32754  39.375  41.342   0.758
60440W        W32755   1.812  27.123   3.749
60441W        W32756  18.576  38.014   3.147
60442W        W32757  37.561  43.321  14.316
60443W        W32758  30.612  30.565  14.417
60444W        W32759  21.263  44.364   1.726
60445W        W32760  19.078   8.758   1.747
60446W        W32761   3.292  31.473  13.321
60447W        W32762  36.398  34.971  14.330
60448W        W32763  23.602  19.070  11.938
60449W        W32764   4.408  22.239  11.516
60450W        W32765  23.604  41.462  14.488
60451W        W32766  12.847  25.987  10.571
60452W        W32767   0.478   8.724  12.945
60453W        W32768   6.919  22.661  10.519
60454W        W32769   9.327  30.017   4.724
60455W        W32770  40.485  30.913  14.422
60456W        W32771  22.707  22.107   0.935
60457W        W32772  44.329  27.942  12.023
60458W        W32773  35.064  14.295   1.380
60459W        W32774   5.207  43.019   1.720
60460W        W32775  44.955  10.771  11.907
60461W        W32776  41.803  24.540  14.004
60462W        W32777  34.871  22.174   0.816
60463W        W32778  29.058  21.029   0.767
60464W        W32779   9.859  14.826  13.396
60465W        W32780  20.718  35.418   1.307
60466W        W32781  18.250   2.325  10.970
60467W        W32782   8.748  31.070  11.462
60468W        W32783  15.621   4.900  14.313
60469W        W32784  19.173   7.373   0.744
60470W        W32785   1.332  41.888   2.418
60471W        W32786  30.082  14.219  12.494
60472W        W32787  23.560   9.207  11.876
60473W        W32788  31.145  36.560   1.403
60474W        W32789   0.399  15.165   1.719
60475W        W32790   4.223  16.176   0.856
60476W        W32791  23.996   2.359  10.557
60477W        W32792   7.711  10.303   2.233
60478W        W32793   5.301  35.023   4.235
60479W        W32794  10.162  35.598   4.235
60480W        W32795  34.388  16.730  14.895
60481W        W32796  34.962  11.251   1.357
60482W        W32797  44.891  35.602   2.321
60483W        W32798  27.082  32.892  10.605
60484W        W32799  29.998  30.038  11.968
60485W        W32800  40.982  12.196  14.978
60486W        W32801   7.739  44.883  13.814
60487W        W32802   3.284  30.595   4.741
60488W        W32803  15.225  30.025   3.165
60489W        W32804  35.869  28.528   0.747
60490W        W32805  31.557  44.285   3.199
60491W        W32806   0.785   1.473   3.852
60492W        W32807  29.573  10.349  12.507
60493W        W32808  16.223   5.898   0.754
60494W        W32809  10.678   9.823   1.902
60495W        W32810  44.287  15.217  11.115
60496W        W32811  10.187  14.244   4.810
60497W        W32812  40.918  36.881   2.190
60498W        W32813   0.981   1.254  14.496
60499W        W32814   4.779   3.871   2.770
60500W        W32815   1.387  23.218  11.959
60501W        W32816  35.530   2.268  10.944
60502W        W32817  20.246  35.473   4.289
60503W        W32818   5.692  37.540  10.447
60504W        W32819  41.962  12.173  11.044
60505W        W32820   0.915  39.346  11.395
60506W        W32821  17.640  21.249  12.873
60507W        W32822  30.927  27.064   2.776
60508W        W32823  13.707   7.192   1.213
60509W        W32824  27.494  40.924  11.574
60510W        W32825   4.808   5.289  13.874
60511W        W32826  32.050  33.588   1.933
60512W        W32827  25.014  23.713  10.600
60513W        W32828  17.646  22.703  12.033
60514W        W32829  13.686  26.676   3.652
60515W        W32830  16.631  18.697   1.768
60516W        W32831  26.185   3.944   4.266
60517W        W32832   5.194  43.502   4.236
60518W        W32833  19.183   6.865  11.083
60519W        W32834   8.796  38.410   1.331
60520W        W32835  39.056  34.967  11.042
60521W        W32836  18.705   9.299   0.284
60522W        W32837   9.179  29.612   3.222
60523W        W32838  41.881  13.719  11.922
60524W        W32839  10.138  42.028   2.834
60525W        W32840  13.207  35.423  12.924
60526W        W32841  40.347  24.525  10.645
60527W        W32842   7.394  28.534  13.429
60528W        W32843  19.137  15.646  13.441
60529W        W32844  36.383  17.228   4.151
60530W        W32845  11.358  14.194  12.359
60531W        W32846   2.728  28.476  11.972
60532W        W32847  11.227  44.397  12.861
60533W        W32848   6.892  12.696   4.217
60534W        W32849  10.277  18.606  14.331
60535W        W32850   7.276  10.165  12.088
60536W        W32851  31.057   2.272   0.289
60537W        W32852  40.457   5.227  14.867
60538W        W32853  13.799   4.211   0.775
60539W        W32854  25.709  31.943   4.743
60540W        W32855  33.570  32.031   9.923
60541W        W32856  40.327  44.286   5.313
60542W        W32857   8.268  38.841   3.726
60543W        W32858  22.229   8.303   4.225
60544W        W32859  12.628   4.767   1.239
60545W        W32860  21.126  21.260   2.269
60546W        W32861   5.759  39.468   2.758
60547W        W32862  42.369  27.966  10.479
60548W        W32863  32.922   9.156  13.354
60549W        W32864  16.093  11.661  14.373
60550W        W32865  17.114  13.223  14.280
60551W        W32866  39.835  24.610  14.003
60552W        W32867  39.961  28.018   4.617
60553W        W32868   2.239   4.309   2.776
60554W        W32869  15.625  31.944   5.181
60555W        W32870  17.761   2.434   4.601
60556W        W32871  33.047  27.144  11.600
60557W        W32872  23.649  29.572   3.195
60558W        W32873   3.317  37.376  13.434
60559W        W32874  24.091   7.338   3.296
60560W        W32875  36.026  39.555   0.264
60561W        W32876  22.573   5.864   2.409
60562W        W32877  13.762  15.688   4.811
60563W        W32878  15.780  13.694   3.720
60564W        W32879  20.548  12.738   0.867
60565W        W32880  25.999  28.129   4.251
60566W        W32881  33.513   7.905  13.418
60567W        W32882  16.168  12.789   2.366
60568W        W32883  42.457   6.244   4.750
60569W        W32884  19.106  29.019   3.745
60570W        W32885  40.429   6.862   1.289
60571W        W32886  23.700  28.083  14.850
60572W        W32887  27.980  42.344  10.437
60573W        W32888  33.417   6.240  10.899
60574W        W32889   3.433  26.109  13.414
60575W        W32890  24.582  44.924   0.806
60576W        W32891  23.511  29.147  13.867
60577W        W32892  24.191   0.953   4.230
60578W        W32893  42.013   9.284  13.376
60579W        W32894   8.337  31.967   1.879
60580W        W32895  26.206  15.325  11.564
60581W        W32896  29.642  28.980  14.795
60582W        W32897  28.052  15.311   1.735
60583W        W32898  18.615  13.712   0.909
60584W        W32899  42.484   5.234   0.412
60585W        W32900  21.717  25.689   4.117
60586W        W32901  43.019  19.130   2.347
60587W        W32902   3.258  20.117   2.349
60588W        W32903   1.849  30.621  11.376
60589W        W32904   5.885  38.383  12.069
60590W        W32905  35.005  22.524  12.932
60591W        W32906  19.189  19.203  12.049
60592W        W32907  15.818  30.466   2.331
60593W        W32908  28.615  39.334   0.816
60594W        W32909  16.080  44.503  13.917
60595W        W32910  40.016  32.970  11.449
60596W        W32911   2.311  29.142  12.490
60597W        W32912  33.454   3.912   3.682
60598W        W32913  43.425   0.915   4.797
60599W        W32914   9.685  19.075  12.998
60600W        W32915  41.913  26.509  10.520
60601W        W32916  44.766  15.634  10.970
60602W        W32917  10.330  34.533  14.021
60603W        W32918  40.933  23.056   3.323
60604W        W32919  35.954  37.410  10.491
60605W        W32920  15.225   5.704   2.219
60606W        W32921  34.032  32.496  12.401
60607W        W32922   5.699   7.334   4.612
60608W        W32923  22.677  30.073   3.807
60609W        W32924   5.236  35.411  12.575
60610W        W32925   1.461  24.123   3.842
60611W        W32926  28.630  23.600   0.260
60612W        W32927  18.667   8.738  14.356
60613W        W32928  30.581  39.050  11.432
60614W        W32929  34.511  28.575   2.832
60615W        W32930   5.231  11.860  12.471
60616W        W32931  40.443   4.858   1.365
60617W        W32932   1.824   7.769   2.771
60618W        W32933   8.174  22.194   2.369
60619W        W32934  43.321   5.314  11.529
60620W        W32935  26.604  29.939  14.485
60621W        W32936  21.249   0.843  14.809
60622W        W32937  25.538  27.571  10.492
60623W        W32938  44.826   6.919   4.672
60624W        W32939  34.416  20.681  10.970
60625W        W32940   7.285  26.694   1.262
60626W        W32941   3.915  27.513  11.117
60627W        W32942  15.600   5.855   4.753
60628W        W32943  20.696  23.704   2.319
60629W        W32944  44.890  41.888   1.222
60630W        W32945  27.593  24.485  14.880
60631W        W32946  21.707  40.398  14.280
60632W        W32947  27.985  11.144   0.817
60633W        W32948   8.735  25.558   3.343
60634W        W32949   0.452  25.511  11.858
60635W        W32950  12.184  31.005  13.970
60636W        W32951  16.121  18.182  11.893
60637W        W32952  19.258   5.741  13.342
60638W        W32953  10.335  42.826  10.092
60639W        W32954  13.234  32.512   3.786
60640W        W32955  20.070  30.624   3.192
60641W        W32956  19.749  22.162  12.936
60642W        W32957   4.204  29.601   0.738
60643W        W32958  17.133  23.651  13.860
60644W        W32959  20.161  41.011  14.791
60645W        W32960  12.794  13.190  11.597
60646W        W32961  25.588  38.330  13.840
60647W        W32962  14.733  14.108  11.420
60648W        W32963   7.297   4.829  14.319
60649W        W32964   4.316   5.856  12.356
60650W        W32965   2.723  29.029   4.130
60651W        W32966   1.429  31.059  13.869
60652W        W32967  21.153  40.868   3.321
60653W        W32968  23.705  40.882  12.977
60654W        W32969  13.230  31.066   3.784
60655W        W32970  22.563  23.073  12.909
60656W        W32971  19.561  39.935  10.424
60657W        W32972  34.456  33.589   2.353
60658W        W32973  32.010  20.182  10.528
60659W        W32974  15.813  25.468  12.471
60660W        W32975  37.442  10.720  12.868
60661W        W32976  28.659  28.571  11.403
60662W        W32977   6.700   0.906  12.577
60663W        W32978   2.361  35.382  14.925
60664W        W32979  15.812   9.702   3.289
60665W        W32980  44.494  36.990   1.750
60666W        W32981  11.708  42.932  12.559
60667W        W32982  16.677   0.265  11.038
60668W        W32983   3.460  42.963  14.514
60669W        W32984  40.870  39.904  14.344
60670W        W32985  20.188   4.368  13.004
60671W        W32986  20.129   8.661   5.142
60672W        W32987   2.289  33.423  12.910
60673W        W32988  29.642  21.750   2.808
60674W        W32989  31.443  10.783   1.773
60675W        W32990  38.872  36.414  10.974
60676W        W32991   9.764  32.583   4.758
60677W        W32992  19.114  22.230  10.574
60678W        W32993  10.784   4.443  11.096
60679W        W32994  23.714  28.062   1.813
60680W        W32995  29.968  41.926  13.887
60681W        W32996  32.462  12.821   3.768
60682W        W32997  11.130  10.653  12.929
60683W        W32998  24.483   2.870  12.981
60684W        W32999  28.021  28.505   4.228
60685W        W33000  38.449  22.149  12.013
60686W        W33001  17.663   0.347   1.298
60687W        W33002  29.956  43.390   3.809
60688W        W33003  18.778  42.963   2.775
60689W        W33004  42.879  22.712  11.050
60690W        W33005  27.117   1.969  12.039
60691W        W33006  18.671  41.810  13.317
60692W        W33007  22.077  30.658  12.575
60693W        W33008  43.309   9.196   3.821
60694W        W33009  32.137  10.749   4.164
60695W        W33010  35.443  24.589   4.609
60696W        W33011  11.659  31.571  10.920
60697W        W33012  33.468  17.780  11.547
60698W        W33013  15.310   9.371   0.910
60699W        W33014  35.394  35.510  10.410
60700W        W33015  28.483  10.352   3.307
60701W        W33016  25.019  14.663  12.068
60702W        W33017   4.378   1.867  14.487
60703W        W33018  18.089  33.401  10.584
60704W        W33019  16.697  29.985  10.508
60705W        W33020  23.565  29.952  12.514
60706W        W33021  31.951  11.770   5.231
60707W        W33022  31.642  18.227  12.997
60708W        W33023  21.689  10.778  12.895
60709W        W33024  36.063   5.246  14.983
60710W        W33025   2.275   3.721  14.451
60711W        W33026  26.611  36.367  12.561
60712W        W33027   5.780  10.165  11.524
60713W        W33028  37.868   9.323   4.260
60714W        W33029  16.095  37.571  12.507
60715W        W33030  44.799  44.804  13.497
60716W        W33031  33.075  16.679  10.613
60717W        W33032  22.545  40.479  12.024
60718W        W33033  12.136  38.916   3.772
60719W        W33034  10.175  31.494   0.826
60720W        W33035  18.154   6.245   2.793
60721W        W33036  42.298  39.953  10.483
60722W        W33037  13.282  28.606   0.809
60723W        W33038  42.956  15.180   4.756
60724W        W33039  27.540  32.966  13.013
60725W        W33040  20.631  22.581  12.884
60726W        W33041  10.862  35.490   3.816
60727W        W33042  31.036  23.044   3.282
60728W        W33043  39.050   9.762  14.379
60729W        W33044  11.742  23.105  14.393
60730W        W33045  16.617  24.169   2.300
60731W        W33046  39.847  41.963   3.711
60732W        W33047  16.608  25.667   4.627
60733W        W33048  42.831  26.645  13.974
60734W        W33049   8.294  40.918   4.634
60735W        W33050  16.152  31.629  14.307
60736W        W33051  39.810   8.398  11.117
60737W        W33052  35.000   3.935   4.752
60738W        W33053  37.405  16.706  11.474
60739W        W33054  26.703  15.707  11.494
60740W        W33055  12.629  29.154   0.389
60741W        W33056  28.093   1.780   3.265
60742W        W33057  43.378  14.615   0.856
60743W        W33058   7.671  18.056   1.232
60744W        W33059   3.343  14.817   1.867
60745W        W33060  32.012   6.253   0.362
60746W        W33061  27.117  34.120   1.297
60747W        W33062  13.339  35.891  10.042
60748W        W33063  38.853  34.428  14.428
60749W        W33064  14.181  12.145  11.391
60750W        W33065  36.049   4.824  12.361
60751W        W33066   9.348  34.042  10.458
60752W        W33067  14.745   2.811  12.075
60753W        W33068  29.540  32.896   4.729
60754W        W33069   8.868   8.331  10.493
60755W        W33070  38.998  29.922  10.959
60756W        W33071   7.271  10.845   2.205
60757W        W33072  26.468  30.533   3.279
60758W        W33073  27.987  39.902  10.542
60759W        W33074  13.706   0.957  10.461
60760W        W33075  33.480  21.113   5.113
60761W        W33076   3.898  38.436  13.337
60762W        W33077  40.963   7.370   4.686
60763W        W33078  21.555   2.466  10.536
60764W        W33079   4.297  43.383   2.296
60765W        W33080  34.476  32.058   3.785
60766W        W33081   1.237  28.554  10.636
60767W        W33082  11.658  41.007  14.276
60768W        W33083  22.695  17.143   5.127
60769W        W33084   9.836  25.135   0.334
60770W        W33085  27.635  19.592  11.437
60771W        W33086  23.082  32.511  12.444
60772W        W33087   4.702  19.734   3.692
60773W        W33088  26.647   3.377   2.900
60774W        W33089   3.348  34.108   3.734
60775W        W33090   3.276  43.836   4.645
60776W        W33091  29.467  18.568  10.973
60777W        W33092  10.715  21.543   1.267
60778W        W33093  36.414  35.513   2.269
60779W        W33094  17.171  37.954   1.321
60780W        W33095  24.229   3.236  12.418
60781W        W33096  11.205  20.767  14.324
60782W        W33097  24.139  38.384  11.585
60783W        W33098   5.832  27.045  12.417
60784W        W33099  42.883  26.654  11.911
60785W        W33100  25.111  18.754  14.852
60786W        W33101  38.011   5.365  12.466
60787W        W33102  28.457  21.631   2.857
60788W        W33103  38.387   7.320  12.069
60789W        W33104  13.169  35.972   1.373
60790W        W33105  11.179   6.889   4.611
60791W        W33106   5.236  11.163  14.424
60792W        W33107  34.938  40.980   3.740
60793W        W33108  41.364  17.747   4.666
60794W        W33109  28.654   6.407   0.306
60795W        W33110   5.881  16.249   4.151
60796W        W33111  11.132   5.395  13.389
60797W        W33112  41.536  21.149   4.213
60798W        W33113  16.788  34.006   2.831
60799W        W33114  20.100   5.406   4.132
60800W        W33115   3.812  29.629  14.349
60801W        W33116   5.438  18.070  13.440
60802W        W33117  20.167  29.960   1.934
60803W        W33118  26.148  34.928   3.380
60804W        W33119   8.753  27.159  14.352
60805W        W33120  43.307  27.677   0.288
60806W        W33121  22.107   4.207  12.032
60807W        W33122   6.427  37.524  11.433
60808W        W33123  41.487  24.035   4.676
60809W        W33124   3.454  19.754   3.370
60810W        W33125  42.506  27.004   2.261
60811W        W33126  25.701   0.883  14.989
60812W        W33127  41.330   9.692  11.603
60813W        W33128   9.379  11.283  14.463
60814W        W33129  43.444  15.722  10.950
60815W        W33130  33.090   2.257   4.701
60816W        W33131  11.153   4.343  11.508
60817W        W33132   8.837   8.241  12.453
60818W        W33133  12.190  43.949  13.361
60819W        W33134  39.956  40.333  13.885
60820W        W33135  39.404  20.182   2.712
60821W        W33136  44.423  13.682   3.202
60822W        W33137  26.685  25.704   1.411
60823W        W33138  17.676  44.912  12.357
60824W        W33139   3.920  28.657   3.764
60825W        W33140  15.283  23.240  13.049
60826W        W33141  26.077   6.400  12.402
60827W        W33142  34.045   2.797  12.424
60828W        W33143  44.929  38.968   1.906
60829W        W33144  25.503  10.295  12.453
60830W        W33145  24.561   6.797  12.059
60831W        W33146  30.584  17.705  11.460
60832W        W33147   3.905  21.069   0.263
60833W        W33148  37.046  23.233   4.245
60834W        W33149  33.988  26.460   3.359
60835W        W33150  24.717   2.831  13.384
60836W        W33151  24.702  13.307  11.572
60837W        W33152  43.410  33.434  13.972
60838W        W33153  24.556  38.877   2.786
60839W        W33154  42.477  33.098   2.697
60840W        W33155   7.843  35.037  12.359
60841W        W33156  19.582   5.305   4.771
60842W        W33157  36.476   8.884  11.388
60843W        W33158  34.431  40.382   0.356
60844W        W33159  37.443  36.522  11.544
60845W        W33160  29.110   8.678  10.926
60846W        W33161   5.377  43.278   1.840
60847W        W33162   8.686  22.666   1.405
60848W        W33163  41.467  21.540  14.959
60849W        W33164   0.968  26.657  11.602
60850W        W33165  41.529  15.800  14.510
60851W        W33166  35.429  35.039   1.279
60852W        W33167  19.751   8.867   5.262
60853W        W33168   8.277  23.511  11.473
60854W        W33169  17.794  32.503  13.826
60855W        W33170  21.135  33.013  10.470
60856W        W33171   4.211  28.022  12.973
60857W        W33172  24.138  12.356   3.780
60858W        W33173   3.264  36.963  10.452
60859W        W33174   5.880  33.875  11.019
60860W        W33175   8.760  35.545  11.545
60861W        W33176   1.264   1.877   2.367
60862W        W33177  31.925  32.611  12.093
60863W        W33178  33.900   1.430  13.940
60864W        W33179   1.744  15.781  10.941
60865W        W33180   0.767  39.420   4.714
60866W        W33181  32.614  14.109  14.513
60867W        W33182  23.197  27.500   3.758
60868W        W33183   8.837  25.562  13.320
60869W        W33184  30.005  14.313  14.508
60870W        W33185  23.209  15.097  11.068
60871W        W33186  36.931  33.529   2.412
60872W        W33187  41.498  27.194   0.349
60873W        W33188  11.373   8.815  13.333
60874W        W33189   2.734  39.841   0.359
60875W        W33190   3.953   7.388  14.382
60876W        W33191  36.545  26.641   0.948
60877W        W33192   9.829   6.867  10.893
60878W        W33193  12.766  20.198  10.559
60879W        W33194   9.278   1.273   0.947
60880W        W33195  40.348  36.956  10.975
60881W        W33196   3.424  21.707   4.746
60882W        W33197   0.853  35.092  14.944
60883W        W33198  27.073   8.201  10.582
60884W        W33199  26.983  19.039   3.314
60885W        W33200  27.951  42.875  11.549
60886W        W33201  14.658  39.503  14.288
60887W        W33202  35.916   0.891  10.633
60888W        W33203   6.683  35.990   3.208
60889W        W33204  21.565  43.012  12.079
60890W        W33205  26.695   6.769  14.383
60891W        W33206  34.992   3.413  12.360
60892W        W33207   2.433  20.094  11.415
60893W        W33208  21.544  31.071   1.223
60894W        W33209  19.559  14.631  11.863
60895W        W33210  16.751  29.103   0.870
60896W        W33211  31.152  10.717  11.889
60897W        W33212  38.829  35.399  14.957
60898W        W33213   1.857  44.481   4.196
60899W        W33214  34.070  44.429  11.471
60900W        W33215  43.420  24.578  12.033
60901W        W33216  35.373  19.620   2.701
60902W        W33217  34.029  14.772   0.836
60903W        W33218  19.265  12.618   4.792
60904W        W33219   9.808  18.117  12.035
60905W        W33220  33.464  19.135  14.011
60906W        W33221  14.228  15.647   3.646
60907W        W33222  44.382   3.850  13.794
60908W        W33223  31.402  27.113   3.660
60909W        W33224   6.308  17.632   2.282
60910W        W33225   8.708  44.371   5.156
60911W        W33226   3.953  16.302  11.562
60912W        W33227  33.099  10.344   5.296
60913W        W33228  34.924  14.336   0.897
60914W        W33229  22.078  19.603   5.103
60915W        W33230  31.438  25.976  13.426
60916W        W33231  33.402  43.822  10.620
60917W        W33232   7.752   7.902  11.602
60918W        W33233  36.951  16.249  14.805
60919W        W33234  36.975  32.508   0.878
60920W        W33235  32.551  31.533  10.638
60921W        W33236   2.755  13.776   3.724
60922W        W33237   6.194  12.312   3.826
60923W        W33238   0.276   1.872  10.926
60924W        W33239  19.656   7.790  11.000
60925W        W33240   1.836   8.370  10.504
60926W        W33241  36.556   9.821   4.341
60927W        W33242  39.440   5.736  10.516
60928W        W33243  27.463   9.706   2.397
60929W        W33244  40.951  39.343  12.493
60930W        W33245  26.020  26.107   1.713
60931W        W33246   9.810  33.927   4.208
60932W        W33247   9.286  41.845  12.093
60933W        W33248  18.784  20.642  10.622
60934W        W33249   4.928   1.952  14.947
60935W        W33250  36.453   5.852  13.975
60936W        W33251  22.231  25.046  12.894
60937W        W33252   0.282  42.968  12.878
60938W        W33253  39.394  44.870   4.789
60939W        W33254  30.636  20.173   4.317
60940W        W33255  28.967  13.622   0.249
60941W        W33256  35.930  35.988  12.440
60942W        W33257   8.314   7.393   4.659
60943W        W33258  22.685  35.015   4.687
60944W        W33259  13.117  27.144  13.530
60945W        W33260  28.491  29.475  13.973
60946W        W33261   1.341  41.345   2.286
60947W        W33262  40.019  33.461   3.632
60948W        W33263   1.927  34.464  12.010
60949W        W33264  40.371  24.480   4.162
60950W        W33265  35.558   9.327   2.885
60951W        W33266  14.724  21.200  10.645
60952W        W33267  31.048  19.230  10.930
60953W        W33268  29.127  22.195   4.146
60954W        W33269  32.433  36.981   1.355
60955W        W33270  10.308  35.919   2.769
60956W        W33271  37.050  38.547   3.764
60957W        W33272   7.741  22.732   3.348
60958W        W33273  34.961  28.164  11.442
60959W        W33274   6.882   3.437  12.506
60960W        W33275  36.943   2.301   2.390
60961W        W33276  39.461  31.920  13.868
60962W        W33277  18.769  44.774  14.021
60963W        W33278  29.922  15.701   1.782
60964W        W33279   3.334  42.905   3.284
60965W        W33280  16.759  13.835   3.644
60966W        W33281  14.175  24.668   2.699
60967W        W33282  40.928  11.282  14.359
60968W        W33283  43.921  38.457   1.397
60969W        W33284  42.856  13.242  11.112
60970W        W33285  36.575  24.597  10.955
60971W        W33286  24.533  24.501  10.541
60972W        W33287  36.026  38.043  14.455
60973W        W33288  12.337  38.357   1.405
60974W        W33289  14.261  43.354   1.352
60975W        W33290  15.241  34.896  14.404
60976W        W33291  28.648   8.707   1.696
60977W        W33292  37.486  17.738   2.788
60978W        W33293  25.056  44.817  14.428
60979W        W33294  39.904  41.982  14.857
60980W        W33295   6.287   3.398  13.477
60981W        W33296  39.526   9.836  14.275
60982W        W33297  21.183   1.355   4.746
60983W        W33298   6.292  39.560  14.401
60984W        W33299  39.888  15.664  10.554
60985W        W33300  23.574  23.202  10.978
60986W        W33301  26.081   7.260   4.202
60987W        W33302  15.145  24.078   2.243
60988W        W33303  31.012  33.489  10.023
60989W        W33304   5.210  35.942   2.689
60990W        W33305   8.258  21.239  11.110
60991W        W33306  13.267  20.568  14.281
60992W        W33307   7.703  36.546   4.229
60993W        W33308  15.647  14.618  14.910
60994W        W33309  13.324  41.426  13.543
60995W        W33310  11.211  14.323   1.377
60996W        W33311  30.540  19.046  14.983
60997W        W33312  31.476  39.450   0.325
60998W        W33313   4.873  12.754   0.874
60999W        W33314  43.939  19.075  12.882
61000W        W33315  10.318  39.953   0.862
61001W        W33316  20.043   6.740   1.217
61002W        W33317  21.586  21.225  12.096
61003W        W33318  41.908  20.563   1.788
61004W        W33319   3.918  29.135  12.476
61005W        W33320  24.545  21.743   1.752
61006W        W33321  18.282   9.788   3.794
61007W        W33322  18.618  41.990   0.734
61008W        W33323  18.644  27.683   4.250
61009W        W33324  13.186  15.801  14.513
61010W        W33325   2.857  31.055   1.749
61011W        W33326  11.709  26.619   3.207
61012W        W33327  43.292  28.134   1.386
61013W        W33328  38.433  34.018   3.794
61014W        W33329  38.890  30.573  12.547
61015W        W33330   9.387  20.234   2.407
61016W        W33331  18.062  28.955   9.923
61017W        W33332  42.977  30.122   0.750
61018W        W33333  17.778  43.474  10.422
61019W        W33334  11.721   6.290  14.942
61020W        W33335  38.931   2.310   9.963
61021W        W33336  14.667  27.150   3.820
61022W        W33337  31.019  24.587  13.341
61023W        W33338  38.914  24.602  14.972
61024W        W33339  13.692  21.254   9.934
61025W        W33340  13.186  42.912   5.279
61026W        W33341   3.833  20.094   3.629
61027W        W33342  30.006  17.269  14.951
61028W        W33343  21.030  43.483   2.206
61029W        W33344  11.263  17.237   0.471
61030W        W33345  27.545  14.630   2.728
61031W        W33346  21.529  25.522   1.844
61032W        W33347  19.061   1.796  12.503
61033W        W33348   3.794  13.688   2.415
61034W        W33349  36.364  43.275   0.392
61035W        W33350  32.533  10.641  14.954
61036W        W33351   4.920   8.719  14.765
61037W        W33352  29.568  38.056   4.794
61038W        W33353  40.883  18.283   3.845
61039W        W33354  44.444  19.103  10.032
61040W        W33355   7.679  19.274  10.598
61041W        W33356  40.999  30.956   3.814
61042W        W33357  30.592  20.063   2.804
61043W        W33358   1.453  26.151   4.237
61044W        W33359   3.813   3.749   3.337
61045W        W33360  33.390  40.517   4.722
61046W        W33361   3.796  26.080   2.268
61047W        W33362   5.704  29.618  13.390
61048W        W33363  38.944  19.652  14.366
61049W        W33364  36.408   3.818  11.378
61050W        W33365   2.456  41.030  11.562
61051W        W33366  37.436  11.227  10.570
61052W        W33367  28.025  12.152   3.636
61053W        W33368  28.450  17.592  13.357
61054W        W33369  40.850   9.766  12.946
61055W        W33370  42.782  37.024  13.393
61056W        W33371  23.598  43.967  13.513
61057W        W33372  22.038  42.014  14.289
61058W        W33373  15.180  24.506   2.331
61059W        W33374  14.189  29.007  13.349
61060W        W33375  19.779   9.171   3.332
61061W        W33376  13.599  32.106  11.023
61062W        W33377  37.847  40.001   3.201
61063W        W33378   5.355  26.465  10.097
61064W        W33379  40.480  28.155  10.903
61065W        W33380   1.245  40.903   3.296
61066W        W33381  15.683   3.891  14.775
61067W        W33382  31.517   1.281   3.173
61068W        W33383  43.940   9.669  12.014
61069W        W33384  28.107  23.662  11.939
61070W        W33385  22.166  11.855   0.886
61071W        W33386  24.658   9.224   1.216
61072W        W33387  42.009  29.062  12.451
61073W        W33388  25.486  15.269   3.794
61074W        W33389  15.227  32.503   2.897
61075W        W33390  11.704  24.686   3.743
61076W        W33391   1.744  14.326   1.288
61077W        W33392  37.422  42.001   4.147
61078W        W33393  14.277   9.817   2.375
61079W        W33394  37.371  31.988  13.005
61080W        W33395  18.762  28.938  12.565
61081W        W33396   4.941   1.810   4.340
61082W        W33397  19.584  13.816   1.917
61083W        W33398   6.777  20.632  13.914
61084W        W33399  20.761  37.453   1.364
61085W        W33400  32.006  41.488  14.865
61086W        W33401  40.425  37.338  11.600
61087W        W33402  25.583  20.067   2.686
61088W        W33403  13.315   3.247   2.880
61089W        W33404  29.167   8.397  12.971
61090W        W33405  24.709  36.530  12.463
61091W        W33406  12.839   4.701   2.397
61092W        W33407  44.906  39.940   2.349
61093W        W33408  11.685  11.785   0.396
61094W        W33409  12.648  17.075  13.816
61095W        W33410  16.566  14.118  11.124
61096W        W33411  14.180  18.752  13.992
61097W        W33412  43.835  30.102  12.451
61098W        W33413  18.288   2.813  13.349
61099W        W33414  11.279  31.564  14.425
61100W        W33415  40.812  32.557  13.892
61101W        W33416  18.588  12.301   2.238
61102W        W33417  11.659  31.023   4.330
61103W        W33418  16.770   5.827  14.996
61104W        W33419  27.690   8.307   4.285
61105W        W33420  16.621  10.795  10.109
61106W        W33421   4.729  21.017  14.848
61107W        W33422   8.371  13.159   1.377
61108W        W33423  31.413  44.474  13.810
61109W        W33424   7.191  40.367   3.342
61110W        W33425  39.863  32.911   2.238
61111W        W33426   5.914   6.717  11.881
61112W        W33427  36.883   5.748  12.069
61113W        W33428   4.245  31.033   3.380
61114W        W33429  18.618  35.049  14.970
61115W        W33430   6.806   9.240  11.879
61116W        W33431  40.034  36.582  11.927
61117W        W33432  25.701  21.738  10.098
61118W        W33433  13.599   7.849  14.832
61119W        W33434   0.416  15.593  10.617
61120W        W33435  39.378  39.990   2.902
61121W        W33436  11.283  43.017   4.239
61122W        W33437  36.067  26.635  12.494
61123W        W33438   9.355  30.518   2.352
61124W        W33439  34.909   4.244  14.389
61125W        W33440  30.057  18.235  14.795
61126W        W33441   8.234  12.247   0.729
61127W        W33442  11.757  12.798  13.374
61128W        W33443  13.130  29.070   3.256
61129W        W33444  29.594  14.643   1.415
61130W        W33445  14.710   7.688   4.695
61131W        W33446  31.043   8.286   4.173
61132W        W33447  35.039   3.278   5.116
61133W        W33448  28.936  25.138  13.459
61134W        W33449   1.866  29.092   1.345
61135W        W33450  19.667  38.439   0.470
61136W        W33451  19.199  23.583  10.619
61137W        W33452  42.463  21.104  11.982
61138W        W33453  10.761  43.505  14.426
61139W        W33454  11.174   1.936   4.709
61140W        W33455  12.180  35.914  11.106
61141W        W33456   9.714  44.908   0.941
61142W        W33457  22.724  10.209  10.003
61143W        W33458   0.400  20.226  12.910
61144W        W33459  36.548  10.694  12.069
61145W        W33460   1.944  21.253  12.866
61146W        W33461  25.510  35.430  14.784
61147W        W33462  30.478  44.953  14.851
61148W        W33463  42.511  44.303  14.774
61149W        W33464  32.619   9.269  10.626
61150W        W33465  21.057  28.442   2.387
61151W        W33466  21.250  14.246  14.288
61152W        W33467   4.351  25.025   4.672
61153W        W33468  41.945  30.641   0.744
61154W        W33469   5.315   5.411  13.976
61155W        W33470  39.418  15.147   0.791
61156W        W33471  11.176  44.797   1.292
61157W        W33472  10.167   4.437  14.888
61158W        W33473  35.555  34.901  11.598
61159W        W33474  29.641  44.763   1.810
61160W        W33475  39.395   8.779  10.582
61161W        W33476   3.298   4.797   1.217
61162W        W33477   5.243   3.435   3.844
61163W        W33478   0.275  15.798  14.810
61164W        W33479  16.131  24.206  13.840
61165W        W33480  41.869  31.086  14.303
61166W        W33481  24.591  33.076  12.374
61167W        W33482  35.453  42.968  10.440
61168W        W33483  36.883  37.952  12.478
61169W        W33484  31.480   0.440   4.344
61170W        W33485   5.210   6.858  10.608
61171W        W33486   4.319  12.234  11.447
61172W        W33487  19.544  23.560  11.440
61173W        W33488   8.328   1.803   1.266
61174W        W33489   0.855  13.304   0.466
61175W        W33490  31.144  35.042   1.313
61176W        W33491   7.752  14.095  10.113
61177W        W33492  26.477  22.995  12.422
61178W        W33493   4.741  23.519  13.009
61179W        W33494  29.541  36.055  13.398
61180W        W33495   2.922  27.627  11.938
61181W        W33496  42.020  37.956  12.562
61182W        W33497   2.315  40.043  12.362
61183W        W33498  34.467  18.100  14.369
61184W        W33499  29.577  14.175   1.866
61185W        W33500   3.380   6.800  14.454
61186W        W33501  17.157  42.427  11.867
61187W        W33502  44.271  33.416   0.397
61188W        W33503  11.355  33.521  13.463
61189W        W33504  24.009  11.717  13.948
61190W        W33505  15.194  42.872   4.837
61191W        W33506  16.777  23.040   2.383
61192W        W33507  41.336  34.017  14.288
61193W        W33508   1.263   7.774   4.139
61194W        W33509  22.608   2.286   2.282
61195W        W33510   2.759   8.777  14.986
61196W        W33511  31.130  17.607   4.742
61197W        W33512   5.837  13.787   1.733
61198W        W33513  22.190  13.601  11.101
61199W        W33514   0.263  43.375  13.928
61200W        W33515  11.865  33.081  12.426
61201W        W33516  35.411  16.811  14.820
61202W        W33517   0.845  23.556   3.243
61203W        W33518  31.105  20.177   0.305
61204W        W33519  14.833  33.598   3.362
61205W        W33520  29.650  33.123   0.484
61206W        W33521  14.206  29.508   3.194
61207W        W33522  19.082  28.145   3.777
61208W        W33523  25.219  21.529   5.773
61209W        W33524  40.982  27.620   4.768
61210W        W33525  21.528  33.413  10.434
61211W        W33526  43.315   8.840   1.333
61212W        W33527  17.225  12.246   0.387
61213W        W33528   8.339  33.409   3.155
61214W        W33529  34.962   5.259   2.320
61215W        W33530  24.034  32.528   3.346
61216W        W33531  26.156  41.027   0.889
61217W        W33532  36.045  41.318   0.879
61218W        W33533  42.423   0.455  12.522
61219W        W33534  35.395  18.599   1.705
61220W        W33535  20.536  10.336  13.415
61221W        W33536   2.358  33.055  13.948
61222W        W33537  23.557  33.107   3.841
61223W        W33538  39.903  18.545  14.376
61224W        W33539  16.219  41.445  14.808
61225W        W33540  33.595  34.928  11.516
61226W        W33541  29.011  32.988  14.376
61227W        W33542   1.795  12.216  13.390
61228W        W33543  21.027   7.389   1.752
61229W        W33544   5.877   3.944  12.952
61230W        W33545  23.158   8.329   3.709
61231W        W33546  42.826  43.382   0.383
61232W        W33547  44.414   4.794  11.892
61233W        W33548   6.257  28.178   9.956
61234W        W33549  28.495  22.044  12.519
61235W        W33550  31.145  35.926  14.420
61236W        W33551  30.955  16.156  14.022
61237W        W33552   5.765  18.186  14.791
61238W        W33553  43.936   9.786   3.199
61239W        W33554  10.721   3.814   4.639
61240W        W33555  35.585  29.132   2.254
61241W        W33556  41.916  21.517  13.955
61242W        W33557  24.120  36.552   2.810
61243W        W33558   6.676  44.359  12.500
61244W        W33559  42.002  37.477   3.310
61245W        W33560  31.946  24.483  10.982
61246W        W33561  41.423  22.618   3.240
61247W        W33562  13.289  29.568   2.337
61248W        W33563  16.746   7.666  11.456
61249W        W33564  19.704  10.172   0.452
61250W        W33565  19.553  17.618  14.923
61251W        W33566  36.951  14.590   4.749
61252W        W33567  38.493  18.107   4.821
61253W        W33568  17.117  10.139   2.865
61254W        W33569  14.626   6.299  14.490
61255W        W33570  22.015  41.037   4.151
61256W        W33571  29.669  29.434   2.241
61257W        W33572  20.073  24.571  10.620
61258W        W33573  27.452  10.794   3.203
61259W        W33574   7.326  11.832  11.899
61260W        W33575  38.824  33.381  13.921
61261W        W33576   3.930   8.359   4.656
61262W        W33577  24.998  43.983  10.463
61263W        W33578   8.201  37.087  13.890
61264W        W33579  18.120  28.171  11.443
61265W        W33580  14.790   2.924  12.883
61266W        W33581  21.531   8.290  14.758
61267W        W33582  10.193  34.936  12.887
61268W        W33583  18.726  14.593   1.237
61269W        W33584  13.205   0.451  14.787
61270W        W33585  15.710  30.975   0.829
61271W        W33586  22.705  22.006  10.087
61272W        W33587   0.870  12.670  14.029
61273W        W33588  34.505  44.323   1.447
61274W        W33589  30.551  12.739   4.319
61275W        W33590  11.818  27.594  12.492
61276W        W33591  30.618   9.239  10.501
61277W        W33592  16.588  39.476   4.308
61278W        W33593  21.718  25.570   0.465
61279W        W33594  40.344  43.923  12.918
61280W        W33595  41.803  18.130   3.782
61281W        W33596   7.391   2.770  14.762
61282W        W33597  19.669  29.471  14.803
61283W        W33598  44.905   7.174   1.358
61284W        W33599   9.380   3.747   0.474
61285W        W33600  11.803  31.999   0.437
61286W        W33601  18.563  21.255   5.114
61287W        W33602   8.338  12.762   3.382
61288W        W33603   6.904  39.985  13.993
61289W        W33604  41.464  21.052   5.252
61290W        W33605  27.665  14.602  10.599
61291W        W33606  34.381   5.729   1.294
61292W        W33607  21.748   8.333  12.086
61293W        W33608  29.484  26.648   3.154
61294W        W33609  29.523   4.717   0.853
61295W        W33610  29.090  10.328  12.826
61296W        W33611  40.511  35.508   4.807
61297W        W33612  28.598   5.378   1.319
61298W        W33613  34.511  37.034   2.392
61299W        W33614  40.413  33.437  11.558
61300W        W33615  18.227  11.693  13.515
61301W        W33616  29.513   6.690   4.315
61302W        W33617  36.372   4.234   3.811
61303W        W33618  19.046  13.241  14.485
61304W        W33619  31.549  36.046  10.963
61305W        W33620   9.744  22.512   2.230
61306W        W33621   9.206  44.806  13.811
61307W        W33622  39.991  26.081   5.156
61308W        W33623  36.434  10.854   2.370
61309W        W33624   4.275  40.053  12.857
61310W        W33625   3.445  13.264   2.683
61311W        W33626  15.585  20.668  13.028
61312W        W33627  42.493   6.387   2.281
61313W        W33628  33.120  31.459  10.989
61314W        W33629  25.546  42.468  14.017
61315W        W33630   4.363   1.403  12.527
61316W        W33631  10.724  41.488   2.314
61317W        W33632  14.597  25.060  13.997
61318W        W33633  22.710  11.301   9.924
61319W        W33634   7.764   4.327   1.819
61320W        W33635  39.858  42.970  14.822
61321W        W33636   8.245  44.286  14.951
61322W        W33637  15.122  24.610  11.951
61323W        W33638  15.175  15.591  14.344
61324W        W33639  27.179   3.806  14.854
61325W        W33640  41.949  28.568   2.665
61326W        W33641   7.774  15.123   1.875
61327W        W33642  35.439  20.754  13.961
61328W        W33643   5.366  27.550   1.361
61329W        W33644   2.903  32.912  13.395
61330W        W33645  25.001  38.996   2.718
61331W        W33646  10.838  29.996   1.855
61332W        W33647  26.678  38.402  10.500
61333W        W33648  19.636  14.143  14.921
61334W        W33649  35.406   6.894   3.730
61335W        W33650  11.786  16.121   2.786
61336W        W33651  30.159  17.696  12.887
61337W        W33652   5.371  33.963  10.635
61338W        W33653  22.526  23.726   3.237
61339W        W33654   5.261  10.368  12.347
61340W        W33655  44.439  21.262   5.166
61341W        W33656  25.056  16.626  14.029
61342W        W33657   9.648  27.607   1.398
61343W        W33658  18.655   7.237   1.906
61344W        W33659  31.949   0.885   1.223
61345W        W33660  37.497  37.347  14.806
61346W        W33661  25.601  27.454  12.465
61347W        W33662   7.292  12.713   1.440
61348W        W33663  17.219  35.502   1.315
61349W        W33664  27.628  39.400  13.417
61350W        W33665  35.899  26.495  13.985
61351W        W33666   0.842   9.809   0.823
61352W        W33667  13.742  34.378  14.985
61353W        W33668  17.589  44.867   3.856
61354W        W33669  21.181  10.764   2.326
61355W        W33670  23.495  42.027   3.217
61356W        W33671   0.910  23.059   2.787
61357W        W33672  11.807  22.115  13.012
61358W        W33673  42.516  18.768  14.888
61359W        W33674  23.099  25.629   1.344
61360W        W33675  22.615  11.278   4.223
61361W        W33676   5.709  41.953  11.068
61362W        W33677  41.423  42.285  13.474
61363W        W33678  14.642   8.392  13.412
61364W        W33679   2.958   8.851   1.305
61365W        W33680   8.371   9.757  12.980
61366W        W33681  11.226   8.180   0.950
61367W        W33682  19.760  10.358  10.615
61368W        W33683  21.555  42.870  13.989
61369W        W33684  35.506  10.139   3.699
61370W        W33685  27.955  13.821  12.501
61371W        W33686  36.962  22.667  14.783
61372W        W33687  33.433  38.021   4.607
61373W        W33688  42.792  28.174   3.198
61374W        W33689  33.505  27.041   2.248
61375W        W33690  28.634  40.022  13.450
61376W        W33691  22.151   1.758   0.391
61377W        W33692  12.211  22.502  11.994
61378W        W33693  11.704  42.366   2.376
61379W        W33694  19.744  37.372   2.678
61380W        W33695  13.288  31.040  11.972
61381W        W33696  14.296  20.169  12.868
61382W        W33697  39.867   1.802  10.443
61383W        W33698   7.855  20.224  12.082
61384W        W33699  40.440  19.220   2.191
61385W        W33700  21.051   9.673   2.859
61386W        W33701   3.250  30.142   4.793
61387W        W33702  27.518  31.581   4.199
61388W        W33703   2.350  14.726   1.402
61389W        W33704  18.591  26.531   4.329
61390W        W33705  29.167  20.697   0.457
61391W        W33706  19.633   8.268  10.453
61392W        W33707  41.949  16.284   2.901
61393W        W33708  42.931   7.408  12.014
61394W        W33709  12.686  13.622   3.354
61395W        W33710  27.085   6.827   9.622
61396W        W33711  42.864   8.683   0.837
61397W        W33712  17.750  18.103   3.654
61398W        W33713  11.644  34.047   4.615
61399W        W33714  20.644  29.154  11.458
61400W        W33715   1.775  10.655  12.874
61401W        W33716   8.823  42.907   0.475
61402W        W33717  13.132  37.513   4.610
61403W        W33718   6.849  40.536  13.330
61404W        W33719  14.271  11.795   2.250
61405W        W33720  43.964  16.691   0.731
61406W        W33721  24.007  35.453  10.493
61407W        W33722  11.143   3.865  11.414
61408W        W33723  31.063  17.149   5.233
61409W        W33724  33.886  16.177  12.517
61410W        W33725  15.224  34.904  13.328
61411W        W33726  29.518  21.063   3.333
61412W        W33727  29.006   7.323   3.381
61413W        W33728  27.947  40.960  14.894
61414W        W33729  17.262  18.722  10.895
61415W        W33730  18.256   2.813   3.352
61416W        W33731  23.039  22.028  11.001
61417W        W33732  23.101  41.519  13.983
61418W        W33733   6.823   3.738  12.431
61419W        W33734  37.488  26.970   2.860
61420W        W33735   9.681   5.425  12.470
61421W        W33736   3.265  23.002   4.291
61422W        W33737   5.910  43.493  11.427
61423W        W33738   6.876  22.250   1.291
61424W        W33739   0.951   7.752  13.796
61425W        W33740  25.549  40.039  13.543
61426W        W33741  33.460  19.187   3.853
61427W        W33742  28.080  44.322   3.795
61428W        W33743   0.249   5.342   2.680
61429W        W33744  33.909  34.493  11.513
61430W        W33745  32.578  40.388   1.220
61431W        W33746  37.447   8.321  13.045
61432W        W33747  33.086   0.431   3.808
61433W        W33748  25.155   4.263  11.426
61434W        W33749   1.337  10.694   4.801
61435W        W33750  17.077  30.116   0.308
61436W        W33751  13.167  44.784   1.912
61437W        W33752  23.044  27.030   4.343
61438W        W33753  12.759  22.071   2.377
61439W        W33754  10.194  33.492  12.944
61440W        W33755  32.465  31.038  14.771
61441W        W33756  33.476   4.891  13.822
61442W        W33757  10.188  39.842   4.829
61443W        W33758  38.558  32.954  13.421
61444W        W33759  30.513   7.376  12.935
61445W        W33760  37.573  15.099  13.039
61446W        W33761  41.864   7.388   0.834
61447W        W33762  38.842  26.113   1.393
61448W        W33763   0.320  21.660  14.427
61449W        W33764  37.033   8.228   0.858
61450W        W33765  37.995  44.931   0.283
61451W        W33766  12.802  39.874  10.977
61452W        W33767  17.220  32.456  12.836
61453W        W33768  41.817  14.813  12.342
61454W        W33769  21.684   8.172  12.422
61455W        W33770  13.608  19.086  13.833
61456W        W33771  24.619   3.334  14.905
61457W        W33772  18.674  35.881   0.867
61458W        W33773  11.802  36.084  12.394
61459W        W33774  35.866  12.760  14.872
61460W        W33775  21.656  19.223   4.631
61461W        W33776  32.400  20.169  14.942
61462W        W33777  39.336   5.699  10.903
61463W        W33778   9.749  32.999   2.290
61464W        W33779   1.377  20.728   0.281
61465W        W33780  37.540  20.195   2.892
61466W        W33781   2.842  34.958   1.730
61467W        W33782   5.436  16.110   1.309
61468W        W33783   1.469  10.342   3.748
61469W        W33784  27.536   1.925  13.541
61470W        W33785  12.343  19.164  12.522
61471W        W33786  40.501   4.230   3.341
61472W        W33787  27.576   3.867  14.419
61473W        W33788  26.025   4.395  14.875
61474W        W33789   6.406  42.487   1.346
61475W        W33790  37.949   8.683  14.482
61476W        W33791  11.300  10.274   0.254
61477W        W33792  27.517  41.868  11.471
61478W        W33793  34.517  18.066  11.457
61479W        W33794  26.039   4.211  13.390
61480W        W33795  25.608  16.793  14.841
61481W        W33796  41.385  13.165   0.811
61482W        W33797  34.878  44.318   5.206
61483W        W33798  40.419  42.026  14.975
61484W        W33799  13.210  18.191  14.373
61485W        W33800   7.731   2.910  12.089
61486W        W33801  23.513   1.762   2.304
61487W        W33802  44.987   7.332   4.192
61488W        W33803  27.571   2.783   3.736
61489W        W33804   9.344  11.175  10.488
61490W        W33805  13.748  27.013  10.596
61491W        W33806  30.165  16.235   4.707
61492W        W33807  23.588  28.564  13.822
61493W        W33808   8.819  20.043   1.746
61494W        W33809  11.638  39.050   0.795
61495W        W33810  42.495  44.778   3.711
61496W        W33811  31.552  23.182   0.376
61497W        W33812  22.046  43.370  12.428
61498W        W33813  39.947  21.597  14.327
61499W        W33814  29.431  31.139  12.982
61500W        W33815  31.405  43.804   1.382
61501W        W33816  25.054   7.681  10.916
61502W        W33817  27.544   2.895  12.542
61503W        W33818   6.699   7.295   1.929
61504W        W33819  38.504  23.609   0.347
61505W        W33820  23.117   0.788   1.258
61506W        W33821  28.038  27.450  12.407
61507W        W33822  32.079   6.922  13.491
61508W        W33823  40.391  15.587  11.976
61509W        W33824  19.080   5.772   0.755
61510W        W33825  22.696  37.543   4.822
61511W        W33826   2.924   6.403  12.931
61512W        W33827  36.997  23.590  11.957
61513W        W33828   3.355  23.598   2.773
61514W        W33829   8.193  23.169   1.868
61515W        W33830  21.107  33.874  14.903
61516W        W33831  13.254  25.512   4.786
61517W        W33832  37.573  13.228   2.747
61518W        W33833   4.739   7.281  10.896
61519W        W33834  13.747  36.975   2.355
61520W        W33835   4.293  39.897  14.008
61521W        W33836  32.495  22.641  13.446
61522W        W33837   0.252  11.128   3.720
61523W        W33838  12.672   2.357  14.436
61524W        W33839  38.530   9.873   3.713
61525W        W33840  21.142  38.977  12.377
61526W        W33841  31.072  38.821  13.843
61527W        W33842  34.931   7.874  11.873
61528W        W33843  34.036  23.652   1.278
61529W        W33844  36.542   2.335  13.494
61530W        W33845  31.428  38.007   4.758
61531W        W33846   2.730   1.291   2.732
61532W        W33847   0.294   1.373  13.447
61533W        W33848  25.491   9.770  13.934
61534W        W33849   5.790  10.342  14.358
61535W        W33850  34.517  42.284  13.389
61536W        W33851  32.471   2.755   0.768
61537W        W33852  16.304   9.805   3.229
61538W        W33853  25.052  41.993   4.339
61539W        W33854  16.192  32.486   3.161
61540W        W33855  33.911  11.328  14.926
61541W        W33856  32.632  12.332  13.807
61542W        W33857   3.358  37.842   1.875
61543W        W33858  21.205  12.208  11.531
61544W        W33859  32.576  42.028  13.024
61545W        W33860  44.818  26.561   4.200
61546W        W33861   8.406  39.486  12.889
61547W        W33862  29.643   8.842   0.961
61548W        W33863   0.361   2.733  12.570
61549W        W33864  21.735  29.582  14.001
61550W        W33865   6.407  23.186   2.216
61551W        W33866  16.810   9.346   3.333
61552W        W33867   0.273   1.415   3.738
61553W        W33868  31.610   7.850   2.340
61554W        W33869  29.651  42.828  14.354
61555W        W33870   4.303   1.426   0.406
61556W        W33871  23.729   4.831   4.306
61557W        W33872  29.941  32.537  11.503
61558W        W33873  21.081  44.898   1.777
61559W        W33874  14.102   5.391  13.407
61560W        W33875  43.374  44.446   4.125
61561W        W33876  36.849  18.648   1.801
61562W        W33877  43.917  34.463   2.333
61563W        W33878  22.062  41.348  13.392
61564W        W33879  41.963  10.657  13.901
61565W        W33880   6.429  44.448   0.456
61566W        W33881   1.330   0.309   3.868
61567W        W33882   6.718   3.849   1.817
61568W        W33883  41.472  33.978  10.450
61569W        W33884   1.324  30.971   2.351
61570W        W33885  39.900   9.685  11.596
61571W        W33886  18.161   6.681  14.904
61572W        W33887  35.028  33.506   5.158
61573W        W33888  39.872  23.998   1.843
61574W        W33889  21.643   4.716   1.447
61575W        W33890  37.038   0.387  12.947
61576W        W33891   3.751  42.994  13.507
61577W        W33892  11.718  38.338   3.375
61578W        W33893   6.712  43.766   3.669
61579W        W33894  28.933  42.982   2.806
61580W        W33895  10.810  28.650  14.492
61581W        W33896  42.421  12.296   1.841
61582W        W33897  36.841  13.777   4.147
61583W        W33898  33.045  31.073   2.757
61584W        W33899   1.734  40.310  13.338
61585W        W33900  10.342   6.698   0.912
61586W        W33901  10.310  36.081  13.806
61587W        W33902   6.279  31.475  11.051
61588W        W33903  32.439  33.920  14.309
61589W        W33904  33.076  23.526   1.904
61590W        W33905  42.506  16.144  10.472
61591W        W33906  21.036  25.191   1.930
61592W        W33907  34.950   8.236   4.697
61593W        W33908   5.732  33.396   2.876
61594W        W33909  41.860  15.289   1.860
61595W        W33910  28.620  42.455  14.487
61596W        W33911  16.651  16.305   2.294
61597W        W33912  28.067  38.341  10.980
61598W        W33913  20.663  14.233  11.907
61599W        W33914  36.914  40.868   2.872
61600W        W33915  18.643  22.239  12.918
61601W        W33916  16.738  28.064   0.958
61602W        W33917  15.238  19.723   4.134
61603W        W33918   3.388  32.113   4.754
61604W        W33919  40.323  25.093   5.287
61605W        W33920  35.566  12.752   1.814
61606W        W33921  29.488  13.344  11.519
61607W        W33922  38.487  40.981  11.519
61608W        W33923  20.057  26.013   1.840
61609W        W33924  34.377   3.457  11.534
61610W        W33925  16.126  32.612   1.862
61611W        W33926   6.878  30.141   0.852
61612W        W33927  17.178  14.221   4.197
61613W        W33928   9.336  18.547   1.402
61614W        W33929  20.099   2.899   2.715
61615W        W33930  31.004  43.798   4.120
61616W        W33931  13.158  12.340  13.524
61617W        W33932  24.723  34.566  12.945
61618W        W33933  15.220  43.014  10.534
61619W        W33934  19.181  15.779   3.269
61620W        W33935  38.551  39.370  10.442
61621W        W33936  44.836  26.985  14.398
61622W        W33937   2.289  15.624  11.943
61623W        W33938   3.950  16.800  10.575
61624W        W33939  17.695  15.302   1.713
61625W        W33940  39.874  42.840  12.560
61626W        W33941  21.246  14.197   1.366
61627W        W33942  13.845  20.092   4.668
61628W        W33943  17.644  10.193   1.905
61629W        W33944  38.910  17.780   1.297
61630W        W33945  25.015  27.147  12.339
61631W        W33946   3.790  25.546  11.875
61632W        W33947  27.106  19.635   3.235
61633W        W33948  30.124  41.328   4.120
61634W        W33949  24.021  38.013   2.352
61635W        W33950  26.111   0.352   1.845
61636W        W33951  16.614  27.148   3.196
61637W        W33952  41.824  15.165  14.906
61638W        W33953   3.283  31.127   2.750
61639W        W33954  29.512  10.633  12.920
61640W        W33955  34.603  37.370  12.444
61641W        W33956  25.672  12.801  14.830
61642W        W33957  30.969  36.965  12.996
61643W        W33958  28.474  30.980  12.036
61644W        W33959   5.240   3.251   0.774
61645W        W33960   7.832  31.137   3.718
61646W        W33961  32.491   9.384   3.659
61647W        W33962  17.181  31.044  11.609
61648W        W33963  24.560  16.641  12.522
61649W        W33964   1.376  29.643   3.683
61650W        W33965   7.841  12.173  12.092
61651W        W33966  41.944  28.457   4.254
61652W        W33967  31.103  23.672  10.480
61653W        W33968   7.710  43.963   2.337
61654W        W33969   2.831  24.989  11.956
61655W        W33970  41.409  26.592   2.780
61656W        W33971  42.025  18.549  14.280
61657W        W33972  27.074  40.834  14.301
61658W        W33973  25.689  27.175   3.818
61659W        W33974  26.958  19.707   0.475
61660W        W33975  43.017   3.246  10.045
61661W        W33976   6.725  40.851  14.893
61662W        W33977  32.435   2.945   4.743
61663W        W33978  24.585  43.430   0.377
61664W        W33979  27.608  10.316   4.601
61665W        W33980   0.801  41.389  10.020
61666W        W33981  42.954  10.208   2.359
61667W        W33982  25.635  22.150   1.372
61668W        W33983  22.116  22.170   9.467
61669W        W33984  42.441  12.731   4.179
61670W        W33985   3.788  31.512  10.615
61671W        W33986  30.975  39.556   4.605
61672W        W33987  11.362  17.795   4.155
61673W        W33988   4.768   9.780  14.349
61674W        W33989  27.489   8.290   0.350
61675W        W33990  23.489  38.507  12.493
61676W        W33991   6.256  12.706   0.789
61677W        W33992  10.739  13.736  11.528
61678W        W33993  34.429   3.355   1.356
61679W        W33994  40.385  22.124   0.864
61680W        W33995  29.944   6.892   1.776
61681W        W33996   4.443  44.384  11.391
61682W        W33997  19.680  41.961   0.742
61683W        W33998  21.656  41.988   1.416
61684W        W33999  14.224  37.936  11.876
61685W        W34000   6.846   0.848  13.316
61686W        W34001  40.447  20.538   0.905
61687W        W34002  13.737  34.053   2.255
61688W        W34003   9.180  32.075   3.236
61689W        W34004  42.482  27.151   0.860
61690W        W34005  11.749   2.357   1.292
61691W        W34006   1.780   4.320  13.862
61692W        W34007   2.768   5.228  11.592
61693W        W34008  23.574   4.251  11.611
61694W        W34009  29.084  29.047   2.271
61695W        W34010  38.490  44.825  11.479
61696W        W34011  13.787  41.931  11.936
61697W        W34012  26.564  43.899   1.696
61698W        W34013  25.080  44.779  11.057
61699W        W34014  36.588  35.405  12.571
61700W        W34015   4.281  26.605  14.759
61701W        W34016  12.358  39.428  13.815
61702W        W34017   4.395  36.400   3.698
61703W        W34018  44.982  22.081  12.356
61704W        W34019  36.014  30.520  12.880
61705W        W34020  17.108  34.479  12.079
61706W        W34021   7.686  21.201   0.869
61707W        W34022  39.814  23.671   4.140
61708W        W34023  17.103  22.580   0.885
61709W        W34024  21.695   7.277  11.936
61710W        W34025  39.919  34.869  14.331
61711W        W34026  30.519  44.804  14.368
61712W        W34027  30.618  19.103  11.907
61713W        W34028  30.603   2.468   2.861
61714W        W34029  20.589  13.160  12.505
61715W        W34030  28.118   5.858   1.703
61716W        W34031   6.906  43.465  13.867
61717W        W34032  44.337   2.865  10.018
61718W        W34033  42.001  10.224  14.455
61719W        W34034   8.772  23.623   9.984
61720W        W34035  33.440  29.126   2.867
61721W        W34036  15.805  24.609  12.560
61722W        W34037  31.064  13.246   4.341
61723W        W34038  12.126  21.243   0.397
61724W        W34039  24.075   1.337  14.424
61725W        W34040  19.174  22.630   3.720
61726W        W34041   9.793  20.676   1.226
61727W        W34042  42.470  12.629   4.639
61728W        W34043  22.534   7.866  10.916
61729W        W34044  33.081   6.824   4.230
61730W        W34045  41.341   3.216   4.324
61731W        W34046  11.180  15.091   2.320
61732W        W34047  36.531  43.274   2.774
61733W        W34048  36.404  16.213   3.310
61734W        W34049  10.726   5.782   4.350
61735W        W34050  38.491  30.990   0.854
61736W        W34051  30.004  12.672   3.169
61737W        W34052  44.437  34.904   3.302
61738W        W34053  23.661  18.588  13.898
61739W        W34054  38.896  18.684   3.227
61740W        W34055  16.215  32.457   4.664
61741W        W34056  43.924  17.266  13.890
61742W        W34057   0.895  11.816  11.454
61743W        W34058  29.498  30.097   0.755
61744W        W34059  20.668   9.889   5.777
61745W        W34060  30.500   0.373   2.251
61746W        W34061  41.033  11.768  13.394
61747W        W34062   9.659  40.019   3.699
61748W        W34063   3.370  18.767  13.533
61749W        W34064   1.450  31.437  13.336
61750W        W34065   7.768   0.778   3.177
61751W        W34066  38.030   6.347  10.112
61752W        W34067  10.782   7.876   1.277
61753W        W34068  10.265  36.070   2.288
61754W        W34069   1.885  25.128   4.828
61755W        W34070  20.528  21.564   1.844
61756W        W34071  14.155  31.010   2.736
61757W        W34072   9.876  32.532  12.563
61758W        W34073  29.017  16.731  13.495
61759W        W34074  11.668   4.806   2.894
61760W        W34075  38.448  21.701  11.419
61761W        W34076  40.394  11.724  14.301
61762W        W34077   2.276  14.800  10.991
61763W        W34078  40.534   0.271  12.488
61764W        W34079   6.233   9.296   1.390
61765W        W34080  11.776  44.831  12.054
61766W        W34081  33.980  39.052  13.037
61767W        W34082  30.533  27.605  14.410
61768W        W34083  12.789   9.803  11.025
61769W        W34084  40.962  21.551   3.352
61770W        W34085  19.707  29.531  12.371
61771W        W34086  43.889  12.642   3.383
61772W        W34087  11.847  40.988  12.893
61773W        W34088  39.420  28.067  13.032
61774W        W34089  14.621  29.450  11.553
61775W        W34090   9.221  42.333  14.275
61776W        W34091  32.520  24.561   2.410
61777W        W34092  11.670  18.079  13.482
61778W        W34093  34.037  10.876   3.189
61779W        W34094  41.862  24.990   1.410
61780W        W34095  12.312   4.376  11.889
61781W        W34096  13.829  21.645   3.294
61782W        W34097  33.431  37.939  12.846
61783W        W34098  26.639   6.678   9.439
61784W        W34099  25.019  16.122  12.060
61785W        W34100  43.862  43.845  14.902
61786W        W34101  11.314  31.404   0.275
61787W        W34102   1.884  10.372  11.033
61788W        W34103  15.175  18.276  10.974
61789W        W34104   9.299   6.298  14.821
61790W        W34105  26.062   0.816  12.910
61791W        W34106   9.190  35.925   4.221
61792W        W34107   7.703  20.661  12.415
61793W        W34108  24.115  41.994  14.301
61794W        W34109  15.321  15.750   1.303
61795W        W34110  13.616   1.912   1.771
61796W        W34111  11.681  21.743   4.624
61797W        W34112  36.938  29.076  13.440
61798W        W34113  11.713  32.622  14.010
61799W        W34114   6.385  25.025  10.436
61800W        W34115  10.375  42.977   4.291
61801W        W34116   1.839  42.917   1.791
61802W        W34117  12.221  18.103  12.988
61803W        W34118  15.322   5.402   0.760
61804W        W34119  19.710  24.185  14.423
61805W        W34120  12.276  39.405  14.821
61806W        W34121  42.353  16.172  11.452
61807W        W34122  12.119   9.273   1.412
61808W        W34123   4.717  23.030   3.632
61809W        W34124  41.354  30.132  13.475
61810W        W34125  18.111  31.142   1.303
61811W        W34126  13.742  25.565   0.369
61812W        W34127   0.346  17.792  10.468
61813W        W34128  12.760  29.629  10.976
61814W        W34129   2.354  41.508  12.515
61815W        W34130  25.559   5.777  13.926
61816W        W34131  10.690  29.120  13.001
61817W        W34132  33.043  13.802  13.538
61818W        W34133   1.244  26.987  10.910
61819W        W34134  18.115  12.639  13.477
61820W        W34135  32.488  31.944  11.443
61821W        W34136   1.804  34.029   3.183
61822W        W34137  30.940  42.314  10.613
61823W        W34138  18.677  35.925  12.862
61824W        W34139  22.063  32.411   0.353
61825W        W34140  30.043   8.810   0.437
61826W        W34141  15.606  33.546   2.730
61827W        W34142   5.701  28.165  11.007
61828W        W34143  22.671  33.923   3.192
61829W        W34144  20.642   5.829   2.819
61830W        W34145  11.826  21.602   3.720
61831W        W34146  13.221   5.315  10.438
61832W        W34147  41.957   8.363   2.813
61833W        W34148  14.604   0.881   1.829
61834W        W34149   5.215  29.934  12.408
61835W        W34150   7.241  37.385  11.912
61836W        W34151  36.036   4.915  10.933
61837W        W34152  21.108  15.639  12.429
61838W        W34153  33.118  20.039   1.266
61839W        W34154  41.304  18.232   3.711
61840W        W34155  43.433  18.292   4.341
61841W        W34156   0.467  16.616  12.993
61842W        W34157  33.911  13.208   4.141
61843W        W34158  35.933  15.680   2.717
61844W        W34159   1.392  22.170  13.449
61845W        W34160  37.357  16.255   0.417
61846W        W34161  40.911  13.129   0.327
61847W        W34162  34.579  25.470  11.529
61848W        W34163  39.917  41.523   0.734
61849W        W34164  10.159  10.180  10.155
61850W        W34165   4.380  30.656   3.673
61851W        W34166  18.573  18.589  11.459
61852W        W34167  39.432   1.899   3.377
61853W        W34168   9.848  37.392   1.231
61854W        W34169  41.496  39.036  12.993
61855W        W34170  16.687  26.131  11.045
61856W        W34171  29.083   0.424  13.058
61857W        W34172  23.529  15.820   4.601
61858W        W34173  32.896  26.504   1.725
61859W        W34174  29.110  13.846   3.656
61860W        W34175   9.163  13.778  11.469
61861W        W34176  38.373  14.134   2.753
61862W        W34177  34.998   5.392   0.366
61863W        W34178  16.290  44.888  12.091
61864W        W34179   2.404  20.616   1.748
61865W        W34180   6.338   2.940  12.987
61866W        W34181  10.690  21.660   0.901
61867W        W34182  18.582   7.821   1.394
61868W        W34183  11.702  25.184   1.409
61869W        W34184  33.002   9.814  13.889
61870W        W34185  29.020  27.537   1.352
61871W        W34186  42.361  29.952  12.952
61872W        W34187  22.165  40.359  14.984
61873W        W34188   2.299  35.558   0.809
61874W        W34189  10.193  30.947   2.850
61875W        W34190  31.648  20.561   1.847
61876W        W34191  33.068  44.840  12.006
61877W        W34192  15.803  15.235  13.324
61878W        W34193  19.690  28.487   0.825
61879W        W34194  21.081  44.419   2.204
61880W        W34195  30.573   9.290   0.918
61881W        W34196  17.575  36.087  10.933
61882W        W34197  10.253  23.605   9.927
61883W        W34198   8.690  10.262  12.829
61884W        W34199  29.563   4.434  10.939
61885W        W34200   6.685  37.420   2.827
61886W        W34201  13.707  32.015  12.017
61887W        W34202  35.541  15.767  14.950
61888W        W34203   5.895  23.618  13.465
61889W        W34204  26.037  12.697   2.697
61890W        W34205  10.740  16.660  12.431
61891W        W34206   6.724  17.283   2.732
61892W        W34207  16.268  30.621  12.921
61893W        W34208  32.442   4.858  11.102
61894W        W34209  24.638  19.719  13.861
61895W        W34210  33.471  33.562   1.898
61896W        W34211  31.426  19.228  10.422
61897W        W34212   7.743  39.367   2.690
61898W        W34213  12.184  28.637   3.683
61899W        W34214   7.404  24.121   0.344
61900W        W34215   5.806   0.466  12.087
61901W        W34216  12.272  20.220   0.243
61902W        W34217   8.234  39.947   4.320
61903W        W34218  30.154   7.738  13.390
61904W        W34219  23.556  19.749   5.201
61905W        W34220  29.941  44.813   0.839
61906W        W34221  42.845  41.845   4.664
61907W        W34222   6.880  13.151   4.337
61908W        W34223  26.510  12.359   4.744
61909W        W34224  32.030  36.494  14.315
61910W        W34225  42.927  11.274  13.332
61911W        W34226  36.973   0.391  11.990
61912W        W34227   7.749  21.065   4.148
61913W        W34228  20.698  33.447   2.774
61914W        W34229   2.800  31.543  12.020
61915W        W34230  23.988  11.134   4.707
61916W        W34231  21.053  10.352  14.464
61917W        W34232   3.802   7.181  10.581
61918W        W34233  19.639  12.735  14.976
61919W        W34234  30.957  26.180   1.853
61920W        W34235  27.960   2.946  14.823
61921W        W34236  22.239   5.774  10.509
61922W        W34237  40.834  23.519  10.533
61923W        W34238   2.343  31.639   2.258
61924W        W34239  39.476  10.155   2.322
61925W        W34240  19.221  23.092  11.862
61926W        W34241  18.588  41.376  10.888
61927W        W34242  37.059  19.719  14.775
61928W        W34243  21.584  32.519  11.492
61929W        W34244  32.409  34.916   3.714
61930W        W34245  34.008  12.831  10.954
61931W        W34246   8.901  19.721  13.516
61932W        W34247   3.901   1.733  12.978
61933W        W34248  29.082  13.658  11.987
61934W        W34249  29.579  31.516  13.059
61935W        W34250  44.852  13.218   4.791
61936W        W34251  14.756   5.718   3.193
61937W        W34252  10.763  11.283  12.516
61938W        W34253  17.118  24.096   2.881
61939W        W34254  36.873  12.201   0.427
61940W        W34255  15.623  26.499   0.873
61941W        W34256   1.804  43.312   2.874
61942W        W34257   4.265  23.614   0.807
61943W        W34258  35.865  24.034  14.281
61944W        W34259  27.672  39.931   1.835
61945W        W34260  38.571  36.046  10.577
61946W        W34261  17.656  22.558   2.764
61947W        W34262  42.896  39.394  12.866
61948W        W34263  37.357  30.103  12.419
61949W        W34264   0.856  36.356   9.531
61950W        W34265   0.889  17.184  13.425
61951W        W34266  21.582   3.749   1.430
61952W        W34267  22.123   6.249  11.408
61953W        W34268  23.585  43.432   0.358
61954W        W34269  28.131  42.319   4.238
61955W        W34270  28.166  24.593  14.975
61956W        W34271   1.339  16.282   4.263
61957W        W34272  20.050  34.027  14.466
61958W        W34273   6.429  14.833  11.005
61959W        W34274  20.072  44.318   3.374
61960W        W34275  20.051  26.135  13.495
61961W        W34276  36.008  19.747  13.411
61962W        W34277  43.474  33.078  13.030
61963W        W34278   4.704  31.563  14.362
61964W        W34279   3.358  25.507  13.898
61965W        W34280  18.232  10.663   3.856
61966W        W34281  17.558  22.218   0.804
61967W        W34282  11.297   0.358   0.818
61968W        W34283  11.752  28.441   4.605
61969W        W34284  12.352  35.367   0.472
61970W        W34285  35.361  38.421  11.552
61971W        W34286  21.671  34.965   3.863
61972W        W34287  28.501  26.564  13.311
61973W        W34288  39.389  35.551   2.210
61974W        W34289  39.026  23.620  12.482
61975W        W34290   5.849  20.103  12.984
61976W        W34291  16.579  17.791  12.429
61977W        W34292  38.934   4.735   1.697
61978W        W34293   4.775   8.711  10.601
61979W        W34294   0.479   9.658   1.428
61980W        W34295   6.728  10.159  13.326
61981W        W34296  38.023  21.109   2.895
61982W        W34297  25.651  38.051   1.334
61983W        W34298  44.768  28.932  12.415
61984W        W34299  23.702  17.707  14.402
61985W        W34300  43.956  43.823  12.373
61986W        W34301   7.894  30.019   3.812
61987W        W34302  21.718  34.581  12.532
61988W        W34303  36.911  39.901  10.937
61989W        W34304  22.739   0.391  11.455
61990W        W34305  32.990  10.864   1.324
61991W        W34306  32.889  16.640   4.171
61992W        W34307  18.077  25.053   0.246
61993W        W34308   4.774   5.828   4.748
61994W        W34309  28.573  16.272  14.453
61995W        W34310  27.574  28.932   1.875
61996W        W34311  13.830   8.724  13.541
61997W        W34312  39.049  20.205   2.876
61998W        W34313  22.585  29.010  13.025
61999W        W34314   6.284  33.021   1.865
62000W        W34315   1.951  25.588   2.384
62001W        W34316   6.859  18.199   3.765
62002W        W34317  42.323   3.890  14.015
62003W        W34318  31.530   1.386  10.458
62004W        W34319  41.497  11.268   2.882
62005W        W34320  26.989  31.132   4.278
62006W        W34321  25.624  15.130  14.499
62007W        W34322  25.605  21.666   5.138
62008W        W34323   3.751  24.493  11.866
62009W        W34324  31.040  16.223   3.353
62010W        W34325  12.349  21.029   2.314
62011W        W34326  34.913  40.495  14.925
62012W        W34327  41.923  27.536   1.321
62013W        W34328  32.935   0.445  14.759
62014W        W34329  31.029  25.100   2.681
62015W        W34330  16.148  33.952  11.012
62016W        W34331  30.533   4.382  14.340
62017W        W34332   9.211  24.094   4.327
62018W        W34333  10.750   8.873   2.406
62019W        W34334   1.820   6.704  13.349
62020W        W34335  33.106  19.175  12.375
62021W        W34336  44.989  10.379  12.847
62022W        W34337   5.423  19.166  10.937
62023W        W34338  13.204   6.758   2.881
62024W        W34339   6.835  38.403  13.310
62025W        W34340   4.410  29.996   0.922
62026W        W34341   6.685  11.734   3.790
62027W        W34342   6.265  44.899  13.323
62028W        W34343  14.309   9.271   2.238
62029W        W34344  17.303   3.778  10.981
62030W        W34345  28.154  22.215  14.782
62031W        W34346  15.223  27.519  12.964
62032W        W34347  13.742   0.456   4.317
62033W        W34348  40.355  28.941  11.025
62034W        W34349  27.462  39.026  13.819
62035W        W34350   7.175  17.647  13.446
62036W        W34351  31.563   1.407  12.032
62037W        W34352  36.450  16.636  12.464
62038W        W34353  34.098  38.875  14.863
62039W        W34354  40.929  34.915  14.928
62040W        W34355  14.749  21.259   0.321
62041W        W34356  39.493  31.901   3.161
62042W        W34357  29.539  40.501  13.906
62043W        W34358  13.735   5.907  13.841
62044W        W34359  23.727   0.250  13.990
62045W        W34360  15.302  15.253   1.314
62046W        W34361  35.437  32.993  10.408
62047W        W34362  35.086  40.808  13.881
62048W        W34363   7.296  38.332   3.157
62049W        W34364  38.361  44.807  12.566
62050W        W34365   4.768  36.864  10.019
62051W        W34366   5.864  16.580  11.479
62052W        W34367  44.879  22.219  11.050
62053W        W34368  43.802  16.114  13.389
62054W        W34369  35.406  12.347   0.913
62055W        W34370   5.207  37.876  14.964
62056W        W34371  37.569  36.468   4.833
62057W        W34372  24.665   7.330  13.314
62058W        W34373  37.569   4.853  12.517
62059W        W34374   1.430  36.384  14.344
62060W        W34375   0.266   7.795  11.442
62061W        W34376  34.915  20.161   3.230
62062W        W34377   8.186  27.963   0.346
62063W        W34378  23.605  26.193   4.158
62064W        W34379  43.409   7.411  12.070
62065W        W34380  18.257  30.631   2.725
62066W        W34381  19.285  10.345  14.339
62067W        W34382  33.541   8.761   1.872
62068W        W34383  22.240  33.987   1.766
62069W        W34384  15.639  37.983  12.373
62070W        W34385  22.605  13.825  11.501
62071W        W34386   9.363   6.256  13.314
62072W        W34387  36.392   7.380  13.997
62073W        W34388  40.973  25.662  13.428
62074W        W34389   6.698  33.420  12.528
62075W        W34390  13.310  32.937   2.386
62076W        W34391   3.256  21.041   4.291
62077W        W34392  40.528  30.031  11.097
62078W        W34393  23.196  21.260   2.726
62079W        W34394  33.935  41.826   2.690
62080W        W34395  36.860  30.087   2.300
62081W        W34396  18.157  22.605  13.911
62082W        W34397  39.512  10.297   2.834
62083W        W34398  13.271   3.737  13.823
62084W        W34399  44.942  39.529  10.425
62085W        W34400  25.519  40.363  12.852
62086W        W34401   0.762  31.618  13.507
62087W        W34402  11.829  20.734  11.527
62088W        W34403  27.139  21.227   4.150
62089W        W34404  41.331  29.982   0.771
62090W        W34405  28.930   8.871   3.649
62091W        W34406  36.879  44.974   2.181
62092W        W34407  44.263  40.946  13.311
62093W        W34408  41.309  39.328  13.794
62094W        W34409  25.487  33.107   2.409
62095W        W34410  12.235   6.831  14.305
62096W        W34411   2.318   7.354   4.173
62097W        W34412  11.786  24.033  12.899
62098W        W34413  40.988  21.225   1.299
62099W        W34414   3.348   8.385  12.979
62100W        W34415  34.065   6.920   3.358
62101W        W34416  30.603   5.220  12.946
62102W        W34417  38.927  26.460   0.364
62103W        W34418   2.742  31.501  12.865
62104W        W34419  20.046  30.991  13.807
62105W        W34420   9.327  44.442  10.476
62106W        W34421   1.479  31.018   4.279
62107W        W34422  38.034  40.394  11.113
62108W        W34423  21.251  36.425  13.385
62109W        W34424  15.627   8.344  10.606
62110W        W34425  13.190  28.454   4.229
62111W        W34426  30.977   4.822   2.733
62112W        W34427  11.797  43.466   3.740
62113W        W34428  29.992  43.363   3.336
62114W        W34429  33.076   8.299   2.286
62115W        W34430  25.694  12.642   1.359
62116W        W34431   5.428  25.154   4.153
62117W        W34432  33.398  11.142   1.852
62118W        W34433  39.032   5.245  14.024
62119W        W34434  19.061  17.209   3.212
62120W        W34435  38.866  20.216  14.967
62121W        W34436  13.211  15.689  14.863
62122W        W34437  22.224  28.047   4.792
62123W        W34438   6.273  13.260   2.884
62124W        W34439  42.989   0.269  10.109
62125W        W34440  22.034  37.377  14.935
62126W        W34441   6.742  34.008  14.300
62127W        W34442  21.569  27.477   4.633
62128W        W34443  14.791  16.181   2.182
62129W        W34444  22.242   7.369  14.829
62130W        W34445   9.171  29.633  10.157
62131W        W34446  43.841  38.995   4.641
62132W        W34447  30.086  43.915   3.335
62133W        W34448  35.883   1.368   3.631
62134W        W34449  16.737  28.005  13.533
62135W        W34450  31.997  21.066  10.019
62136W        W34451  21.260  31.899  10.431
62137W        W34452  11.623  34.442   3.273
62138W        W34453  13.134  29.097  12.848
62139W        W34454  42.317  42.505  12.849
62140W        W34455   3.393  38.927   3.276
62141W        W34456  16.113  26.561  13.429
62142W        W34457  36.046  26.028   3.161
62143W        W34458   0.423  18.214   0.833
62144W        W34459   2.919   2.344   0.779
62145W        W34460  18.070  14.755   4.788
62146W        W34461   9.199  26.591  10.124
62147W        W34462  15.747  40.042   1.896
62148W        W34463  15.768  20.539   2.184
62149W        W34464  34.026  15.327  12.523
62150W        W34465  27.668  20.671   3.665
62151W        W34466  29.513  11.260   2.723
62152W        W34467  35.437  24.979   3.677
62153W        W34468  18.751  10.860   9.639
62154W        W34469  34.419   1.959  11.485
62155W        W34470  41.485   5.860  14.800
62156W        W34471  26.130   4.871   4.826
62157W        W34472  34.606  39.986  10.921
62158W        W34473   0.978   2.729  11.441
62159W        W34474  23.062  16.580   2.674
62160W        W34475  11.633  35.374   4.309
62161W        W34476  43.824  34.404  13.805
62162W        W34477  16.715  21.092   3.806
62163W        W34478  23.987  34.556   0.916
62164W        W34479  29.974  21.553   4.116
62165W        W34480  38.016  10.742  13.881
62166W        W34481  17.140  43.318  13.866
62167W        W34482  44.459  28.511  12.867
62168W        W34483   1.779  16.792  14.434
62169W        W34484  32.987  21.513  11.462
62170W        W34485  18.550  20.749  14.328
62171W        W34486  42.502  39.553  14.278
62172W        W34487  26.520  39.921  10.101
62173W        W34488  37.493  36.357   3.650
62174W        W34489  42.495  36.069  11.981
62175W        W34490  17.290   0.464   0.844
62176W        W34491  29.493  18.574   1.308
62177W        W34492  25.714  36.486   4.676
62178W        W34493  15.712   3.726   9.929
62179W        W34494  39.826  13.185  14.377
62180W        W34495  44.380  29.008   1.832
62181W        W34496  15.804  33.040  12.492
62182W        W34497  35.068  31.090   2.745
62183W        W34498  39.507  13.324  10.928
62184W        W34499  28.457  26.631  14.021
62185W        W34500  19.194   7.406   3.304
62186W        W34501  24.672  23.640  10.468
62187W        W34502  24.568  17.705  14.783
62188W        W34503  36.086  11.828   1.355
62189W        W34504  13.690  16.761  11.124
62190W        W34505  26.195  39.502   2.267
62191W        W34506  31.521  42.916   0.367
62192W        W34507  18.790  42.281   3.372
62193W        W34508  26.465  13.295  10.635
62194W        W34509  18.246  28.592  14.933
62195W        W34510   5.302  31.602   4.268
62196W        W34511  32.575   5.751  13.514
62197W        W34512   5.768   3.900   4.305
62198W        W34513   1.789  11.798  13.007
62199W        W34514  20.582  16.162  14.432
62200W        W34515  39.323  43.933  12.412
62201W        W34516  40.403  35.483   0.383
62202W        W34517  32.420  11.180   2.242
62203W        W34518  12.314  41.457   2.351
62204W        W34519  17.249   9.285   9.966
62205W        W34520  31.081  20.530  10.991
62206W        W34521  22.623  15.726   4.788
62207W        W34522  28.657  12.678   2.737
62208W        W34523   2.877  24.048   4.306
62209W        W34524  35.522  24.683   2.718
62210W        W34525  15.790  43.353  12.825
62211W        W34526  44.453  42.423   0.810
62212W        W34527   9.835  22.210  14.864
62213W        W34528  22.693   0.492  13.923
62214W        W34529  21.090   0.422   1.301
62215W        W34530  38.054  38.864  14.813
62216W        W34531  39.507  30.160  10.485
62217W        W34532  27.001  24.225  11.384
62218W        W34533  23.554  11.194  11.426
62219W        W34534   9.800  29.172  13.002
62220W        W34535  14.785   2.768   1.791
62221W        W34536  31.072   3.232  14.837
62222W        W34537  21.737   2.311   3.692
62223W        W34538   1.837  23.031  11.945
62224W        W34539   7.214  16.248  10.907
62225W        W34540  23.497  31.940  12.567
62226W        W34541  14.195  30.147  10.535
62227W        W34542  18.220  34.085   4.206
62228W        W34543  16.728  32.976  13.828
62229W        W34544  10.238  35.544   1.242
62230W        W34545  14.123  30.136   0.777
62231W        W34546  42.876   6.424   0.912
62232W        W34547  31.476  19.551  13.996
62233W        W34548   9.377   4.258   3.647
62234W        W34549  23.090  10.258  10.611
62235W        W34550  11.255  32.120  11.960
62236W        W34551  27.107   4.431   2.329
62237W        W34552  15.283  22.131   1.235
62238W        W34553  25.102   6.879  12.403
62239W        W34554  32.032  42.780  10.018
62240W        W34555  13.803  22.078  10.639
62241W        W34556  38.074   9.670   4.672
62242W        W34557  27.093  26.150  11.881
62243W        W34558  16.773  23.515   4.700
62244W        W34559  18.101   9.723   1.834
62245W        W34560  21.730  19.130  10.580
62246W        W34561  39.345  11.294   1.225
62247W        W34562   7.796  11.639   2.709
62248W        W34563  42.015  16.577  11.386
62249W        W34564  44.280  22.105   1.328
62250W        W34565   9.731  32.909   0.315
62251W        W34566  13.110  35.463  14.985
62252W        W34567  32.948   8.783  14.479
62253W        W34568  23.213  35.495   3.387
62254W        W34569  34.526  15.142   1.232
62255W        W34570  22.133   3.245   2.756
62256W        W34571  25.186  15.589  11.006
62257W        W34572  43.805   9.323  14.865
62258W        W34573  42.283   1.966  12.892
62259W        W34574   7.698  26.590  11.511
62260W        W34575   8.317   4.397   2.873
62261W        W34576  11.666   0.484  13.974
62262W        W34577  24.086  18.715   3.305
62263W        W34578  24.562  36.872  13.850
62264W        W34579  40.463  25.145  13.328
62265W        W34580  21.038  26.497  12.513
62266W        W34581   0.960  29.163   4.351
62267W        W34582   5.340   8.234   1.335
62268W        W34583  40.416  38.929  13.515
62269W        W34584  22.603  26.601  13.492
62270W        W34585   2.411   4.364  11.557
62271W        W34586  14.746   0.381   4.323
62272W        W34587  22.677   8.406   0.287
62273W        W34588   4.269  38.536  11.431
62274W        W34589   5.714  43.326  14.910
62275W        W34590  28.545  34.409  12.498
62276W        W34591   9.666  26.466   2.189
62277W        W34592  12.802  40.852   4.165
62278W        W34593  33.073  24.641  13.970
62279W        W34594  28.081  32.060  14.475
62280W        W34595  44.451  42.888   4.618
62281W        W34596  21.215  43.804   0.419
62282W        W34597  10.828  13.169  14.306
62283W        W34598   0.769  21.178  13.060
62284W        W34599  14.699   2.287   0.395
62285W        W34600   9.266  14.629   2.734
62286W        W34601  42.383   2.809   4.650
62287W        W34602   3.402  41.832   0.912
62288W        W34603  10.221  35.466  14.845
62289W        W34604  12.637  35.945  11.379
62290W        W34605  38.448   7.352   4.755
62291W        W34606  42.965  35.423  11.432
62292W        W34607  32.983  44.808   3.325
62293W        W34608   3.808  39.058  10.447
62294W        W34609  16.182  23.020  13.431
62295W        W34610  15.259   3.836   0.793
62296W        W34611  21.591  44.259   1.396
62297W        W34612  18.219  40.400  11.910
62298W        W34613  41.929  36.897   1.281
62299W        W34614  36.359  27.022  14.506
62300W        W34615  23.571   6.837   2.268
62301W        W34616  17.773   6.745  12.899
62302W        W34617  33.454  23.516   0.393
62303W        W34618   1.738  30.046  12.376
62304W        W34619  34.511  22.249  14.429
62305W        W34620  11.158  41.377  14.003
62306W        W34621  13.209  23.640   4.327
62307W        W34622  29.661  10.185   3.383
62308W        W34623  33.954  24.681   0.341
62309W        W34624   1.355  41.493   3.286
62310W        W34625   4.385  19.260  13.846
62311W        W34626   8.852  17.098  11.073
62312W        W34627  19.131  13.330  13.903
62313W        W34628  15.177  12.245   2.213
62314W        W34629  44.909  17.170   2.813
62315W        W34630  24.089  11.707  11.543
62316W        W34631  29.079  41.452  11.402
62317W        W34632   5.910  33.539   2.205
62318W        W34633  40.819  16.610   0.791
62319W        W34634   8.744  14.199  12.410
62320W        W34635   3.752  34.974   1.737
62321W        W34636   6.314   1.965  12.086
62322W        W34637  20.552   8.701  13.847
62323W        W34638  31.528   8.762  12.385
62324W        W34639  22.009  38.512   3.170
62325W        W34640   4.224  40.377  11.513
62326W        W34641   6.827  33.479  14.925
62327W        W34642  42.825  43.885   1.705
62328W        W34643   4.401  41.297  13.370
62329W        W34644   1.264   7.363   4.124
62330W        W34645  26.072  11.219  12.349
62331W        W34646  23.532  13.178  14.835
62332W        W34647  14.138  24.487   0.782
62333W        W34648  32.109  41.973   2.826
62334W        W34649  44.321  13.351  14.885
62335W        W34650  14.312  22.655   1.929
62336W        W34651  44.971  15.283  13.905
62337W        W34652   5.426  39.544   0.482
62338W        W34653   5.785  34.558  14.353
62339W        W34654  31.492  21.173  14.984
62340W        W34655   9.341  32.091   1.705
62341W        W34656  23.163  44.272  12.962
62342W        W34657  19.661  33.050  14.795
62343W        W34658  22.084  20.604  13.520
62344W        W34659  14.230  24.093   2.726
62345W        W34660  19.241  31.921   1.427
62346W        W34661   3.394  18.155  12.934
62347W        W34662  38.352  14.121   2.372
62348W        W34663  10.811   7.209   0.270
62349W        W34664  20.035   1.863  11.077
62350W        W34665  29.462  11.625  14.341
62351W        W34666  19.040  14.314  14.809
62352W        W34667  10.682  42.385   1.893
62353W        W34668  26.178  40.798   4.765
62354W        W34669  43.358  20.629   3.713
62355W        W34670  42.328  41.531   2.902
62356W        W34671   4.854   2.858   1.727
62357W        W34672  10.337   9.792  14.487
62358W        W34673  41.913  11.702  10.601
62359W        W34674   7.768  27.118   1.261
62360W        W34675   7.249  26.701   9.923
62361W        W34676  27.164  32.430  12.831
62362W        W34677  35.394  20.595  14.345
62363W        W34678   0.466  34.965   3.753
62364W        W34679  18.678  25.070   1.327
62365W        W34680   1.865   0.259  14.364
62366W        W34681  28.574  42.425   2.847
62367W        W34682  15.199   6.335   0.853
62368W        W34683  21.581  18.784  12.464
62369W        W34684  21.527  35.949   3.811
62370W        W34685  13.708  24.019  14.785
62371W        W34686   6.743   3.893  13.390
62372W        W34687  40.463  22.135   4.757
62373W        W34688  23.529   4.272  13.313
62374W        W34689  44.008  34.929   0.338
62375W        W34690   0.327  43.424   1.731
62376W        W34691   5.392  40.048  14.511
62377W        W34692  17.777  13.730  13.460
62378W        W34693  19.550  44.810   0.456
62379W        W34694  35.407   5.346   1.431
62380W        W34695  33.912  38.454  13.959
62381W        W34696  42.459  34.505   2.259
62382W        W34697   3.311   3.823   1.814
62383W        W34698  41.967  30.591   3.370
62384W        W34699  27.032  35.360   3.711
62385W        W34700   1.741  41.985   0.482
62386W        W34701  34.525  42.310   3.870
62387W        W34702  42.982  14.200   3.745
62388W        W34703  21.030  14.299   4.703
62389W        W34704   2.308  38.346   2.709
62390W        W34705   6.842  25.584   4.224
62391W        W34706   5.787   3.888   0.289
62392W        W34707  23.022  37.856  12.472
62393W        W34708  40.901  28.624   2.228
62394W        W34709  15.596   8.701   0.422
62395W        W34710  19.723   0.883   4.636
62396W        W34711   4.925   0.251   3.843
62397W        W34712  12.730  27.010  11.414
62398W        W34713  17.712  20.748   0.859
62399W        W34714  33.129  27.621   0.321
62400W        W34715   0.776  33.489   0.247
62401W        W34716  43.017  24.578   2.336
62402W        W34717  43.975  27.512  11.473
62403W        W34718  41.458  29.031  10.482
62404W        W34719  20.235  34.043   2.666
62405W        W34720  24.571   4.807   4.664
62406W        W34721  22.160   1.762   4.330
62407W        W34722  35.485  14.112   0.947
62408W        W34723   6.860   1.424   1.300
62409W        W34724  37.344  13.289   0.947
62410W        W34725  17.118  41.412  13.458
62411W        W34726  23.552   9.772   1.398
62412W        W34727  42.378  19.145  12.987
62413W        W34728  31.432  17.130   2.887
62414W        W34729   8.846  27.130  11.046
62415W        W34730  38.434  22.125   0.306
62416W        W34731   7.216   1.761  10.911
62417W        W34732  37.461  13.313  13.925
62418W        W34733   5.287  44.366  13.510
62419W        W34734  24.026  32.128   1.791
62420W        W34735   4.426  16.618  11.910
62421W        W34736  21.216  28.510  10.640
62422W        W34737   1.288  35.358  14.453
62423W        W34738  21.024  32.969   2.396
62424W        W34739  19.057  16.809  10.441
62425W        W34740  14.730  31.950   0.745
62426W        W34741  39.351  22.645   3.635
62427W        W34742  30.472   5.825  13.946
62428W        W34743   4.336  25.132   4.322
62429W        W34744  11.726  17.202   3.155
62430W        W34745   8.867  11.146  12.572
62431W        W34746  32.929  28.465   2.241
62432W        W34747  39.012  37.939  10.450
62433W        W34748  33.056  27.645   2.769
62434W        W34749   2.426  27.180   3.193
62435W        W34750  30.982  17.781   0.298
62436W        W34751  13.343   7.369   3.147
62437W        W34752  22.671  28.043  12.034
62438W        W34753  12.697   0.797   1.284
62439W        W34754  33.513  42.945   2.887
62440W        W34755  22.503   2.342  11.032
62441W        W34756  12.799   5.201  14.895
62442W        W34757  29.091  29.628   3.178
62443W        W34758   5.869  36.916  12.407
62444W        W34759  16.081  41.914  11.384
62445W        W34760  25.520  32.526  12.445
62446W        W34761  13.200  38.554  12.397
62447W        W34762  34.926   9.750  13.054
62448W        W34763  29.073  32.439   3.825
62449W        W34764  19.242  40.955  14.023
62450W        W34765  13.211  10.269  11.592
62451W        W34766   3.414  19.226  12.443
62452W        W34767   8.658  32.423   0.916
62453W        W34768   3.294  28.956   4.251
62454W        W34769  10.332  32.421   0.395
62455W        W34770  35.560  29.943   0.441
62456W        W34771  43.977  42.850  13.064
62457W        W34772  36.391  44.457   3.759
62458W        W34773  26.976  14.148  11.063
62459W        W34774  25.713  38.973   4.306
62460W        W34775  11.743  22.549   0.264
62461W        W34776  44.277  36.434  10.155
62462W        W34777  41.843  26.481  10.145
62463W        W34778  40.983  22.143  14.793
62464W        W34779  30.420  25.166   0.430
62465W        W34780   4.277  10.298   0.949
62466W        W34781  14.634  40.041   0.331
62467W        W34782  30.421  34.370   4.306
62468W        W34783  15.648   0.249  12.917
62469W        W34784  31.465  14.779  12.057
62470W        W34785   7.684   4.327   4.300
62471W        W34786  25.644   8.818   3.799
62472W        W34787   9.213  41.322   2.664
62473W        W34788  25.148   7.320  10.049
62474W        W34789  27.061  19.663   1.395
62475W        W34790  37.931  21.047   1.882
62476W        W34791  23.069  14.760  13.533
62477W        W34792  33.078  33.535  14.378
62478W        W34793  36.540   2.226  11.027
62479W        W34794  31.994  11.205  11.856
62480W        W34795  33.611  13.615   5.204
62481W        W34796  44.948   7.857  10.887
62482W        W34797  40.340   4.215   3.737
62483W        W34798  25.071   5.316   0.811
62484W        W34799  21.713  13.757  14.985
62485W        W34800  38.932  40.528  13.929
62486W        W34801   3.407  35.516   4.254
62487W        W34802  25.196  23.654  14.950
62488W        W34803  30.637   7.856  10.575
62489W        W34804  27.596  29.529   4.817
62490W        W34805  41.327  18.179   1.752
62491W        W34806  22.679  11.297   0.362
62492W        W34807  27.083  10.359  12.021
62493W        W34808  44.369  10.257  12.437
62494W        W34809  24.558  36.572   2.355
62495W        W34810  38.001  42.395   2.299
62496W        W34811  44.279   6.917  11.438
62497W        W34812   9.771  18.617  12.521
62498W        W34813  17.585  22.096  11.991
62499W        W34814  19.264   2.360   4.246
62500W        W34815  16.738  33.476  11.519
62501W        W34816  41.445  41.386   4.623
62502W        W34817  34.543  34.979   3.225
62503W        W34818  31.528  41.946   0.399
62504W        W34819  28.008  36.532  13.445
62505W        W34820  31.938  39.383  14.858
62506W        W34821  33.452   6.244   2.853
62507W        W34822  39.984  24.535   0.946
62508W        W34823  23.037  27.979   1.864
62509W        W34824  27.638  18.692  13.315
62510W        W34825  41.425   1.364  14.895
62511W        W34826  28.943   1.833   3.229
62512W        W34827  12.167  44.262  11.064
62513W        W34828   4.745   8.893   2.690
62514W        W34829  18.782  21.516  11.117
62515W        W34830   6.920  36.919  12.920
62516W        W34831  38.332  12.775   3.283
62517W        W34832  39.353   9.236   3.866
62518W        W34833   4.908  12.793  10.425
62519W        W34834  17.669  26.590   1.881
62520W        W34835   1.850  14.673  14.996
62521W        W34836  33.591   0.249   1.267
62522W        W34837  24.090   6.419  12.547
62523W        W34838  17.183  24.635  12.038
62524W        W34839   2.239  26.082   2.785
62525W        W34840  43.812  31.932   1.730
62526W        W34841  44.883  10.213   5.266
62527W        W34842  36.074   7.348  13.062
62528W        W34843   9.880  28.679   3.289
62529W        W34844  40.906   4.937  12.036
62530W        W34845   5.300   8.891  12.526
62531W        W34846  31.976  11.855  12.060
62532W        W34847  35.454  22.622  14.984
62533W        W34848  29.644  15.253  11.961
62534W        W34849  16.135  42.851  13.040
62535W        W34850  17.260  21.116   3.662
62536W        W34851  16.085   7.384  13.414
62537W        W34852  31.629  25.482   4.702
62538W        W34853  25.064   8.703   4.724
62539W        W34854  16.252  25.179   0.835
62540W        W34855  11.736  34.072  11.971
62541W        W34856  12.241  27.488  10.448
62542W        W34857  11.179  38.563  11.607
62543W        W34858  31.957  13.786  10.902
62544W        W34859  17.293   4.700   3.761
62545W        W34860  33.886  16.696   0.853
62546W        W34861   3.321  29.666   1.299
62547W        W34862  14.780  31.430   1.803
62548W        W34863  20.118  40.970   4.656
62549W        W34864  34.934   2.426  10.413
62550W        W34865   6.323  21.529  10.618
62551W        W34866  41.291  25.560  12.565
62552W        W34867   2.383  36.052   2.276
62553W        W34868  33.077   5.840  10.519
62554W        W34869  11.836  21.652  12.860
62555W        W34870  42.371  22.085   3.647
62556W        W34871   5.197   1.423   2.697
62557W        W34872  13.625   9.220  12.936
62558W        W34873  15.710  23.096   4.667
62559W        W34874   4.380  11.305  14.852
62560W        W34875  43.966   4.701   1.449
62561W        W34876   0.796  23.070   0.248
62562W        W34877  28.454  42.900  13.493
62563W        W34878  20.170   6.319  14.421
62564W        W34879  23.144  24.054  14.358
62565W        W34880  10.747  38.849   3.188
62566W        W34881  16.766   7.412  12.403
62567W        W34882  28.944   3.290   4.237
62568W        W34883  32.621  18.589  12.826
62569W        W34884  29.069  29.936   2.779
62570W        W34885  16.282   3.775   2.183
62571W        W34886  12.167  31.131   3.661
62572W        W34887  25.012  18.252   4.348
62573W        W34888  12.253  42.468  14.507
62574W        W34889  39.047  14.802  10.082
62575W        W34890  43.881   1.333  13.035
62576W        W34891   0.970  27.464  10.449
62577W        W34892   8.320  29.016   1.353
62578W        W34893   9.202  15.670   0.926
62579W        W34894  16.208  18.721  11.103
62580W        W34895  28.991  39.960   1.879
62581W        W34896  18.187  28.630  12.986
62582W        W34897  11.791  21.150  11.873
62583W        W34898  38.423  39.379  13.026
62584W        W34899  19.584  32.431   0.329
62585W        W34900  40.431  22.506  14.914
62586W        W34901  42.818  17.203   3.259
62587W        W34902   2.454  32.533  11.923
62588W        W34903  22.124  35.057   0.847
62589W        W34904  31.583  21.081  12.390
62590W        W34905  26.105  37.521  11.405
62591W        W34906  32.510  34.499  13.011
62592W        W34907  18.233  14.225   2.798
62593W        W34908  40.975  14.238  13.879
62594W        W34909  33.961  34.880   3.379
62595W        W34910   0.935  34.042  11.009
62596W        W34911   1.394  23.083  11.450
62597W        W34912  19.560  13.334   1.783
62598W        W34913  10.333  25.594  10.422
62599W        W34914  30.439  29.015   3.218
62600W        W34915  42.338  39.501  11.592
62601W        W34916  23.636  28.063  14.283
62602W        W34917   4.803  29.472   4.720
62603W        W34918  44.458  33.051   4.802
62604W        W34919  17.117  16.775   1.451
62605W        W34920  44.431   0.368   1.864
62606W        W34921  12.325  41.019   2.403
62607W        W34922  29.626  27.038  10.530
62608W        W34923  12.628  14.138  12.482
62609W        W34924  23.215  22.093  10.614
62610W        W34925  10.173  39.047   3.638
62611W        W34926  23.564  24.656   0.836
62612W        W34927  41.364  10.666   0.262
62613W        W34928   8.167  43.429   2.754
62614W        W34929  25.107  34.598   2.398
62615W        W34930   2.292   0.897   2.310
62616W        W34931  22.041   6.401  10.579
62617W        W34932  32.967  24.684  13.465
62618W        W34933  44.857  34.423  10.599
62619W        W34934   2.407  12.354   1.881
62620W        W34935  27.052  20.576  12.087
62621W        W34936  14.797   2.472  11.426
62622W        W34937  38.520  36.543  10.428
62623W        W34938  10.193  19.541   2.385
62624W        W34939  12.740   0.314  12.891
62625W        W34940  29.637   6.864   0.878
62626W        W34941  39.496  24.705  14.994
62627W        W34942   5.225  36.874  11.091
62628W        W34943  33.423   6.869   0.834
62629W        W34944  15.727  38.051   3.728
62630W        W34945  32.572  19.625   0.879
62631W        W34946  28.513  13.646  10.957
62632W        W34947  35.937  42.330   2.246
62633W        W34948  23.183  21.165  11.594
62634W        W34949  26.121  37.500  14.828
62635W        W34950  41.513  13.836   0.840
62636W        W34951  20.747  39.410   4.648
62637W        W34952  41.892  26.112  10.907
62638W        W34953  31.151  16.234   2.827
62639W        W34954  12.737  28.162   2.179
62640W        W34955   8.884  41.445  14.408
62641W        W34956   0.850  11.715  12.354
62642W        W34957   8.779  19.741  13.970
62643W        W34958  15.218   7.789  13.323
62644W        W34959  33.573  34.417   0.352
62645W        W34960  34.569  20.562   1.763
62646W        W34961  30.153   1.401   2.869
62647W        W34962   9.754  13.174  14.276
62648W        W34963   8.696  40.463   3.219
62649W        W34964  41.810  37.930  10.561
62650W        W34965  21.743  34.527   1.377
62651W        W34966   3.334  23.634  11.488
62652W        W34967  31.531   0.918  13.487
62653W        W34968  26.953  23.501   0.304
62654W        W34969  15.228   5.697  11.604
62655W        W34970   3.420  18.705   2.338
62656W        W34971  37.031  44.941   0.906
62657W        W34972  26.547  37.533   0.375
62658W        W34973  34.521  33.960   2.804
62659W        W34974  43.425  29.090  10.523
62660W        W34975  30.939  14.293  13.385
62661W        W34976   9.156  38.509   0.266
62662W        W34977  15.121   9.246   0.385
62663W        W34978  12.359   1.852  14.382
62664W        W34979  30.496  14.674  10.990
62665W        W34980  30.434  14.620   2.718
62666W        W34981  42.998  44.791  11.892
62667W        W34982  43.817   7.224  12.085
62668W        W34983  44.915  39.472   3.847
62669W        W34984   1.792  41.888   4.783
62670W        W34985  37.371  23.082  10.423
62671W        W34986  26.601   8.714   3.803
62672W        W34987  27.079  15.136  12.956
62673W        W34988   5.196  25.558   1.774
62674W        W34989  27.639  44.991   1.712
62675W        W34990  10.821   7.669   4.662
62676W        W34991  40.801  39.822   2.218
62677W        W34992  40.027  13.175   0.312
62678W        W34993   6.914   7.866   2.328
62679W        W34994   3.783  34.944  10.542
62680W        W34995  17.690  13.769  10.997
62681W        W34996  26.076  43.467  14.981
62682W        W34997  19.194   0.753   1.820
62683W        W34998  19.135   3.733  12.872
62684W        W34999   2.385  35.988   0.384
62685W        W35000  11.223  29.966  14.375
62686W        W35001  25.189  12.788   4.230
62687W        W35002  42.888  36.500   2.781
62688W        W35003  40.017  19.698   3.857
62689W        W35004  43.936   3.949  12.048
62690W        W35005   7.273  40.798   0.404
62691W        W35006   5.817  40.475   3.317
62692W        W35007   8.724  35.433  12.411
62693W        W35008   2.356  42.788  14.014
62694W        W35009  14.775  12.205  10.404
62695W        W35010   2.770   9.228   1.755
62696W        W35011   8.794   3.396   2.195
62697W        W35012  25.061   2.354  14.766
62698W        W35013  21.171   8.299   1.812
62699W        W35014  33.127   0.978   2.887
62700W        W35015  21.565  26.543   4.827
62701W        W35016  24.133  22.624   4.119
62702W        W35017  44.838   4.921  10.609
62703W        W35018  24.552  27.553   4.165
62704W        W35019  17.122  10.179   9.656
62705W        W35020   1.735  36.573  14.284
62706W        W35021  42.331  23.102  14.439
62707W        W35022   2.376  13.767   3.709
62708W        W35023  23.220  19.060  10.945
62709W        W35024  38.976  20.552  12.841
62710W        W35025  11.361  39.557  10.910
62711W        W35026  44.946  12.195  10.564
62712W        W35027  36.001  17.221  13.967
62713W        W35028  33.085  24.674  14.395
62714W        W35029  14.788  13.637  10.620
62715W        W35030  15.313   0.863   0.409
62716W        W35031  16.101   3.256   4.664
62717W        W35032  28.582   9.846   0.464
62718W        W35033   0.898  13.845  12.418
62719W        W35034  40.801  19.185   0.244
62720W        W35035  41.381  21.217   3.664
62721W        W35036  23.987   3.758  13.056
62722W        W35037   7.739  28.094   2.700
62723W        W35038   2.252  22.628   5.208
62724W        W35039   5.399   5.906  10.541
62725W        W35040  14.223  44.853  11.062
62726W        W35041  34.953  30.157   2.740
62727W        W35042  21.719  13.257  14.369
62728W        W35043  38.855  24.555  12.353
62729W        W35044  39.443  35.911   4.288
62730W        W35045  10.205  18.572   4.315
62731W        W35046  16.698   6.792  10.625
62732W        W35047  20.242  27.187   1.374
62733W        W35048  42.982   1.360   2.665
62734W        W35049   8.694  34.571   4.765
62735W        W35050   7.739   4.380  11.511
62736W        W35051  34.077  38.922  13.897
62737W        W35052  33.968  25.008   1.862
62738W        W35053  14.325  36.536  12.083
62739W        W35054  26.514  37.866  12.060
62740W        W35055  22.708  43.984  12.413
62741W        W35056  37.523  24.486   0.402
62742W        W35057   0.849  36.091   2.841
62743W        W35058  11.835  43.483   4.300
62744W        W35059  40.474   5.420   2.334
62745W        W35060  22.101  27.597  13.036
62746W        W35061   0.258  13.675   1.842
62747W        W35062   5.775  24.087  11.569
62748W        W35063  21.574   9.773  11.960
62749W        W35064  42.861  32.077   1.704
62750W        W35065  14.799   3.719  12.386
62751W        W35066  44.505  39.059  13.046
62752W        W35067  11.321  39.422  13.424
62753W        W35068   2.372  19.771   0.382
62754W        W35069  33.909  26.465   1.710
62755W        W35070  18.216  35.446   1.884
62756W        W35071  13.704  14.697  10.593
62757W        W35072  22.125  15.604   4.683
62758W        W35073   0.286  27.007   2.215
62759W        W35074  26.020  41.838  10.551
62760W        W35075  29.111  26.984   1.736
62761W        W35076  15.643  42.362  10.086
62762W        W35077  35.440  17.762  10.895
62763W        W35078  39.454   1.285   0.378
62764W        W35079  31.045  15.091   3.348
62765W        W35080  32.105  40.919  11.994
62766W        W35081  10.308  29.505  13.959
62767W        W35082  21.677  33.531  11.529
62768W        W35083  21.645  31.640  11.495
62769W        W35084  29.072  18.636  14.416
62770W        W35085   3.863  11.693   1.827
62771W        W35086  10.243   1.366   0.756
62772W        W35087  39.334  13.694  12.437
62773W        W35088  27.647  43.363   3.684
62774W        W35089  32.630  23.044   4.787
62775W        W35090   2.878   3.887   4.650
62776W        W35091  38.821  32.128  14.450
62777W        W35092  25.006  28.126  14.316
62778W        W35093  25.080  34.079  10.560
62779W        W35094   4.279  28.472  11.443
62780W        W35095  41.300  14.309  13.931
62781W        W35096   0.282  14.811  12.094
62782W        W35097  28.603  11.145   4.693
62783W        W35098  28.039  30.006   0.814
62784W        W35099   8.363   2.813   0.748
62785W        W35100  30.099  41.898  11.886
62786W        W35101  22.032  44.819  13.885
62787W        W35102   1.797  33.477  12.550
62788W        W35103  16.312   3.853  10.504
62789W        W35104  30.600  41.947  10.972
62790W        W35105   0.482  36.936   3.849
62791W        W35106  43.826  12.846   4.181
62792W        W35107  22.713  41.930   4.254
62793W        W35108  26.522   2.843  11.055
62794W        W35109   9.707  15.092  14.902
62795W        W35110  17.732  17.649  10.463
62796W        W35111   7.806  29.632   0.770
62797W        W35112  11.625  28.116  12.846
62798W        W35113  11.368   3.401  12.958
62799W        W35114   2.888   4.835  10.582
62800W        W35115  31.564  26.118   0.860
62801W        W35116  44.504   0.826  10.444
62802W        W35117  19.192  23.511   2.408
62803W        W35118  22.158   2.467   2.381
62804W        W35119  16.221  41.344  11.105
62805W        W35120   1.290  28.012  10.990
62806W        W35121  30.111   7.302   2.369
62807W        W35122  27.493  32.570   3.735
62808W        W35123  16.232  38.902  13.905
62809W        W35124  34.909  41.425  13.447
62810W        W35125  35.916  33.969  14.339
62811W        W35126  37.062   8.697  14.010
62812W        W35127  37.017  31.622  11.403
62813W        W35128  21.046  22.558   4.794
62814W        W35129  10.726  14.699  10.486
62815W        W35130  40.014  42.398  10.626
62816W        W35131  11.287  20.180   1.700
62817W        W35132  43.886   9.211  13.990
62818W        W35133   0.300  24.604   4.280
62819W        W35134  29.167  37.565   1.736
62820W        W35135  27.071  27.981  11.955
62821W        W35136  29.498  33.436   9.503
62822W        W35137   7.275  24.142  11.971
62823W        W35138  21.227  29.443   3.386
62824W        W35139  29.438  12.127   4.293
62825W        W35140  13.738  27.025   2.409
62826W        W35141  20.577   4.395   4.669
62827W        W35142   2.799  32.510  12.538
62828W        W35143  41.793  38.866   4.603
62829W        W35144   0.960   0.288   0.393
62830W        W35145  13.132  33.486   2.765
62831W        W35146  18.280  11.277   2.663
62832W        W35147   1.467  11.741   3.782
62833W        W35148  18.240  18.246   0.798
62834W        W35149   7.878  22.178   4.303
62835W        W35150  42.310  10.195   0.296
62836W        W35151   9.752  43.422   1.810
62837W        W35152  21.593  15.148   2.352
62838W        W35153  27.182  11.721   1.349
62839W        W35154  43.002  28.545  13.935
62840W        W35155  15.758  31.998  13.444
62841W        W35156  40.880   3.828   2.814
62842W        W35157  12.636  34.885  12.386
62843W        W35158  15.811  12.350   1.328
62844W        W35159  36.086  11.815   1.870
62845W        W35160  21.667  37.414   2.800
62846W        W35161  38.545  24.715   2.683
62847W        W35162   5.435  15.590   0.414
62848W        W35163  41.825   3.734   4.350
62849W        W35164   9.165   3.289  10.946
62850W        W35165  36.521  28.112   0.411
62851W        W35166  22.115  20.041  10.531
62852W        W35167  28.605  11.188   1.785
62853W        W35168   9.292  40.898  13.997
62854W        W35169  22.585  43.999   2.762
62855W        W35170  21.686  19.049   2.273
62856W        W35171  43.809  10.755   0.387
62857W        W35172  28.068  39.534   2.750
62858W        W35173  32.937  17.578   1.694
62859W        W35174  16.271  38.564  13.003
62860W        W35175   9.209   4.392   2.302
62861W        W35176  26.983  25.579  11.033
62862W        W35177  40.949   6.823  10.639
62863W        W35178  23.097  20.554   2.240
62864W        W35179   8.366  39.377   3.839
62865W        W35180  40.461  40.982   2.807
62866W        W35181  35.045  25.536   2.408
62867W        W35182  28.635   5.863  11.857
62868W        W35183  34.607  12.696   4.269
62869W        W35184   1.276   0.424   4.781
62870W        W35185  26.555  31.094   4.697
62871W        W35186  24.099  28.509   4.252
62872W        W35187  19.156  32.523  10.494
62873W        W35188   5.203  26.135   4.814
62874W        W35189  38.479  36.448  12.568
62875W        W35190  25.142  28.053  10.580
62876W        W35191   3.931  18.292   2.860
62877W        W35192  10.679   4.766  11.508
62878W        W35193   7.753  29.514  10.002
62879W        W35194  37.419  22.601   4.326
62880W        W35195  11.718  41.399   0.857
62881W        W35196  41.952  41.829  13.013
62882W        W35197  28.611  32.538  14.493
62883W        W35198  24.541  22.574   2.281
62884W        W35199  14.754   1.855   1.442
62885W        W35200  31.596  42.817   4.703
62886W        W35201  37.366  42.939  12.994
62887W        W35202   1.749  29.955   4.177
62888W        W35203  44.355  36.566  14.984
62889W        W35204  31.543   3.799   3.226
62890W        W35205   9.302  26.044   0.744
62891W        W35206  28.066   6.787  12.914
62892W        W35207  12.274  31.476   4.777
62893W        W35208  40.335   1.904  12.905
62894W        W35209  44.789   7.259  11.530
62895W        W35210  14.206  27.624  11.577
62896W        W35211  12.199  16.187  13.495
62897W        W35212  19.167  30.070  10.146
62898W        W35213   7.218  17.178   0.407
62899W        W35214   5.712  28.960  12.368
62900W        W35215  39.017  26.656   5.268
62901W        W35216  24.500  16.671  13.984
62902W        W35217  35.400   8.669  12.342
62903W        W35218  21.690  29.124  14.870
62904W        W35219  34.544   0.458  12.450
62905W        W35220  33.504  11.804  13.401
62906W        W35221  32.017  20.705   3.659
62907W        W35222  30.564  34.563  13.542
62908W        W35223  12.736  38.550  12.406
62909W        W35224   9.222  10.351  14.891
62910W        W35225  24.158  41.802   0.751
62911W        W35226  13.155  40.314   0.265
62912W        W35227  30.013   1.952  11.465
62913W        W35228   1.812  28.614  13.868
62914W        W35229  22.640   2.401  11.600
62915W        W35230  19.234   3.232  12.863
62916W        W35231  34.520  43.454  12.486
62917W        W35232  20.578  12.233   2.818
62918W        W35233  27.960  27.105  12.911
62919W        W35234  37.510  34.476   4.113
62920W        W35235   6.682  29.138   2.669
62921W        W35236   1.276   5.735   0.787
62922W        W35237  13.789  17.666  13.030
62923W        W35238  32.572  16.125  12.842
62924W        W35239  34.395   1.930   3.809
62925W        W35240   2.303  37.057   1.733
62926W        W35241  30.650  37.375  13.378
62927W        W35242   3.430  25.519   2.751
62928W        W35243  44.353   0.787  10.928
62929W        W35244  17.171  15.701   1.395
62930W        W35245  44.877  14.099   2.740
62931W        W35246  28.138  13.688  13.440
62932W        W35247  42.954  31.909   1.396
62933W        W35248  21.581  25.639   2.410
62934W        W35249  12.306   0.948   3.307
62935W        W35250  18.637  22.050  10.548
62936W        W35251   8.741  14.601   4.783
62937W        W35252  34.931   8.817   3.257
62938W        W35253  10.735   7.253  12.410
62939W        W35254  36.385   0.280  11.459
62940W        W35255  40.981  38.925   1.352
62941W        W35256   9.285   3.247  12.344
62942W        W35257  24.646  20.058  13.372
62943W        W35258  23.227  33.416  13.382
62944W        W35259  28.532   2.853  13.929
62945W        W35260  44.924  41.993   0.311
62946W        W35261  21.157  36.031   2.818
62947W        W35262  14.652  11.750   3.288
62948W        W35263  32.087  15.273   3.378
62949W        W35264  32.586  26.604  10.942
62950W        W35265  29.993  19.693   0.462
62951W        W35266   9.833  29.169  11.380
62952W        W35267  40.483  26.059   3.342
62953W        W35268   8.855  24.005  14.512
62954W        W35269   7.877  12.842  14.024
62955W        W35270  43.811  42.399  10.457
62956W        W35271  27.190   9.848   3.305
62957W        W35272   4.409  15.225  12.493
62958W        W35273  27.019  43.418   3.321
62959W        W35274  27.484   3.791   1.333
62960W        W35275  14.276  18.154  13.992
62961W        W35276   4.389   4.306  13.017
62962W        W35277   6.381  24.212   3.786
62963W        W35278   1.918  35.936  12.081
62964W        W35279  36.532  34.503   1.301
62965W        W35280  28.949   4.285  11.010
62966W        W35281  37.518  26.649   3.158
62967W        W35282  23.087   2.427  14.514
62968W        W35283  40.354  39.456  10.590
62969W        W35284  19.597  16.203  12.898
62970W        W35285  27.666  25.471  12.503
62971W        W35286  33.080  38.970   9.936
62972W        W35287   4.751  12.763  13.950
62973W        W35288  13.706  19.167   0.364
62974W        W35289   5.881  10.383  12.036
62975W        W35290   7.199  41.023   0.802
62976W        W35291  17.102  11.153  10.889
62977W        W35292  37.872  23.071   4.803
62978W        W35293  18.274  20.690  10.578
62979W        W35294  23.568  22.088  14.761
62980W        W35295  38.976   8.794  14.996
62981W        W35296  15.659  31.903  13.847
62982W        W35297  31.007  21.662  14.008
62983W        W35298   7.725   4.722   2.273
62984W        W35299   6.411  41.014  10.597
62985W        W35300  28.131   2.951  10.944
62986W        W35301   2.345  25.525  14.515
62987W        W35302  39.332   5.705  14.341
62988W        W35303   2.942  20.092  10.939
62989W        W35304   7.260  37.068   4.638
62990W        W35305  22.652  36.396  14.775
62991W        W35306  27.470  22.642  10.527
62992W        W35307  41.300  13.248  14.365
62993W        W35308   4.325   3.294   3.677
62994W        W35309   4.218   4.732  10.416
62995W        W35310  15.675  41.025   4.775
62996W        W35311  43.314  31.520  11.478
62997W        W35312  39.059  40.054  13.399
62998W        W35313  26.520   2.268  11.062
62999W        W35314  18.115  31.088  14.484
63000W        W35315   3.336  21.109  12.883
63001W        W35316  44.331   2.893   2.845
63002W        W35317  44.388  37.463  10.141
63003W        W35318   5.433  32.554  13.341
63004W        W35319  43.800  10.678   1.703
63005W        W35320  41.390  23.708  13.984
63006W        W35321  30.443  37.491   0.921
63007W        W35322   7.791   5.293  12.576
63008W        W35323  30.943  39.386  12.931
63009W        W35324  38.545  23.714   5.583
63010W        W35325  18.574  18.626  13.529
63011W        W35326  27.663  17.685   0.381
63012W        W35327  12.752   6.212   0.895
63013W        W35328  21.546  28.525  14.936
63014W        W35329  16.753  15.284  14.893
63015W        W35330   3.279   0.903   4.193
63016W        W35331   9.153   4.756  11.468
63017W        W35332  16.319   3.746  14.386
63018W        W35333   1.385   5.325   4.816
63019W        W35334  35.433   5.914  11.067
63020W        W35335  28.454  41.814  12.498
63021W        W35336  20.111  16.689  12.442
63022W        W35337  42.885  39.941   1.360
63023W        W35338  15.796  19.631   3.870
63024W        W35339  41.465   2.426   4.290
63025W        W35340   9.689  27.014   0.760
63026W        W35341   0.280  43.863   1.449
63027W        W35342  14.169  40.425  12.829
63028W        W35343  23.084   5.233   1.701
63029W        W35344   9.844  20.673  12.899
63030W        W35345  29.495  27.476  11.542
63031W        W35346  41.434  38.340   1.451
63032W        W35347  35.935  41.380  12.096
63033W        W35348  36.038  17.238   3.805
63034W        W35349  29.063  12.792  14.848
63035W        W35350  21.694  20.734   4.667
63036W        W35351  41.384  26.630  11.111
63037W        W35352  30.463   3.291   4.676
63038W        W35353  13.756  44.339   3.870
63039W        W35354   9.870   4.854   2.737
63040W        W35355  29.656  35.087  14.444
63041W        W35356  18.291  16.621   2.194
63042W        W35357   1.835  13.124  14.366
63043W        W35358  34.076  17.127  12.553
63044W        W35359   4.781  37.992  12.561
63045W        W35360  42.444  31.994  12.002
63046W        W35361  19.105  30.044   1.414
63047W        W35362  38.959  13.604   1.802
63048W        W35363   8.349  33.517   3.855
63049W        W35364  39.527   1.398   3.719
63050W        W35365   4.836  26.167   0.763
63051W        W35366  11.247  30.413   2.283
63052W        W35367  33.481  33.404   5.247
63053W        W35368  14.792  35.935   0.919
63054W        W35369  28.990  27.157  10.469
63055W        W35370  43.971  27.174  10.547
63056W        W35371  10.871  10.747   4.765
63057W        W35372  26.113  42.451   0.804
63058W        W35373   1.963  29.961  11.475
63059W        W35374  12.221   3.354  10.600
63060W        W35375  15.744  27.975  11.568
63061W        W35376  38.548  37.518   4.161
63062W        W35377  16.703  41.002   0.885
63063W        W35378  14.207  27.562   2.665
63064W        W35379  26.491  42.511  10.601
63065W        W35380  31.128   3.445   2.724
63066W        W35381  10.165  26.516  13.056
63067W        W35382  41.323  41.352  11.063
63068W        W35383  34.907   5.243  14.910
63069W        W35384  43.463  26.695  11.867
63070W        W35385  11.271   6.229   1.697
63071W        W35386  29.586  37.500   2.357
63072W        W35387  28.143  41.850   1.785
63073W        W35388  23.665   7.728  13.334
63074W        W35389  32.503  34.557  10.555
63075W        W35390   3.325  11.857   3.345
63076W        W35391   1.327  19.082  13.934
63077W        W35392  39.434  11.862   1.428
63078W        W35393  23.608   9.284  10.451
63079W        W35394  29.079  29.640   3.720
63080W        W35395   9.876  25.160   2.750
63081W        W35396   1.467   8.176   1.766
63082W        W35397  14.752  32.128  13.543
63083W        W35398  18.583  23.058   4.824
63084W        W35399  29.067  19.133  10.420
63085W        W35400  11.329  13.660  13.799
63086W        W35401  20.542  30.095   0.274
63087W        W35402  16.241   9.237   0.786
63088W        W35403  15.227   4.348  14.788
63089W        W35404  15.107  33.411  10.430
63090W        W35405   7.753  21.744  10.626
63091W        W35406  30.423  30.516   0.746
63092W        W35407  24.090  12.825   2.314
63093W        W35408  21.734  39.902   0.376
63094W        W35409  10.254  21.113  11.985
63095W        W35410   3.356  18.599  10.906
63096W        W35411   6.351  31.516  14.348
63097W        W35412  28.945   9.748  10.899
63098W        W35413  17.275  21.720   2.198
63099W        W35414   9.811  40.898  13.341
63100W        W35415  13.735  41.424  11.073
63101W        W35416  42.791  28.614  12.489
63102W        W35417  33.603  10.235  10.406
63103W        W35418  23.214  40.902  10.911
63104W        W35419  17.570   2.359  12.522
63105W        W35420  10.799  36.445  11.597
63106W        W35421   4.432  26.480   2.317
63107W        W35422   4.729  37.972  11.376
63108W        W35423  43.408  27.495  10.600
63109W        W35424  12.353  14.304   2.738
63110W        W35425   2.382  21.569  11.384
63111W        W35426  40.519  43.913  12.430
63112W        W35427   5.706  37.081  10.966
63113W        W35428   1.355  19.108   1.391
63114W        W35429  43.391  21.576  10.902
63115W        W35430  44.472  26.004  10.542
63116W        W35431  30.922  30.575   0.401
63117W        W35432  19.606   9.666  11.600
63118W        W35433  39.866  44.328  13.311
63119W        W35434  31.961  44.501  14.402
63120W        W35435  24.990  36.393  14.353
63121W        W35436   0.358  40.345  11.544
63122W        W35437  38.330  29.022   2.339
63123W        W35438  16.072  19.193  10.918
63124W        W35439  24.115   9.223   2.869
63125W        W35440  16.650  10.223   1.701
63126W        W35441  15.316  10.312   0.477
63127W        W35442  19.130  30.153  13.524
63128W        W35443  29.036  21.512  11.513
63129W        W35444  20.714  44.892   4.739
63130W        W35445  23.227  25.526   4.670
63131W        W35446  30.528  23.512   0.856
63132W        W35447  23.214  29.548   2.277
63133W        W35448  37.009  38.505   0.769
63134W        W35449   8.791  10.256   4.798
63135W        W35450  35.997  22.241   2.217
63136W        W35451  35.436  25.612   4.837
63137W        W35452  23.723  32.555  14.420
63138W        W35453  32.490  26.593  13.508
63139W        W35454   5.825  30.515   1.792
63140W        W35455  37.838  25.045  10.461
63141W        W35456  41.504  42.856   5.269
63142W        W35457  33.593   9.725   0.295
63143W        W35458   8.192   7.408  12.573
63144W        W35459  33.384  10.294   5.119
63145W        W35460  31.548   2.263   1.869
63146W        W35461  11.742  44.873   1.255
63147W        W35462   5.778  35.012  13.321
63148W        W35463  30.045   1.805   0.907
63149W        W35464   0.458  35.016  13.045
63150W        W35465  13.348  11.837  13.472
63151W        W35466  32.062   8.756   4.297
63152W        W35467  28.533  30.658   2.670
63153W        W35468  16.302  34.064   3.824
63154W        W35469   9.308  35.584  12.532
63155W        W35470  34.572   0.799   0.318
63156W        W35471  37.576   5.359  11.959
63157W        W35472  10.758   0.378   0.358
63158W        W35473  37.875  42.017  12.529
63159W        W35474   8.281  44.316  11.089
63160W        W35475  18.184  42.794  12.425
63161W        W35476  41.475  12.700   4.127
63162W        W35477   0.988   0.963  14.001
63163W        W35478   7.855  25.529   0.245
63164W        W35479  26.504  25.172  10.896
63165W        W35480  31.556  37.968   4.312
63166W        W35481  26.550  26.574  13.379
63167W        W35482   6.743  14.594   4.222
63168W        W35483  44.313  29.015  11.907
63169W        W35484   3.436  15.622   4.814
63170W        W35485  32.474  42.359  14.855
63171W        W35486  18.214   4.273   3.837
63172W        W35487  23.098   3.306   1.309
63173W        W35488  31.468  10.777   0.838
63174W        W35489  24.002  21.133  10.087
63175W        W35490   1.263  42.289  14.875
63176W        W35491  21.019  23.232  14.441
63177W        W35492  17.092  33.875  14.326
63178W        W35493  23.728   7.240  14.432
63179W        W35494  41.973   2.340  13.430
63180W        W35495  37.035   6.247  10.931
63181W        W35496   3.293  32.027  14.941
63182W        W35497  18.751  12.711   5.208
63183W        W35498  11.324  44.974   0.250
63184W        W35499  36.899   7.320   3.649
63185W        W35500   1.447  25.701   0.900
63186W        W35501  31.914  15.698  12.484
63187W        W35502  19.693  24.082   0.292
63188W        W35503  12.738   5.852   2.311
63189W        W35504  19.628  24.128   2.385
63190W        W35505  13.175  27.596  13.392
63191W        W35506  23.719  18.665   3.220
63192W        W35507  39.556  20.094  12.411
63193W        W35508  12.172   7.680   2.678
63194W        W35509  28.123  24.691   1.443
63195W        W35510  31.046  13.641  14.393
63196W        W35511  26.498  26.534   2.790
63197W        W35512   5.867  36.389  11.520
63198W        W35513  20.221   5.842  11.457
63199W        W35514   1.325  39.973   0.737
63200W        W35515  19.547  44.380   2.779
63201W        W35516   1.346  37.522  14.403
63202W        W35517  27.111  35.990  10.463
63203W        W35518  36.557  18.207   1.712
63204W        W35519  41.863  18.198  14.452
63205W        W35520  40.534   6.885  12.973
63206W        W35521  15.296   7.361  14.440
63207W        W35522  38.856  15.179  11.560
63208W        W35523  24.146  41.512  12.496
63209W        W35524  19.057  44.349  12.996
63210W        W35525  10.685  32.621   3.198
63211W        W35526  12.676  16.282  12.507
63212W        W35527  26.625  23.206   4.150
63213W        W35528  10.768  29.086   3.180
63214W        W35529  42.878  43.487   4.260
63215W        W35530   6.260   5.229  10.942
63216W        W35531  23.710  44.787   4.322
63217W        W35532   7.784  42.936   2.707
63218W        W35533  38.909  38.555   4.714
63219W        W35534  42.343   1.945   1.302
63220W        W35535  28.109  37.379   2.731
63221W        W35536   6.688   6.801  13.993
63222W        W35537  43.330  12.328   1.334
63223W        W35538  41.423  18.659  10.555
63224W        W35539  18.671  24.513  13.384
63225W        W35540  19.121   9.257  12.541
63226W        W35541   6.838  36.409   4.315
63227W        W35542  43.391  19.086  11.449
63228W        W35543  22.164  44.284  12.062
63229W        W35544  22.713  28.654   2.748
63230W        W35545  20.536  26.153  11.118
63231W        W35546   6.371   9.729  10.104
63232W        W35547  22.629  10.305   0.850
63233W        W35548  19.277  34.933  10.418
63234W        W35549  29.450   3.725   2.814
63235W        W35550  44.484  44.009   5.188
63236W        W35551  23.707  31.454   0.768
63237W        W35552  13.149  23.590   0.790
63238W        W35553  39.537   2.287  10.479
63239W        W35554  34.061  18.233   1.304
63240W        W35555   3.720  28.977  14.892
63241W        W35556   1.897  25.490  11.956
63242W        W35557  30.103  17.689   1.260
63243W        W35558  32.898   0.288  11.985
63244W        W35559  28.591  32.918  11.965
63245W        W35560  38.997  25.622  14.388
63246W        W35561   2.936  24.094   1.825
63247W        W35562  39.992  19.053   3.689
63248W        W35563  27.953  43.019  10.039
63249W        W35564   8.161   0.371   0.944
63250W        W35565  15.265   2.446  12.900
63251W        W35566  31.948   3.825  11.071
63252W        W35567  13.168  15.194  12.426
63253W        W35568  30.464  16.228   3.773
63254W        W35569  11.298   1.440  11.012
63255W        W35570  12.203  14.669   0.272
63256W        W35571  39.989  14.139   4.132
63257W        W35572  37.046  20.667   3.258
63258W        W35573  10.224  12.248   2.856
63259W        W35574  17.604   4.839   0.353
63260W        W35575  28.009   5.274  13.033
63261W        W35576  15.300  23.689   4.253
63262W        W35577  19.255  21.043  13.494
63263W        W35578  41.415  33.906  11.466
63264W        W35579  43.906  11.347   2.228
63265W        W35580   7.216   5.350  13.439
63266W        W35581  31.486   2.418   2.855
63267W        W35582   2.344  44.486   5.245
63268W        W35583  39.056  43.840   1.720
63269W        W35584   6.699  28.077  12.016
63270W        W35585   3.436  43.004   0.432
63271W        W35586  33.911  27.965  12.064
63272W        W35587  23.238  19.570   5.624
63273W        W35588   8.708  36.366  11.433
63274W        W35589  13.160   5.210   4.741
63275W        W35590   1.276  11.211  13.052
63276W        W35591  29.028   2.255  14.491
63277W        W35592   5.410   2.916   1.355
63278W        W35593   4.315  23.717  13.832
63279W        W35594  14.305  22.213   2.862
63280W        W35595  42.009  44.379   2.273
63281W        W35596  26.493  14.806  11.864
63282W        W35597   0.757  29.516  12.937
63283W        W35598  13.228   4.864   5.276
63284W        W35599  21.122  10.234  11.536
63285W        W35600  18.142  13.266  13.422
63286W        W35601  22.731  16.662  12.962
63287W        W35602  33.040  18.210  14.842
63288W        W35603  32.044   3.718   1.212
63289W        W35604  17.202  43.392  13.332
63290W        W35605   4.936  14.654   5.093
63291W        W35606   1.354  20.068   2.204
63292W        W35607  39.848  43.906   0.333
63293W        W35608  15.582  34.424  14.498
63294W        W35609  44.841  36.507   3.801
63295W        W35610   1.476  18.568  10.916
63296W        W35611  23.095  25.582  11.892
63297W        W35612  15.705  42.967  13.423
63298W        W35613  16.295   7.203  14.790
63299W        W35614  39.876  32.431  10.444
63300W        W35615  41.794  10.149   1.860
63301W        W35616  19.253  25.063  10.444
63302W        W35617   2.932  31.956   1.230
63303W        W35618   2.917  39.904   0.784
63304W        W35619   6.407  15.199  13.392
63305W        W35620   9.791  34.545  13.042
63306W        W35621  18.270  31.914  11.967
63307W        W35622   9.277  38.847   1.436
63308W        W35623  25.109   3.235  12.034
63309W        W35624  44.369   1.382  11.965
63310W        W35625  24.519   3.257  13.835
63311W        W35626  33.056  41.955  11.963
63312W        W35627  29.638  14.622  11.987
63313W        W35628  22.155  38.026   0.782
63314W        W35629  14.670  12.192  13.343
63315W        W35630  35.870  28.125   1.809
63316W        W35631  11.797  38.065  11.028
63317W        W35632  37.945   0.265   1.756
63318W        W35633  19.136   2.949   3.249
63319W        W35634  34.519  22.042   0.758
63320W        W35635  33.481   3.794  11.046
63321W        W35636   6.287  43.331  14.290
63322W        W35637  16.266  23.673   1.372
63323W        W35638  35.871  31.917  12.929
63324W        W35639  16.594  10.303  14.373
63325W        W35640  37.509  28.564   1.739
63326W        W35641  44.000  38.486  11.892
63327W        W35642   0.386  40.032  14.283
63328W        W35643   0.853  43.511  10.467
63329W        W35644  33.388  23.695  14.793
63330W        W35645  28.039   6.276  10.977
63331W        W35646  23.986   9.719   2.277
63332W        W35647  38.899  19.587   4.134
63333W        W35648  42.865  19.263  13.347
63334W        W35649  34.533  36.502  10.993
63335W        W35650  36.064  30.953  13.408
63336W        W35651  18.749   7.911   1.877
63337W        W35652  22.522  42.868   2.276
63338W        W35653  43.874   9.224   4.129
63339W        W35654  22.130  14.291  11.473
63340W        W35655  22.507  30.985  11.550
63341W        W35656  13.262   3.287   4.789
63342W        W35657  29.153   7.322  13.329
63343W        W35658  12.850   4.892  13.484
63344W        W35659  18.105  43.308   1.841
63345W        W35660  42.451  37.470   9.990
63346W        W35661   3.422  33.483   1.804
63347W        W35662  40.871  35.964  10.418
63348W        W35663   9.267  27.471   2.841
63349W        W35664   0.831  40.899   2.746
63350W        W35665  30.500  42.415  13.818
63351W        W35666  19.728  44.977  12.828
63352W        W35667   6.745  10.345  12.391
63353W        W35668   5.915  20.631  10.618
63354W        W35669  34.041   9.778  14.830
63355W        W35670  26.533  17.761   1.731
63356W        W35671  31.559   9.658  12.577
63357W        W35672  27.657  34.421   3.780
63358W        W35673  34.055  39.950  14.873
63359W        W35674   6.315  12.141   0.455
63360W        W35675  22.527  31.921   5.121
63361W        W35676  43.796  19.659   0.459
63362W        W35677  38.061  28.968   3.632
63363W        W35678  23.191  24.560   0.781
63364W        W35679  25.622   3.778   4.670
63365W        W35680  44.999  18.756   2.190
63366W        W35681  14.239  43.877  11.039
63367W        W35682   3.928  12.679  10.404
63368W        W35683  20.681  26.580   4.202
63369W        W35684  30.478  10.660   4.620
63370W        W35685  10.232   2.894   2.751
63371W        W35686  24.078  26.098  11.979
63372W        W35687  12.310  14.795  14.439
63373W        W35688  15.618   3.876  13.838
63374W        W35689  10.195  23.613  12.973
63375W        W35690  25.617  25.567   1.846
63376W        W35691  19.754   6.222   2.260
63377W        W35692  44.333   2.871   3.674
63378W        W35693  36.550  39.543   2.689
63379W        W35694  34.863  16.117   0.948
63380W        W35695  26.006  19.738   4.752
63381W        W35696  29.490  13.794   3.228
63382W        W35697  18.601  33.044   0.851
63383W        W35698  44.805   7.855   0.431
63384W        W35699  18.781  15.171  14.988
63385W        W35700  18.136  30.917  12.518
63386W        W35701  31.913  35.103   1.873
63387W        W35702  12.830  42.447   1.444
63388W        W35703  38.446  15.123   1.401
63389W        W35704   3.438  22.570  12.877
63390W        W35705  37.568  33.542   1.265
63391W        W35706  25.073   9.804  12.866
63392W        W35707  38.352   0.974   0.302
63393W        W35708  10.205   9.259   1.788
63394W        W35709  30.927  11.730   4.321
63395W        W35710  22.114  10.198  13.955
63396W        W35711  30.519   6.400  12.523
63397W        W35712  14.743  32.038  13.862
63398W        W35713  16.751  29.436  13.392
63399W        W35714  17.604   0.926  12.006
63400W        W35715  29.476  18.118   4.235
63401W        W35716  40.398  21.187  13.465
63402W        W35717  25.964  12.239  14.891
63403W        W35718  12.260  13.349  14.429
63404W        W35719  10.781   2.844   3.374
63405W        W35720  36.924  13.761  13.867
63406W        W35721  39.520  38.009  14.835
63407W        W35722  25.576  12.835  10.071
63408W        W35723   9.297  25.010   5.322
63409W        W35724  15.617  15.237   1.839
63410W        W35725   1.737  43.924   4.629
63411W        W35726  14.152   8.812   1.905
63412W        W35727  33.922  20.188  10.938
63413W        W35728  27.575  19.632  12.913
63414W        W35729  14.207   9.857   3.362
63415W        W35730  42.332  26.695   3.702
63416W        W35731   8.279   3.238  12.051
63417W        W35732  17.700  28.629  14.452
63418W        W35733  23.029   8.700   1.407
63419W        W35734  39.536  34.994  12.413
63420W        W35735  14.807  32.918   2.264
63421W        W35736  37.068   2.778  10.572
63422W        W35737  17.171   8.883   0.257
63423W        W35738  39.433  37.971  10.550
63424W        W35739  32.950  18.137  13.839
63425W        W35740  28.023  44.314   1.914
63426W        W35741  20.062   8.703  13.401
63427W        W35742  10.815   0.768  11.109
63428W        W35743   8.787  30.996   0.260
63429W        W35744  30.461  21.564   3.822
63430W        W35745  37.347  33.441   4.748
63431W        W35746  38.897  32.050  13.024
63432W        W35747   5.202  20.707   1.419
63433W        W35748  11.229  28.990  13.889
63434W        W35749  14.680  33.070  10.589
63435W        W35750  21.252  25.663   4.116
63436W        W35751   3.352   5.207   4.706
63437W        W35752  19.552   7.798   1.227
63438W        W35753  22.054  35.542   1.346
63439W        W35754  23.010  26.549  11.513
63440W        W35755  32.531   6.251   3.696
63441W        W35756   4.738  44.838  10.484
63442W        W35757  34.889  26.673   2.867
63443W        W35758   9.233  40.420  10.891
63444W        W35759  16.082  13.663  11.892
63445W        W35760  12.193  17.585  12.065
63446W        W35761  16.164   2.761   4.713
63447W        W35762  18.191  40.011   1.387
63448W        W35763  12.215  10.320  10.050
63449W        W35764  34.613  33.032  14.462
63450W        W35765  28.096   5.795  12.034
63451W        W35766  24.116   1.348   4.340
63452W        W35767  44.838  39.475  12.474
63453W        W35768  18.149  41.892   0.461
63454W        W35769  13.648  40.002  11.120
63455W        W35770  16.289  26.145   3.763
63456W        W35771   8.395  15.250  11.417
63457W        W35772  30.521   1.936  14.907
63458W        W35773  17.612  33.884  12.466
63459W        W35774  39.025  26.663   0.795
63460W        W35775  28.081  24.625   4.763
63461W        W35776  13.684  31.468   2.663
63462W        W35777  26.209  10.162   2.857
63463W        W35778  18.653  14.247   3.747
63464W        W35779  44.886  44.951   4.289
63465W        W35780   3.385  27.475   1.802
63466W        W35781  27.629  23.579   3.695
63467W        W35782   1.473  12.630  11.056
63468W        W35783   7.389   5.301  10.976
63469W        W35784  38.977   4.208   4.670
63470W        W35785  44.754  31.405   4.738
63471W        W35786  31.453  43.280  11.435
63472W        W35787  35.461  31.060   2.357
63473W        W35788  42.454  36.522  14.344
63474W        W35789  35.489  25.560   2.889
63475W        W35790  28.658  41.949  13.027
63476W        W35791  44.894  10.681  14.493
63477W        W35792  11.214  22.213   4.713
63478W        W35793   9.174   6.211   2.826
63479W        W35794   8.894  27.997   5.112
63480W        W35795  28.960  42.509  13.973
63481W        W35796  21.753  22.006   0.402
63482W        W35797  10.779  34.375  10.578
63483W        W35798   2.840  41.488  14.387
63484W        W35799  12.657  39.056   1.810
63485W        W35800   7.873  35.564  11.440
63486W        W35801  11.275  20.164  13.545
63487W        W35802  23.544  24.581   1.877
63488W        W35803  39.011  38.534  12.384
63489W        W35804   3.266  20.558   2.409
63490W        W35805  11.172  37.350  11.907
63491W        W35806  44.266  34.024   1.449
63492W        W35807  16.724  41.441   1.812
63493W        W35808   8.784  27.008  12.080
63494W        W35809   8.715  39.542   2.698
63495W        W35810  39.447  13.201  14.799
63496W        W35811  38.927  41.000  12.051
63497W        W35812  13.190  14.258  10.581
63498W        W35813  19.042  25.061  11.037
63499W        W35814  19.248   6.309  13.477
63500W        W35815  39.554  27.581   0.388
63501W        W35816  42.990  16.291   0.943
63502W        W35817  44.983   1.896   5.292
63503W        W35818  38.926  36.075   2.792
63504W        W35819   2.760   1.266   1.332
63505W        W35820  13.313  25.056  14.306
63506W        W35821  30.056  37.556  10.454
63507W        W35822   7.695  30.009  10.473
63508W        W35823  21.223  14.829  14.764
63509W        W35824  16.733  32.459  13.940
63510W        W35825  20.162  35.516  12.923
63511W        W35826  15.741  43.013  14.931
63512W        W35827  16.270  17.239  13.537
63513W        W35828   6.688  38.424   4.626
63514W        W35829  32.568   4.711  13.997
63515W        W35830  10.806  17.256   1.790
63516W        W35831  30.628  33.602   1.753
63517W        W35832   6.678  16.134  13.979
63518W        W35833   8.212  28.139  13.932
63519W        W35834  31.540  39.383   4.118
63520W        W35835  10.744   4.900  12.966
63521W        W35836   7.244  39.830   3.766
63522W        W35837  39.985   3.276  10.512
63523W        W35838  11.214  19.284  13.378
63524W        W35839  19.066   6.771  13.469
63525W        W35840  23.106  42.831   3.746
63526W        W35841   1.372  10.790  10.583
63527W        W35842  29.573  28.030   3.253
63528W        W35843  19.717  16.265  10.544
63529W        W35844  21.674  37.411   3.767
63530W        W35845  34.425  36.883   4.610
63531W        W35846  15.193  20.147   1.784
63532W        W35847   4.853  25.052   0.731
63533W        W35848   1.965  28.114  11.001
63534W        W35849  39.009  17.616  11.459
63535W        W35850  18.174  19.077  12.929
63536W        W35851   8.160   3.955  11.395
63537W        W35852   6.825  26.619   1.339
63538W        W35853   8.307  11.670  11.093
63539W        W35854   8.367  41.330   3.366
63540W        W35855  41.922  18.787  13.812
63541W        W35856  25.154  42.337   2.876
63542W        W35857   1.254  33.073   1.223
63543W        W35858  36.038   6.730   0.846
63544W        W35859  32.025  19.065  10.478
63545W        W35860   9.384  41.027   4.769
63546W        W35861  34.956  12.661   0.899
63547W        W35862  39.932  11.684   2.832
63548W        W35863  19.266  15.637   2.694
63549W        W35864  27.682  13.323   3.652
63550W        W35865  23.162  25.669   3.226
63551W        W35866  27.980   5.828   4.319
63552W        W35867  32.127  13.117   2.335
63553W        W35868   1.420  30.558  13.426
63554W        W35869   9.342  19.190   0.333
63555W        W35870  43.816  33.936  11.003
63556W        W35871  16.694  27.689   4.680
63557W        W35872  36.475   2.320   0.787
63558W        W35873  34.454  27.055  11.936
63559W        W35874  42.940  42.811  11.377
63560W        W35875  21.257  17.559  14.862
63561W        W35876  36.359  30.583  12.439
63562W        W35877  41.529  11.236  11.070
63563W        W35878  26.676   5.896   5.121
63564W        W35879  13.119   5.286  11.522
63565W        W35880  11.337  26.509   2.290
63566W        W35881  33.988  17.294   1.409
63567W        W35882  42.303  14.134  12.834
63568W        W35883  21.595  40.956  14.453
63569W        W35884  11.353  17.583   3.763
63570W        W35885  42.886   9.704  14.868
63571W        W35886  35.466   2.353  13.993
63572W        W35887  26.070  34.079  14.423
63573W        W35888  11.241  16.581   2.413
63574W        W35889  43.864  29.060  14.840
63575W        W35890   6.231   8.888   2.321
63576W        W35891  27.508  31.414  14.858
63577W        W35892  28.942  42.016  14.936
63578W        W35893  28.086  33.474   3.234
63579W        W35894  17.081   9.207   4.637
63580W        W35895  33.118  19.216   1.271
63581W        W35896  42.014  14.106   3.247
63582W        W35897  24.973   7.295  10.475
63583W        W35898  10.697  36.987  10.623
63584W        W35899  14.275  12.802   4.272
63585W        W35900  17.617   8.752  11.066
63586W        W35901   5.377  34.590   3.795
63587W        W35902  17.719  20.715  12.897
63588W        W35903   6.389  31.540  11.424
63589W        W35904  24.209  34.453  12.477
63590W        W35905  14.639  15.792   4.634
63591W        W35906  17.276  11.180   0.463
63592W        W35907  14.104   2.387  11.993
63593W        W35908  41.499  19.624   0.815
63594W        W35909  23.577   8.354  14.935
63595W        W35910  40.357  11.814  13.357
63596W        W35911  13.760  33.019   0.858
63597W        W35912   3.248  42.815  12.963
63598W        W35913  21.565  14.315   4.692
63599W        W35914  31.583  32.108   0.303
63600W        W35915  10.210  30.161   2.355
63601W        W35916  14.191   6.677   1.699
63602W        W35917  29.597  42.023   2.776
63603W        W35918  22.236  32.986   3.268
63604W        W35919  44.986  40.041   1.933
63605W        W35920  20.549  11.127   3.735
63606W        W35921  44.477  39.051  12.423
63607W        W35922  25.649  32.615   4.268
63608W        W35923  20.731  28.625  14.873
63609W        W35924  12.294  40.042  14.778
63610W        W35925  40.538  30.447   3.768
63611W        W35926  42.980  43.452  13.878
63612W        W35927  41.920   3.294   4.324
63613W        W35928  22.096  38.414   0.824
63614W        W35929  33.453   8.343   3.726
63615W        W35930  35.036  38.427   1.817
63616W        W35931  17.638  15.642   3.850
63617W        W35932  28.527  37.015   0.905
63618W        W35933  24.659  11.175   4.624
63619W        W35934  35.044  17.092   4.838
63620W        W35935  26.991  21.208  12.958
63621W        W35936  41.959  41.352   0.266
63622W        W35937  26.100  30.556   4.308
63623W        W35938  13.324  16.682   4.263
63624W        W35939  18.294  21.546  12.451
63625W        W35940  19.266  42.795  13.904
63626W        W35941  31.096  43.982  13.871
63627W        W35942   8.695   4.795   3.376
63628W        W35943  36.429  41.803   1.732
63629W        W35944  30.026   4.316  13.983
63630W        W35945  27.994  26.670  13.792
63631W        W35946  35.385  28.560   4.715
63632W        W35947  25.706  17.682  13.825
63633W        W35948  14.602  22.688  14.929
63634W        W35949  32.062  35.534  13.852
63635W        W35950  19.617  31.138   0.809
63636W        W35951  17.756  21.138  11.950
63637W        W35952  18.251  24.671  13.989
63638W        W35953   2.394  34.458  11.460
63639W        W35954  38.438  12.205  10.945
63640W        W35955  19.106  30.910  14.293
63641W        W35956   2.397  16.623  14.401
63642W        W35957  35.904  38.018   2.408
63643W        W35958  41.295  22.730  10.528
63644W        W35959  16.767  32.104  14.865
63645W        W35960   4.768  38.910   3.252
63646W        W35961  17.730   6.873  14.344
63647W        W35962  32.593   9.654   2.297
63648W        W35963  17.681  30.080   1.294
63649W        W35964  37.079   6.719  14.831
63650W        W35965  10.291  34.446   4.126
63651W        W35966  18.068  27.636   1.889
63652W        W35967   9.859  28.157   1.763
63653W        W35968  20.658  12.132   1.909
63654W        W35969  20.633  33.522  14.927
63655W        W35970  21.663  43.808   1.903
63656W        W35971  40.980  38.900   0.751
63657W        W35972  25.600  44.333  14.862
63658W        W35973  17.794  36.982   0.303
63659W        W35974  24.980  22.564   1.397
63660W        W35975  35.533   1.313  11.563
63661W        W35976  23.707  31.990  14.908
63662W        W35977  11.810  22.186   2.884
63663W        W35978  22.733  30.514   4.656
63664W        W35979  11.170  23.202   0.749
63665W        W35980  11.309  11.150   2.412
63666W        W35981  10.213   7.363  14.828
63667W        W35982  43.794   7.669  12.414
63668W        W35983   0.323  35.477   4.665
63669W        W35984  36.475  34.087  10.936
63670W        W35985  14.677  18.146  13.542
63671W        W35986  31.573   7.792   1.371
63672W        W35987  30.097  21.685  13.412
63673W        W35988  25.652  41.825  13.513
63674W        W35989  39.892  21.701   2.815
63675W        W35990  44.311  19.048   2.299
63676W        W35991   6.792  13.338   4.667
63677W        W35992  26.644  13.338  11.124
63678W        W35993   3.828   9.749   3.218
63679W        W35994   5.249  32.050  12.534
63680W        W35995  31.904  20.663  12.823
63681W        W35996   5.814  33.434  12.361
63682W        W35997  24.191  44.495   2.892
63683W        W35998   7.301  26.976  14.313
63684W        W35999  30.482  15.237  12.026
63685W        W36000  26.681   2.781   9.997
63686W        W36001  24.528  31.986   2.759
63687W        W36002   0.289  28.674   4.148
63688W        W36003  43.982  38.976   4.254
63689W        W36004  38.357  24.557   3.786
63690W        W36005   8.814   9.307  10.578
63691W        W36006  26.575  30.069   4.661
63692W        W36007  27.120   3.262  13.501
63693W        W36008   6.357   0.443  11.087
63694W        W36009  23.012   5.731   4.160
63695W        W36010  40.859  41.864   3.691
63696W        W36011   9.869  12.135   4.342
63697W        W36012  11.157  20.208  13.064
63698W        W36013  31.132  12.313   1.697
63699W        W36014  34.474   5.923  13.853
63700W        W36015   1.440  24.199  13.945
63701W        W36016   1.762  14.228  11.103
63702W        W36017   4.757  43.301  13.518
63703W        W36018  36.356  38.999   0.276
63704W        W36019   9.889  42.789   2.348
63705W        W36020  23.097   4.857  14.888
63706W        W36021  30.089  11.658  11.860
63707W        W36022  20.226  30.441   4.755
63708W        W36023  13.307  13.828  11.590
63709W        W36024  13.631   4.287  13.410
63710W        W36025   3.715  37.080  14.880
63711W        W36026  40.844  19.089   3.631
63712W        W36027  17.561  44.925  11.862
63713W        W36028  25.598  19.623  14.971
63714W        W36029  13.836  31.592   3.267
63715W        W36030  44.957  42.322  13.862
63716W        W36031   1.797  37.458   3.155
63717W        W36032  36.020  41.371  12.421
63718W        W36033  13.222  28.082   3.839
63719W        W36034  33.471  26.636  13.973
63720W        W36035   7.206  18.769  10.434
63721W        W36036   9.813   6.266   2.306
63722W        W36037   2.308  37.411   2.277
63723W        W36038  15.302  44.444  10.622
63724W        W36039  31.097  23.090   1.225
63725W        W36040   3.770  33.953   0.749
63726W        W36041  25.008  17.556  14.321
63727W        W36042  20.641   5.867   2.280
63728W        W36043  38.862   7.832  12.538
63729W        W36044  40.495  38.481  11.035
63730W        W36045  37.351  22.683   0.731
63731W        W36046  17.289   9.885   5.241
63732W        W36047  16.608   1.293  12.526
63733W        W36048  27.656  40.829   4.608
63734W        W36049  25.210  34.939  12.039
63735W        W36050  22.656  14.120  10.404
63736W        W36051  41.978  43.355   2.793
63737W        W36052  21.680   6.918   3.277
63738W        W36053   4.414  37.367  11.878
63739W        W36054  14.170  26.967   0.857
63740W        W36055  13.811   5.339   2.890
63741W        W36056  10.265   8.881   2.841
63742W        W36057  35.998  22.231   3.828
63743W        W36058  39.839   2.823  13.487
63744W        W36059   7.767  19.096   0.245
63745W        W36060  43.968  38.534   0.349
63746W        W36061   8.788  42.469   3.754
63747W        W36062  31.474   6.705   3.350
63748W        W36063  31.514   5.234  13.027
63749W        W36064  44.418   6.203  12.422
63750W        W36065  37.431  32.637   2.351
63751W        W36066   3.775  21.660  10.495
63752W        W36067  27.056  40.963  11.536
63753W        W36068  43.789  26.616   0.855
63754W        W36069  31.456  23.001  11.046
63755W        W36070   1.944  41.796   5.145
63756W        W36071  31.530   4.376  13.887
63757W        W36072   6.359   6.912  11.602
63758W        W36073  41.408   2.318  12.014
63759W        W36074  34.400  13.147  12.065
63760W        W36075  17.216  44.477   1.306
63761W        W36076   7.832  19.222   3.790
63762W        W36077  22.621  23.213  14.495
63763W        W36078  12.626  29.121   1.401
63764W        W36079  37.975  20.052   0.441
63765W        W36080  38.001  41.482   4.157
63766W        W36081  15.678  29.440  14.938
63767W        W36082  39.536  36.043   1.718
63768W        W36083  24.660  13.124   1.774
63769W        W36084  34.453  24.978  13.812
63770W        W36085  44.436   3.397   1.325
63771W        W36086   5.237  44.431  13.865
63772W        W36087  31.918   8.319   4.340
63773W        W36088  12.132  35.885   1.231
63774W        W36089  21.200  32.606   4.750
63775W        W36090  31.059   5.786   2.810
63776W        W36091  16.584  12.740   0.908
63777W        W36092  35.470  43.342  11.109
63778W        W36093  25.204  32.970   0.858
63779W        W36094  10.771  27.530  12.835
63780W        W36095  18.254  10.872  10.424
63781W        W36096  33.547  22.546  13.985
63782W        W36097  25.482   1.341  14.972
63783W        W36098  42.463   5.411   1.266
63784W        W36099  33.094  15.684  13.523
63785W        W36100  12.704  41.976  11.514
63786W        W36101  44.872  13.145  10.080
63787W        W36102  15.088  35.029  11.923
63788W        W36103  38.415   3.848   0.787
63789W        W36104  15.609  40.521   5.233
63790W        W36105  31.506  13.754  12.912
63791W        W36106  14.286  10.829   1.799
63792W        W36107  34.422   6.825   0.398
63793W        W36108  30.985  22.563  13.414
63794W        W36109  24.673  41.010  12.000
63795W        W36110  20.557  39.531   2.774
63796W        W36111  44.866   5.357   4.682
63797W        W36112  24.489  25.971  11.610
63798W        W36113   9.382  35.512  14.335
63799W        W36114  29.435   7.396   4.638
63800W        W36115  41.514  12.216   4.265
63801W        W36116  25.660  43.965  14.352
63802W        W36117  33.991  37.074  14.859
63803W        W36118  34.456  43.819   0.787
63804W        W36119  17.080  12.856   4.340
63805W        W36120  12.162   0.831  13.528
63806W        W36121   2.880  10.313  10.509
63807W        W36122  20.138   5.290  14.940
63808W        W36123  40.868  25.072   2.670
63809W        W36124   9.309  23.567  13.038
63810W        W36125   6.806  19.667  14.284
63811W        W36126  32.566  41.819  14.365
63812W        W36127   4.306   3.415   1.701
63813W        W36128   8.666  28.079  12.905
63814W        W36129  35.436  30.439   4.198
63815W        W36130  34.984  24.636   0.297
63816W        W36131  21.731  12.674   4.816
63817W        W36132  32.073   6.243   3.788
63818W        W36133  33.034  14.104  14.314
63819W        W36134  22.516  14.280   4.801
63820W        W36135  27.980  41.507   5.260
63821W        W36136  13.609  20.153  12.463
63822W        W36137  12.685  28.503  11.944
63823W        W36138  29.109  33.064  14.899
63824W        W36139   0.473  39.856  14.017
63825W        W36140  16.780  28.622  12.371
63826W        W36141  16.646  39.961  11.523
63827W        W36142  36.577  21.260   3.761
63828W        W36143  38.490   9.192  10.552
63829W        W36144  13.711  35.890  14.881
63830W        W36145  33.888   7.416  12.997
63831W        W36146  16.100  35.479  14.328
63832W        W36147  20.168  31.502   2.669
63833W        W36148  16.726   4.739  14.772
63834W        W36149  35.578   8.392  11.988
63835W        W36150  28.547  36.535  11.121
63836W        W36151  36.563   9.717   3.252
63837W        W36152  15.779  35.084   0.395
63838W        W36153   8.251  29.428  11.053
63839W        W36154  15.707  12.320   2.787
63840W        W36155  44.926  38.955  12.346
63841W        W36156  29.576  26.187  14.506
63842W        W36157   7.881  16.725   3.168
63843W        W36158  22.173  18.677  12.045
63844W        W36159  10.870  31.576   1.778
63845W        W36160  39.940  30.926   2.295
63846W        W36161  33.917  36.000  11.986
63847W        W36162  30.651  24.138  12.918
63848W        W36163   9.866   3.455   2.810
63849W        W36164  13.761  42.383   0.364
63850W        W36165  20.693  24.182  11.069
63851W        W36166   0.756  21.232   0.964
63852W        W36167  41.450   9.292  12.985
63853W        W36168   5.321   9.188  11.064
63854W        W36169  10.376  23.135  10.493
63855W        W36170  32.004   2.957  13.369
63856W        W36171  12.787  16.083  11.959
63857W        W36172  24.587  33.379  14.505
63858W        W36173  18.787  15.117   4.333
63859W        W36174  14.191  38.350   4.269
63860W        W36175  41.504  32.992   0.923
63861W        W36176  23.698   1.296   3.312
63862W        W36177   4.224  29.656   2.387
63863W        W36178   0.958  16.295   3.662
63864W        W36179   1.314   3.456  13.312
63865W        W36180  29.426  31.527  12.067
63866W        W36181  40.422  20.768   1.339
63867W        W36182  35.994   3.280   0.866
63868W        W36183  20.554  13.287  13.957
63869W        W36184  36.918  24.217   5.759
63870W        W36185  13.680  20.269   3.247
63871W        W36186  16.712   4.857  13.057
63872W        W36187  20.036  21.052   5.145
63873W        W36188   0.914  17.077  10.972
63874W        W36189  11.147  44.271  10.112
63875W        W36190  25.686   5.416  12.087
63876W        W36191  38.451  43.893  12.875
63877W        W36192  40.425  31.508  10.623
63878W        W36193  34.893  43.996   4.206
63879W        W36194  10.326  15.731  10.944
63880W        W36195  42.299  13.649   1.796
63881W        W36196  14.309   6.375  11.545
63882W        W36197  24.709   1.265   4.342
63883W        W36198  13.232  22.580   1.385
63884W        W36199  42.879  33.440   2.819
63885W        W36200  21.737  42.824  11.503
63886W        W36201  34.555  13.758  12.340
63887W        W36202  10.276  25.129  13.439
63888W        W36203   5.284  37.882   4.270
63889W        W36204  10.673   8.836  13.051
63890W        W36205  22.184  14.781   3.694
63891W        W36206  38.570  39.933  12.887
63892W        W36207  10.367   1.315  13.397
63893W        W36208   5.890  40.344  11.599
63894W        W36209  15.284  14.262  12.443
63895W        W36210  35.396  36.367  10.939
63896W        W36211  43.368  18.655   0.904
63897W        W36212  40.955  37.933   3.367
63898W        W36213  19.636  35.575  11.044
63899W        W36214  23.717   6.358  11.605
63900W        W36215   2.251  38.329   3.156
63901W        W36216  32.391  27.655   2.841
63902W        W36217  36.570  16.588  12.871
63903W        W36218  37.529   2.338   5.150
63904W        W36219  25.114  14.319   4.202
63905W        W36220  17.302   7.351  11.531
63906W        W36221   8.796  35.904  13.422
63907W        W36222  37.882  19.627   5.093
63908W        W36223  39.363  19.710   5.240
63909W        W36224   5.735  19.213   1.333
63910W        W36225  37.962  22.581  13.050
63911W        W36226  31.542  35.068   4.144
63912W        W36227  19.708  42.913   4.739
63913W        W36228  37.946   4.392  11.423
63914W        W36229  10.683   5.736  10.514
63915W        W36230  21.638  11.838  12.095
63916W        W36231   5.281  29.513   3.267
63917W        W36232  44.341  14.146   3.718
63918W        W36233   4.927  14.646  10.985
63919W        W36234   1.398  12.283  11.965
63920W        W36235   4.809   2.443   0.776
63921W        W36236  38.416  30.494  11.451
63922W        W36237  25.711  34.540   1.766
63923W        W36238  25.500  42.027   1.261
63924W        W36239  11.837  39.392  12.545
63925W        W36240  42.978  11.662   4.321
63926W        W36241  37.946  10.307  12.062
63927W        W36242   3.336  25.701   1.906
63928W        W36243   6.268  17.603  12.564
63929W        W36244  23.046   2.945   0.335
63930W        W36245   8.404  38.474  11.860
63931W        W36246  10.878  21.038  12.062
63932W        W36247  10.760  38.387  13.503
63933W        W36248  32.505  14.746   1.695
63934W        W36249  39.388  32.419   2.237
63935W        W36250  13.737   5.798   0.476
63936W        W36251  10.305   5.720  12.881
63937W        W36252   7.849   5.307  12.090
63938W        W36253  42.819  13.807  14.901
63939W        W36254  22.742  35.472   0.830
63940W        W36255  11.653  33.537  10.063
63941W        W36256   2.435  14.647  13.515
63942W        W36257  44.269   8.236   3.226
63943W        W36258   0.863  16.216   4.334
63944W        W36259  25.685  44.920   0.401
63945W        W36260  42.806   8.667   4.206
63946W        W36261  13.277   9.309  11.099
63947W        W36262  37.515  42.786  11.414
63948W        W36263   8.243  10.233   2.288
63949W        W36264  27.053  31.961  13.329
63950W        W36265  15.099  22.117   2.895
63951W        W36266   6.727  18.242  12.074
63952W        W36267  39.560  24.506  10.424
63953W        W36268  16.116   1.815   5.148
63954W        W36269  11.327  31.083   4.716
63955W        W36270  38.388   4.811  10.430
63956W        W36271  15.791  37.452   3.236
63957W        W36272  38.370  34.104  11.504
63958W        W36273  25.108   6.352  12.393
63959W        W36274   7.395  33.054   4.764
63960W        W36275  22.168  22.236   0.267
63961W        W36276   2.276  22.648  14.989
63962W        W36277  40.544  44.333  13.842
63963W        W36278  28.088  40.004   1.816
63964W        W36279  10.288  44.855  10.906
63965W        W36280  23.702  15.731   2.295
63966W        W36281  27.957  25.064  14.333
63967W        W36282   8.296  17.561   1.700
63968W        W36283  27.941  18.223  10.569
63969W        W36284  34.483  17.745  14.978
63970W        W36285  13.775  34.549   3.821
63971W        W36286  24.708  10.834   2.864
63972W        W36287  36.949  22.519   4.745
63973W        W36288  26.615  10.829   4.218
63974W        W36289  36.545  39.826   0.847
63975W        W36290  15.674  27.126  14.324
63976W        W36291  41.899  40.317   3.288
63977W        W36292  28.176  23.699  13.351
63978W        W36293  40.341  23.519   1.725
63979W        W36294  38.038  20.601   1.266
63980W        W36295  30.497  19.081   0.355
63981W        W36296  42.294   4.276   3.291
63982W        W36297  15.619  20.532   2.891
63983W        W36298  42.449  29.161  12.448
63984W        W36299   1.817  13.344   3.733
63985W        W36300  32.567  33.456  13.350
63986W        W36301   1.270  13.785  13.836
63987W        W36302  35.374  41.497   4.166
63988W        W36303  32.392  41.878  11.430
63989W        W36304  14.129  42.300   3.855
63990W        W36305  16.097  36.376   0.755
63991W        W36306  44.913   3.238   4.754
63992W        W36307  36.994  34.393   4.737
63993W        W36308  32.118  42.944   3.257
63994W        W36309  42.954   6.417  12.092
63995W        W36310  28.579   3.903  12.096
63996W        W36311  25.148   9.305   3.754
63997W        W36312  25.549  26.501   4.142
63998W        W36313  30.987  18.578  12.342
63999W        W36314   2.776  17.702  12.485
64000W        W36315  13.109  15.624  12.551
64001W        W36316  10.685  34.990   4.115
64002W        W36317  41.471   2.723   0.870
64003W        W36318   6.741  26.135   1.859
64004W        W36319  30.562  10.229  10.442
64005W        W36320  22.561  22.059  14.283
64006W        W36321  37.974  22.023  13.546
64007W        W36322  23.539  33.476  13.536
64008W        W36323   7.721  22.061  14.337
64009W        W36324  10.178  29.567   3.846
64010W        W36325  23.223  18.058   0.463
64011W        W36326  24.582  40.970   0.295
64012W        W36327   2.885  42.995   0.310
64013W        W36328  33.961  37.831  10.972
64014W        W36329   2.938  42.362   4.720
64015W        W36330   3.302  16.792  12.867
64016W        W36331  23.711  19.077  14.282
64017W        W36332  18.618  44.492  10.008
64018W        W36333   4.411  30.076  14.345
64019W        W36334  42.807  10.857   5.193
64020W        W36335  43.376  34.534   4.622
64021W        W36336   1.828  44.363  10.419
64022W        W36337  13.647   9.727  13.322
64023W        W36338  42.783   3.932  14.869
64024W        W36339   0.974   3.756  14.927
64025W        W36340   3.256  41.885   4.698
64026W        W36341  15.721  18.288  12.853
64027W        W36342  18.148  25.183   4.352
64028W        W36343  43.932  30.023  14.880
64029W        W36344  23.091  33.909   1.728
64030W        W36345  24.217  40.810   1.829
64031W        W36346  41.896  43.970   4.296
64032W        W36347   5.380  15.706  14.373
64033W        W36348  27.011  18.275   0.338
64034W        W36349  19.098  10.756  10.087
64035W        W36350   8.827  25.596   4.236
64036W        W36351   2.372  33.946   1.717
64037W        W36352  42.429  42.932   1.900
64038W        W36353  37.835  23.172  10.578
64039W        W36354  40.028   7.321  10.426
64040W        W36355  20.183  28.162  12.879
64041W        W36356  30.927  10.176   0.844
64042W        W36357   3.904  32.113   2.226
64043W        W36358  26.013  26.043  14.350
64044W        W36359  40.030  42.802   0.950
64045W        W36360  27.551  33.481  14.018
64046W        W36361  12.843  26.057   4.813
64047W        W36362  41.526  44.421   0.782
64048W        W36363  11.793  44.391   1.828
64049W        W36364  12.209  22.735   2.890
64050W        W36365  13.162  20.600   3.348
64051W        W36366  19.205  14.668   1.875
64052W        W36367   3.790  36.934  12.493
64053W        W36368  29.147  18.547   2.755
64054W        W36369  40.843  39.894  10.552
64055W        W36370   6.704  20.579   2.880
64056W        W36371   4.778  33.510  11.509
64057W        W36372   9.842  40.413  14.926
64058W        W36373   8.400  30.499  10.579
64059W        W36374   0.969  38.980   3.712
64060W        W36375  11.350  44.823  10.406
64061W        W36376  35.029  29.586   5.162
64062W        W36377  13.609  33.006  11.488
64063W        W36378  29.041  35.896  13.976
64064W        W36379  33.014   3.299  10.986
64065W        W36380  22.229   2.737   3.328
64066W        W36381  28.462  44.779  14.897
64067W        W36382  12.356  21.667   1.274
64068W        W36383  38.842  34.960   4.321
64069W        W36384  10.357  40.367   2.353
64070W        W36385   6.397   7.381   2.260
64071W        W36386  23.196   4.439   2.691
64072W        W36387   4.837  20.137  12.444
64073W        W36388  12.621   8.267   0.943
64074W        W36389  33.583  40.429   2.732
64075W        W36390  29.001  40.461   1.856
64076W        W36391  22.502  12.238  13.458
64077W        W36392  17.171  39.997  10.946
64078W        W36393  22.567  20.178   0.396
64079W        W36394  25.218  30.020  13.943
64080W        W36395  23.020  18.610   4.659
64081W        W36396  14.139  36.564  12.460
64082W        W36397   7.747  27.962  10.080
64083W        W36398   2.444   4.350   4.115
64084W        W36399  44.946  29.062   4.731
64085W        W36400  19.649  32.934  10.622
64086W        W36401  24.071  31.954  10.889
64087W        W36402  11.801   4.787   3.205
64088W        W36403  13.322  33.953  10.434
64089W        W36404   4.251  13.199   4.829
64090W        W36405  39.476  11.353  13.506
64091W        W36406  24.000   3.848  13.367
64092W        W36407   6.680   5.768   2.729
64093W        W36408  31.471  35.492  11.428
64094W        W36409  19.151  31.976   0.869
64095W        W36410  36.916  24.697   9.577
64096W        W36411  21.204  22.595  12.838
64097W        W36412   4.354  42.432   3.714
64098W        W36413   0.909  33.086   2.391
64099W        W36414   3.442  37.985  10.531
64100W        W36415  39.559  26.535   0.261
64101W        W36416  32.926  30.640   0.289
64102W        W36417  10.268  41.946  14.379
64103W        W36418   8.717  27.945  13.960
64104W        W36419  36.980  13.315   4.332
64105W        W36420   8.280   6.750   1.712
64106W        W36421  22.595  15.244   2.873
64107W        W36422   9.209  17.721   4.679
64108W        W36423   9.298  28.105   9.957
64109W        W36424  25.212  40.354  14.305
64110W        W36425  14.258  25.185  12.096
64111W        W36426  14.256  44.983   0.263
64112W        W36427  27.129   2.815  13.837
64113W        W36428  31.019  27.539  14.911
64114W        W36429  20.584  22.502   0.441
64115W        W36430  10.680  37.360  14.010
64116W        W36431  23.671  19.627  13.460
64117W        W36432  41.964   1.465   1.221
64118W        W36433   6.773  35.544   4.212
64119W        W36434  44.480   7.318   1.429
64120W        W36435  34.502  27.994  12.442
64121W        W36436  30.616  36.926  12.046
64122W        W36437  38.363  31.639   2.192
64123W        W36438  10.360  22.215   9.951
64124W        W36439  32.020  20.618  11.012
64125W        W36440  10.253  15.094   0.745
64126W        W36441   8.332   9.689  12.063
64127W        W36442  23.091  27.524   0.902
64128W        W36443  28.539  44.818   1.767
64129W        W36444  30.537  17.294  10.921
64130W        W36445  15.320   4.358   1.760
64131W        W36446  15.776  21.756  13.009
64132W        W36447  43.925  27.047  14.411
64133W        W36448  23.027  42.879  14.935
64134W        W36449  22.686  42.473  10.982
64135W        W36450  24.590  10.324  11.908
64136W        W36451  19.204  26.082  13.470
64137W        W36452   6.371   1.738  10.981
64138W        W36453  39.397  35.501   4.705
64139W        W36454  23.216  37.485   3.770
64140W        W36455  41.994  10.372   3.285
64141W        W36456  12.724   7.413  13.312
64142W        W36457  25.536   5.779  11.862
64143W        W36458  32.047  33.397   0.287
64144W        W36459  15.204  21.059   0.260
64145W        W36460  26.561  16.682   4.644
64146W        W36461   8.857  37.908   2.315
64147W        W36462  30.583   4.340  11.110
64148W        W36463  31.598  41.498  10.605
64149W        W36464  22.514  31.430  11.945
64150W        W36465  14.124  19.068  14.768
64151W        W36466  16.621  13.182  13.905
64152W        W36467  17.219  43.807   3.783
64153W        W36468  10.314  40.971   4.130
64154W        W36469  15.677  15.739   0.925
64155W        W36470  28.643  30.452  12.520
64156W        W36471  35.100  30.058  14.491
64157W        W36472   1.732  15.160  13.007
64158W        W36473  27.083  32.933  13.943
64159W        W36474  38.961  41.489  12.911
64160W        W36475  25.549  41.310   1.890
64161W        W36476  26.122  11.755   2.778
64162W        W36477  17.749  17.252  12.065
64163W        W36478  31.958  33.077   4.173
64164W        W36479  14.311  12.320  14.973
64165W        W36480  13.235   2.834   2.254
64166W        W36481  34.581  29.009   3.704
64167W        W36482  18.734  35.587  14.022
64168W        W36483  18.055   6.836   1.930
64169W        W36484  19.627  36.075  11.054
64170W        W36485  33.040  40.847  10.944
64171W        W36486  42.913  38.911  13.408
64172W        W36487  28.644  28.630   4.137
64173W        W36488  16.811  13.638  12.054
64174W        W36489  26.128   4.289   9.933
64175W        W36490  23.578   0.327   4.697
64176W        W36491   7.318   7.754   3.634
64177W        W36492  25.518  14.780  10.540
64178W        W36493  37.546  25.607  12.032
64179W        W36494  23.060  42.794   2.737
64180W        W36495  21.062  24.142   2.767
64181W        W36496  28.120  11.749  12.422
64182W        W36497  16.150  12.193  13.953
64183W        W36498   8.332  27.591   2.399
64184W        W36499  16.797  13.667  14.470
64185W        W36500  30.933  36.541  13.851
64186W        W36501  35.942  38.560   4.269
64187W        W36502   4.699  34.070   0.866
64188W        W36503  10.186  25.054  10.447
64189W        W36504  25.011  24.537  11.079
64190W        W36505  41.880  31.484   4.276
64191W        W36506  23.545  24.078  13.005
64192W        W36507  12.251  37.977   0.292
64193W        W36508  44.291  37.472  12.048
64194W        W36509   3.250  28.057  14.772
64195W        W36510  12.735  17.210   3.797
64196W        W36511  31.007  14.831   3.791
64197W        W36512  24.686  42.347  10.542
64198W        W36513   1.786  11.199  11.950
64199W        W36514  31.935  41.395  12.909
64200W        W36515  15.621  27.164  12.006
64201W        W36516  22.707  19.752   3.768
64202W        W36517  18.117  27.174  12.070
64203W        W36518  24.653  15.664   0.341
64204W        W36519  33.505   9.320   1.697
64205W        W36520  36.426  34.476   3.350
64206W        W36521  19.198  12.142   0.441
64207W        W36522  20.704  20.624  13.836
64208W        W36523  43.954  35.870  13.834
64209W        W36524  37.573   5.769   3.211
64210W        W36525  14.636  21.724   2.841
64211W        W36526  24.097  42.441   0.817
64212W        W36527  30.577  15.157   2.374
64213W        W36528  33.390  10.862   1.715
64214W        W36529   5.362  38.477  12.848
64215W        W36530  42.993  23.196   0.407
64216W        W36531   8.224  10.738   4.675
64217W        W36532  28.459   4.342   4.775
64218W        W36533  15.589  30.909   9.955
64219W        W36534   7.215   8.169  11.384
64220W        W36535   0.877  13.749   1.345
64221W        W36536  17.687  27.624   2.718
64222W        W36537   7.202  32.104  11.082
64223W        W36538  41.452  41.927  12.475
64224W        W36539   9.278  37.917  12.954
64225W        W36540  32.060   1.736   4.831
64226W        W36541  44.390   8.323   1.304
64227W        W36542  37.375  30.448  12.058
64228W        W36543  22.119   4.829  10.080
64229W        W36544  14.760  33.393   0.814
64230W        W36545  25.711  21.528   0.839
64231W        W36546  17.727  17.591  14.479
64232W        W36547  28.585  43.863   1.873
64233W        W36548   0.905   8.732  13.365
64234W        W36549  40.477  23.073  12.001
64235W        W36550  34.908  34.054   1.238
64236W        W36551  19.056  20.139   1.404
64237W        W36552  10.676  30.638  12.403
64238W        W36553   2.830  28.032  13.466
64239W        W36554  16.739   1.251  13.864
64240W        W36555   1.449  26.596   0.328
64241W        W36556  22.144  39.041  14.341
64242W        W36557   0.796   2.787  14.876
64243W        W36558  41.963   2.835  10.977
64244W        W36559   4.788   7.671   3.746
64245W        W36560  12.688   5.711   0.273
64246W        W36561  24.157  13.846   2.685
64247W        W36562  28.081   4.245   2.216
64248W        W36563   9.725  42.949  11.433
64249W        W36564  13.254  38.366  14.363
64250W        W36565  40.958   5.755  11.942
64251W        W36566  11.260   7.858  13.851
64252W        W36567  20.181  32.044  12.430
64253W        W36568  18.078  15.756   3.361
64254W        W36569  19.732  25.967  14.851
64255W        W36570  44.953   1.334   3.723
64256W        W36571  38.832  10.728   2.307
64257W        W36572  22.541   6.712   2.677
64258W        W36573  39.466  23.635  14.904
64259W        W36574   1.956  12.281   9.483
64260W        W36575   4.372  44.920   0.744
64261W        W36576  23.706  26.966  11.381
64262W        W36577  37.888  22.663   4.730
64263W        W36578   9.165  18.771   2.347
64264W        W36579  24.206  37.471  13.908
64265W        W36580  22.535  39.522   4.722
64266W        W36581   5.786  41.429  14.873
64267W        W36582  31.927  30.140   3.695
64268W        W36583  25.003  27.160   2.761
64269W        W36584  44.308  33.070  14.812
64270W        W36585  19.167  35.852   1.835
64271W        W36586  13.284   3.874  12.440
64272W        W36587  27.986  11.165  12.512
64273W        W36588   2.396   9.776  14.316
64274W        W36589  15.092  19.066  14.785
64275W        W36590  13.692  33.008  10.970
64276W        W36591  20.557  20.153  12.856
64277W        W36592  20.091   2.901   1.379
64278W        W36593  26.583  38.357   4.741
64279W        W36594  15.289  38.360  14.447
64280W        W36595   5.346  15.746   3.839
64281W        W36596   9.646  11.293  12.456
64282W        W36597   9.685   8.847   2.311
64283W        W36598  13.689  39.976  14.967
64284W        W36599  43.465  42.800   2.760
64285W        W36600  29.524  43.005  13.387
64286W        W36601  44.876   6.722   2.356
64287W        W36602  21.067   7.796  11.420
64288W        W36603  15.642  25.496   1.301
64289W        W36604   0.820   4.790  13.832
64290W        W36605  43.825  27.043   0.419
64291W        W36606  20.717  25.513   2.837
64292W        W36607   0.366  28.023  14.286
64293W        W36608  31.511  10.714   1.251
64294W        W36609  22.135  29.573   1.342
64295W        W36610  12.253  32.551  11.449
64296W        W36611   7.387  20.551   0.745
64297W        W36612  13.815  15.163  12.873
64298W        W36613   0.338  18.166   1.746
64299W        W36614  42.952  30.556   3.700
64300W        W36615  10.817  16.144  11.404
64301W        W36616  35.554  20.625   4.740
64302W        W36617  17.618   0.904   1.719
64303W        W36618  39.030  38.518  14.507
64304W        W36619   2.759  32.915  11.610
64305W        W36620  31.137  27.494  13.962
64306W        W36621  34.549  10.878  13.393
64307W        W36622  36.548   8.220   4.197
64308W        W36623   3.895  40.359  10.972
64309W        W36624  10.799   0.398  14.822
64310W        W36625  38.032  29.509   0.749
64311W        W36626  12.215  44.370  10.565
64312W        W36627  12.760  17.697  10.561
64313W        W36628  38.554  19.149  12.459
64314W        W36629   6.413  25.013  12.556
64315W        W36630   3.816  28.577  12.882
64316W        W36631  12.762  43.902   2.224
64317W        W36632  43.341  12.846  14.893
64318W        W36633  24.164  23.012  10.635
64319W        W36634  26.506  43.472   1.728
64320W        W36635  18.790  18.080  12.039
64321W        W36636  40.879  33.439  10.971
64322W        W36637  39.043  18.677   3.816
64323W        W36638  14.818  27.136  10.470
64324W        W36639   0.257  21.593   3.263
64325W        W36640  36.884  33.065  13.972
64326W        W36641  43.316  44.785  12.382
64327W        W36642  27.614  16.634  10.985
64328W        W36643  19.263  29.172  11.506
64329W        W36644   3.242  25.642  12.445
64330W        W36645  29.441  26.590   0.737
64331W        W36646  14.184  41.932  11.376
64332W        W36647   0.813   1.930  10.496
64333W        W36648  29.086  37.838   3.238
64334W        W36649  12.772  18.113   0.360
64335W        W36650   9.733  15.779   4.125
64336W        W36651  35.090   1.970   3.818
64337W        W36652   6.854  41.517   3.758
64338W        W36653  28.943   7.902   3.330
64339W        W36654  15.800   7.262  11.067
64340W        W36655   7.402  33.929  13.995
64341W        W36656  40.025  15.812   3.255
64342W        W36657  38.571  14.256   5.086
64343W        W36658   3.338  30.546   2.321
64344W        W36659  32.952  44.341   0.849
64345W        W36660  28.933  11.634  14.487
64346W        W36661  28.471  29.651  11.024
64347W        W36662  22.671  25.510  11.492
64348W        W36663  38.041  23.580  10.605
64349W        W36664  25.028   8.835  12.054
64350W        W36665  23.186   0.913  13.048
64351W        W36666  23.576  29.166   0.336
64352W        W36667   6.334  34.423  14.488
64353W        W36668   3.316  22.083  10.584
64354W        W36669  20.755  10.755   1.824
64355W        W36670   0.763  27.674  14.874
64356W        W36671  17.070   3.444  11.962
64357W        W36672  17.233   9.346   2.240
64358W        W36673  34.376  11.192  12.559
64359W        W36674   5.869  29.165  11.108
64360W        W36675  30.993  24.163   2.719
64361W        W36676  18.244   8.884   1.385
64362W        W36677   0.429  42.971   3.380
64363W        W36678   8.835  33.556  13.460
64364W        W36679  37.016  35.507  12.397
64365W        W36680   2.395  14.166  11.611
64366W        W36681  16.575  38.329   5.282
64367W        W36682  22.183  13.766   1.721
64368W        W36683  26.464  31.011   1.863
64369W        W36684  40.956  17.575  12.400
64370W        W36685  39.868  14.691  14.783
64371W        W36686  21.538  28.664  11.423
64372W        W36687  38.827  18.261  13.511
64373W        W36688  11.761   1.394   3.818
64374W        W36689  43.917   6.756  10.933
64375W        W36690   5.728  39.953  10.964
64376W        W36691  39.821  24.977   3.862
64377W        W36692  40.396   1.450   1.820
64378W        W36693   2.320  39.445  12.440
64379W        W36694   9.700  24.046   2.760
64380W        W36695  29.564  36.374   1.417
64381W        W36696  35.389   9.234  10.495
64382W        W36697  20.030  22.527  12.974
64383W        W36698  28.169   2.288   3.866
64384W        W36699  39.848  12.197  13.791
64385W        W36700  29.600   9.889  11.447
64386W        W36701  15.262  44.923  14.988
64387W        W36702  19.279  25.005   0.434
64388W        W36703  31.012  35.869  14.942
64389W        W36704  31.119  40.519   2.345
64390W        W36705  15.602  26.549  11.887
64391W        W36706  24.627  23.681   4.743
64392W        W36707  39.455   0.489   3.707
64393W        W36708  15.167  38.001  12.464
64394W        W36709   4.341  39.501   2.376
64395W        W36710  39.841   1.888   2.860
64396W        W36711  17.696  35.869  13.946
64397W        W36712  40.043   8.382  11.470
64398W        W36713  28.115   2.801  11.559
64399W        W36714  28.472   7.384  13.969
64400W        W36715  30.109  14.720   1.380
64401W        W36716  35.499  27.948  11.596
64402W        W36717  10.660  16.746   5.697
64403W        W36718  25.498  20.651   4.782
64404W        W36719  14.818  27.147  13.045
64405W        W36720  10.369   5.821  11.542
64406W        W36721  15.298  27.630   1.345
64407W        W36722  30.918  31.126  14.478
64408W        W36723   3.422  34.883   5.307
64409W        W36724  20.207  13.771   1.885
64410W        W36725  25.530   8.883   0.353
64411W        W36726  34.110  39.945   1.702
64412W        W36727  32.991  16.192   2.818
64413W        W36728  26.654  38.505   0.788
64414W        W36729  36.572  19.137  12.563
64415W        W36730  40.014  18.229  13.818
64416W        W36731   0.747  10.342   1.882
64417W        W36732  42.861  16.685  12.545
64418W        W36733  39.504  44.431  14.831
64419W        W36734  33.902   5.816   2.251
64420W        W36735  22.529  12.265   3.647
64421W        W36736   4.213  20.160   3.640
64422W        W36737  28.587  12.657  11.883
64423W        W36738  38.468  37.043   1.878
64424W        W36739  29.602  25.554  13.525
64425W        W36740  32.979  22.018  12.003
64426W        W36741   6.721  37.080   0.461
64427W        W36742  24.481   3.710  14.363
64428W        W36743  18.606  14.186  10.003
64429W        W36744  19.247  15.732   4.271
64430W        W36745   5.899  22.663  10.913
64431W        W36746  32.965  12.290   0.322
64432W        W36747  11.623  13.349  13.526
64433W        W36748  28.441  10.829   3.304
64434W        W36749  28.612  34.454   1.696
64435W        W36750  28.566  30.589  10.500
64436W        W36751  20.566  34.501   4.823
64437W        W36752  27.468  21.024  11.493
64438W        W36753   0.819  21.064  11.579
64439W        W36754  15.652  35.007  13.496
64440W        W36755   9.822   4.280  12.379
64441W        W36756  41.451  20.256  12.842
64442W        W36757  21.121   1.923   3.772
64443W        W36758  35.561  17.693  12.521
64444W        W36759  42.509  27.958   2.247
64445W        W36760  44.859  30.429  10.510
64446W        W36761  18.154  36.988  10.519
64447W        W36762  25.648  17.231   0.267
64448W        W36763  25.603  41.419  12.419
64449W        W36764   4.828   4.699  12.372
64450W        W36765  40.927  24.707   4.339
64451W        W36766   9.347  28.460   0.275
64452W        W36767  39.949  29.489  13.012
64453W        W36768  42.808   9.207  11.960
64454W        W36769  32.606  15.704   4.627
64455W        W36770   4.785  40.020  14.486
64456W        W36771   2.905   6.871  14.021
64457W        W36772   5.248   5.408   1.726
64458W        W36773   4.794   8.876  11.505
64459W        W36774  40.948  18.147   0.838
64460W        W36775  14.722  37.393   3.383
64461W        W36776  30.070  32.108   0.355
64462W        W36777   4.732  15.083   1.882
64463W        W36778  25.548  35.053   0.440
64464W        W36779   4.743  22.661   0.450
64465W        W36780  30.538  36.975  11.574
64466W        W36781  25.570  18.555  13.460
64467W        W36782   5.899  17.715   3.269
64468W        W36783  30.007  42.922  11.417
64469W        W36784   0.392  21.571  13.796
64470W        W36785  35.971   3.775  11.054
64471W        W36786  10.766  35.878  13.901
64472W        W36787  30.627  26.603  11.503
64473W        W36788   2.759  28.499  10.472
64474W        W36789  34.602  34.592   2.854
64475W        W36790  22.708   7.247  13.049
64476W        W36791  24.648  21.115  14.803
64477W        W36792  30.116  22.623  14.469
64478W        W36793  26.628  34.509  13.879
64479W        W36794   0.984  23.008   4.295
64480W        W36795  40.037   9.885  11.880
64481W        W36796  16.609  29.942   5.196
64482W        W36797  27.611   4.797   4.725
64483W        W36798   5.800  12.325  12.066
64484W        W36799  12.711  20.738   2.332
64485W        W36800  24.188  26.081   2.744
64486W        W36801  29.645  27.102   4.291
64487W        W36802  17.216  36.971  14.830
64488W        W36803  25.108   9.222  12.894
64489W        W36804  41.911  22.120   2.226
64490W        W36805   2.924  13.226   4.796
64491W        W36806  22.175  41.965   1.840
64492W        W36807   3.946  22.006   2.315
64493W        W36808  31.042  18.151   0.254
64494W        W36809  17.752  19.187   1.900
64495W        W36810   8.781  41.973   3.846
64496W        W36811   2.964   0.374  12.020
64497W        W36812   4.770  32.032  14.993
64498W        W36813   6.192  11.707  13.454
64499W        W36814  16.585   3.287   2.362
64500W        W36815  42.795  41.848   4.120
64501W        W36816  33.561  20.558   1.912
64502W        W36817   3.257  24.511   2.720
64503W        W36818   4.822   4.403  11.600
64504W        W36819  44.821   4.243   4.347
64505W        W36820  14.639  18.693   0.322
64506W        W36821  28.640   4.721   1.891
64507W        W36822  34.061  38.004  13.868
64508W        W36823  43.428  38.357  11.543
64509W        W36824  24.060  41.443  11.517
64510W        W36825  29.970  42.031   1.754
64511W        W36826  19.763  15.804   4.341
64512W        W36827  15.612  44.407  11.964
64513W        W36828  19.097  34.390  14.780
64514W        W36829  17.661  26.674  12.507
64515W        W36830   8.814  29.057   2.286
64516W        W36831   9.316  43.316  13.465
64517W        W36832  14.622  41.884  14.943
64518W        W36833  36.885  30.035  13.822
64519W        W36834  12.362  39.875  12.430
64520W        W36835  19.152  14.681   0.900
64521W        W36836   0.828   5.831   9.978
64522W        W36837  17.557  22.679  11.399
64523W        W36838  38.901   6.235  14.358
64524W        W36839  33.947  39.822   2.828
64525W        W36840  29.531  35.051  10.129
64526W        W36841   9.194  29.976  13.021
64527W        W36842  18.673  20.055   3.286
64528W        W36843  40.396   5.688  10.953
64529W        W36844   6.346   2.449  11.598
64530W        W36845  30.049  10.878  11.881
64531W        W36846   0.923  43.400   1.265
64532W        W36847  18.205  30.925   3.796
64533W        W36848  20.647  27.960   2.897
64534W        W36849  27.115  25.711   4.217
64535W        W36850   3.228  34.879   0.900
64536W        W36851  32.497  30.568   0.285
64537W        W36852  43.513   9.822   9.641
64538W        W36853  35.026  30.505   3.637
64539W        W36854  36.545   1.869   2.257
64540W        W36855  33.410  28.589   0.360
64541W        W36856  27.561  32.400  12.533
64542W        W36857  36.989   5.249   3.793
64543W        W36858  10.138  44.994   3.166
64544W        W36859  14.614   4.748  11.976
64545W        W36860  35.898  24.534  13.062
64546W        W36861  38.862  34.504   1.445
64547W        W36862  31.954  23.608   3.728
64548W        W36863  42.480   3.907   2.347
64549W        W36864  43.336  28.445   3.685
64550W        W36865  17.729  19.081   2.787
64551W        W36866  36.418   3.754  14.428
64552W        W36867  10.167  22.606   2.851
64553W        W36868  36.878  12.695  10.635
64554W        W36869  40.003  23.584  11.528
64555W        W36870  42.843  41.968  14.956
64556W        W36871  35.534   5.908   4.261
64557W        W36872  20.228   4.918   3.352
64558W        W36873  33.971  24.003   1.704
64559W        W36874  11.651  14.827  13.814
64560W        W36875   1.419  21.055   0.917
64561W        W36876   4.732   9.356   3.753
64562W        W36877   8.864  11.788  12.086
64563W        W36878  19.163   9.763  13.951
64564W        W36879   0.440  26.118   0.868
64565W        W36880   7.371  10.797  12.550
64566W        W36881   8.169  31.409   2.847
64567W        W36882  12.664   6.770  13.014
64568W        W36883  13.280  16.652   2.871
64569W        W36884  41.388  31.056  14.909
64570W        W36885   1.324  17.716  13.331
64571W        W36886  39.485   2.757   2.787
64572W        W36887  40.342  37.430  10.629
64573W        W36888  37.889  20.580   2.242
64574W        W36889  30.479  24.000  10.907
64575W        W36890  37.074  13.735  12.014
64576W        W36891  21.253  28.436  12.413
64577W        W36892  19.668   0.760  12.511
64578W        W36893  17.654   2.389   0.272
64579W        W36894  42.783   8.804  13.374
64580W        W36895   5.727  16.756   3.774
64581W        W36896  14.337  44.858   1.420
64582W        W36897  41.792  30.637  14.397
64583W        W36898  36.907  26.681  12.004
64584W        W36899  42.887  41.979  12.551
64585W        W36900  26.671   7.337  14.856
64586W        W36901  32.433  27.482  14.933
64587W        W36902  15.229   9.830  10.552
64588W        W36903  39.009   1.781  10.413
64589W        W36904  41.946   3.923  11.938
64590W        W36905  17.777   8.251  13.312
64591W        W36906   7.883  34.433   3.741
64592W        W36907   4.753  21.630   3.640
64593W        W36908  39.449  25.569   3.171
64594W        W36909  10.251   7.241   2.848
64595W        W36910  11.263  27.595   4.630
64596W        W36911   9.236  12.614   0.293
64597W        W36912  41.835  15.738  14.863
64598W        W36913  12.208  23.624  12.463
64599W        W36914   6.920  27.033   2.804
64600W        W36915   0.853  31.588   4.834
64601W        W36916  19.703  44.812   1.318
64602W        W36917  32.090  26.626   2.383
64603W        W36918  35.039  43.818   0.478
64604W        W36919   5.348   6.257  11.503
64605W        W36920  11.714  36.514  12.913
64606W        W36921  26.105  36.521  14.298
64607W        W36922  34.412  43.874  14.467
64608W        W36923  31.086  24.094   1.410
64609W        W36924  31.440  28.546  13.874
64610W        W36925  22.742   2.725   0.749
64611W        W36926  20.170  21.025   0.740
64612W        W36927  36.426  28.477   2.288
64613W        W36928  12.679  42.514   1.787
64614W        W36929  24.548  17.598  10.622
64615W        W36930  14.720  30.940   0.917
64616W        W36931   6.377  34.074   0.361
64617W        W36932  33.928  20.048  12.021
64618W        W36933  20.028  37.438  14.452
64619W        W36934  35.900  28.094   5.317
64620W        W36935   9.335  37.392  11.553
64621W        W36936  15.269  40.869   2.688
64622W        W36937  31.153   3.779  11.579
64623W        W36938  26.969   0.925   2.665
64624W        W36939  21.565  26.111   3.851
64625W        W36940  10.348  44.282  13.312
64626W        W36941  39.965  44.388   2.270
64627W        W36942  13.145  30.036  14.908
64628W        W36943  27.670  12.192  14.515
64629W        W36944  31.146  32.052  10.124
64630W        W36945  44.362  28.654  10.905
64631W        W36946  17.587  43.899  12.549
64632W        W36947   0.429  44.913  13.982
64633W        W36948   2.440   7.677   3.721
64634W        W36949  27.576  10.310   2.186
64635W        W36950   4.795  11.779   2.337
64636W        W36951   9.684  25.078   0.812
64637W        W36952  13.270  44.391  12.028
64638W        W36953  13.229  16.183  10.992
64639W        W36954   9.160  17.731   2.727
64640W        W36955  10.735   6.738  12.504
64641W        W36956   8.900   3.813  14.485
64642W        W36957  29.162  38.004   3.836
64643W        W36958  12.248   7.899  14.980
64644W        W36959  29.579   6.200  14.953
64645W        W36960  43.946  36.561  13.325
64646W        W36961  29.033  19.554   4.659
64647W        W36962   8.670  41.809  14.476
64648W        W36963  25.493  41.489  11.902
64649W        W36964  40.856  27.158   1.414
64650W        W36965  20.056   1.248  11.107
64651W        W36966  26.982  16.114  14.330
64652W        W36967  10.857  19.058  10.627
64653W        W36968  40.463  25.040   2.339
64654W        W36969  12.223  17.284   1.372
64655W        W36970  25.670   9.690   2.392
64656W        W36971  15.753  10.805  11.981
64657W        W36972   7.225  31.577   3.682
64658W        W36973  38.553  20.265  10.502
64659W        W36974  37.050  21.063   3.831
64660W        W36975  39.385  31.564   0.892
64661W        W36976  17.758  25.000   3.305
64662W        W36977  20.752  33.066   4.775
64663W        W36978  11.138  18.231   0.967
64664W        W36979  36.010  44.924   3.634
64665W        W36980   2.354  40.888  13.482
64666W        W36981  13.690  26.534  14.422
64667W        W36982   4.269  11.664  11.986
64668W        W36983  20.748  38.869  12.344
64669W        W36984   2.273  34.406   4.137
64670W        W36985  20.530  29.168   4.757
64671W        W36986  14.331  37.440  12.072
64672W        W36987   0.465  15.709  11.098
64673W        W36988  36.390   9.387   0.760
64674W        W36989   6.205  11.368  14.940
64675W        W36990   2.748   5.752  14.458
64676W        W36991   6.794  30.154   4.790
64677W        W36992  23.666  38.846  14.872
64678W        W36993  33.454  20.625   4.656
64679W        W36994  14.119  12.330   0.243
64680W        W36995  16.200   9.645  10.454
64681W        W36996  29.994  38.328   0.296
64682W        W36997  24.627  43.004   1.260
64683W        W36998   1.870  34.004  14.442
64684W        W36999  11.625   1.810  13.856
64685W        W37000  38.364  42.392   4.607
64686W        W37001  24.109  14.304   3.687
64687W        W37002  33.968  27.527  13.929
64688W        W37003  31.457  34.045   0.465
64689W        W37004  41.888   9.302   1.885
64690W        W37005   9.794   0.361   2.751
64691W        W37006   1.448   7.285  13.351
64692W        W37007   7.790  15.695  10.052
64693W        W37008  27.492  26.029   0.313
64694W        W37009  15.649   3.326   3.697
64695W        W37010  30.454   1.458  12.928
64696W        W37011   0.755  31.909  11.101
64697W        W37012  18.596  44.873  14.328
64698W        W37013  30.005  34.992   3.860
64699W        W37014  35.528   6.275   3.646
64700W        W37015  31.502  37.022  13.924
64701W        W37016  23.181   0.841   4.310
64702W        W37017   6.896  33.384   2.336
64703W        W37018  21.613  29.573   0.948
64704W        W37019  42.468  16.268  14.758
64705W        W37020   1.461   2.937  10.946
64706W        W37021   1.829   3.349   0.344
64707W        W37022  32.032   3.779   4.611
64708W        W37023  30.036  19.681   3.208
64709W        W37024   2.421  43.480   3.378
64710W        W37025  35.468  10.856  14.794
64711W        W37026  41.348  30.417   0.483
64712W        W37027  27.449  31.049   0.345
64713W        W37028  25.641  38.569  12.001
64714W        W37029  11.225  28.544   0.336
64715W        W37030  19.147  38.528  13.816
64716W        W37031  32.026  12.631   0.755
64717W        W37032  20.246   0.382  12.539
64718W        W37033  16.701   7.854  14.965
64719W        W37034   5.837   7.873  10.892
64720W        W37035  20.041  29.979  12.426
64721W        W37036  11.170  37.560  12.992
64722W        W37037  20.158  11.332  12.403
64723W        W37038   9.304   1.460  10.472
64724W        W37039  43.439  11.370   2.681
64725W        W37040  11.344  19.216  11.895
64726W        W37041  11.136  16.569   5.303
64727W        W37042   0.408  33.981  11.560
64728W        W37043  23.630  40.849  12.504
64729W        W37044  44.796  23.225   0.291
64730W        W37045   8.706   1.962   4.837
64731W        W37046  31.972  15.261  14.941
64732W        W37047  41.352  40.491   0.419
64733W        W37048  44.829  31.096  13.499
64734W        W37049  23.020  35.104  12.044
64735W        W37050  16.107  27.456  13.860
64736W        W37051  34.517  15.118   4.598
64737W        W37052  41.417  34.925  13.975
64738W        W37053   2.795  27.082   2.670
64739W        W37054  16.188  41.297  10.435
64740W        W37055  11.198  25.141   4.291
64741W        W37056  36.430   0.341  10.923
64742W        W37057  41.415   7.683  12.366
64743W        W37058  19.055  37.887   4.686
64744W        W37059  44.939  23.010   2.777
64745W        W37060  10.732  43.455   1.842
64746W        W37061  21.049  26.050   4.700
64747W        W37062   9.292  28.941  14.808
64748W        W37063  14.632  15.136  14.469
64749W        W37064  37.448   8.344   0.464
64750W        W37065  41.002  16.576   3.339
64751W        W37066   4.355  43.499  11.008
64752W        W37067  41.015  21.258   2.798
64753W        W37068  23.637  28.992  12.342
64754W        W37069  22.552  17.607   4.198
64755W        W37070  12.266  17.642  10.966
64756W        W37071  22.699  38.834  11.998
64757W        W37072   6.197  11.704   2.241
64758W        W37073  20.742  12.647  13.794
64759W        W37074   8.666  34.069   1.759
64760W        W37075   9.794  17.174  11.899
64761W        W37076  12.700  43.942   1.216
64762W        W37077  40.468   2.279   0.438
64763W        W37078  22.214  18.740  14.868
64764W        W37079  20.700   7.270   0.445
64765W        W37080  27.018   1.773   1.821
64766W        W37081  25.127   2.960  13.832
64767W        W37082  22.075  11.643  12.375
64768W        W37083  25.064  11.834   2.184
64769W        W37084  15.289   6.420  10.432
64770W        W37085  33.413  38.571  12.030
64771W        W37086  40.866  29.930  13.475
64772W        W37087  41.410  38.389   4.226
64773W        W37088  18.268   4.383  13.048
64774W        W37089  27.687   3.420   4.611
64775W        W37090  16.767   8.805  14.770
64776W        W37091  36.030   2.765   2.717
64777W        W37092  23.702  19.263   4.794
64778W        W37093  30.461  28.030   3.306
64779W        W37094  22.729   6.692   3.720
64780W        W37095  10.228  43.501  10.925
64781W        W37096  41.865  24.658   4.666
64782W        W37097  40.990  21.752   2.749
64783W        W37098  38.843   1.737   0.371
64784W        W37099  20.618  12.819   3.841
64785W        W37100  39.994  32.930   1.245
64786W        W37101  44.443  23.183  11.099
64787W        W37102  34.977   6.777   2.344
64788W        W37103  23.181  18.590   0.797
64789W        W37104   0.816   7.404  13.321
64790W        W37105  10.668  31.983   0.308
64791W        W37106   7.775  15.705  12.825
64792W        W37107  37.527  40.509   0.317
64793W        W37108  43.490  34.427   1.717
64794W        W37109  24.090   2.751  14.849
64795W        W37110  31.911  29.142  10.475
64796W        W37111  29.945  29.003  10.521
64797W        W37112  11.768  15.282   4.770
64798W        W37113  13.130  22.170   4.645
64799W        W37114   9.199  16.117   1.295
64800W        W37115  38.404  29.108   3.780
64801W        W37116  10.294  18.604   4.670
64802W        W37117  15.596  37.917   0.268
64803W        W37118   3.937  37.059  13.335
64804W        W37119  18.216  32.588   0.809
64805W        W37120  41.789  30.121   0.967
64806W        W37121  24.062  41.536   4.290
64807W        W37122   0.278  24.112  10.537
64808W        W37123  19.730  40.812   9.504
64809W        W37124  23.649  31.117  12.480
64810W        W37125  38.829  23.629  10.943
64811W        W37126  34.903   2.903   4.678
64812W        W37127   5.855  12.269  13.446
64813W        W37128  31.992  42.824  12.083
64814W        W37129  32.577  36.484  14.491
64815W        W37130   9.178  32.604   3.251
64816W        W37131  42.468  44.863  14.780
64817W        W37132  24.634  41.944   2.860
64818W        W37133  17.676   6.345   2.818
64819W        W37134  13.178  29.471   0.359
64820W        W37135   2.461  23.999  11.486
64821W        W37136  44.409  17.250   1.728
64822W        W37137  39.516  14.192   1.228
64823W        W37138  13.161  14.296  12.375
64824W        W37139  41.384  21.546  11.573
64825W        W37140  29.549  26.677   0.443
64826W        W37141  19.692   4.918  12.409
64827W        W37142  33.494   4.247   4.742
64828W        W37143  18.183  19.113  11.076
64829W        W37144  38.921  12.650  14.919
64830W        W37145  10.277  13.267  13.414
64831W        W37146  12.678  41.535   2.725
64832W        W37147  31.585  37.483  14.313
64833W        W37148  18.665   9.697  14.761
64834W        W37149  39.057  30.121   0.826
64835W        W37150   4.208  14.661  12.557
64836W        W37151   9.666   3.888   2.365
64837W        W37152   7.883  17.296  12.857
64838W        W37153  22.139  44.433  14.879
64839W        W37154  36.404  39.474  13.999
64840W        W37155  33.544  15.631   1.336
64841W        W37156  25.013  30.601  11.469
64842W        W37157  15.187  35.034  10.906
64843W        W37158  20.116  35.437  14.895
64844W        W37159  29.525  17.091   2.902
64845W        W37160  25.077  42.390   4.785
64846W        W37161  13.780  13.807  13.515
64847W        W37162  26.630  36.954   2.384
64848W        W37163  40.471   3.797   2.711
64849W        W37164  10.654   5.834  12.034
64850W        W37165  13.131  36.043  14.374
64851W        W37166  29.095  21.139  14.401
64852W        W37167  38.471  13.731   3.165
64853W        W37168   3.445  20.622   0.877
64854W        W37169  43.281  34.371  13.510
64855W        W37170   5.357  21.705  14.336
64856W        W37171   5.334  38.393   4.289
64857W        W37172   8.855  23.112  11.527
64858W        W37173  23.238  34.405   1.830
64859W        W37174  22.009  40.021  13.878
64860W        W37175  40.537  44.960  12.465
64861W        W37176  28.092  14.213   3.200
64862W        W37177  15.123  31.644   0.307
64863W        W37178  40.024  16.202   1.833
64864W        W37179  31.964  35.558   3.713
64865W        W37180  32.468  15.200  14.340
64866W        W37181   1.299  36.533   5.668
64867W        W37182  34.067   5.255  14.391
64868W        W37183   5.877  25.982   1.343
64869W        W37184  20.663  23.696  12.044
64870W        W37185  30.492   5.197   1.236
64871W        W37186  42.507   5.829  11.115
64872W        W37187  16.150  14.655   1.318
64873W        W37188  31.601  24.498  11.452
64874W        W37189  17.757  21.150  12.415
64875W        W37190   0.343  10.210  14.499
64876W        W37191  30.957  23.631  12.938
64877W        W37192  22.102  24.630  13.978
64878W        W37193  24.997  23.633   3.687
64879W        W37194   4.900  30.054   3.779
64880W        W37195  28.133  18.266   2.827
64881W        W37196  17.798  22.242   4.177
64882W        W37197   3.950  11.847   2.867
64883W        W37198   6.865  32.494   2.695
64884W        W37199  14.708   4.938   9.967
64885W        W37200  16.080  22.049  11.520
64886W        W37201   9.777   4.718  13.980
64887W        W37202  23.034  35.864  10.517
64888W        W37203  29.562  44.809  10.404
64889W        W37204  11.341   0.878  10.576
64890W        W37205  22.588  15.727   3.792
64891W        W37206  16.579  34.403  11.528
64892W        W37207   6.912   5.311   0.288
64893W        W37208  25.549   1.783   1.307
64894W        W37209  20.178  32.985  11.020
64895W        W37210   8.161   0.972   3.826
64896W        W37211  17.764  44.403  11.567
64897W        W37212  27.451  35.009   1.875
64898W        W37213  35.075  23.732  12.345
64899W        W37214   3.782  34.016  11.604
64900W        W37215  28.001  32.084   2.358
64901W        W37216   9.782  37.850  14.869
64902W        W37217  16.697   2.280  12.568
64903W        W37218  20.694   6.365   3.318
64904W        W37219  25.142  39.032   0.473
64905W        W37220  15.793  37.350  14.020
64906W        W37221  30.992  20.532  10.568
64907W        W37222  17.767   2.368   4.225
64908W        W37223  31.043  13.799   2.688
64909W        W37224  32.391  28.105  10.500
64910W        W37225  31.572   7.750   3.163
64911W        W37226  31.969   5.350  12.014
64912W        W37227   4.938  29.015   1.389
64913W        W37228   4.318   6.691  11.547
64914W        W37229  39.461  35.581   4.228
64915W        W37230  21.723  12.623  14.025
64916W        W37231   3.794  26.536  12.419
64917W        W37232  31.568   3.410  12.448
64918W        W37233  40.897   0.769   2.900
64919W        W37234  15.633  30.625   2.753
64920W        W37235  25.701   5.875   2.681
64921W        W37236   0.443  39.346   4.639
64922W        W37237   6.834  17.776  10.929
64923W        W37238  32.937  32.448   3.832
64924W        W37239  39.026  40.827   3.815
64925W        W37240  12.283  26.201  12.574
64926W        W37241  41.421  42.516   1.254
64927W        W37242   5.258  40.330  13.021
64928W        W37243   6.863  30.594   1.355
64929W        W37244  22.562  28.035  10.525
64930W        W37245  34.059  28.960  14.931
64931W        W37246  12.722  39.414   4.626
64932W        W37247  25.201  42.494   3.270
64933W        W37248  26.112  13.721  14.910
64934W        W37249   2.276  15.159  13.947
64935W        W37250  38.032   2.912   0.792
64936W        W37251  41.885  31.987   3.312
64937W        W37252  16.639  20.557   3.825
64938W        W37253  42.472   5.421  14.791
64939W        W37254  44.286  12.323   4.704
64940W        W37255  34.383  26.595  10.976
64941W        W37256  33.991  17.063   3.661
64942W        W37257  31.109  31.560  11.518
64943W        W37258  17.061  38.443   2.313
64944W        W37259   1.837  37.358  14.383
64945W        W37260  27.665   6.881  14.482
64946W        W37261   1.947   1.798  11.943
64947W        W37262  15.773  11.796  11.934
64948W        W37263  18.615  23.125  14.993
64949W        W37264  38.347  23.718  13.416
64950W        W37265  16.779  33.029   1.754
64951W        W37266  31.009  37.539   0.805
64952W        W37267  12.255  41.852  12.022
64953W        W37268  30.958   0.419  12.979
64954W        W37269  44.415  38.520   1.295
64955W        W37270  43.480  30.445  12.018
64956W        W37271  44.417  19.121  13.313
64957W        W37272  10.675  19.638   5.227
64958W        W37273  42.793  32.527  10.471
64959W        W37274   7.219  41.988  14.784
64960W        W37275  12.637   4.706  13.910
64961W        W37276  28.446   7.727  14.295
64962W        W37277   4.880  44.469  14.927
64963W        W37278   7.831   2.842  11.479
64964W        W37279  24.662  18.563   3.863
64965W        W37280  15.792  11.815   3.225
64966W        W37281  28.157  13.168   1.294
64967W        W37282  30.945  18.746  10.529
64968W        W37283  21.138  19.678  13.505
64969W        W37284  35.033  14.097  13.874
64970W        W37285  40.490  36.006  11.937
64971W        W37286  40.916  16.721   4.663
64972W        W37287  17.578  33.497  12.035
64973W        W37288  15.629  29.026  12.397
64974W        W37289  32.457   3.907   1.895
64975W        W37290   7.770  21.042   3.633
64976W        W37291  44.265  11.211   2.714
64977W        W37292   5.230  17.214   2.832
64978W        W37293  14.160  24.095   3.721
64979W        W37294  37.024  42.306  12.907
64980W        W37295  15.289  44.846  13.349
64981W        W37296  21.226  18.095   4.832
64982W        W37297   5.841  16.289   2.386
64983W        W37298   6.333  34.108  14.334
64984W        W37299  10.344   6.858  12.026
64985W        W37300  13.146  10.275   0.278
64986W        W37301  44.292  18.692   2.686
64987W        W37302  10.663   9.875  10.418
64988W        W37303  39.415  28.939  11.963
64989W        W37304  28.085  10.326  13.850
64990W        W37305  26.151  44.381   4.330
64991W        W37306  14.149   1.924  14.855
64992W        W37307  27.539  26.539  14.381
64993W        W37308  33.477  31.425   3.223
64994W        W37309   1.732  34.527   4.742
64995W        W37310  22.722   8.657   3.869
64996W        W37311  30.009   3.336   3.736
64997W        W37312  14.096  36.572   3.277
64998W        W37313  37.525  43.511   1.790
64999W        W37314   9.769  18.779   2.836
65000W        W37315   2.231  14.738  11.378
65001W        W37316   0.818  16.196  12.387
65002W        W37317  42.020  39.979  10.100
65003W        W37318  41.504  25.058  11.540
65004W        W37319  25.506  42.988   1.436
65005W        W37320  38.417  18.608  11.395
65006W        W37321   9.280  20.099   2.793
65007W        W37322  14.767  16.627   0.751
65008W        W37323  39.480  36.369  14.875
65009W        W37324  44.776  16.096  13.952
65010W        W37325  28.524   1.427   3.710
65011W        W37326   9.717  28.061  13.356
65012W        W37327   9.877  34.043  13.345
65013W        W37328  44.818   3.751   2.873
65014W        W37329  11.162  28.055   4.709
65015W        W37330  43.836  16.114   3.175
65016W        W37331  41.341  17.244  14.442
65017W        W37332  43.985   2.849   4.147
65018W        W37333  13.756  33.998   2.783
65019W        W37334   1.948  12.245   9.936
65020W        W37335  11.196  36.369  10.469
65021W        W37336  14.115  24.686   1.297
65022W        W37337  27.015  32.550   4.814
65023W        W37338  30.547   2.867   1.874
65024W        W37339  20.060   6.730   4.197
65025W        W37340  28.450  25.649  13.034
65026W        W37341   5.257   5.822   0.767
65027W        W37342  25.665  36.545   2.240
65028W        W37343  31.081  15.188  12.887
65029W        W37344  18.132  25.516  12.510
65030W        W37345  27.537  27.149   2.719
65031W        W37346  32.990  17.574   3.807
65032W        W37347  12.277  17.209   5.238
65033W        W37348  18.686  26.981  13.526
65034W        W37349  40.980  18.074   1.790
65035W        W37350  30.446  43.408  10.960
65036W        W37351  13.178  36.593   2.248
65037W        W37352  21.608   8.841   2.366
65038W        W37353  36.450   5.802   4.771
65039W        W37354  44.819  20.088  11.954
65040W        W37355   1.942  38.547   1.403
65041W        W37356  15.281  16.663  14.836
65042W        W37357  24.196  10.686   2.259
65043W        W37358  44.439  13.682   3.740
65044W        W37359  16.642   1.478   0.769
65045W        W37360   6.223  11.777   4.749
65046W        W37361  18.231  15.800   4.221
65047W        W37362  24.611  35.960  10.966
65048W        W37363  37.938   4.757  10.150
65049W        W37364  43.915   4.401   4.732
65050W        W37365  44.496  43.439   4.793
65051W        W37366  28.971   6.182   3.184
65052W        W37367  14.279  18.774  11.001
65053W        W37368   7.836   4.901   2.703
65054W        W37369  24.621  25.076  10.430
65055W        W37370  20.077  29.141   1.279
65056W        W37371  17.787  38.358  11.549
65057W        W37372   9.162   7.416   4.789
65058W        W37373  16.152   8.682   2.244
65059W        W37374  23.053   7.852  14.420
65060W        W37375  44.335  38.025  14.022
65061W        W37376  21.647   1.270  11.887
65062W        W37377  30.581  39.527   4.713
65063W        W37378  31.483  42.432  13.453
65064W        W37379   9.368  26.191   2.357
65065W        W37380  32.595  44.906  12.465
65066W        W37381  32.952   6.225   2.375
65067W        W37382  21.678  30.548  10.944
65068W        W37383  29.004  24.120  12.881
65069W        W37384  15.161  24.619  10.985
65070W        W37385  24.057  37.001  11.013
65071W        W37386   2.455  35.521   9.966
65072W        W37387  19.148  36.849   0.957
65073W        W37388   2.965  15.118  14.510
65074W        W37389   9.277  21.167   3.341
65075W        W37390  44.459  39.862  12.082
65076W        W37391  13.178  30.027  10.904
65077W        W37392  33.405  16.265   3.784
65078W        W37393  25.038  23.017   1.840
65079W        W37394  15.321  44.455   0.788
65080W        W37395   2.308  37.969  13.025
65081W        W37396  29.015  25.011  11.948
65082W        W37397  29.474  17.149   1.718
65083W        W37398  42.300  26.111  10.514
65084W        W37399  10.795  34.439  13.469
65085W        W37400  34.442   6.197   1.833
65086W        W37401   9.175   2.378   0.287
65087W        W37402  37.929  18.078  12.462
65088W        W37403  11.139  31.986   3.249
65089W        W37404  12.150  30.086  12.841
65090W        W37405  25.505  35.007   4.633
65091W        W37406   5.927  37.878  12.517
65092W        W37407  14.246   3.260  14.981
65093W        W37408  19.208  34.977  14.470
65094W        W37409  27.011  13.779  12.375
65095W        W37410  26.121  14.281  10.628
65096W        W37411  22.568  28.102  11.027
65097W        W37412   2.922  32.626   2.356
65098W        W37413  15.695   8.776  14.497
65099W        W37414  19.139  22.202   2.687
65100W        W37415  20.757  10.225  14.940
65101W        W37416   5.909   7.315  12.979
65102W        W37417  36.927  42.958  13.406
65103W        W37418   2.932  37.082  13.036
65104W        W37419  31.060  20.186  12.446
65105W        W37420   6.764  20.746  14.321
65106W        W37421  43.908  13.682  12.936
65107W        W37422  20.064  13.243  12.429
65108W        W37423  21.135  12.830  13.064
65109W        W37424   8.345  25.614  11.558
65110W        W37425  39.013  27.055   3.284
65111W        W37426  40.034   2.911   4.732
65112W        W37427  27.493   6.254  14.490
65113W        W37428   8.225  14.147   3.318
65114W        W37429   8.744  11.838   0.886
65115W        W37430  18.773  41.536  12.475
65116W        W37431   8.390  43.775   2.707
65117W        W37432   4.449  29.002  10.937
65118W        W37433  35.458  15.701  11.064
65119W        W37434  31.055   1.900   3.213
65120W        W37435  18.252  26.193  13.529
65121W        W37436  15.645  32.615   3.341
65122W        W37437  23.635   2.955  11.091
65123W        W37438  32.047   3.222  14.895
65124W        W37439  27.985  31.625  13.387
65125W        W37440  20.039   8.361  13.798
65126W        W37441  28.602  44.978   2.265
65127W        W37442   2.872  17.232  11.568
65128W        W37443  36.956  14.147  12.049
65129W        W37444   4.822  35.521  12.965
65130W        W37445   0.753  26.603   3.328
65131W        W37446  40.844  23.039   1.218
65132W        W37447   6.875  31.505   3.380
65133W        W37448  24.674  30.618   4.315
65134W        W37449  44.966   5.311   0.804
65135W        W37450  19.185  13.778   4.728
65136W        W37451   6.791  32.441  10.480
65137W        W37452  31.536  33.401  10.473
65138W        W37453   5.787  30.948   3.693
65139W        W37454   0.978  37.500   0.944
65140W        W37455   1.461  30.551   3.677
65141W        W37456  15.189  13.701   0.373
65142W        W37457  13.226  10.704   3.319
65143W        W37458   3.929  15.770   2.795
65144W        W37459  42.498  39.893   0.967
65145W        W37460  24.036  23.725   0.904
65146W        W37461  29.538   1.888   0.279
65147W        W37462   3.450  27.007   2.782
65148W        W37463  14.325   3.894   2.825
65149W        W37464  37.870  19.043  13.430
65150W        W37465  28.599  37.464   1.257
65151W        W37466  37.978   4.298  13.545
65152W        W37467  17.774  14.102  11.455
65153W        W37468  35.854  34.965  13.370
65154W        W37469  37.955  18.555   3.655
65155W        W37470  43.853  35.555  11.960
65156W        W37471  33.456  35.095   0.863
65157W        W37472  12.753  18.166  12.364
65158W        W37473  39.989   9.842   3.688
65159W        W37474  26.161  32.955   9.948
65160W        W37475  14.693  15.772   2.757
65161W        W37476  44.958  13.664   2.337
65162W        W37477  41.997  21.674   4.599
65163W        W37478   0.475  36.518  12.889
65164W        W37479  40.815   7.366   2.783
65165W        W37480   9.383   5.695  10.510
65166W        W37481  29.439  21.573  10.639
65167W        W37482  21.596  38.370   3.857
65168W        W37483  32.500  27.186   4.776
65169W        W37484  14.195  18.184  12.004
65170W        W37485  36.427   8.836   3.770
65171W        W37486  38.866  21.050   4.695
65172W        W37487  18.645  37.552   1.823
65173W        W37488  35.572  34.607  11.055
65174W        W37489  43.295  41.460   1.432
65175W        W37490  28.951   6.810  12.976
65176W        W37491  19.723  11.675   3.177
65177W        W37492   6.321  39.990  12.855
65178W        W37493  36.488   4.883   2.404
65179W        W37494   1.274  38.056  13.389
65180W        W37495   1.971  22.516  11.515
65181W        W37496  44.325  40.374  12.355
65182W        W37497  21.078   0.945  11.425
65183W        W37498  28.130  12.758   4.175
65184W        W37499  43.853   6.761  12.498
65185W        W37500  31.915   3.798   2.842
65186W        W37501  14.144  36.029  10.589
65187W        W37502  34.071   2.360   1.898
65188W        W37503  31.519   8.243  13.370
65189W        W37504  31.029   7.178   3.746
65190W        W37505  13.148  25.693  12.045
65191W        W37506  31.023  12.785   3.705
65192W        W37507  36.916  33.511  12.997
65193W        W37508   2.768  35.049  13.512
65194W        W37509  26.951  39.865   3.328
65195W        W37510  21.150  39.434   2.755
65196W        W37511  35.534  40.399  13.311
65197W        W37512  29.626  17.137   4.649
65198W        W37513  15.715  30.590  10.008
65199W        W37514  16.751  19.210   1.862
65200W        W37515  16.259  29.568  11.861
65201W        W37516  18.281  38.976   2.223
65202W        W37517  37.928  43.919   3.240
65203W        W37518  15.666  26.680  10.923
65204W        W37519  40.819  14.151   3.174
65205W        W37520   0.828  22.028  13.376
65206W        W37521  37.554   1.951  10.484
65207W        W37522  10.160  24.604   0.830
65208W        W37523  20.583  44.802   1.261
65209W        W37524   8.395  19.094  13.796
65210W        W37525  32.978  41.858  12.930
65211W        W37526  16.775   6.213   0.768
65212W        W37527  18.261  39.402  12.842
65213W        W37528  12.776  41.906   0.829
65214W        W37529  41.006  20.707  14.816
65215W        W37530  16.730  37.505  13.864
65216W        W37531  20.214  30.486   1.787
65217W        W37532  30.163   8.746   4.778
65218W        W37533  13.195   1.939  14.484
65219W        W37534  25.064   6.740   3.848
65220W        W37535  14.670  12.665   0.370
65221W        W37536  38.913   5.287  11.984
65222W        W37537  29.447  40.443  12.581
65223W        W37538  33.947  21.078  12.436
65224W        W37539  17.251  28.161  14.420
65225W        W37540  35.995  20.674   2.246
65226W        W37541  43.418  39.415  11.593
65227W        W37542  37.901   6.203  13.449
65228W        W37543  19.714  43.395   4.665
65229W        W37544  33.028  12.282   2.377
65230W        W37545  17.615  31.548   4.197
65231W        W37546  12.140  21.057  12.411
65232W        W37547  40.930  23.081  10.905
65233W        W37548  11.295  13.220   4.767
65234W        W37549  29.966  30.445  14.303
65235W        W37550  43.421  43.989  13.309
65236W        W37551  39.398  42.433   2.389
65237W        W37552   6.687  25.627  13.020
65238W        W37553   6.769  12.729   3.363
65239W        W37554   1.291  15.246   4.130
65240W        W37555  33.963   3.248   2.808
65241W        W37556  25.642   3.222  14.286
65242W        W37557  39.491  41.871  10.431
65243W        W37558  25.484  26.620   0.336
65244W        W37559  44.466  44.792   3.674
65245W        W37560   9.712  19.107  12.519
65246W        W37561  22.720  19.634   1.277
65247W        W37562   2.298   2.895  14.897
65248W        W37563  10.319  11.824  11.470
65249W        W37564  30.620   6.766  14.334
65250W        W37565  19.207  31.097   2.877
65251W        W37566  29.004   7.232   0.947
65252W        W37567  44.349  19.738  14.471
65253W        W37568  25.989  38.022  14.761
65254W        W37569  17.679  20.541  12.392
65255W        W37570  11.674  29.580   4.202
65256W        W37571   0.786  15.663  11.600
65257W        W37572   7.364   4.210   0.335
65258W        W37573  27.083  26.505  12.347
65259W        W37574  43.812  14.299  10.464
65260W        W37575  31.063  11.190  13.536
65261W        W37576   7.819  13.113   1.430
65262W        W37577  28.649  31.971   2.869
65263W        W37578  12.692  40.828  13.013
65264W        W37579  20.563  10.197  11.933
65265W        W37580  33.129  43.369   4.691
65266W        W37581  32.546   0.275   0.255
65267W        W37582  14.131   2.769  14.396
65268W        W37583  28.073  29.078  14.846
65269W        W37584   2.926  19.136  13.354
65270W        W37585   4.903   0.429  13.030
65271W        W37586  33.011   7.172  14.302
65272W        W37587   3.410  44.845   3.737
65273W        W37588  12.824  40.842   2.878
65274W        W37589  29.054  12.614   3.192
65275W        W37590  17.204  31.402   0.786
65276W        W37591  44.788  20.181  14.032
65277W        W37592  35.479  17.564   3.823
65278W        W37593  27.532  29.515   2.852
65279W        W37594  38.975   8.810  13.390
65280W        W37595   4.733   5.890  10.538
65281W        W37596  28.448  38.503  12.864
65282W        W37597  28.439  20.150   3.235
65283W        W37598  44.325   4.703   1.872
65284W        W37599  15.094  11.163   2.887
65285W        W37600  25.695  22.724   3.248
65286W        W37601  20.583  41.335   0.790
65287W        W37602   5.242  35.974  10.472
65288W        W37603   5.297  19.709  12.862
65289W        W37604  20.092  31.956  13.527
65290W        W37605  26.137  18.780  12.000
65291W        W37606  32.417   4.286   2.313
65292W        W37607  16.764  36.077   1.256
65293W        W37608  30.958  36.025  10.527
65294W        W37609   2.433  15.290   2.686
65295W        W37610  11.373  16.648  11.375
65296W        W37611  22.226  28.497   3.151
65297W        W37612  16.604  13.305  12.021
65298W        W37613   0.354  21.606   1.791
65299W        W37614  38.353   0.323  11.102
65300W        W37615  26.055  10.295  11.553
65301W        W37616  34.999  18.274  10.126
65302W        W37617  41.946   3.297  14.505
65303W        W37618   9.647   0.429   4.704
65304W        W37619  27.943  33.889  14.942
65305W        W37620  38.343   3.833  14.351
65306W        W37621  18.608  25.113  13.036
65307W        W37622  24.135  14.656  10.951
65308W        W37623  28.473   5.869  12.896
65309W        W37624  17.232  38.016   4.174
65310W        W37625  43.336  40.316   2.209
65311W        W37626   9.844  12.199  10.914
65312W        W37627  37.046  19.199  14.955
65313W        W37628  26.117  12.294   2.774
65314W        W37629  10.696  13.706   2.677
65315W        W37630  18.237  18.101   0.305
65316W        W37631  33.890  31.638   2.875
65317W        W37632  43.853  23.695   0.301
65318W        W37633  20.593  30.916   0.260
65319W        W37634  30.539  25.145  13.398
65320W        W37635  15.236   6.404   4.327
65321W        W37636  31.913   2.930   1.935
65322W        W37637  33.503  38.070   0.244
65323W        W37638  20.592  35.549  14.381
65324W        W37639  32.528   0.268  14.836
65325W        W37640  35.405  28.502  14.394
65326W        W37641  26.125  40.311   4.683
65327W        W37642  44.312  11.197  10.919
65328W        W37643  16.598  13.749  10.618
65329W        W37644  31.095  16.131  14.282
65330W        W37645  36.469  44.801  13.452
65331W        W37646  44.279  10.824   2.782
65332W        W37647  42.356  26.998  14.967
65333W        W37648   7.859  16.812  12.496
65334W        W37649  40.963   5.764   0.847
65335W        W37650   3.350  43.996   3.169
65336W        W37651  30.649  39.437   3.667
65337W        W37652  13.168   4.421   4.217
65338W        W37653  21.569  25.489  12.474
65339W        W37654  19.674  33.124  13.471
65340W        W37655  15.653  24.993   2.775
65341W        W37656  24.703   2.450   3.247
65342W        W37657  36.437   3.304   0.371
65343W        W37658  11.715  31.057  14.933
65344W        W37659  14.753  25.123  14.983
65345W        W37660  36.846  10.807   4.671
65346W        W37661  10.307  30.136   0.747
65347W        W37662  20.723  42.397  11.041
65348W        W37663  29.021   4.326  14.825
65349W        W37664   9.645   4.330   3.195
65350W        W37665   3.253   2.863  10.593
65351W        W37666  37.900  10.215  11.545
65352W        W37667  28.577  23.676   1.775
65353W        W37668  27.079  29.573   0.813
65354W        W37669  23.128  42.326   0.808
65355W        W37670   2.226  21.620  13.880
65356W        W37671   4.734  18.679  11.908
65357W        W37672   4.230  38.000  11.949
65358W        W37673  32.106  10.197   9.952
65359W        W37674  38.355  18.202  14.907
65360W        W37675  22.217   9.353   0.954
65361W        W37676  37.970   3.734  11.081
65362W        W37677  13.730  42.341   1.857
65363W        W37678  22.534  13.820   2.407
65364W        W37679  21.141  19.640  14.415
65365W        W37680  11.756  13.727  14.405
65366W        W37681  26.637  30.049   2.257
65367W        W37682   2.353   2.810   2.254
65368W        W37683  18.232   3.290   2.419
65369W        W37684   7.888  15.655  12.560
65370W        W37685  35.934  10.693   4.806
65371W        W37686  44.804  27.543   0.833
65372W        W37687  34.900  40.978  10.535
65373W        W37688  38.866   3.854   0.347
65374W        W37689  27.529  11.189   2.715
65375W        W37690  36.480   9.325   4.762
65376W        W37691   7.253  20.676   3.669
65377W        W37692   6.281   0.470   1.315
65378W        W37693  10.370  31.087  12.466
65379W        W37694   3.321  40.434  11.109
65380W        W37695  21.021  11.282  11.569
65381W        W37696  38.511   9.651   3.191
65382W        W37697   4.816  42.302   0.883
65383W        W37698   4.301  35.890   4.827
65384W        W37699  18.207  30.480   5.741
65385W        W37700   9.376  12.693   3.180
65386W        W37701   1.309  36.562   0.277
65387W        W37702  32.613  28.480   1.754
65388W        W37703  39.904  39.517  12.047
65389W        W37704  13.158  31.419  13.947
65390W        W37705  22.241  17.754  14.879
65391W        W37706  14.223  20.590  12.092
65392W        W37707   7.285  25.125   1.703
65393W        W37708  44.827  27.989  14.783
65394W        W37709  26.171  42.893  11.061
65395W        W37710  34.538  31.075  10.499
65396W        W37711  11.167  19.537  13.935
65397W        W37712   2.471  19.116  13.384
65398W        W37713  30.588  31.068  12.482
65399W        W37714  44.986  44.788   0.278
65400W        W37715  36.977  36.358   3.716
65401W        W37716  31.422   7.373   0.829
65402W        W37717  43.998  23.536   2.338
65403W        W37718   7.237  44.877  14.419
65404W        W37719  18.138  13.210  11.911
65405W        W37720  30.646  17.183   1.327
65406W        W37721  26.098  16.576   1.259
65407W        W37722  25.512   6.235  11.106
65408W        W37723  15.090   1.405  11.954
65409W        W37724  35.920  14.318   0.887
65410W        W37725  32.494  23.050   3.291
65411W        W37726  22.145  23.181  13.889
65412W        W37727  21.021  10.645   3.188
65413W        W37728  37.835  21.564  10.914
65414W        W37729  16.284  23.530  13.932
65415W        W37730  35.566  17.755  10.557
65416W        W37731  38.041  24.171   3.331
65417W        W37732   4.344  20.265  11.899
65418W        W37733  43.443  34.969  14.373
65419W        W37734  40.873   8.370  10.544
65420W        W37735  16.129  13.299  14.880
65421W        W37736  22.998  37.000  11.941
65422W        W37737  33.432  41.371  13.502
65423W        W37738  27.647  44.988   4.124
65424W        W37739   0.810  22.999   3.856
65425W        W37740  15.196  28.942  13.328
65426W        W37741   9.341  42.982  12.897
65427W        W37742  31.066  42.033   0.885
65428W        W37743  40.532  22.649   3.302
65429W        W37744   8.893  12.688  10.924
65430W        W37745  14.816   4.270  11.417
65431W        W37746  31.930  21.089   5.245
65432W        W37747  25.479  12.162  13.001
65433W        W37748  41.292  16.097  10.933
65434W        W37749  13.754   7.364  12.552
65435W        W37750  16.224  15.595   0.481
65436W        W37751  29.500  38.064   3.753
65437W        W37752  19.702  14.209  12.374
65438W        W37753  39.815  17.588   0.255
65439W        W37754   1.890  41.338   4.125
65440W        W37755   9.687  33.880   1.299
65441W        W37756  11.694  32.995   1.928
65442W        W37757  43.367   4.289   4.243
65443W        W37758  36.476  11.640  14.940
65444W        W37759  18.636  40.437  14.851
65445W        W37760  44.861  27.022  12.824
65446W        W37761  14.198  15.243  12.533
65447W        W37762  19.684  13.678  13.312
65448W        W37763   8.787  28.009   4.181
65449W        W37764  18.622  22.707  14.495
65450W        W37765  44.809  25.202   3.732
65451W        W37766  38.930  41.965  11.967
65452W        W37767  36.501  28.991  11.114
65453W        W37768   1.938   6.359  14.336
65454W        W37769  31.516  38.327  10.541
65455W        W37770  20.054  17.772   3.347
65456W        W37771  31.618  17.295   3.370
65457W        W37772  11.367  39.048  14.322
65458W        W37773  43.426  35.375  13.847
65459W        W37774  31.900  18.679   5.206
65460W        W37775  32.548  41.966   4.662
65461W        W37776  38.357   1.761   0.248
65462W        W37777  16.759   3.763  13.482
65463W        W37778   4.414   5.372   2.256
65464W        W37779   2.933  12.800  11.125
65465W        W37780  44.475  42.399  13.482
65466W        W37781   2.396  25.049   2.662
65467W        W37782  28.106  31.946  14.914
65468W        W37783  31.092  35.496  12.353
65469W        W37784  36.356  37.902   3.699
65470W        W37785  17.120  36.426   4.348
65471W        W37786  18.554  11.861   1.326
65472W        W37787  16.088  23.171   1.835
65473W        W37788  40.310  22.615   1.929
65474W        W37789  30.545  33.979  14.497
65475W        W37790  21.554  41.410  14.915
65476W        W37791  20.749  38.854  14.987
65477W        W37792  18.274   4.823  12.028
65478W        W37793  25.203  10.642   0.418
65479W        W37794   4.859  19.186  12.930
65480W        W37795   1.288  18.092  12.577
65481W        W37796  36.926  32.076  14.449
65482W        W37797  27.646  37.939   3.683
65483W        W37798  22.561  15.696  13.382
65484W        W37799   2.274  20.125   2.733
65485W        W37800  38.570  12.205   1.444
65486W        W37801  16.682  41.295   2.734
65487W        W37802  18.052  11.751   4.291
65488W        W37803  21.082  23.567   3.382
65489W        W37804  44.415   0.893  13.507
65490W        W37805  18.090  39.548   4.240
65491W        W37806  40.379  32.630   0.800
65492W        W37807  19.045  43.286   3.269
65493W        W37808   7.412   2.274  12.519
65494W        W37809  20.190  33.936  12.536
65495W        W37810  36.502  29.651  10.899
65496W        W37811  28.632  23.024   1.826
65497W        W37812  36.407  37.439  14.031
65498W        W37813  39.013  28.959   2.306
65499W        W37814  10.174  10.185  11.606
65500W        W37815  39.412  37.870   4.259
65501W        W37816  21.722  36.358  13.318
65502W        W37817  34.094  30.608   0.281
65503W        W37818  33.502  35.091   2.350
65504W        W37819  44.924  41.786  12.562
65505W        W37820  28.160  32.043   0.406
65506W        W37821  28.952  41.385   4.811
65507W        W37822   3.282  38.878  10.524
65508W        W37823  34.915  32.092  11.019
65509W        W37824  21.125  42.488   2.198
65510W        W37825  39.471   4.416  13.524
65511W        W37826  26.970  34.023   3.281
65512W        W37827   5.390  37.368   1.323
65513W        W37828   6.384  34.546  11.481
65514W        W37829  34.090  30.045  11.898
65515W        W37830   8.745  10.674  14.461
65516W        W37831  27.619   4.868  10.631
65517W        W37832   5.909  41.452   1.821
65518W        W37833  17.201  28.564   1.707
65519W        W37834   7.773   2.751   0.774
65520W        W37835  34.877  10.800  14.809
65521W        W37836  14.800   6.834  11.392
65522W        W37837  38.550   8.258  12.995
65523W        W37838  12.192  33.456  10.894
65524W        W37839  37.528  24.708  12.525
65525W        W37840  30.612  42.865   0.338
65526W        W37841  25.114  39.928  10.457
65527W        W37842  21.212  43.363  10.576
65528W        W37843  18.245  29.144   1.405
65529W        W37844  41.937  37.397   0.483
65530W        W37845  29.478   7.728   5.225
65531W        W37846   4.802  15.134   1.353
65532W        W37847  12.292   8.703   1.212
65533W        W37848  37.546  36.019   3.157
65534W        W37849   6.193  26.510  10.418
65535W        W37850  14.161  39.407   3.870
65536W        W37851  20.168  10.656   2.344
65537W        W37852  44.775   7.280  13.538
65538W        W37853  23.692   0.300   3.239
65539W        W37854  42.805  15.231   2.301
65540W        W37855  27.191  22.241   3.211
65541W        W37856   6.305  15.791  10.154
65542W        W37857  20.701  40.858   2.886
65543W        W37858  37.893  19.042  12.384
65544W        W37859  35.005  16.703  12.363
65545W        W37860   8.697  37.877  13.318
65546W        W37861  42.998   9.281  11.064
65547W        W37862  34.548  26.996  10.587
65548W        W37863  35.399  43.937   1.721
65549W        W37864  26.576  14.100  14.342
65550W        W37865  21.750  22.701  10.956
65551W        W37866   3.460  35.098   3.818
65552W        W37867   1.396  17.216  10.525
65553W        W37868  16.305  25.968   1.846
65554W        W37869  23.554  10.333  14.278
65555W        W37870  41.941   3.376  10.540
65556W        W37871  16.108  15.111  13.912
65557W        W37872  11.810  43.906   1.318
65558W        W37873   5.762  32.912   2.328
65559W        W37874  39.400  11.650   4.308
65560W        W37875   6.327   9.763  12.834
65561W        W37876  37.408  36.906  12.481
65562W        W37877  11.244  35.966  12.442
65563W        W37878  10.211  14.711  13.406
65564W        W37879  40.349  18.621   4.166
65565W        W37880  11.653  18.642   1.357
65566W        W37881  10.660  40.548   2.404
65567W        W37882   7.371  28.115   3.697
65568W        W37883   3.737  44.319  13.393
65569W        W37884  21.216  23.169   3.672
65570W        W37885  15.246  15.297   0.902
65571W        W37886  10.836  44.834  10.453
65572W        W37887  22.115  31.988   0.894
65573W        W37888  18.250   2.320  13.446
65574W        W37889  35.863  12.715   1.880
65575W        W37890   9.782  14.281  12.964
65576W        W37891   6.405  23.499   3.755
65577W        W37892  41.374  44.400   5.210
65578W        W37893   9.675  30.483  11.383
65579W        W37894  44.330  14.102   5.197
65580W        W37895   4.824  21.036  10.908
65581W        W37896  35.040  16.302   2.392
65582W        W37897  17.303  30.463   3.860
65583W        W37898  23.197  23.996  14.882
65584W        W37899   8.168  28.666  14.902
65585W        W37900  29.147  20.194  14.479
65586W        W37901  38.933  39.916  10.627
65587W        W37902  19.540  16.631   0.258
65588W        W37903   4.840   9.849   1.868
65589W        W37904  11.702  39.012  12.528
65590W        W37905  10.748   1.940   0.871
65591W        W37906  33.551   6.207   5.134
65592W        W37907  13.779  39.336  13.482
65593W        W37908  11.153   7.808   1.419
65594W        W37909  42.416  17.131   4.626
65595W        W37910  43.940  37.424   4.190
65596W        W37911  35.049  38.424  12.413
65597W        W37912  34.021  44.315  12.025
65598W        W37913   6.336  31.633   0.738
65599W        W37914  34.961  40.367  12.545
65600W        W37915  17.127  13.611  12.429
65601W        W37916  26.505  43.287   2.252
65602W        W37917  10.805  34.388   4.315
65603W        W37918  40.475  33.382   0.928
65604W        W37919  36.945   0.282  14.389
65605W        W37920  38.989  32.482  10.889
65606W        W37921   7.221  33.924   1.741
65607W        W37922  10.216  38.402  12.354
65608W        W37923  24.610  34.991   2.312
65609W        W37924  42.478  25.606   1.842
65610W        W37925  35.893  17.229  12.574
65611W        W37926  30.060  12.704  13.405
65612W        W37927  14.175  23.210  12.031
65613W        W37928  26.703   7.294   3.235
65614W        W37929  31.435  33.034  14.952
65615W        W37930  41.301   1.847  11.613
65616W        W37931   6.375  34.896  11.090
65617W        W37932   7.218  39.368  14.279
65618W        W37933  29.469  40.044  12.841
65619W        W37934  33.104  36.096  13.480
65620W        W37935  27.613  17.237   1.262
65621W        W37936  44.320  35.433   0.779
65622W        W37937  17.746   5.382  14.783
65623W        W37938  24.630  20.206   3.821
65624W        W37939  26.654  33.537   1.840
65625W        W37940   0.414  25.499  10.962
65626W        W37941  43.915   3.316  13.845
65627W        W37942   6.255  39.424   0.930
65628W        W37943  24.191  11.693  12.090
65629W        W37944  27.030  31.921   3.267
65630W        W37945  36.988  24.537   2.190
65631W        W37946  12.167   2.799  10.542
65632W        W37947  30.490  32.521   4.834
65633W        W37948  28.583  36.531  11.551
65634W        W37949  18.111  17.625   2.664
65635W        W37950  14.649   1.320  11.096
65636W        W37951  24.655  17.777  13.833
65637W        W37952  12.278  14.613   1.349
65638W        W37953  28.018  41.961   0.744
65639W        W37954  14.652  31.128  11.607
65640W        W37955   3.948   7.387  11.857
65641W        W37956  44.787   6.360  13.317
65642W        W37957  27.067  15.305   2.894
65643W        W37958  32.050   5.733   3.758
65644W        W37959  20.758   7.850  12.508
65645W        W37960  34.560  36.583   3.152
65646W        W37961  39.492  20.057   0.809
65647W        W37962  24.179  42.823  14.924
65648W        W37963  43.780  37.450   2.266
65649W        W37964   5.723  14.263   4.704
65650W        W37965  20.049   1.952   1.927
65651W        W37966  11.856  43.505  10.929
65652W        W37967  27.194  23.000   2.370
65653W        W37968  42.931  30.158   2.332
65654W        W37969  19.233   9.705  10.140
65655W        W37970  11.737  29.076   1.383
65656W        W37971  40.339   7.197   0.786
65657W        W37972   2.770  36.462   1.233
65658W        W37973  13.781  15.802   4.237
65659W        W37974  39.976   5.368  14.969
65660W        W37975  23.528  34.102  14.898
65661W        W37976  39.496  35.036   4.728
65662W        W37977  13.218  37.340  11.582
65663W        W37978  44.980   1.239   0.352
65664W        W37979  29.073  12.687  12.418
65665W        W37980  40.932   9.737  10.973
65666W        W37981  26.153   4.877  11.980
65667W        W37982  27.952  26.187  13.514
65668W        W37983  21.526  40.433  11.111
65669W        W37984   9.268  17.200   9.926
65670W        W37985   7.179  20.719  14.488
65671W        W37986  39.915  26.571   0.345
65672W        W37987  24.584  11.232  14.902
65673W        W37988  36.846  20.577   1.798
65674W        W37989   7.355  28.594   0.393
65675W        W37990  44.966  36.451   0.269
65676W        W37991   1.341  11.811   4.284
65677W        W37992  11.848  32.498  12.073
65678W        W37993  44.500  22.141  11.588
65679W        W37994  10.161   0.777  12.927
65680W        W37995  39.057  22.663  13.485
65681W        W37996   4.332  32.016   1.862
65682W        W37997  23.565  44.859   2.372
65683W        W37998  27.083  32.428   0.466
65684W        W37999  39.829   7.181  13.501
65685W        W38000  14.204  29.093  14.902
65686W        W38001  16.257  33.044   4.628
65687W        W38002  15.265  34.088   0.889
65688W        W38003  30.570  12.208   0.942
65689W        W38004   2.751  19.603   0.436
65690W        W38005  16.807  41.922  14.382
65691W        W38006  17.614  36.076   1.236
65692W        W38007   4.756  17.746   1.423
65693W        W38008  29.628  32.038  10.932
65694W        W38009   4.893  35.407  14.850
65695W        W38010  37.492  10.291   4.290
65696W        W38011  34.939  37.580   4.123
65697W        W38012  38.954  34.580  14.845
65698W        W38013  43.840   1.740  13.014
65699W        W38014   6.331  30.457  14.333
65700W        W38015  41.341  37.900  11.418
65701W        W38016  11.184   5.887   2.358
65702W        W38017  30.426  41.862  10.564
65703W        W38018  32.962  28.628  14.386
65704W        W38019  44.777  44.953  13.947
65705W        W38020  20.253  42.436   1.817
65706W        W38021  14.095  35.081   3.633
65707W        W38022  41.795   4.901   2.700
65708W        W38023   7.894  33.617   4.694
65709W        W38024  17.095  36.968   4.341
65710W        W38025  20.630   0.895  14.915
65711W        W38026   4.206  15.258   2.370
65712W        W38027  36.980  10.712  13.390
65713W        W38028  14.190   6.242   0.812
65714W        W38029  14.119  27.982  12.528
65715W        W38030  15.648   0.482   3.365
65716W        W38031  31.482  36.483   4.645
65717W        W38032  24.162  11.311   2.694
65718W        W38033  19.285  40.839  13.443
65719W        W38034  22.707   1.748   3.656
65720W        W38035  33.972  35.459   0.452
65721W        W38036  22.150  37.912   3.720
65722W        W38037   1.366  28.028   3.203
65723W        W38038  18.092  44.929  14.489
65724W        W38039  31.496  21.543  14.285
65725W        W38040  11.174   2.372  10.435
65726W        W38041   7.360  41.518  14.409
65727W        W38042  29.977  44.321   1.830
65728W        W38043  31.006  12.828   2.674
65729W        W38044   3.882   3.420  12.450
65730W        W38045  43.297   0.835  11.543
65731W        W38046   8.387  24.150  10.929
65732W        W38047  40.935  39.885   3.235
65733W        W38048   7.314  36.382  13.499
65734W        W38049   7.900   8.219  13.929
65735W        W38050  22.686  14.600  11.119
65736W        W38051  26.146   6.716  12.026
65737W        W38052   4.731   2.965  14.418
65738W        W38053  24.667   5.917   3.180
65739W        W38054  33.117  43.356  12.029
65740W        W38055  40.989  11.340  11.519
65741W        W38056  11.279  44.792  12.463
65742W        W38057  43.776  16.636   1.263
65743W        W38058  13.718  16.790  14.862
65744W        W38059  13.112  17.064   3.682
65745W        W38060  28.109  24.717  13.397
65746W        W38061  22.746  31.941   4.636
65747W        W38062  11.340   6.394   0.351
65748W        W38063  42.361  35.962  11.414
65749W        W38064   7.667  38.532   3.696
65750W        W38065  12.745   0.771  11.608
65751W        W38066   7.244  34.537  12.384
65752W        W38067  43.342   0.252  10.603
65753W        W38068  19.182  43.957   1.762
65754W        W38069  26.986  10.348   2.328
65755W        W38070  13.768  15.280  11.466
65756W        W38071  29.147   5.911  14.915
65757W        W38072  15.257  42.319  12.033
65758W        W38073  41.805   7.695   0.829
65759W        W38074  31.049  42.519   2.666
65760W        W38075   1.888   8.740  13.058
65761W        W38076  33.421  13.277   0.441
65762W        W38077  13.121  26.196   1.315
65763W        W38078  24.165  15.714  10.160
65764W        W38079   0.256  21.074  12.495
65765W        W38080  36.364  32.478   4.657
65766W        W38081  11.142  44.004  12.844
65767W        W38082  30.523  30.014   3.828
65768W        W38083  21.739  41.416  13.970
65769W        W38084  28.136   9.314   1.929
65770W        W38085  22.143  35.491  11.453
65771W        W38086   0.296  35.484  13.841
65772W        W38087  19.115  44.955   0.907
65773W        W38088   9.344  37.891   1.881
65774W        W38089  30.090  41.368   4.814
65775W        W38090   5.383   5.362  11.906
65776W        W38091  21.703  16.314   3.745
65777W        W38092  31.035  33.128   3.692
65778W        W38093  42.456  34.119   1.851
65779W        W38094  19.272  18.720  11.041
65780W        W38095  44.442  15.297   1.341
65781W        W38096  41.411  19.195  14.981
65782W        W38097  27.163  25.208  11.924
65783W        W38098   9.390  17.631   0.836
65784W        W38099  17.109  24.673   0.338
65785W        W38100  31.513  28.454   1.866
65786W        W38101  41.507  25.983   3.683
65787W        W38102  30.587   5.757  11.576
65788W        W38103  12.279  35.976  14.277
65789W        W38104  30.023   9.257  13.030
65790W        W38105   1.426  34.458   3.258
65791W        W38106   9.161  17.615  14.956
65792W        W38107  40.836  13.817  12.470
65793W        W38108  31.898   4.831   3.314
65794W        W38109  43.899   2.961  12.561
65795W        W38110  27.107  44.441   4.205
65796W        W38111  28.178   0.251   1.753
65797W        W38112  37.522  16.116  14.807
65798W        W38113  23.680  15.658   0.364
65799W        W38114  27.475  29.620  11.469
65800W        W38115  24.213   0.762  10.142
65801W        W38116   9.379  41.327  13.956
65802W        W38117   3.371  23.062  12.904
65803W        W38118  36.458  34.559  14.442
65804W        W38119  26.101  41.843  12.508
65805W        W38120  28.573  14.114  11.073
65806W        W38121  38.435  26.627  12.429
65807W        W38122  40.932  12.787  11.982
65808W        W38123  40.345  37.539  13.466
65809W        W38124  26.601  22.247   1.780
65810W        W38125   7.267  14.592  14.357
65811W        W38126  39.542  29.479   0.909
65812W        W38127  42.882  36.351   3.242
65813W        W38128  13.677  14.799   0.465
65814W        W38129  33.078   6.726   0.393
65815W        W38130  24.219  27.073  14.407
65816W        W38131  35.002  15.172   0.881
65817W        W38132  16.276  39.020  13.451
65818W        W38133  33.028  14.827  13.334
65819W        W38134  39.016  30.454   2.667
65820W        W38135  36.535  22.711   4.821
65821W        W38136  27.646  23.172   3.667
65822W        W38137  32.454  35.932  12.009
65823W        W38138   3.239  26.490  12.550
65824W        W38139  26.602  17.229  14.357
65825W        W38140  27.180   6.716   2.344
65826W        W38141  24.550  24.674  13.483
65827W        W38142   8.677  41.841   3.371
65828W        W38143  22.052  44.863   3.304
65829W        W38144  17.667   5.929  10.492
65830W        W38145  42.435  40.842   0.752
65831W        W38146  19.242  16.186  12.480
65832W        W38147   5.761   1.892  13.953
65833W        W38148  12.745   0.382   1.905
65834W        W38149  25.027  39.016  13.510
65835W        W38150  36.054  22.122  14.983
65836W        W38151  38.353  24.033  12.569
65837W        W38152  33.470  14.771  11.102
65838W        W38153  31.568  12.774  11.108
65839W        W38154  37.478  44.371   0.763
65840W        W38155  43.932  22.506  14.771
65841W        W38156  36.363  26.052  12.911
65842W        W38157   8.807   3.294  12.893
65843W        W38158   6.322   7.371   1.342
65844W        W38159  44.892  10.854   2.746
65845W        W38160   3.715  20.664   3.328
65846W        W38161  18.724  38.868  12.990
65847W        W38162  18.609  32.544   4.633
65848W        W38163  20.757  15.586   1.734
65849W        W38164  18.718  19.593  10.444
65850W        W38165  30.555  21.645  14.399
65851W        W38166   0.872  37.938   4.284
65852W        W38167  32.981  10.194   4.763
65853W        W38168  36.519   7.686   4.788
65854W        W38169  33.994  21.200  11.595
65855W        W38170   3.409  19.093  14.306
65856W        W38171   1.735  30.957  11.440
65857W        W38172  38.873  23.984  14.484
65858W        W38173   9.871  12.206  14.333
65859W        W38174   8.797   4.839   0.381
65860W        W38175  44.766   2.722   0.348
65861W        W38176  13.761  37.076  13.450
65862W        W38177  19.257  12.315  11.470
65863W        W38178  27.623  24.544  10.987
65864W        W38179  20.051  38.847   4.136
65865W        W38180  12.166  19.604  11.868
65866W        W38181   9.819   9.235   3.655
65867W        W38182   7.262  15.240   4.350
65868W        W38183  19.556  34.012  11.060
65869W        W38184  15.677   0.780   1.242
65870W        W38185  38.530  40.530   1.281
65871W        W38186   7.673  30.425   9.959
65872W        W38187  41.354  41.935  14.351
65873W        W38188  16.126   7.783  13.988
65874W        W38189   4.319  23.133  11.107
65875W        W38190  34.095  41.342   2.750
65876W        W38191  30.432  27.063   4.627
65877W        W38192  44.820   3.287  13.531
65878W        W38193  15.105  32.015  14.285
65879W        W38194  38.459  38.394   0.376
65880W        W38195  24.571  22.092   0.826
65881W        W38196  37.473  13.320   0.306
65882W        W38197  38.564  15.119   0.911
65883W        W38198  34.596  14.136   4.690
65884W        W38199  16.809  13.213  13.385
65885W        W38200  10.679  24.119   0.790
65886W        W38201  12.181   1.976   1.815
65887W        W38202  33.412  34.446  13.033
65888W        W38203  30.994  44.502  11.887
65889W        W38204  10.847  28.531   0.742
65890W        W38205  35.074   1.804  12.389
65891W        W38206  21.553  37.490   3.193
65892W        W38207  26.576  21.259  12.826
65893W        W38208   2.859  21.734   2.847
65894W        W38209  34.421   6.891  12.432
65895W        W38210   4.278  24.041  11.982
65896W        W38211  43.879  12.169   2.737
65897W        W38212  15.714   8.725   5.230
65898W        W38213   1.907  34.447  14.889
65899W        W38214  28.615  21.525   1.802
65900W        W38215  22.696  34.104  12.395
65901W        W38216  41.466  19.094   2.758
65902W        W38217  14.719  14.661   2.234
65903W        W38218  37.445  35.097   2.382
65904W        W38219  15.171  12.129  12.081
65905W        W38220  19.599   0.255   3.312
65906W        W38221   8.894  43.959   9.944
65907W        W38222  33.537   4.714   2.282
65908W        W38223  29.586  30.598  10.975
65909W        W38224   9.674   6.336   2.898
65910W        W38225  44.451   8.763   0.249
65911W        W38226   4.447   6.687  10.549
65912W        W38227  43.445  42.339  11.465
65913W        W38228   3.843  24.167   1.394
65914W        W38229   5.775  18.778   3.639
65915W        W38230   1.838   5.786   4.634
65916W        W38231  30.610   4.319   0.370
65917W        W38232   5.884   0.408   3.315
65918W        W38233  11.838  28.186   3.243
65919W        W38234  25.027   2.829  14.815
65920W        W38235  38.467  12.350  14.022
65921W        W38236  44.861  29.019   2.677
65922W        W38237  16.090   0.955   0.833
65923W        W38238  31.502   0.428  12.443
65924W        W38239  29.963  30.160  13.811
65925W        W38240  21.131  12.788   4.238
65926W        W38241   6.205  21.623   2.886
65927W        W38242  16.306  13.763  11.502
65928W        W38243  28.068  39.839  14.788
65929W        W38244  30.129  16.222  12.500
65930W        W38245   7.674   2.743  14.951
65931W        W38246  27.114  13.614  11.050
65932W        W38247  14.738  34.448  10.889
65933W        W38248   1.848  36.426   2.253
65934W        W38249   1.746  21.232  10.969
65935W        W38250  38.433  44.420   3.323
65936W        W38251  28.005   3.308   1.885
65937W        W38252  29.025  42.777  11.461
65938W        W38253  13.709  40.426   2.703
65939W        W38254   5.727  34.591   0.311
65940W        W38255   5.733   9.658  11.056
65941W        W38256  15.199   0.270   2.811
65942W        W38257   6.362  39.551   1.802
65943W        W38258  11.724  14.269   1.716
65944W        W38259  41.946  11.166   1.288
65945W        W38260   5.867  18.130   3.783
65946W        W38261  15.168  42.314   1.920
65947W        W38262  15.205  41.010  11.374
65948W        W38263  15.158   8.311  13.850
65949W        W38264  11.200  15.629  11.527
65950W        W38265  17.709  12.291   0.790
65951W        W38266  40.846  20.583  13.932
65952W        W38267   8.684  34.439   0.860
65953W        W38268  30.090  15.248  10.465
65954W        W38269  21.017   7.866   1.714
65955W        W38270  17.622  43.471   1.236
65956W        W38271   9.252  27.990  12.417
65957W        W38272  30.563  10.251  11.999
65958W        W38273  36.910  37.554   5.199
65959W        W38274  29.085  11.179  10.545
65960W        W38275  43.407  14.670   0.410
65961W        W38276  42.998   3.882  11.885
65962W        W38277   0.960   4.750  10.984
65963W        W38278  14.323  34.504   4.616
65964W        W38279  40.506  40.029  13.371
65965W        W38280   7.716  27.129   2.300
65966W        W38281  25.553  20.738   5.239
65967W        W38282  18.691  16.614   1.309
65968W        W38283   5.841  21.577  10.408
65969W        W38284  36.063  32.620   0.461
65970W        W38285  24.056  21.122   5.231
65971W        W38286  28.998   3.851  12.922
65972W        W38287  16.234  21.254  13.933
65973W        W38288  15.660   9.280  12.861
65974W        W38289   7.204  30.603  14.885
65975W        W38290  34.967  10.659   3.665
65976W        W38291  17.663  33.116   1.263
65977W        W38292   4.788  17.771  14.464
65978W        W38293  29.549  17.304   0.381
65979W        W38294   3.332   3.714  11.490
65980W        W38295  33.031  11.623  12.569
65981W        W38296  36.887   5.711  14.935
65982W        W38297  39.913  31.497   4.652
65983W        W38298  28.567  18.185   4.233
65984W        W38299   9.889  42.008  12.021
65985W        W38300  10.811  30.579   3.825
65986W        W38301   1.477  27.115  14.286
65987W        W38302  10.256   8.855  12.026
65988W        W38303  31.488  24.504   4.120
65989W        W38304  26.010  15.722  11.028
65990W        W38305  28.486  12.354   3.272
65991W        W38306  14.223  23.723  13.980
65992W        W38307  22.611  29.496   1.888
65993W        W38308   3.933  37.957   1.221
65994W        W38309  39.815  11.132   2.891
65995W        W38310  30.654  28.938  10.570
65996W        W38311  28.019  28.131   4.729
65997W        W38312  22.153   1.744   3.685
65998W        W38313  34.068   5.878  11.100
65999W        W38314  38.475  23.719   1.253
66000W        W38315  15.733  15.176   3.386
66001W        W38316  22.657  16.761   0.726
66002W        W38317  15.782   4.434  10.548
66003W        W38318  28.624   8.367  11.432
66004W        W38319  21.068  16.689   3.216
66005W        W38320  34.374  42.490   0.307
66006W        W38321  11.319   4.919  14.023
66007W        W38322  12.279  44.895   2.264
66008W        W38323   3.773  42.805  10.435
66009W        W38324  12.187  18.165   9.959
66010W        W38325  31.645  28.068   0.865
66011W        W38326  21.218  20.069  11.373
66012W        W38327   1.842  19.257   2.811
66013W        W38328  13.819  36.875   2.748
66014W        W38329  43.398  35.953  14.990
66015W        W38330  42.379   3.449   3.869
66016W        W38331   4.739   8.887  11.899
66017W        W38332   9.648  14.323   3.386
66018W        W38333  32.587  20.767   4.188
66019W        W38334  25.620  18.143   3.644
66020W        W38335  40.336  41.027   4.795
66021W        W38336   1.240  10.330  10.919
66022W        W38337  26.635  19.057   1.817
66023W        W38338   9.787  19.093   4.716
66024W        W38339  39.046  37.554   4.654
66025W        W38340  21.679  23.569  13.961
66026W        W38341  37.852  13.330  14.776
66027W        W38342   7.741  12.264  10.623
66028W        W38343  27.089  22.666   4.327
66029W        W38344   7.769  38.446  13.435
66030W        W38345   3.816  41.328  12.442
66031W        W38346  10.276  33.096   0.854
66032W        W38347   6.290  33.083   4.151
66033W        W38348  10.279  19.058  11.101
66034W        W38349  30.603  23.021   0.788
66035W        W38350   7.826  24.102   1.796
66036W        W38351  14.809   0.942   2.751
66037W        W38352  39.495  21.194  14.964
66038W        W38353  25.132   3.452   3.296
66039W        W38354  11.370  15.613  10.597
66040W        W38355  38.978  38.496  10.995
66041W        W38356  31.592   8.726   3.359
66042W        W38357   9.742  34.602  13.998
66043W        W38358  20.110  18.296  14.414
66044W        W38359  33.551  36.565  12.438
66045W        W38360  13.161   0.374   4.334
66046W        W38361  36.915   4.783  13.016
66047W        W38362  43.284  44.880   0.471
66048W        W38363  38.486   1.803   4.298
66049W        W38364  32.530  16.092   4.811
66050W        W38365  27.574  40.820  12.901
66051W        W38366   8.722  33.526   1.301
66052W        W38367  19.231  31.527  10.569
66053W        W38368  18.169  17.196   1.266
66054W        W38369  20.062  29.627  12.869
66055W        W38370  37.392  26.105   1.336
66056W        W38371  38.371   4.939   1.294
66057W        W38372  17.705  38.896  11.051
66058W        W38373  42.327  44.331   4.217
66059W        W38374  43.821  42.281   2.696
66060W        W38375  25.164  40.890  13.048
66061W        W38376  36.424  26.578   2.380
66062W        W38377  28.508  23.722  11.925
66063W        W38378  40.979   2.833  11.020
66064W        W38379   5.708  34.614   3.771
66065W        W38380  26.976   6.847   4.767
66066W        W38381  20.228   3.388  13.517
66067W        W38382  12.234  31.591  11.516
66068W        W38383   1.961  32.607   1.365
66069W        W38384  32.124  26.622   0.272
66070W        W38385  35.889  11.684   3.772
66071W        W38386   8.366  25.072  13.544
66072W        W38387   9.809   3.252  11.508
66073W        W38388  19.245  24.539  10.558
66074W        W38389   6.883   7.371   4.225
66075W        W38390  16.093  10.689   3.815
66076W        W38391   6.700  19.702   2.266
66077W        W38392   6.723  40.818   3.157
66078W        W38393  28.089  13.119  14.786
66079W        W38394  27.644  25.003   1.873
66080W        W38395  12.673  41.803   3.321
66081W        W38396  28.097  10.155  11.891
66082W        W38397   4.285   5.352  11.891
66083W        W38398  29.143  16.237  14.841
66084W        W38399  41.355  28.476   3.726
66085W        W38400  33.557  26.655   5.312
66086W        W38401   5.687  10.263  13.533
66087W        W38402  25.550  44.935  13.884
66088W        W38403  10.156  27.111  12.969
66089W        W38404   4.367  10.777  12.093
66090W        W38405  40.538  13.251  13.430
66091W        W38406  12.326  42.292   1.295
66092W        W38407  17.202  19.250  13.403
66093W        W38408  34.024  10.299  14.999
66094W        W38409  30.029  19.768   3.777
66095W        W38410  16.748  43.843  13.918
66096W        W38411  21.626  15.663  14.889
66097W        W38412  27.132  38.379  12.986
66098W        W38413  10.662  10.636  14.856
66099W        W38414  36.026  32.915   4.226
66100W        W38415   6.241  11.798   3.852
66101W        W38416  24.724  26.119   0.859
66102W        W38417  24.221  26.160  14.810
66103W        W38418   9.370   0.272   4.338
66104W        W38419   0.375  25.571  14.783
66105W        W38420   6.293  11.837   0.882
66106W        W38421  24.691  21.593   0.355
66107W        W38422   4.210  27.484  11.462
66108W        W38423  22.202  25.478  13.534
66109W        W38424  22.644  25.544  13.803
66110W        W38425  35.601  30.590   1.449
66111W        W38426  35.968  13.215  10.453
66112W        W38427   0.473   4.336  14.388
66113W        W38428  32.111  32.582   4.670
66114W        W38429  14.309  17.612  11.937
66115W        W38430  27.596  17.600  12.530
66116W        W38431  20.176  22.205  12.824
66117W        W38432   2.444  24.994  13.435
66118W        W38433  17.109  21.194  13.317
66119W        W38434  17.577  38.909  13.838
66120W        W38435   9.271  42.385   4.667
66121W        W38436   9.644  12.634  13.821
66122W        W38437   0.414   8.737  10.448
66123W        W38438  41.955   1.300  12.889
66124W        W38439  14.637  43.436   0.405
66125W        W38440  32.992  38.443  11.613
66126W        W38441  23.647  28.638   2.359
66127W        W38442  38.043  18.687  13.999
66128W        W38443   4.216  44.840   1.873
66129W        W38444  24.688  34.373   3.800
66130W        W38445   0.847  15.099   3.679
66131W        W38446  15.701  16.591  13.365
66132W        W38447  26.474  13.723   4.683
66133W        W38448  36.499  33.097  11.919
66134W        W38449  24.715  43.914   0.736
66135W        W38450  12.653  43.283   3.673
66136W        W38451  43.458  10.669  10.561
66137W        W38452  42.951  14.200  10.491
66138W        W38453  40.516  13.700   1.890
66139W        W38454  14.133  28.441   0.741
66140W        W38455  28.612  40.820  14.761
66141W        W38456  24.152  15.139  12.837
66142W        W38457  24.546  39.381   3.220
66143W        W38458  11.632   6.676  11.405
66144W        W38459  36.861   9.691  11.100
66145W        W38460   2.382   9.290  12.886
66146W        W38461  13.124  15.221  13.408
66147W        W38462  14.203  32.051  14.949
66148W        W38463   9.268  21.148  10.540
66149W        W38464  13.630  39.411   1.300
66150W        W38465  20.193   9.884  12.396
66151W        W38466   4.261  33.904  13.004
66152W        W38467   2.304  39.467  11.904
66153W        W38468   8.172  33.023  12.349
66154W        W38469  24.478  15.670  13.462
66155W        W38470  16.137  38.860   2.768
66156W        W38471  38.922  41.479  12.457
66157W        W38472  26.487  33.973   1.910
66158W        W38473   6.752  22.736  14.990
66159W        W38474  38.042   4.855  14.382
66160W        W38475  33.453  27.963  13.497
66161W        W38476  34.060   7.207   3.631
66162W        W38477  16.208  30.135  10.561
66163W        W38478  25.145  38.917   1.868
66164W        W38479  34.377  15.659   0.954
66165W        W38480   3.336  28.057  13.937
66166W        W38481  43.355  10.761  14.983
66167W        W38482  44.404  17.115  14.873
66168W        W38483  29.056  24.115   0.834
66169W        W38484  41.347  15.187  10.477
66170W        W38485  29.659   5.839   2.202
66171W        W38486  34.947   0.447  11.516
66172W        W38487   2.843  40.987   0.931
66173W        W38488  43.956  41.429  11.055
66174W        W38489  10.743   5.438   4.622
66175W        W38490  36.887  39.868  12.470
66176W        W38491   8.671   2.943   0.463
66177W        W38492  37.444  28.959   1.773
66178W        W38493  29.555  30.944  14.827
66179W        W38494  39.398  42.415   3.725
66180W        W38495   8.251  34.889  12.432
66181W        W38496  18.120  13.702  14.506
66182W        W38497  42.025  14.771  10.494
66183W        W38498  12.215  28.585  14.839
66184W        W38499  17.126  37.393  11.939
66185W        W38500  40.973  17.066   2.193
66186W        W38501  37.374  32.069  11.073
66187W        W38502  15.270   4.699   0.853
66188W        W38503  33.099  43.816  11.406
66189W        W38504   7.264   5.847   0.953
66190W        W38505  19.582   8.668  12.367
66191W        W38506  21.237  14.633   0.360
66192W        W38507  30.654  18.739  12.518
66193W        W38508  21.023  22.593   1.906
66194W        W38509  44.850  32.512  10.936
66195W        W38510  35.441  34.610  12.480
66196W        W38511  25.501  35.476   0.304
66197W        W38512  19.669   4.233  13.472
66198W        W38513   8.241  13.830  13.832
66199W        W38514  15.778  20.700   4.340
66200W        W38515  43.381  20.055   3.661
66201W        W38516  33.886  39.350  14.985
66202W        W38517   2.906  29.550   2.677
66203W        W38518  29.997  33.437  13.345
66204W        W38519  38.526  33.600   1.388
66205W        W38520  20.074  20.223  11.124
66206W        W38521  39.351  41.821   2.392
66207W        W38522  41.452  10.760   4.143
66208W        W38523  41.029  40.823  12.066
66209W        W38524  25.575  33.899   1.834
66210W        W38525  41.487  32.625   3.249
66211W        W38526  22.539  33.995   1.381
66212W        W38527  40.353  32.957  12.048
66213W        W38528  21.054  33.563  10.921
66214W        W38529  26.145  21.754   0.259
66215W        W38530   8.406   8.347  13.965
66216W        W38531  41.323  31.090   2.207
66217W        W38532  39.369  14.269  12.957
66218W        W38533  42.007  24.190  12.462
66219W        W38534  13.741   0.768   3.771
66220W        W38535  17.216  15.167  10.589
66221W        W38536  29.519  23.632  11.566
66222W        W38537  38.374  17.719   2.862
66223W        W38538  35.541  38.939   0.269
66224W        W38539  37.449  16.683  14.001
66225W        W38540  21.681  32.413  12.838
66226W        W38541  34.956  35.440   3.157
66227W        W38542  13.236  17.227  11.925
66228W        W38543  32.977  29.993  12.940
66229W        W38544  35.983  20.525   3.748
66230W        W38545   3.848  15.657   9.990
66231W        W38546  18.723  36.051   4.274
66232W        W38547  14.137  26.622  12.577
66233W        W38548  32.581  23.025   0.886
66234W        W38549   0.781  17.150   1.746
66235W        W38550  10.845  43.783   1.344
66236W        W38551  22.234   1.772   4.686
66237W        W38552  32.570  34.921   1.712
66238W        W38553  44.806  27.097   3.812
66239W        W38554  16.179  34.484   2.672
66240W        W38555  32.120  22.670   2.286
66241W        W38556   7.303  39.831   3.332
66242W        W38557  31.577  16.631   2.888
66243W        W38558   3.773  25.533   1.851
66244W        W38559  10.347  16.150  11.414
66245W        W38560  22.070  32.485  13.948
66246W        W38561  13.735   5.326  10.629
66247W        W38562   7.881  13.765  11.094
66248W        W38563  27.575   6.325  12.908
66249W        W38564   6.708  40.035  11.013
66250W        W38565   8.712   7.843  12.558
66251W        W38566  29.160  36.515   2.841
66252W        W38567  39.367  39.380  12.361
66253W        W38568  20.109  13.756  14.468
66254W        W38569  38.389  23.651  13.898
66255W        W38570  32.609  29.071   3.817
66256W        W38571  30.950  27.620   0.782
66257W        W38572  37.941  38.360   2.352
66258W        W38573  27.609  17.232   2.740
66259W        W38574  14.100  28.000  11.498
66260W        W38575  18.231  16.200   3.775
66261W        W38576   6.307   1.808   2.397
66262W        W38577  27.617  44.357  10.513
66263W        W38578  11.329  41.375   2.299
66264W        W38579  21.654  19.184   0.248
66265W        W38580  28.464  21.251   0.289
66266W        W38581  19.039  42.919   1.449
66267W        W38582  35.925  39.961   2.356
66268W        W38583   1.327  18.113   4.255
66269W        W38584  27.515  31.910  13.877
66270W        W38585  39.005  15.699   1.323
66271W        W38586  44.753  27.654  10.490
66272W        W38587  18.645  18.652   4.297
66273W        W38588   8.270  27.978  11.522
66274W        W38589   5.373   5.309   2.257
66275W        W38590  41.023  32.015   4.313
66276W        W38591  30.949  18.282  11.539
66277W        W38592   8.342   4.232   3.752
66278W        W38593   3.764   6.921   4.347
66279W        W38594  13.333   5.851  13.893
66280W        W38595  34.058   1.387  14.483
66281W        W38596  17.094   6.195  10.456
66282W        W38597  26.521  15.313  14.010
66283W        W38598  43.455  33.943  13.012
66284W        W38599  11.243  25.573   4.626
66285W        W38600   7.836  18.242  10.995
66286W        W38601  34.093   4.791   4.268
66287W        W38602  28.095   3.888  10.159
66288W        W38603  40.901  42.399   1.239
66289W        W38604  41.510  20.554   1.372
66290W        W38605  11.795   6.830   3.697
66291W        W38606   5.305  43.445  13.008
66292W        W38607  18.747   6.397  12.023
66293W        W38608  32.989   3.711   3.153
66294W        W38609  12.740  10.235   4.197
66295W        W38610   8.718  43.811  11.958
66296W        W38611   8.382   3.744   4.286
66297W        W38612   8.170   1.400  12.348
66298W        W38613  18.625  44.459  10.471
66299W        W38614  24.099  20.157  10.914
66300W        W38615  42.927  37.835   1.283
66301W        W38616   2.426  29.620   0.293
66302W        W38617  20.597   1.821   0.804
66303W        W38618   2.309  33.575   5.313
66304W        W38619   6.423  30.091   1.409
66305W        W38620  28.635  19.769  11.008
66306W        W38621  12.204  28.046  10.593
66307W        W38622  29.472  22.670  14.287
66308W        W38623  25.693   4.932   9.487
66309W        W38624  11.840  29.141  13.410
66310W        W38625  26.952   9.346   3.265
66311W        W38626  19.560  27.130   1.305
66312W        W38627  37.065  15.803   3.775
66313W        W38628  14.824  41.807   1.792
66314W        W38629   7.388   1.929   3.263
66315W        W38630  40.934  20.608   3.731
66316W        W38631  25.571  18.074  13.988
66317W        W38632  22.586  21.115   3.383
66318W        W38633  43.828  12.194   1.380
66319W        W38634  39.401  12.220  13.505
66320W        W38635  11.286   5.354   2.357
66321W        W38636  43.980  18.772   1.219
66322W        W38637  12.704  30.997   3.276
66323W        W38638   2.784  42.909  10.100
66324W        W38639  33.892  10.853   1.859
66325W        W38640  15.275  23.682  13.016
66326W        W38641  24.115   5.911  10.019
66327W        W38642  30.491  43.433   3.370
66328W        W38643   9.823  19.221  10.562
66329W        W38644  22.252  33.926  10.921
66330W        W38645  11.319  37.986  13.870
66331W        W38646  14.320   3.239  12.865
66332W        W38647  17.581   9.707   2.274
66333W        W38648  19.166  41.825   2.745
66334W        W38649  14.185  37.910  10.446
66335W        W38650  39.961  12.775  12.008
66336W        W38651   4.902  44.788   0.409
66337W        W38652   1.820  12.117   2.419
66338W        W38653  42.462  42.029   2.898
66339W        W38654  18.236  23.006  11.410
66340W        W38655  27.612  14.719  12.436
66341W        W38656   2.254  41.953  11.968
66342W        W38657  11.829  10.341   3.386
66343W        W38658  39.528  29.173  14.763
66344W        W38659  30.051  41.490   0.337
66345W        W38660   0.746  18.288   4.168
66346W        W38661  15.326  43.346   4.180
66347W        W38662   8.377   3.739   2.232
66348W        W38663  18.164   5.246   1.260
66349W        W38664   4.817  15.274  11.907
66350W        W38665   6.268  22.113  14.365
66351W        W38666  37.422  31.430   1.799
66352W        W38667  22.628  16.589   3.166
66353W        W38668  41.522  41.536   3.762
66354W        W38669  21.173  38.414  12.972
66355W        W38670   7.714  21.187  10.103
66356W        W38671  32.018  22.631   0.341
66357W        W38672  44.907  35.877  10.954
66358W        W38673   3.238   5.391   1.803
66359W        W38674  13.690  13.616   3.281
66360W        W38675  20.210  10.735   1.825
66361W        W38676  28.074  37.923   1.853
66362W        W38677  40.536   6.742  11.034
66363W        W38678   2.348  14.219   9.980
66364W        W38679  10.334  34.918  14.365
66365W        W38680  33.526  26.207  12.010
66366W        W38681   4.849  34.879   5.276
66367W        W38682  32.091   8.811   5.260
66368W        W38683  27.005  28.979  11.066
66369W        W38684  38.473  12.689  14.842
66370W        W38685  15.813   9.221   0.362
66371W        W38686  30.565  12.302   2.836
66372W        W38687   5.371  32.069   1.308
66373W        W38688  13.144  24.527  11.399
66374W        W38689   4.800  19.656   4.649
66375W        W38690  16.636  32.485   0.436
66376W        W38691   7.176  28.634   0.775
66377W        W38692   0.393  25.010  13.406
66378W        W38693  38.029  27.162   3.812
66379W        W38694  43.016  33.997  11.378
66380W        W38695  34.463  31.561   3.856
66381W        W38696  35.990  42.517   1.239
66382W        W38697  44.493  39.424   4.760
66383W        W38698  41.468  37.536   4.805
66384W        W38699  31.619  36.025  14.504
66385W        W38700  26.995  24.576  13.004
66386W        W38701  38.047  16.735   2.675
66387W        W38702  31.603  10.660  12.472
66388W        W38703  32.579  44.975  11.070
66389W        W38704   4.739  11.261  13.827
66390W        W38705  43.438   6.319   1.773
66391W        W38706  11.635  33.622   3.656
66392W        W38707  40.902  36.552   2.715
66393W        W38708  28.043  16.752   0.813
66394W        W38709   2.280  11.677   0.940
66395W        W38710  36.586  23.689   4.326
66396W        W38711  22.234  33.465   4.792
66397W        W38712   8.703   4.333  11.912
66398W        W38713  19.241   3.753  12.406
66399W        W38714  21.075  28.092  11.061
66400W        W38715  42.942  40.916   1.737
66401W        W38716  16.781   1.798   0.277
66402W        W38717  17.587  23.718   0.838
66403W        W38718   8.233  38.561  12.885
66404W        W38719   9.178   5.913   3.639
66405W        W38720   7.865  39.955  11.470
66406W        W38721  35.481  36.990  10.429
66407W        W38722  30.997  24.706   2.182
66408W        W38723  36.081  27.056   0.354
66409W        W38724  32.522  21.030   4.730
66410W        W38725   7.407  39.842   2.699
66411W        W38726  41.025   9.868  12.534
66412W        W38727  42.519   5.703   0.915
66413W        W38728  25.115  25.471  14.816
66414W        W38729  22.010  40.033  10.976
66415W        W38730  14.639  12.733   2.200
66416W        W38731  38.343  28.657   2.400
66417W        W38732  24.591  27.149   0.796
66418W        W38733   7.678  31.600  12.538
66419W        W38734  40.416  38.565  10.518
66420W        W38735  35.105   7.226   3.739
66421W        W38736  31.528  10.152   1.322
66422W        W38737  26.680  39.413  11.467
66423W        W38738  33.902   6.186   2.730
66424W        W38739   4.426  26.068  11.552
66425W        W38740  16.166   7.377   0.824
66426W        W38741  33.393  43.425   2.798
66427W        W38742  11.760   8.899  11.056
66428W        W38743  37.510  29.061   1.268
66429W        W38744  40.309  14.301   1.915
66430W        W38745  41.455   9.827   4.326
66431W        W38746  28.529  41.897  14.494
66432W        W38747  36.499  22.209  10.920
66433W        W38748   3.752  36.422  14.949
66434W        W38749  12.666  38.959  10.917
66435W        W38750   3.907   4.269  13.379
66436W        W38751  25.972   7.818  11.006
66437W        W38752  26.687  25.034   4.189
66438W        W38753  24.135  43.318   0.348
66439W        W38754   2.897   4.889  12.572
66440W        W38755  31.988   9.801  10.975
66441W        W38756  26.535  21.644   1.708
66442W        W38757  27.083   9.209  14.803
66443W        W38758  35.370  38.527  12.555
66444W        W38759  29.603  12.792   5.216
66445W        W38760  32.523  10.658  11.497
66446W        W38761  38.049  34.945   2.839
66447W        W38762  27.525  13.147  12.372
66448W        W38763  12.316  35.551  13.523
66449W        W38764  17.714  20.265   4.294
66450W        W38765  30.577   1.269   1.806
66451W        W38766  19.580  42.927  11.887
66452W        W38767   6.249  43.464  10.538
66453W        W38768  12.672  42.883  13.429
66454W        W38769  16.696  20.547   1.837
66455W        W38770   9.654  16.671   0.473
66456W        W38771  14.195  11.695  12.012
66457W        W38772  16.675  30.908  11.990
66458W        W38773  24.720  42.420  13.965
66459W        W38774  38.011   2.755  14.964
66460W        W38775  39.464  10.639  12.510
66461W        W38776  42.831   6.241   1.393
66462W        W38777  22.222  11.254   1.889
66463W        W38778  11.222  43.996   2.321
66464W        W38779   5.257   3.763   1.263
66465W        W38780  18.173   1.960   3.241
66466W        W38781   6.351   8.324   1.401
66467W        W38782  21.065  24.615   2.278
66468W        W38783  29.117  31.507   4.704
66469W        W38784  35.027  16.597   1.923
66470W        W38785   0.417  43.993  12.943
66471W        W38786  26.524  33.037  14.837
66472W        W38787  29.173  12.616   2.261
66473W        W38788  17.652  34.062   1.228
66474W        W38789   6.324   0.304   1.790
66475W        W38790   7.177  26.125   2.257
66476W        W38791  44.371  28.995   2.342
66477W        W38792   1.238  40.953  12.027
66478W        W38793  44.268  31.963  14.305
66479W        W38794  10.207  27.537  10.637
66480W        W38795  28.076  38.977  11.068
66481W        W38796   0.344  27.533  13.947
66482W        W38797  18.057  10.807  10.054
66483W        W38798   9.794  19.563   3.702
66484W        W38799  17.266  28.031  14.918
66485W        W38800  37.966  21.750   1.441
66486W        W38801   3.887  13.310   1.398
66487W        W38802  23.519   1.923  11.382
66488W        W38803  27.968  30.639  10.099
66489W        W38804  38.486  32.000  10.439
66490W        W38805  32.959  43.352   0.401
66491W        W38806  15.627  18.284  14.889
66492W        W38807  30.043  22.108  14.482
66493W        W38808  26.693  34.955   1.856
66494W        W38809  32.131  27.048  11.523
66495W        W38810  15.089  14.780   3.150
66496W        W38811  44.944  19.621   2.677
66497W        W38812  13.602  20.751  11.578
66498W        W38813  23.121  15.314   4.226
66499W        W38814  44.366  27.682  14.441
66500W        W38815  39.366  14.704  11.518
66501W        W38816   4.448  23.119  14.478
66502W        W38817  40.835   6.775  13.310
66503W        W38818  15.179  38.501  11.941
66504W        W38819  16.809  38.880  14.852
66505W        W38820  44.265  24.725  13.394
66506W        W38821  38.847  33.035  12.565
66507W        W38822  43.946   9.672   3.700
66508W        W38823   8.361  42.952  12.345
66509W        W38824  26.467  34.058   3.375
66510W        W38825   8.760  41.448   0.757
66511W        W38826  19.601  41.392   3.149
66512W        W38827  22.240   5.366   0.279
66513W        W38828  41.354  25.608  14.807
66514W        W38829  34.415  39.051  12.556
66515W        W38830  34.469  34.524   0.257
66516W        W38831  39.029   6.197  10.006
66517W        W38832  26.093  31.519   5.610
66518W        W38833  19.556   3.822  14.319
66519W        W38834  25.669  30.448  10.985
66520W        W38835  33.102  25.164   0.431
66521W        W38836   5.281  25.029  13.049
66522W        W38837  23.571  25.569   4.283
66523W        W38838  33.120  38.072  12.521
66524W        W38839  25.641  27.656   0.817
66525W        W38840  35.853  27.596  11.013
66526W        W38841  26.173  19.169  12.393
66527W        W38842  33.975  34.896   4.243
66528W        W38843  33.533  10.180  10.962
66529W        W38844  29.436  34.604  14.414
66530W        W38845  37.057  28.553  14.325
66531W        W38846  23.603   6.247   0.931
66532W        W38847   9.699   2.450   3.375
66533W        W38848  39.053  24.225   1.766
66534W        W38849  42.478  21.663   1.346
66535W        W38850   3.235  14.254  14.478
66536W        W38851  32.442  20.560   1.423
66537W        W38852   9.346  22.614   9.941
66538W        W38853  33.876  43.324  10.413
66539W        W38854  27.165  14.238  14.429
66540W        W38855  29.026  20.229  12.558
66541W        W38856  16.285  12.732  14.933
66542W        W38857   7.183  27.106   2.740
66543W        W38858  24.156   5.911   4.669
66544W        W38859  31.043   9.216  11.959
66545W        W38860   2.264  22.519  13.017
66546W        W38861  14.609  27.532  12.504
66547W        W38862  27.003   5.222   3.733
66548W        W38863   4.918   7.803  14.924
66549W        W38864  26.203  36.360  10.491
66550W        W38865  27.632  41.364  11.975
66551W        W38866  44.861   6.727   3.854
66552W        W38867  21.617   0.275   0.747
66553W        W38868   5.776  33.540  11.548
66554W        W38869  36.438  11.661   0.344
66555W        W38870  34.599  20.619   2.418
66556W        W38871  20.175  22.099  10.461
66557W        W38872  18.779  44.824   2.819
66558W        W38873  23.116  38.329   1.705
66559W        W38874  20.092   3.298  10.129
66560W        W38875  11.190  32.552  12.924
66561W        W38876  31.905  38.871  11.997
66562W        W38877  32.089  26.147   4.698
66563W        W38878  15.232   5.929  14.307
66564W        W38879  10.809  19.140  14.342
66565W        W38880   4.800   1.944   4.690
66566W        W38881  39.919   4.812  14.504
66567W        W38882  27.072  23.046  13.826
66568W        W38883  15.685  16.111  14.876
66569W        W38884  12.646  36.472  14.886
66570W        W38885  16.622  18.726  10.460
66571W        W38886   6.303   5.417   2.187
66572W        W38887   3.256  34.883  14.275
66573W        W38888  27.060   0.848   2.303
66574W        W38889  27.011  31.600  10.608
66575W        W38890  33.088  20.578  14.925
66576W        W38891  22.085  22.210   1.818
66577W        W38892  21.560  17.632  14.311
66578W        W38893  30.009  30.040   0.876
66579W        W38894  43.822   9.788  14.451
66580W        W38895  42.421  18.093  14.994
66581W        W38896  16.128   3.279  10.496
66582W        W38897  32.140   8.359  11.502
66583W        W38898   5.755   4.316  13.485
66584W        W38899  35.603  34.930   1.869
66585W        W38900  17.269  31.458   4.659
66586W        W38901  25.964  15.131   4.131
66587W        W38902  44.997   6.831  14.456
66588W        W38903  24.677   4.290   2.263
66589W        W38904  39.013   5.313   2.850
66590W        W38905   1.459  44.882   1.389
66591W        W38906  22.999  17.555  13.039
66592W        W38907   9.645  27.068  10.406
66593W        W38908  32.467  13.350   2.725
66594W        W38909  16.169   2.961   0.412
66595W        W38910   1.342   5.320  13.849
66596W        W38911  14.192  41.395  13.823
66597W        W38912  16.629  29.476   0.791
66598W        W38913  30.109  14.123  11.510
66599W        W38914  14.742   4.846  13.793
66600W        W38915  26.029  30.463   0.403
66601W        W38916  19.235  19.639   1.251
66602W        W38917  10.869  36.878  14.987
66603W        W38918  33.935  37.890  12.973
66604W        W38919  14.131  13.741   0.791
66605W        W38920  43.984   8.882   4.654
66606W        W38921   0.925  37.373   4.641
66607W        W38922  37.497  25.029  11.129
66608W        W38923  21.253  42.935  12.481
66609W        W38924  12.340  24.026  10.970
66610W        W38925  16.764  33.088   1.351
66611W        W38926   2.805  33.003  12.402
66612W        W38927  13.211  14.172  14.283
66613W        W38928  41.442  35.598   0.889
66614W        W38929  28.633  35.860   2.237
66615W        W38930  32.515   1.783   3.163
66616W        W38931  43.509  13.644   4.811
66617W        W38932  15.156   0.848  14.366
66618W        W38933  32.540  44.938  13.856
66619W        W38934  13.794  44.490   2.203
66620W        W38935  25.061  34.958  14.437
66621W        W38936  43.498  37.538   2.285
66622W        W38937   4.413  28.989  14.933
66623W        W38938  33.054  18.273  11.579
66624W        W38939  30.574  41.839  11.390
66625W        W38940  30.518  12.348  10.524
66626W        W38941  23.661   5.419  12.542
66627W        W38942  18.214  18.212  13.378
66628W        W38943   2.251  16.641  10.423
66629W        W38944   0.318  26.529  14.824
66630W        W38945  40.023  22.616   2.377
66631W        W38946  19.701  43.400   4.245
66632W        W38947  35.477  38.824  14.946
66633W        W38948  37.352  43.297  12.371
66634W        W38949  31.624  38.499  12.055
66635W        W38950  37.389   4.826   2.357
66636W        W38951  42.872   6.900   4.733
66637W        W38952  15.170  29.918  13.543
66638W        W38953  29.549  17.607  11.080
66639W        W38954  41.968  32.540   0.273
66640W        W38955  30.082  35.537   2.722
66641W        W38956  32.398  34.888  10.978
66642W        W38957   8.328  26.688   4.788
66643W        W38958  23.534  44.992  11.064
66644W        W38959   9.649  19.252   2.410
66645W        W38960  43.436  28.962  13.464
66646W        W38961  14.286  31.473  11.500
66647W        W38962  20.630  13.745   3.189
66648W        W38963  41.964  33.072   4.772
66649W        W38964  37.869  30.519  11.100
66650W        W38965  12.263   2.781   1.246
66651W        W38966  29.555  24.161   0.795
66652W        W38967  24.003  29.073   1.438
66653W        W38968   3.322  25.695   4.808
66654W        W38969  22.166  18.722   0.876
66655W        W38970  14.721   7.177  11.892
66656W        W38971  14.143  27.064   2.869
66657W        W38972   9.175  28.647   1.903
66658W        W38973  20.569  41.389  11.394
66659W        W38974   7.678  18.637  10.571
66660W        W38975  14.299  20.125   3.829
66661W        W38976  23.525  12.192  10.510
66662W        W38977   5.304  33.457   1.444
66663W        W38978  44.874   9.308  14.930
66664W        W38979   9.297  19.753  10.939
66665W        W38980   8.229  18.295  14.341
66666W        W38981  26.056  34.933   3.706
66667W        W38982  32.414   4.803  10.451
66668W        W38983  34.529  22.064   2.803
66669W        W38984  39.422  36.468   3.309
66670W        W38985  37.547  32.890  10.543
66671W        W38986  38.464  13.162  11.514
66672W        W38987  43.307   8.292  10.405
66673W        W38988  31.096   1.361  12.963
66674W        W38989  42.892  16.730   1.881
66675W        W38990  33.434  11.130  11.555
66676W        W38991  37.904   9.868  12.874
66677W        W38992  18.701  30.070   1.820
66678W        W38993  27.946  29.102   3.265
66679W        W38994  29.996  16.306  14.848
66680W        W38995  21.192  18.080   4.122
66681W        W38996  36.394  23.677   1.406
66682W        W38997  14.329  18.645  10.491
66683W        W38998  10.355  10.325   5.231
66684W        W38999  24.126  32.535   4.137
66685W        W39000  18.742  43.295  13.375
66686W        W39001  21.079  34.973  11.482
66687W        W39002  27.047  11.823   0.836
66688W        W39003  41.313  20.218   2.841
66689W        W39004  40.951  41.440  12.453
66690W        W39005   5.738  14.637  13.423
66691W        W39006  16.579   7.203   4.667
66692W        W39007   3.850  37.525  10.998
66693W        W39008  38.840  16.776  11.917
66694W        W39009  30.922  30.448   3.248
66695W        W39010  40.971  43.943   4.608
66696W        W39011  43.921   4.224   3.238
66697W        W39012  33.059  23.996  12.375
66698W        W39013  19.713  40.864  13.918
66699W        W39014  44.774  17.287   4.756
66700W        W39015  37.916   0.271  11.472
66701W        W39016  33.910  24.625  14.858
66702W        W39017   9.211  40.352  10.030
66703W        W39018  12.278  15.733   1.228
66704W        W39019  40.306   0.348  14.320
66705W        W39020  32.397  31.980  12.430
66706W        W39021  39.844  24.699   4.673
66707W        W39022  32.987  10.703   4.253
66708W        W39023  13.276  12.251   2.712
66709W        W39024  35.465  12.358  11.038
66710W        W39025   1.871  28.665  14.366
66711W        W39026   7.832  16.731  12.899
66712W        W39027  27.611  37.574  10.610
66713W        W39028   2.955   0.863  14.277
66714W        W39029   1.888  33.575   4.284
66715W        W39030  39.050   2.889   1.857
66716W        W39031  15.794  28.116   0.881
66717W        W39032   1.374  12.733   2.853
66718W        W39033   8.392  37.860   1.358
66719W        W39034   3.812  44.964   2.268
66720W        W39035  40.499  23.014  14.275
66721W        W39036  33.520  27.121  14.328
66722W        W39037  38.444  23.589  14.349
66723W        W39038  17.079  11.687  13.033
66724W        W39039   6.194  17.129  13.967
66725W        W39040  42.503  15.267   1.724
66726W        W39041  13.322  10.664  13.008
66727W        W39042   1.967  14.650   2.824
66728W        W39043  31.425  31.969   4.831
66729W        W39044   5.410   8.850  14.274
66730W        W39045   5.706  22.049  14.280
66731W        W39046  21.142  18.789  14.911
66732W        W39047  26.006   1.406  11.123
66733W        W39048  44.503  20.212   5.129
66734W        W39049  23.237  35.980   4.323
66735W        W39050  22.634  38.968   0.454
66736W        W39051  21.592   9.882  12.487
66737W        W39052  36.404  14.829  11.940
66738W        W39053   6.249  41.535   1.834
66739W        W39054  20.663   6.794  14.405
66740W        W39055   2.467  40.501  11.380
66741W        W39056  30.996   6.320   2.743
66742W        W39057  42.927  27.613   0.876
66743W        W39058  28.497  40.532  13.450
66744W        W39059  17.095  26.053   4.284
66745W        W39060   4.862   1.305   0.333
66746W        W39061  16.072  33.940   1.332
66747W        W39062   7.314  39.808   4.608
66748W        W39063   8.757  16.745   1.721
66749W        W39064  25.661  13.171   3.645
66750W        W39065  40.006  37.079   1.744
66751W        W39066  11.285  33.011   4.651
66752W        W39067  28.672  34.431  12.894
66753W        W39068  36.350  33.516   2.768
66754W        W39069  13.223   8.347   0.895
66755W        W39070   0.829  44.829   2.278
66756W        W39071   4.351  24.159  13.988
66757W        W39072  32.108  44.291  11.399
66758W        W39073   5.868  15.694   1.869
66759W        W39074  43.852  42.990  12.082
66760W        W39075  23.554  39.925   2.736
66761W        W39076  17.306  43.473  11.442
66762W        W39077  33.554  27.528  10.564
66763W        W39078  17.555  35.078   2.194
66764W        W39079  26.973  22.186  11.473
66765W        W39080   0.289  30.037  10.506
66766W        W39081   8.782   4.711   1.232
66767W        W39082  42.318  31.591  13.402
66768W        W39083   1.739   1.965   3.305
66769W        W39084  32.915  15.297   3.808
66770W        W39085  10.799  43.969  13.352
66771W        W39086  38.378  16.589   0.362
66772W        W39087  43.488  30.002  10.917
66773W        W39088  34.386   3.945  12.093
66774W        W39089  22.210   6.204   1.695
66775W        W39090  19.262  44.332  14.002
66776W        W39091  23.156  14.314   0.922
66777W        W39092  27.091  34.419  13.479
66778W        W39093  20.693  33.412  11.126
66779W        W39094  42.406  24.519  14.952
66780W        W39095  12.120  25.560   4.241
66781W        W39096  22.162  24.671   3.781
66782W        W39097  15.592  11.370  14.333
66783W        W39098  32.614   5.271   2.254
66784W        W39099  14.815  20.674   3.845
66785W        W39100   1.799  38.560   3.171
66786W        W39101  23.632  14.233   0.347
66787W        W39102  14.749  11.772   0.463
66788W        W39103   7.176  38.872   2.808
66789W        W39104  35.895  21.512  14.372
66790W        W39105  36.557   4.415  12.946
66791W        W39106  21.158  17.694  13.319
66792W        W39107  10.723  44.847   1.246
66793W        W39108  37.944  43.275  13.942
66794W        W39109  24.017  16.282   3.730
66795W        W39110   5.749  38.405  12.359
66796W        W39111   6.766  43.274   4.241
66797W        W39112   4.782  38.324   2.391
66798W        W39113  17.690   9.777  14.319
66799W        W39114  24.581   6.706  11.398
66800W        W39115  28.054  31.417   0.880
66801W        W39116  13.636  41.899   3.227
66802W        W39117  39.822  16.283   0.242
66803W        W39118  41.470  31.440  11.477
66804W        W39119  34.113  18.251   3.806
66805W        W39120  16.279  35.449   3.713
66806W        W39121  31.509  35.580  12.345
66807W        W39122  25.621  41.003  14.930
66808W        W39123  19.155   6.795  14.476
66809W        W39124  39.056   6.888   3.649
66810W        W39125   4.772  28.491  10.441
66811W        W39126  39.473  43.393  13.032
66812W        W39127  20.696  44.797  14.991
66813W        W39128  16.206  40.435  13.405
66814W        W39129  40.404  34.960  13.452
66815W        W39130   9.169  17.306  10.941
66816W        W39131  24.226  17.667  14.920
66817W        W39132  24.696   2.928  14.817
66818W        W39133  19.584  18.769   3.827
66819W        W39134   4.944   9.741  10.607
66820W        W39135  36.445  27.634  14.834
66821W        W39136   6.417  35.909   0.794
66822W        W39137  34.468  17.757  11.567
66823W        W39138  20.741  19.206  14.447
66824W        W39139  37.415   5.899   2.668
66825W        W39140  26.584  23.038  13.960
66826W        W39141  17.788  14.596   3.641
66827W        W39142  27.146  30.544   3.715
66828W        W39143  32.611  37.515   0.271
66829W        W39144  20.234  22.570   2.805
66830W        W39145  20.186  25.646  11.941
66831W        W39146  22.126  11.129   3.327
66832W        W39147  24.981  10.383  13.975
66833W        W39148  21.568  35.540  14.308
66834W        W39149  42.960  18.735  13.377
66835W        W39150  18.238  32.568   0.429
66836W        W39151  40.490  33.397  10.999
66837W        W39152  25.193  33.451   4.613
66838W        W39153  25.089  19.695   1.317
66839W        W39154   3.734   1.865  13.914
66840W        W39155   5.206  36.021  14.389
66841W        W39156  24.641  17.266   2.708
66842W        W39157  25.200   9.373  13.811
66843W        W39158  22.614  23.027  11.950
66844W        W39159  31.424  15.089   1.353
66845W        W39160  43.428  38.365  12.360
66846W        W39161  34.944  11.209  12.857
66847W        W39162  41.323  35.398   3.375
66848W        W39163  21.609  32.604   1.771
66849W        W39164   2.435  41.909  14.931
66850W        W39165  10.187  36.354  13.334
66851W        W39166   7.689  21.218  11.579
66852W        W39167  30.558   2.437  12.975
66853W        W39168  43.486  19.730   3.213
66854W        W39169  24.483   2.749  14.384
66855W        W39170  23.721  41.299   1.401
66856W        W39171  20.617  32.937  11.069
66857W        W39172  20.709   3.447   0.876
66858W        W39173   7.198  37.486   3.342
66859W        W39174   0.873  36.889  14.832
66860W        W39175  43.824  30.111   0.817
66861W        W39176  20.763   8.818  10.497
66862W        W39177  40.806  23.546   5.612
66863W        W39178  31.088  36.027   3.708
66864W        W39179  28.069   3.945   1.367
66865W        W39180  19.231   3.348   4.157
66866W        W39181  30.494  34.088   0.854
66867W        W39182   0.355  30.492   1.386
66868W        W39183  42.316  24.631  11.501
66869W        W39184  33.936  17.603  11.022
66870W        W39185  31.496  22.051  10.963
66871W        W39186  25.131  28.000  12.828
66872W        W39187   4.275   3.927   1.920
66873W        W39188  33.072   9.724  10.943
66874W        W39189  25.626   0.413   0.329
66875W        W39190  40.521   1.746   0.808
66876W        W39191  18.553  16.234  11.895
66877W        W39192  40.361   9.762   4.167
66878W        W39193  22.143   2.429  13.920
66879W        W39194  32.134  26.565  11.505
66880W        W39195   6.425  17.660   2.888
66881W        W39196  27.687  24.682   3.832
66882W        W39197  20.173  27.976   4.154
66883W        W39198  11.678  44.002  12.514
66884W        W39199  19.746  41.817   3.235
66885W        W39200  30.907  41.372   2.766
66886W        W39201  36.390   7.393  10.040
66887W        W39202  43.803  26.694   3.313
66888W        W39203  44.271  27.614  14.953
66889W        W39204   5.719  15.087  14.893
66890W        W39205  37.896  39.046   0.778
66891W        W39206   1.901  14.731   3.692
66892W        W39207   9.337  25.040   1.393
66893W        W39208  30.152   4.230  12.350
66894W        W39209  15.582  34.581   3.828
66895W        W39210   9.759  31.642   1.238
66896W        W39211   5.721  42.924   4.803
66897W        W39212   3.458  10.238  13.340
66898W        W39213  24.620  44.866  11.548
66899W        W39214  32.017   7.190  10.973
66900W        W39215  29.033  36.940  14.488
66901W        W39216  21.038  18.058   3.734
66902W        W39217  21.249  20.684   0.944
66903W        W39218  26.605  26.594   3.349
66904W        W39219  42.856   8.818  10.562
66905W        W39220  26.555  29.635   3.322
66906W        W39221  14.239  21.172   4.221
66907W        W39222  19.139  42.445  11.601
66908W        W39223  31.454  29.501   4.296
66909W        W39224  30.953  22.740  10.417
66910W        W39225  43.772  41.966   0.278
66911W        W39226  27.991  36.397   4.321
66912W        W39227  27.598  40.522  11.534
66913W        W39228  11.628  30.628  14.336
66914W        W39229  11.334   0.483  12.490
66915W        W39230  23.730  13.239  12.937
66916W        W39231   0.491  12.257   9.567
66917W        W39232   5.810   8.209  13.477
66918W        W39233  27.188   7.773  11.392
66919W        W39234  43.965  43.955  10.951
66920W        W39235  18.077  41.410   4.196
66921W        W39236  37.860   8.825   4.191
66922W        W39237   8.683  36.486   0.885
66923W        W39238  25.974   2.349   4.738
66924W        W39239  40.349  31.002   3.244
66925W        W39240  16.176  10.151  12.340
66926W        W39241  19.639  19.253   3.380
66927W        W39242  41.305  24.036  14.325
66928W        W39243  43.344  21.033   4.280
66929W        W39244  35.461  38.019   1.232
66930W        W39245  42.953  23.020   1.700
66931W        W39246  21.240  32.007   4.186
66932W        W39247  19.659  19.639  13.017
66933W        W39248  20.114  28.435  11.099
66934W        W39249  26.069  17.098  13.967
66935W        W39250  34.551   9.382  14.804
66936W        W39251  29.148  38.434  14.499
66937W        W39252  37.478   9.794  11.973
66938W        W39253  43.002  28.653   2.340
66939W        W39254  40.437  44.359  14.865
66940W        W39255  39.809   6.776   4.178
66941W        W39256  13.220   2.260   0.749
66942W        W39257  31.467  24.725   2.892
66943W        W39258  26.526  29.052   1.396
66944W        W39259   7.835   9.861  11.516
66945W        W39260   7.225  17.118  11.464
66946W        W39261   0.263  39.531  14.434
66947W        W39262  44.290  19.582  11.418
66948W        W39263  31.462   1.758  13.345
66949W        W39264  21.613   5.896   3.217
66950W        W39265   1.763  39.461   4.194
66951W        W39266  21.635  34.927   2.748
66952W        W39267  38.405  26.549  12.943
66953W        W39268  41.293  35.560  11.950
66954W        W39269  14.687   7.263  10.475
66955W        W39270  20.757  19.670  12.458
66956W        W39271  41.020  22.178   2.418
66957W        W39272   3.808  23.994  13.420
66958W        W39273  23.534   2.946  12.580
66959W        W39274  15.654  42.383   4.307
66960W        W39275  37.449  40.468   3.706
66961W        W39276  41.982  24.682  11.378
66962W        W39277  31.496   5.384   3.757
66963W        W39278  28.155  24.137  12.871
66964W        W39279  18.694  37.962   0.786
66965W        W39280  15.581  21.246   1.745
66966W        W39281  26.992  41.320   4.676
66967W        W39282   3.716  15.633   4.613
66968W        W39283  40.428   1.849  11.449
66969W        W39284  23.542  44.483  13.346
66970W        W39285  19.197  35.079   3.374
66971W        W39286  19.631  41.879  10.481
66972W        W39287  36.400  20.616   3.172
66973W        W39288  13.638   7.850   3.268
66974W        W39289   8.736  43.012   1.895
66975W        W39290  38.933  29.058  14.948
66976W        W39291   7.217  25.044   2.306
66977W        W39292  35.413  16.786  11.548
66978W        W39293  38.508  43.505   2.730
66979W        W39294  38.869   0.441  10.550
66980W        W39295  11.630  24.121  10.480
66981W        W39296  25.088  36.974   0.867
66982W        W39297  10.334  21.553   2.832
66983W        W39298  17.646  17.687  11.508
66984W        W39299  42.017  14.821  13.351
66985W        W39300  13.757  12.336  14.929
66986W        W39301  44.820  23.641   4.121
66987W        W39302  18.575  21.649   2.893
66988W        W39303  19.232  23.023  13.983
66989W        W39304  14.620  15.772  13.370
66990W        W39305  39.335   4.410  11.441
66991W        W39306  12.810  22.114  10.431
66992W        W39307  24.044  26.068  10.495
66993W        W39308  14.138  34.870  12.031
66994W        W39309  34.018  38.433  10.592
66995W        W39310   3.909  18.091   1.696
66996W        W39311  37.832  40.543   0.422
66997W        W39312  37.999  23.136  12.557
66998W        W39313  41.786  23.567  10.975
66999W        W39314  16.219  27.193  12.455
67000W        W39315  29.657  15.810   1.228
67001W        W39316  23.127  19.239   1.923
67002W        W39317  36.477  44.405   0.922
67003W        W39318   4.383  25.104  13.983
67004W        W39319   5.265  40.397  14.854
67005W        W39320  35.857  26.624   0.785
67006W        W39321  15.190  36.988  12.075
67007W        W39322  15.767  36.495  14.813
67008W        W39323  37.447  24.578   3.378
67009W        W39324  19.704  42.842  11.081
67010W        W39325  37.084  31.024  13.995
67011W        W39326  31.132  20.537  11.558
67012W        W39327  15.594  29.456  11.377
67013W        W39328   0.869   2.232  12.436
67014W        W39329   5.757  28.076  12.455
67015W        W39330  39.480  24.641   2.819
67016W        W39331  25.037   8.798   4.141
67017W        W39332   7.402  26.487  14.325
67018W        W39333   9.351  21.110  12.073
67019W        W39334  29.462  26.101   1.344
67020W        W39335  44.323  25.209  10.895
67021W        W39336  38.343  33.986   1.318
67022W        W39337  21.159   6.193  13.888
67023W        W39338  20.753  14.610  14.480
67024W        W39339  11.335  10.684   0.263
67025W        W39340  30.623  27.598  13.856
67026W        W39341  32.116  10.799   0.310
67027W        W39342   8.880  25.672  13.837
67028W        W39343   6.206  18.554   2.359
67029W        W39344   4.856  33.478  12.980
67030W        W39345  23.570  23.511  10.943
67031W        W39346  42.976  10.146  11.071
67032W        W39347  19.196  41.895   0.392
67033W        W39348  26.574  36.004   2.300
67034W        W39349   7.375  22.203   3.239
67035W        W39350  24.124  40.948  10.482
67036W        W39351   1.271  33.960   2.667
67037W        W39352  27.083   9.319  13.532
67038W        W39353  26.175  30.958  13.347
67039W        W39354   7.203  13.618   4.621
67040W        W39355  10.851  17.076   3.269
67041W        W39356   1.433  42.973  14.332
67042W        W39357  35.075  23.192  14.364
67043W        W39358  10.238  39.498   1.322
67044W        W39359   2.784  18.716  13.418
67045W        W39360  19.637   3.873  14.949
67046W        W39361  36.450  26.483  11.453
67047W        W39362   4.253  11.345   0.827
67048W        W39363  11.799  27.023  11.912
67049W        W39364   1.294  37.024   3.858
67050W        W39365   7.180   4.220   2.204
67051W        W39366  33.910  14.109   2.830
67052W        W39367   9.889  35.421   3.731
67053W        W39368  35.390  32.996   0.815
67054W        W39369  43.936  18.732  14.433
67055W        W39370  17.773  35.035   0.301
67056W        W39371  34.426  14.098  14.812
67057W        W39372  25.637  11.206   2.678
67058W        W39373   2.367   7.392  14.911
67059W        W39374  27.157  30.039   4.304
67060W        W39375  43.335  44.468  10.108
67061W        W39376  21.130   6.700  10.504
67062W        W39377  43.993  15.709   0.789
67063W        W39378  31.617   2.286  11.947
67064W        W39379  37.965  11.301   1.434
67065W        W39380   4.446  30.115   3.286
67066W        W39381  11.741   0.488   0.347
67067W        W39382  43.784  26.534  11.528
67068W        W39383  33.379   0.357   4.631
67069W        W39384  32.537  10.718  10.981
67070W        W39385  26.075  34.474   2.754
67071W        W39386  33.035  25.156  12.015
67072W        W39387  28.101  39.441  14.841
67073W        W39388  22.052  32.418  11.930
67074W        W39389   6.407  39.505  11.593
67075W        W39390  32.125  13.692  13.054
67076W        W39391  34.045  10.225   5.083
67077W        W39392  21.557  27.192   1.311
67078W        W39393  20.218   7.736   1.244
67079W        W39394  15.770  39.940  12.914
67080W        W39395  34.868   5.930  10.599
67081W        W39396  27.156  44.337   4.792
67082W        W39397  20.716  25.995  11.539
67083W        W39398  17.735  23.631  12.077
67084W        W39399  29.089   3.861   2.333
67085W        W39400   7.782  21.178   1.234
67086W        W39401  20.592  40.545   1.753
67087W        W39402  12.223  16.704   4.193
67088W        W39403  12.738  18.199   1.423
67089W        W39404  17.257  37.513   2.328
67090W        W39405  13.116  36.975  10.608
67091W        W39406  19.099  26.972  13.995
67092W        W39407  17.700  23.989  11.069
67093W        W39408   0.298  42.472   3.714
67094W        W39409  11.679   0.799  12.402
67095W        W39410   5.722  32.400  14.028
67096W        W39411   6.290   0.326   0.868
67097W        W39412  35.105  40.983   1.905
67098W        W39413  37.378  34.011   2.227
67099W        W39414  33.916  44.005  10.524
67100W        W39415  33.452  35.361   1.235
67101W        W39416  34.896  36.962  12.440
67102W        W39417  21.613  15.238  11.857
67103W        W39418  22.162  22.068  13.449
67104W        W39419  31.469  43.798   4.672
67105W        W39420  23.006  22.520   2.199
67106W        W39421  11.227   7.696  14.378
67107W        W39422  15.744  19.273   4.771
67108W        W39423  38.827   7.690   0.905
67109W        W39424  29.670  36.448   0.294
67110W        W39425  10.743  27.185  11.948
67111W        W39426  16.177   5.910   2.702
67112W        W39427  42.858  41.848   1.307
67113W        W39428   5.319  40.305  12.061
67114W        W39429  33.465  10.345   4.673
67115W        W39430   8.889  19.200   2.729
67116W        W39431  11.347  24.084   1.830
67117W        W39432  14.624   6.200   4.800
67118W        W39433   8.179  20.249  11.395
67119W        W39434   8.292  24.569   0.910
67120W        W39435  12.284  33.957  14.309
67121W        W39436  33.022  39.996   1.450
67122W        W39437   6.419   7.250   3.692
67123W        W39438  30.031  17.202  12.510
67124W        W39439  12.829   7.844   1.366
67125W        W39440  13.729  22.595  11.415
67126W        W39441  30.535  16.670   1.228
67127W        W39442  44.435   8.744   0.869
67128W        W39443  15.774  13.283   0.866
67129W        W39444  30.572  31.573   4.657
67130W        W39445  34.494   2.463  14.467
67131W        W39446   5.392   3.384  12.469
67132W        W39447  38.429  19.763  12.980
67133W        W39448   0.408  39.879   3.342
67134W        W39449  44.895  12.153  12.057
67135W        W39450  34.071  26.053   4.803
67136W        W39451  43.359  38.473   2.189
67137W        W39452   4.791  30.965   3.273
67138W        W39453  24.186  31.100   4.637
67139W        W39454   0.784  35.532  13.325
67140W        W39455  23.067  43.404   4.316
67141W        W39456  14.095  40.412   3.324
67142W        W39457  40.016   7.173   2.707
67143W        W39458  43.430  13.802  13.876
67144W        W39459   8.186  10.175  11.604
67145W        W39460  32.493   0.322   1.233
67146W        W39461  37.936  14.171   1.400
67147W        W39462  25.710   6.317   4.261
67148W        W39463  40.505   2.318  14.954
67149W        W39464  43.399   3.723  13.394
67150W        W39465  36.007  33.007  14.935
67151W        W39466   0.272   2.829   0.452
67152W        W39467  24.522  42.457   3.349
67153W        W39468  10.152  23.543  14.450
67154W        W39469  10.270   5.735  11.075
67155W        W39470  16.808  43.395   2.824
67156W        W39471   1.790   0.756   3.234
67157W        W39472   1.473  30.436   0.341
67158W        W39473   3.335  43.377  11.473
67159W        W39474  24.067  37.557  11.530
67160W        W39475   4.377  35.892  12.082
67161W        W39476   5.390  42.473   2.202
67162W        W39477  18.140   6.882  12.363
67163W        W39478  10.744  25.029  10.965
67164W        W39479  36.919  44.964  13.051
67165W        W39480  30.629  10.729  14.448
67166W        W39481   0.778  31.424   0.307
67167W        W39482  37.390  42.452  14.924
67168W        W39483  22.608   3.435  10.408
67169W        W39484  29.477   2.749  13.910
67170W        W39485  13.239  20.610   2.208
67171W        W39486   1.756   0.464   2.303
67172W        W39487  24.652  35.945   2.751
67173W        W39488  16.133  40.395  10.488
67174W        W39489  16.628  28.133   1.331
67175W        W39490  15.603   6.697  12.342
67176W        W39491  14.814  21.679   3.199
67177W        W39492  39.367  32.577  12.482
67178W        W39493  12.611  11.701   3.386
67179W        W39494   9.278  16.731   2.889
67180W        W39495  16.773  36.591   3.374
67181W        W39496  43.910  41.350  13.018
67182W        W39497  44.460  12.157   3.761
67183W        W39498  17.734  26.174   3.278
67184W        W39499  39.348  20.683  14.946
67185W        W39500  19.089  10.140   4.725
67186W        W39501   9.207  29.149   3.302
67187W        W39502  17.789  41.302   2.886
67188W        W39503  40.844  29.934   4.632
67189W        W39504  27.464  12.733   3.276
67190W        W39505  44.284   4.869  13.382
67191W        W39506   8.323  31.926  13.406
67192W        W39507  34.507  17.715   4.710
67193W        W39508  32.558   6.867  14.916
67194W        W39509  24.185  40.871  11.483
67195W        W39510  23.069  20.740  13.490
67196W        W39511  16.168   6.763  12.548
67197W        W39512  38.009  14.113   5.151
67198W        W39513  25.505  37.430  12.474
67199W        W39514  31.578  18.189   2.267
67200W        W39515  29.614  23.491   0.769
67201W        W39516  14.605  33.089   0.300
67202W        W39517  25.037   7.724  11.978
67203W        W39518  36.361  26.488   2.817
67204W        W39519  10.685   5.204   4.128
67205W        W39520  27.962  36.019   1.414
67206W        W39521  28.482  27.064  14.472
67207W        W39522  20.525  39.820   3.680
67208W        W39523  13.634  28.657  14.484
67209W        W39524  43.375  34.408  13.922
67210W        W39525  33.491  34.914  12.540
67211W        W39526  27.144  18.702  13.035
67212W        W39527  38.070  34.584   2.772
67213W        W39528  38.056  33.089  10.499
67214W        W39529  40.928   6.706   1.385
67215W        W39530  17.122   5.340   0.762
67216W        W39531  26.040  18.218   3.657
67217W        W39532   4.704  31.527   0.742
67218W        W39533  12.128  17.208   3.724
67219W        W39534  43.908   6.222  11.862
67220W        W39535   3.715   5.394   3.319
67221W        W39536  37.023  12.849  14.792
67222W        W39537  13.282   3.236   5.090
67223W        W39538  20.111  30.634   2.783
67224W        W39539  43.495  39.508  12.097
67225W        W39540  22.202  23.083  14.291
67226W        W39541  39.053  12.304   9.975
67227W        W39542  22.651  19.167   1.793
67228W        W39543  22.193   2.837  14.463
67229W        W39544  14.278   7.218  11.859
67230W        W39545   2.935  11.866   2.698
67231W        W39546   0.371  19.213  10.468
67232W        W39547  31.621  28.991  13.923
67233W        W39548  43.351  15.634  12.877
67234W        W39549   1.342  27.964   2.343
67235W        W39550   7.407  44.998  14.013
67236W        W39551  39.815  12.327   0.900
67237W        W39552   9.309  20.572  10.971
67238W        W39553  10.671  41.029   3.225
67239W        W39554  18.257  18.738  14.940
67240W        W39555  40.372  44.828   1.323
67241W        W39556  40.502  17.666  12.081
67242W        W39557  15.654  44.329   4.827
67243W        W39558  23.115   9.325  11.030
67244W        W39559  21.120  37.838  10.602
67245W        W39560  23.712  21.526  12.964
67246W        W39561   4.720  25.211  14.868
67247W        W39562  44.851  15.744   3.341
67248W        W39563  40.526   0.812  11.433
67249W        W39564   3.417   9.276   0.378
67250W        W39565  18.726  10.308  11.436
67251W        W39566   5.914  31.495  10.893
67252W        W39567  33.988   0.369  10.914
67253W        W39568  31.025  19.674   2.893
67254W        W39569  18.608  30.658   1.851
67255W        W39570  29.959  16.167   2.768
67256W        W39571  14.740  33.124  11.876
67257W        W39572  42.415  17.693   4.196
67258W        W39573  28.473  33.102   2.679
67259W        W39574  15.125  31.141  14.985
67260W        W39575  22.115  26.535   1.743
67261W        W39576   9.271   7.198  12.512
67262W        W39577  26.656  24.103   4.630
67263W        W39578  11.648   3.743   4.237
67264W        W39579   6.284  18.762  13.459
67265W        W39580  16.110  19.709   1.802
67266W        W39581   1.740   7.710  12.468
67267W        W39582  40.479  38.469  12.445
67268W        W39583  24.056  21.623   4.748
67269W        W39584  16.276  24.164  13.511
67270W        W39585   6.276  21.073   4.756
67271W        W39586  11.285   8.811   4.343
67272W        W39587  36.383  23.512   2.808
67273W        W39588  25.039  38.408   1.261
67274W        W39589  12.157  37.899   2.248
67275W        W39590  11.825  17.304   1.704
67276W        W39591   9.690  32.475  13.865
67277W        W39592  32.086  19.086   3.148
67278W        W39593   5.363  34.957   1.376
67279W        W39594  26.596  39.531   3.758
67280W        W39595  29.544  20.108   3.264
67281W        W39596  20.134  40.303   3.263
67282W        W39597   7.900  33.889   2.372
67283W        W39598  42.939   4.425   1.777
67284W        W39599  20.270  43.845  11.419
67285W        W39600  18.755  11.289  13.361
67286W        W39601   4.255   5.790  13.807
67287W        W39602  18.206  14.122   4.701
67288W        W39603  37.340  23.033   4.675
67289W        W39604   2.829   7.376  12.455
67290W        W39605  44.329  34.075   9.993
67291W        W39606  12.656  14.628  14.453
67292W        W39607  19.583  26.660   2.690
67293W        W39608  37.496   6.902  10.956
67294W        W39609  31.603  34.597  10.995
67295W        W39610   7.199   8.869  12.048
67296W        W39611  31.932  44.297   1.915
67297W        W39612   2.388   2.926   3.692
67298W        W39613  16.674  38.442  10.903
67299W        W39614  38.473   6.696  12.850
67300W        W39615  11.742   3.852   3.729
67301W        W39616  19.073   1.874   0.734
67302W        W39617  13.132   7.909  10.529
67303W        W39618  38.931  41.412  10.148
67304W        W39619  13.307   6.316  14.416
67305W        W39620  32.059   5.317   3.319
67306W        W39621  39.553   9.870  11.010
67307W        W39622  41.457  17.196   2.688
67308W        W39623  21.637   5.719  14.890
67309W        W39624  16.608  22.565  12.034
67310W        W39625  26.652  18.165  13.352
67311W        W39626   9.701   1.763  14.325
67312W        W39627   6.723  38.915   4.183
67313W        W39628  28.958  39.444  14.515
67314W        W39629  38.967  39.358   2.269
67315W        W39630  19.661  16.687   3.695
67316W        W39631  39.011  25.579  11.054
67317W        W39632   6.396  41.020  13.368
67318W        W39633  29.055  37.348   3.714
67319W        W39634  11.307  43.019  14.817
67320W        W39635  44.490  11.317   0.244
67321W        W39636   8.332  20.064   0.474
67322W        W39637   8.172  44.489  14.438
67323W        W39638  43.468  10.864   1.341
67324W        W39639   2.764  40.476  12.864
67325W        W39640  30.158  42.858   3.732
67326W        W39641  22.586  25.567  10.942
67327W        W39642   6.768  18.716  11.872
67328W        W39643  34.963  42.964  11.533
67329W        W39644  33.442  11.848   3.736
67330W        W39645   9.390   5.887  14.865
67331W        W39646   6.383  38.479   1.331
67332W        W39647  36.383  18.278   3.327
67333W        W39648  16.094  37.924  13.363
67334W        W39649   0.897   6.383   3.778
67335W        W39650  31.596  38.059  10.920
67336W        W39651   2.370  40.506   3.378
67337W        W39652  10.278  24.676   0.314
67338W        W39653  37.875  26.521   5.321
67339W        W39654  14.779  26.663  12.843
67340W        W39655   9.196   1.399  11.443
67341W        W39656   9.865   1.290   0.934
67342W        W39657  31.119  40.417  12.856
67343W        W39658   6.291  37.855   3.787
67344W        W39659  28.446  32.526  11.491
67345W        W39660   2.738  44.285  11.103
67346W        W39661  14.322  17.713   3.384
67347W        W39662  20.184   6.841   1.930
67348W        W39663   8.850  44.955  12.874
67349W        W39664   7.835   6.387   1.419
67350W        W39665   1.919  34.046   2.248
67351W        W39666   2.754  42.795   4.650
67352W        W39667  17.167  18.573  14.027
67353W        W39668  25.522   5.310  12.381
67354W        W39669  12.186  41.399  10.430
67355W        W39670  44.969  11.675   5.094
67356W        W39671  36.570  32.606  11.502
67357W        W39672  10.283  23.103  14.287
67358W        W39673  21.022  34.967   2.323
67359W        W39674  37.412  30.506   0.866
67360W        W39675  39.881  10.858   4.229
67361W        W39676  15.684  29.626   1.891
67362W        W39677   2.951  13.640  11.086
67363W        W39678   6.266   2.262   1.695
67364W        W39679  21.077   0.370  11.496
67365W        W39680   9.384  38.867   4.797
67366W        W39681  17.284  11.179   1.381
67367W        W39682  34.372  18.583   2.411
67368W        W39683  26.627  15.226  10.618
67369W        W39684  31.556   4.221   4.686
67370W        W39685  36.052  21.713   2.731
67371W        W39686  35.591  18.050  11.417
67372W        W39687   1.362  29.515  10.903
67373W        W39688  20.153  41.861  13.441
67374W        W39689   5.298   9.151   0.770
67375W        W39690  14.151  30.065   2.672
67376W        W39691  21.079  13.661   3.249
67377W        W39692   0.376  11.368  10.583
67378W        W39693  12.856   6.888   0.417
67379W        W39694  11.370  23.213  11.872
67380W        W39695  29.969  26.134   1.215
67381W        W39696  17.729  43.981   3.869
67382W        W39697   5.688   6.250  14.468
67383W        W39698  27.577  30.921  14.853
67384W        W39699  12.837  21.202   2.688
67385W        W39700  24.027  41.795  12.381
67386W        W39701  13.651  34.552   2.253
67387W        W39702  39.883  16.809  13.416
67388W        W39703  12.120  16.702  10.075
67389W        W39704  23.657  34.478   3.714
67390W        W39705  31.409  33.091  11.046
67391W        W39706  25.207  36.422  10.505
67392W        W39707  42.899  34.886   4.808
67393W        W39708  32.436  16.226   0.768
67394W        W39709  39.447  15.172  14.497
67395W        W39710   6.320   9.840   2.759
67396W        W39711  26.163   0.253  14.439
67397W        W39712  22.539  39.468  12.390
67398W        W39713   7.397   2.834   2.261
67399W        W39714  10.788  20.673  13.406
67400W        W39715  11.291   0.758   3.827
67401W        W39716   9.325  32.506   2.824
67402W        W39717  18.143   8.274   2.704
67403W        W39718  22.509   1.966  13.042
67404W        W39719  44.399  28.670   1.329
67405W        W39720  20.198  14.830  12.002
67406W        W39721  19.757  13.115   3.318
67407W        W39722   0.849  20.130  13.819
67408W        W39723  12.161  43.015   3.371
67409W        W39724   7.777   8.386   3.702
67410W        W39725  19.581   6.254  12.576
67411W        W39726  44.322  26.526  11.046
67412W        W39727  40.506   9.314  14.410
67413W        W39728  25.514  20.165   1.819
67414W        W39729   1.960  31.063   0.857
67415W        W39730  36.026  27.065  11.098
67416W        W39731   6.240   9.204  10.554
67417W        W39732  11.189   2.446   4.118
67418W        W39733  41.448  35.918  12.397
67419W        W39734  35.361   3.864  12.887
67420W        W39735  11.785  28.098   5.202
67421W        W39736  13.278  11.342  12.062
67422W        W39737  30.615   6.825   1.930
67423W        W39738  30.562  44.368  14.935
67424W        W39739  28.557  26.474  14.931
67425W        W39740  38.413  39.841   1.385
67426W        W39741  20.032  29.570   0.479
67427W        W39742  19.700  38.438   5.725
67428W        W39743  12.814  25.095   4.831
67429W        W39744  43.342  24.086   4.169
67430W        W39745  10.289  13.819  13.860
67431W        W39746   8.206  43.413  14.843
67432W        W39747  18.177  40.967  12.842
67433W        W39748   8.690  42.983   0.763
67434W        W39749   6.751   3.342   1.923
67435W        W39750  34.080  44.907  13.848
67436W        W39751  44.884   4.205  13.853
67437W        W39752  44.896  21.110  12.831
67438W        W39753  32.984   8.290   4.688
67439W        W39754   1.864  28.004   4.764
67440W        W39755  24.220  18.786  10.038
67441W        W39756  16.765  30.112   2.787
67442W        W39757  34.033  21.552  14.808
67443W        W39758  32.494  23.682  14.358
67444W        W39759  41.922  12.809  11.426
67445W        W39760  22.504  39.914  10.499
67446W        W39761  39.420  26.994  10.432
67447W        W39762  23.519  28.156   0.436
67448W        W39763  21.599  44.875  12.565
67449W        W39764   8.384  10.222   0.282
67450W        W39765  18.762   4.839   1.224
67451W        W39766  40.974  26.601  13.913
67452W        W39767  11.773   5.714  11.460
67453W        W39768  27.672  29.476   3.697
67454W        W39769  37.354   0.263  12.514
67455W        W39770   8.228  24.221  14.410
67456W        W39771  11.163  16.663   5.772
67457W        W39772  43.307   3.709  12.461
67458W        W39773  31.996  35.557   4.726
67459W        W39774  38.331  20.575  12.049
67460W        W39775  34.431  35.587   2.252
67461W        W39776   1.238   9.762   9.609
67462W        W39777  24.045  23.992  13.333
67463W        W39778  20.139  37.015  11.960
67464W        W39779  44.833  18.726   4.778
67465W        W39780  26.559  15.634   1.924
67466W        W39781  30.492   3.222  10.460
67467W        W39782  29.460  32.923  10.536
67468W        W39783   2.453  13.696  13.512
67469W        W39784   2.453  16.094  12.014
67470W        W39785  35.035  44.983  13.426
67471W        W39786  37.924  17.063   1.219
67472W        W39787  13.265  27.977  10.145
67473W        W39788  13.695  42.788  13.825
67474W        W39789  12.693  41.323   1.317
67475W        W39790  42.782  28.181  11.996
67476W        W39791  39.920  41.299  14.758
67477W        W39792  37.522   7.800  14.850
67478W        W39793   6.772  33.074   2.272
67479W        W39794   5.214  21.744   1.278
67480W        W39795   7.354  32.454  14.283
67481W        W39796  17.654   8.374   0.854
67482W        W39797  11.723  10.741  14.933
67483W        W39798  14.671  39.978  10.582
67484W        W39799  39.829  27.124  11.409
67485W        W39800   8.290  35.586   0.388
67486W        W39801   9.238  13.169   0.435
67487W        W39802  38.371  36.404  11.427
67488W        W39803  19.669   2.875  10.556
67489W        W39804  30.930  18.198   4.769
67490W        W39805  17.253  38.360  10.439
67491W        W39806  19.215   5.933   1.716
67492W        W39807  23.513   2.767   0.330
67493W        W39808   8.871  22.040   2.238
67494W        W39809  17.209   2.820  13.516
67495W        W39810  15.267  43.350   3.158
67496W        W39811  23.678  29.555   1.835
67497W        W39812  29.145  22.060   0.325
67498W        W39813  35.040  12.835   9.971
67499W        W39814  25.108  11.742  10.897
67500W        W39815   6.216  12.621   9.942
67501W        W39816  25.992   4.727   3.265
67502W        W39817   5.303  10.188  14.475
67503W        W39818   0.865  31.572  13.882
67504W        W39819  15.216   4.844   4.257
67505W        W39820   7.193  19.213   0.273
67506W        W39821  16.648   8.242   4.245
67507W        W39822   3.768   1.859  10.434
67508W        W39823  33.497  10.209   2.836
67509W        W39824  23.530   9.240   3.181
67510W        W39825  42.841   5.350  13.371
67511W        W39826  15.616   3.431  11.894
67512W        W39827  44.383   4.243   4.708
67513W        W39828  12.627  26.677  11.989
67514W        W39829  19.110  32.611   3.797
67515W        W39830  10.808   9.732   0.819
67516W        W39831  22.576  23.727  11.102
67517W        W39832  10.743  24.705   2.765
67518W        W39833  28.547   9.395   2.223
67519W        W39834   0.855   3.884   0.797
67520W        W39835  32.562  26.993  14.502
67521W        W39836  19.730   4.238   1.804
67522W        W39837  27.989  40.371  10.499
67523W        W39838   2.409  29.587  12.858
67524W        W39839  34.877  28.521  11.005
67525W        W39840  29.611  42.374   3.157
67526W        W39841   0.772  43.489   4.268
67527W        W39842  42.960  16.772  13.387
67528W        W39843   6.737   1.403   2.332
67529W        W39844  16.727  39.019  12.434
67530W        W39845  36.355   7.231  10.919
67531W        W39846   8.855   9.346   4.740
67532W        W39847  24.578   7.367   0.800
67533W        W39848  23.500   6.753   3.147
67534W        W39849  37.990  21.720   3.683
67535W        W39850   2.309   7.326   3.359
67536W        W39851  36.908  36.921  10.985
67537W        W39852  32.923  10.671   1.921
67538W        W39853  35.022  34.015  12.410
67539W        W39854  17.707  38.980  14.349
67540W        W39855  19.263  30.960   1.794
67541W        W39856   8.717  20.226  13.523
67542W        W39857  40.990   1.260  11.106
67543W        W39858  15.270  21.696   4.185
67544W        W39859  41.295  31.055  12.097
67545W        W39860   4.296  12.644   4.610
67546W        W39861  33.937   2.818  14.467
67547W        W39862  29.625  29.456  10.001
67548W        W39863  35.562  34.889  14.832
67549W        W39864  19.190  29.550   4.148
67550W        W39865   7.726  23.517   2.378
67551W        W39866  44.284  42.965  14.407
67552W        W39867   1.463   6.332  13.352
67553W        W39868  18.248   3.220  12.445
67554W        W39869  18.247   5.917  12.972
67555W        W39870  11.784  35.520  12.883
67556W        W39871  23.559  12.665   0.372
67557W        W39872  30.129  20.168   2.720
67558W        W39873  34.981  42.791  14.817
67559W        W39874  29.650  19.577  13.417
67560W        W39875  40.869  27.037   4.792
67561W        W39876  18.686   7.219  10.443
67562W        W39877   6.903  28.596  14.276
67563W        W39878  29.664  18.227  11.455
67564W        W39879  33.392  24.222  12.457
67565W        W39880  29.507   1.754   5.297
67566W        W39881   7.846  24.101  11.419
67567W        W39882   7.698   6.845  13.424
67568W        W39883  21.630  19.232   0.885
67569W        W39884   1.273  16.196  11.026
67570W        W39885   5.417  44.370   3.228
67571W        W39886  35.562  35.890   0.286
67572W        W39887   9.195  41.465   4.151
67573W        W39888   5.269  16.126   4.764
67574W        W39889   3.797  30.111   4.284
67575W        W39890   1.396  15.627  11.055
67576W        W39891  17.665  18.642  10.501
67577W        W39892  25.665  33.546  13.371
67578W        W39893  14.236  44.871  12.368
67579W        W39894  36.571  13.232  10.521
67580W        W39895  44.774  22.629   2.828
67581W        W39896  34.375  30.000  14.366
67582W        W39897  19.232  35.054  12.472
67583W        W39898  44.794  31.407  11.397
67584W        W39899   2.727  19.768   4.174
67585W        W39900  32.073   2.404   0.782
67586W        W39901  38.552  38.374   4.758
67587W        W39902   0.491  11.686   1.225
67588W        W39903  24.154  13.168   1.290
67589W        W39904  18.080   3.775  14.445
67590W        W39905  36.592  13.694  10.897
67591W        W39906  42.451   8.299  12.841
67592W        W39907  16.661  25.520   1.430
67593W        W39908  42.977  15.714  13.469
67594W        W39909   3.333  29.089   3.266
67595W        W39910   2.414   6.888   1.830
67596W        W39911  43.508  13.207   3.837
67597W        W39912   2.226  21.543   2.664
67598W        W39913  40.020  33.554  14.403
67599W        W39914  23.718  21.645   9.626
67600W        W39915  26.068  36.981  12.563
67601W        W39916   5.226   1.438  10.645
67602W        W39917  26.983   3.738   9.980
67603W        W39918  36.482  21.128  11.007
67604W        W39919   7.180  35.507  10.580
67605W        W39920  17.700  30.627   3.745
67606W        W39921  31.906  28.083   2.858
67607W        W39922  34.888  29.106  11.494
67608W        W39923  29.070  22.080   1.303
67609W        W39924  38.342  34.390   4.236
67610W        W39925  22.538   8.743   4.142
67611W        W39926  13.700  14.177  12.034
67612W        W39927  31.100   5.755   2.397
67613W        W39928   4.779  31.932   4.271
67614W        W39929  34.533  35.896   4.201
67615W        W39930  20.039  20.743   1.433
67616W        W39931   3.453  29.644  11.088
67617W        W39932   0.348  18.657   1.709
67618W        W39933  29.524  28.592  11.864
67619W        W39934  30.609  29.934  12.079
67620W        W39935  20.233  18.765   3.238
67621W        W39936  28.471  15.127   0.295
67622W        W39937  24.540  15.276   0.282
67623W        W39938  17.097   5.372   2.414
67624W        W39939  42.914   1.383   3.707
67625W        W39940  27.049  25.996  14.438
67626W        W39941  27.460  31.605  13.900
67627W        W39942   3.733  12.259   1.720
67628W        W39943  39.417  28.557   4.322
67629W        W39944   8.383  40.798   1.238
67630W        W39945  21.231  26.207  12.513
67631W        W39946  23.700  26.593  10.608
67632W        W39947   6.397  44.957   0.866
67633W        W39948  39.416  38.915   1.251
67634W        W39949  35.074  13.814  14.807
67635W        W39950  15.190  10.320   4.183
67636W        W39951  29.495  40.986  13.857
67637W        W39952   3.412   3.768  13.405
67638W        W39953  17.175   7.354  10.961
67639W        W39954   0.491  12.716   0.262
67640W        W39955   6.762  33.071  11.045
67641W        W39956  32.481  13.814   2.340
67642W        W39957  26.019   6.790  12.396
67643W        W39958  20.594   9.851   1.332
67644W        W39959  15.198  26.691  13.022
67645W        W39960   7.336  26.048  11.609
67646W        W39961   2.952  14.784   3.333
67647W        W39962  35.892  20.598   4.199
67648W        W39963   7.841  13.180   5.085
67649W        W39964  27.133  35.524  13.409
67650W        W39965  23.062  26.497   4.144
67651W        W39966  13.636  40.018   0.820
67652W        W39967  24.637  27.630  12.510
67653W        W39968  21.610   3.754  10.512
67654W        W39969  36.976  31.435  13.827
67655W        W39970   9.362  16.657  14.887
67656W        W39971   1.315  33.943   4.692
67657W        W39972  38.909  30.467   4.180
67658W        W39973  29.085  28.653  12.423
67659W        W39974   6.402  19.268  12.416
67660W        W39975  38.445  35.405   1.877
67661W        W39976  40.315  34.882   2.180
67662W        W39977  16.105  32.950  13.347
67663W        W39978  20.134  24.559  11.374
67664W        W39979  24.652  11.189  11.416
67665W        W39980   3.369  24.643   0.308
67666W        W39981  38.074  38.896   1.403
67667W        W39982  24.698   4.338   4.659
67668W        W39983  27.686  35.921  12.041
67669W        W39984  16.139  18.167  14.364
67670W        W39985  28.061  20.216  14.780
67671W        W39986  17.642   3.418  12.500
67672W        W39987  26.035  20.741  14.439
67673W        W39988  26.135  28.641  11.878
67674W        W39989  33.586   1.253   3.687
67675W        W39990  12.232  11.306  10.975
67676W        W39991  11.796  33.569   4.300
67677W        W39992   7.820  18.711   0.410
67678W        W39993  19.213  12.855   2.201
67679W        W39994   4.342  21.618   1.308
67680W        W39995  13.663  38.422  14.457
67681W        W39996  32.929   1.900  14.512
67682W        W39997  20.626  25.685   0.347
67683W        W39998  16.754  40.944  12.401
67684W        W39999  34.984  35.903   5.201
67685W        W40000  23.590  30.164  11.995
67686W        W40001  43.799   3.932   1.289
67687W        W40002  20.195  37.425   0.833
67688W        W40003  34.591  23.217  14.775
67689W        W40004  40.312  43.291  10.467
67690W        W40005  18.168   9.349   4.154
67691W        W40006  41.309  30.002  12.922
67692W        W40007  38.416   0.973  11.577
67693W        W40008  32.431  30.951  11.010
67694W        W40009  37.954  30.136  11.043
67695W        W40010  44.380   8.206  12.005
67696W        W40011  40.308  38.371   0.303
67697W        W40012  30.152  25.972   3.198
67698W        W40013  20.147  16.774   3.178
67699W        W40014  25.669  13.841   3.844
67700W        W40015  44.803   7.786  12.914
67701W        W40016  40.892   4.849  14.392
67702W        W40017   0.897  30.144  14.845
67703W        W40018   2.346   6.347   4.195
67704W        W40019  21.578  12.819   2.181
67705W        W40020  28.079  18.099   4.801
67706W        W40021  35.433  37.432   0.354
67707W        W40022   2.470  35.888  14.514
67708W        W40023  19.092  39.496   4.319
67709W        W40024  32.481   0.923  11.451
67710W        W40025   0.278  11.798  14.802
67711W        W40026  41.339  21.248   4.806
67712W        W40027  13.157   0.354   4.773
67713W        W40028  28.179   5.204   3.694
67714W        W40029   6.831  27.473   4.246
67715W        W40030   8.308  43.876   4.251
67716W        W40031  35.010   1.775  10.641
67717W        W40032  15.680   7.862   4.685
67718W        W40033  25.560  36.482   1.311
67719W        W40034  33.005   4.731   2.339
67720W        W40035  31.095  36.845  10.987
67721W        W40036   1.356  28.465   1.846
67722W        W40037  18.738  36.889  11.120
67723W        W40038  36.416  43.463   1.862
67724W        W40039   5.219  14.154   2.328
67725W        W40040  33.402  35.893   2.373
67726W        W40041   2.941   4.338   1.829
67727W        W40042  43.913  30.636  13.414
67728W        W40043   9.343  38.832   4.116
67729W        W40044  27.607  28.449   0.858
67730W        W40045  26.198  40.424   3.351
67731W        W40046   3.395  41.497   3.168
67732W        W40047  38.949  38.001  13.800
67733W        W40048  37.853  42.502   4.683
67734W        W40049  30.071  16.696  14.917
67735W        W40050   4.223  38.367  10.455
67736W        W40051   6.858   7.396  14.002
67737W        W40052   3.953  23.051   1.288
67738W        W40053  27.452   7.253   3.751
67739W        W40054  19.583  43.509  12.572
67740W        W40055   3.359   9.808   0.274
67741W        W40056   0.925  34.064   5.795
67742W        W40057  31.151   4.205   0.778
67743W        W40058  25.496  36.964   0.922
67744W        W40059   8.398  27.483   3.849
67745W        W40060  11.354  15.811  12.512
67746W        W40061  33.460   6.687  10.889
67747W        W40062   4.763  25.154   1.853
67748W        W40063  37.457  30.042   2.729
67749W        W40064  22.542  36.377   1.875
67750W        W40065  35.008  21.157  13.973
67751W        W40066  20.102   9.645   2.197
67752W        W40067  33.998  34.611   1.786
67753W        W40068  30.629  36.874   0.436
67754W        W40069  44.997  42.415  11.594
67755W        W40070  16.733  27.496   2.382
67756W        W40071   5.778   3.332   3.747
67757W        W40072  25.004  16.575  10.609
67758W        W40073  39.411  17.626   4.165
67759W        W40074  11.226  27.692  12.936
67760W        W40075  28.633  17.269  11.464
67761W        W40076  41.503  32.625  13.954
67762W        W40077  16.759  28.671   2.301
67763W        W40078  16.607  44.381   1.395
67764W        W40079  33.098   0.964  14.955
67765W        W40080  20.224  27.616   1.846
67766W        W40081  42.889  36.579   4.188
67767W        W40082  36.917  14.337  14.300
67768W        W40083  10.855   9.286   2.239
67769W        W40084  35.027  16.683  13.352
67770W        W40085  34.919  32.633   1.305
67771W        W40086   7.893  35.976   3.718
67772W        W40087   9.299  11.333   1.360
67773W        W40088   9.299  19.579   2.837
67774W        W40089  39.840  27.157   4.760
67775W        W40090  37.381  19.096  12.091
67776W        W40091  26.624  38.947   3.333
67777W        W40092   9.706  26.132  14.938
67778W        W40093  15.272  40.470  14.887
67779W        W40094  44.878  33.986   4.136
67780W        W40095  19.779  18.243  11.498
67781W        W40096  33.626  44.761   0.418
67782W        W40097   3.860  32.056  11.591
67783W        W40098  39.452  22.698  10.966
67784W        W40099  39.945  25.615  14.399
67785W        W40100   0.389  40.541   2.853
67786W        W40101   3.299  29.932  11.556
67787W        W40102  34.900  12.277   2.685
67788W        W40103  25.184  36.059   0.262
67789W        W40104  35.396   5.735   1.910
67790W        W40105   1.886   6.305   1.696
67791W        W40106  11.320  12.646   1.900
67792W        W40107  30.997  24.557   2.869
67793W        W40108  14.818  35.476   2.255
67794W        W40109  18.119  32.400  14.397
67795W        W40110  38.490  38.332  10.569
67796W        W40111  44.862  44.840  12.868
67797W        W40112  33.555  41.846   3.774
67798W        W40113   3.866  16.572   1.396
67799W        W40114  13.832  27.105  11.039
67800W        W40115  24.973  35.365   0.766
67801W        W40116  31.582   3.337  13.495
67802W        W40117   0.785  17.181   2.813
67803W        W40118   2.370  44.408  10.486
67804W        W40119  42.463  33.481   2.220
67805W        W40120  28.029  10.305   0.800
67806W        W40121  43.971   5.247  14.763
67807W        W40122  24.129  43.964   1.233
67808W        W40123  22.103  29.546  10.582
67809W        W40124  33.006   3.363   3.256
67810W        W40125  33.418  14.214   2.177
67811W        W40126  34.545  15.243  11.041
67812W        W40127   4.772  29.976  11.011
67813W        W40128   7.870  26.506  13.010
67814W        W40129  43.787  20.642  12.883
67815W        W40130  38.388  33.003   2.836
67816W        W40131   9.839   7.258  14.893
67817W        W40132   7.388  22.147  10.451
67818W        W40133  39.339  12.313   3.167
67819W        W40134  34.937  31.960   4.765
67820W        W40135  30.614   4.343   3.169
67821W        W40136  35.057  30.936   0.344
67822W        W40137   7.840  23.017  13.031
67823W        W40138   4.707  10.241  11.924
67824W        W40139  34.033  34.585   0.343
67825W        W40140  21.079  37.463   1.417
67826W        W40141  13.679  40.451   1.797
67827W        W40142  35.417   9.269  13.472
67828W        W40143  30.074  13.787   1.899
67829W        W40144   2.806  18.089   0.826
67830W        W40145  15.255  44.284  11.557
67831W        W40146  23.626  10.141   4.170
67832W        W40147  14.223  38.352  11.086
67833W        W40148  33.542   6.683   3.733
67834W        W40149   0.317  20.075  14.796
67835W        W40150  10.673  36.523   0.835
67836W        W40151   0.430  17.268  10.582
67837W        W40152  24.016  20.077  11.875
67838W        W40153  29.169  18.089  13.359
67839W        W40154  32.039   3.275   2.897
67840W        W40155  13.617  36.030  14.338
67841W        W40156  43.505  17.606   4.273
67842W        W40157   6.272   6.886  14.961
67843W        W40158  18.747  34.950  13.861
67844W        W40159   7.797  13.794   1.847
67845W        W40160  27.489  30.570  13.311
67846W        W40161  31.926  19.598  11.447
67847W        W40162  21.519  10.356   2.274
67848W        W40163  33.401  43.890  12.449
67849W        W40164  40.815  14.749  11.504
67850W        W40165  14.249  36.860   0.249
67851W        W40166  15.646  18.144  11.073
67852W        W40167   7.838  30.527  13.823
67853W        W40168   3.917  32.117   2.783
67854W        W40169   1.306  34.090  13.030
67855W        W40170  14.733  32.082  12.968
67856W        W40171  44.470  22.120   3.795
67857W        W40172  40.320  39.812  14.391
67858W        W40173  35.488  38.428   3.774
67859W        W40174  34.526   4.698   0.821
67860W        W40175  19.707  22.233   1.817
67861W        W40176  30.966  39.922  14.294
67862W        W40177  31.588   8.780   1.226
67863W        W40178  40.840  14.319   4.719
67864W        W40179   9.232  42.375   0.876
67865W        W40180   7.718  29.631   4.313
67866W        W40181  33.460   9.744  11.403
67867W        W40182  43.443   1.424   1.748
67868W        W40183  27.602  17.155   1.784
67869W        W40184  24.115  13.762   3.319
67870W        W40185  41.319   2.323  13.998
67871W        W40186   4.275  22.575   3.629
67872W        W40187  20.104  14.151  11.510
67873W        W40188  34.581   6.203  14.917
67874W        W40189  26.472  15.647   4.714
67875W        W40190  38.014  26.513  11.857
67876W        W40191   0.925  13.177   1.385
67877W        W40192   0.861  31.898  12.831
67878W        W40193   5.908  25.549  10.490
67879W        W40194  15.308   0.350  10.550
67880W        W40195   3.767  13.667  11.943
67881W        W40196  30.078  43.838  14.365
67882W        W40197  44.906   7.320  12.503
67883W        W40198  16.685  35.910   2.348
67884W        W40199  10.306   4.346   1.729
67885W        W40200  21.608  14.306  11.516
67886W        W40201  28.581  13.234  12.829
67887W        W40202  13.732  18.172   0.923
67888W        W40203  37.889  14.734   1.847
67889W        W40204  15.800  44.913   3.803
67890W        W40205  24.600   7.217   2.362
67891W        W40206  26.680  34.529  10.023
67892W        W40207  23.225  15.325   0.281
67893W        W40208  18.116  44.945  10.509
67894W        W40209  22.681  32.407   4.156
67895W        W40210  24.646  13.171  12.896
67896W        W40211  14.275  15.275  12.982
67897W        W40212  37.868  42.404  10.510
67898W        W40213  38.400  39.830  14.485
67899W        W40214  13.804   4.871   1.303
67900W        W40215   4.398  21.727  13.028
67901W        W40216   0.933  16.087   2.398
67902W        W40217   3.763  24.044  14.417
67903W        W40218  40.499   6.723   0.762
67904W        W40219  32.068  26.953   4.789
67905W        W40220   0.392  20.113   4.661
67906W        W40221  43.437  22.576   4.813
67907W        W40222   6.715  36.048   4.606
67908W        W40223  28.180  24.652   4.208
67909W        W40224  31.002  16.714   1.899
67910W        W40225  33.576  35.377   2.328
67911W        W40226  24.514  32.089   0.862
67912W        W40227   3.784  15.326   3.840
67913W        W40228  20.751  24.026  12.410
67914W        W40229  32.551   9.831  10.444
67915W        W40230   2.440  23.601   3.722
67916W        W40231  15.326   9.751  13.946
67917W        W40232   5.192  18.294   3.765
67918W        W40233  43.492  23.132  13.874
67919W        W40234  30.081  29.966   0.479
67920W        W40235  32.977  40.001  10.508
67921W        W40236  27.111  40.341  10.001
67922W        W40237  32.136   1.952  14.774
67923W        W40238  32.586  19.132   4.229
67924W        W40239  34.055  34.919  12.450
67925W        W40240  36.489  39.861  13.329
67926W        W40241   5.797  44.786  12.040
67927W        W40242   9.370   9.786   3.658
67928W        W40243   0.909   2.727  13.542
67929W        W40244   8.326   5.244   2.728
67930W        W40245  29.636  18.284   0.260
67931W        W40246  35.965  37.081  11.981
67932W        W40247  10.739  22.634   3.660
67933W        W40248  35.952  39.394  10.907
67934W        W40249   6.370   5.738   0.959
67935W        W40250  35.536   2.868   2.402
67936W        W40251   5.226  37.038   1.232
67937W        W40252  39.934  35.542  12.512
67938W        W40253  35.962  16.774  10.939
67939W        W40254  42.522  16.301   2.694
67940W        W40255   2.367  12.715  11.400
67941W        W40256   8.317  10.637   4.318
67942W        W40257   1.241  37.351   4.730
67943W        W40258   3.269  18.193   0.468
67944W        W40259  38.998  35.061  10.524
67945W        W40260  26.666  15.295  13.534
67946W        W40261  34.553  25.076  10.597
67947W        W40262  38.015  15.776   2.346
67948W        W40263  11.842  28.083   4.167
67949W        W40264  21.569  29.117   3.155
67950W        W40265  22.697  29.460  13.023
67951W        W40266  14.165  44.987   3.667
67952W        W40267   6.905   1.269   4.331
67953W        W40268  29.597  33.894  14.300
67954W        W40269  32.434  24.055  13.017
67955W        W40270  19.672  35.891   1.816
67956W        W40271  23.221  17.122  11.937
67957W        W40272   7.244  22.613  12.433
67958W        W40273  37.947  37.456  12.441
67959W        W40274  38.829   5.261   0.435
67960W        W40275   6.788   5.353  13.815
67961W        W40276  43.281   2.867  10.569
67962W        W40277  40.309  30.608   0.853
67963W        W40278  19.094  37.435  10.910
67964W        W40279   3.802  36.025   4.172
67965W        W40280  34.984  21.081  10.532
67966W        W40281  28.165  26.525   2.288
67967W        W40282   0.763  35.358  13.944
67968W        W40283   0.462  27.113  12.517
67969W        W40284  37.531  40.519   1.280
67970W        W40285   2.955  20.647  12.881
67971W        W40286   4.939   3.711  14.792
67972W        W40287   4.709  29.990  10.606
67973W        W40288  37.019   8.210   4.264
67974W        W40289  30.502  31.500   3.161
67975W        W40290  25.705  12.804   3.701
67976W        W40291  26.068   9.161  12.504
67977W        W40292  37.429   5.912  12.952
67978W        W40293  20.755  39.874   0.967
67979W        W40294  24.589   3.730  10.611
67980W        W40295  15.802  33.405  14.311
67981W        W40296  29.023  21.124  11.061
67982W        W40297   7.340   2.368   0.798
67983W        W40298  15.608  11.665   4.130
67984W        W40299  44.788  21.192  10.467
67985W        W40300   3.266  41.301  14.861
67986W        W40301   9.390  37.930  13.952
67987W        W40302  30.014  35.915   2.739
67988W        W40303   4.702  28.518   3.254
67989W        W40304  14.209  36.542   5.097
67990W        W40305  34.526  39.332  10.439
67991W        W40306   9.357   0.823  12.094
67992W        W40307  41.390  25.171   1.276
67993W        W40308   9.252   3.392   4.115
67994W        W40309  34.541  42.818   3.269
67995W        W40310  18.280   3.234  12.030
67996W        W40311   1.323  16.265   4.742
67997W        W40312  36.364  36.989   1.372
67998W        W40313  44.005  25.471  10.634
67999W        W40314  31.529  39.932   4.757
68000W        W40315   3.924  39.927   0.949
68001W        W40316  30.632   1.821   2.697
68002W        W40317  40.318  41.870   0.860
68003W        W40318  11.190   8.840  12.938
68004W        W40319  43.309   2.885  14.896
68005W        W40320  26.685  29.492   2.277
68006W        W40321  38.514  41.009  12.435
68007W        W40322  30.520  43.997  14.376
68008W        W40323  10.766  10.747  14.403
68009W        W40324  42.383  34.396   1.712
68010W        W40325  34.095  32.021  13.544
68011W        W40326  16.633  29.928  11.460
68012W        W40327   1.927  39.403  14.479
68013W        W40328   1.741  13.327   3.343
68014W        W40329  28.639   7.201  11.413
68015W        W40330  31.076  40.319   2.662
68016W        W40331  38.405  44.874  13.309
68017W        W40332  36.346  32.610   1.838
68018W        W40333  25.679  16.619   1.327
68019W        W40334  27.513  31.148   1.240
68020W        W40335   3.849   1.367   3.756
68021W        W40336  41.895  15.311  12.898
68022W        W40337  22.657  44.279  11.598
68023W        W40338  42.804   6.725   2.256
68024W        W40339  31.962  33.988  12.952
68025W        W40340  23.048  39.410   3.244
68026W        W40341  26.572  20.120   2.407
68027W        W40342  32.494   6.873   1.353
68028W        W40343  13.331   7.349  10.996
68029W        W40344  18.228  26.607  13.803
68030W        W40345  27.527  24.708  12.944
68031W        W40346  21.022  18.213   3.187
68032W        W40347  18.607  40.049  10.471
68033W        W40348  29.644  16.242  10.939
68034W        W40349  37.347  17.196  13.544
68035W        W40350  13.305  19.227   2.261
68036W        W40351   1.939   2.765   0.287
68037W        W40352   8.374  21.546   4.683
68038W        W40353  38.846  24.134  14.931
68039W        W40354  42.905  38.457   0.841
68040W        W40355  27.611  21.107   0.841
68041W        W40356   4.922  22.505   4.267
68042W        W40357  43.484  37.415   2.686
68043W        W40358   8.263   7.314  12.860
68044W        W40359   1.461  19.063  13.444
68045W        W40360  34.988   7.813  10.977
68046W        W40361  16.155  13.692  14.491
68047W        W40362  22.050   7.293  10.542
68048W        W40363  26.482  13.161   1.443
68049W        W40364  31.532   0.407  11.883
68050W        W40365  11.277   0.780  12.471
68051W        W40366  20.066   1.266  14.429
68052W        W40367  29.066  44.490   0.387
68053W        W40368   3.442  17.565  13.971
68054W        W40369   3.309  28.666  10.615
68055W        W40370  28.043  34.369   4.779
68056W        W40371  38.855  17.291   0.881
68057W        W40372   1.294  38.931   2.813
68058W        W40373  34.547  17.660   1.438
68059W        W40374  21.671  38.985  12.027
68060W        W40375   7.810  24.612  11.385
68061W        W40376  14.229  41.023   4.707
68062W        W40377   0.251  11.283  11.464
68063W        W40378  31.586  21.564   4.230
68064W        W40379  13.684  31.424  11.995
68065W        W40380  19.152  12.705  11.009
68066W        W40381   6.338   9.835   4.317
68067W        W40382  16.130  31.934   0.755
68068W        W40383  17.610  25.150   0.249
68069W        W40384  25.530  26.684  11.986
68070W        W40385  32.602  43.351  13.954
68071W        W40386  33.391  26.105   0.267
68072W        W40387  16.289  22.589   1.811
68073W        W40388   1.307  29.470   2.821
68074W        W40389  43.820  21.660  11.499
68075W        W40390  34.909  10.648   1.907
68076W        W40391  41.352  13.760  12.941
68077W        W40392   2.450  12.257   3.272
68078W        W40393  31.486  26.497  13.408
68079W        W40394  23.071  17.137   0.274
68080W        W40395  28.504  31.646  14.963
68081W        W40396   4.249   3.217  13.821
68082W        W40397  17.294  24.171  12.088
68083W        W40398  39.463  16.766   2.406
68084W        W40399  44.376  18.711  14.290
68085W        W40400  43.319  35.549  10.921
68086W        W40401  12.317   4.823  11.973
68087W        W40402  12.744  24.051   3.784
68088W        W40403   3.397  42.958   1.802
68089W        W40404  11.155  22.108   3.222
68090W        W40405  23.115  11.131   1.852
68091W        W40406   6.196   4.936   3.359
68092W        W40407   7.415  28.672   3.829
68093W        W40408  34.467  10.813  14.971
68094W        W40409  35.528  24.511   1.925
68095W        W40410  43.851  29.919  11.981
68096W        W40411  27.516  38.459   3.863
68097W        W40412   7.688   0.317   3.309
68098W        W40413  27.146   6.683   2.898
68099W        W40414   1.795  20.049  11.458
68100W        W40415  35.874  24.204  13.051
68101W        W40416   3.873  30.525   1.218
68102W        W40417  33.882  14.623   1.278
68103W        W40418  26.180  39.954  12.531
68104W        W40419  38.994   8.720   0.245
68105W        W40420  11.710  10.637  11.422
68106W        W40421   8.281   3.918  12.481
68107W        W40422  12.269  25.182   0.738
68108W        W40423  35.459   6.776   4.675
68109W        W40424   7.718   7.811   4.783
68110W        W40425  26.129  29.084   4.772
68111W        W40426  32.578   1.243  14.503
68112W        W40427  33.386  21.740  13.515
68113W        W40428  10.841   7.404   3.232
68114W        W40429  41.847  22.016  12.392
68115W        W40430  38.552  24.089  14.489
68116W        W40431   6.423   2.262  14.471
68117W        W40432  27.540  21.069  11.887
68118W        W40433  11.339  40.991   2.715
68119W        W40434   7.259  37.072   3.839
68120W        W40435  19.736  28.080   0.334
68121W        W40436  38.038  21.196   4.715
68122W        W40437  12.312   3.434  12.933
68123W        W40438  37.954  24.133   0.424
68124W        W40439  44.765  20.755   1.320
68125W        W40440  38.005   4.435   4.642
68126W        W40441  17.567   3.803  12.841
68127W        W40442  21.556  20.628  11.077
68128W        W40443  25.122   3.298  14.896
68129W        W40444  28.002  19.207   4.645
68130W        W40445  33.541  18.114   0.438
68131W        W40446  24.175  11.772  10.617
68132W        W40447  17.139   0.409   4.638
68133W        W40448  24.662  43.002  13.403
68134W        W40449   1.883   0.757  10.476
68135W        W40450  42.975  42.797   4.226
68136W        W40451  37.535  12.337   3.337
68137W        W40452  33.441  16.726  13.517
68138W        W40453  38.389  21.565  12.568
68139W        W40454  13.246   5.368   2.205
68140W        W40455  38.882  38.558  10.066
68141W        W40456   0.402   4.738  11.870
68142W        W40457  39.495  44.979   0.446
68143W        W40458  39.407  40.447  11.537
68144W        W40459   9.302  28.081  14.316
68145W        W40460   6.758   3.285  13.505
68146W        W40461   6.206   1.861  14.950
68147W        W40462  30.583  35.063   3.308
68148W        W40463  37.888  40.976   1.814
68149W        W40464  28.062   6.296   2.308
68150W        W40465  11.336  43.478   1.714
68151W        W40466  20.148  28.636  10.472
68152W        W40467   2.379  24.998   4.821
68153W        W40468  24.663  31.596  12.482
68154W        W40469   0.964  13.341  13.447
68155W        W40470   1.461  24.228   2.368
68156W        W40471   4.883  13.720   0.262
68157W        W40472  13.300  20.757  12.563
68158W        W40473  38.902  16.287   1.395
68159W        W40474   0.297   7.393  10.980
68160W        W40475  32.540   1.846   2.766
68161W        W40476   8.175   0.392   4.826
68162W        W40477   5.223   3.921  13.016
68163W        W40478  23.655  27.052  10.509
68164W        W40479  11.700   3.226   4.680
68165W        W40480  29.107  33.029   2.868
68166W        W40481  21.132   1.838   3.324
68167W        W40482  10.231   4.286  11.414
68168W        W40483  15.285  33.890   2.835
68169W        W40484  28.562  16.641   4.313
68170W        W40485   5.691   7.714   4.807
68171W        W40486  14.805  14.705  11.972
68172W        W40487  39.422   9.756   4.819
68173W        W40488  13.269  23.139   2.871
68174W        W40489  29.099  42.434  12.950
68175W        W40490   3.796   1.774  11.539
68176W        W40491   5.318  31.977   4.241
68177W        W40492   8.342  14.745   2.789
68178W        W40493  24.980  34.081  14.452
68179W        W40494   4.438  12.351  11.079
68180W        W40495  17.782  39.404   1.402
68181W        W40496  23.571   3.405   0.785
68182W        W40497  17.244  38.362   0.338
68183W        W40498  32.511  22.012   3.682
68184W        W40499  10.364  18.282  12.928
68185W        W40500   5.713  24.582   1.258
68186W        W40501   9.247  12.694  10.526
68187W        W40502   0.828  21.259   4.232
68188W        W40503  20.106  10.372  14.899
68189W        W40504  18.130  44.926   4.749
68190W        W40505  18.566  25.557   0.307
68191W        W40506  40.849  19.761   3.198
68192W        W40507  39.524   6.858   0.740
68193W        W40508   8.343  19.773  14.024
68194W        W40509  42.441   6.680   3.298
68195W        W40510  18.558   3.379  10.898
68196W        W40511  38.983  14.648   1.916
68197W        W40512  44.297  13.317   9.931
68198W        W40513   9.275  19.069  10.522
68199W        W40514  41.477  40.844  10.900
68200W        W40515  16.779  11.755  11.483
68201W        W40516  30.607  29.469  14.429
68202W        W40517   1.840  11.663  11.432
68203W        W40518   3.275  19.603  12.031
68204W        W40519  42.803  14.267  11.037
68205W        W40520  32.128   1.260  11.087
68206W        W40521  40.436  27.122  10.960
68207W        W40522  14.310  18.141   1.889
68208W        W40523  18.782   3.320  11.936
68209W        W40524  39.861   8.369  11.931
68210W        W40525  17.206  29.434  14.813
68211W        W40526   8.777  10.768  13.548
68212W        W40527  14.631  14.761   3.638
68213W        W40528  40.431  18.749  14.387
68214W        W40529   9.825  16.786   9.641
68215W        W40530  14.281   8.278  12.062
68216W        W40531   7.895  12.801   1.217
68217W        W40532  14.134  22.227   1.342
68218W        W40533  15.315   9.240   4.833
68219W        W40534  12.134  20.680  12.396
68220W        W40535  32.964  30.078  11.856
68221W        W40536   8.811   7.333  12.062
68222W        W40537  29.135  41.323  12.913
68223W        W40538  27.474  40.893   1.420
68224W        W40539   5.228  28.012  10.491
68225W        W40540  19.684  29.639  10.951
68226W        W40541  28.092   1.266   3.330
68227W        W40542  19.283  17.666  10.422
68228W        W40543  26.614  37.958   2.745
68229W        W40544  40.004  44.797   0.293
68230W        W40545  38.930  16.603   4.743
68231W        W40546  25.473  25.967  12.937
68232W        W40547  22.112  24.495   2.215
68233W        W40548   2.228  32.059   3.244
68234W        W40549  40.825  37.549  12.470
68235W        W40550  25.987   6.747   5.310
68236W        W40551  10.772  27.963  11.475
68237W        W40552   7.240  25.086  11.855
68238W        W40553  15.803  24.501  14.502
68239W        W40554  30.996  12.624  14.317
68240W        W40555  18.066   1.465   2.237
68241W        W40556  18.196  13.777  10.495
68242W        W40557  36.080  10.381   4.681
68243W        W40558  31.150  18.069  12.891
68244W        W40559  36.486   5.775   1.846
68245W        W40560  22.121  39.916  11.574
68246W        W40561  39.368  39.409   3.382
68247W        W40562  24.190  18.227  10.460
68248W        W40563   5.411  21.526   2.739
68249W        W40564  43.409  15.256  11.431
68250W        W40565  27.132  29.559   0.365
68251W        W40566  41.969   9.204   0.277
68252W        W40567  11.682  30.117  14.814
68253W        W40568  35.998   3.782   2.214
68254W        W40569  28.154  23.697   0.793
68255W        W40570   9.800  13.843   0.795
68256W        W40571   8.358  39.558   4.722
68257W        W40572  31.434  10.358  12.574
68258W        W40573   5.361  32.448  11.862
68259W        W40574  26.056  11.661  10.607
68260W        W40575  18.770  20.592   4.143
68261W        W40576   5.357  34.079  12.024
68262W        W40577   0.323   4.338   0.393
68263W        W40578  44.502  31.111  10.916
68264W        W40579  31.473  26.673  14.337
68265W        W40580  43.964  18.186  14.902
68266W        W40581  43.399  15.175  13.400
68267W        W40582  11.269  27.109   0.943
68268W        W40583  32.903   5.845   3.283
68269W        W40584  11.363   2.444   3.826
68270W        W40585  30.022  28.442  14.357
68271W        W40586   2.784  19.566  11.545
68272W        W40587  22.673  21.703   5.240
68273W        W40588  43.951  37.425  13.902
68274W        W40589  13.285   8.838  13.394
68275W        W40590  29.119  18.243  11.066
68276W        W40591  23.652  43.345  13.946
68277W        W40592  25.100  17.664  10.549
68278W        W40593  43.385  40.861  14.404
68279W        W40594   8.664  20.059  11.459
68280W        W40595  13.662   7.270   3.177
68281W        W40596   7.255   0.912   2.229
68282W        W40597  40.015  37.851   3.284
68283W        W40598   4.440  25.198  14.337
68284W        W40599  32.423  24.593  11.880
68285W        W40600  41.353   6.250   0.889
68286W        W40601  36.512  20.737   3.659
68287W        W40602  24.068  44.976   2.903
68288W        W40603  21.117  32.942  12.356
68289W        W40604  33.929  37.382   3.252
68290W        W40605  26.657  17.268  14.768
68291W        W40606  36.451  12.317   2.373
68292W        W40607  29.020   9.803   4.680
68293W        W40608  37.443  27.612  10.435
68294W        W40609  29.653  40.381   4.136
68295W        W40610  13.746  34.486   3.255
68296W        W40611  17.238  13.309  11.520
68297W        W40612  14.321  41.935  10.613
68298W        W40613   8.740   4.842  12.004
68299W        W40614  20.119  35.595   0.450
68300W        W40615  38.466  34.990   3.170
68301W        W40616  15.669  12.188  13.919
68302W        W40617   4.253   6.812   1.240
68303W        W40618   9.263  19.104  11.517
68304W        W40619   8.206  29.577   3.369
68305W        W40620   8.403  14.305  12.041
68306W        W40621  36.355  22.070   2.195
68307W        W40622   5.781   3.403  14.904
68308W        W40623  25.524  28.952   4.134
68309W        W40624  33.424  12.354   4.709
68310W        W40625  26.191   8.871  13.500
68311W        W40626  14.659  31.083   3.297
68312W        W40627  40.865   7.847   1.754
68313W        W40628   9.705  40.504   4.308
68314W        W40629   8.379  40.538  14.933
68315W        W40630  32.559  18.652   4.682
68316W        W40631  13.794  32.629   3.851
68317W        W40632   9.236  20.668   1.716
68318W        W40633   2.398  32.436   2.213
68319W        W40634  43.822  20.141   0.949
68320W        W40635  24.671  26.685  13.878
68321W        W40636  25.997  21.554   0.934
68322W        W40637  24.605  43.493   3.636
68323W        W40638  18.586  25.071   0.822
68324W        W40639  43.352  14.704  14.960
68325W        W40640  41.301   3.353   3.195
68326W        W40641   9.739   3.327  14.848
68327W        W40642  32.952  19.594   2.855
68328W        W40643  13.197   7.364   3.861
68329W        W40644  22.664  41.956  11.486
68330W        W40645  38.032  25.515  10.893
68331W        W40646  41.928   6.410   4.350
68332W        W40647  15.629  44.005   4.238
68333W        W40648   5.870   8.358   1.445
68334W        W40649  26.136  20.697  12.472
68335W        W40650  15.589  28.597  11.023
68336W        W40651  36.074  25.603  11.928
68337W        W40652  35.446  17.298  11.998
68338W        W40653   0.780  17.716   4.301
68339W        W40654   9.811   9.722  10.581
68340W        W40655  37.534  12.336   0.859
68341W        W40656   1.403   6.428  14.414
68342W        W40657  14.719  18.582   4.652
68343W        W40658  24.006  36.911   0.749
68344W        W40659  29.474  43.324   4.747
68345W        W40660   2.868  35.886   1.710
68346W        W40661   5.725  18.705  11.466
68347W        W40662  17.306  28.626  11.427
68348W        W40663  28.570   6.332  13.883
68349W        W40664  34.120  10.273   1.840
68350W        W40665   4.272  19.174   4.716
68351W        W40666  37.037  22.537  11.541
68352W        W40667  42.400  41.010  10.930
68353W        W40668  22.999  21.169  14.852
68354W        W40669  25.987  12.240  13.039
68355W        W40670  33.395   8.292   0.891
68356W        W40671  40.892  42.822  13.869
68357W        W40672   7.323  29.069   3.218
68358W        W40673   1.265  20.554  13.885
68359W        W40674  39.462  30.018  12.930
68360W        W40675  22.675  41.490  13.539
68361W        W40676  38.929  30.516  14.460
68362W        W40677   8.782  28.073  10.536
68363W        W40678  27.172  15.767   2.343
68364W        W40679  12.721  34.915   1.786
68365W        W40680  42.482   2.905   0.380
68366W        W40681   1.871  25.018  12.561
68367W        W40682  28.965  30.015  14.000
68368W        W40683   0.928  25.519  13.059
68369W        W40684  11.640  23.174  10.474
68370W        W40685  32.457  22.602   0.413
68371W        W40686   0.756  26.123  14.491
68372W        W40687   4.245   8.383  12.362
68373W        W40688  13.834  35.378  11.395
68374W        W40689   1.367  12.168  10.997
68375W        W40690  19.106   1.909  10.999
68376W        W40691  40.382  44.438  10.980
68377W        W40692   2.434  31.931  14.836
68378W        W40693   1.821  20.523  13.815
68379W        W40694  17.158  41.518   4.268
68380W        W40695  19.637  12.231   1.812
68381W        W40696   2.455  24.502   2.858
68382W        W40697   7.746  18.131   0.911
68383W        W40698  23.062   6.376   0.818
68384W        W40699  33.522  20.662  13.980
68385W        W40700  14.651  13.159  13.351
68386W        W40701  13.640  37.839  11.117
68387W        W40702  39.429  36.394   4.827
68388W        W40703  22.520  10.348  13.983
68389W        W40704   6.345  14.661  11.895
68390W        W40705  32.586   5.346   1.298
68391W        W40706   8.770   1.888   0.882
68392W        W40707  42.293  30.936   1.295
68393W        W40708  27.953  15.699  14.784
68394W        W40709  14.179  12.307  14.503
68395W        W40710  36.990  23.137  10.495
68396W        W40711  29.967   6.847  14.296
68397W        W40712   7.713  19.227  11.014
68398W        W40713  39.398  24.151  13.999
68399W        W40714   1.414  21.529  11.930
68400W        W40715  42.495  44.758   1.784
68401W        W40716  25.498   0.290   3.755
68402W        W40717  13.192  37.368   9.991
68403W        W40718  25.069  12.833   0.321
68404W        W40719  27.151  21.112  13.875
68405W        W40720  11.342  22.523  12.421
68406W        W40721   0.749  23.007  12.515
68407W        W40722  31.505  26.602  12.397
68408W        W40723  24.530  43.333   4.678
68409W        W40724  14.732  34.896   1.423
68410W        W40725  41.904  33.050   0.939
68411W        W40726  10.352  41.443  13.904
68412W        W40727   8.851  30.553  13.866
68413W        W40728  10.293   9.322   3.646
68414W        W40729  36.067  44.831  14.027
68415W        W40730  11.260  16.305   0.419
68416W        W40731  35.479  24.653  10.599
68417W        W40732   7.254   3.315  14.900
68418W        W40733  30.501   3.849  12.018
68419W        W40734  29.122  15.752  13.969
68420W        W40735  25.691  44.296  12.379
68421W        W40736  18.263  24.505  12.013
68422W        W40737   0.343  39.986  13.370
68423W        W40738  38.914  17.267   1.751
68424W        W40739   6.893  40.302  12.962
68425W        W40740  31.621  34.523   2.742
68426W        W40741   8.352   4.706   0.334
68427W        W40742   7.171  18.088   1.848
68428W        W40743  11.645  14.819  11.101
68429W        W40744  15.775  44.341   1.271
68430W        W40745  43.823  28.668  11.057
68431W        W40746  27.946  17.207   3.285
68432W        W40747  29.664  40.848   4.666
68433W        W40748  27.560  32.066   3.869
68434W        W40749  35.070  33.928   3.162
68435W        W40750  42.794  38.849   0.362
68436W        W40751  32.092  35.909   1.242
68437W        W40752   2.328  32.546   1.826
68438W        W40753  42.457  12.269   4.657
68439W        W40754   6.400  25.967  10.896
68440W        W40755  30.025   9.372   2.418
68441W        W40756  37.074   2.383   0.467
68442W        W40757   6.230  33.562   5.111
68443W        W40758   6.269  41.836   1.896
68444W        W40759   9.300  13.797   1.810
68445W        W40760  16.225   4.321  14.002
68446W        W40761  16.657   9.653   3.794
68447W        W40762  30.924   9.875  12.916
68448W        W40763  23.092  42.023  11.063
68449W        W40764   7.829  35.085   3.817
68450W        W40765   1.460  32.953   0.278
68451W        W40766  25.700  37.474   2.683
68452W        W40767  22.120  13.219   2.317
68453W        W40768  11.312  37.526  12.358
68454W        W40769  26.054  10.261  14.768
68455W        W40770   7.687  21.530   2.415
68456W        W40771   9.254  18.121   0.293
68457W        W40772  18.213  33.981  11.587
68458W        W40773  19.049  32.981   2.294
68459W        W40774  40.994  11.356   0.827
68460W        W40775  35.015  38.063   0.401
68461W        W40776  43.295  19.776   2.320
68462W        W40777  37.037  26.995   1.724
68463W        W40778  32.931   9.260  14.449
68464W        W40779  40.804  25.609   3.275
68465W        W40780  24.096   6.923   1.441
68466W        W40781  40.367  22.128   2.357
68467W        W40782  24.488  28.002   0.316
68468W        W40783  29.962  38.872  14.444
68469W        W40784  29.076  25.217   0.385
68470W        W40785  31.630  34.049   2.417
68471W        W40786  38.422  26.617   9.667
68472W        W40787  34.090   4.294   0.466
68473W        W40788  38.875  23.730  10.061
68474W        W40789  14.722   8.402   0.398
68475W        W40790  15.642  29.635   3.226
68476W        W40791  33.071   4.348  14.784
68477W        W40792  35.542  34.976  14.292
68478W        W40793  43.503  38.938   2.689
68479W        W40794  30.631  25.183   2.717
68480W        W40795  44.455  19.666  13.011
68481W        W40796  10.245  37.914   1.731
68482W        W40797   4.826  10.648   2.688
68483W        W40798  25.591  23.109  11.500
68484W        W40799  38.368  39.003  14.780
68485W        W40800   2.918  44.457   3.779
68486W        W40801   4.231  33.446  13.449
68487W        W40802  41.003  26.961   2.901
68488W        W40803  13.350  40.877   4.599
68489W        W40804  23.143   5.268   0.881
68490W        W40805  17.255  16.664  12.084
68491W        W40806  14.675  16.143  13.510
68492W        W40807  19.627   5.870   3.342
68493W        W40808  14.602  24.045   0.877
68494W        W40809  11.264   1.828   4.169
68495W        W40810   2.868  28.041   4.728
68496W        W40811  31.916  30.114  14.281
68497W        W40812  13.722  10.728  14.488
68498W        W40813  39.837  22.135  10.490
68499W        W40814  28.061  14.108  14.282
68500W        W40815  28.164  20.071   1.441
68501W        W40816  20.160  14.726   4.247
68502W        W40817  15.628  15.261  11.588
68503W        W40818  40.328  29.965  14.909
68504W        W40819  27.983  19.199   2.882
68505W        W40820  23.186  19.217  11.472
68506W        W40821  39.914   6.321  10.406
68507W        W40822  21.529  17.678   4.329
68508W        W40823  11.165   0.780  12.930
68509W        W40824  39.968   8.254   3.738
68510W        W40825  25.992  37.493  12.061
68511W        W40826  35.928   1.879  13.859
68512W        W40827  40.895  16.222  13.030
68513W        W40828  16.619  33.592  10.643
68514W        W40829  15.240   7.804  13.000
68515W        W40830  14.790  23.537   5.240
68516W        W40831  14.278  13.220  13.928
68517W        W40832  24.155  33.926   4.781
68518W        W40833  22.607  12.683  14.480
68519W        W40834  37.879   9.377   3.812
68520W        W40835  38.990  35.870   1.728
68521W        W40836  31.442   6.816   4.156
68522W        W40837  36.369   1.978   4.732
68523W        W40838  43.942   6.709  11.945
68524W        W40839  25.693   3.242   5.122
68525W        W40840  36.525   9.703  14.468
68526W        W40841  13.233   4.288   4.615
68527W        W40842   8.344  19.587   1.711
68528W        W40843  36.491  41.029  13.801
68529W        W40844  39.330  32.983  11.076
68530W        W40845  26.055   2.776  10.474
68531W        W40846  36.042  35.419   3.145
68532W        W40847  17.659   3.346   2.184
68533W        W40848   9.223  21.737   1.884
68534W        W40849  32.913  16.283  13.458
68535W        W40850  36.844  18.174  10.926
68536W        W40851  30.482  36.094  12.368
68537W        W40852  35.025  34.487  12.350
68538W        W40853  12.136   9.371  12.986
68539W        W40854  19.560  40.913  14.450
68540W        W40855  34.510   4.768  13.958
68541W        W40856  34.111  13.794   1.314
68542W        W40857  32.492   3.880  12.922
68543W        W40858   8.754  39.916  11.074
68544W        W40859   1.366   5.782  11.520
68545W        W40860  30.152  22.024  13.365
68546W        W40861  38.367  17.740   3.793
68547W        W40862  10.165   9.252   0.339
68548W        W40863  36.400  36.566  12.412
68549W        W40864  27.573  44.849  10.559
68550W        W40865  17.130  20.106  12.509
68551W        W40866  17.286  22.741  13.434
68552W        W40867  18.768  39.924   9.995
68553W        W40868  26.485  19.216  14.926
68554W        W40869  35.532  38.447   0.956
68555W        W40870  12.797  39.941  14.487
68556W        W40871  31.109  41.010  13.460
68557W        W40872   8.173  26.034  12.004
68558W        W40873  37.062  41.825  14.317
68559W        W40874  23.104  23.657   2.824
68560W        W40875   2.929  33.523   2.874
68561W        W40876  10.874  35.931   3.667
68562W        W40877  25.553  12.726  13.538
68563W        W40878  29.603  38.398  12.379
68564W        W40879   2.421  32.584   1.380
68565W        W40880  42.906  20.070   0.828
68566W        W40881  32.521  28.019   4.652
68567W        W40882   2.823   9.189  12.982
68568W        W40883  36.850  28.482   0.869
68569W        W40884  20.168   9.762  11.080
68570W        W40885   0.967   7.194  10.906
68571W        W40886  13.107  42.451  12.824
68572W        W40887  36.968  38.411  11.026
68573W        W40888  16.789  41.011   1.256
68574W        W40889   4.283   4.413   3.655
68575W        W40890   6.240   1.316   4.618
68576W        W40891  23.082  15.716  11.960
68577W        W40892  38.524  24.531   0.349
68578W        W40893  11.198  37.087   1.911
68579W        W40894   3.406  42.470   1.234
68580W        W40895  35.065  22.571   1.416
68581W        W40896  32.032  28.527  14.477
68582W        W40897  35.479  38.904   3.684
68583W        W40898  34.869  13.160   4.192
68584W        W40899  18.605  34.427  10.404
68585W        W40900   2.783  43.392  13.965
68586W        W40901  37.029  25.708  14.468
68587W        W40902  40.390  43.019   1.829
68588W        W40903  10.775  33.509   0.854
68589W        W40904  29.637  18.573  12.394
68590W        W40905  32.091  32.583  12.472
68591W        W40906   9.305  22.660  12.894
68592W        W40907  14.689  28.543  12.966
68593W        W40908   9.852   7.891  14.356
68594W        W40909  34.882   9.256   1.912
68595W        W40910  17.708  17.140   0.964
68596W        W40911   2.243  37.081  12.074
68597W        W40912  24.025  35.100  14.892
68598W        W40913  38.345   9.735  14.435
68599W        W40914   1.915   8.268   2.777
68600W        W40915  13.785  25.021  12.983
68601W        W40916  24.712  27.185  13.992
68602W        W40917  44.394  15.172  13.864
68603W        W40918   7.197  24.979  12.485
68604W        W40919  29.998  39.470   0.423
68605W        W40920  39.393  22.239   1.308
68606W        W40921  38.412  29.133   1.717
68607W        W40922  33.448  27.943  11.419
68608W        W40923  13.297  23.002   4.785
68609W        W40924  21.129   3.906   4.240
68610W        W40925  36.554  26.602   4.660
68611W        W40926  26.167  42.285   1.792
68612W        W40927   5.221  11.279  12.914
68613W        W40928  13.765   3.930   1.848
68614W        W40929   3.911  15.619   0.842
68615W        W40930  16.736  40.803   3.787
68616W        W40931  35.418  21.580   4.213
68617W        W40932   5.864  32.891  13.431
68618W        W40933  27.080   7.269   0.451
68619W        W40934   5.890  21.704   3.632
68620W        W40935   5.365  33.884   2.698
68621W        W40936  23.495  31.030   2.690
68622W        W40937  21.618  15.230  12.983
68623W        W40938  15.299  27.623  11.513
68624W        W40939  42.290  39.316   2.291
68625W        W40940  14.794  20.647   2.397
68626W        W40941   3.326  13.214  14.845
68627W        W40942  22.629   8.812  13.048
68628W        W40943   0.457  39.432   1.423
68629W        W40944  23.669  27.120   2.789
68630W        W40945  19.732  25.013   2.371
68631W        W40946  39.882  44.843  11.922
68632W        W40947  21.690  16.804   2.857
68633W        W40948  42.850   4.731   4.674
68634W        W40949  31.445  38.047   3.821
68635W        W40950  17.703  12.156   0.264
68636W        W40951  36.410  26.967  13.469
68637W        W40952  38.030  16.810  11.056
68638W        W40953  36.507   6.858  14.364
68639W        W40954  36.857  24.040   3.661
68640W        W40955  16.627   1.733  11.866
68641W        W40956  39.501   7.707   4.318
68642W        W40957  39.854  44.893  10.894
68643W        W40958  29.102   2.781   2.333
68644W        W40959  44.888  30.114   0.736
68645W        W40960  20.582  18.782  10.941
68646W        W40961  37.968  10.163   1.332
68647W        W40962  23.539  33.407   4.778
68648W        W40963  32.443  23.658  11.394
68649W        W40964  23.555  24.025   3.381
68650W        W40965  29.037  20.213  10.998
68651W        W40966   6.300  16.146   0.283
68652W        W40967  34.591  19.716  14.809
68653W        W40968  42.489  24.100   1.434
68654W        W40969  17.753  36.359  14.998
68655W        W40970  20.138  15.810  13.027
68656W        W40971   4.698   1.356  12.083
68657W        W40972  27.075  35.476  12.931
68658W        W40973  22.236  25.173  13.406
68659W        W40974  33.528  37.363   2.247
68660W        W40975  10.638  20.670   4.646
68661W        W40976  22.688  36.516   3.651
68662W        W40977   3.295  18.568  11.512
68663W        W40978  27.492   4.776   0.858
68664W        W40979  17.755  17.630   0.268
68665W        W40980  17.187  23.521  11.524
68666W        W40981  23.994  18.060   0.283
68667W        W40982   5.324   9.774   3.831
68668W        W40983  12.191  23.538  12.062
68669W        W40984  28.515  30.142   1.388
68670W        W40985  28.601   1.870   3.669
68671W        W40986  10.310  44.918  12.830
68672W        W40987  22.098  15.128  13.837
68673W        W40988  21.751  34.469  13.384
68674W        W40989  15.592   9.830  11.429
68675W        W40990  27.147  16.631   2.412
68676W        W40991   8.836   0.258  10.942
68677W        W40992  16.156   7.359  11.010
68678W        W40993  34.036  30.518  10.446
68679W        W40994  42.916   4.297   2.295
68680W        W40995  36.042  12.811   2.353
68681W        W40996  26.056  31.905  12.829
68682W        W40997   5.763  27.688   4.678
68683W        W40998  31.997  10.375   3.345
68684W        W40999  32.435  23.028  14.351
68685W        W41000  27.018  41.466  12.896
68686W        W41001   8.770  44.315   4.669
68687W        W41002   6.284  31.585   3.760
68688W        W41003  21.738  38.543   1.861
68689W        W41004  12.791  11.364   4.653
68690W        W41005   9.324  27.599   0.894
68691W        W41006  18.783  42.904   2.388
68692W        W41007  17.669  21.220  14.347
68693W        W41008  26.969   9.202   1.331
68694W        W41009  40.994  28.088   1.421
68695W        W41010  13.834   6.355  13.932
68696W        W41011  14.824  44.461  11.998
68697W        W41012  29.482  43.427   4.342
68698W        W41013   2.750  16.196   3.711
68699W        W41014   0.954  19.572   0.266
68700W        W41015  28.105  33.026  14.295
68701W        W41016  22.567  18.133   3.732
68702W        W41017  39.469  10.746  13.398
68703W        W41018  36.073  32.518   1.280
68704W        W41019  38.922   0.352   2.357
68705W        W41020  23.527   8.878   3.698
68706W        W41021   6.389  18.558   0.966
68707W        W41022  29.667  32.939  12.373
68708W        W41023  11.127   5.424  13.008
68709W        W41024   9.672  21.159  13.026
68710W        W41025  29.555  36.525   3.771
68711W        W41026   5.306  32.604   1.273
68712W        W41027  13.296   0.287  10.463
68713W        W41028   4.378  10.306  11.945
68714W        W41029   2.755  38.571   3.324
68715W        W41030  32.046   2.363   1.879
68716W        W41031  27.158   9.192   1.795
68717W        W41032  15.112  28.156   3.279
68718W        W41033  40.484   5.915   1.910
68719W        W41034  13.827  32.988  13.419
68720W        W41035  29.123   5.418   2.730
68721W        W41036  30.955  27.981   3.334
68722W        W41037  16.770   8.372   1.366
68723W        W41038   8.690  43.889  14.305
68724W        W41039  30.929  19.049   4.192
68725W        W41040  20.755  20.040  12.007
68726W        W41041  25.181  19.592  11.040
68727W        W41042  13.197  40.957  13.350
68728W        W41043  23.083  40.983   1.933
68729W        W41044   6.728   7.317   2.219
68730W        W41045  36.485  25.975  13.405
68731W        W41046  41.839   9.183  12.414
68732W        W41047  38.990   8.253   2.397
68733W        W41048  23.630   5.745  13.419
68734W        W41049  11.156  20.693  14.914
68735W        W41050  24.080  10.239  10.480
68736W        W41051  13.183   4.353   3.268
68737W        W41052  30.096  35.517   0.914
68738W        W41053  35.016   3.399   3.706
68739W        W41054  24.513  40.445  12.018
68740W        W41055  23.491  12.171  12.353
68741W        W41056  16.294  40.524  11.459
68742W        W41057  41.531  30.082   4.200
68743W        W41058  21.740  11.739  11.005
68744W        W41059  36.998  31.982  11.901
68745W        W41060  24.671  30.092  11.088
68746W        W41061  17.163  36.921  13.895
68747W        W41062   2.368  37.846   4.830
68748W        W41063   0.483  21.211  13.455
68749W        W41064  30.507  12.779   0.780
68750W        W41065  14.830   0.892  12.454
68751W        W41066  22.541  24.525  14.476
68752W        W41067   4.741  12.313  10.434
68753W        W41068  15.264  16.197  14.903
68754W        W41069  36.558  28.018  12.847
68755W        W41070   5.360   8.390  12.934
68756W        W41071  29.609   8.693   4.164
68757W        W41072  23.555  44.940   3.213
68758W        W41073  25.982  10.258  10.994
68759W        W41074  16.286  31.994  12.512
68760W        W41075  39.060  24.187   3.344
68761W        W41076   4.295   3.318   4.294
68762W        W41077   1.945  42.525  13.981
68763W        W41078   1.905  26.046  12.544
68764W        W41079  16.610  20.657  12.934
68765W        W41080  17.578  44.499  10.901
68766W        W41081   5.795   1.843   4.809
68767W        W41082   6.779  24.605  12.449
68768W        W41083  31.421   3.823   2.781
68769W        W41084  15.251  28.548   5.597
68770W        W41085  34.093  19.043   1.893
68771W        W41086  20.086  34.441   0.402
68772W        W41087  32.098  18.679   3.812
68773W        W41088  30.948  23.150  11.405
68774W        W41089   7.862   7.800  10.957
68775W        W41090  37.505  21.099  10.622
68776W        W41091  44.368  44.422  10.097
68777W        W41092  16.120  38.518   0.306
68778W        W41093  40.812  44.788   0.318
68779W        W41094  19.773  29.128  11.583
68780W        W41095  26.512  18.052   3.673
68781W        W41096  11.696  22.214   3.831
68782W        W41097  26.986  18.738   2.264
68783W        W41098  42.889  28.461   0.798
68784W        W41099   8.823   7.893  11.606
68785W        W41100   4.827  28.463  12.409
68786W        W41101  36.863  14.693  10.423
68787W        W41102  31.461   1.893  14.399
68788W        W41103  16.305  31.037   5.302
68789W        W41104  28.100  38.862   2.741
68790W        W41105  12.755  12.303   4.792
68791W        W41106  33.895   7.174  10.633
68792W        W41107  37.875  19.276   0.935
68793W        W41108  37.025  31.637  13.038
68794W        W41109  29.552  36.903   2.368
68795W        W41110   4.224   4.249   1.425
68796W        W41111   9.765   4.760  12.485
68797W        W41112  30.470  33.095  13.400
68798W        W41113  36.387   6.874  11.858
68799W        W41114  21.197  43.859   4.648
68800W        W41115   8.284  12.285  11.884
68801W        W41116  11.132  36.937  12.075
68802W        W41117  13.173  20.545   2.753
68803W        W41118  12.849  31.968  11.580
68804W        W41119  22.627   9.384   4.775
68805W        W41120  19.688  18.755   5.189
68806W        W41121   0.778  26.171   3.797
68807W        W41122  20.173  10.327  10.482
68808W        W41123  37.038  29.140  14.026
68809W        W41124  38.531  25.709  11.545
68810W        W41125   2.788  18.208   4.608
68811W        W41126  17.761  27.025  12.993
68812W        W41127  41.467  24.628  13.947
68813W        W41128  31.609  33.966   2.684
68814W        W41129  31.897  25.106   1.813
68815W        W41130   8.691  18.680  11.522
68816W        W41131  15.727  39.002   4.295
68817W        W41132  14.146  30.114   3.217
68818W        W41133  26.129  21.744  13.047
68819W        W41134  27.980  38.504  10.469
68820W        W41135  42.962  24.557   0.298
68821W        W41136  13.763  41.478  13.879
68822W        W41137  37.430  17.762  14.786
68823W        W41138  10.772  11.668  10.471
68824W        W41139  18.142  24.165  14.458
68825W        W41140  21.163   2.389   2.897
68826W        W41141  37.513  30.590  10.925
68827W        W41142  37.900  28.631  13.879
68828W        W41143  22.013  23.524  13.943
68829W        W41144  29.041  10.640  11.980
68830W        W41145   9.384  13.224   1.698
68831W        W41146   3.293  40.853   1.298
68832W        W41147   0.491  32.402   1.240
68833W        W41148  44.857  36.539   2.217
68834W        W41149  17.679  16.774  13.980
68835W        W41150  26.969  27.512  10.890
68836W        W41151  19.687  35.091  10.448
68837W        W41152  24.036  27.195   0.461
68838W        W41153  24.662   0.752   1.769
68839W        W41154  35.575  44.854   0.768
68840W        W41155  27.485   7.415   4.297
68841W        W41156  14.621  41.423  11.525
68842W        W41157  25.496   1.340   2.356
68843W        W41158   0.339  43.836   0.731
68844W        W41159  30.528  44.805  11.528
68845W        W41160   6.378  25.970   4.164
68846W        W41161   1.927  20.211   4.130
68847W        W41162  41.953  16.748  12.416
68848W        W41163  23.598  35.062   4.787
68849W        W41164  26.662  29.988   1.354
68850W        W41165  20.734  44.788   2.745
68851W        W41166  17.637  38.523   1.903
68852W        W41167   4.214  15.750  12.984
68853W        W41168  38.372  12.249  11.388
68854W        W41169   0.488   0.442  13.829
68855W        W41170  43.999  11.177   1.783
68856W        W41171   5.329   5.221  10.910
68857W        W41172   8.318  42.383   3.356
68858W        W41173  21.652  19.758   5.222
68859W        W41174  18.625  35.449   0.302
68860W        W41175  19.773  32.407   3.712
68861W        W41176   8.768  19.636   1.417
68862W        W41177  16.132  30.936   2.262
68863W        W41178  14.094  20.067   4.786
68864W        W41179  14.647  40.345   4.307
68865W        W41180   2.390  20.076   3.154
68866W        W41181  14.701  12.284   1.354
68867W        W41182  13.343  15.167  14.893
68868W        W41183   1.886  33.611   0.453
68869W        W41184   1.425  12.631   3.733
68870W        W41185  28.089   9.161   3.305
68871W        W41186   8.691   4.426  10.090
68872W        W41187   2.923  11.663   1.318
68873W        W41188  29.565  22.204   2.252
68874W        W41189  44.293  39.479  14.380
68875W        W41190  22.521  20.191  13.989
68876W        W41191  19.221  21.601   2.308
68877W        W41192  37.030   7.276  14.285
68878W        W41193  35.882  13.300  14.310
68879W        W41194  44.396   5.241   4.324
68880W        W41195  34.498   1.815   1.729
68881W        W41196  14.116   6.786  12.913
68882W        W41197  27.039  29.599  11.495
68883W        W41198  39.047  34.084  14.466
68884W        W41199  14.268   2.383   4.721
68885W        W41200   0.357  29.439   0.274
68886W        W41201  25.627  22.193  11.923
68887W        W41202  31.092  39.424   0.857
68888W        W41203  15.150  44.760  12.948
68889W        W41204   4.701  22.682  10.436
68890W        W41205   9.157  43.360   2.719
68891W        W41206  13.694  20.577   4.828
68892W        W41207  38.052  30.564   3.799
68893W        W41208   7.313  43.384  10.452
68894W        W41209  25.965  33.383   2.267
68895W        W41210  36.550  28.606   4.266
68896W        W41211  23.692  27.505   0.841
68897W        W41212  21.517  17.747   2.819
68898W        W41213   0.422  13.344   4.782
68899W        W41214   0.824  31.075  12.059
68900W        W41215  18.609  30.129  13.482
68901W        W41216   6.790  41.902   0.280
68902W        W41217   9.777  22.044   3.803
68903W        W41218  41.939  37.924   4.633
68904W        W41219   2.252  26.587  14.438
68905W        W41220  36.940  33.958  13.956
68906W        W41221  33.618  31.140  10.421
68907W        W41222  34.433   0.346   3.826
68908W        W41223  10.860   8.198   2.698
68909W        W41224  41.493   9.685  12.459
68910W        W41225  27.690  34.010   9.562
68911W        W41226   0.395  34.905  11.422
68912W        W41227  36.080  14.339  14.300
68913W        W41228  16.311  29.003   1.395
68914W        W41229   4.931   2.739   3.749
68915W        W41230  14.214  31.976  11.571
68916W        W41231  41.825   0.742  12.841
68917W        W41232  21.077  31.101  10.911
68918W        W41233   4.209  33.960  14.921
68919W        W41234   0.893  22.213   1.747
68920W        W41235  25.657  24.525   1.350
68921W        W41236   1.469   5.249  11.605
68922W        W41237  35.593  22.091   1.928
68923W        W41238  11.235  44.486   4.174
68924W        W41239  17.650  20.168   1.440
68925W        W41240  28.117  33.089  12.469
68926W        W41241   0.308   8.792  14.281
68927W        W41242  28.538  20.195   1.912
68928W        W41243   5.207   8.840   4.668
68929W        W41244  10.240  17.576   1.359
68930W        W41245  39.990   0.492   0.344
68931W        W41246  23.230  41.918   0.420
68932W        W41247  28.641  43.841   0.738
68933W        W41248  41.376  22.105   0.868
68934W        W41249  15.306  34.073  13.542
68935W        W41250  17.561  44.308   3.160
68936W        W41251   7.870   4.862   3.780
68937W        W41252  34.016  38.506  11.403
68938W        W41253  34.544   5.295   2.230
68939W        W41254  32.129  40.905   4.239
68940W        W41255  15.153  11.810  14.834
68941W        W41256  34.044   9.315   4.173
68942W        W41257  23.507  11.672  14.310
68943W        W41258  34.507  24.185  14.324
68944W        W41259  38.408  12.667   2.412
68945W        W41260  14.828  25.114   3.267
68946W        W41261  41.429  16.799   4.682
68947W        W41262  28.544  18.619   4.752
68948W        W41263   7.708  16.199   3.375
68949W        W41264  27.125  37.078  13.000
68950W        W41265  16.705  26.535   2.861
68951W        W41266  10.712  22.243  14.836
68952W        W41267  13.723   9.841  11.060
68953W        W41268  15.747   7.857   5.132
68954W        W41269  38.507   5.292   2.676
68955W        W41270   4.368  43.306   2.688
68956W        W41271  27.176  19.581  10.627
68957W        W41272   2.855  11.230   4.813
68958W        W41273  24.546  21.575   3.148
68959W        W41274  44.454  36.550   1.443
68960W        W41275  29.926  19.736  14.833
68961W        W41276  21.126  42.018   4.732
68962W        W41277   1.940  19.176  13.939
68963W        W41278  43.838  15.257   0.777
68964W        W41279  42.386  36.443  12.028
68965W        W41280  26.084  21.710  14.397
68966W        W41281  25.025  11.701  14.312
68967W        W41282   2.873  11.793  13.882
68968W        W41283  12.621  23.726  14.918
68969W        W41284  26.607  44.887  14.776
68970W        W41285  17.062   4.923  10.056
68971W        W41286  43.815  11.152  13.980
68972W        W41287  27.032  33.940  13.844
68973W        W41288  29.973  11.169  11.923
68974W        W41289  19.242   6.267  14.282
68975W        W41290   1.430   4.869   2.403
68976W        W41291  24.522  38.068  13.918
68977W        W41292   0.914  37.884   0.764
68978W        W41293  11.221  21.578  10.608
68979W        W41294  14.190   1.734   2.283
68980W        W41295   1.407   1.906  11.597
68981W        W41296  18.114   5.846   0.856
68982W        W41297  16.226  31.930   3.866
68983W        W41298  17.652  18.715   0.957
68984W        W41299   2.735  35.991  11.905
68985W        W41300   7.195  24.516  13.976
68986W        W41301  22.168   3.376  10.560
68987W        W41302  20.691  33.606   4.781
68988W        W41303   3.296  26.020  10.040
68989W        W41304   6.193   2.439  12.860
68990W        W41305  17.094  37.517  13.415
68991W        W41306  39.363   3.457  14.478
68992W        W41307  38.960  10.713   0.858
68993W        W41308   7.201   6.317   1.286
68994W        W41309  33.937  12.249   4.598
68995W        W41310  43.992   5.316   1.428
68996W        W41311  16.566  39.049   5.102
68997W        W41312   7.776  19.623   1.785
68998W        W41313  41.346  31.133   3.174
68999W        W41314  32.954   1.357   1.755
69000W        W41315  41.382   7.904   0.756
69001W        W41316  37.515  14.303   4.122
69002W        W41317  37.419   7.264  13.325
69003W        W41318  30.132  21.611  12.508
69004W        W41319  40.435  19.092  12.865
69005W        W41320  17.083   9.877   1.239
69006W        W41321  30.640  16.684   4.784
69007W        W41322   5.735   7.251  13.352
69008W        W41323  12.339  41.335  13.469
69009W        W41324   5.705   8.234  12.034
69010W        W41325   6.721  43.984   2.708
69011W        W41326  33.874  41.464   3.656
69012W        W41327  21.044  21.106  13.492
69013W        W41328  41.991  43.871  11.090
69014W        W41329   1.856   4.426  12.885
69015W        W41330  10.691  14.760   2.737
69016W        W41331   1.476  31.081   2.694
69017W        W41332  35.390  35.451  13.031
69018W        W41333  42.353  23.991  13.798
69019W        W41334  26.678   0.249  11.867
69020W        W41335   3.785  19.634   3.773
69021W        W41336  37.922  38.889   4.353
69022W        W41337  15.217  14.106   2.682
69023W        W41338   7.677  14.798  11.507
69024W        W41339   3.274  29.654   3.735
69025W        W41340   5.298  13.233   2.837
69026W        W41341  35.892  38.031   0.879
69027W        W41342  13.275  11.170  10.000
69028W        W41343  15.792   2.725   0.267
69029W        W41344  12.611  22.227  11.588
69030W        W41345   1.971  32.468  11.042
69031W        W41346  28.043   8.806   9.939
69032W        W41347  39.053  36.950  10.499
69033W        W41348  27.163  23.730   1.430
69034W        W41349  29.945  35.901  10.924
69035W        W41350  23.718  21.554   5.256
69036W        W41351   6.836   9.791   4.775
69037W        W41352   7.308  12.823  10.900
69038W        W41353  23.098  39.887   3.190
69039W        W41354   1.390  29.581   3.286
69040W        W41355  24.180  15.147   0.855
69041W        W41356  26.660  34.381  11.097
69042W        W41357  41.828  23.173   3.159
69043W        W41358  33.056  35.460   3.242
69044W        W41359  23.218  28.077  10.418
69045W        W41360  34.409  10.329  12.427
69046W        W41361  29.470  41.933   0.895
69047W        W41362  29.046  29.545   4.243
69048W        W41363  42.352   5.731   2.257
69049W        W41364  21.604  27.448   2.792
69050W        W41365  21.208  36.858  14.924
69051W        W41366  29.956  16.749  13.039
69052W        W41367  34.940   1.312   0.271
69053W        W41368  42.312   3.251   0.418
69054W        W41369   8.210  33.962   4.269
69055W        W41370   4.859  11.234  12.989
69056W        W41371  14.299  33.881  13.018
69057W        W41372  10.791  18.248  13.446
69058W        W41373  30.078  13.242  10.941
69059W        W41374  35.866   7.703   3.226
69060W        W41375  43.366  31.070   1.291
69061W        W41376  31.916   7.904  12.562
69062W        W41377   5.228  16.093   0.790
69063W        W41378  10.288  19.139  12.549
69064W        W41379  20.069  30.930  10.893
69065W        W41380   2.725  19.042   3.855
69066W        W41381  12.734  43.838   3.187
69067W        W41382  30.615  40.317  11.901
69068W        W41383  16.232   2.330  10.447
69069W        W41384  31.441  23.687  12.884
69070W        W41385   9.816  42.430  13.793
69071W        W41386  25.517  35.880   3.697
69072W        W41387  43.949  17.227   2.706
69073W        W41388  19.196  28.999   1.794
69074W        W41389  19.086  33.475  10.490
69075W        W41390  16.711  42.466   2.738
69076W        W41391  16.571  32.036   2.368
69077W        W41392  42.955  34.562   9.927
69078W        W41393  44.352   5.692   3.285
69079W        W41394   5.861   9.667   2.808
69080W        W41395  34.406  42.993   5.294
69081W        W41396  29.040   8.399   4.803
69082W        W41397  23.123   1.755   0.415
69083W        W41398  25.016  40.312   2.378
69084W        W41399  20.683  18.659   0.746
69085W        W41400  36.034  35.568  10.598
69086W        W41401  23.087  19.054   9.658
69087W        W41402  24.222  25.700  12.570
69088W        W41403   1.261   1.911  12.925
69089W        W41404  27.178  30.093   1.291
69090W        W41405   8.173  37.488   2.699
69091W        W41406  42.961   5.432  13.918
69092W        W41407   1.400  15.756   1.851
69093W        W41408  20.763  13.766  10.529
69094W        W41409  28.483  25.479  13.450
69095W        W41410  29.920  18.775  10.452
69096W        W41411  42.977  10.779  13.536
69097W        W41412  12.353  40.364   0.772
69098W        W41413  17.224  34.043   1.695
69099W        W41414   5.798   8.889   0.968
69100W        W41415   3.285  38.978  13.837
69101W        W41416  23.686  26.130  11.600
69102W        W41417  18.149  15.225  13.795
69103W        W41418  22.169  13.325  12.573
69104W        W41419  19.589  42.865  13.471
69105W        W41420   0.937   9.840  13.037
69106W        W41421  37.888  15.690  10.891
69107W        W41422  14.233  17.242  14.357
69108W        W41423   1.334   8.260   4.230
69109W        W41424  12.135  20.720  11.488
69110W        W41425   9.192  28.950  14.393
69111W        W41426  30.063  42.401   1.328
69112W        W41427  25.981  15.117  11.098
69113W        W41428  22.236  33.982  13.797
69114W        W41429  40.430  13.722  13.811
69115W        W41430  34.926  40.885  12.416
69116W        W41431  43.949  14.097   0.391
69117W        W41432   7.883  10.291  13.333
69118W        W41433   5.302  24.129  12.549
69119W        W41434  44.807  19.747   1.232
69120W        W41435  32.564   1.260   0.309
69121W        W41436  35.592  33.534   4.702
69122W        W41437  24.151  27.464  11.935
69123W        W41438  25.537  22.547  13.308
69124W        W41439  15.742  30.499   1.375
69125W        W41440  21.702   1.751   1.425
69126W        W41441   2.470  33.955   0.954
69127W        W41442  13.237   6.699   3.227
69128W        W41443  42.513   8.185  13.839
69129W        W41444  35.515  25.650   1.902
69130W        W41445  19.645  34.893   4.732
69131W        W41446   8.364  27.085  11.091
69132W        W41447  12.262  21.519  14.882
69133W        W41448  10.303  44.973   0.414
69134W        W41449  24.512  33.051   3.810
69135W        W41450   1.768  18.614  14.405
69136W        W41451  39.957   7.791  10.633
69137W        W41452  39.010  27.163   1.266
69138W        W41453  40.321   3.323  11.489
69139W        W41454  36.516  23.595  11.010
69140W        W41455  40.829   4.206   4.634
69141W        W41456  44.841   6.735  12.529
69142W        W41457  19.770  31.899   5.118
69143W        W41458  42.804  41.302  12.833
69144W        W41459   0.316  12.732   1.708
69145W        W41460  29.529  31.601  12.438
69146W        W41461  16.787  10.865   4.255
69147W        W41462  36.971  41.377   4.636
69148W        W41463  34.462  27.590   4.139
69149W        W41464  11.750  33.564  10.419
69150W        W41465   8.355   7.777  13.845
69151W        W41466  29.979  21.646  10.484
69152W        W41467  23.644   3.801  14.356
69153W        W41468   3.752  16.082  11.042
69154W        W41469  33.401  32.948   2.728
69155W        W41470  23.231  21.621  14.824
69156W        W41471  43.342  35.426   4.692
69157W        W41472  22.110  35.066   2.718
69158W        W41473  21.663  27.472  10.906
69159W        W41474  18.668   0.332   3.726
69160W        W41475  42.793  22.048  11.889
69161W        W41476  37.367  19.679   3.660
69162W        W41477  37.536  19.633   1.420
69163W        W41478  11.176  26.550  12.854
69164W        W41479  18.114  36.954   2.841
69165W        W41480   8.837  17.219  13.995
69166W        W41481   5.733   1.330  11.075
69167W        W41482  16.746  23.717  13.461
69168W        W41483  39.874  17.693   4.295
69169W        W41484  40.486  35.361   2.895
69170W        W41485  11.794  11.141  11.942
69171W        W41486  33.557  30.635  11.881
69172W        W41487  12.280  27.962  14.510
69173W        W41488   2.773   2.758   3.196
69174W        W41489  27.194  43.919  13.522
69175W        W41490   3.921  15.722   3.193
69176W        W41491   3.401  26.652  13.997
69177W        W41492  24.219  33.060  13.006
69178W        W41493  19.755  15.191   3.842
69179W        W41494  44.368  26.667  11.572
69180W        W41495   7.319  42.483  11.902
69181W        W41496   6.863  21.584   4.835
69182W        W41497   1.880  37.030  10.953
69183W        W41498  29.003  29.991   4.353
69184W        W41499  12.289  25.969  12.071
69185W        W41500   2.883  25.553   1.874
69186W        W41501  26.475  30.572  11.446
69187W        W41502  15.735  28.985  12.088
69188W        W41503  25.060  43.907   3.301
69189W        W41504  42.445   7.213  14.501
69190W        W41505   3.857  19.743   1.935
69191W        W41506  29.658  25.118   0.378
69192W        W41507  43.942  22.611  14.295
69193W        W41508  25.467   0.357   4.605
69194W        W41509  34.395  11.265  10.540
69195W        W41510  35.020  25.118  13.350
69196W        W41511  31.034   1.317   3.698
69197W        W41512   7.331   7.237   4.213
69198W        W41513   7.176  33.586   4.699
69199W        W41514   0.463  39.499   3.354
69200W        W41515  25.632  29.471  11.444
69201W        W41516  20.038  21.067   9.933
69202W        W41517  25.707  31.995   3.685
69203W        W41518  44.399   6.296   9.979
69204W        W41519  16.646  34.407  10.414
69205W        W41520   8.871  33.502   5.250
69206W        W41521  18.051  35.919  13.389
69207W        W41522  20.621  20.084  11.604
69208W        W41523  16.675  18.270   2.233
69209W        W41524  17.782   0.473  13.826
69210W        W41525   4.745  25.210   3.823
69211W        W41526   2.253  31.513  10.916
69212W        W41527  18.240   4.732  10.947
69213W        W41528   9.823  17.775  13.374
69214W        W41529  32.068  27.542  14.319
69215W        W41530  36.504  26.457   1.752
69216W        W41531  21.653  14.821   1.368
69217W        W41532  40.864  17.783  11.990
69218W        W41533  11.660  43.801  11.084
69219W        W41534  23.044  14.317  13.375
69220W        W41535  28.557   8.193  12.949
69221W        W41536  19.738  34.371  13.547
69222W        W41537   2.735  30.028   0.884
69223W        W41538  31.966  25.706   0.886
69224W        W41539  30.628  28.513  14.328
69225W        W41540  13.199  18.596  11.904
69226W        W41541  16.760  37.353  12.874
69227W        W41542  32.988  15.793   4.737
69228W        W41543  27.073  21.148   1.234
69229W        W41544  26.479  15.745  12.342
69230W        W41545   6.791   7.700   1.226
69231W        W41546  39.022  26.507   2.849
69232W        W41547  29.167  25.045  14.025
69233W        W41548  43.286  17.171  10.642
69234W        W41549  27.670  44.992  13.410
69235W        W41550   0.280   6.698  11.034
69236W        W41551  42.955  42.003   0.738
69237W        W41552  24.666  37.394  10.898
69238W        W41553  22.055  38.864  13.458
69239W        W41554  11.255   8.247  13.463
69240W        W41555  44.362   7.299   3.312
69241W        W41556   4.802  21.153   0.866
69242W        W41557  44.937   9.736   0.822
69243W        W41558  41.396  38.545  12.023
69244W        W41559   5.776  27.516   2.760
69245W        W41560  39.536  13.605  11.546
69246W        W41561  19.154  21.587  13.808
69247W        W41562  17.189   1.283   1.862
69248W        W41563  27.174  28.971   4.222
69249W        W41564  37.539  22.633   5.235
69250W        W41565  24.659  35.525   2.287
69251W        W41566  42.501   4.318   4.736
69252W        W41567  38.912   5.258  12.986
69253W        W41568  14.226   6.298   0.252
69254W        W41569  41.014  36.000  14.876
69255W        W41570  21.551  16.076  12.540
69256W        W41571  10.720  22.617  13.042
69257W        W41572  44.861  29.987   2.774
69258W        W41573   9.831  39.006   4.732
69259W        W41574   0.846   8.829   1.370
69260W        W41575  13.149  10.144   2.696
69261W        W41576  35.461  21.648  11.568
69262W        W41577  27.177   0.425  11.420
69263W        W41578  42.829  20.171   3.684
69264W        W41579  22.628   7.409  14.483
69265W        W41580   7.263  24.487   1.304
69266W        W41581  18.558  22.537   2.699
69267W        W41582   5.236   8.862  13.836
69268W        W41583  19.681  39.876  11.955
69269W        W41584   8.404  40.917   2.213
69270W        W41585   0.939  37.519  11.931
69271W        W41586  37.386  13.801  12.855
69272W        W41587  25.534  13.840   3.186
69273W        W41588  41.536  22.532   0.801
69274W        W41589  44.838  29.426   4.345
69275W        W41590  35.435  28.096  13.536
69276W        W41591   9.220  43.939   2.416
69277W        W41592   6.373  15.221  10.484
69278W        W41593   0.338  32.901   1.236
69279W        W41594   0.377  23.112   4.659
69280W        W41595  34.439  32.568   1.228
69281W        W41596  41.362  33.005   2.802
69282W        W41597   2.302  14.186  13.547
69283W        W41598   0.979  35.983  14.805
69284W        W41599  42.464  14.742   3.305
69285W        W41600  40.956  15.581  11.018
69286W        W41601  13.239  20.561   4.342
69287W        W41602  11.743  39.957   2.400
69288W        W41603   0.293  41.886   3.786
69289W        W41604  20.621  31.042   4.808
69290W        W41605  44.377   8.372  13.892
69291W        W41606  31.487  11.640  13.881
69292W        W41607  17.738  43.885  11.480
69293W        W41608  25.505  34.899  11.050
69294W        W41609  29.566  34.598  13.414
69295W        W41610  39.871  20.238  14.899
69296W        W41611  33.973   8.258   2.851
69297W        W41612   4.407  29.040   4.694
69298W        W41613  24.559  29.923  11.394
69299W        W41614  41.396  17.711   4.334
69300W        W41615   7.338  26.985   0.475
69301W        W41616   1.332   8.741   0.791
69302W        W41617   3.861  14.176   0.786
69303W        W41618  41.865  21.185   2.317
69304W        W41619  13.211  37.990  12.402
69305W        W41620  28.137   5.254  11.082
69306W        W41621  12.129  29.562   3.264
69307W        W41622  28.152  43.322   9.955
69308W        W41623  23.542  19.725  13.933
69309W        W41624  36.891  28.110   1.281
69310W        W41625  11.848  25.666   2.663
69311W        W41626   4.893  34.430  11.598
69312W        W41627  17.302  14.322   2.854
69313W        W41628   7.387  20.701   2.272
69314W        W41629  24.108   1.322  12.052
69315W        W41630   4.754  20.180   4.834
69316W        W41631   2.765  15.274   0.386
69317W        W41632  32.975  33.990   4.311
69318W        W41633  20.556   1.350   0.246
69319W        W41634  17.264   2.416   1.933
69320W        W41635  20.642   7.829  14.442
69321W        W41636   5.376  16.601   1.272
69322W        W41637   4.917  20.075  13.388
69323W        W41638  43.909   6.918   2.876
69324W        W41639  33.955  23.213  14.006
69325W        W41640  23.021  40.054  14.280
69326W        W41641  27.568  42.367  12.469
69327W        W41642  31.034  16.073   0.364
69328W        W41643  22.023   0.459  12.038
69329W        W41644  33.616  23.617  12.096
69330W        W41645  35.500   7.344  14.337
69331W        W41646  39.037  17.143  14.327
69332W        W41647  24.098  43.785   3.282
69333W        W41648   6.692  18.110   0.778
69334W        W41649  18.054  30.947   4.714
69335W        W41650  26.598  24.125   1.856
69336W        W41651  36.887   3.388   4.773
69337W        W41652  39.846  14.645  11.472
69338W        W41653  34.514  17.258   2.245
69339W        W41654  35.009  20.604   0.294
69340W        W41655  17.194  34.453  11.598
69341W        W41656  21.705  35.511  12.024
69342W        W41657  36.592  40.888   4.191
69343W        W41658  33.113  38.493   0.751
69344W        W41659  29.136  43.819  11.928
69345W        W41660  17.688   1.466  13.345
69346W        W41661  14.762  29.546   3.385
69347W        W41662  13.830  32.962   1.734
69348W        W41663  20.113  18.180   2.270
69349W        W41664  43.363   8.666   2.739
69350W        W41665  44.285  26.190   1.295
69351W        W41666  12.700  12.740  12.461
69352W        W41667  38.945  13.720  12.352
69353W        W41668  20.651   3.403  10.441
69354W        W41669  37.563   5.844   4.825
69355W        W41670   8.282  26.969  14.336
69356W        W41671  29.938   9.301  13.975
69357W        W41672  12.647  18.125   2.309
69358W        W41673  35.497  11.366  12.972
69359W        W41674   2.353  23.017  11.404
69360W        W41675  40.870  24.226  13.001
69361W        W41676  33.926  40.975   1.346
69362W        W41677  19.227  12.333   4.675
69363W        W41678  33.907   2.805  14.759
69364W        W41679  27.025   0.353   1.444
69365W        W41680  25.173  26.538   2.752
69366W        W41681  10.356  37.918   3.778
69367W        W41682  36.367  37.015   1.719
69368W        W41683  18.226  40.303   0.892
69369W        W41684  17.116  22.069   1.422
69370W        W41685   5.290  41.538  13.871
69371W        W41686  31.951  14.680   3.824
69372W        W41687  21.670  41.891   3.649
69373W        W41688   4.719  18.184  14.774
69374W        W41689  32.049  11.355  10.603
69375W        W41690   2.443  24.129   2.826
69376W        W41691  40.966  20.639   4.121
69377W        W41692  43.021  43.822  12.972
69378W        W41693  41.365  28.146   4.754
69379W        W41694  16.771  19.584   4.769
69380W        W41695   1.361  11.651   5.694
69381W        W41696  36.439  44.273  14.459
69382W        W41697   9.184  24.149  11.096
69383W        W41698  19.056  43.950  13.002
69384W        W41699  20.119  36.490   3.170
69385W        W41700  19.561  41.331  13.816
69386W        W41701  35.571   3.898   4.250
69387W        W41702  30.576  25.174  12.984
69388W        W41703  18.071   0.254  11.424
69389W        W41704  39.409  39.938   3.840
69390W        W41705  38.381  18.252  12.364
69391W        W41706  34.054   0.800  12.364
69392W        W41707  42.824  17.761   1.743
69393W        W41708  26.685   6.740   3.265
69394W        W41709  28.607   8.354   2.371
69395W        W41710  25.179  31.644  11.872
69396W        W41711   4.937  31.053   0.749
69397W        W41712   7.832   1.472   1.726
69398W        W41713  18.715   6.881  11.885
69399W        W41714  38.986   7.251   2.189
69400W        W41715   0.773  41.355  10.961
69401W        W41716  36.012  20.269   0.466
69402W        W41717  24.612  18.168  11.413
69403W        W41718  28.170   0.320  13.899
69404W        W41719   4.801  43.516  12.460
69405W        W41720  27.507  24.066   3.275
69406W        W41721  42.988  29.114  13.359
69407W        W41722  39.381  38.036   2.333
69408W        W41723  40.413  36.969   0.958
69409W        W41724  31.099  12.318   1.381
69410W        W41725  26.141  29.098  14.311
69411W        W41726  23.720   9.165  14.880
69412W        W41727  16.780   6.859  13.495
69413W        W41728  28.592  29.087   2.393
69414W        W41729  41.998  34.575  10.141
69415W        W41730   4.233  26.624   1.342
69416W        W41731  34.390  17.746  12.440
69417W        W41732  10.279  25.480   3.212
69418W        W41733   2.355  11.740   5.180
69419W        W41734  33.988   5.931  12.861
69420W        W41735   4.917  21.147  13.009
69421W        W41736  29.469  16.643   1.740
69422W        W41737  35.455  11.696  13.433
69423W        W41738  28.485  30.090   4.307
69424W        W41739   6.913  24.086   2.696
69425W        W41740  15.327  25.966  14.312
69426W        W41741  43.778  11.823   2.407
69427W        W41742  42.981  30.447   3.310
69428W        W41743  37.479  27.003  14.865
69429W        W41744  29.621  10.863   3.734
69430W        W41745  34.111  22.532  13.323
69431W        W41746  27.607  39.536  12.847
69432W        W41747   4.288  18.622  11.931
69433W        W41748  28.037   5.724   4.638
69434W        W41749   6.333  40.444  10.161
69435W        W41750  28.459  42.000  13.530
69436W        W41751   3.376  44.781  13.526
69437W        W41752  36.959  44.782   1.278
69438W        W41753  13.182  29.977  14.320
69439W        W41754  34.102  31.920  13.881
69440W        W41755  35.590  36.355   4.341
69441W        W41756  14.098  28.929   3.820
69442W        W41757  15.199  14.798  10.550
69443W        W41758  28.102  20.044   1.799
69444W        W41759  10.325  27.000  14.505
69445W        W41760  28.014  26.059   2.716
69446W        W41761   2.957  35.410  11.856
69447W        W41762  15.780  18.554  14.402
69448W        W41763  21.554  36.956   3.356
69449W        W41764  27.692  37.377  14.315
69450W        W41765   9.214  43.805   0.260
69451W        W41766  21.532  24.174  11.105
69452W        W41767  40.423  17.188   4.141
69453W        W41768  18.747   4.336  13.026
69454W        W41769   7.321   9.670   1.813
69455W        W41770   6.220  14.623   3.716
69456W        W41771  42.285  41.404   4.170
69457W        W41772   2.778  31.086  11.994
69458W        W41773  33.908   5.760  14.774
69459W        W41774  29.504  22.216   3.312
69460W        W41775   5.341  41.356  14.997
69461W        W41776  31.447  22.019   0.335
69462W        W41777  36.400   8.712  11.002
69463W        W41778  44.471  19.064   3.841
69464W        W41779   7.666  43.834   3.270
69465W        W41780  41.357  42.885  13.377
69466W        W41781   8.836  23.523   4.696
69467W        W41782  33.995   0.855  14.512
69468W        W41783  44.355  42.862  11.038
69469W        W41784  39.857   6.786   0.283
69470W        W41785  24.050  44.284  14.449
69471W        W41786  15.302   2.823  12.088
69472W        W41787   0.840   4.899  10.128
69473W        W41788  27.065  43.502   1.313
69474W        W41789  26.968   2.884   0.435
69475W        W41790  43.873   2.386  13.945
69476W        W41791  20.694  39.412   0.800
69477W        W41792  25.100  44.830  10.472
69478W        W41793  43.308  25.641  12.435
69479W        W41794  33.060  41.965  12.470
69480W        W41795  15.589  13.228   1.327
69481W        W41796  38.850   2.725  14.479
69482W        W41797  26.541  19.193   1.386
69483W        W41798  26.165  43.500   3.708
69484W        W41799   8.389   7.229  10.937
69485W        W41800  24.619  37.903  12.088
69486W        W41801   2.901  39.052   2.709
69487W        W41802  44.997   5.339   2.276
69488W        W41803  31.023  44.995  14.856
69489W        W41804  25.077  20.082  10.452
69490W        W41805  30.543  26.578   4.281
69491W        W41806  35.450  29.149  10.570
69492W        W41807   3.924  18.144   5.205
69493W        W41808  32.992   1.921  12.530
69494W        W41809  24.609  44.315   1.377
69495W        W41810  18.789  16.788   4.739
69496W        W41811  29.632   7.876   4.349
69497W        W41812  25.980  29.604   4.615
69498W        W41813   5.895  10.645  12.387
69499W        W41814  26.036  34.069   5.322
69500W        W41815  12.659   4.723  14.458
69501W        W41816  13.128   8.384   3.692
69502W        W41817   5.887  28.442  10.510
69503W        W41818   0.800  24.071  13.954
69504W        W41819  24.551  19.727  12.356
69505W        W41820  25.629  28.516  14.814
69506W        W41821  27.630  22.087  13.491
69507W        W41822   6.182  38.570  13.866
69508W        W41823  42.382  22.517   1.284
69509W        W41824  10.832  12.210  11.044
69510W        W41825  37.533  11.666  11.970
69511W        W41826   2.465  36.576  12.430
69512W        W41827   9.181   3.914  10.994
69513W        W41828  21.703  23.517  14.984
69514W        W41829  15.326  42.852  11.109
69515W        W41830  13.288   7.381   2.246
69516W        W41831  40.975  36.857  14.416
69517W        W41832  23.193   6.738  11.991
69518W        W41833  28.674  30.145   2.780
69519W        W41834  39.935  10.248  12.005
69520W        W41835   1.418  39.886  14.357
69521W        W41836  28.149  34.110  13.944
69522W        W41837   0.377  19.648  11.431
69523W        W41838  10.824  28.053   1.889
69524W        W41839   5.758   4.248  12.988
69525W        W41840  25.107  30.912   1.707
69526W        W41841  12.329  16.206   2.326
69527W        W41842   5.414  41.031   0.376
69528W        W41843  31.574  15.143   0.390
69529W        W41844  32.894  23.634  13.526
69530W        W41845  27.529  11.213   3.339
69531W        W41846  19.197  23.137  13.064
69532W        W41847  14.330  23.627  14.491
69533W        W41848   6.776  35.435  14.018
69534W        W41849   7.797  11.788   4.265
69535W        W41850  18.589  16.738  13.384
69536W        W41851  10.653  21.729   2.187
69537W        W41852  21.241  15.083  13.931
69538W        W41853  24.694  23.083  14.476
69539W        W41854   9.225  40.444   0.248
69540W        W41855  41.862  40.392   2.884
69541W        W41856   4.717  38.047   0.794
69542W        W41857  37.386   4.365  11.560
69543W        W41858  22.205  22.068   4.246
69544W        W41859  18.153   0.348  14.367
69545W        W41860  19.162  30.602   4.634
69546W        W41861   0.455   6.188  10.443
69547W        W41862  36.958  10.322   2.859
69548W        W41863  32.527  20.083   1.421
69549W        W41864  31.542  28.071   3.683
69550W        W41865  33.976   8.222   4.604
69551W        W41866  27.445  25.073   0.892
69552W        W41867   2.734  19.743   2.871
69553W        W41868  37.352  11.278  14.447
69554W        W41869   6.788  23.116  13.954
69555W        W41870  25.971  18.186   1.787
69556W        W41871  25.965  39.826   1.440
69557W        W41872  19.266  29.976  10.887
69558W        W41873   4.842  27.999   0.423
69559W        W41874   7.730   1.876   0.243
69560W        W41875   2.753  25.588   2.838
69561W        W41876  13.284  16.105  11.606
69562W        W41877  15.288  43.480  10.946
69563W        W41878  19.078  39.404   4.725
69564W        W41879  12.346  23.601  11.405
69565W        W41880  34.115  24.682  11.607
69566W        W41881  33.404  44.390   4.775
69567W        W41882  43.500  19.104  10.507
69568W        W41883  29.444  34.467  10.977
69569W        W41884  22.683   3.863  10.517
69570W        W41885  18.052  30.522  14.508
69571W        W41886  15.819  27.058  12.910
69572W        W41887  11.259   7.787   0.458
69573W        W41888  22.203  22.625   1.826
69574W        W41889  34.957  30.630  12.843
69575W        W41890   0.906  38.378   2.745
69576W        W41891  11.634  34.476   2.228
69577W        W41892  27.158  13.313   0.386
69578W        W41893  32.391  44.494  11.497
69579W        W41894   0.303  39.854  10.512
69580W        W41895  35.998  44.893   0.932
69581W        W41896  42.797   8.310   2.271
69582W        W41897  30.145  33.036  14.957
69583W        W41898   0.293  19.177   2.349
69584W        W41899  40.475  19.176   0.286
69585W        W41900  32.424  32.412   3.653
69586W        W41901  15.131  26.556   1.875
69587W        W41902   0.344  33.548  13.987
69588W        W41903  11.805  24.510   1.389
69589W        W41904  15.608  14.097   3.761
69590W        W41905   7.882  28.024   3.700
69591W        W41906  33.380   6.841  14.813
69592W        W41907  28.513  27.550   4.796
69593W        W41908  35.408   0.821   4.725
69594W        W41909  18.616   2.720   1.380
69595W        W41910   4.417  24.605  10.993
69596W        W41911  30.616   0.819   3.646
69597W        W41912  11.210  41.364  11.885
69598W        W41913  36.865   3.920   2.670
69599W        W41914  13.227   7.295   4.222
69600W        W41915  19.677  35.967   3.188
69601W        W41916   8.350  43.917  13.454
69602W        W41917   0.419   9.192   5.612
69603W        W41918  31.541   8.205  14.766
69604W        W41919  38.978  35.409   3.239
69605W        W41920   6.832  12.324  14.352
69606W        W41921   6.191  13.825   4.227
69607W        W41922  44.793  21.736  11.950
69608W        W41923  43.356  34.886  10.517
69609W        W41924  27.037  25.132  10.485
69610W        W41925   5.221  22.663  10.638
69611W        W41926   0.849  12.674   3.795
69612W        W41927   2.937  10.820   2.386
69613W        W41928  30.082   3.400  14.337
69614W        W41929   0.316  11.176  14.397
69615W        W41930   5.834  19.061  10.413
69616W        W41931  27.502  41.477   3.829
69617W        W41932  18.687   0.966  14.002
69618W        W41933  22.059  41.900   2.837
69619W        W41934  19.077  14.631  11.551
69620W        W41935   6.706  38.434   3.300
69621W        W41936  24.002  25.655   3.212
69622W        W41937   8.769  37.865  12.561
69623W        W41938  16.626  27.070  10.601
69624W        W41939  29.981  39.859   4.177
69625W        W41940  16.276   2.266   4.259
69626W        W41941  42.953  31.915  12.019
69627W        W41942   6.896   6.397   1.904
69628W        W41943   9.734  42.401  11.574
69629W        W41944  16.811   9.271   0.958
69630W        W41945  30.467  14.689   0.794
69631W        W41946  14.227  33.904  12.551
69632W        W41947  44.942  33.502  11.976
69633W        W41948  22.246  44.867  11.867
69634W        W41949  41.530   4.379  12.396
69635W        W41950  41.381  18.077  12.980
69636W        W41951  28.158   9.188   4.832
69637W        W41952  25.700  19.651  10.411
69638W        W41953  39.484   4.723  12.044
69639W        W41954  19.662  28.560   2.409
69640W        W41955  24.043  27.956   3.725
69641W        W41956  20.239  34.532  13.436
69642W        W41957  33.051  14.098  12.994
69643W        W41958  11.830  17.062  11.865
69644W        W41959  43.502  15.252   0.479
69645W        W41960  36.959   6.221   4.271
69646W        W41961  39.818  22.006  14.385
69647W        W41962  38.921   6.416  13.844
69648W        W41963  28.958  31.125  14.467
69649W        W41964  17.194   7.318   4.119
69650W        W41965   8.713  30.152   0.924
69651W        W41966   8.183  35.894  14.351
69652W        W41967  10.261  33.988  11.441
69653W        W41968  27.970  24.979   2.211
69654W        W41969  42.922  26.558  10.938
69655W        W41970  24.019  32.048   5.255
69656W        W41971   4.798  28.564   0.448
69657W        W41972  32.502  24.039  11.972
69658W        W41973   0.481   3.216  12.441
69659W        W41974  21.603  39.830   2.300
69660W        W41975  43.376   9.359  11.097
69661W        W41976  12.715  22.241  12.885
69662W        W41977  32.038  14.674   2.376
69663W        W41978  15.710  26.661   3.640
69664W        W41979  14.791  24.098  12.355
69665W        W41980  13.638  13.152   4.225
69666W        W41981   0.824  18.683  14.341
69667W        W41982   5.301   0.441  14.478
69668W        W41983  40.452  35.437  11.087
69669W        W41984   9.332  16.745   3.739
69670W        W41985  15.586  43.375  10.971
69671W        W41986  30.108   7.713   3.151
69672W        W41987  12.231   4.339   0.899
69673W        W41988  31.601  31.912  13.347
69674W        W41989  40.051  31.543  12.924
69675W        W41990  34.891  43.426  11.610
69676W        W41991  10.213  13.315   4.306
69677W        W41992  29.074  18.564   4.769
69678W        W41993   7.401  41.464   1.279
69679W        W41994   4.766  27.627  11.495
69680W        W41995  43.466  34.948   3.354
69681W        W41996   1.400  21.731   2.757
69682W        W41997   3.270  32.888  11.874
69683W        W41998  42.876  31.550  14.282
69684W        W41999  44.260  34.049  13.903
69685W        W42000  25.199  43.303   3.268
69686W        W42001  17.714  22.147   3.650
69687W        W42002  27.170  18.067  12.026
69688W        W42003  35.009  37.432   3.654
69689W        W42004  28.045   5.293  12.355
69690W        W42005   8.823   6.846  12.577
69691W        W42006   8.162   2.853   4.123
69692W        W42007   8.694  40.004   4.190
69693W        W42008   7.704  17.100   3.817
69694W        W42009  35.585  36.845  11.462
69695W        W42010  43.421  17.700   0.890
69696W        W42011  27.506  41.791  12.005
69697W        W42012  11.642   0.966  10.625
69698W        W42013  38.362  31.588   1.344
69699W        W42014  25.076  16.248   4.274
69700W        W42015  31.987  32.479   0.350
69701W        W42016   4.779   4.380   0.328
69702W        W42017  18.690  23.699   5.312
69703W        W42018  25.571  22.138   1.826
69704W        W42019  16.204  16.582   1.435
69705W        W42020  36.908  28.045   0.437
69706W        W42021  12.318  31.526  12.568
69707W        W42022  34.439  21.215  14.916
69708W        W42023   7.397  21.200   2.871
69709W        W42024   9.652  23.073   4.830
69710W        W42025  31.540  10.286   0.354
69711W        W42026  28.600   4.325   1.753
69712W        W42027  42.938   3.269   3.825
69713W        W42028  20.667  11.703  12.839
69714W        W42029  29.025  35.425  11.107
69715W        W42030  43.441  13.118  14.923
69716W        W42031  24.185   7.262   1.846
69717W        W42032  10.256   5.424   3.373
69718W        W42033  33.539  13.105   1.839
69719W        W42034   3.722  25.179   1.916
69720W        W42035  35.416  41.476   0.473
69721W        W42036  44.819  25.001  11.420
69722W        W42037  27.962  30.448  12.466
69723W        W42038  41.040  22.246  11.372
69724W        W42039   5.427  42.866   3.373
69725W        W42040  17.587   9.732   5.175
69726W        W42041  14.611  13.689  14.310
69727W        W42042  38.922  12.224  12.064
69728W        W42043  44.867   0.449  11.496
69729W        W42044  11.199  44.009  10.575
69730W        W42045   9.269  26.700  13.505
69731W        W42046   8.171   2.884   4.831
69732W        W42047  12.125  12.825   0.902
69733W        W42048  39.857   5.779   1.717
69734W        W42049   1.772  21.642  12.932
69735W        W42050  28.099  35.411   4.679
69736W        W42051  42.933  21.029  14.007
69737W        W42052   8.805  16.809   3.247
69738W        W42053  38.406   8.196   4.781
69739W        W42054   1.800  35.471  14.937
69740W        W42055  39.450  33.063  13.794
69741W        W42056  17.301   7.829   3.709
69742W        W42057  10.792  16.717   9.923
69743W        W42058   9.653   4.702  13.487
69744W        W42059  27.682   4.740  13.967
69745W        W42060  28.984  41.963  13.064
69746W        W42061   2.904   1.777  11.026
69747W        W42062  36.508  33.526  13.307
69748W        W42063  26.186   3.289  11.485
69749W        W42064  38.048  21.232   3.646
69750W        W42065  36.511  15.181   0.333
69751W        W42066  15.672   0.923  12.412
69752W        W42067  14.604  17.676  13.825
69753W        W42068  31.929  37.854  14.758
69754W        W42069   6.231  13.806   1.934
69755W        W42070  30.420   6.221   3.271
69756W        W42071  34.568  24.512  14.386
69757W        W42072  42.465  35.922  12.549
69758W        W42073  36.928  16.735   3.641
69759W        W42074  38.380  17.578   4.768
69760W        W42075  28.435  31.424  12.365
69761W        W42076  34.930  14.729   0.834
69762W        W42077   3.415  25.963   3.162
69763W        W42078  14.718  30.416   0.912
69764W        W42079  43.993  24.653   4.326
69765W        W42080  10.787  24.541   4.654
69766W        W42081  19.252  13.693   2.691
69767W        W42082  44.259  24.546  13.917
69768W        W42083  40.832  26.622   1.896
69769W        W42084  13.784  41.994  12.938
69770W        W42085  41.525  11.242  12.027
69771W        W42086  41.536  12.211  13.808
69772W        W42087  23.147  23.635   1.932
69773W        W42088  31.965   3.842   1.775
69774W        W42089  20.045  11.672  10.542
69775W        W42090  42.363  11.758   3.774
69776W        W42091  35.555  15.768   3.317
69777W        W42092  20.175  21.098  14.332
69778W        W42093  40.840   1.382   4.229
69779W        W42094  22.036  34.893   1.866
69780W        W42095  30.059   8.359   4.196
69781W        W42096   2.232  35.962   4.129
69782W        W42097  18.645  44.316   1.213
69783W        W42098   6.287   5.921  12.975
69784W        W42099   9.169   5.921   0.472
69785W        W42100  13.808  11.294  14.873
69786W        W42101  40.916  26.103  13.331
69787W        W42102   1.281  26.569  12.506
69788W        W42103   2.829   4.329   0.816
69789W        W42104  14.701  15.770  14.915
69790W        W42105  26.559  28.979   2.331
69791W        W42106  20.175  23.589   4.736
69792W        W42107  21.606  30.949   0.397
69793W        W42108   2.962  36.916  14.471
69794W        W42109  44.996  32.586   2.215
69795W        W42110  18.277  19.125   0.384
69796W        W42111  22.064  30.459   4.808
69797W        W42112   8.380  42.784   0.915
69798W        W42113  16.243   8.793  11.055
69799W        W42114  36.545  42.009  12.537
69800W        W42115  12.683  10.809  11.493
69801W        W42116   8.172  27.096   4.663
69802W        W42117  14.170  37.894   1.411
69803W        W42118  30.644  13.843  14.507
69804W        W42119  22.573  36.521  13.544
69805W        W42120  26.689  29.466  11.116
69806W        W42121  31.462  37.430   2.381
69807W        W42122  19.595   0.765  14.011
69808W        W42123  23.058  19.535   1.921
69809W        W42124  36.077   0.356   1.320
69810W        W42125  18.732  38.015  14.409
69811W        W42126  18.253  12.764   1.357
69812W        W42127  21.726   3.836  10.948
69813W        W42128  38.361  31.148  11.086
69814W        W42129  30.001   1.475  10.888
69815W        W42130  26.671  37.078   1.376
69816W        W42131  43.824  11.331   0.429
69817W        W42132  10.845  16.699   1.884
69818W        W42133  42.432   0.335   2.213
69819W        W42134  11.209  12.337  11.047
69820W        W42135  41.354  18.254  11.554
69821W        W42136  22.613  30.911   3.232
69822W        W42137  15.599  29.660  12.469
69823W        W42138  10.366  18.604   3.702
69824W        W42139  30.985  34.427   2.418
69825W        W42140  41.474  27.052   3.742
69826W        W42141  10.858  31.489   2.690
69827W        W42142  24.187  33.427  11.441
69828W        W42143  12.120  16.124  12.559
69829W        W42144  39.915   0.314  13.970
69830W        W42145  12.260   9.287   4.332
69831W        W42146   8.762  30.517   3.819
69832W        W42147  38.514  16.222  13.377
69833W        W42148  29.011  26.094  14.834
69834W        W42149  20.534   7.265   4.754
69835W        W42150  21.739  25.009  13.468
69836W        W42151  30.513   5.207   0.879
69837W        W42152  37.076  20.221  14.816
69838W        W42153  19.233  42.912   1.732
69839W        W42154   0.270   0.975  14.422
69840W        W42155  24.227  31.642  10.629
69841W        W42156   3.803  35.899   2.886
69842W        W42157  35.994   9.789  14.418
69843W        W42158   8.210   4.213  12.420
69844W        W42159  28.038   7.226   1.393
69845W        W42160   7.173  43.814   1.387
69846W        W42161  17.124   0.429   4.219
69847W        W42162  30.467  35.996   2.793
69848W        W42163  30.512  21.750  13.030
69849W        W42164  32.106  25.180   4.129
69850W        W42165   2.246  33.535   3.360
69851W        W42166  20.091  31.137   2.402
69852W        W42167  14.807  10.230  13.058
69853W        W42168  36.433  17.746   2.670
69854W        W42169   0.380  19.283  13.816
69855W        W42170   9.326  29.942  11.519
69856W        W42171  41.002  28.995   2.806
69857W        W42172  16.784  32.589   2.897
69858W        W42173  24.484  22.222  12.467
69859W        W42174  16.166  11.764  10.609
69860W        W42175   5.872  38.841  13.897
69861W        W42176  11.135  26.096   2.277
69862W        W42177   0.814  18.776  11.886
69863W        W42178  42.388  34.885   0.355
69864W        W42179   6.734   5.770   4.616
69865W        W42180  15.274  30.052   5.313
69866W        W42181  24.120  17.785   2.720
69867W        W42182  41.886  15.712   5.248
69868W        W42183  36.067  26.036   4.181
69869W        W42184  12.272  38.435  13.052
69870W        W42185  34.494  19.555  13.310
69871W        W42186  44.434  29.443  14.311
69872W        W42187   2.296   1.808   1.343
69873W        W42188  11.682  32.013  12.887
69874W        W42189   1.253   6.236  14.844
69875W        W42190  38.833  26.603   1.740
69876W        W42191   0.275   3.854  11.407
69877W        W42192   5.298  20.114   1.212
69878W        W42193  17.555  11.223  13.367
69879W        W42194  36.530  33.602   3.258
69880W        W42195   0.952  19.745   2.695
69881W        W42196  41.358   9.215  14.284
69882W        W42197  35.926  22.706   4.235
69883W        W42198   1.807   2.320  12.954
69884W        W42199  41.911  43.454   3.292
69885W        W42200  25.056  12.258   1.325
69886W        W42201  11.239  19.040  14.910
69887W        W42202  33.128  22.090  11.497
69888W        W42203  17.600  39.527  11.976
69889W        W42204  22.212   2.274   3.677
69890W        W42205  31.130  22.120   3.710
69891W        W42206  29.559  31.568   0.822
69892W        W42207  38.060  13.724  13.819
69893W        W42208  35.407  21.151  12.365
69894W        W42209  21.722  25.553  13.397
69895W        W42210   2.906   4.342  14.872
69896W        W42211   2.450  37.340   2.899
69897W        W42212  16.762  40.945   9.590
69898W        W42213  41.030  30.034   0.463
69899W        W42214  31.060  37.994  10.491
69900W        W42215  26.599   9.753   1.411
69901W        W42216  13.283  10.841  11.489
69902W        W42217  38.835  36.577  14.781
69903W        W42218   6.749  25.683  10.441
69904W        W42219  34.052  12.124   1.829
69905W        W42220  12.233  23.032  13.835
69906W        W42221   1.357  12.812  11.372
69907W        W42222   0.457  41.013  13.989
69908W        W42223  34.472  16.762  13.938
69909W        W42224  28.027  41.534   3.744
69910W        W42225   4.722  39.520  14.923
69911W        W42226  36.066  29.937  11.926
69912W        W42227  37.563  20.039   4.789
69913W        W42228  16.685  11.292   1.870
69914W        W42229  31.025   6.348  11.453
69915W        W42230  25.068  25.219  14.940
69916W        W42231  19.074  10.671   2.337
69917W        W42232  31.546  32.037  10.122
69918W        W42233  35.363  34.603   4.796
69919W        W42234  14.772  11.775   3.850
69920W        W42235   9.877  35.509  12.472
69921W        W42236  36.878  41.961   3.249
69922W        W42237  43.880  25.976   0.344
69923W        W42238  25.667  32.544   9.583
69924W        W42239  37.082  11.702  13.872
69925W        W42240  18.611   9.759   1.297
69926W        W42241   3.769  10.874   1.873
69927W        W42242  16.641  40.404  10.990
69928W        W42243  44.307   5.912   4.661
69929W        W42244   8.827   0.928   2.190
69930W        W42245   8.712  44.373   4.331
69931W        W42246  11.179   3.332  12.453
69932W        W42247  25.491  23.702   3.350
69933W        W42248  41.416  24.539   3.217
69934W        W42249  42.958  42.329  10.928
69935W        W42250  10.194  21.654  13.328
69936W        W42251  33.996  16.279   0.849
69937W        W42252   6.243  42.364   1.811
69938W        W42253   9.646   1.443   4.283
69939W        W42254  10.821   0.871  12.374
69940W        W42255  21.619  37.002   1.714
69941W        W42256  15.203  42.950   1.748
69942W        W42257  41.527  36.380  12.865
69943W        W42258  33.107  38.324   4.813
69944W        W42259  44.859  28.445   2.271
69945W        W42260  37.348  33.067  12.407
69946W        W42261  25.196  19.251   0.931
69947W        W42262   5.895  27.587  13.863
69948W        W42263   7.844  18.290  14.830
69949W        W42264  26.041  41.793   1.237
69950W        W42265  30.574  41.995   5.207
69951W        W42266  40.015   0.860   3.871
69952W        W42267   0.979  25.538  12.391
69953W        W42268  16.779  37.881   1.411
69954W        W42269  31.911  14.179   2.203
69955W        W42270  15.739  34.880   3.341
69956W        W42271  41.355  24.519  11.121
69957W        W42272  19.278  13.214   4.233
69958W        W42273  39.344  34.477  13.383
69959W        W42274  26.000   8.365   1.801
69960W        W42275  14.139  41.427   0.371
69961W        W42276  19.284  29.448  10.456
69962W        W42277   7.750  13.302  14.792
69963W        W42278  24.110   8.697  10.031
69964W        W42279  33.984  26.648  13.016
69965W        W42280   5.753   2.903   0.329
69966W        W42281   9.148  12.307   2.832
69967W        W42282  24.489  24.693   1.316
69968W        W42283  26.673  11.149  11.469
69969W        W42284  32.929  25.605   4.260
69970W        W42285   0.425  30.639  10.587
69971W        W42286   6.309  27.454  12.454
69972W        W42287  35.483  44.838  14.413
69973W        W42288   8.387  27.056  12.088
69974W        W42289  30.074   3.236  14.836
69975W        W42290  32.069  28.637  11.930
69976W        W42291   9.687   9.227   2.187
69977W        W42292  10.681  41.893   3.718
69978W        W42293   2.459  16.158  11.081
69979W        W42294  20.568  13.736  13.917
69980W        W42295  26.022  21.660   2.849
69981W        W42296   3.947  18.072   0.407
69982W        W42297   5.217  12.807   0.964
69983W        W42298  18.587   5.366  13.964
69984W        W42299  37.853  43.366   2.198
69985W        W42300  30.006  25.151   0.820
69986W        W42301  12.798  32.563  14.967
69987W        W42302  34.029  17.754  12.979
69988W        W42303  19.572  23.212   2.414
69989W        W42304  42.960   2.786   3.255
69990W        W42305   9.699   0.300  14.948
69991W        W42306  31.112   6.803  14.990
69992W        W42307  26.694  18.117   0.362
69993W        W42308  25.491  35.939  14.793
69994W        W42309  26.517   1.251   4.143
69995W        W42310  16.655  25.062   1.249
69996W        W42311  44.996  32.582   0.947
69997W        W42312   6.737   6.404  11.029
69998W        W42313   7.673  32.601  14.807
69999W        W42314  16.647  16.249   2.690
70000W        W42315  15.246  19.071  11.909
70001W        W42316  28.177   0.263   2.187
70002W        W42317  27.126   6.216   4.326
70003W        W42318   1.776  43.438   1.899
70004W        W42319   4.743   7.900  12.389
70005W        W42320   2.784  21.546  14.404
70006W        W42321  15.213   8.733  12.927
70007W        W42322  38.877  28.660  12.895
70008W        W42323  22.162   0.301  13.437
70009W        W42324   4.418  25.667  13.424
70010W        W42325   7.883  11.701   0.375
70011W        W42326  17.622  38.917  12.493
70012W        W42327  19.749   5.384  13.891
70013W        W42328  13.273  21.019   0.931
70014W        W42329  11.178  36.558  13.456
70015W        W42330  11.159  40.474  13.899
70016W        W42331  22.520  36.353  13.008
70017W        W42332   2.391   8.889  10.543
70018W        W42333  40.442  39.545  10.940
70019W        W42334  23.095  27.678  12.353
70020W        W42335  37.023  44.423   1.705
70021W        W42336  12.243   8.237   4.751
70022W        W42337  14.171  30.562   4.320
70023W        W42338  13.248  11.372  12.931
70024W        W42339  29.625  22.574  12.547
70025W        W42340   0.935  30.512   3.174
70026W        W42341  21.162  30.984   5.235
70027W        W42342  35.005  18.583  13.385
70028W        W42343  21.617   5.725  10.625
70029W        W42344  17.136  44.481   0.871
70030W        W42345  42.382  43.989  11.866
70031W        W42346  13.728  11.803  13.517
70032W        W42347  12.740  18.765   0.465
70033W        W42348  22.533  23.549   5.236
70034W        W42349  24.121  38.968  11.375
70035W        W42350  34.967  16.285  12.054
70036W        W42351  37.976  10.718   4.627
70037W        W42352  31.403  29.093  12.407
70038W        W42353   0.890  13.803  12.858
70039W        W42354  43.886   4.798   3.728
70040W        W42355   1.320   5.714   4.787
70041W        W42356  21.186  37.863  11.548
70042W        W42357  26.000   8.888  10.583
70043W        W42358  26.180  44.404  10.412
70044W        W42359  25.020  19.141  13.382
70045W        W42360  23.197  14.698   3.321
70046W        W42361  18.595   2.956   4.153
70047W        W42362  12.133  35.497   2.218
70048W        W42363   0.943  37.424  14.326
70049W        W42364   3.216  15.808  12.956
70050W        W42365   5.781  32.492  10.596
70051W        W42366  15.210  41.299  10.923
70052W        W42367  30.445  42.862   1.771
70053W        W42368   6.388  23.539   2.322
70054W        W42369  33.905  34.390  12.460
70055W        W42370  37.520   4.257  11.070
70056W        W42371  13.788  21.254   1.379
70057W        W42372  10.150  28.140  10.609
70058W        W42373  38.467  11.153  13.494
70059W        W42374  34.947  24.027  10.993
70060W        W42375  38.819  29.633   2.271
70061W        W42376  42.448  14.750  11.997
70062W        W42377  32.535   2.868  13.483
70063W        W42378  44.286  37.523  11.572
70064W        W42379  16.175  15.327  14.345
70065W        W42380  42.476  13.796  12.384
70066W        W42381  18.557  30.510   2.686
70067W        W42382  33.414  23.082  11.481
70068W        W42383  16.667  19.073  14.823
70069W        W42384   4.394  42.896  12.012
70070W        W42385  26.083  21.122   3.854
70071W        W42386  12.326  29.083  10.446
70072W        W42387   6.709   4.873   3.222
70073W        W42388  33.114  25.125  13.052
70074W        W42389  36.551  29.096   3.295
70075W        W42390  16.318  44.337   4.816
70076W        W42391   3.214  18.080   3.149
70077W        W42392  13.221  16.314   3.216
70078W        W42393   2.400  36.025  14.790
70079W        W42394  12.324   2.332   2.303
70080W        W42395  19.169   1.864  13.414
70081W        W42396  10.309  10.715   4.788
70082W        W42397  14.742  10.813   1.386
70083W        W42398   7.316  10.778   4.811
70084W        W42399   2.894  21.138  10.067
70085W        W42400  33.059  17.184  12.941
70086W        W42401  21.104  42.400   0.356
70087W        W42402  37.911  36.367  13.502
70088W        W42403  41.311   9.723   0.909
70089W        W42404  15.279  20.074  13.835
70090W        W42405  26.659  42.461   0.471
70091W        W42406  44.312  33.019   3.757
70092W        W42407  41.931  37.568   0.879
70093W        W42408  37.339  17.633  11.585
70094W        W42409  36.506  20.740  12.537
70095W        W42410  30.995  36.486  14.884
70096W        W42411  27.667   1.298  12.408
70097W        W42412  15.229  18.241   3.304
70098W        W42413  28.468  13.244  13.371
70099W        W42414  20.565  10.267   1.823
70100W        W42415  25.210  36.010  11.525
70101W        W42416  18.195  43.769  13.897
70102W        W42417   9.157  42.944  11.035
70103W        W42418   4.258   8.392  14.839
70104W        W42419   2.721   7.770  13.955
70105W        W42420  29.635  19.120  13.478
70106W        W42421  14.768  29.095  12.898
70107W        W42422  33.980  27.478   1.361
70108W        W42423  37.923  39.460  13.828
70109W        W42424  40.996  21.130  13.367
70110W        W42425  15.739  34.021  14.883
70111W        W42426   8.783  15.302  11.998
70112W        W42427   8.841  20.052   3.658
70113W        W42428  43.951  14.299  12.045
70114W        W42429   0.485   4.446   2.390
70115W        W42430  16.688  41.511  12.950
70116W        W42431  38.388   7.267  13.378
70117W        W42432   8.742  33.946  11.467
70118W        W42433  37.554   4.813   1.922
70119W        W42434  14.164  44.951   1.723
70120W        W42435  12.654  42.030  10.946
70121W        W42436  10.252  31.925   2.295
70122W        W42437  31.429  16.663  10.900
70123W        W42438   0.458  27.486   1.362
70124W        W42439   1.295  23.638  13.817
70125W        W42440  41.822  41.318   2.675
70126W        W42441  24.617  27.490  13.791
70127W        W42442  44.443  41.878  10.571
70128W        W42443   6.803   6.182  10.499
70129W        W42444   6.396   0.428   9.960
70130W        W42445  11.146   9.260   0.883
70131W        W42446  16.076  34.545   3.384
70132W        W42447  11.247  23.033  14.482
70133W        W42448  29.928  25.149   3.294
70134W        W42449   0.959  17.254   4.822
70135W        W42450  19.238   5.383   2.371
70136W        W42451  29.619   9.304   3.649
70137W        W42452  38.395   0.948   2.284
70138W        W42453  24.982   0.806  13.825
70139W        W42454   6.369  14.615   4.280
70140W        W42455  30.047  11.735   0.906
70141W        W42456  32.011   4.377  12.463
70142W        W42457   0.452  36.368   5.758
70143W        W42458  14.704  20.242   2.256
70144W        W42459  29.029  27.567   3.635
70145W        W42460   0.413  36.078   1.792
70146W        W42461  18.680  16.112   3.196
70147W        W42462   2.463  31.417  13.841
70148W        W42463  26.078  15.586  12.916
70149W        W42464  27.498  29.130   2.675
70150W        W42465  21.038  34.422   3.688
70151W        W42466  21.212  43.824   3.371
70152W        W42467  28.142  12.625  10.996
70153W        W42468  40.957  26.076  11.995
70154W        W42469   4.398  31.589   0.859
70155W        W42470  40.335  42.416  11.859
70156W        W42471  43.885  36.544  12.342
70157W        W42472  20.726  30.433  14.982
70158W        W42473  43.822   1.819   0.943
70159W        W42474  42.907  44.782  10.582
70160W        W42475  38.953   8.832  11.951
70161W        W42476  25.005  43.357   0.347
70162W        W42477   1.932   5.260   2.730
70163W        W42478  35.553  32.911   4.338
70164W        W42479  25.016  26.573   4.761
70165W        W42480   6.712   2.777   4.669
70166W        W42481   5.774  42.006   4.668
70167W        W42482  26.683  29.145  11.496
70168W        W42483   9.300   8.716   0.962
70169W        W42484  35.036  29.537   4.279
70170W        W42485  37.477  27.687  12.096
70171W        W42486  36.362   5.716  11.122
70172W        W42487   9.689   3.828   0.355
70173W        W42488   2.828  40.919  13.308
70174W        W42489  35.535   8.328   0.741
70175W        W42490  25.140  23.144  13.471
70176W        W42491  34.454  41.967   1.754
70177W        W42492   1.835  36.067   9.647
70178W        W42493   4.783  22.607  13.429
70179W        W42494   7.319   1.925   0.777
70180W        W42495  30.922  15.287  11.484
70181W        W42496  33.908  15.615  10.634
70182W        W42497  43.784  10.860  11.944
70183W        W42498  41.949  23.159   4.169
70184W        W42499  13.224  42.936  10.152
70185W        W42500  13.767  43.898  11.942
70186W        W42501  34.904   4.751   0.305
70187W        W42502   4.247  35.438   0.875
70188W        W42503   5.918  20.682  14.022
70189W        W42504  18.691  42.892   0.933
70190W        W42505   2.874  28.137   0.250
70191W        W42506  38.972  37.897   3.707
70192W        W42507   9.812  12.216  13.493
70193W        W42508   7.773  32.523   4.306
70194W        W42509   4.405  19.541   0.949
70195W        W42510  25.135  41.327   0.359
70196W        W42511  44.934  42.940  14.978
70197W        W42512   4.413  18.204   0.250
70198W        W42513  13.711  13.122  10.604
70199W        W42514  15.713  24.227   0.390
70200W        W42515  20.033  40.945  11.922
70201W        W42516  16.809  39.862   2.315
70202W        W42517   2.384   5.731  11.049
70203W        W42518   2.794  39.344   1.350
70204W        W42519   4.406  23.122   4.687
70205W        W42520  39.886  27.992  14.784
70206W        W42521  33.393  17.792   2.763
70207W        W42522   6.311  39.963   4.667
70208W        W42523  35.424  32.067   0.788
70209W        W42524  36.592  13.121   0.482
70210W        W42525   0.962  25.179   5.169
70211W        W42526  20.548  33.606  12.370
70212W        W42527  26.173  44.927  10.574
70213W        W42528  23.595  32.132   0.839
70214W        W42529  24.690  16.729   1.764
70215W        W42530   8.767  22.629  12.923
70216W        W42531  36.472  39.381  13.311
70217W        W42532  20.661  12.698  12.547
70218W        W42533  26.169   0.416   0.363
70219W        W42534   4.218  24.555  14.445
70220W        W42535  14.653  27.078   1.432
70221W        W42536  23.060   4.796  12.492
70222W        W42537  22.102  17.738   2.228
70223W        W42538  28.529  35.993  10.999
70224W        W42539  34.598  17.775  13.414
70225W        W42540  18.174  30.115  10.478
70226W        W42541  26.552  31.407  14.318
70227W        W42542  30.427  28.981  11.915
70228W        W42543  25.669  13.783   1.267
70229W        W42544  44.475  20.720   1.330
70230W        W42545  21.596  41.455  11.474
70231W        W42546  44.803  12.167   1.708
70232W        W42547  35.902  38.462  11.109
70233W        W42548  23.212   3.915   3.178
70234W        W42549  10.144   3.455  13.808
70235W        W42550  37.428  17.190   2.809
70236W        W42551  22.249  30.090   0.777
70237W        W42552  29.173  41.042   1.765
70238W        W42553  15.315  31.518  10.975
70239W        W42554  36.016  35.529  11.089
70240W        W42555  41.033  17.198   4.202
70241W        W42556   3.905  25.069   4.787
70242W        W42557  16.079  44.366  13.386
70243W        W42558  27.972   0.820   3.800
70244W        W42559  19.145   1.844   3.664
70245W        W42560  18.549  28.590   4.752
70246W        W42561  25.654   7.379   3.198
70247W        W42562  23.579  41.413  12.470
70248W        W42563  42.384  20.094   1.854
70249W        W42564  24.522  17.223  14.490
70250W        W42565  43.288   2.914   1.247
70251W        W42566  30.527   5.428   2.757
70252W        W42567  11.254  17.681   4.784
70253W        W42568  37.356  20.041   0.251
70254W        W42569   5.386  12.828   1.848
70255W        W42570  38.373  23.497  11.492
70256W        W42571  19.681   4.735  13.028
70257W        W42572  12.353   7.886   4.823
70258W        W42573  13.272   8.689  14.974
70259W        W42574  16.753   3.406  10.508
70260W        W42575   3.457  14.589   4.814
70261W        W42576  38.517  38.337  13.396
70262W        W42577  28.604  30.450  13.814
70263W        W42578   6.890  10.306   1.447
70264W        W42579  32.427  38.571  13.060
70265W        W42580  19.117  21.070  12.851
70266W        W42581  17.691  40.436   4.631
70267W        W42582  43.874  10.798   4.202
70268W        W42583  21.703   0.901  13.963
70269W        W42584  10.349  26.194   4.777
70270W        W42585  18.179  15.800   2.254
70271W        W42586  33.405   1.342  12.353
70272W        W42587  34.097  39.521   1.269
70273W        W42588  31.582   2.773  10.911
70274W        W42589  13.153  43.309  13.349
70275W        W42590  28.579  31.594  11.993
70276W        W42591  12.134  13.197  10.523
70277W        W42592  11.235  11.647  13.366
70278W        W42593  30.619  31.947   0.309
70279W        W42594   9.766   0.985  13.432
70280W        W42595  36.465  13.669  11.437
70281W        W42596  18.164  26.496  14.434
70282W        W42597  19.248  24.612   3.738
70283W        W42598   9.362  27.499  14.965
70284W        W42599  35.991  26.529   3.788
70285W        W42600  30.473  37.382   3.694
70286W        W42601  13.620  18.202   3.356
70287W        W42602  42.018   9.288   3.181
70288W        W42603  16.206  10.784   0.731
70289W        W42604  17.698  26.473   2.877
70290W        W42605  29.963  12.157  12.084
70291W        W42606  11.768  38.480   2.702
70292W        W42607  29.078   5.816  13.977
70293W        W42608   7.775  18.221  12.889
70294W        W42609  39.447   6.316  14.782
70295W        W42610  30.135  26.474  11.525
70296W        W42611  23.678  44.457   4.708
70297W        W42612  29.556  21.199   5.275
70298W        W42613  15.747  25.700   4.142
70299W        W42614   7.815  41.374  10.041
70300W        W42615  17.747  39.398  10.151
70301W        W42616  11.343  18.764   5.648
70302W        W42617  43.351  15.762  13.368
70303W        W42618  19.102  40.465  11.866
70304W        W42619   4.884  37.918   4.652
70305W        W42620  32.579  32.105  13.315
70306W        W42621   5.720  43.798   3.331
70307W        W42622  30.656  40.008   4.817
70308W        W42623  15.641  40.487   1.860
70309W        W42624  25.096  19.648   0.473
70310W        W42625  24.198  14.140  14.950
70311W        W42626  13.277  24.595   4.301
70312W        W42627  10.672   9.151   0.478
70313W        W42628  14.283   4.204  10.992
70314W        W42629  12.141  20.545  13.307
70315W        W42630   4.747  33.997   1.757
70316W        W42631  20.116  16.768   4.794
70317W        W42632  24.093  36.933   3.721
70318W        W42633  28.460  37.341   2.777
70319W        W42634  26.964   4.912  12.949
70320W        W42635   2.951  43.969  12.521
70321W        W42636  14.702   4.390  13.313
70322W        W42637  38.944  15.738   5.117
70323W        W42638  18.597  28.552  12.449
70324W        W42639  37.034  25.708  10.031
70325W        W42640  23.058   3.728  13.505
70326W        W42641  41.511   5.689  11.967
70327W        W42642  19.048  28.956   0.779
70328W        W42643  11.283   5.227  14.869
70329W        W42644  44.844  37.983  10.488
70330W        W42645  18.164   8.250   2.374
70331W        W42646  13.606   1.322   2.859
70332W        W42647  18.248  30.559   5.236
70333W        W42648  20.245  29.551  13.866
70334W        W42649  13.808  14.292  10.576
70335W        W42650  13.286  21.173  12.988
70336W        W42651  35.529  23.044   2.348
70337W        W42652  21.745  20.262   2.224
70338W        W42653  41.027  38.929   4.822
70339W        W42654   7.234   8.202   0.802
70340W        W42655   5.704  34.932  13.938
70341W        W42656   3.745  42.295  13.367
70342W        W42657   1.290  17.751  11.544
70343W        W42658  18.741  27.519   0.873
70344W        W42659  26.535  10.638   4.707
70345W        W42660  13.802   7.343   4.159
70346W        W42661   6.311   7.752   3.336
70347W        W42662  19.672  35.029   2.898
70348W        W42663  42.311  37.086  12.075
70349W        W42664   8.820  42.291  12.352
70350W        W42665  36.375  29.630  14.970
70351W        W42666  19.745  24.086   4.346
70352W        W42667   5.765  17.641  14.428
70353W        W42668  34.923   7.834   0.483
70354W        W42669  42.356  23.554   0.380
70355W        W42670  18.267   3.315  14.431
70356W        W42671  41.986  21.056   1.711
70357W        W42672  14.326  40.946   2.238
70358W        W42673  27.112  24.202   4.647
70359W        W42674  31.963  21.051  13.032
70360W        W42675  10.157  31.611   4.204
70361W        W42676   0.341  30.508   4.302
70362W        W42677  12.326  31.453   3.215
70363W        W42678  44.921  37.558   3.173
70364W        W42679   6.901  26.046   2.818
70365W        W42680   1.401   0.355  12.888
70366W        W42681  44.945  14.334   4.825
70367W        W42682   4.879   6.196   9.970
70368W        W42683  44.294  21.702  10.560
70369W        W42684  43.793   1.792  13.329
70370W        W42685  39.400  22.223   0.834
70371W        W42686  33.561  33.037  14.803
70372W        W42687  36.520  37.459  11.490
70373W        W42688  18.256   3.758  11.063
70374W        W42689   3.423   6.914   0.446
70375W        W42690   6.842  30.512  10.509
70376W        W42691  42.808  35.359   0.938
70377W        W42692   4.733  18.272   3.333
70378W        W42693  20.576  42.411   0.264
70379W        W42694  11.634  24.015   3.764
70380W        W42695  34.107   2.921   4.180
70381W        W42696  16.799  23.168  11.541
70382W        W42697  17.761  29.147  13.338
70383W        W42698  38.559  23.025   3.833
70384W        W42699  16.097  33.553   1.387
70385W        W42700  44.327  16.227  13.851
70386W        W42701   3.717  10.721  11.877
70387W        W42702   2.310  25.658  14.927
70388W        W42703  28.009   2.462   0.875
70389W        W42704  20.083  42.899  13.400
70390W        W42705  38.476  20.071   4.196
70391W        W42706  35.583  22.541   4.211
70392W        W42707   0.873  39.064  13.932
70393W        W42708  15.175   2.816   0.785
70394W        W42709  22.692   6.418   4.166
70395W        W42710  31.533  30.507  12.833
70396W        W42711   2.909  24.095  10.464
70397W        W42712  10.141  18.146   2.692
70398W        W42713  17.707  27.022  13.544
70399W        W42714  16.185  44.325   0.470
70400W        W42715  31.927  37.023  13.460
70401W        W42716  35.109  40.320   2.726
70402W        W42717  29.090   2.448   0.295
70403W        W42718  22.685  30.613   3.310
70404W        W42719  44.851  19.614  13.043
70405W        W42720  33.519  40.938   0.469
70406W        W42721  25.206  15.209   4.649
70407W        W42722  22.177   4.295   2.728
70408W        W42723   4.734  43.371   2.271
70409W        W42724  41.859  25.667  14.838
70410W        W42725  39.505   9.172   4.685
70411W        W42726  37.544  39.508  14.766
70412W        W42727  37.845  43.456  13.369
70413W        W42728  33.532  39.447  13.866
70414W        W42729  14.788  30.946  14.868
70415W        W42730  21.068   3.817  14.313
70416W        W42731   1.381  16.147   2.398
70417W        W42732  34.093  30.920   0.754
70418W        W42733  40.506  29.667  12.548
70419W        W42734  37.077  43.303   2.317
70420W        W42735  36.943  32.961   3.353
70421W        W42736  23.042  37.391   0.808
70422W        W42737  18.606   2.384   2.898
70423W        W42738  17.725  13.697   1.363
70424W        W42739  19.130  25.609  10.955
70425W        W42740   1.427  44.458  14.472
70426W        W42741   1.811  38.978  11.899
70427W        W42742  30.925  44.968   3.774
70428W        W42743  43.877  43.347   4.657
70429W        W42744   0.258   5.863  10.968
70430W        W42745  13.262  28.470  11.519
70431W        W42746  21.034  30.159   0.800
70432W        W42747   1.294  34.606  11.936
70433W        W42748  13.788  27.655   0.768
70434W        W42749  41.813  12.647  14.029
70435W        W42750  18.685  11.179   9.482
70436W        W42751   7.222  31.566  13.026
70437W        W42752  32.534   7.245  10.949
70438W        W42753  21.149  29.483   0.916
70439W        W42754  18.105   0.939  12.914
70440W        W42755  16.100  32.914   3.709
70441W        W42756   2.754  24.492   2.719
70442W        W42757  39.390   3.803  13.450
70443W        W42758   1.744  33.924   2.842
70444W        W42759  40.364   3.944   4.121
70445W        W42760   2.825  21.195  14.988
70446W        W42761  16.140  35.365  14.835
70447W        W42762  40.424  26.148   2.259
70448W        W42763  24.571   7.268  13.899
70449W        W42764  16.095  30.952  12.384
70450W        W42765  22.698  28.603  13.344
70451W        W42766   6.710  11.201  13.374
70452W        W42767   5.790  15.661  12.985
70453W        W42768   8.372   8.850   3.666
70454W        W42769  28.021  43.505   0.411
70455W        W42770  22.622   4.896  10.095
70456W        W42771  20.124  38.869   2.360
70457W        W42772   5.253  44.821   0.270
70458W        W42773  11.161   5.201  12.469
70459W        W42774  41.932  35.039   0.252
70460W        W42775   8.210  39.997  13.530
70461W        W42776  32.960  38.055  11.051
70462W        W42777   1.961  21.617  11.395
70463W        W42778  37.516  22.215  10.496
70464W        W42779   0.970   9.677   5.097
70465W        W42780   8.735  23.111   0.458
70466W        W42781  36.512   3.878   0.875
70467W        W42782  27.543  28.563   3.831
70468W        W42783  33.484  20.132  10.411
70469W        W42784   0.974  36.038   4.599
70470W        W42785  25.556  13.675  12.014
70471W        W42786   8.210  43.955  14.468
70472W        W42787  26.965  10.837   4.313
70473W        W42788  33.885  16.734  12.489
70474W        W42789  20.603  25.133  14.431
70475W        W42790  44.326   0.333  11.064
70476W        W42791  36.507   6.838  14.031
70477W        W42792  36.534  17.759   4.696
70478W        W42793  21.093   6.713  11.107
70479W        W42794  32.392  22.721   1.351
70480W        W42795  31.559   4.210  14.324
70481W        W42796  13.801  37.050   3.690
70482W        W42797  37.366  27.143   4.786
70483W        W42798  18.109  32.433  12.035
70484W        W42799  34.939  39.908  11.466
70485W        W42800  39.009  23.042  11.969
70486W        W42801  42.874  12.351  12.042
70487W        W42802  20.563  36.462   2.313
70488W        W42803  33.526  43.906   2.387
70489W        W42804  29.098  35.359   1.310
70490W        W42805   8.213  19.149   0.394
70491W        W42806  38.434  21.071  10.014
70492W        W42807   8.346  31.138   3.287
70493W        W42808   2.296  21.521  14.434
70494W        W42809   2.441  12.707  10.061
70495W        W42810  28.679  38.845   0.962
70496W        W42811  43.894   3.920  14.831
70497W        W42812  42.525  11.782   2.280
70498W        W42813  41.943  24.493  14.959
70499W        W42814  32.405  32.603  12.932
70500W        W42815  31.115  12.188   3.726
70501W        W42816   1.950  44.792   1.705
70502W        W42817  16.271  25.114   1.772
70503W        W42818  39.366  42.889  13.964
70504W        W42819  37.370  42.420  12.074
70505W        W42820  25.082  31.486  14.930
70506W        W42821  38.862  11.745  12.464
70507W        W42822  18.221  15.653  12.046
70508W        W42823  15.819  22.230  10.017
70509W        W42824  37.344  33.420  10.500
70510W        W42825  14.225  19.075   3.770
70511W        W42826  20.642  13.144   3.203
70512W        W42827  31.124  42.408  11.899
70513W        W42828   9.191  30.445  14.808
70514W        W42829  38.372  14.800  13.317
70515W        W42830   6.319  43.941   4.181
70516W        W42831  10.849  42.947   0.833
70517W        W42832   8.388  17.124  12.997
70518W        W42833  21.613  41.000   1.742
70519W        W42834  44.342  17.555  12.510
70520W        W42835  35.366  28.539  11.878
70521W        W42836  16.095  41.340   0.456
70522W        W42837  34.895  17.253   1.745
70523W        W42838  14.805  11.265  13.014
70524W        W42839  18.696  38.954  10.603
70525W        W42840  43.870   2.732  13.371
70526W        W42841  13.806  43.866  13.469
70527W        W42842  10.140  14.187   3.675
70528W        W42843  32.498  15.141   0.321
70529W        W42844  19.187  10.851  11.551
70530W        W42845  18.215  39.824   1.772
70531W        W42846  41.408   8.836  12.847
70532W        W42847  37.523   1.825  14.858
70533W        W42848  16.222  28.528   0.875
70534W        W42849  28.986  36.363   3.717
70535W        W42850   6.907  36.470   0.808
70536W        W42851  32.072  40.313   2.724
70537W        W42852   1.933   3.321  10.422
70538W        W42853   4.861  36.483  13.376
70539W        W42854  17.158   1.756   1.746
70540W        W42855  15.681  31.594   4.802
70541W        W42856  35.043  26.663  14.810
70542W        W42857   6.762  16.309   4.713
70543W        W42858  13.666   4.892  10.975
70544W        W42859  41.928   4.880  12.505
70545W        W42860  39.459  37.460  14.301
70546W        W42861  16.758  26.188  12.016
70547W        W42862   9.171   2.966  10.437
70548W        W42863  31.098  16.605   4.245
70549W        W42864  17.232   8.715  14.337
70550W        W42865   6.865  36.879   1.727
70551W        W42866   6.372  17.208   4.244
70552W        W42867  15.099  24.608  10.420
70553W        W42868  17.099  17.289   4.242
70554W        W42869  16.167  23.614   0.793
70555W        W42870  14.152  20.240   4.275
70556W        W42871  34.550   6.321   3.335
70557W        W42872  12.220  26.100  13.461
70558W        W42873  10.322  15.268  14.028
70559W        W42874   1.301  18.725   0.887
70560W        W42875  34.108  42.867   4.779
70561W        W42876  28.961  12.297   4.705
70562W        W42877  24.151  29.976  13.966
70563W        W42878  20.155  39.860   0.777
70564W        W42879  20.258   4.373   0.297
70565W        W42880  25.086   5.906   3.805
70566W        W42881   1.862  15.094   3.693
70567W        W42882   7.735   9.164  10.640
70568W        W42883   6.293  40.413   2.256
70569W        W42884  36.587  25.028   1.218
70570W        W42885  36.388   7.770  14.821
70571W        W42886  29.155   2.867   3.306
70572W        W42887   5.760   7.910   4.329
70573W        W42888  35.015  35.919   3.309
70574W        W42889  32.022   5.264  11.468
70575W        W42890  24.686  38.459  11.083
70576W        W42891  13.618  43.826   0.955
70577W        W42892   4.793   7.674   4.304
70578W        W42893  24.622  21.655   2.874
70579W        W42894   4.718   4.770  12.068
70580W        W42895  28.991  17.741  13.802
70581W        W42896   6.230   8.180  11.426
70582W        W42897   2.965  25.111  11.092
70583W        W42898   6.205  23.546  11.571
70584W        W42899  27.677   4.912   1.246
70585W        W42900  14.331   5.713  13.926
70586W        W42901  31.484  39.428   3.790
70587W        W42902  40.844   6.294  14.469
70588W        W42903  24.635  16.277  13.006
70589W        W42904   7.313  32.596  12.038
70590W        W42905  12.800   7.822   0.896
70591W        W42906  43.504  39.962  10.916
70592W        W42907  16.144   3.219  12.884
70593W        W42908  40.880  20.718   1.796
70594W        W42909  17.682  13.662   1.840
70595W        W42910  16.717  25.546   3.852
70596W        W42911  21.671  32.092  12.427
70597W        W42912  18.175  17.576   2.362
70598W        W42913  18.589   5.775   3.747
70599W        W42914  35.602   9.175  11.987
70600W        W42915   7.188  32.006  11.933
70601W        W42916  43.933  12.334   9.569
70602W        W42917  13.317   7.249  10.457
70603W        W42918   2.301  33.613  10.607
70604W        W42919  40.477  15.809   4.282
70605W        W42920   4.894   9.217  10.995
70606W        W42921  13.122  11.665   1.436
70607W        W42922  12.837  20.703  12.879
70608W        W42923  32.466  27.631   0.399
70609W        W42924  43.486  22.720   2.311
70610W        W42925  37.541   1.452  14.371
70611W        W42926  21.152  26.663  11.072
70612W        W42927  44.826  38.453   4.768
70613W        W42928  16.696  17.176  13.794
70614W        W42929  40.837  25.680   5.190
70615W        W42930   4.421   4.416   1.934
70616W        W42931   2.393   4.710  12.360
70617W        W42932  42.317   9.380   0.465
70618W        W42933  34.958  33.070   2.237
70619W        W42934   4.724  40.347   1.235
70620W        W42935   4.718  15.215   2.254
70621W        W42936  20.718  25.967   1.447
70622W        W42937  39.919  23.593   3.231
70623W        W42938  23.227  26.971  14.304
70624W        W42939  34.883  21.659  12.469
70625W        W42940  44.759   8.876   5.283
70626W        W42941  16.092  20.151  11.881
70627W        W42942  34.581  26.192   1.435
70628W        W42943  24.540  28.581   2.378
70629W        W42944  28.982   9.681  12.017
70630W        W42945  28.952  36.408  11.044
70631W        W42946  30.954  12.741  11.410
70632W        W42947  13.138  16.650  12.347
70633W        W42948  23.020  15.217  11.534
70634W        W42949  20.131  10.663   1.359
70635W        W42950  13.314  30.476   2.755
70636W        W42951  34.024  31.975   2.744
70637W        W42952   9.360  24.988   4.337
70638W        W42953  32.531  20.661  14.821
70639W        W42954  34.931  26.017   1.802
70640W        W42955  39.830  43.784  10.568
70641W        W42956  38.973  11.255  11.932
70642W        W42957   6.730  44.989   1.330
70643W        W42958   4.439  12.257   2.316
70644W        W42959  26.057   4.443   3.667
70645W        W42960  26.496  22.711   3.727
70646W        W42961  16.688   9.255  12.366
70647W        W42962  28.942  32.059   3.820
70648W        W42963  23.550  21.652   0.322
70649W        W42964  11.363  30.484  14.290
70650W        W42965   4.334   6.369  12.449
70651W        W42966   9.736  44.500   0.866
70652W        W42967   0.338   6.268   3.845
70653W        W42968  40.440  16.765   0.891
70654W        W42969   4.910  21.566  13.490
70655W        W42970   8.671  42.869   2.410
70656W        W42971  26.667  32.583   3.714
70657W        W42972   4.435   4.211   2.260
70658W        W42973  25.662  18.147   4.344
70659W        W42974  39.888  15.710  14.836
70660W        W42975  22.640   3.227   2.212
70661W        W42976  35.436  30.105  14.953
70662W        W42977  18.114   9.706   2.388
70663W        W42978  31.555  28.023   2.220
70664W        W42979  38.045   5.809   1.726
70665W        W42980   5.833  21.745   1.345
70666W        W42981   2.328   1.825   2.667
70667W        W42982  21.176   5.788   4.804
70668W        W42983  19.098  37.514  13.055
70669W        W42984  18.206  33.998  14.451
70670W        W42985  40.433  13.265   3.336
70671W        W42986  24.625  42.366  11.472
70672W        W42987  15.794   4.739   3.735
70673W        W42988  26.688  32.999   2.821
70674W        W42989  32.583   2.299  11.406
70675W        W42990   5.836   0.267  12.892
70676W        W42991  17.138   0.967   1.720
70677W        W42992  22.584   7.199   4.707
70678W        W42993  12.818  38.898  13.522
70679W        W42994  36.986  41.835  12.465
70680W        W42995  40.391  33.493   3.221
70681W        W42996   4.723  27.044   3.253
70682W        W42997  33.482  39.351   0.296
70683W        W42998   1.463   9.848   2.860
70684W        W42999  20.129  31.975  13.838
70685W        W43000   5.362  38.398  11.917
70686W        W43001  40.911   9.881  14.990
70687W        W43002  22.670  43.504  11.881
70688W        W43003  16.597   2.288  10.467
70689W        W43004  19.678  27.943  12.487
70690W        W43005  27.683  11.659  13.838
70691W        W43006  23.094  27.967  11.591
70692W        W43007  30.490  26.676  11.903
70693W        W43008  11.689  34.098  10.628
70694W        W43009   6.709   0.843   3.178
70695W        W43010  12.209  19.583  12.530
70696W        W43011  36.094   2.946   0.880
70697W        W43012  21.249   2.435  11.608
70698W        W43013  11.347  41.869   2.791
70699W        W43014  27.531  20.040   2.699
70700W        W43015  36.572  16.754   1.311
70701W        W43016   1.763   4.430   3.257
70702W        W43017  14.813   0.251   1.423
70703W        W43018  34.589  23.707  12.503
70704W        W43019  13.647   7.898   1.294
70705W        W43020  44.936  26.037   3.333
70706W        W43021   8.375  33.496  14.901
70707W        W43022   4.387  37.059  12.397
70708W        W43023  44.001  34.873   5.302
70709W        W43024   4.705  17.218  11.945
70710W        W43025  34.415   2.428   1.265
70711W        W43026  28.105   7.705   1.833
70712W        W43027  28.111  22.232  13.955
70713W        W43028   7.791  43.822  13.800
70714W        W43029  27.686  43.455  10.455
70715W        W43030  24.042  32.107   0.845
70716W        W43031  11.838  32.492  13.002
70717W        W43032   0.405  11.819   1.922
70718W        W43033  10.813  20.718   1.431
70719W        W43034  30.473  37.575  11.942
70720W        W43035   0.875  10.275  12.826
70721W        W43036   1.459   2.371  14.934
70722W        W43037  25.576  30.144  14.414
70723W        W43038  36.471   5.334  11.379
70724W        W43039   1.878  21.237   0.815
70725W        W43040  41.978   4.761  10.594
70726W        W43041  39.886  31.056  14.788
70727W        W43042  10.862  30.574  15.000
70728W        W43043   7.886  29.661  12.386
70729W        W43044  38.558  24.114  11.541
70730W        W43045   9.830  37.393  11.514
70731W        W43046  20.181  41.406   3.186
70732W        W43047  39.958  34.496   2.244
70733W        W43048  34.550  24.110   0.469
70734W        W43049  27.689  36.536  13.919
70735W        W43050  43.799  22.664   3.351
70736W        W43051  22.537   5.261  14.775
70737W        W43052  44.978  22.683   0.419
70738W        W43053  17.669  42.283  11.940
70739W        W43054   0.977  19.249  14.388
70740W        W43055  23.612  39.324   2.400
70741W        W43056  24.600  31.515   3.354
70742W        W43057  14.672  15.277  14.849
70743W        W43058  33.483  34.086  13.980
70744W        W43059  43.773  18.690   3.352
70745W        W43060   2.472  36.385  11.911
70746W        W43061  28.186  31.501  11.384
70747W        W43062  44.483   6.682   2.216
70748W        W43063   6.873  15.095  14.976
70749W        W43064  25.668  23.166   0.750
70750W        W43065  15.283  25.058   1.374
70751W        W43066  31.480  18.290   4.678
70752W        W43067  15.676  12.313  14.496
70753W        W43068  37.933  19.693  14.353
70754W        W43069   1.475  38.519   0.821
70755W        W43070  34.536  43.767  11.041
70756W        W43071  26.578  23.070  10.640
70757W        W43072  31.460  42.341  14.314
70758W        W43073   4.264  10.343   1.304
70759W        W43074  30.553  30.420   2.755
70760W        W43075  20.030  41.507   2.874
70761W        W43076  14.197  22.537   2.837
70762W        W43077   7.862   7.399   5.118
70763W        W43078  11.693  18.765   5.188
70764W        W43079  26.028  23.655  12.441
70765W        W43080  43.302  38.051   4.140
70766W        W43081  20.754  18.132   3.790
70767W        W43082  18.660  26.553  13.420
70768W        W43083  43.773  28.482  11.578
70769W        W43084  36.430  28.651   4.754
70770W        W43085  35.952  32.108  11.555
70771W        W43086  30.442  39.954  13.825
70772W        W43087  30.082  32.488   1.864
70773W        W43088   2.885  37.408  12.425
70774W        W43089  37.853  24.009  14.472
70775W        W43090  44.974   9.884   9.549
70776W        W43091  38.038   0.799  11.108
70777W        W43092  11.774   2.933  13.860
70778W        W43093  22.209  37.439  12.378
70779W        W43094  29.570  26.031   4.774
70780W        W43095   5.932  27.949   1.897
70781W        W43096  14.659   2.921   2.411
70782W        W43097   7.409   8.705   1.314
70783W        W43098  36.480   9.160  12.525
70784W        W43099   8.202   6.854  11.382
70785W        W43100  28.445  17.216   1.843
70786W        W43101  23.179  39.053   2.202
70787W        W43102  16.783  31.534   9.979
70788W        W43103  27.961  40.023   1.308
70789W        W43104  15.205  27.985  12.904
70790W        W43105  28.181  33.428  14.937
70791W        W43106  15.218   9.801  14.478
70792W        W43107  38.533  27.162  14.780
70793W        W43108  15.630   9.831   1.445
70794W        W43109   5.216   8.805   1.914
70795W        W43110  15.164  26.650  10.505
70796W        W43111  24.138  15.708   1.442
70797W        W43112  21.168  16.238   3.169
70798W        W43113  42.918  41.432   3.368
70799W        W43114  43.374  24.592   2.306
70800W        W43115   5.398  20.582   0.765
70801W        W43116  20.177  30.495  12.916
70802W        W43117  19.084  21.021   3.346
70803W        W43118  42.369  15.590  10.504
70804W        W43119   6.876  13.613   3.794
70805W        W43120   8.244  16.718  12.063
70806W        W43121   7.196   9.315   1.861
70807W        W43122   5.829  36.859   3.146
70808W        W43123  38.068  18.194  10.435
70809W        W43124   7.384   6.820  11.454
70810W        W43125  30.613  39.376  13.410
70811W        W43126  30.010   1.373   4.244
70812W        W43127  20.564  15.274  12.531
70813W        W43128  21.223  20.197  14.323
70814W        W43129  42.996  32.455   0.965
70815W        W43130  11.219  35.583  13.902
70816W        W43131  40.403  26.618   1.301
70817W        W43132  13.295  27.114   4.279
70818W        W43133  22.626  38.503  14.493
70819W        W43134  35.959  31.026   2.788
70820W        W43135  22.706  31.092  14.330
70821W        W43136  42.326  20.031  13.884
70822W        W43137  40.043  17.666  10.481
70823W        W43138   2.255  24.675   3.642
70824W        W43139  34.402  27.195   2.851
70825W        W43140  22.594  11.647  14.912
70826W        W43141  43.845  35.944   4.304
70827W        W43142  23.610  24.054   4.835
70828W        W43143  38.522   1.435  10.433
70829W        W43144  41.534  19.124   3.279
70830W        W43145  10.347   3.352   2.380
70831W        W43146  30.160  37.862  14.312
70832W        W43147  17.752  25.712   1.765
70833W        W43148  23.217   8.316   1.739
70834W        W43149  41.504  36.557  12.044
70835W        W43150  29.562  23.519  11.864
70836W        W43151  21.059  20.034   1.317
70837W        W43152  15.266   9.732   4.786
70838W        W43153  19.634  24.658  14.454
70839W        W43154   1.882  18.701  13.966
70840W        W43155  26.954  14.224   4.723
70841W        W43156   2.960  35.071   0.279
70842W        W43157   9.721  19.685  14.415
70843W        W43158  35.946   8.829   4.609
70844W        W43159  17.579  42.804  13.058
70845W        W43160  21.531  27.490  10.431
70846W        W43161   1.258  34.983   3.337
70847W        W43162   6.278  44.910  11.586
70848W        W43163  25.195  42.445  12.829
70849W        W43164  40.032  21.164  14.484
70850W        W43165  27.988   2.865  13.001
70851W        W43166   4.218  37.872  11.549
70852W        W43167   4.246  41.912  10.467
70853W        W43168  27.192   7.908  14.391
70854W        W43169  18.204  18.135  14.795
70855W        W43170  41.806   7.817  10.491
70856W        W43171   4.231  18.767   3.646
70857W        W43172  41.825  12.748   2.753
70858W        W43173   5.895  24.629  11.926
70859W        W43174  16.788  21.676   3.294
70860W        W43175   3.445   6.839  11.505
70861W        W43176  19.213  15.174  13.450
70862W        W43177  16.666  25.619  13.440
70863W        W43178   3.857  21.742   4.663
70864W        W43179  19.541  40.053   4.618
70865W        W43180  12.163  37.021   0.844
70866W        W43181  12.815  43.016   0.365
70867W        W43182  17.199  20.757   4.294
70868W        W43183  44.333  28.511   2.179
70869W        W43184  12.309   2.333   3.826
70870W        W43185  12.776   1.395  12.463
70871W        W43186  40.363  43.888   4.805
70872W        W43187   6.404   1.905   2.875
70873W        W43188   7.374  25.590  13.922
70874W        W43189  29.068  18.227   3.327
70875W        W43190  44.851   0.276   0.947
70876W        W43191  21.203   3.397  12.924
70877W        W43192  34.890   2.266   4.781
70878W        W43193  16.745  24.481   1.280
70879W        W43194  13.754  22.230   3.247
70880W        W43195  43.825  22.532   3.788
70881W        W43196   0.962  19.089  12.361
70882W        W43197  20.106  27.647   2.194
70883W        W43198  12.820  35.931   4.252
70884W        W43199  12.774  19.100  13.344
70885W        W43200  38.475  30.940  13.472
70886W        W43201  27.658  22.700   0.360
70887W        W43202  18.284  11.628  12.026
70888W        W43203  12.812  17.642  13.336
70889W        W43204  41.537  37.525  11.891
70890W        W43205  17.659   9.280  12.358
70891W        W43206  42.027   6.842   0.466
70892W        W43207  24.160  37.954   2.754
70893W        W43208  43.385   5.329   1.389
70894W        W43209  13.290  20.032  14.929
70895W        W43210   6.427   5.775   1.924
70896W        W43211  37.946  15.323   0.397
70897W        W43212  15.304   8.832   1.887
70898W        W43213  14.214   4.442   3.215
70899W        W43214  29.973  39.391   4.241
70900W        W43215  17.228  42.313   2.840
70901W        W43216  12.167  34.070   3.834
70902W        W43217  32.966  12.850  13.368
70903W        W43218  12.703  14.617  13.061
70904W        W43219  18.664  31.522  12.474
70905W        W43220  17.233   0.417  13.365
70906W        W43221  34.531  33.433   1.908
70907W        W43222   8.746  41.418  14.883
70908W        W43223  27.610  40.405  13.923
70909W        W43224   1.779  29.976  13.875
70910W        W43225  24.669  21.557  14.479
70911W        W43226  27.510  37.016   3.241
70912W        W43227  32.052  37.078  11.400
70913W        W43228   9.720  14.818  13.942
70914W        W43229  29.425  44.929   4.244
70915W        W43230  24.017   2.819  14.439
70916W        W43231  12.166  16.158   2.799
70917W        W43232  43.958  25.602  14.796
70918W        W43233  25.574   3.794  14.774
70919W        W43234  15.742  14.207   3.187
70920W        W43235  27.084  10.655  14.805
70921W        W43236  30.019   5.767   1.346
70922W        W43237  28.663   2.888  12.976
70923W        W43238  20.222  39.349   3.684
70924W        W43239  21.556  29.566   4.622
70925W        W43240   0.427  44.913   4.148
70926W        W43241  22.117  12.688  12.850
70927W        W43242  10.838   7.832   4.191
70928W        W43243  22.119  33.110  12.074
70929W        W43244  13.167   0.412  10.946
70930W        W43245  42.027  11.810   2.185
70931W        W43246   5.901  29.136  14.954
70932W        W43247  24.066  37.077  13.415
70933W        W43248  43.453   8.258  12.871
70934W        W43249  36.991  36.077  13.361
70935W        W43250   1.252   9.196   2.216
70936W        W43251  31.635   2.724  12.005
70937W        W43252  35.547   1.444  11.935
70938W        W43253  38.832   7.695   4.347
70939W        W43254   4.825  27.067   2.310
70940W        W43255  24.175  27.125   1.421
70941W        W43256   9.853  16.610  10.426
70942W        W43257   2.408  34.460  14.873
70943W        W43258  39.809   1.752  11.896
70944W        W43259  25.015  36.511   1.320
70945W        W43260  38.952  42.983   1.858
70946W        W43261  25.674  19.185   1.748
70947W        W43262  35.070  25.668  11.083
70948W        W43263  38.460  12.122   4.815
70949W        W43264  37.865  34.021   0.346
70950W        W43265   3.715  28.108   2.887
70951W        W43266  10.316  39.345  13.895
70952W        W43267  26.071  22.711  12.903
70953W        W43268  40.394   4.711  14.794
70954W        W43269  15.610   9.817   4.833
70955W        W43270  28.454  25.032  13.898
70956W        W43271  38.540  35.013  12.572
70957W        W43272  18.776  15.245   0.352
70958W        W43273  41.819   3.421   1.411
70959W        W43274  14.157  36.997  14.023
70960W        W43275  38.041  21.104   1.312
70961W        W43276  22.709   3.337   3.689
70962W        W43277   1.303  20.529  14.404
70963W        W43278  29.109   5.720   4.788
70964W        W43279  14.330  39.335   2.680
70965W        W43280  28.447  32.463  12.465
70966W        W43281   5.304  16.310   2.676
70967W        W43282  20.578   6.788   0.827
70968W        W43283   9.172  24.701   4.246
70969W        W43284  26.207  40.348  12.919
70970W        W43285   0.260  19.747   1.271
70971W        W43286   9.376   4.756   0.432
70972W        W43287  30.517  21.106  12.888
70973W        W43288  18.729  40.484  11.545
70974W        W43289  13.265  11.280   3.672
70975W        W43290   1.908   4.285  11.603
70976W        W43291  20.605  42.975   2.814
70977W        W43292  27.684   1.807  12.539
70978W        W43293  28.065  44.466  11.110
70979W        W43294   1.253  33.440   1.768
70980W        W43295  26.546  20.644   2.347
70981W        W43296  16.577  44.263  10.442
70982W        W43297   3.749  40.865   4.783
70983W        W43298   3.451   5.312  12.387
70984W        W43299  14.123  25.511   1.304
70985W        W43300  28.560   1.843  11.985
70986W        W43301  23.002  18.726  13.921
70987W        W43302  38.952  32.074   3.796
70988W        W43303  17.686  41.822   4.764
70989W        W43304  36.007   8.716   0.268
70990W        W43305  42.952  35.553  14.358
70991W        W43306  10.219   9.686  13.878
70992W        W43307  36.516   3.214  11.524
70993W        W43308   3.356   7.323   1.897
70994W        W43309  44.969  22.158  12.891
70995W        W43310   2.472  21.232   3.794
70996W        W43311  27.004  32.921   2.375
70997W        W43312   9.649  30.489   4.161
70998W        W43313  30.935  22.153   3.261
70999W        W43314  41.410   1.258   2.767
71000W        W43315   0.946   3.932   0.282
71001W        W43316   3.216  37.564   3.385
71002W        W43317  11.366   3.891  14.405
71003W        W43318  38.993  21.064  13.925
71004W        W43319  31.574  42.295  12.994
71005W        W43320   4.398   0.356  10.496
71006W        W43321   4.444  15.290  14.975
71007W        W43322  25.155  27.553  14.016
71008W        W43323  18.730  12.259   4.227
71009W        W43324  17.698  26.002  12.972
71010W        W43325   9.355   2.424  14.360
71011W        W43326  31.939  18.142   3.242
71012W        W43327   8.296   0.841   3.150
71013W        W43328  31.996  30.635   2.234
71014W        W43329   6.697  10.144  10.048
71015W        W43330  28.620  35.566  13.406
71016W        W43331  16.811  22.740  10.469
71017W        W43332  26.565  40.433  13.466
71018W        W43333  14.615  21.074   2.183
71019W        W43334  16.636  27.124   1.883
71020W        W43335  30.995  16.750  13.393
71021W        W43336  17.119  35.550   4.609
71022W        W43337  16.216   3.854   0.274
71023W        W43338  30.997  41.518   4.753
71024W        W43339  19.089  18.786   1.764
71025W        W43340  34.554  31.063   1.790
71026W        W43341  41.843   7.886   2.805
71027W        W43342  32.550  10.278  14.453
71028W        W43343  11.247  13.347   1.912
71029W        W43344   1.428  14.286   3.741
71030W        W43345  10.659  14.272  13.817
71031W        W43346   8.267   3.334  12.404
71032W        W43347  21.125  41.332   0.888
71033W        W43348   6.369  43.999  12.049
71034W        W43349  25.005  30.464  10.607
71035W        W43350  42.468  21.728  14.768
71036W        W43351   9.256   9.367  10.626
71037W        W43352   6.742  29.635   0.751
71038W        W43353  24.010   7.901   3.836
71039W        W43354   9.793  26.074   3.150
71040W        W43355  32.597  21.529  13.344
71041W        W43356   8.804  19.100  11.465
71042W        W43357  36.881  11.197  11.547
71043W        W43358  13.285  24.137   3.839
71044W        W43359  43.782  16.302   1.348
71045W        W43360  40.921  27.655  11.587
71046W        W43361  28.966  43.776  10.986
71047W        W43362   3.895  13.249  14.935
71048W        W43363   6.306  35.991   9.963
71049W        W43364  29.615  14.633   2.228
71050W        W43365  40.846  16.298   1.406
71051W        W43366  27.680   2.451  13.430
71052W        W43367  12.362   8.300   2.232
71053W        W43368  40.431  25.632  14.993
71054W        W43369  21.040  44.473  13.425
71055W        W43370  33.490  39.976   1.372
71056W        W43371  18.147   0.369  12.885
71057W        W43372  28.171  39.557  12.480
71058W        W43373  25.504  40.529  11.419
71059W        W43374  25.663  41.882  11.565
71060W        W43375  35.890   0.852  11.462
71061W        W43376  23.103  43.472  12.477
71062W        W43377   0.941   8.288   0.330
71063W        W43378  23.121  30.108  12.825
71064W        W43379  39.963  11.625  14.325
71065W        W43380  37.565  31.103  14.409
71066W        W43381  20.568  41.377   2.417
71067W        W43382  20.568  17.146   2.730
71068W        W43383  35.013  14.749   0.324
71069W        W43384  44.842   6.707  13.838
71070W        W43385   4.447  17.760   2.367
71071W        W43386  38.895  38.467   1.361
71072W        W43387  30.556  10.329   4.676
71073W        W43388   8.720   5.347  14.879
71074W        W43389  24.094  10.211   9.933
71075W        W43390  23.637   1.977  10.469
71076W        W43391  24.113  14.338   4.681
71077W        W43392  44.834  15.614   1.890
71078W        W43393  17.572  12.224   3.863
71079W        W43394  34.419  43.376   4.313
71080W        W43395  37.350   3.229  14.288
71081W        W43396   6.218   7.405  12.980
71082W        W43397  35.437   9.300   3.807
71083W        W43398  35.882   0.355   4.338
71084W        W43399  23.505  21.665   1.255
71085W        W43400  29.015  31.951   4.700
71086W        W43401  12.317  20.037   1.210
71087W        W43402  10.314  21.189  10.890
71088W        W43403  30.527  26.009  14.901
71089W        W43404  39.898  19.566  11.121
71090W        W43405  32.102  24.175  10.469
71091W        W43406   0.744   7.303  10.070
71092W        W43407  29.579   4.746  11.491
71093W        W43408  17.620   4.244  13.505
71094W        W43409  18.096   8.829  10.434
71095W        W43410  19.757  42.526   1.332
71096W        W43411  38.012   3.774  14.848
71097W        W43412  12.244  32.941   2.367
71098W        W43413  34.951  37.385  12.894
71099W        W43414   3.921  18.211  13.057
71100W        W43415   8.202  31.437  12.484
71101W        W43416  41.419  18.722   0.829
71102W        W43417  28.135   3.297   3.341
71103W        W43418  13.776  26.635   0.727
71104W        W43419  23.180  36.045   1.424
71105W        W43420  33.879   3.901   0.428
71106W        W43421   0.271   2.899  10.454
71107W        W43422  31.142   5.399   3.266
71108W        W43423  38.901   5.764  10.422
71109W        W43424  26.954  24.631   3.697
71110W        W43425  20.159  24.152  14.768
71111W        W43426  31.964  15.319  14.440
71112W        W43427  42.782  35.602   3.636
71113W        W43428  22.021  36.946   0.439
71114W        W43429  26.978  34.420  10.901
71115W        W43430  15.175  44.898   4.324
71116W        W43431  24.205   7.764  12.352
71117W        W43432  19.684  36.995   3.226
71118W        W43433  22.034  19.227   3.711
71119W        W43434  26.504  13.318   3.630
71120W        W43435  18.682   8.756   1.287
71121W        W43436  10.205  27.130   2.732
71122W        W43437   4.381  30.430   1.773
71123W        W43438   9.828  19.687  14.977
71124W        W43439  24.004   9.214  13.518
71125W        W43440  29.137   4.805  13.447
71126W        W43441  32.113  26.646  14.275
71127W        W43442   5.927  41.473  14.289
71128W        W43443   4.434   8.739  11.025
71129W        W43444   5.795  25.534   0.933
71130W        W43445  27.034   2.728  11.879
71131W        W43446  35.094  39.360   1.891
71132W        W43447  25.663   6.303   1.296
71133W        W43448  34.592  19.225  12.396
71134W        W43449  21.603  32.601   4.700
71135W        W43450  24.652   0.370  11.445
71136W        W43451  40.428  38.937   2.268
71137W        W43452  37.088   8.303   4.701
71138W        W43453  25.512  37.870   2.267
71139W        W43454  14.125  41.830   5.083
71140W        W43455  35.906   7.736   2.309
71141W        W43456  22.590  23.030   0.322
71142W        W43457   8.725  33.923  12.838
71143W        W43458  16.624  39.432  11.545
71144W        W43459  20.166   6.804  11.482
71145W        W43460  41.403  42.358   4.615
71146W        W43461  21.071  22.707   1.398
71147W        W43462  42.003  44.771  13.351
71148W        W43463   4.287  27.000  14.906
71149W        W43464  16.767   1.810  13.884
71150W        W43465  33.027  32.578   0.403
71151W        W43466  12.720  27.660   1.338
71152W        W43467  22.222  42.960   1.867
71153W        W43468  31.480  24.656  13.859
71154W        W43469  28.460  20.639   1.422
71155W        W43470  39.864  41.893  11.420
71156W        W43471  27.075   1.398  14.941
71157W        W43472  38.838  23.569   5.182
71158W        W43473  16.310  42.811   1.737
71159W        W43474  38.563  29.624   4.310
71160W        W43475  39.969  19.235  12.525
71161W        W43476  36.845   2.945  14.442
71162W        W43477  42.388  24.012   2.837
71163W        W43478  22.708  11.245  12.010
71164W        W43479   2.323   8.891   1.396
71165W        W43480  30.033  29.063  13.979
71166W        W43481  12.845  43.421   0.868
71167W        W43482  35.870  36.035   0.908
71168W        W43483  35.067  28.943   0.938
71169W        W43484   0.373  23.591  12.984
71170W        W43485  37.039  11.628  11.013
71171W        W43486   0.778  31.012   1.299
71172W        W43487  22.681  10.707  13.826
71173W        W43488  38.452  38.375   3.386
71174W        W43489  24.486   8.350   0.256
71175W        W43490   2.803  35.077  13.055
71176W        W43491  14.306  15.167   1.378
71177W        W43492  15.586  36.989  14.833
71178W        W43493  37.522  41.504  14.385
71179W        W43494  29.094  13.180   0.437
71180W        W43495  15.712  24.647   2.221
71181W        W43496  21.578  29.596   1.715
71182W        W43497  29.988  20.729   2.257
71183W        W43498  25.025  25.147  10.957
71184W        W43499  43.974   9.268   2.182
71185W        W43500  40.998  23.498   0.889
71186W        W43501  41.875  10.748  12.945
71187W        W43502  43.349  15.723   1.748
71188W        W43503   3.394  39.347   2.178
71189W        W43504   8.241  29.454   1.850
71190W        W43505  31.421  39.344  14.491
71191W        W43506  25.059   2.231  11.412
71192W        W43507  39.413  26.177   0.347
71193W        W43508  31.444  36.449   0.908
71194W        W43509   6.209  11.836   1.874
71195W        W43510  40.941   5.929   4.722
71196W        W43511  33.998  17.229   4.669
71197W        W43512  39.534  22.725  14.956
71198W        W43513   1.851  24.174   2.704
71199W        W43514  18.237   7.728   1.331
71200W        W43515  30.612  14.118   3.354
71201W        W43516  15.763  19.081  12.957
71202W        W43517  41.307  26.118  12.084
71203W        W43518   2.922  28.027  11.883
71204W        W43519   0.275  17.117  11.471
71205W        W43520   3.842  42.917   4.345
71206W        W43521  34.038  22.523   4.819
71207W        W43522  38.904  12.671  12.983
71208W        W43523   1.804   3.738  13.375
71209W        W43524  38.058   7.721   2.709
71210W        W43525  31.989  44.955   3.334
71211W        W43526   5.218  33.429   1.761
71212W        W43527  30.085  14.790  11.412
71213W        W43528  33.976  32.466   1.910
71214W        W43529   2.356  43.962  12.522
71215W        W43530  26.610  10.694   0.267
71216W        W43531  35.984  30.637  10.422
71217W        W43532  24.586   4.887  12.493
71218W        W43533  36.378   5.693  11.875
71219W        W43534   2.389   5.878   2.798
71220W        W43535  41.956  42.866   0.811
71221W        W43536  23.673  12.714   2.773
71222W        W43537  37.430  25.558  13.797
71223W        W43538  42.297  11.860   4.290
71224W        W43539   4.304  36.512   3.330
71225W        W43540   1.269  37.954   0.740
71226W        W43541   8.181  10.342   1.860
71227W        W43542  27.473  12.739  13.942
71228W        W43543   6.733  43.998   2.271
71229W        W43544  34.969  42.502  12.864
71230W        W43545  16.629  22.654   1.359
71231W        W43546  34.505  21.080   2.710
71232W        W43547   7.675  36.007   5.139
71233W        W43548  39.051  38.911   4.660
71234W        W43549   5.793  42.402  13.507
71235W        W43550   3.232  42.945   4.764
71236W        W43551  33.003  20.145   2.885
71237W        W43552  12.124  32.988  12.437
71238W        W43553  28.558  26.462  12.509
71239W        W43554  15.127  18.227   4.674
71240W        W43555   9.784  13.105   2.902
71241W        W43556  19.631   0.786   0.259
71242W        W43557  38.843  44.993   4.227
71243W        W43558  18.252  38.842  11.093
71244W        W43559  21.749  22.014   4.321
71245W        W43560  22.212  42.461   3.176
71246W        W43561  38.513  13.168   1.316
71247W        W43562  10.790   6.757   4.311
71248W        W43563  34.894  30.561   0.257
71249W        W43564   8.833   0.949  10.410
71250W        W43565   8.822  20.569  11.417
71251W        W43566  24.556   1.310   0.911
71252W        W43567  19.078  22.740   2.808
71253W        W43568  37.391  32.886   2.344
71254W        W43569  29.576  19.651  12.024
71255W        W43570  41.884  37.958   0.304
71256W        W43571  28.998   6.868   2.194
71257W        W43572   4.884  19.164   1.731
71258W        W43573  44.001  29.970  11.083
71259W        W43574   4.421  29.454  14.002
71260W        W43575  25.707   3.456  13.493
71261W        W43576   5.901  35.557  11.524
71262W        W43577  36.985  44.770  14.498
71263W        W43578  14.761   3.270  12.391
71264W        W43579   7.401  37.848  10.595
71265W        W43580   3.845  24.546   2.357
71266W        W43581  15.224  18.619  10.427
71267W        W43582   6.715  24.019  12.373
71268W        W43583  38.464   8.681  11.892
71269W        W43584  24.534  37.498   4.346
71270W        W43585   1.422  35.984  14.032
71271W        W43586   8.709  22.013   4.270
71272W        W43587   1.737  30.987  12.011
71273W        W43588  34.970   4.291   2.290
71274W        W43589  44.841  23.504   3.652
71275W        W43590  37.064  44.476   9.980
71276W        W43591  42.803   7.353   2.705
71277W        W43592  30.634   8.373   3.286
71278W        W43593   9.767  16.236  12.926
71279W        W43594   9.255  23.570  12.556
71280W        W43595  40.411  28.059  13.919
71281W        W43596  39.458   1.292  11.399
71282W        W43597  30.059  24.616  11.019
71283W        W43598  41.832  11.791   4.601
71284W        W43599  12.271   1.312  12.068
71285W        W43600  12.677  24.227  11.988
71286W        W43601  25.486  40.947   0.866
71287W        W43602  17.226  25.969   1.345
71288W        W43603  18.612   0.974   3.835
71289W        W43604  28.134  11.234   2.863
71290W        W43605  39.403  14.734   1.400
71291W        W43606  36.989  27.576   3.774
71292W        W43607   3.260  13.139   4.134
71293W        W43608  24.010  26.613  12.067
71294W        W43609  26.204   3.923   0.748
71295W        W43610  13.257  21.200  14.814
71296W        W43611  42.374  25.593  10.974
71297W        W43612  20.694  22.179   1.436
71298W        W43613  27.446  43.841   2.251
71299W        W43614  41.317  17.306   1.232
71300W        W43615  17.169  30.560   0.953
71301W        W43616  26.522  21.197   2.260
71302W        W43617  30.570  40.522   1.368
71303W        W43618  32.116  34.487   2.790
71304W        W43619   4.446  41.825   3.689
71305W        W43620  20.636  40.352   4.675
71306W        W43621  16.599  27.625   9.934
71307W        W43622  37.954  16.661   2.351
71308W        W43623  43.873  37.984  12.497
71309W        W43624  43.846  12.854   0.258
71310W        W43625  44.279  31.002   2.791
71311W        W43626  40.484  21.696   3.649
71312W        W43627   2.730  28.997   2.289
71313W        W43628  30.578  14.106   0.748
71314W        W43629   0.459   1.892   0.276
71315W        W43630  25.051  14.110   0.307
71316W        W43631  27.049  16.208   1.764
71317W        W43632  17.649  38.950   5.156
71318W        W43633   8.820  13.228   3.295
71319W        W43634  29.568  14.125  10.927
71320W        W43635  10.767  30.042  13.350
71321W        W43636  32.957  11.128   4.311
71322W        W43637  37.346  21.517   0.910
71323W        W43638  16.672  38.968  10.457
71324W        W43639  15.686  36.023  11.524
71325W        W43640  29.168   4.299  12.369
71326W        W43641   0.938  11.182  11.050
71327W        W43642  24.213  13.291   5.288
71328W        W43643  10.741  44.437  13.387
71329W        W43644  43.976  32.034   0.781
71330W        W43645   7.288  18.594  12.526
71331W        W43646  12.733  23.068  10.891
71332W        W43647  34.480  33.436   3.671
71333W        W43648   9.660  10.832  11.912
71334W        W43649  24.145  23.086  11.870
71335W        W43650  39.024  23.648   4.740
71336W        W43651  43.967  41.979  13.001
71337W        W43652  28.543  31.053  12.513
71338W        W43653  37.474  14.736  11.374
71339W        W43654  12.140   2.868  13.015
71340W        W43655   5.739  23.033  12.017
71341W        W43656  25.597   6.914   2.352
71342W        W43657   7.228   3.348  11.955
71343W        W43658  14.206  26.595   0.357
71344W        W43659   3.236  27.594   4.117
71345W        W43660   7.707   2.429   1.917
71346W        W43661  34.118  31.911  11.475
71347W        W43662  28.938  35.495   0.356
71348W        W43663   7.411  16.649  14.775
71349W        W43664  13.116  12.775   9.978
71350W        W43665  33.502   3.727  13.842
71351W        W43666  30.074  40.542   0.885
71352W        W43667  37.374  37.566  10.091
71353W        W43668  11.688  15.129  11.965
71354W        W43669  33.503  22.724   5.228
71355W        W43670  27.106  24.041   1.407
71356W        W43671   1.415  15.134  13.526
71357W        W43672  10.765  31.523  14.336
71358W        W43673   3.310  14.223   4.645
71359W        W43674  13.712   6.324  14.478
71360W        W43675  21.588   5.295  12.442
71361W        W43676  29.972  23.712   2.196
71362W        W43677  34.021  32.139   0.342
71363W        W43678  10.355   2.778   4.239
71364W        W43679  25.196   5.789  10.090
71365W        W43680  39.836  17.074  12.381
71366W        W43681  39.033   0.900   0.435
71367W        W43682  12.266  38.426  10.471
71368W        W43683  19.209   8.866  14.344
71369W        W43684  39.515  18.286  13.444
71370W        W43685  17.136  31.970  10.117
71371W        W43686  28.149  35.083  14.796
71372W        W43687  24.205  44.483   3.826
71373W        W43688  14.713  27.016  11.526
71374W        W43689   9.723  26.047  10.969
71375W        W43690  41.486  42.941  13.930
71376W        W43691  29.112  19.603  13.377
71377W        W43692   9.239  31.946   0.425
71378W        W43693   7.216  40.371  10.458
71379W        W43694  13.133  41.458   2.357
71380W        W43695  28.488  36.033   2.858
71381W        W43696   7.278  22.528  11.451
71382W        W43697  33.598  22.219   2.854
71383W        W43698  21.210  42.978   9.939
71384W        W43699  29.566  22.514   3.672
71385W        W43700  17.263  40.828   2.192
71386W        W43701   0.258  26.516  12.493
71387W        W43702   2.921  35.485   5.198
71388W        W43703  29.026  42.007   1.409
71389W        W43704  25.681  13.187   1.740
71390W        W43705   4.331  35.597  10.454
71391W        W43706  42.933  11.146   1.784
71392W        W43707  20.676  17.568  11.951
71393W        W43708  16.571   8.240   1.849
71394W        W43709  23.577  34.872   1.785
71395W        W43710   3.930  11.359  13.960
71396W        W43711  22.178  35.035   2.416
71397W        W43712  27.461  26.981   3.701
71398W        W43713   0.476  16.088  12.883
71399W        W43714  42.874  28.066  12.895
71400W        W43715  37.020  23.630   4.272
71401W        W43716  32.461  35.950   3.328
71402W        W43717  20.704  36.912   1.272
71403W        W43718  42.006  43.915  14.886
71404W        W43719  39.946  37.982  13.917
71405W        W43720  15.093  12.140  13.981
71406W        W43721   5.407  21.134  12.921
71407W        W43722  22.506  33.438  14.926
71408W        W43723  44.813  38.378   3.828
71409W        W43724  38.828  18.784  10.977
71410W        W43725   5.888  43.938  11.970
71411W        W43726  29.090  34.078   3.151
71412W        W43727  35.060  30.064  11.061
71413W        W43728  42.008  30.926   4.181
71414W        W43729  27.147  35.874   3.660
71415W        W43730  23.503  43.387   4.172
71416W        W43731  43.898  21.561   0.420
71417W        W43732  19.618   7.702  10.634
71418W        W43733  37.343   8.185   2.774
71419W        W43734  30.469  14.149   1.931
71420W        W43735  25.001  13.204  10.491
71421W        W43736  11.301  17.743  12.090
71422W        W43737  16.228  37.528   3.812
71423W        W43738  11.330  34.440  13.354
71424W        W43739  31.033  15.090  14.294
71425W        W43740  44.347  26.148  10.899
71426W        W43741  10.668  31.118   1.371
71427W        W43742  32.887   4.918   2.687
71428W        W43743   4.702  37.394   0.952
71429W        W43744  12.783  19.637  11.948
71430W        W43745  36.577   0.809  11.390
71431W        W43746  11.861  38.840   4.132
71432W        W43747  34.943  30.031  11.447
71433W        W43748  39.852  36.376   1.867
71434W        W43749  24.018  12.659  11.970
71435W        W43750  43.493  42.302  14.999
71436W        W43751  39.394  12.753   2.179
71437W        W43752   7.805  43.934  12.005
71438W        W43753  29.561  42.519   0.457
71439W        W43754   4.915   1.835   0.435
71440W        W43755  20.148  10.780  10.636
71441W        W43756  25.052  19.227  11.604
71442W        W43757  18.177  27.552   1.283
71443W        W43758  28.100   8.201   0.824
71444W        W43759  33.491   3.251  10.071
71445W        W43760  20.640   8.217   3.867
71446W        W43761  10.735  16.104   9.492
71447W        W43762  38.451   1.373   0.347
71448W        W43763   9.234  18.101   1.261
71449W        W43764  40.847  25.095   4.636
71450W        W43765  20.170   6.918   0.305
71451W        W43766   1.767   5.790   2.304
71452W        W43767  29.146   9.231   4.728
71453W        W43768  32.023  21.205  13.838
71454W        W43769  34.438  21.221  13.929
71455W        W43770   1.897  16.701  12.865
71456W        W43771  34.508  30.652   1.760
71457W        W43772  37.580   7.392  10.504
71458W        W43773  42.024   4.802   2.276
71459W        W43774  26.689  23.064  12.880
71460W        W43775  15.184  25.168  10.932
71461W        W43776  10.735   3.334   1.823
71462W        W43777  25.191   2.784  11.945
71463W        W43778  32.455  36.989   3.243
71464W        W43779  27.582  37.942  13.975
71465W        W43780  19.134  10.727  13.453
71466W        W43781  41.356  28.996   2.403
71467W        W43782   5.402  38.485  14.496
71468W        W43783  36.961   1.405  11.910
71469W        W43784  14.315  38.930  11.971
71470W        W43785  29.018  34.967  12.955
71471W        W43786  28.182  40.541   3.746
71472W        W43787   4.260  37.451   3.843
71473W        W43788  20.239   9.188   0.337
71474W        W43789  26.962  22.513  10.093
71475W        W43790  12.342  22.119  14.381
71476W        W43791  35.969   5.818  13.969
71477W        W43792   6.392  20.197  11.122
71478W        W43793  41.363  40.950  14.800
71479W        W43794  44.326  22.215   2.744
71480W        W43795   2.891  10.347   4.806
71481W        W43796  42.887  32.522   2.297
71482W        W43797  14.105   0.955  14.505
71483W        W43798  33.053  34.977  14.318
71484W        W43799   6.407   2.905  14.355
71485W        W43800  41.386  16.703   1.759
71486W        W43801  19.083  29.664  13.058
71487W        W43802  36.003   1.393   2.737
71488W        W43803   6.293  28.178  13.910
71489W        W43804   3.832  37.560   3.723
71490W        W43805  34.495  23.205   1.218
71491W        W43806  16.262  11.167  14.513
71492W        W43807  27.660  42.385   3.375
71493W        W43808  44.835  18.165   3.684
71494W        W43809  21.671   9.270   2.736
71495W        W43810  16.123  27.028   0.932
71496W        W43811  11.841  14.743  12.456
71497W        W43812  11.192  20.137   3.165
71498W        W43813   6.272  44.425  11.078
71499W        W43814  34.567  11.257  14.348
71500W        W43815  43.284  31.969  10.572
71501W        W43816   3.858   4.715  10.956
71502W        W43817  40.378  14.226   2.884
71503W        W43818   1.322   1.394  12.537
71504W        W43819   8.848  33.594  12.991
71505W        W43820   1.886  10.178   2.777
71506W        W43821  13.608  12.237   2.360
71507W        W43822  28.464   7.815  11.389
71508W        W43823   3.376  22.165  12.046
71509W        W43824  15.117  11.343   3.703
71510W        W43825   1.880  21.135   1.316
71511W        W43826  24.498   2.869  13.877
71512W        W43827   7.790  38.065  10.417
71513W        W43828  19.644   7.397   3.233
71514W        W43829  24.189  16.203  12.443
71515W        W43830  37.945  40.944   2.250
71516W        W43831  34.380   4.416  11.067
71517W        W43832  34.434  40.014  13.346
71518W        W43833  22.689   0.915  12.969
71519W        W43834  25.114  18.164  13.818
71520W        W43835   5.435  33.055  10.580
71521W        W43836  44.779  19.087  12.517
71522W        W43837  10.375  34.612  10.009
71523W        W43838  35.950  33.068  12.903
71524W        W43839  32.117  28.186  14.415
71525W        W43840  25.618   4.761   1.929
71526W        W43841  27.108  15.222   1.395
71527W        W43842  16.733  30.075   0.406
71528W        W43843  24.046  14.631  12.006
71529W        W43844  41.450  39.867   2.747
71530W        W43845  23.116   9.820   2.359
71531W        W43846  14.784  40.360   0.856
71532W        W43847  34.441   4.414  11.925
71533W        W43848  30.447   2.263  14.503
71534W        W43849  21.732  20.195   2.861
71535W        W43850   6.380  11.712  12.951
71536W        W43851  14.733  11.706  10.619
71537W        W43852  35.887   0.809  14.935
71538W        W43853  33.403  10.727   0.311
71539W        W43854  19.090   7.220   4.118
71540W        W43855   1.400  26.670  13.863
71541W        W43856  39.523  17.714  11.957
71542W        W43857  22.996  24.021   3.786
71543W        W43858  30.008  32.090   1.708
71544W        W43859  35.534   6.744  14.886
71545W        W43860  38.477  31.085   4.175
71546W        W43861  40.918  12.621   3.238
71547W        W43862  19.284  28.077  13.058
71548W        W43863  17.642  20.722  11.527
71549W        W43864  23.689  19.711  11.054
71550W        W43865  23.129  28.487  14.023
71551W        W43866  37.404   0.964  14.994
71552W        W43867  14.807   3.912   1.887
71553W        W43868  32.440  32.467   3.347
71554W        W43869  43.793  15.743   4.722
71555W        W43870   9.818  35.896  12.528
71556W        W43871  19.664  19.778   3.859
71557W        W43872  25.507  40.964   2.360
71558W        W43873  15.153  23.033   0.954
71559W        W43874  34.982  40.445   3.778
71560W        W43875  33.430   3.267  14.516
71561W        W43876  12.831   9.394  11.559
71562W        W43877  18.089  18.772   2.755
71563W        W43878  29.663  22.604   1.384
71564W        W43879  30.071  36.060  13.056
71565W        W43880  29.088  37.981  13.427
71566W        W43881  18.054   8.220  10.628
71567W        W43882  18.249   2.357   4.609
71568W        W43883  17.746   2.949   0.386
71569W        W43884  32.598  26.203   3.825
71570W        W43885   6.255  42.881   4.236
71571W        W43886  25.962  26.513  11.127
71572W        W43887  22.222  25.150   4.192
71573W        W43888  44.889  42.377  12.933
71574W        W43889  38.929  19.668  11.970
71575W        W43890  38.565  38.385  13.955
71576W        W43891  32.065  19.145  14.445
71577W        W43892   7.223  38.568   4.826
71578W        W43893  14.790   2.918   4.751
71579W        W43894   7.412  38.374  13.332
71580W        W43895  31.111  18.664   1.356
71581W        W43896   4.918  35.083   2.903
71582W        W43897  39.924   4.912   4.606
71583W        W43898  10.760  28.503   0.394
71584W        W43899  43.817  11.207   4.797
71585W        W43900  23.648  11.693  12.864
71586W        W43901  15.204  28.973   9.581
71587W        W43902  43.842  15.327   1.308
71588W        W43903  12.128   4.219   2.672
71589W        W43904  38.903  37.892   2.257
71590W        W43905  41.341  15.245  14.991
71591W        W43906  26.610   4.745  12.527
71592W        W43907  11.691  34.975   4.198
71593W        W43908  32.516  10.762  11.966
71594W        W43909  36.851  37.932  11.373
71595W        W43910  11.261  24.622   0.321
71596W        W43911  18.253  13.209  12.489
71597W        W43912  26.181  28.073   1.715
71598W        W43913  23.611  26.098   3.764
71599W        W43914  28.531  33.587  13.444
71600W        W43915  17.234  40.861   2.859
71601W        W43916  10.848  24.524  10.930
71602W        W43917   7.246  32.116  13.424
71603W        W43918  43.318   5.263  11.116
71604W        W43919   3.231  15.089   4.654
71605W        W43920  25.631  44.978   3.731
71606W        W43921  24.106  30.642   1.836
71607W        W43922  31.542  11.188   2.847
71608W        W43923  13.215  28.669  13.395
71609W        W43924  11.356  20.564  12.914
71610W        W43925   9.835  31.912  12.372
71611W        W43926   6.850  41.369  10.414
71612W        W43927  26.462   7.279   4.300
71613W        W43928   4.318  37.494  12.460
71614W        W43929  22.638  29.453  11.520
71615W        W43930  10.379  27.634   4.698
71616W        W43931   3.299  16.104   4.245
71617W        W43932  11.178  33.522   3.148
71618W        W43933   8.193  39.965  12.505
71619W        W43934  41.404   9.822   2.795
71620W        W43935   3.378  21.064  14.012
71621W        W43936  28.054  10.835  10.892
71622W        W43937  20.697   9.324   2.216
71623W        W43938  33.084  22.623  10.932
71624W        W43939  42.487  42.311   3.840
71625W        W43940  16.755   4.249   2.784
71626W        W43941  36.427  14.248  12.989
71627W        W43942  31.902  36.077   0.461
71628W        W43943  16.176  19.702  11.392
71629W        W43944  41.900  17.595  11.009
71630W        W43945  31.001  40.538   1.833
71631W        W43946  44.857  24.225  11.127
71632W        W43947  36.407   5.282   2.272
71633W        W43948  30.908  30.593   5.143
71634W        W43949   7.411  20.164   1.322
71635W        W43950   1.739  19.064  12.538
71636W        W43951   8.232   2.349  13.875
71637W        W43952   5.867   9.691   3.263
71638W        W43953  36.069  33.985  10.462
71639W        W43954  20.675   4.319  14.415
71640W        W43955  21.632  28.016  10.940
71641W        W43956  19.557  21.584  13.318
71642W        W43957  33.926  40.023   0.294
71643W        W43958  25.518  28.463  11.023
71644W        W43959  23.607   8.304  12.449
71645W        W43960   3.865  29.594  10.480
71646W        W43961  40.028  26.121   3.638
71647W        W43962  38.878  17.216  12.009
71648W        W43963  17.794   4.767   4.744
71649W        W43964  39.484  39.903   3.342
71650W        W43965  15.819   5.732   3.808
71651W        W43966   7.700  13.229  13.863
71652W        W43967  41.026   5.304   4.814
71653W        W43968  34.051   9.216   1.784
71654W        W43969  15.228   6.747   2.256
71655W        W43970  10.873   0.982  13.392
71656W        W43971  10.670  15.233   2.812
71657W        W43972  43.004  39.378   3.853
71658W        W43973   3.789   7.819  12.438
71659W        W43974  25.025  28.936  14.850
71660W        W43975  43.953   7.901   3.670
71661W        W43976  31.646   0.490   3.791
71662W        W43977  42.286  21.545   0.806
71663W        W43978  14.169   2.784   3.823
71664W        W43979  30.488  34.943   2.700
71665W        W43980  39.541  41.303  14.350
71666W        W43981  17.070  23.150  13.339
71667W        W43982  39.827  18.751  12.497
71668W        W43983  29.009  26.585   0.273
71669W        W43984  32.009  29.644  14.025
71670W        W43985   8.193  31.515   0.755
71671W        W43986   5.345  21.045  10.412
71672W        W43987  31.096   6.771   1.228
71673W        W43988  12.628  43.948   4.193
71674W        W43989  44.895  34.499   4.113
71675W        W43990  35.527  38.047  12.354
71676W        W43991  41.799  34.036   0.370
71677W        W43992  35.507  35.409   2.810
71678W        W43993  16.105  19.091   2.695
71679W        W43994  34.579  32.591  13.432
71680W        W43995  43.823  36.894  10.568
71681W        W43996  40.045   2.868   4.262
71682W        W43997  12.283  22.169  11.897
71683W        W43998  30.105  35.858   0.349
71684W        W43999  27.159  24.078  12.861
71685W        W44000  34.018   7.700   1.907
71686W        W44001  19.742   9.175   2.713
71687W        W44002   5.860   0.765   3.175
71688W        W44003  38.903  28.604  11.559
71689W        W44004   9.305  32.963  13.474
71690W        W44005  41.474  19.758  10.468
71691W        W44006  26.470  33.881  12.434
71692W        W44007  18.096  42.433   1.836
71693W        W44008   4.730  32.947   1.851
71694W        W44009   8.170  12.650  14.798
71695W        W44010  42.837  21.083  14.356
71696W        W44011   8.901  35.040   3.367
71697W        W44012  43.294  24.701   1.765
71698W        W44013  22.018  27.461  14.795
71699W        W44014   3.404  25.194   2.383
71700W        W44015  35.101  31.449  14.762
71701W        W44016   1.870   1.419   1.713
71702W        W44017  28.567   6.922   1.875
71703W        W44018  16.167   2.891   1.396
71704W        W44019  31.036   3.253   3.307
71705W        W44020  26.655  15.757  11.977
71706W        W44021  10.337  14.757  14.298
71707W        W44022  32.504  30.438  12.044
71708W        W44023  33.912   3.288   1.886
71709W        W44024  38.517  43.440   0.915
71710W        W44025   1.884  25.088   0.422
71711W        W44026  11.754   9.759  10.954
71712W        W44027  25.570  32.117  12.578
71713W        W44028  11.293   7.276  13.367
71714W        W44029  19.731  39.482   0.472
71715W        W44030  24.122   5.911   1.805
71716W        W44031  26.574  13.125  13.913
71717W        W44032   1.775  32.039   2.212
71718W        W44033  19.605  40.534  11.110
71719W        W44034  25.608  14.249   2.349
71720W        W44035  21.698   6.855  12.557
71721W        W44036  14.681   6.772   2.680
71722W        W44037  36.520  12.255   4.295
71723W        W44038  40.046  14.148   1.841
71724W        W44039  26.587   3.248  14.446
71725W        W44040  10.775  14.700   1.743
71726W        W44041  32.924   7.837  14.936
71727W        W44042  35.026   8.763  14.980
71728W        W44043  18.682  34.420  12.465
71729W        W44044  27.613  16.772  13.398
71730W        W44045  29.521  37.040   1.729
71731W        W44046  36.513  11.780   1.390
71732W        W44047  12.632  30.939   4.207
71733W        W44048  31.110  15.663   2.702
71734W        W44049  13.111  20.080  10.513
71735W        W44050  20.090  16.590   0.350
71736W        W44051  12.678  44.466   4.350
71737W        W44052   8.717  25.144  11.519
71738W        W44053  42.854  18.702  11.872
71739W        W44054   0.872  38.529  14.514
71740W        W44055  24.654  16.777   4.126
71741W        W44056  41.366  35.410   2.284
71742W        W44057  10.779   2.938   4.185
71743W        W44058   4.328  43.933  11.043
71744W        W44059   5.288   6.821   0.277
71745W        W44060  16.782  16.716  10.560
71746W        W44061  29.569  19.699   3.840
71747W        W44062  39.878  32.083   4.763
71748W        W44063   1.934  15.085   2.268
71749W        W44064  44.368   5.323  14.788
71750W        W44065  30.512  17.184   0.246
71751W        W44066  29.169  10.812  12.940
71752W        W44067   5.328   3.435  14.896
71753W        W44068  10.846  25.640   3.781
71754W        W44069  27.585  38.840   2.851
71755W        W44070  42.796  39.480  12.471
71756W        W44071  18.135  15.187   0.445
71757W        W44072  38.395  18.174  14.392
71758W        W44073  34.114  19.751  11.100
71759W        W44074  35.099  37.396  14.891
71760W        W44075  13.258   1.823  13.018
71761W        W44076  37.489  30.619   3.265
71762W        W44077   8.674  23.609  12.897
71763W        W44078  26.106  33.406  12.360
71764W        W44079  39.882   7.729   2.334
71765W        W44080  42.914  40.010  14.319
71766W        W44081   3.811  31.069   0.433
71767W        W44082  13.240   9.245   1.412
71768W        W44083  18.599  27.128   2.733
71769W        W44084  11.164  17.244   3.687
71770W        W44085  37.994  32.968   0.846
71771W        W44086   0.916  12.665  10.122
71772W        W44087  32.407  28.580   4.659
71773W        W44088  18.684  12.624  14.326
71774W        W44089   3.447   7.208   2.839
71775W        W44090  38.930  34.394   0.898
71776W        W44091  29.582   8.377  12.844
71777W        W44092  34.607  44.769  12.479
71778W        W44093  28.168  23.162  14.857
71779W        W44094  31.548  23.139  11.466
71780W        W44095   6.692  35.006  12.009
71781W        W44096  29.154   3.722   3.729
71782W        W44097   3.926   8.277   3.202
71783W        W44098   6.265  26.008  12.847
71784W        W44099  41.846  33.443  11.866
71785W        W44100  35.478   3.744   1.230
71786W        W44101  41.793  24.014   4.768
71787W        W44102  36.482   6.236   4.814
71788W        W44103  42.818  12.205   2.181
71789W        W44104  25.588  15.185  12.427
71790W        W44105  42.883   7.336  11.029
71791W        W44106  18.064  30.458  10.513
71792W        W44107  34.588  14.627   3.380
71793W        W44108   9.221  30.004   1.415
71794W        W44109  42.779  39.326   2.266
71795W        W44110  31.641  15.628  10.001
71796W        W44111  14.319  19.244   1.918
71797W        W44112  31.605  18.739   2.743
71798W        W44113  33.547  44.426   0.947
71799W        W44114  25.529  35.876  12.347
71800W        W44115  24.704  34.020  12.494
71801W        W44116   4.762  30.540  12.468
71802W        W44117  22.161  39.836  13.401
71803W        W44118   2.818  24.185   2.665
71804W        W44119  18.608  13.728  13.335
71805W        W44120  41.984  19.636  13.818
71806W        W44121  44.973   9.353   3.732
71807W        W44122  41.023   9.799  14.433
71808W        W44123  19.622  35.548  14.986
71809W        W44124  14.103  31.588   4.200
71810W        W44125  34.931  31.582  11.374
71811W        W44126  18.087   5.791  12.066
71812W        W44127  24.575   5.853  14.812
71813W        W44128  30.556  29.593  11.510
71814W        W44129  19.755  16.202   2.223
71815W        W44130   9.739   2.352  13.466
71816W        W44131  15.813  21.028  11.084
71817W        W44132  28.025  34.894  11.577
71818W        W44133   9.371   7.342   5.285
71819W        W44134  36.047  42.503  13.349
71820W        W44135  26.073  30.446  14.848
71821W        W44136  13.105   6.302   2.293
71822W        W44137  40.548  25.138  11.555
71823W        W44138   6.753   7.313  10.904
71824W        W44139  36.917  26.982  10.969
71825W        W44140  10.799   1.426  14.430
71826W        W44141   8.654  44.761   4.598
71827W        W44142  16.124   5.295   4.722
71828W        W44143   1.470  28.619  12.920
71829W        W44144  24.650  17.580  14.320
71830W        W44145   4.800  44.366  14.380
71831W        W44146  14.652  30.571  11.554
71832W        W44147  35.488  25.050  11.429
71833W        W44148  20.609  10.638  13.942
71834W        W44149  21.018  37.087  11.585
71835W        W44150   5.306   4.852  12.435
71836W        W44151   2.944  21.534  12.548
71837W        W44152  17.067  26.491   2.677
71838W        W44153   0.248  43.500  14.857
71839W        W44154  12.263  14.233  11.115
71840W        W44155  30.527  39.863   1.230
71841W        W44156  14.825  21.153  14.927
71842W        W44157  16.196  10.299  14.490
71843W        W44158  22.192  26.152  11.990
71844W        W44159   4.227   0.985   2.889
71845W        W44160  43.819  37.053  12.997
71846W        W44161  18.655  44.869  12.580
71847W        W44162  35.380  29.485  12.557
71848W        W44163  38.458  11.222  10.478
71849W        W44164  16.227  21.706   4.126
71850W        W44165  24.685  42.433   3.726
71851W        W44166   8.204  36.920   1.709
71852W        W44167  16.282  43.018   4.286
71853W        W44168  26.538  44.306  11.881
71854W        W44169  21.208  32.129   0.482
71855W        W44170  34.875  15.114  12.073
71856W        W44171  13.629  14.253   4.120
71857W        W44172   7.389  23.022   4.294
71858W        W44173  39.338  26.206  12.983
71859W        W44174   6.692  37.565  14.782
71860W        W44175   6.256  31.043   0.930
71861W        W44176   6.255  18.057   4.221
71862W        W44177  43.820  28.636   0.793
71863W        W44178   3.420   5.374  12.924
71864W        W44179  33.046   6.258   1.376
71865W        W44180  43.271  36.486   4.818
71866W        W44181  37.362  18.193   1.347
71867W        W44182  12.684  35.437   0.937
71868W        W44183  16.598  20.576   3.147
71869W        W44184  36.934  39.957  13.814
71870W        W44185  40.310  15.677  11.065
71871W        W44186  20.549  15.257   4.732
71872W        W44187  13.621  32.529   3.326
71873W        W44188  26.516   3.726   1.269
71874W        W44189   1.317  14.165  11.040
71875W        W44190   3.401  14.340  13.475
71876W        W44191   2.817  14.176   3.669
71877W        W44192  16.145   7.385  13.867
71878W        W44193  20.643  25.015   2.854
71879W        W44194  10.837  20.647   4.195
71880W        W44195  27.114  12.339  14.019
71881W        W44196  28.026   0.428  12.949
71882W        W44197  31.633  43.830   2.779
71883W        W44198   1.784  34.992   4.812
71884W        W44199  44.966  30.969  10.620
71885W        W44200   9.363  28.027   3.781
71886W        W44201  39.468  17.199   4.250
71887W        W44202  42.426   2.765   4.143
71888W        W44203  42.513  31.931   2.746
71889W        W44204  37.876  42.900  10.627
71890W        W44205   8.854  34.951   1.354
71891W        W44206  28.549  22.025  12.892
71892W        W44207  27.580  18.134  13.332
71893W        W44208  42.982  42.510  12.070
71894W        W44209  17.087  32.931   2.212
71895W        W44210  44.480   7.350  13.813
71896W        W44211  40.823  15.156   2.399
71897W        W44212  13.668  21.701   1.801
71898W        W44213  32.533   8.899  12.440
71899W        W44214  41.937  21.132   3.675
71900W        W44215  10.748  21.138   2.714
71901W        W44216   1.279   3.459  11.077
71902W        W44217   1.348   4.297   0.786
71903W        W44218  33.092   9.712  11.927
71904W        W44219  31.470  38.511   0.881
71905W        W44220   7.857  24.998   2.863
71906W        W44221  17.703   1.241  11.085
71907W        W44222   3.805  11.696  12.506
71908W        W44223  18.238  43.791  13.000
71909W        W44224  39.839  37.044  14.334
71910W        W44225   5.357   2.349  13.875
71911W        W44226  24.652  21.616  14.800
71912W        W44227  26.125  27.551   3.320
71913W        W44228  16.668  10.246  13.495
71914W        W44229  27.618   7.689   1.348
71915W        W44230  43.794  39.317   2.789
71916W        W44231  14.829  10.145   1.842
71917W        W44232   8.333  43.391  12.963
71918W        W44233  35.434  35.450  14.890
71919W        W44234  25.552  22.020   0.312
71920W        W44235   9.688  43.449   3.732
71921W        W44236  32.507  28.551   2.724
71922W        W44237   9.277  40.856  10.461
71923W        W44238   7.897   9.376   4.122
71924W        W44239   4.773  40.842  10.495
71925W        W44240  26.103  41.812  11.044
71926W        W44241  12.771  31.044   4.691
71927W        W44242  37.416  44.817   2.352
71928W        W44243  29.473  10.691   4.763
71929W        W44244   4.866  43.271   9.973
71930W        W44245   5.200  11.152  14.027
71931W        W44246  32.509  34.443  13.335
71932W        W44247   8.230   9.745   2.387
71933W        W44248  17.138  28.958   4.272
71934W        W44249  25.109  32.448   3.386
71935W        W44250  41.487  29.661  14.990
71936W        W44251  10.726  24.038   1.836
71937W        W44252  23.678  44.837  13.411
71938W        W44253  13.344  21.070   4.692
71939W        W44254  32.573  14.799   2.387
71940W        W44255   5.382  35.070  11.109
71941W        W44256  37.000  18.207   1.371
71942W        W44257  26.046  20.614   4.271
71943W        W44258  44.303  16.688   1.331
71944W        W44259  27.504   6.878   3.271
71945W        W44260   9.799  41.322  13.833
71946W        W44261  19.261  41.300  12.442
71947W        W44262  31.936  26.153  14.448
71948W        W44263  31.918   7.707  14.760
71949W        W44264   5.734  13.279  14.412
71950W        W44265  28.566  32.045   2.239
71951W        W44266  15.751  14.113  10.920
71952W        W44267  39.442  16.605   2.871
71953W        W44268  32.039   2.855  11.579
71954W        W44269  20.588  18.203  11.536
71955W        W44270  42.946  39.864  11.479
71956W        W44271  34.920  42.348  13.465
71957W        W44272  36.911  15.270  14.847
71958W        W44273  21.221   4.422  11.106
71959W        W44274   6.700  40.448  11.531
71960W        W44275   3.924  28.630   4.743
71961W        W44276   0.887   9.726   4.284
71962W        W44277  40.377  29.927  12.890
71963W        W44278  17.161  12.350  10.445
71964W        W44279  19.273  41.390  12.886
71965W        W44280  13.763   1.273  11.393
71966W        W44281  32.066   2.757  11.093
71967W        W44282  14.171   4.906   1.740
71968W        W44283  28.055  15.256   2.753
71969W        W44284  39.984  14.719  11.128
71970W        W44285  21.144  20.677  12.536
71971W        W44286  14.832   3.916   0.956
71972W        W44287   3.917  26.011  12.878
71973W        W44288  32.549  19.113  10.508
71974W        W44289  35.364  21.655  11.912
71975W        W44290   9.203   7.357   1.930
71976W        W44291  43.769  34.615   3.845
71977W        W44292   4.324  19.224  10.981
71978W        W44293   9.332  23.648  11.884
71979W        W44294  15.641  23.079  14.841
71980W        W44295  44.277  41.847  12.850
71981W        W44296  15.195  12.220   2.880
71982W        W44297   3.351  30.909   3.836
71983W        W44298  38.571   0.891  12.039
71984W        W44299  11.152  35.976   0.289
71985W        W44300  38.928  30.124   3.806
71986W        W44301   2.956  15.629   5.232
71987W        W44302  31.438   7.230   4.603
71988W        W44303  13.303   7.881   3.196
71989W        W44304   5.198  24.693  12.832
71990W        W44305  44.442  27.974  10.918
71991W        W44306  30.972  17.643  10.410
71992W        W44307  27.563  26.528   0.789
71993W        W44308  17.108   7.314  13.921
71994W        W44309  40.940  44.946   4.817
71995W        W44310   6.244  21.231   0.264
71996W        W44311  35.521  36.928  11.990
71997W        W44312  15.294  21.635   0.285
71998W        W44313   9.687  35.100   0.946
71999W        W44314  15.286   8.286  14.891
72000W        W44315  43.446  11.200  11.878
72001W        W44316  41.799  32.512   3.362
72002W        W44317  44.290  22.559  11.005
72003W        W44318  20.641  41.468   1.847
72004W        W44319   0.478   8.194  14.970
72005W        W44320  10.793  27.049   2.375
72006W        W44321  42.335  19.662   2.184
72007W        W44322  39.505   7.238   4.327
72008W        W44323  27.198  38.853   2.787
72009W        W44324  11.287  28.085   0.271
72010W        W44325  23.990   5.839  10.457
72011W        W44326   8.307  18.167  10.473
72012W        W44327  39.910  23.174   2.257
72013W        W44328  17.214  39.318  14.984
72014W        W44329  20.174  39.973  10.133
72015W        W44330  17.621   3.286   4.705
72016W        W44331  26.024   5.277   4.666
72017W        W44332  32.026  32.589  10.516
72018W        W44333  32.407  42.778  11.060
72019W        W44334  34.865  30.025   4.695
72020W        W44335   0.460  41.391  10.986
72021W        W44336   2.344   7.901   1.914
72022W        W44337  38.039  44.334  10.920
72023W        W44338  41.499  19.159  11.108
72024W        W44339  36.514   9.797  12.038
72025W        W44340  30.455  18.740  10.505
72026W        W44341  26.701   5.264  12.914
72027W        W44342  19.118   1.264   4.334
72028W        W44343  26.196  36.864   1.790
72029W        W44344  11.682  29.089  11.406
72030W        W44345  30.043  24.019  12.530
72031W        W44346  26.520  39.502  11.094
72032W        W44347  17.295  41.016  10.093
72033W        W44348  34.404  10.255   1.352
72034W        W44349  16.237  32.624  11.406
72035W        W44350  30.925  31.905   2.861
72036W        W44351  18.243  10.156  14.313
72037W        W44352  13.126  20.133  12.876
72038W        W44353  27.685  32.586   0.445
72039W        W44354  29.939  40.955   2.686
72040W        W44355  43.346  32.501  10.605
72041W        W44356  36.077  35.909  13.476
72042W        W44357  41.009  12.274   1.291
72043W        W44358  30.926  12.803  13.517
72044W        W44359  14.735  16.248   3.203
72045W        W44360  30.026  10.158  13.933
72046W        W44361  35.467  40.418   0.328
72047W        W44362  11.721  41.371  10.487
72048W        W44363  20.085  39.353   3.170
72049W        W44364  42.976  42.979   5.225
72050W        W44365  17.145   0.393  12.990
72051W        W44366  17.641   9.386   0.876
72052W        W44367  23.035  33.501   3.715
72053W        W44368  24.987   0.864  14.456
72054W        W44369   0.285  33.024   4.642
72055W        W44370   0.422  18.059   3.769
72056W        W44371  30.620  19.264  11.529
72057W        W44372  36.948   2.417  12.092
72058W        W44373  43.008  37.514   0.364
72059W        W44374   1.265  33.904   1.297
72060W        W44375   3.239   2.299  10.602
72061W        W44376  22.707  29.955   0.744
72062W        W44377  30.629   9.672  13.849
72063W        W44378  43.765  13.824   1.218
72064W        W44379  27.548  19.662   2.381
72065W        W44380   2.303  33.595   0.788
72066W        W44381  31.084   6.210   1.700
72067W        W44382   5.787  37.084  13.948
72068W        W44383   3.795  25.120   4.220
72069W        W44384  32.447   6.720  13.005
72070W        W44385  44.799  13.650  12.495
72071W        W44386   4.725  23.154  14.000
72072W        W44387   3.832   1.254  13.360
72073W        W44388  14.145  42.328  11.556
72074W        W44389  34.908  21.657   3.765
72075W        W44390  27.635   4.714   2.737
72076W        W44391  11.139  12.363   1.450
72077W        W44392  24.103  17.718  10.631
72078W        W44393  17.073  28.534   3.364
72079W        W44394   8.817  19.608   2.281
72080W        W44395  24.598  41.299  11.581
72081W        W44396  31.020   9.311   0.437
72082W        W44397  21.668  38.436   1.379
72083W        W44398  21.653   4.909   0.766
72084W        W44399  20.221  18.760  12.489
72085W        W44400   9.362   3.301  12.855
72086W        W44401   1.412  24.629  12.073
72087W        W44402  17.618   0.381  12.882
72088W        W44403   8.704  42.864  14.368
72089W        W44404  26.561  11.682   0.361
72090W        W44405  32.582  31.624   3.325
72091W        W44406  36.443   8.898  13.466
72092W        W44407  33.549  15.323  12.065
72093W        W44408  22.234  23.014  14.855
72094W        W44409   1.974  33.926  10.030
72095W        W44410   8.290  10.312   3.633
72096W        W44411  29.946   3.389  12.017
72097W        W44412  14.782  29.092   5.636
72098W        W44413   2.783  14.637  11.967
72099W        W44414   4.794  35.101  14.967
72100W        W44415   5.196  31.512  10.504
72101W        W44416  32.558  37.862   2.741
72102W        W44417  17.167  19.641  10.612
72103W        W44418  20.121  15.108  12.834
72104W        W44419   5.406  23.542  14.340
72105W        W44420  10.139  44.858  12.368
72106W        W44421  37.340   6.854  13.039
72107W        W44422   0.839  42.846  13.497
72108W        W44423  40.863  27.957  11.510
72109W        W44424  15.123  42.462   0.378
72110W        W44425  19.597  42.900   2.788
72111W        W44426   3.790  36.539  12.866
72112W        W44427  11.219  21.585   2.710
72113W        W44428  18.285   9.695  10.597
72114W        W44429  21.169  15.656  12.007
72115W        W44430  37.981   7.892  12.883
72116W        W44431  21.563  29.956   2.709
72117W        W44432  41.991   1.812   3.202
72118W        W44433  14.276  43.302  13.994
72119W        W44434   5.905  31.922   3.719
72120W        W44435  43.009  14.630   4.340
72121W        W44436  24.031  43.909   0.867
72122W        W44437  43.955  40.848  12.875
72123W        W44438   4.717  35.988  14.497
72124W        W44439  38.486  21.215  14.449
72125W        W44440  26.481  10.258  14.430
72126W        W44441  32.018  44.949   4.639
72127W        W44442  17.097   6.290   1.285
72128W        W44443  35.008  14.223  12.900
72129W        W44444  32.530  18.109  11.977
72130W        W44445  38.444   9.266   0.835
72131W        W44446  14.804  38.377   1.406
72132W        W44447  40.355  40.899  11.000
72133W        W44448  29.555  20.615  10.946
72134W        W44449  43.414  44.358  14.473
72135W        W44450   3.366  34.005  12.458
72136W        W44451  17.690  37.516   0.265
72137W        W44452  20.077  43.302  10.566
72138W        W44453  30.521   9.288  13.943
72139W        W44454  16.604  41.300  14.918
72140W        W44455  31.047   8.869  10.934
72141W        W44456  13.341  35.585  13.819
72142W        W44457  25.504  11.355   1.329
72143W        W44458  23.603   5.702   1.839
72144W        W44459  23.594  32.950  12.525
72145W        W44460  27.511  27.074  12.365
72146W        W44461  15.299  36.463   3.832
72147W        W44462  12.790   3.248  14.003
72148W        W44463  20.092   5.376  10.432
72149W        W44464  32.636  40.809   0.327
72150W        W44465  39.421   5.233  11.561
72151W        W44466  24.093  21.726  14.458
72152W        W44467   7.790  37.030  12.012
72153W        W44468  16.799  41.536   4.170
72154W        W44469   1.283  18.135  12.833
72155W        W44470   8.850  23.197   4.166
72156W        W44471  35.078   1.319  12.498
72157W        W44472  12.310  37.488   1.354
72158W        W44473  32.440   1.841  11.118
72159W        W44474  26.194   6.798  10.509
72160W        W44475   3.951  21.204   2.196
72161W        W44476  25.659  43.797  12.433
72162W        W44477   5.852   0.460  10.520
72163W        W44478  23.155  38.040   4.121
72164W        W44479  37.398  23.083   3.673
72165W        W44480  35.993  30.628  13.842
72166W        W44481   5.720  31.491   0.947
72167W        W44482  10.735  43.858   2.704
72168W        W44483  24.077   0.814  12.542
72169W        W44484  40.966  13.271   0.794
72170W        W44485   9.195  35.062   0.407
72171W        W44486   5.874  23.167  10.531
72172W        W44487  30.533  27.064  14.934
72173W        W44488  34.411  27.136  13.346
72174W        W44489   2.243  15.715  10.002
72175W        W44490   4.804  28.113   1.892
72176W        W44491   0.956  14.122   4.715
72177W        W44492  12.798  25.200   1.262
72178W        W44493  15.322  40.924  12.863
72179W        W44494  13.214  41.952  12.918
72180W        W44495   8.838  33.036   2.257
72181W        W44496  33.095  21.613  14.923
72182W        W44497  39.850  38.887   3.832
72183W        W44498  10.372  43.423   0.943
72184W        W44499  36.027  22.581   2.802
72185W        W44500  21.696  19.140  13.936
72186W        W44501  34.968  40.828   1.411
72187W        W44502   9.656  24.152  13.886
72188W        W44503   6.911  42.945   1.316
72189W        W44504  13.844  42.453   1.329
72190W        W44505  21.613   2.337   2.772
72191W        W44506  33.053   5.224   4.211
72192W        W44507   8.305  17.231  13.823
72193W        W44508  35.430   7.897  11.556
72194W        W44509  10.148   0.429   4.621
72195W        W44510  44.380  33.622   2.866
72196W        W44511  32.891  23.693   3.727
72197W        W44512  15.783  36.033  12.366
72198W        W44513  34.981   0.861   3.315
72199W        W44514  28.519  30.608   2.280
72200W        W44515  42.525  23.089  10.485
72201W        W44516  28.482  39.470  11.386
72202W        W44517  14.832  12.147  12.518
72203W        W44518  32.919   3.900  10.566
72204W        W44519  29.653  21.628  12.834
72205W        W44520   8.750  34.007  12.029
72206W        W44521  39.926  11.283  12.983
72207W        W44522  34.001  24.006  12.512
72208W        W44523  40.421   5.811   1.299
72209W        W44524  17.178  31.034  11.973
72210W        W44525   7.280  13.144   1.728
72211W        W44526  30.950   4.784  13.336
72212W        W44527  17.595   3.308  13.050
72213W        W44528  32.588  44.494   2.386
72214W        W44529  42.384  14.819  14.350
72215W        W44530  15.816  14.230  10.558
72216W        W44531  27.136  34.936  13.058
72217W        W44532  43.388  32.084  14.334
72218W        W44533  20.204  21.705   1.323
72219W        W44534  24.084  36.051  14.862
72220W        W44535  27.051  39.861   4.227
72221W        W44536  16.674  17.566  14.333
72222W        W44537  17.183  24.645  12.872
72223W        W44538  15.768   9.887  13.026
72224W        W44539   5.381  20.623  13.034
72225W        W44540   3.345  19.725   4.778
72226W        W44541  32.984  44.383   1.822
72227W        W44542  36.847  12.317  14.958
72228W        W44543  36.443   5.387  12.446
72229W        W44544   1.876  43.369  10.596
72230W        W44545  25.568  29.503   0.451
72231W        W44546   6.412  33.996   1.824
72232W        W44547  35.533   8.689   0.345
72233W        W44548  16.773  11.128   4.150
72234W        W44549  19.660  34.497  12.839
72235W        W44550  23.611  28.084  12.823
72236W        W44551   2.741   9.824  12.431
72237W        W44552  26.206  25.609  10.563
72238W        W44553  35.878  21.519   2.244
72239W        W44554  10.733  12.629  14.319
72240W        W44555  33.935  15.183   0.806
72241W        W44556  28.658  19.653   4.349
72242W        W44557   6.331   3.450  12.563
72243W        W44558  24.509  27.460   4.779
72244W        W44559   7.753  23.061   2.252
72245W        W44560  42.008  39.985  11.979
72246W        W44561  32.959   3.928  12.448
72247W        W44562   9.777  30.041  14.456
72248W        W44563  14.127  39.852   2.710
72249W        W44564   6.859  37.846  14.431
72250W        W44565  39.471   0.479  10.475
72251W        W44566  38.995  38.331  14.818
72252W        W44567  31.078  39.411  12.456
72253W        W44568  30.990   2.775   3.697
72254W        W44569   1.840  14.785   5.317
72255W        W44570  23.071  10.362   2.240
72256W        W44571  33.498   9.361  12.524
72257W        W44572  38.518  24.650  13.962
72258W        W44573  12.669  33.909   0.409
72259W        W44574  23.710  30.501  11.550
72260W        W44575  18.683  11.836  13.035
72261W        W44576   4.218  26.179  14.014
72262W        W44577   1.358   4.419  14.985
72263W        W44578  25.518  20.162  12.438
72264W        W44579  13.830  18.104   2.356
72265W        W44580   3.751   5.244  14.419
72266W        W44581  38.928  27.506   4.603
72267W        W44582  42.475  26.478   4.193
72268W        W44583   7.297   0.763   0.753
72269W        W44584   7.376  39.414  14.799
72270W        W44585  39.553  22.660  13.358
72271W        W44586   7.809  17.652   1.919
72272W        W44587   3.353  43.773   4.145
72273W        W44588  40.366  18.156  11.864
72274W        W44589  43.902   0.887   4.283
72275W        W44590  41.461   2.966  10.475
72276W        W44591   3.296  25.027  12.881
72277W        W44592  17.742  18.668   2.281
72278W        W44593   6.877   2.381   0.282
72279W        W44594  34.065  17.761  10.492
72280W        W44595  38.978  19.615   0.389
72281W        W44596  22.181  28.083   3.327
72282W        W44597  10.768  37.985   4.811
72283W        W44598   1.735  19.698   1.728
72284W        W44599  42.817  10.289   1.399
72285W        W44600  18.639   7.388   0.402
72286W        W44601  10.813  11.140   4.809
72287W        W44602   0.477  13.152   2.259
72288W        W44603  43.776  21.098  10.948
72289W        W44604  43.855  42.517   2.347
72290W        W44605  34.421  19.724   0.896
72291W        W44606  17.702  27.545  14.971
72292W        W44607  31.511  18.290  13.434
72293W        W44608  37.377   0.832  11.472
72294W        W44609  26.103  21.255  12.409
72295W        W44610   0.857   4.379  12.442
72296W        W44611  32.481  22.088  11.381
72297W        W44612  39.442   6.285  11.968
72298W        W44613  40.436  28.939  14.989
72299W        W44614   6.306   9.819  12.051
72300W        W44615   3.887  12.687  14.915
72301W        W44616  25.492  11.771  14.860
72302W        W44617  28.983  30.623  10.491
72303W        W44618  36.884  10.837  11.034
72304W        W44619  21.106  33.422   2.260
72305W        W44620  10.378  19.125   4.177
72306W        W44621   0.264  31.438   0.767
72307W        W44622   4.927  12.318  11.456
72308W        W44623  37.393  14.265   1.285
72309W        W44624  11.284  28.978  12.021
72310W        W44625   7.187  27.671   4.126
72311W        W44626  30.610  44.463  12.534
72312W        W44627  11.823  14.774  10.522
72313W        W44628  26.189  28.637   4.128
72314W        W44629   7.783  17.255   0.313
72315W        W44630  15.585  16.094   2.791
72316W        W44631  19.045   2.889  13.446
72317W        W44632  26.024  10.279   0.954
72318W        W44633  38.077  25.480  10.494
72319W        W44634   3.224  42.336   2.872
72320W        W44635   1.281  25.205   1.336
72321W        W44636  12.684  19.141   3.748
72322W        W44637   9.681  16.617  14.449
72323W        W44638  41.518   6.259  10.562
72324W        W44639  14.239  31.058   2.285
72325W        W44640   2.464  44.308  14.332
72326W        W44641  36.058  42.013   3.750
72327W        W44642  30.557  42.808  12.020
72328W        W44643  37.088  14.112   4.224
72329W        W44644  28.469  21.597  14.964
72330W        W44645   1.479  33.064  14.961
72331W        W44646  29.067  23.139  12.949
72332W        W44647   3.765   8.176   3.721
72333W        W44648  34.973  33.036  12.823
72334W        W44649  40.948  26.517  11.984
72335W        W44650  14.300   1.938   3.256
72336W        W44651  35.410  29.465   2.228
72337W        W44652  13.143  12.617   0.482
72338W        W44653   6.288  18.190  14.353
72339W        W44654   4.321  23.231  12.340
72340W        W44655  33.000  38.373  13.345
72341W        W44656  14.329  17.282  13.439
72342W        W44657   7.803  37.069  12.421
72343W        W44658  16.616  19.143   2.820
72344W        W44659   8.246  26.532  10.977
72345W        W44660   9.883  19.634  13.815
72346W        W44661  12.637  11.188  12.081
72347W        W44662   2.434  37.845   0.752
72348W        W44663  16.162  19.073   0.462
72349W        W44664   4.917  24.524   3.340
72350W        W44665  34.404   1.283   2.730
72351W        W44666  44.419   8.815  10.145
72352W        W44667  35.362  29.434   0.855
72353W        W44668  16.591  34.923  13.867
72354W        W44669  38.894   8.341   4.149
72355W        W44670   1.804  23.637   4.792
72356W        W44671  21.230  19.143   4.146
72357W        W44672  24.665  18.774  10.639
72358W        W44673   0.861  26.988  11.102
72359W        W44674   9.694  40.509   0.342
72360W        W44675  37.578   5.778   1.284
72361W        W44676  30.572  32.451  10.975
72362W        W44677  36.055   7.196   1.934
72363W        W44678  41.350  40.005   0.841
72364W        W44679  17.616  28.060   9.947
72365W        W44680  36.503  10.752  10.540
72366W        W44681  37.052  20.189  11.031
72367W        W44682  43.966  17.570   0.880
72368W        W44683  40.978  15.581   4.328
72369W        W44684  42.009  34.990  10.409
72370W        W44685  41.491  15.144   0.296
72371W        W44686  16.278  13.617   4.323
72372W        W44687  44.940  32.937   2.821
72373W        W44688   6.866  22.145  14.788
72374W        W44689  12.629  11.167   1.706
72375W        W44690  32.566  11.177   0.439
72376W        W44691  26.516   4.881  14.978
72377W        W44692  28.631   7.762  10.940
72378W        W44693   0.895  37.969  13.419
72379W        W44694  29.115   0.278   0.846
72380W        W44695   3.272   7.264  12.412
72381W        W44696  44.980  23.544  13.993
72382W        W44697  35.368  32.037   3.746
72383W        W44698  41.979   1.257  14.476
72384W        W44699  41.388   6.853  11.512
72385W        W44700  43.385  13.229  11.964
72386W        W44701  32.041  22.141  14.463
72387W        W44702  40.801  31.593   4.770
72388W        W44703  40.442  16.696   1.428
72389W        W44704  35.390  19.166   4.180
72390W        W44705  35.521  40.481  11.981
72391W        W44706  11.775  35.923   1.852
72392W        W44707  10.287  40.339   4.334
72393W        W44708   2.242  23.120   3.298
72394W        W44709  17.661   3.846  14.327
72395W        W44710  31.610  42.846  14.027
72396W        W44711  33.019  37.912   2.799
72397W        W44712  15.585   8.756  12.357
72398W        W44713  39.456  19.605   3.698
72399W        W44714  19.055  15.172  10.424
72400W        W44715  16.684  44.977  12.918
72401W        W44716  16.651   8.247  13.464
72402W        W44717  39.419  18.762  13.402
72403W        W44718   3.851   5.313  13.470
72404W        W44719  11.852  36.475  14.022
72405W        W44720  42.031   4.428  12.560
72406W        W44721  42.897  25.965  14.378
72407W        W44722  23.517  27.686  12.868
72408W        W44723  33.541  26.128  14.436
72409W        W44724   7.181  25.668  11.952
72410W        W44725  42.845   2.823  13.410
72411W        W44726  13.141  40.048   0.891
72412W        W44727   1.930  14.340  14.497
72413W        W44728  23.079   9.756   2.706
72414W        W44729  44.327  28.122  12.994
72415W        W44730  31.961  20.757  13.543
72416W        W44731   2.966  28.039   1.786
72417W        W44732   7.906  18.061   3.211
72418W        W44733   5.335  44.778  10.901
72419W        W44734  38.949   9.282   0.829
72420W        W44735  34.011  21.238  13.835
72421W        W44736  22.081  22.144   0.815
72422W        W44737  27.619   3.924  10.563
72423W        W44738   5.795  10.698   3.238
72424W        W44739  37.378  19.186   4.286
72425W        W44740  43.913  33.992  13.889
72426W        W44741  12.664   5.340  13.815
72427W        W44742   5.370  31.149   4.176
72428W        W44743  13.259  17.559   2.319
72429W        W44744  12.611  25.152   3.249
72430W        W44745  17.749  35.579   1.433
72431W        W44746  43.354  44.335   2.775
72432W        W44747  18.557  40.331   5.134
72433W        W44748  40.815  37.433  11.982
72434W        W44749  19.728  41.839   2.796
72435W        W44750  38.367  22.731   1.779
72436W        W44751  23.097   6.363  11.469
72437W        W44752   0.956  24.522   3.853
72438W        W44753  39.971  44.852   2.397
72439W        W44754  38.437   8.380  11.562
72440W        W44755   9.306   0.875   4.198
72441W        W44756   1.439  35.391   4.761
72442W        W44757   9.729  21.047   3.292
72443W        W44758  25.088   2.740   1.377
72444W        W44759  19.552  31.436   4.825
72445W        W44760  27.195  38.540  10.465
72446W        W44761  31.985  38.367  11.967
72447W        W44762  30.443  40.011  10.973
72448W        W44763   1.481  11.708  14.510
72449W        W44764  21.036   6.682   2.412
72450W        W44765  42.887  10.791   4.717
72451W        W44766  41.385   3.758  13.851
72452W        W44767   3.443  10.840   2.283
72453W        W44768  26.194  41.325  11.112
72454W        W44769  35.461   2.253  12.552
72455W        W44770  27.637  22.110   3.833
72456W        W44771   1.401  21.657  13.425
72457W        W44772  41.476  12.347  13.341
72458W        W44773  21.218  12.667   3.180
72459W        W44774   4.767   7.854   2.709
72460W        W44775  27.059   2.908   4.685
72461W        W44776  30.165  36.511  11.884
72462W        W44777  13.711  26.578  12.982
72463W        W44778  28.990  17.300  10.447
72464W        W44779   7.187  21.081  13.398
72465W        W44780   4.312  11.318  13.793
72466W        W44781   0.349  42.298   1.405
72467W        W44782  21.629  16.225   3.151
72468W        W44783   0.908   7.884  13.446
72469W        W44784  44.878  33.054   0.280
72470W        W44785  38.056  20.575   4.812
72471W        W44786  23.104  11.182   0.387
72472W        W44787   5.223  18.728  12.018
72473W        W44788  32.545   4.362  13.800
72474W        W44789  19.577  40.400   0.824
72475W        W44790  17.299  18.680   3.253
72476W        W44791  22.733   9.170   4.169
72477W        W44792  18.223  17.067  12.456
72478W        W44793  43.794  14.768   3.663
72479W        W44794  37.892  20.176   3.188
72480W        W44795  22.646  42.860  12.842
72481W        W44796   5.914  22.168  10.574
72482W        W44797  30.554  40.486  13.317
72483W        W44798   5.219  27.077  10.582
72484W        W44799  40.872  21.603   2.388
72485W        W44800  38.899  29.034   1.384
72486W        W44801  34.423   2.954  11.420
72487W        W44802  11.723  17.725  10.980
72488W        W44803  16.274  26.635  11.374
72489W        W44804  21.685   6.706   3.840
72490W        W44805   1.256   8.187  11.399
72491W        W44806  16.101  18.787   2.705
72492W        W44807   1.410  27.489  12.454
72493W        W44808  40.892  38.952  11.979
72494W        W44809  23.072   9.382  11.552
72495W        W44810  22.554  25.701   0.747
72496W        W44811  27.098  13.791   1.884
72497W        W44812   0.356  22.085  11.496
72498W        W44813   2.335  38.994  12.380
72499W        W44814  32.065  41.936   3.348
72500W        W44815  23.086   9.284  13.809
72501W        W44816   9.246  18.712  13.396
72502W        W44817  36.352  34.915   4.296
72503W        W44818  39.835  26.048   3.346
72504W        W44819   8.370   2.377  14.797
72505W        W44820   9.287   5.808  10.113
72506W        W44821   3.279  14.639  11.856
72507W        W44822  12.176  25.112   5.265
72508W        W44823   9.341  15.127  11.045
72509W        W44824  19.075   9.655   1.808
72510W        W44825   0.484  38.841  14.956
72511W        W44826  22.997  28.670  12.940
72512W        W44827   5.206  33.129   0.790
72513W        W44828  42.013  21.023   4.605
72514W        W44829   6.730  32.495   1.296
72515W        W44830   4.828  32.443   0.892
72516W        W44831  11.359  14.686  13.047
72517W        W44832  22.716  26.173   4.237
72518W        W44833  13.763  22.120   0.865
72519W        W44834  31.112  36.517   5.149
72520W        W44835   3.834  10.280   1.287
72521W        W44836  40.033  11.827   1.239
72522W        W44837   9.870  24.517  14.488
72523W        W44838   4.787  20.717  13.821
72524W        W44839  33.380   4.720  14.344
72525W        W44840   5.864  14.665   3.859
72526W        W44841  37.389  31.609  10.893
72527W        W44842  12.252   8.289  12.425
72528W        W44843  34.532  36.523  14.289
72529W        W44844  27.585  20.108   4.140
72530W        W44845  22.046  21.615   0.285
72531W        W44846  37.464  34.531  12.835
72532W        W44847  36.440   9.201   3.325
72533W        W44848  37.509  19.757   0.766
72534W        W44849  11.212  33.093   2.776
72535W        W44850   6.309  22.163  10.000
72536W        W44851  39.455  40.819   3.374
72537W        W44852  25.706  23.020  13.488
72538W        W44853  25.468   3.858   1.827
72539W        W44854   9.223  43.454  11.436
72540W        W44855   0.783  42.991  12.904
72541W        W44856   3.320  28.116   4.250
72542W        W44857  11.247  41.361  12.533
72543W        W44858   0.436   8.813   2.727
72544W        W44859  15.245  20.104  14.992
72545W        W44860  28.078  38.471  13.386
72546W        W44861  11.284  11.304   3.653
72547W        W44862  10.710   1.776  10.963
72548W        W44863  43.497   9.213  13.906
72549W        W44864  34.564  15.137  11.964
72550W        W44865  34.588   9.667  14.793
72551W        W44866  31.574  11.755  14.824
72552W        W44867  20.538   6.414  10.557
72553W        W44868  12.818   9.156  10.970
72554W        W44869  25.183   7.729   2.748
72555W        W44870  20.127  17.139  10.010
72556W        W44871  31.539  41.826   3.869
72557W        W44872  25.191  38.944  14.422
72558W        W44873  33.384  31.418   5.320
72559W        W44874   0.345  23.227  12.351
72560W        W44875  10.806  10.710   2.892
72561W        W44876  28.996  42.947  13.034
72562W        W44877  18.608  37.076  13.338
72563W        W44878  44.886  10.709   0.454
72564W        W44879  41.879  25.483  12.993
72565W        W44880  41.489  29.038   0.291
72566W        W44881  10.651  40.437  13.337
72567W        W44882   8.676  13.736   4.342
72568W        W44883  14.612  34.374  12.570
72569W        W44884  43.895  43.391  14.499
72570W        W44885  43.888  26.497   2.833
72571W        W44886   5.693  16.191  11.952
72572W        W44887  10.375  27.564  14.291
72573W        W44888  37.385  10.715  14.392
72574W        W44889  21.731  37.556   4.763
72575W        W44890   1.885  36.501   3.825
72576W        W44891   7.727  23.589  11.880
72577W        W44892   2.458  12.182   4.254
72578W        W44893   1.290  38.367  11.082
72579W        W44894   3.339  12.709  12.071
72580W        W44895  15.587  27.600  10.069
72581W        W44896  31.568  21.703  14.012
72582W        W44897  17.584  29.538  10.549
72583W        W44898  33.934  40.343   4.650
72584W        W44899  35.591   7.779  11.011
72585W        W44900  25.969  37.048   2.272
72586W        W44901  28.951  20.205  14.022
72587W        W44902  34.600   3.269  11.931
72588W        W44903  42.421  41.445  13.370
72589W        W44904  28.044  18.151   1.395
72590W        W44905  38.402  42.433  14.516
72591W        W44906  17.194   9.704   3.301
72592W        W44907  31.600  41.504  12.894
72593W        W44908  28.936   9.157   1.301
72594W        W44909   3.418  26.579   0.406
72595W        W44910  30.959  29.619  14.959
72596W        W44911  14.652  10.212   3.237
72597W        W44912  23.672  22.700   3.867
72598W        W44913   0.274  18.160  13.990
72599W        W44914   2.934  37.042  11.574
72600W        W44915   2.395  19.557  12.034
72601W        W44916  13.705  20.746   2.340
72602W        W44917  26.036  23.525  11.879
72603W        W44918  27.001   5.694   2.683
72604W        W44919   8.841   3.869  14.007
72605W        W44920  44.416  37.536  14.325
72606W        W44921   7.282  21.230   0.290
72607W        W44922  18.545  37.500  13.945
72608W        W44923  15.271  27.002  10.602
72609W        W44924  14.682  28.139   4.632
72610W        W44925  36.457  30.501   5.142
72611W        W44926  18.757  14.100   1.834
72612W        W44927  34.588  13.177  11.029
72613W        W44928   3.367  26.095   0.462
72614W        W44929  44.365  29.651   0.471
72615W        W44930  24.975   9.712  14.926
72616W        W44931   9.857   9.750  14.821
72617W        W44932  16.139  29.972  12.010
72618W        W44933  12.180  28.667  13.010
72619W        W44934  44.989  19.776  13.435
72620W        W44935  11.336  21.235   4.638
72621W        W44936  19.059  16.316  14.821
72622W        W44937  39.359  15.778   3.649
72623W        W44938  34.978  11.179  11.372
72624W        W44939  36.535   6.346   2.696
72625W        W44940  27.645  18.193   2.865
72626W        W44941  22.706  41.518   4.292
72627W        W44942   0.360  35.930  10.964
72628W        W44943  15.585  37.842   5.207
72629W        W44944  22.177  21.088   2.764
72630W        W44945  20.735  13.711  11.439
72631W        W44946  18.290  24.037   2.713
72632W        W44947   6.187  33.059   3.373
72633W        W44948   0.461  36.441   3.275
72634W        W44949   8.779  15.657   4.279
72635W        W44950  42.998  39.986   4.182
72636W        W44951   1.480  30.123  13.464
72637W        W44952  30.135   0.380   0.845
72638W        W44953  30.047  10.736   0.282
72639W        W44954  33.548   1.945  11.469
72640W        W44955   2.755  31.514  11.389
72641W        W44956  33.974   8.358   3.328
72642W        W44957  26.062  30.105  10.626
72643W        W44958  11.722  34.098  11.573
72644W        W44959  28.989   7.301  12.376
72645W        W44960  37.067  35.466   2.849
72646W        W44961  33.512   7.368  10.625
72647W        W44962  28.512  37.903  13.031
72648W        W44963  39.505  33.542  10.561
72649W        W44964  40.962  18.708   2.818
72650W        W44965   3.748  24.202  14.918
72651W        W44966   3.440   4.871  12.936
72652W        W44967   8.805  25.492  12.927
72653W        W44968  29.024  31.535  12.529
72654W        W44969  18.643  36.348   0.767
72655W        W44970   9.240  38.009   0.784
72656W        W44971  40.977  10.283  13.973
72657W        W44972  20.211  12.132   4.811
72658W        W44973  44.421  38.007   3.235
72659W        W44974   6.879  33.083   4.170
72660W        W44975   9.749  43.905  10.956
72661W        W44976  31.946  21.136  14.822
72662W        W44977  42.435  22.646  10.578
72663W        W44978  41.925  19.750   2.738
72664W        W44979   4.348  43.821   0.879
72665W        W44980   5.270   5.393   0.442
72666W        W44981  35.054  31.144  10.508
72667W        W44982  20.743  14.117   3.229
72668W        W44983  33.111  34.500  11.517
72669W        W44984  12.182   9.854   4.731
72670W        W44985  43.399  22.249  12.550
72671W        W44986  42.393  29.949  12.017
72672W        W44987  33.569  24.031   0.852
72673W        W44988  23.663  44.376  13.018
72674W        W44989  39.847  23.489  10.095
72675W        W44990   1.386  42.948   0.475
72676W        W44991  41.920  27.955  12.949
72677W        W44992  42.017  26.981   4.330
72678W        W44993  20.099  22.201   1.922
72679W        W44994   2.267  16.640  13.965
72680W        W44995   5.314  19.074   4.144
72681W        W44996   9.195  14.309  12.363
72682W        W44997  13.285  44.420   3.748
72683W        W44998   4.387  19.638   5.239
72684W        W44999  43.431  16.278  13.924
72685W        W45000  21.229  44.260  14.388
72686W        W45001  11.852  29.495   5.319
72687W        W45002  34.521   9.153   4.763
72688W        W45003  25.540  14.697   4.185
72689W        W45004  28.603  33.626  10.147
72690W        W45005   9.739  39.408  10.482
72691W        W45006  23.736  28.978  14.803
72692W        W45007  18.620  23.612   0.758
72693W        W45008   7.908  22.219   3.678
72694W        W45009   7.878   2.333  12.390
72695W        W45010  27.016   8.899   0.318
72696W        W45011  32.427  31.453  11.971
72697W        W45012   8.807  14.701   1.234
72698W        W45013  30.064  37.050   2.875
72699W        W45014  43.820  29.950   2.792
72700W        W45015  33.020   4.406  11.509
72701W        W45016   6.890  39.924   3.678
72702W        W45017  20.732  16.110   4.606
72703W        W45018  43.437  39.444   3.192
72704W        W45019  34.492   2.402  13.964
72705W        W45020  42.526  20.537   3.303
72706W        W45021  38.829  30.626   2.238
72707W        W45022   8.182  14.252  14.412
72708W        W45023  39.017  20.676  12.387
72709W        W45024  29.175  22.044   3.812
72710W        W45025  10.869  36.981  14.328
72711W        W45026   7.272  32.119   4.176
72712W        W45027  10.646  27.182  11.549
72713W        W45028   7.743  43.013   2.387
72714W        W45029  44.833  14.600   4.264
72715W        W45030  42.849  16.259  12.437
72716W        W45031   1.865  13.829  10.498
72717W        W45032   7.814  10.288   1.267
72718W        W45033   8.897  25.690   1.442
72719W        W45034   5.414  42.523  14.444
72720W        W45035  28.628  34.411  13.477
72721W        W45036  28.103  35.916   4.239
72722W        W45037  33.923  33.031   4.672
72723W        W45038  38.966  33.601   5.310
72724W        W45039  29.172  41.907   1.726
72725W        W45040  36.018   4.849   4.828
72726W        W45041  12.656  19.748  12.532
72727W        W45042  26.169  41.478   1.298
72728W        W45043  28.097  40.849  13.482
72729W        W45044  28.581  11.779  12.534
72730W        W45045  25.539  12.148   1.227
72731W        W45046  43.824  11.257  12.544
72732W        W45047  27.596  36.404  14.454
72733W        W45048  18.633   3.824  12.900
72734W        W45049  10.743  31.002  12.357
72735W        W45050  32.021  10.752   2.248
72736W        W45051   1.461   7.897   1.353
72737W        W45052   2.966  31.571   0.377
72738W        W45053  22.668  35.487   3.844
72739NA+    NA+45054  15.738   3.270   4.649
72740NA+    NA+45055   5.240  20.070  14.889
72741NA+    NA+45056  14.241   9.296  11.583
72742NA+    NA+45057  28.088  37.544  14.311
72743NA+    NA+45058  15.181   5.773  14.952
72744NA+    NA+45059  40.454  20.716  11.092
72745NA+    NA+45060  28.154  30.539   0.299
72746NA+    NA+45061  27.527   6.188   2.211
72747NA+    NA+45062  42.000   1.424  10.469
72748NA+    NA+45063  38.566  34.106  13.452
72749NA+    NA+45064   1.275  11.726   4.633
72750NA+    NA+45065  20.588  24.585  14.000
72751NA+    NA+45066   0.345  36.048  12.410
72752NA+    NA+45067  21.062  29.059   0.907
72753NA+    NA+45068  11.790   3.374   2.211
72754NA+    NA+45069  29.933  19.767   1.211
72755NA+    NA+45070  27.472  10.677   1.897
72756NA+    NA+45071   9.663  30.452   3.688
72757NA+    NA+45072  28.617   5.211  13.410
72758NA+    NA+45073   6.302  34.390  14.817
72759NA+    NA+45074   3.749   3.303   3.189
72760NA+    NA+45075  23.538  33.574  13.797
72761NA+    NA+45076  26.555  15.615   3.231
72762NA+    NA+45077  21.593  37.953  12.397
72763NA+    NA+45078  29.563  44.808   4.761
72764NA+    NA+45079  19.265   1.756  11.969
72765NA+    NA+45080  33.558  25.067   3.765
72766NA+    NA+45081  36.439  25.988   4.220
72767NA+    NA+45082  11.275  37.930   2.797
72768NA+    NA+45083  20.099   8.888   3.209
72769NA+    NA+45084  29.957  44.856   3.327
72770NA+    NA+45085   2.963  34.902  11.910
72771NA+    NA+45086   0.319   2.738  10.894
72772NA+    NA+45087   4.924  21.068  12.348
72773NA+    NA+45088  20.073  30.936  10.604
72774NA+    NA+45089  16.615  34.592   3.699
72775NA+    NA+45090  34.588   8.714   2.192
72776NA+    NA+45091  29.615  20.049  11.444
72777NA+    NA+45092  42.781  25.135   3.171
72778NA+    NA+45093  20.199  13.672   4.257
72779NA+    NA+45094  27.577  39.982   4.742
72780NA+    NA+45095   2.743  16.276   2.899
72781NA+    NA+45096  33.588  41.810   0.422
72782NA+    NA+45097  26.040   3.383   0.460
72783NA+    NA+45098  43.391  10.213   0.390
72784NA+    NA+45099  20.561  32.560  12.958
72785NA+    NA+45100  42.427  12.811   0.726
72786NA+    NA+45101  27.055  39.843   0.453
72787NA+    NA+45102  38.478  38.849  14.288
72788NA+    NA+45103  29.621  28.548  13.356
72789NA+    NA+45104  17.786  34.529   1.411
72790NA+    NA+45105   2.279  26.161  13.321
72791NA+    NA+45106  22.229   6.725  13.419
72792NA+    NA+45107   3.884  43.485   2.375
72793NA+    NA+45108  24.723  30.972  14.338
72794NA+    NA+45109   3.925  27.518  12.458
72795NA+    NA+45110   4.366  37.443   1.290
72796NA+    NA+45111   8.701  41.859  14.836
72797NA+    NA+45112  22.732  18.214   1.728
72798NA+    NA+45113  44.840  15.108  12.921
72799NA+    NA+45114  23.493  30.459   0.429
72800NA+    NA+45115  19.593  43.304   0.762
72801NA+    NA+45116   0.904   6.916  10.500
72802NA+    NA+45117   2.732   7.392  10.936
72803NA+    NA+45118  19.163   3.323  13.906
72804NA+    NA+45119  34.981  31.529  14.466
72805NA+    NA+45120  16.170  31.595   2.672
72806NA+    NA+45121  44.341  17.780  12.955
72807NA+    NA+45122   9.180  13.786  10.411
72808NA+    NA+45123  30.436  22.519   2.843
72809NA+    NA+45124  39.540  27.052   1.793
72810NA+    NA+45125   8.752   9.693  11.448
72811NA+    NA+45126  28.091  19.757  10.016
72812NA+    NA+45127   4.862  44.496  11.901
72813NA+    NA+45128   2.430  40.002  13.810
72814NA+    NA+45129  35.008   4.781  13.336
72815NA+    NA+45130  25.668   4.340  12.896
72816NA+    NA+45131  14.146  36.095   0.321
72817NA+    NA+45132  16.728  16.110  11.999
72818NA+    NA+45133  33.381   4.406   3.778
72819NA+    NA+45134   6.910  30.559  13.500
72820NA+    NA+45135   7.247  25.970   4.711
72821NA+    NA+45136  34.582  20.707   3.350
72822NA+    NA+45137   6.223  10.234   4.133
72823NA+    NA+45138   1.332   4.880   0.280
72824NA+    NA+45139   1.318   6.819   0.743
72825NA+    NA+45140  35.914   7.665  14.449
72826NA+    NA+45141  28.590  34.110  10.092
72827NA+    NA+45142  34.106  12.334   3.663
72828NA+    NA+45143  23.660   6.233  10.634
72829NA+    NA+45144  41.518   6.183  10.939
72830NA+    NA+45145  12.345  15.306  11.027
72831NA+    NA+45146  39.886  13.774   2.250
72832NA+    NA+45147   8.711   7.259  11.037
72833NA+    NA+45148   9.162  17.085   5.215
72834NA+    NA+45149  41.799  19.755   0.818
72835NA+    NA+45150   5.352  44.912  12.461
72836NA+    NA+45151  34.047  27.486  13.042
72837NA+    NA+45152   8.674  30.424  13.378
72838NA+    NA+45153   3.338   2.932  14.772
72839NA+    NA+45154  27.573   9.186  10.640
72840NA+    NA+45155  24.487  26.131  10.635
72841NA+    NA+45156  37.503  10.634  11.891
72842NA+    NA+45157   6.422  13.670   3.757
72843NA+    NA+45158  16.793  42.983  12.457
72844NA+    NA+45159  36.890  32.418   1.390
72845NA+    NA+45160  21.161   9.252  10.607
72846NA+    NA+45161  14.637  29.974   1.427
72847NA+    NA+45162  14.276  44.305  12.396
72848NA+    NA+45163  14.262  42.803  10.470
72849NA+    NA+45164  27.161   0.787   4.631
72850NA+    NA+45165  11.677  25.055   0.743
72851NA+    NA+45166   6.417  18.665   3.153
72852NA+    NA+45167  13.835   1.886   0.838
72853NA+    NA+45168  13.749  38.912   2.811
72854NA+    NA+45169  40.971  19.201  13.362
72855NA+    NA+45170  36.458  35.916   5.129
72856NA+    NA+45171  22.027  42.010  12.087
72857NA+    NA+45172  20.661  31.103   3.629
72858NA+    NA+45173  21.679   6.393  13.002
72859NA+    NA+45174   7.246  11.647  13.374
72860NA+    NA+45175  35.466  30.935  10.598
72861NA+    NA+45176  36.967  15.323   4.294
72862NA+    NA+45177  41.854  43.835  11.494
72863NA+    NA+45178  28.972  18.186  12.908
72864NA+    NA+45179  11.320  18.095  14.276
72865NA+    NA+45180  21.586  41.342  12.437
72866NA+    NA+45181  10.336  15.726  10.021
72867NA+    NA+45182  19.660  33.484   0.795
72868NA+    NA+45183   5.874  32.976  12.569
72869NA+    NA+45184  19.554  15.238  10.464
72870NA+    NA+45185  41.988  20.716  12.580
72871NA+    NA+45186  38.492  14.275  13.424
72872NA+    NA+45187  33.129  26.197  13.541
72873NA+    NA+45188  42.290  39.423  12.407
72874NA+    NA+45189  42.294   8.309   3.168
72875NA+    NA+45190   4.827  16.116  14.934
72876NA+    NA+45191  43.470  43.391  12.876
72877NA+    NA+45192   9.367  16.272  14.887
72878NA+    NA+45193  18.079  30.083   5.307
72879NA+    NA+45194  20.074  39.492  12.546
72880NA+    NA+45195  41.020  34.568   4.185
72881NA+    NA+45196  16.630   2.398  14.943
72882NA+    NA+45197  36.552  42.941  14.948
72883NA+    NA+45198  37.477  25.075   4.775
72884NA+    NA+45199  35.526  42.842   3.691
72885NA+    NA+45200  32.550  32.559   0.770
72886NA+    NA+45201   3.796   4.742   9.994
72887NA+    NA+45202  23.205  44.985   0.950
72888NA+    NA+45203   5.879  24.626   0.317
72889NA+    NA+45204  31.058  13.646  10.526
72890NA+    NA+45205  44.454  30.560   4.196
72891NA+    NA+45206   7.815  10.729   4.261
72892NA+    NA+45207  27.587  19.134   0.481
72893NA+    NA+45208   1.794   5.414  13.980
72894NA+    NA+45209  28.659  20.588  13.486
72895NA+    NA+45210  37.926  43.403   3.736
72896NA+    NA+45211  13.221  31.545  13.530
72897NA+    NA+45212  15.326  13.246  10.585
72898NA+    NA+45213  13.250  44.265   4.233
72899NA+    NA+45214  26.613  34.089   2.209
72900NA+    NA+45215  38.517  13.731  13.342
72901NA+    NA+45216  13.615   6.687   2.719
72902NA+    NA+45217  44.465  28.576  11.946
72903NA+    NA+45218  29.467  42.880  11.981
72904NA+    NA+45219  34.900   5.871  13.038
72905NA+    NA+45220   5.771  17.123   3.232
72906NA+    NA+45221  34.463   6.788   2.219
72907NA+    NA+45222  33.543  36.439  14.988
72908NA+    NA+45223  23.082  31.429  10.596
72909NA+    NA+45224  28.578  17.668  14.432
72910NA+    NA+45225  16.570   4.239  12.850
72911NA+    NA+45226   0.341  38.466  10.637
72912NA+    NA+45227   6.866  44.873   4.688
72913NA+    NA+45228   1.929  36.009  13.816
72914NA+    NA+45229  38.334  18.656  12.907
72915NA+    NA+45230  34.565  17.253  12.513
72916NA+    NA+45231  30.091  13.297   4.702
72917NA+    NA+45232  10.208  29.013  10.576
72918NA+    NA+45233  38.002  38.055   0.933
72919NA+    NA+45234  25.013  20.164   2.870
72920NA+    NA+45235  21.092   9.709   0.282
72921NA+    NA+45236  10.286  11.637   1.806
72922NA+    NA+45237  13.292   7.189   5.109
72923NA+    NA+45238   2.891  20.735  11.374
72924NA+    NA+45239  22.711  18.078  10.975
72925NA+    NA+45240  11.836   5.717   2.802
72926NA+    NA+45241  19.136  31.066  12.529
72927NA+    NA+45242  13.813  25.106  11.049
72928NA+    NA+45243  44.834  12.318   3.325
72929NA+    NA+45244  41.361  37.972   4.188
72930NA+    NA+45245   9.225  37.537  10.463
72931NA+    NA+45246  22.699  37.570   2.408
72932NA+    NA+45247   5.933   8.776   4.246
72933NA+    NA+45248  39.477  27.990   4.635
72934NA+    NA+45249   3.303  26.200  13.992
72935NA+    NA+45250  25.181  41.477  13.364
72936NA+    NA+45251  18.111  10.785  14.846
72937NA+    NA+45252  22.174  17.289   1.222
72938NA+    NA+45253  11.261  29.619   2.289
72939NA+    NA+45254  21.099  10.145  13.543
72940NA+    NA+45255   3.830  19.553   0.817
72941NA+    NA+45256  43.394  20.539  14.855
72942NA+    NA+45257  31.963  42.956  11.490
72943NA+    NA+45258  17.172   7.209   1.872
72944NA+    NA+45259  36.523  14.271  10.930
72945NA+    NA+45260  24.051  22.652   0.247
72946NA+    NA+45261  13.246   1.430   1.437
72947NA+    NA+45262   8.206  12.140  11.117
72948NA+    NA+45263  32.577  40.415   4.153
72949NA+    NA+45264  33.046  16.310   3.633
72950NA+    NA+45265   5.318  18.292  11.415
72951NA+    NA+45266  36.561  19.271   2.784
72952NA+    NA+45267  11.282  44.765  14.358
72953NA+    NA+45268   1.422  43.491  10.643
72954NA+    NA+45269  20.680  12.611   4.261
72955NA+    NA+45270  14.829   0.253  10.904
72956NA+    NA+45271  27.002  21.631   4.338
72957NA+    NA+45272   9.395  18.576   3.193
72958NA+    NA+45273  13.642   6.254  12.043
72959NA+    NA+45274  16.734  34.092  12.994
72960NA+    NA+45275  31.570  24.148  11.475
72961NA+    NA+45276   9.320   6.339  12.906
72962NA+    NA+45277  35.860   6.184  12.947
72963NA+    NA+45278  24.718  19.634   4.146
72964NA+    NA+45279  19.603  12.635  13.935
72965NA+    NA+45280  33.595  29.062  11.500
72966NA+    NA+45281  37.939  35.025   1.749
72967NA+    NA+45282  25.541  13.612  12.468
72968NA+    NA+45283   6.336  23.209   1.705
72969NA+    NA+45284  39.456   6.816  13.796
72970NA+    NA+45285   5.694   1.803  12.528
72971NA+    NA+45286   1.413  11.667  12.033
72972NA+    NA+45287  37.541  21.017  14.411
72973NA+    NA+45288  31.599  33.893  13.058
72974NA+    NA+45289  35.432   8.773  10.442
72975NA+    NA+45290  11.189  24.583   3.202
72976NA+    NA+45291  41.313  30.565   2.785
72977NA+    NA+45292  18.786   4.410  11.031
72978NA+    NA+45293   7.873  33.483  11.572
72979NA+    NA+45294  28.027  38.341   1.887
72980NA+    NA+45295   5.710  39.342  13.791
72981NA+    NA+45296   1.786  42.836   2.699
72982NA+    NA+45297  10.866  37.503   1.797
72983NA+    NA+45298   3.335  33.091  12.467
72984NA+    NA+45299  27.588  19.117  10.990
72985NA+    NA+45300  31.133  29.130   3.865
72986NA+    NA+45301  32.534  28.442  12.838
72987NA+    NA+45302   1.413  15.810  12.539
72988NA+    NA+45303  32.985  19.620  11.123
72989NA+    NA+45304  11.227   2.381  13.346
72990NA+    NA+45305   7.297  38.055  12.939
72991NA+    NA+45306  14.616  16.144   0.451
72992NA+    NA+45307  10.361  17.195  14.504
72993NA+    NA+45308  29.919  37.948   2.733
72994NA+    NA+45309  14.235  12.639  12.408
72995NA+    NA+45310  10.743  44.958   0.267
72996NA+    NA+45311  35.592  42.500   1.697
72997NA+    NA+45312  41.296   6.689   0.819
72998NA+    NA+45313  43.924  44.263   1.341
72999NA+    NA+45314   8.884  24.626   2.760
73000NA+    NA+45315  26.200  38.465   4.236
73001NA+    NA+45316  33.969  32.113   2.407
73002NA+    NA+45317  39.948  26.048   2.333
73003NA+    NA+45318  34.564  17.256   1.386
73004NA+    NA+45319  10.824  19.244   4.239
73005NA+    NA+45320  20.213  32.447   1.435
73006NA+    NA+45321  41.327  31.583  10.616
73007NA+    NA+45322  42.451  28.174   3.321
73008NA+    NA+45323  32.421  37.399   4.754
73009NA+    NA+45324  31.424  10.211   4.204
73010NA+    NA+45325  12.695  37.464   1.875
73011NA+    NA+45326  12.696  32.501  14.421
73012NA+    NA+45327  37.508  13.336  12.040
73013NA+    NA+45328   3.340  28.171   3.203
73014NA+    NA+45329   0.811   7.903  11.483
73015NA+    NA+45330  37.469  18.773   1.326
73016NA+    NA+45331  41.512  33.511   3.221
73017NA+    NA+45332  12.782  13.780  13.897
73018NA+    NA+45333   8.817  27.504  10.588
73019NA+    NA+45334  16.142   7.826   0.456
73020NA+    NA+45335  34.488  17.777  12.836
73021NA+    NA+45336   3.402  24.026   4.781
73022NA+    NA+45337   1.874  16.683   4.311
73023NA+    NA+45338   8.867  38.840   4.776
73024NA+    NA+45339  27.574  16.312  13.319
73025NA+    NA+45340  43.941  44.837  11.414
73026NA+    NA+45341  39.429  31.455   4.771
73027NA+    NA+45342  19.708  38.000   2.206
73028NA+    NA+45343  12.345  41.812   3.787
73029NA+    NA+45344  18.119   5.361  14.417
73030NA+    NA+45345  37.359  40.368   5.245
73031NA+    NA+45346  44.812   2.769  12.066
73032NA+    NA+45347  17.215  17.797   0.271
73033NA+    NA+45348   4.313  29.543  12.888
73034NA+    NA+45349  41.913  17.064  11.559
73035NA+    NA+45350  15.730  43.481  11.518
73036NA+    NA+45351  21.152  11.694   0.403
73037NA+    NA+45352  30.127  10.313   1.814
73038NA+    NA+45353  40.534  43.435  12.341
73039NA+    NA+45354   9.185  43.325  11.077
73040NA+    NA+45355  10.662   3.385  10.936
73041NA+    NA+45356  29.070  13.744   4.710
73042NA+    NA+45357   4.707  21.055   1.325
73043NA+    NA+45358  25.109  22.643  14.978
73044NA+    NA+45359  44.443  42.478   3.217
73045NA+    NA+45360  34.490  33.876  13.837
73046NA+    NA+45361  27.618  32.071   0.408
73047NA+    NA+45362  13.328  25.084   0.867
73048NA+    NA+45363  42.467  13.245   1.902
73049NA+    NA+45364  25.707  10.224   1.441
73050NA+    NA+45365  38.862  41.839   4.175
73051NA+    NA+45366   3.923  18.103  11.077
73052NA+    NA+45367   7.819  14.706   1.754
73053NA+    NA+45368  29.136  38.058  12.403
73054NA+    NA+45369  16.080  21.541   2.226
73055NA+    NA+45370  43.335  38.382   0.257
73056NA+    NA+45371  32.106  30.486   0.281
73057NA+    NA+45372  40.851  16.087  12.461
73058NA+    NA+45373  22.504  28.961  14.926
73059NA+    NA+45374  34.116  16.624  11.403
73060NA+    NA+45375  14.742  42.397  14.325
73061NA+    NA+45376  41.972  42.493  12.565
73062NA+    NA+45377  43.457  26.181   0.894
73063NA+    NA+45378  43.808  32.002  12.514
73064NA+    NA+45379  22.699  18.257  11.910
73065NA+    NA+45380  29.010  22.170  12.832
73066NA+    NA+45381  21.715  26.965   0.819
73067NA+    NA+45382  37.912  14.797   2.797
73068NA+    NA+45383  24.213  13.146   0.320
73069NA+    NA+45384  31.459  43.849   2.316
73070NA+    NA+45385   9.363  34.412  11.037
73071NA+    NA+45386  23.655  33.896   0.839
73072NA+    NA+45387   3.840  31.592  14.370
73073NA+    NA+45388  31.515  23.684   2.242
73074NA+    NA+45389  25.070  18.718  11.009
73075NA+    NA+45390  14.316  41.492  11.502
73076NA+    NA+45391  18.614  30.562  14.950
73077NA+    NA+45392  34.019  19.051  11.482
73078NA+    NA+45393   0.972  18.063   1.282
73079NA+    NA+45394   6.727  15.283  13.467
73080NA+    NA+45395  36.036   3.808   2.893
73081NA+    NA+45396  15.639  12.196  13.389
73082NA+    NA+45397  21.105  11.853  14.398
73083NA+    NA+45398  17.701  11.266   3.157
73084NA+    NA+45399  11.704  36.380   3.267
73085NA+    NA+45400  28.956  34.558   2.279
73086NA+    NA+45401   5.924   9.834  12.998
73087NA+    NA+45402  18.659   4.813  13.431
73088NA+    NA+45403  27.464   3.229  12.580
73089NA+    NA+45404   6.802  32.484   3.341
73090NA+    NA+45405   2.927  21.218  12.961
73091NA+    NA+45406  10.804  11.179  10.452
73092NA+    NA+45407  19.584   3.763  13.965
73093NA+    NA+45408   0.443  33.107  11.061
73094NA+    NA+45409  39.007   4.425  14.371
73095NA+    NA+45410   6.887  41.356  12.906
73096NA+    NA+45411  15.700  38.436   0.767
73097NA+    NA+45412  31.124  38.515   1.841
73098NA+    NA+45413  22.143  27.973   1.830
73099NA+    NA+45414  43.859  30.511   1.270
73100NA+    NA+45415  38.864  15.621   4.824
73101NA+    NA+45416  17.264  40.049   2.704
73102NA+    NA+45417   5.244  11.794   3.674
73103NA+    NA+45418  19.168  12.268  12.521
73104NA+    NA+45419   5.795   2.324   0.386
73105NA+    NA+45420   6.297  25.179  10.019
73106NA+    NA+45421  40.945  25.563  12.862
73107NA+    NA+45422   6.316  38.032  10.463
73108NA+    NA+45423  37.415  24.603   5.309
73109NA+    NA+45424  35.594  37.478  13.865
73110NA+    NA+45425  18.708  38.018   4.671
73111NA+    NA+45426  26.556  42.913  12.342
73112NA+    NA+45427   3.434  40.400   3.706
73113NA+    NA+45428  15.197   8.701  12.037
73114NA+    NA+45429  39.856  23.554   0.820
73115NA+    NA+45430   0.266  38.915  11.109
73116NA+    NA+45431  23.013  22.669  13.022
73117NA+    NA+45432   8.818   5.740   3.215
73118NA+    NA+45433   2.411  44.986  11.414
73119NA+    NA+45434  33.397  28.933   0.798
73120NA+    NA+45435   0.418  35.982   3.822
73121NA+    NA+45436  36.580  15.753  13.391
73122NA+    NA+45437  19.696  31.021   1.729
73123NA+    NA+45438  15.582  18.203  11.517
73124NA+    NA+45439  12.265  44.783   2.704
73125NA+    NA+45440  42.828  30.008  12.862
73126NA+    NA+45441  28.990  20.673   4.326
73127NA+    NA+45442  35.058   4.217   3.854
73128NA+    NA+45443  16.235  43.967   1.244
73129NA+    NA+45444   1.404  25.988   0.293
73130NA+    NA+45445  17.614   8.734   4.292
73131NA+    NA+45446  25.633  36.920  11.067
73132NA+    NA+45447   5.818   5.259  12.942
73133NA+    NA+45448  14.136  43.778   2.752
73134NA+    NA+45449   7.202   6.241  10.479
73135NA+    NA+45450  34.029  41.020  11.059
73136NA+    NA+45451  10.342  17.231  12.855
73137NA+    NA+45452  33.530  29.940  11.965
73138NA+    NA+45453  15.647  37.987  13.425
73139NA+    NA+45454  29.454  11.177  13.855
73140NA+    NA+45455   5.833  25.111   1.859
73141NA+    NA+45456  22.036  17.071   3.290
73142NA+    NA+45457  36.950  19.129  10.409
73143NA+    NA+45458  42.976  30.133  10.618
73144NA+    NA+45459   1.400  43.777  12.974
73145NA+    NA+45460  15.293  25.015  11.516
73146NA+    NA+45461  34.529  29.498  14.480
73147NA+    NA+45462  37.053   3.337  11.544
73148NA+    NA+45463  43.333   6.365  10.408
73149NA+    NA+45464   2.890  13.701   1.932
73150NA+    NA+45465  35.064  12.747   4.304
73151NA+    NA+45466  20.119  37.901  12.971
73152NA+    NA+45467  27.962  33.574   1.314
73153NA+    NA+45468  13.690  17.093   2.343
73154NA+    NA+45469  29.935  11.645  14.802
73155NA+    NA+45470  20.741  38.523   1.729
73156NA+    NA+45471  32.091  23.100   0.481
73157NA+    NA+45472   5.194  12.755   2.742
73158NA+    NA+45473  32.897  44.347   0.428
73159NA+    NA+45474  10.316  43.853   4.338
73160NA+    NA+45475  15.734  22.591   2.662
73161NA+    NA+45476  39.042  14.759   4.344
73162NA+    NA+45477   1.793  42.358  13.057
73163NA+    NA+45478  22.039  10.281  10.526
73164NA+    NA+45479  25.606  17.096   1.226
73165NA+    NA+45480  16.698  21.179   0.349
73166NA+    NA+45481  41.314  44.309  14.901
73167NA+    NA+45482  38.928   5.414  11.434
73168NA+    NA+45483  22.241   6.285   0.889
73169NA+    NA+45484  14.607  30.643  14.009
73170NA+    NA+45485  43.417  12.740   1.854
73171NA+    NA+45486  36.566  42.007  10.410
73172NA+    NA+45487  40.923  44.396  12.542
73173NA+    NA+45488  31.053  17.723  11.970
73174NA+    NA+45489   9.155  10.223  10.047
73175NA+    NA+45490  41.997  43.463  10.609
73176NA+    NA+45491  17.576  35.466  12.826
73177NA+    NA+45492  10.277   8.837   2.224
73178NA+    NA+45493  18.561  24.612   2.673
73179NA+    NA+45494   4.392  14.806   3.718
73180NA+    NA+45495  19.762  15.734   3.656
73181NA+    NA+45496   3.735  15.707   1.237
73182NA+    NA+45497  36.846  21.690   1.245
73183NA+    NA+45498   3.855   6.219  11.043
73184NA+    NA+45499  38.021  22.090   0.958
73185NA+    NA+45500  22.718  42.873  13.394
73186NA+    NA+45501  42.027  44.302  14.975
73187NA+    NA+45502   0.777   5.745   4.306
73188NA+    NA+45503  38.881  12.325   3.753
73189NA+    NA+45504   2.330  22.746   4.692
73190NA+    NA+45505  38.515   4.300   4.325
73191NA+    NA+45506  33.445  43.429  14.336
73192NA+    NA+45507  31.055  30.043  12.991
73193NA+    NA+45508  27.511  35.959   4.318
73194NA+    NA+45509  21.573  26.081   1.254
73195NA+    NA+45510  21.206  25.613  10.571
73196NA+    NA+45511  25.637   8.307  11.091
73197NA+    NA+45512  34.551  23.584   1.374
73198NA+    NA+45513  21.627  13.229   0.772
73199NA+    NA+45514  19.055   0.869   0.386
73200NA+    NA+45515  12.747   2.286   1.228
73201NA+    NA+45516   5.879  29.586   4.318
73202NA+    NA+45517   3.400  12.825  13.398
73203NA+    NA+45518  40.801   4.223  14.473
73204NA+    NA+45519  15.159  36.579   3.385
73205NA+    NA+45520  29.532  31.511   3.272
73206NA+    NA+45521  22.133   3.418   3.169
73207NA+    NA+45522  30.613  13.714   3.748
73208NA+    NA+45523  11.244   5.424   2.784
73209NA+    NA+45524   0.273  17.253   2.747
73210NA+    NA+45525  14.325  26.693   2.179
73211NA+    NA+45526  15.665   2.258  12.428
73212NA+    NA+45527  32.449  17.120   0.293
73213NA+    NA+45528  30.440   6.232   1.243
73214NA+    NA+45529  20.055   5.890   3.228
73215NA+    NA+45530  14.820   2.323  12.919
73216NA+    NA+45531  32.075  13.782  14.422
73217NA+    NA+45532   5.347  38.968  12.495
73218NA+    NA+45533  26.106   9.350  11.400
73219NA+    NA+45534  11.753  42.812  12.078
73220NA+    NA+45535   8.184  19.253  11.611
73221NA+    NA+45536   8.302  14.289  12.904
73222NA+    NA+45537  13.136  38.955   2.672
73223NA+    NA+45538  28.549  40.371  13.003
73224NA+    NA+45539  38.995  14.647   3.780
73225NA+    NA+45540  18.275  25.672  14.323
73226NA+    NA+45541  14.828  37.941   3.239
73227NA+    NA+45542   5.697   3.341   2.186
73228NA+    NA+45543  18.565  40.526  10.030
73229NA+    NA+45544   7.248  17.739   4.155
73230NA+    NA+45545  10.665  42.781   4.237
73231NA+    NA+45546  37.499  44.390  11.599
73232NA+    NA+45547  22.110   2.322   3.223
73233NA+    NA+45548  35.098  29.010  13.541
73234NA+    NA+45549  30.592  10.365   4.293
73235NA+    NA+45550   4.248   2.906  11.965
73236NA+    NA+45551  26.679  13.264  11.469
73237NA+    NA+45552  17.574  32.087  11.481
73238NA+    NA+45553  39.995  40.327   4.328
73239NA+    NA+45554  25.135  10.143  11.525
73240NA+    NA+45555  27.583  23.029   0.891
73241NA+    NA+45556  36.528  19.213  13.483
73242NA+    NA+45557  15.712  26.011   2.360
73243NA+    NA+45558  43.347  28.456   1.820
73244NA+    NA+45559  26.067  30.129  13.973
73245NA+    NA+45560  41.291  22.610   4.616
73246NA+    NA+45561  44.407  42.898  13.389
73247NA+    NA+45562  14.158   3.950   3.329
73248NA+    NA+45563  24.672  26.586   4.644
73249NA+    NA+45564  40.455  21.036   1.241
73250NA+    NA+45565  38.343  25.001   3.281
73251NA+    NA+45566   6.256  38.368  13.020
73252NA+    NA+45567  22.538  13.731   3.841
73253NA+    NA+45568  12.293   0.833  14.279
73254NA+    NA+45569  18.594  33.538   4.153
73255NA+    NA+45570  12.287  12.812   1.443
73256NA+    NA+45571  12.853  38.517  12.998
73257NA+    NA+45572  11.656  31.015  11.902
73258NA+    NA+45573  25.710  32.497  11.451
73259NA+    NA+45574  26.166  36.087  13.928
73260NA+    NA+45575   3.754   6.213   1.730
73261NA+    NA+45576  11.694   1.319  13.338
73262NA+    NA+45577   0.427  11.838   2.358
73263NA+    NA+45578  20.759  35.092  12.428
73264NA+    NA+45579  21.049  33.984  10.434
73265NA+    NA+45580   4.304   9.723   3.299
73266NA+    NA+45581  34.055  40.863  13.933
73267NA+    NA+45582   8.349  30.624  12.500
73268NA+    NA+45583  41.804  15.237   0.396
73269NA+    NA+45584  44.963  19.158  13.951
73270NA+    NA+45585  42.025   8.796  14.468
73271NA+    NA+45586   6.911  29.093  11.986
73272NA+    NA+45587  12.292  16.802  12.341
73273NA+    NA+45588   0.790  37.560  12.840
73274NA+    NA+45589  20.217   9.392  11.498
73275NA+    NA+45590  24.092  36.498  14.796
73276NA+    NA+45591  11.176  38.389   0.751
73277NA+    NA+45592  18.660   6.418  10.584
73278NA+    NA+45593  20.178   7.853  13.318
73279NA+    NA+45594  30.454  36.051  13.039
73280NA+    NA+45595  41.945  40.899   0.800
73281NA+    NA+45596   9.290  18.233  10.450
73282NA+    NA+45597   6.801   0.375   3.816
73283NA+    NA+45598  35.603  36.503   1.425
73284NA+    NA+45599  30.498  43.966   3.230
73285NA+    NA+45600  33.392  24.498   4.353
73286NA+    NA+45601   8.797  13.244   2.342
73287NA+    NA+45602  35.360  39.405  10.553
73288NA+    NA+45603  34.034  18.124   1.736
73289NA+    NA+45604  27.590  14.304   3.167
73290NA+    NA+45605  22.247   8.177  14.943
73291NA+    NA+45606  11.739  31.073  11.024
73292NA+    NA+45607  24.031   4.358  12.446
73293NA+    NA+45608  43.886  31.141  12.924
73294NA+    NA+45609  14.636   9.762  11.402
73295NA+    NA+45610  20.616  19.178  10.918
73296NA+    NA+45611  19.636   4.744  14.447
73297NA+    NA+45612  42.929  15.793   3.295
73298NA+    NA+45613   2.265  43.986   2.380
73299NA+    NA+45614  30.099  34.032   3.155
73300NA+    NA+45615  17.791  38.908   4.731
73301NA+    NA+45616  17.133   2.227  11.403
73302NA+    NA+45617  43.335  13.211  13.382
73303NA+    NA+45618   1.262  19.633   4.708
73304NA+    NA+45619   5.439  17.100  10.968
73305NA+    NA+45620  34.995  22.667  11.912
73306NA+    NA+45621  19.566  24.148  11.405
73307NA+    NA+45622  10.745  23.684   4.685
73308NA+    NA+45623   5.786  23.551  11.959
73309NA+    NA+45624  18.694   1.921   3.309
73310NA+    NA+45625  20.186  30.414  10.635
73311NA+    NA+45626  34.485   0.304   2.895
73312NA+    NA+45627  16.762  19.136  11.941
73313NA+    NA+45628  37.345  28.473  12.927
73314NA+    NA+45629  27.147  20.096   3.150
73315NA+    NA+45630  41.517  43.860   1.345
73316NA+    NA+45631  17.578  19.566  14.783
73317NA+    NA+45632  13.328  27.109  10.556
73318NA+    NA+45633   0.446  36.534  14.761
73319NA+    NA+45634  17.559  40.516  14.987
73320NA+    NA+45635   6.898   9.683   0.744
73321NA+    NA+45636  18.671  20.639   3.156
73322NA+    NA+45637  36.008  37.461   0.844
73323NA+    NA+45638  31.598   7.910   0.837
73324NA+    NA+45639  10.808   6.892  12.983
73325NA+    NA+45640  31.479  17.698   1.211
73326NA+    NA+45641  39.519  12.836   0.957
73327NA+    NA+45642  13.677  31.065  12.576
73328NA+    NA+45643  42.888  35.527  12.892
73329NA+    NA+45644  29.577  40.394   2.872
73330NA+    NA+45645  40.545  31.490  10.889
73331NA+    NA+45646  26.170  26.587  13.548
73332NA+    NA+45647  21.710  43.318  14.373
73333NA+    NA+45648  13.212  19.742  14.944
73334NA+    NA+45649  14.340  17.703  12.521
73335NA+    NA+45650   6.828  11.151  11.892
73336NA+    NA+45651  32.448  12.842   2.259
73337NA+    NA+45652   0.856  33.119   4.667
73338NA+    NA+45653   5.207  20.708   1.823
73339NA+    NA+45654  35.556  18.730  11.467
73340NA+    NA+45655  19.679   0.988  11.036
73341NA+    NA+45656  41.971  40.850  12.032
73342NA+    NA+45657  11.834  43.488   1.723
73343NA+    NA+45658   7.829  22.722  12.077
73344NA+    NA+45659   7.296  39.938  11.433
73345NA+    NA+45660  39.928  37.565   0.390
73346NA+    NA+45661  22.145  42.986  10.435
73347NA+    NA+45662  44.493  31.913   2.277
73348NA+    NA+45663   6.696  22.195   3.241
73349NA+    NA+45664  35.453   5.751   3.785
73350NA+    NA+45665  19.058   7.177   2.814
73351NA+    NA+45666   5.304  12.173   4.640
73352NA+    NA+45667  40.041  43.793  10.938
73353NA+    NA+45668  29.998  39.882  12.045
73354NA+    NA+45669  34.457  16.625   1.749
73355NA+    NA+45670   8.821  43.441   0.311
73356NA+    NA+45671  37.888  27.579   4.332
73357NA+    NA+45672  28.526  19.132   4.113
73358NA+    NA+45673  42.474  43.788   4.673
73359NA+    NA+45674  14.695   3.306   9.957
73360NA+    NA+45675  22.145  12.782   2.754
73361NA+    NA+45676  28.087  15.796   4.749
73362NA+    NA+45677  25.047   9.306   1.771
73363NA+    NA+45678   0.745  38.978   4.153
73364NA+    NA+45679   4.773  43.841   0.771
73365NA+    NA+45680  19.129  28.638   9.977
73366NA+    NA+45681  23.050   2.314  13.540
73367NA+    NA+45682   5.256  34.030   0.244
73368NA+    NA+45683  22.543  15.188  12.913
73369NA+    NA+45684   3.245  26.086   4.689
73370NA+    NA+45685  10.247  11.803   4.771
73371NA+    NA+45686  18.072   6.797   4.141
73372NA+    NA+45687  32.424  44.336  14.883
73373NA+    NA+45688  34.522  33.954  11.889
73374NA+    NA+45689  22.734  22.538   3.218
73375NA+    NA+45690  17.088   3.858  10.627
73376NA+    NA+45691   1.438  18.569   4.619
73377NA+    NA+45692  38.059  36.098   0.784
73378NA+    NA+45693  39.442  24.692  12.500
73379NA+    NA+45694   6.382  12.221   1.351
73380NA+    NA+45695  16.179  39.553  11.430
73381NA+    NA+45696   7.204  38.005   2.820
73382NA+    NA+45697   4.298  29.463   0.403
73383NA+    NA+45698   0.282  29.644  12.023
73384NA+    NA+45699  32.002  17.709  11.599
73385NA+    NA+45700  37.857  40.463  13.869
73386NA+    NA+45701   4.714  25.214   1.395
73387NA+    NA+45702  19.058  25.631  13.831
73388NA+    NA+45703  23.533  28.975  14.354
73389NA+    NA+45704  11.661   5.790   4.720
73390NA+    NA+45705   4.214  25.006   3.184
73391NA+    NA+45706  26.462  16.711  11.943
73392NA+    NA+45707  25.533   1.451   4.789
73393NA+    NA+45708  28.126  33.441   2.674
73394NA+    NA+45709   2.870  42.784  12.840
73395NA+    NA+45710  24.591  29.424   1.794
73396NA+    NA+45711  29.634  38.536   2.828
73397NA+    NA+45712   2.427  22.674   4.226
73398NA+    NA+45713  13.762  44.317  12.448
73399NA+    NA+45714  10.705  19.103   3.371
73400NA+    NA+45715   1.295  22.520   3.286
73401NA+    NA+45716  19.583   6.693  11.413
73402NA+    NA+45717  32.557  16.158  12.416
73403NA+    NA+45718  25.213  18.587   3.290
73404NA+    NA+45719  44.826   2.248   1.213
73405NA+    NA+45720  28.162  44.413  12.014
73406NA+    NA+45721  15.788  14.154   1.417
73407NA+    NA+45722  36.569  37.026   4.657
73408NA+    NA+45723  27.954  40.379  11.399
73409NA+    NA+45724   0.427  19.668  13.990
73410NA+    NA+45725  35.923  40.403  12.513
73411NA+    NA+45726  31.450  41.335   4.785
73412NA+    NA+45727  14.125   9.764   9.971
73413NA+    NA+45728  19.229   1.355  11.605
73414NA+    NA+45729   8.729   3.803  12.056
73415NA+    NA+45730   0.928  33.959   3.659
73416NA+    NA+45731   5.748  12.305   1.342
73417NA+    NA+45732  29.939  20.768   0.752
73418NA+    NA+45733  11.721  10.300  12.402
73419NA+    NA+45734  23.024  19.183   3.700
73420NA+    NA+45735  40.336  44.410  12.956
73421NA+    NA+45736   5.298   9.648  14.381
73422NA+    NA+45737  11.352  33.461   2.823
73423NA+    NA+45738  18.257  18.692   3.835
73424NA+    NA+45739   2.751   6.877  14.430
73425NA+    NA+45740  24.576  38.334   0.389
73426NA+    NA+45741  33.568  28.072   5.087
73427NA+    NA+45742  15.117  15.270   4.808
73428NA+    NA+45743  38.453  19.771   3.191
73429NA+    NA+45744  12.331  41.345   0.299
73430NA+    NA+45745  37.956  35.571  14.408
73431NA+    NA+45746  25.692   9.834   2.765
73432NA+    NA+45747  27.945  14.724   3.690
73433NA+    NA+45748  33.110  39.929   2.744
73434NA+    NA+45749  13.124   3.738  14.928
73435NA+    NA+45750  11.269  19.151   5.181
73436NA+    NA+45751   3.279   4.333   3.175
73437NA+    NA+45752  37.077  27.511   0.727
73438NA+    NA+45753  41.894  23.034  11.936
73439NA+    NA+45754   7.877   7.753   1.762
73440NA+    NA+45755  21.125  34.048  13.374
73441NA+    NA+45756  11.715   8.741  13.964
73442NA+    NA+45757  27.943  13.120  10.617
73443NA+    NA+45758  10.251  26.191   2.747
73444NA+    NA+45759   4.419  24.122  12.451
73445NA+    NA+45760  42.847   8.178  10.414
73446NA+    NA+45761   9.386  34.915  11.584
73447NA+    NA+45762  37.904  31.599  12.963
73448NA+    NA+45763  39.474   4.205  14.436
73449NA+    NA+45764  24.603  33.512   3.677
73450NA+    NA+45765   6.709  33.018   2.767
73451NA+    NA+45766  15.097  21.598  13.312
73452NA+    NA+45767  36.990  26.476  10.614
73453NA+    NA+45768  14.161   0.338   1.373
73454NA+    NA+45769  28.942  32.553  13.941
73455NA+    NA+45770   4.812  10.206  11.108
73456NA+    NA+45771  33.007  43.810  12.951
73457NA+    NA+45772  10.684   8.181   3.174
73458NA+    NA+45773   3.847  13.737   1.348
73459NA+    NA+45774  22.564  41.507   0.327
73460NA+    NA+45775  29.079  39.868   2.899
73461NA+    NA+45776  10.163  23.652  13.523
73462NA+    NA+45777  42.788   9.358   4.836
73463NA+    NA+45778  25.713  41.809   3.815
73464NA+    NA+45779   8.703   6.388   4.802
73465NA+    NA+45780   5.372  26.485  14.002
73466NA+    NA+45781  32.499  30.949  10.435
73467NA+    NA+45782  39.401   7.172  14.880
73468NA+    NA+45783   5.767  20.700   2.380
73469NA+    NA+45784  43.297  18.191   0.253
73470NA+    NA+45785  38.334   7.199   1.844
73471NA+    NA+45786  26.502  23.202  13.325
73472NA+    NA+45787  26.159  33.422  13.846
73473NA+    NA+45788  42.400   6.756  12.011
73474NA+    NA+45789  36.566  33.908  13.464
73475NA+    NA+45790  39.399  24.210  10.127
73476NA+    NA+45791  27.583  42.904  10.501
73477NA+    NA+45792  11.166  24.039  14.499
73478NA+    NA+45793  33.388  22.715   3.267
73479NA+    NA+45794   1.903  20.132  13.807
73480NA+    NA+45795  39.064  35.013  14.972
73481NA+    NA+45796  20.142  30.567   2.285
73482NA+    NA+45797   8.790  38.405   2.332
73483NA+    NA+45798  37.350  42.414   1.227
73484NA+    NA+45799  39.378  17.113   3.812
73485NA+    NA+45800  13.680  30.058  14.465
73486NA+    NA+45801  34.524  32.408  14.843
73487NA+    NA+45802  27.113  33.110  10.047
73488NA+    NA+45803  14.592  22.539   4.757
73489NA+    NA+45804  22.161  39.361   4.649
73490NA+    NA+45805  14.627  26.581  14.353
73491NA+    NA+45806  30.498  42.320  11.027
73492NA+    NA+45807  35.524  16.108  14.449
73493NA+    NA+45808  15.677  24.090   3.867
73494NA+    NA+45809  29.065  17.743  12.020
73495NA+    NA+45810  18.711  16.149  12.503
73496NA+    NA+45811  20.105   9.845  11.457
73497NA+    NA+45812  21.048  11.189   0.243
73498NA+    NA+45813  13.166   7.204   0.396
73499NA+    NA+45814  39.334  43.862  12.862
73500NA+    NA+45815  14.126  27.161  13.376
73501NA+    NA+45816  36.093  23.229   1.892
73502NA+    NA+45817   2.763   1.893   1.859
73503NA+    NA+45818   3.411  30.584  10.438
73504NA+    NA+45819   0.301  23.001  11.402
73505NA+    NA+45820  34.080  41.981  13.490
73506NA+    NA+45821  23.170  39.995  11.502
73507NA+    NA+45822  39.997  33.381  12.944
73508NA+    NA+45823  17.097  27.137  11.879
73509NA+    NA+45824  13.696  16.566  11.574
73510NA+    NA+45825  21.656  18.781  12.978
73511NA+    NA+45826  44.267  24.206  11.926
73512NA+    NA+45827  24.100  36.020   3.201
73513NA+    NA+45828   1.824  27.089  14.860
73514NA+    NA+45829  34.988  10.157   2.762
73515NA+    NA+45830  28.459  29.636  14.867
73516NA+    NA+45831  12.693  33.513   2.694
73517NA+    NA+45832  22.697   1.909  11.076
73518NA+    NA+45833   7.172  22.571   0.317
73519NA+    NA+45834  26.095  35.936  12.538
73520NA+    NA+45835  35.982  33.626   2.742
73521NA+    NA+45836  22.145  24.651   1.906
73522NA+    NA+45837  22.597  26.601   0.871
73523NA+    NA+45838  24.172  35.504   3.697
73524NA+    NA+45839  40.547  39.992   4.780
73525NA+    NA+45840  21.670  14.104   3.329
73526NA+    NA+45841  38.388  26.634   4.805
73527NA+    NA+45842   5.803  39.047   1.852
73528NA+    NA+45843   1.800  22.056   4.801
73529NA+    NA+45844   0.247   2.751  14.817
73530NA+    NA+45845  12.188  20.540   4.277
73531NA+    NA+45846  33.906  38.036   3.330
73532NA+    NA+45847  27.596  23.723   2.712
73533NA+    NA+45848  32.069  17.097   0.876
73534NA+    NA+45849   9.206   1.914  12.575
73535NA+    NA+45850  17.558  23.535   1.865
73536NA+    NA+45851  11.674  38.925  14.435
73537NA+    NA+45852  19.125  28.629   2.380
73538NA+    NA+45853  26.602   1.305   3.307
73539NA+    NA+45854  24.654  25.103  11.381
73540NA+    NA+45855  39.919  33.524   1.451
73541NA+    NA+45856  24.631  23.589   1.717
73542NA+    NA+45857  38.040  19.662   1.741
73543NA+    NA+45858  41.443  19.208   1.437
73544NA+    NA+45859  40.513  18.095   0.392
73545NA+    NA+45860  13.681  21.264   3.849
73546NA+    NA+45861   5.238  13.743  13.988
73547NA+    NA+45862  32.507  39.853   3.856
73548NA+    NA+45863  40.806  25.712  10.472
73549NA+    NA+45864   1.863  37.043   4.613
73550NA+    NA+45865  15.636  44.759   4.746
73551NA+    NA+45866  13.265  13.127   4.716
73552NA+    NA+45867  34.474   9.814  10.478
73553NA+    NA+45868  23.604  13.754   1.844
73554NA+    NA+45869   8.851  44.969  13.807
73555NA+    NA+45870  33.937  36.456   0.812
73556NA+    NA+45871   3.363  13.780  14.855
73557NA+    NA+45872  36.579   6.877   1.264
73558NA+    NA+45873  22.171  23.548   1.698
73559NA+    NA+45874   2.845  29.662  12.057
73560NA+    NA+45875   7.276  14.763   4.342
73561NA+    NA+45876  32.536  14.156  11.990
73562NA+    NA+45877  35.981  42.441   4.257
73563NA+    NA+45878  17.595   8.851   1.363
73564NA+    NA+45879  20.269  37.508   1.831
73565NA+    NA+45880  42.516  35.512   2.764
73566NA+    NA+45881  19.273   2.373   4.637
73567NA+    NA+45882  13.267  44.392  10.950
73568NA+    NA+45883  15.611   5.284   2.719
73569NA+    NA+45884  21.701  38.047  14.974
73570NA+    NA+45885  25.039  20.258   3.669
73571NA+    NA+45886   1.262  23.073   3.157
73572NA+    NA+45887  25.655  19.681  12.543
73573NA+    NA+45888  11.273   5.282   3.660
73574NA+    NA+45889  38.339   2.433   2.813
73575NA+    NA+45890  43.793  13.619  11.037
73576NA+    NA+45891  15.714  43.791   1.434
73577NA+    NA+45892  24.668  28.015   1.823
73578NA+    NA+45893  24.556  31.988  11.105
73579NA+    NA+45894  15.150   0.906   2.350
73580NA+    NA+45895   4.709  23.133  13.326
73581NA+    NA+45896  37.435  30.466   2.341
73582NA+    NA+45897  23.733  18.603   9.998
73583NA+    NA+45898   5.896  25.585  10.936
73584NA+    NA+45899  39.426   4.888   2.828
73585NA+    NA+45900  38.054  16.171  14.833
73586NA+    NA+45901  32.454   2.299   2.387
73587NA+    NA+45902   1.750  43.003   0.410
73588NA+    NA+45903  17.628  16.161  10.910
73589NA+    NA+45904  33.127  24.998   1.441
73590NA+    NA+45905  22.081   2.796  10.995
73591NA+    NA+45906  17.773  33.596  13.526
73592NA+    NA+45907  23.128  28.044   3.764
73593NA+    NA+45908  29.969  42.790  12.360
73594NA+    NA+45909  25.028   4.222  12.046
73595NA+    NA+45910  16.759   3.777  11.096
73596NA+    NA+45911  43.415   0.979  12.431
73597NA+    NA+45912  27.606  21.084   3.762
73598NA+    NA+45913   2.937  44.961  12.526
73599NA+    NA+45914   3.451  22.747   3.305
73600NA+    NA+45915   7.875  39.934  13.463
73601NA+    NA+45916  22.540  33.436   3.690
73602NA+    NA+45917  21.260  15.761  11.500
73603NA+    NA+45918  28.148  25.054  11.085
73604NA+    NA+45919  11.281  30.618   0.963
73605NA+    NA+45920  10.748  27.073   3.275
73606NA+    NA+45921   5.400  29.921   0.812
73607NA+    NA+45922  33.392  30.126   9.947
73608NA+    NA+45923   8.261   6.350   0.307
73609NA+    NA+45924  36.552  30.986   3.722
73610NA+    NA+45925  35.433  27.182  10.565
73611NA+    NA+45926  19.132  21.192  14.351
73612NA+    NA+45927  27.613  24.618   0.278
73613NA+    NA+45928  10.704   1.378   1.898
73614NA+    NA+45929  21.678   3.281  13.547
73615NA+    NA+45930  20.691   9.675  14.437
73616NA+    NA+45931   8.186  37.853   3.324
73617NA+    NA+45932  10.642  37.865   2.301
73618NA+    NA+45933  14.760  10.807  13.473
73619NA+    NA+45934  15.786  41.381  11.079
73620NA+    NA+45935  26.475   0.351  10.040
73621NA+    NA+45936   6.797  11.247   2.190
73622NA+    NA+45937  38.421  38.940   0.806
73623NA+    NA+45938  29.929  11.864   2.229
73624NA+    NA+45939  33.954  17.710  13.996
73625NA+    NA+45940   3.304  18.580   1.746
73626NA+    NA+45941  29.500  29.661  13.013
73627NA+    NA+45942   4.770  10.352   0.314
73628NA+    NA+45943  44.391  31.146   4.828
73629NA+    NA+45944  11.144  20.102   0.785
73630NA+    NA+45945  37.370   4.727   3.291
73631NA+    NA+45946  16.780  29.118   2.205
73632NA+    NA+45947  31.570  40.820  10.473
73633NA+    NA+45948  40.898  28.522  10.517
73634NA+    NA+45949  24.022   3.359  11.510
73635NA+    NA+45950  21.636  33.553   3.697
73636NA+    NA+45951   7.325  38.466   3.686
73637NA+    NA+45952  26.172  39.877  13.363
73638NA+    NA+45953  19.555  35.488   3.762
73639NA+    NA+45954  25.559   6.816  11.514
73640NA+    NA+45955  36.475  10.185  11.481
73641NA+    NA+45956  37.494  25.165  13.816
73642NA+    NA+45957  23.046  29.129  10.642
73643NA+    NA+45958  40.006  42.301   2.376
73644NA+    NA+45959  41.887   5.717  12.866
73645NA+    NA+45960  14.298   1.810  13.876
73646NA+    NA+45961  23.186  14.720  11.435
73647NA+    NA+45962   9.807  15.637   3.179
73648NA+    NA+45963  30.415  17.753   1.851
73649NA+    NA+45964  26.023  26.582   2.724
73650NA+    NA+45965  22.572  13.138   2.852
73651NA+    NA+45966  34.048   4.773   2.893
73652NA+    NA+45967  30.053   6.701  12.001
73653NA+    NA+45968  10.270  14.287  13.380
73654NA+    NA+45969  33.525  27.618  13.030
73655NA+    NA+45970   2.758  32.537  12.825
73656NA+    NA+45971  35.070  29.599  13.379
73657NA+    NA+45972   0.945  14.634  11.933
73658NA+    NA+45973  28.100   5.292   1.836
73659NA+    NA+45974  29.115  38.386   1.367
73660NA+    NA+45975  18.207  30.446  13.957
73661NA+    NA+45976  23.585  35.422   4.755
73662NA+    NA+45977  30.049   4.220   4.742
73663NA+    NA+45978  40.539  24.122   3.819
73664NA+    NA+45979   9.739  21.163   2.812
73665NA+    NA+45980   5.299  22.530   0.252
73666NA+    NA+45981  43.290  14.669   4.314
73667NA+    NA+45982  38.448   9.343   1.862
73668NA+    NA+45983   5.295   9.341   4.680
73669NA+    NA+45984  36.983  43.397  12.496
73670NA+    NA+45985  25.622  26.968   4.237
73671NA+    NA+45986  35.446  30.912   2.898
73672NA+    NA+45987   5.859  39.869   1.317
73673NA+    NA+45988   4.846  26.042   3.380
73674NA+    NA+45989  38.893   8.346   3.368
73675NA+    NA+45990   0.911  10.138   0.855
73676NA+    NA+45991  41.882  19.176  14.831
73677NA+    NA+45992  38.918  23.602   2.720
73678NA+    NA+45993   7.408  33.024   0.253
73679NA+    NA+45994   6.857  10.808   3.824
73680NA+    NA+45995  44.408  24.009   2.688
73681NA+    NA+45996   2.251  22.518   2.858
73682NA+    NA+45997  30.916  21.232  13.392
73683NA+    NA+45998   8.767  11.697  11.377
73684NA+    NA+45999  36.960  20.153  11.565
73685NA+    NA+46000  37.559   0.965   0.822
73686NA+    NA+46001  25.072   1.868  13.485
73687NA+    NA+46002  31.510   1.790   1.332
73688NA+    NA+46003   0.965   0.906  12.574
73689NA+    NA+46004   8.736  40.481   0.747
73690NA+    NA+46005  28.977   6.851  14.832
73691NA+    NA+46006   8.199  16.281  13.903
73692NA+    NA+46007  43.407  20.683  11.387
73693NA+    NA+46008  22.166  32.981  14.776
73694NA+    NA+46009   5.396  19.780   2.845
73695NA+    NA+46010  13.712  20.660   3.275
73696NA+    NA+46011  18.760   5.313  12.044
73697NA+    NA+46012  29.606  11.298  13.361
73698NA+    NA+46013  12.750  27.999  12.508
73699NA+    NA+46014   1.801   4.394  11.048
73700NA+    NA+46015  32.077  41.445   3.254
73701NA+    NA+46016  32.482  41.473   1.713
73702NA+    NA+46017  26.107  24.993   0.782
73703NA+    NA+46018   2.441  19.773   0.751
73704NA+    NA+46019  37.427  43.409  11.414
73705NA+    NA+46020  43.481  40.913   0.304
73706NA+    NA+46021  13.225  37.921   3.771
73707NA+    NA+46022  25.191  21.062   2.830
73708NA+    NA+46023  39.402   0.424  12.866
73709NA+    NA+46024  15.816  28.056  14.968
73710NA+    NA+46025  34.415   2.295   2.364
73711NA+    NA+46026  34.863  42.880   3.651
73712NA+    NA+46027   6.782  24.708  10.531
73713NA+    NA+46028  13.664   9.174   4.203
73714NA+    NA+46029  23.011  16.132   0.760
73715NA+    NA+46030   8.244  42.887   2.235
73716NA+    NA+46031  10.333  39.479   0.411
73717NA+    NA+46032  40.936  36.411  12.485
73718NA+    NA+46033   3.287  33.957  10.996
73719NA+    NA+46034  20.564   8.824  14.356
73720NA+    NA+46035  39.403  17.125  12.866
73721NA+    NA+46036  17.239   0.963   4.181
73722NA+    NA+46037  19.054  28.169   4.337
73723NA+    NA+46038  23.650  16.198  11.129
73724NA+    NA+46039  33.896  42.367  12.457
73725NA+    NA+46040  23.140  27.555  11.890
73726NA+    NA+46041  33.611  38.937   4.621
73727NA+    NA+46042  42.455  22.717  11.070
73728NA+    NA+46043  39.495  22.598  10.429
73729NA+    NA+46044  23.102  35.555  14.008
73730NA+    NA+46045  17.581  40.888   5.571
73731NA+    NA+46046  40.427  30.506   1.867
73732NA+    NA+46047  13.107  27.984  12.964
73733NA+    NA+46048  15.162   8.789  11.433
73734NA+    NA+46049  25.026   6.311   5.172
73735NA+    NA+46050   7.341   2.802  11.928
73736NA+    NA+46051   5.229  21.584  11.013
73737NA+    NA+46052  25.994  26.572   1.737
73738NA+    NA+46053  19.211  30.593   2.668
73739NA+    NA+46054  36.040  17.261   4.194
73740NA+    NA+46055  19.176  31.515  12.385
73741NA+    NA+46056  41.424  25.524  10.592
73742NA+    NA+46057   2.733  33.512   4.703
73743NA+    NA+46058  35.555  26.641  12.838
73744NA+    NA+46059  31.515  21.181   1.789
73745NA+    NA+46060  38.057  10.874   4.235
73746NA+    NA+46061  35.526  39.411  14.303
73747NA+    NA+46062  26.130  44.481  11.857
73748NA+    NA+46063  18.221   1.279   3.871
73749NA+    NA+46064  20.194  24.181  13.851
73750NA+    NA+46065  29.508   8.215   2.346
73751NA+    NA+46066  16.612   5.820  13.410
73752NA+    NA+46067  33.494  27.055  13.017
73753NA+    NA+46068  28.071   8.900   0.360
73754NA+    NA+46069   3.787  42.486  14.391
73755NA+    NA+46070  11.334  22.537  10.929
73756NA+    NA+46071  21.622  42.355  13.062
73757NA+    NA+46072  23.228  31.926  10.532
73758NA+    NA+46073  10.185  37.853   3.168
73759NA+    NA+46074  34.010  40.512  10.946
73760NA+    NA+46075  26.105  38.414   0.891
73761NA+    NA+46076  20.635  18.685   4.320
73762NA+    NA+46077  22.248   3.824  13.538
73763NA+    NA+46078   7.716  25.085  14.811
73764NA+    NA+46079  34.431  14.753  12.479
73765NA+    NA+46080  21.067  37.408   1.773
73766NA+    NA+46081  13.281   2.744  12.463
73767NA+    NA+46082   6.717  32.412   2.221
73768NA+    NA+46083  36.574  17.091  12.032
73769NA+    NA+46084  33.483   7.739   2.255
73770NA+    NA+46085  14.613  35.964  13.987
73771NA+    NA+46086  31.063  32.109  14.983
73772NA+    NA+46087  21.657   1.376  14.897
73773NA+    NA+46088   1.758  16.292   2.208
73774NA+    NA+46089  39.540  16.585  12.039
73775NA+    NA+46090   4.282  24.708   4.150
73776NA+    NA+46091  16.084  22.250  13.480
73777NA+    NA+46092  37.977  32.521   4.806
73778NA+    NA+46093  23.513   4.918  13.384
73779NA+    NA+46094  37.553  19.229  11.043
73780NA+    NA+46095   9.309  40.922   2.211
73781NA+    NA+46096  19.091  24.531  10.943
73782NA+    NA+46097  26.684  30.046  14.897
73783NA+    NA+46098  30.096  32.515  14.948
73784NA+    NA+46099  19.658  23.120  12.537
73785NA+    NA+46100  34.544   5.734   1.757
73786NA+    NA+46101  10.269  11.283  10.128
73787NA+    NA+46102  16.218  22.561   4.330
73788NA+    NA+46103  23.016   0.884   3.860
73789NA+    NA+46104  19.749  42.328   3.707
73790NA+    NA+46105  22.607  43.457   0.423
73791NA+    NA+46106  27.636   0.908   3.269
73792NA+    NA+46107  37.022   9.295  14.375
73793NA+    NA+46108  34.935  21.708   1.877
73794NA+    NA+46109  31.988  34.480  10.618
73795NA+    NA+46110  20.178  21.624   0.318
73796NA+    NA+46111   7.843  10.382   1.760
73797NA+    NA+46112   9.859   7.364  13.026
73798NA+    NA+46113  26.609  35.497  14.969
73799NA+    NA+46114  14.250   7.774   5.199
73800NA+    NA+46115   1.787  34.918   3.387
73801NA+    NA+46116  30.935   7.770   2.705
73802NA+    NA+46117  34.070   7.252   0.959
73803NA+    NA+46118  36.485  15.683  12.877
73804NA+    NA+46119  39.435  29.942   4.635
73805NA+    NA+46120  32.543  13.159   2.367
73806NA+    NA+46121  19.150  13.645   0.337
73807NA+    NA+46122  35.488  21.086   1.373
73808NA+    NA+46123  15.794  36.060   1.243
73809NA+    NA+46124  44.950  39.527  11.856
73810NA+    NA+46125  43.898  17.726  13.917
73811NA+    NA+46126   1.971  33.919   4.801
73812NA+    NA+46127   9.163  19.650   0.313
73813NA+    NA+46128  26.587  30.421  11.039
73814NA+    NA+46129  33.891  19.632   3.285
73815NA+    NA+46130  41.846  36.848   4.636
73816NA+    NA+46131  15.823  29.014  13.886
73817NA+    NA+46132  18.264  29.666  11.489
73818NA+    NA+46133   1.823  29.001   3.655
73819NA+    NA+46134  28.002  14.291  12.976
73820NA+    NA+46135  28.616  13.194   4.203
73821NA+    NA+46136   8.865  25.992   3.862
73822NA+    NA+46137   8.276  10.823   2.771
73823NA+    NA+46138   3.262  38.950   2.832
73824NA+    NA+46139   8.770  17.132  12.564
73825NA+    NA+46140   9.852  37.528   2.850
73826NA+    NA+46141   9.319  26.170   4.143
73827NA+    NA+46142  38.996  18.218   0.878
73828NA+    NA+46143  17.295  15.266  13.457
73829NA+    NA+46144  42.792   4.217   0.430
73830NA+    NA+46145  25.017  23.516   1.834
73831NA+    NA+46146  25.547  13.240  14.924
73832NA+    NA+46147  31.610  42.797  10.617
73833NA+    NA+46148  40.394   7.861   1.267
73834NA+    NA+46149  26.679  41.437  13.317
73835NA+    NA+46150  11.301  28.090   1.370
73836NA+    NA+46151  26.509  17.658  13.353
73837NA+    NA+46152  35.944  26.958  13.513
73838NA+    NA+46153  28.130  15.758  13.437
73839NA+    NA+46154  36.971  32.574  14.935
73840NA+    NA+46155   2.325  13.673   2.301
73841NA+    NA+46156  38.483  13.659  10.461
73842NA+    NA+46157  16.129  33.501   0.359
73843NA+    NA+46158  35.089  27.196   3.665
73844NA+    NA+46159  28.453  26.123  14.987
73845NA+    NA+46160   6.722  30.573   1.919
73846NA+    NA+46161  10.878  39.544   3.223
73847NA+    NA+46162  29.105  38.449   3.342
73848NA+    NA+46163  17.179  42.872  13.962
73849NA+    NA+46164  33.424  14.252  13.972
73850NA+    NA+46165  35.002  22.187  10.968
73851NA+    NA+46166   4.734  20.602   1.776
73852NA+    NA+46167  12.628  34.575  12.028
73853NA+    NA+46168   3.763  12.225   3.828
73854NA+    NA+46169  18.176   5.346   1.878
73855NA+    NA+46170  14.249  34.541   1.790
73856NA+    NA+46171  35.079  42.319   2.377
73857NA+    NA+46172  22.027  11.341   2.756
73858NA+    NA+46173  22.023  15.744   0.276
73859NA+    NA+46174   3.781  39.320  14.011
73860NA+    NA+46175  17.295  20.123  10.599
73861NA+    NA+46176  39.528   2.963  10.634
73862NA+    NA+46177  30.471  39.477  12.036
73863NA+    NA+46178  32.455  11.129  14.413
73864NA+    NA+46179  22.563  19.208  12.047
73865NA+    NA+46180  24.077   6.716  14.979
73866NA+    NA+46181  30.566   3.404  14.432
73867NA+    NA+46182   2.794   0.413   0.370
73868NA+    NA+46183  32.098  22.734   1.212
73869NA+    NA+46184  35.898  25.555   0.872
73870NA+    NA+46185  44.923  24.004   0.780
73871NA+    NA+46186  27.028  15.291  14.950
73872NA+    NA+46187  20.719  33.119  12.893
73873NA+    NA+46188   6.303  36.975   4.610
73874NA+    NA+46189  37.857   2.733  14.023
73875NA+    NA+46190  32.499  30.081   4.797
73876NA+    NA+46191  21.231  15.222  13.394
73877NA+    NA+46192  31.409  31.011  14.289
73878NA+    NA+46193  12.817  15.602   0.476
73879NA+    NA+46194  35.893  27.112  11.913
73880NA+    NA+46195   2.963   2.423  12.429
73881NA+    NA+46196  35.458  25.207   3.272
73882NA+    NA+46197  41.354  29.444   4.272
73883NA+    NA+46198  24.156  22.641   2.405
73884NA+    NA+46199  42.399  37.576  14.336
73885NA+    NA+46200  11.631  13.262   0.843
73886NA+    NA+46201  15.650  31.088  11.537
73887NA+    NA+46202  15.699  32.428  12.528
73888NA+    NA+46203   6.217  34.955  10.545
73889NA+    NA+46204  16.600   4.432   1.805
73890NA+    NA+46205  19.608  17.767   3.353
73891NA+    NA+46206  30.622  16.206   4.210
73892NA+    NA+46207   2.406  10.246  11.009
73893NA+    NA+46208  38.512  39.885  12.050
73894NA+    NA+46209   5.427  14.754  12.940
73895NA+    NA+46210  12.665  40.529   4.741
73896NA+    NA+46211  33.563  25.090  10.543
73897NA+    NA+46212  17.716  28.057  12.066
73898NA+    NA+46213  13.278   2.424   2.316
73899NA+    NA+46214   8.810  35.067   0.944
73900NA+    NA+46215   8.744   9.852  10.507
73901NA+    NA+46216  41.525  24.608  14.933
73902NA+    NA+46217  12.832   8.656  11.860
73903NA+    NA+46218  35.039  20.708   1.314
73904NA+    NA+46219  19.537  16.153  14.876
73905NA+    NA+46220   4.278  28.055  14.342
73906NA+    NA+46221  21.756  25.650   3.696
73907NA+    NA+46222  26.164  15.711  10.459
73908NA+    NA+46223  17.567  29.948   0.386
73909NA+    NA+46224  39.007  34.044  14.881
73910NA+    NA+46225  24.073   4.799  10.076
73911NA+    NA+46226  42.493   4.810   3.817
73912NA+    NA+46227  23.229  37.957   4.608
73913NA+    NA+46228  15.308  18.208  13.925
73914NA+    NA+46229  24.540  32.462   4.331
73915NA+    NA+46230  12.344   7.408  11.084
73916NA+    NA+46231  21.044  41.347  10.549
73917NA+    NA+46232  14.590  12.670   1.221
73918NA+    NA+46233   5.304  22.059   3.288
73919NA+    NA+46234  29.430  37.514  13.908
73920NA+    NA+46235   0.949  28.145   2.744
73921NA+    NA+46236   1.751  19.727   4.153
73922NA+    NA+46237  39.504  25.691  14.973
73923NA+    NA+46238   7.700  39.520   3.676
73924NA+    NA+46239  29.492  34.445   0.935
73925NA+    NA+46240  32.035   7.417   2.368
73926NA+    NA+46241   9.796  17.250   1.335
73927NA+    NA+46242   8.284  20.090  12.353
73928NA+    NA+46243  35.377  23.626   3.205
73929NA+    NA+46244   1.930  15.155  14.396
73930NA+    NA+46245  27.035  26.488   1.446
73931NA+    NA+46246   0.427  26.132  11.959
73932NA+    NA+46247  11.318  36.045   4.269
73933NA+    NA+46248  12.183  14.813  13.824
73934NA+    NA+46249  27.682  17.198   0.966
73935NA+    NA+46250  15.096  19.044   2.836
73936NA+    NA+46251  23.197  37.499   1.430
73937NA+    NA+46252  37.525   4.408   4.225
73938NA+    NA+46253  13.269   8.405  13.803
73939NA+    NA+46254   1.422  28.155  13.311
73940NA+    NA+46255  13.226  14.220  10.088
73941NA+    NA+46256  34.412   8.678  14.502
73942NA+    NA+46257  13.343  40.956  11.052
73943NA+    NA+46258   2.407  20.634  11.471
73944NA+    NA+46259  21.556  43.828   1.296
73945NA+    NA+46260  38.529  28.037  10.640
73946NA+    NA+46261   9.650  38.915  10.986
73947NA+    NA+46262   5.929  22.242   2.286
73948NA+    NA+46263  18.625  20.107   3.835
73949NA+    NA+46264   1.420   0.381   3.150
73950NA+    NA+46265  11.686   5.771   3.754
73951NA+    NA+46266  21.669  35.925  11.955
73952NA+    NA+46267  25.570  21.071  12.909
73953NA+    NA+46268  20.071  25.681  14.507
73954NA+    NA+46269  24.163  38.425  12.832
73955NA+    NA+46270   6.360   0.937  10.620
73956NA+    NA+46271   2.470  38.441   1.915
73957NA+    NA+46272  34.380  41.947   4.640
73958NA+    NA+46273   7.189  34.415   3.314
73959NA+    NA+46274  32.441  34.885  11.525
73960NA+    NA+46275   5.820  26.652  10.993
73961NA+    NA+46276  32.566  34.891  10.643
73962NA+    NA+46277  27.607  32.126  13.315
73963NA+    NA+46278  38.471  16.698   3.371
73964NA+    NA+46279  13.677  18.556   4.221
73965NA+    NA+46280  15.728  31.602   0.810
73966NA+    NA+46281  34.081   3.280  14.772
73967NA+    NA+46282  22.162   4.217  10.606
73968NA+    NA+46283  20.652  17.624   2.368
73969NA+    NA+46284  11.178  33.588  11.409
73970NA+    NA+46285  20.741  11.269  11.019
73971NA+    NA+46286   9.308  21.190   2.391
73972NA+    NA+46287  21.605  19.757  12.528
73973NA+    NA+46288  26.171  22.154  14.817
73974NA+    NA+46289  27.045  17.601  11.883
73975NA+    NA+46290  16.266  30.459   0.418
73976NA+    NA+46291  41.981   0.857  13.951
73977NA+    NA+46292  41.327  25.633   4.655
73978NA+    NA+46293  23.510   2.858  11.959
73979NA+    NA+46294  10.826   5.859   0.960
73980NA+    NA+46295   4.343  43.361   1.273
73981NA+    NA+46296  17.738  41.490   0.424
73982NA+    NA+46297  37.888  23.206  11.395
73983NA+    NA+46298  23.039  33.384   1.702
73984NA+    NA+46299  34.396   8.345   2.336
73985NA+    NA+46300   9.284  25.638   0.456
73986NA+    NA+46301  36.036  20.723  11.598
73987NA+    NA+46302  23.545   9.333   1.789
73988NA+    NA+46303  12.646  39.046   4.322
73989NA+    NA+46304  19.041  40.491   4.271
73990NA+    NA+46305  16.645  41.395   3.724
73991NA+    NA+46306  36.075  42.843  13.396
73992NA+    NA+46307   8.224  30.156   2.699
73993NA+    NA+46308  28.435  38.981  13.916
73994NA+    NA+46309   1.426   6.301   3.263
73995NA+    NA+46310  34.925   9.833  12.563
73996NA+    NA+46311  10.722  38.938  14.011
73997NA+    NA+46312   8.322  34.534  12.535
73998NA+    NA+46313  35.470  29.477   4.616
73999NA+    NA+46314  23.510  31.577   2.837
74000NA+    NA+46315  37.865   3.401  10.903
74001NA+    NA+46316  18.280  31.140   4.169
74002NA+    NA+46317   5.743  41.493  10.580
74003NA+    NA+46318   0.345   2.283   3.747
74004NA+    NA+46319  25.691  32.563  14.799
74005NA+    NA+46320  19.205   2.873  14.955
74006NA+    NA+46321  21.031   4.391   3.641
74007NA+    NA+46322  21.745   9.191  13.437
74008NA+    NA+46323  13.658  23.127   0.798
74009NA+    NA+46324  17.782   3.277   1.751
74010NA+    NA+46325  19.062  15.261   2.271
74011NA+    NA+46326   3.251  27.075   0.848
74012NA+    NA+46327   8.889  24.651   3.206
74013NA+    NA+46328  44.911   6.773  14.776
74014NA+    NA+46329  27.956  27.609   4.753
74015NA+    NA+46330  32.417  29.519   0.331
74016NA+    NA+46331   1.837  24.076   0.364
74017NA+    NA+46332   1.339   0.760   0.444
74018NA+    NA+46333   2.330  33.013   1.401
74019NA+    NA+46334  11.282  25.564   0.274
74020NA+    NA+46335  32.890  19.536   4.673
74021NA+    NA+46336  26.686  21.531   2.706
74022NA+    NA+46337  23.102  30.017   3.868
74023NA+    NA+46338  14.740  26.575  10.573
74024NA+    NA+46339   7.218  37.519  14.760
74025NA+    NA+46340  16.229   2.318  12.570
74026NA+    NA+46341  25.512   4.363   1.259
74027NA+    NA+46342  14.820  36.374   3.213
74028NA+    NA+46343   7.694  41.326   3.704
74029NA+    NA+46344  43.004  36.526  14.803
74030NA+    NA+46345  25.964  15.323   0.865
74031NA+    NA+46346  15.284  12.735  12.573
74032NA+    NA+46347  14.786  19.222   0.257
74033NA+    NA+46348   5.371   1.344   3.303
74034NA+    NA+46349  16.312  30.500   5.785
74035NA+    NA+46350  21.185  37.954  13.953
74036NA+    NA+46351  11.695  42.295   4.276
74037NA+    NA+46352   4.938  30.532  14.498
74038NA+    NA+46353   5.924  32.004  13.433
74039NA+    NA+46354  24.515   9.799   4.309
74040NA+    NA+46355  13.672   8.172  10.923
74041NA+    NA+46356  28.047   4.374   0.863
74042NA+    NA+46357   3.852  30.631   0.745
74043NA+    NA+46358   3.381  31.059   0.932
74044NA+    NA+46359  42.960   5.321   2.753
74045NA+    NA+46360  44.776  37.431  11.927
74046NA+    NA+46361  38.031  34.885  13.391
74047NA+    NA+46362   8.853  39.922  10.639
74048NA+    NA+46363  19.550  35.456  12.008
74049NA+    NA+46364  43.940  19.281   0.833
74050NA+    NA+46365  37.580  20.599   3.637
74051NA+    NA+46366   0.815   9.342  14.028
74052NA+    NA+46367   3.762  23.637  12.059
74053NA+    NA+46368  15.283  26.562  14.429
74054NA+    NA+46369  26.658   8.693   4.799
74055NA+    NA+46370  37.994  35.870  12.006
74056NA+    NA+46371  42.785  39.378   1.402
74057NA+    NA+46372   4.917  23.196   2.665
74058NA+    NA+46373  28.634  39.348  12.568
74059NA+    NA+46374  20.594  32.507  12.356
74060NA+    NA+46375  40.916   8.697  11.986
74061NA+    NA+46376   7.728   2.882   1.734
74062NA+    NA+46377  24.529  17.728   4.143
74063NA+    NA+46378  33.017  39.411  13.376
74064NA+    NA+46379  40.519  15.806   1.322
74065NA+    NA+46380  21.746   2.823  14.791
74066NA+    NA+46381  29.534  16.635  12.484
74067NA+    NA+46382  32.098   8.370   4.760
74068NA+    NA+46383  36.879   1.475  11.126
74069NA+    NA+46384  25.013  27.990   3.206
74070NA+    NA+46385  28.137  34.897  13.381
74071NA+    NA+46386   9.330  15.789  14.451
74072NA+    NA+46387  28.540  22.047  13.331
74073NA+    NA+46388  30.119   4.260   2.398
74074NA+    NA+46389  17.650   2.409  11.537
74075NA+    NA+46390  13.728  26.206   4.815
74076NA+    NA+46391  18.662  15.322   3.180
74077NA+    NA+46392  37.010  11.785  14.485
74078NA+    NA+46393  33.023  32.636  14.284
74079NA+    NA+46394   3.255   0.915   1.778
74080NA+    NA+46395  36.884  16.201  12.394
74081NA+    NA+46396  38.951  14.654   0.936
74082NA+    NA+46397  14.210  25.485   4.139
74083NA+    NA+46398  19.266  30.089  10.606
74084NA+    NA+46399   6.347   7.696  14.455
74085NA+    NA+46400  41.858   8.896  13.810
74086NA+    NA+46401  30.125  11.161  12.988
74087NA+    NA+46402  28.442  11.342  12.936
74088NA+    NA+46403   1.323   0.751   3.267
74089NA+    NA+46404  35.972  32.041   4.650
74090NA+    NA+46405  36.090   0.401  11.938
74091NA+    NA+46406  15.631  31.534  14.290
74092NA+    NA+46407  26.021  40.401   2.668
74093NA+    NA+46408  42.816  34.947   0.347
74094NA+    NA+46409  22.205  15.719  13.797
74095NA+    NA+46410  27.985   3.801   2.724
74096NA+    NA+46411  22.665  37.458  12.544
74097NA+    NA+46412   9.772   2.810   1.764
74098NA+    NA+46413   0.870  20.204   4.306
74099NA+    NA+46414  18.260  28.635  14.493
74100NA+    NA+46415   0.266  33.484   0.802
74101NA+    NA+46416  29.533  25.030  14.906
74102NA+    NA+46417  19.537  40.838   3.261
74103NA+    NA+46418  27.061  24.012  14.358
74104NA+    NA+46419  14.713  37.061   1.705
74105NA+    NA+46420  34.864   3.421  14.866
74106NA+    NA+46421  28.178  33.498  14.311
74107NA+    NA+46422  39.909  13.655   1.935
74108NA+    NA+46423  28.109  17.169   4.722
74109NA+    NA+46424  19.711  10.814  13.982
74110NA+    NA+46425  19.152  42.508   4.656
74111NA+    NA+46426  15.682  43.948  11.901
74112NA+    NA+46427  33.418  42.968   2.404
74113NA+    NA+46428  22.136   0.435  10.600
74114NA+    NA+46429  25.051  27.469   3.824
74115NA+    NA+46430  24.595  10.653  13.887
74116NA+    NA+46431  33.061   6.798   3.696
74117NA+    NA+46432  19.189   2.266   0.309
74118NA+    NA+46433   6.184  17.254   3.245
74119NA+    NA+46434  27.133  39.553   0.330
74120NA+    NA+46435  40.457  44.950   2.688
74121NA+    NA+46436  18.677  43.890   1.247
74122NA+    NA+46437  13.712  39.355  12.002
74123NA+    NA+46438  37.990  44.846   1.803
74124NA+    NA+46439   6.221  34.541  13.793
74125NA+    NA+46440  35.550  27.174  13.874
74126NA+    NA+46441  41.479  28.513  11.873
74127NA+    NA+46442   9.733  15.182   3.686
74128NA+    NA+46443  12.343  16.808  14.874
74129NA+    NA+46444   6.792  24.028  11.987
74130NA+    NA+46445  39.461  18.248   0.831
74131NA+    NA+46446  23.525   0.387   4.214
74132NA+    NA+46447  31.415  31.124  14.931
74133NA+    NA+46448  42.431  18.249  12.357
74134NA+    NA+46449  23.633   3.844   2.301
74135NA+    NA+46450   0.414  41.325   0.287
74136NA+    NA+46451  29.047  10.322  10.474
74137NA+    NA+46452   9.274  40.869  12.880
74138NA+    NA+46453  34.966   5.875   0.734
74139NA+    NA+46454   9.217   6.390  14.426
74140NA+    NA+46455  19.160  30.085   9.548
74141NA+    NA+46456  32.967  40.480  10.613
74142NA+    NA+46457  31.565   8.331   4.683
74143NA+    NA+46458  26.088  40.972   4.172
74144NA+    NA+46459  13.175   8.855   5.112
74145NA+    NA+46460   1.868  42.490  11.386
74146NA+    NA+46461  19.772  35.959  12.523
74147NA+    NA+46462   6.719  26.534  12.037
74148NA+    NA+46463  12.723  34.594  10.622
74149NA+    NA+46464  43.919  27.036  14.789
74150NA+    NA+46465  40.386  41.434  13.454
74151NA+    NA+46466  26.473   1.392  13.496
74152NA+    NA+46467  17.151  23.639   2.203
74153NA+    NA+46468  36.912  27.505  10.409
74154NA+    NA+46469  43.393  18.663   1.709
74155NA+    NA+46470  17.239  29.067  13.438
74156NA+    NA+46471   5.367   9.849   1.339
74157NA+    NA+46472  29.531  31.531  14.878
74158NA+    NA+46473  21.150  32.585  13.940
74159NA+    NA+46474  23.105  20.250   3.789
74160NA+    NA+46475  28.631  30.642   0.879
74161NA+    NA+46476  12.623  41.993   4.266
74162NA+    NA+46477   2.348  16.139  14.329
74163NA+    NA+46478   9.354  13.729  14.851
74164NA+    NA+46479  37.475  17.069   3.294
74165NA+    NA+46480  43.792  39.886   2.358
74166NA+    NA+46481  22.580  11.213  12.563
74167NA+    NA+46482   2.235  34.910  10.955
74168NA+    NA+46483  25.645  32.506  12.033
74169NA+    NA+46484   8.405  23.231  13.848
74170NA+    NA+46485  36.868   6.738   4.142
74171NA+    NA+46486   6.864  43.512   1.915
74172NA+    NA+46487  37.354  42.916   2.407
74173NA+    NA+46488   8.713  44.992   2.730
74174NA+    NA+46489  12.808   1.851   1.836
74175NA+    NA+46490  42.368  40.894   2.416
74176NA+    NA+46491  29.065  18.220   3.726
74177NA+    NA+46492  34.907  41.453  11.605
74178NA+    NA+46493  20.160  19.536  11.086
74179NA+    NA+46494  42.894  22.246   1.324
74180NA+    NA+46495  15.221  30.625  10.621
74181NA+    NA+46496   7.862  25.206  14.510
74182NA+    NA+46497   4.903  42.776   2.393
74183NA+    NA+46498   1.867  11.636   1.819
74184NA+    NA+46499   1.429   0.467  13.946
74185NA+    NA+46500  27.993  11.135   4.652
74186NA+    NA+46501  44.816  21.235   1.318
74187NA+    NA+46502   5.827   6.416  13.865
74188NA+    NA+46503  13.197  26.515  14.811
74189NA+    NA+46504   7.854   7.691   4.125
74190NA+    NA+46505  22.630  14.255   2.884
74191NA+    NA+46506  26.702   0.973   2.766
74192NA+    NA+46507   9.876  10.670   2.286
74193NA+    NA+46508  38.527  31.052  11.965
74194NA+    NA+46509  23.497   9.336   2.372
74195NA+    NA+46510   4.440   5.699  14.950
74196NA+    NA+46511   8.717   2.226  12.341
74197NA+    NA+46512  21.118  29.935  12.879
74198NA+    NA+46513  27.631  44.349  12.420
74199NA+    NA+46514  37.503  37.831   0.303
74200NA+    NA+46515  14.312  18.051   4.319
74201NA+    NA+46516  29.149  37.423  11.952
74202NA+    NA+46517  11.678  33.416  14.497
74203NA+    NA+46518   1.887  24.207  12.392
74204NA+    NA+46519  36.562  41.005   1.222
74205NA+    NA+46520  38.468   8.198   3.675
74206NA+    NA+46521  18.284   0.308  11.897
74207NA+    NA+46522  40.518  23.013   2.281
74208NA+    NA+46523  35.376  35.859  14.809
74209NA+    NA+46524  11.223   5.797   2.725
74210NA+    NA+46525  28.993  24.119   1.741
74211NA+    NA+46526  36.928  31.450   0.466
74212NA+    NA+46527   7.293  23.005   2.750
74213NA+    NA+46528  17.120  16.190  13.886
74214NA+    NA+46529  39.063   4.732  10.643
74215NA+    NA+46530  26.164   1.292   0.858
74216NA+    NA+46531  25.976  21.744   1.876
74217NA+    NA+46532  33.509  26.003  14.998
74218NA+    NA+46533  42.389  39.021  11.405
74219NA+    NA+46534  18.661  26.136  10.603
74220NA+    NA+46535  12.331   5.418  12.827
74221NA+    NA+46536  33.380   5.258  14.408
74222NA+    NA+46537  14.811   3.839  14.414
74223NA+    NA+46538  28.575  31.063   0.474
74224NA+    NA+46539   7.393  13.843  12.580
74225NA+    NA+46540  26.694  41.530   5.252
74226NA+    NA+46541  39.843  29.946  14.456
74227NA+    NA+46542  31.021  34.077   2.341
74228NA+    NA+46543  28.669  15.668  10.896
74229NA+    NA+46544  32.546   4.347  11.025
74230NA+    NA+46545  38.568  26.054   4.678
74231NA+    NA+46546   2.290   4.717   3.353
74232NA+    NA+46547   8.784  32.049   4.795
74233NA+    NA+46548  42.337  39.528  14.924
74234NA+    NA+46549  25.626  29.586  12.838
74235NA+    NA+46550   1.431  32.455  11.072
74236NA+    NA+46551  21.677  29.154   2.237
74237NA+    NA+46552   6.414   1.901  14.457
74238NA+    NA+46553  41.032  36.545   3.643
74239NA+    NA+46554  29.562  35.492  11.523
74240NA+    NA+46555   7.310  29.544   3.243
74241NA+    NA+46556  25.590   5.906  14.885
74242NA+    NA+46557   2.883  41.834   1.326
74243NA+    NA+46558  42.033   4.816  11.030
74244NA+    NA+46559  20.713  42.514   3.677
74245NA+    NA+46560   3.245   1.330  12.410
74246NA+    NA+46561  33.486  18.231   4.165
74247NA+    NA+46562  19.553  17.719   2.416
74248NA+    NA+46563  27.997  38.400  11.414
74249NA+    NA+46564  31.521  17.682  14.310
74250NA+    NA+46565  35.876  15.181  13.055
74251NA+    NA+46566  41.530   0.286  14.769
74252NA+    NA+46567  13.303  19.537   2.719
74253NA+    NA+46568   0.407  11.304  12.871
74254NA+    NA+46569  15.094  24.136   3.318
74255NA+    NA+46570  42.512  12.640   2.707
74256NA+    NA+46571  19.573  41.836   0.372
74257NA+    NA+46572  34.393  34.084   2.198
74258NA+    NA+46573  30.073  17.165   4.247
74259NA+    NA+46574   9.327  21.128  12.471
74260NA+    NA+46575   0.320  27.980  14.938
74261NA+    NA+46576  12.270  33.495   2.836
74262NA+    NA+46577  24.068   7.824  14.372
74263NA+    NA+46578  33.878  38.001   1.796
74264NA+    NA+46579   8.697  24.123   1.901
74265NA+    NA+46580  43.273  17.773   3.834
74266NA+    NA+46581  30.011  34.470   2.759
74267NA+    NA+46582  10.159  15.121  11.435
74268NA+    NA+46583  26.528  29.545   0.966
74269NA+    NA+46584  43.306  44.305   1.246
74270NA+    NA+46585  39.864   0.249  14.319
74271NA+    NA+46586  35.591  36.060   2.187
74272NA+    NA+46587  41.789  36.906   2.320
74273NA+    NA+46588  33.102  39.471   3.772
74274NA+    NA+46589  30.528  39.992  11.609
74275NA+    NA+46590  20.641  14.588  12.887
74276NA+    NA+46591  17.185  17.268  11.531
74277NA+    NA+46592   3.931  23.034  13.880
74278NA+    NA+46593  12.750  27.122   1.277
74279NA+    NA+46594  31.568  43.786   0.921
74280NA+    NA+46595  30.613  17.777  12.541
74281NA+    NA+46596  13.658   5.817   1.808
74282NA+    NA+46597  27.023  17.238  12.886
74283NA+    NA+46598  22.126  36.030   4.340
74284NA+    NA+46599  38.527  11.249  11.593
74285NA+    NA+46600  42.446  20.526  14.785
74286NA+    NA+46601   2.777  36.490   2.293
74287NA+    NA+46602  35.947  14.168  14.899
74288NA+    NA+46603   3.404   5.837  12.483
74289NA+    NA+46604  17.718  22.251   4.805
74290NA+    NA+46605  20.751  13.783   1.217
74291NA+    NA+46606  20.670  36.979  13.980
74292NA+    NA+46607   4.901   4.400  12.025
74293NA+    NA+46608  16.283  30.994  11.948
74294NA+    NA+46609  16.288  23.212  11.072
74295NA+    NA+46610  37.874   5.864  10.643
74296NA+    NA+46611   7.687  25.541  10.902
74297NA+    NA+46612   5.416  13.659   4.233
74298NA+    NA+46613  40.443  39.034   3.302
74299NA+    NA+46614  38.432  42.307   3.258
74300NA+    NA+46615  21.150  34.878   0.867
74301NA+    NA+46616  24.998  30.081   0.279
74302NA+    NA+46617  33.553  28.025   3.346
74303NA+    NA+46618  25.550   6.293   3.277
74304NA+    NA+46619  10.855  30.655  12.985
74305NA+    NA+46620  15.148  28.094   4.614
74306NA+    NA+46621   1.450  41.895  10.500
74307NA+    NA+46622  42.280  36.432  13.860
74308NA+    NA+46623   9.360  20.117   3.258
74309NA+    NA+46624  27.602  44.006  13.387
74310NA+    NA+46625  26.026   6.850   0.954
74311NA+    NA+46626   9.764  30.923  13.469
74312NA+    NA+46627   1.966  26.511   2.234
74313NA+    NA+46628  40.353   2.773  13.013
74314NA+    NA+46629   7.742  34.884  13.499
74315NA+    NA+46630  10.324  20.691  14.905
74316NA+    NA+46631   2.758  37.991  12.384
74317NA+    NA+46632  25.035  38.522  12.517
74318NA+    NA+46633  25.489  41.433   2.295
74319NA+    NA+46634  12.272  26.493  12.090
74320NA+    NA+46635  16.774  28.087  11.421
74321NA+    NA+46636  44.424  31.086   1.368
74322NA+    NA+46637   7.844   5.721   1.265
74323NA+    NA+46638  24.203   8.213   3.211
74324NA+    NA+46639   1.385  14.118  12.070
74325NA+    NA+46640  43.317  43.902   1.889
74326NA+    NA+46641  12.362  36.000  14.944
74327NA+    NA+46642  18.726  33.554   5.132
74328NA+    NA+46643  44.782  37.413  10.926
74329NA+    NA+46644  29.561  24.078   3.223
74330NA+    NA+46645  17.677  30.975  14.321
74331NA+    NA+46646  14.280   7.223  14.832
74332NA+    NA+46647   5.926  31.618  10.507
74333NA+    NA+46648   1.397  13.282   0.423
74334NA+    NA+46649  23.722  27.671  12.341
74335NA+    NA+46650   8.740  27.507   2.400
74336NA+    NA+46651  30.595  25.160  12.030
74337NA+    NA+46652  23.731   0.979   0.396
74338NA+    NA+46653  24.139  37.884   3.310
74339NA+    NA+46654  16.127   3.240   1.277
74340NA+    NA+46655  40.861  44.461  13.461
74341NA+    NA+46656  42.511  41.976   1.368
74342NA+    NA+46657  35.918   9.675  13.441
74343NA+    NA+46658   3.272  12.324   1.322
74344NA+    NA+46659  29.973  27.115   2.860
74345NA+    NA+46660   0.427  43.282   0.823
74346NA+    NA+46661  44.914   5.709  10.410
74347NA+    NA+46662  12.260  43.403  12.091
74348NA+    NA+46663  32.928   8.697   0.290
74349NA+    NA+46664   4.847  17.280   1.773
74350NA+    NA+46665  28.173  39.896  13.387
74351NA+    NA+46666  20.653  30.450  10.464
74352NA+    NA+46667  34.608  37.911   2.298
74353NA+    NA+46668   9.352  14.279   4.160
74354NA+    NA+46669  39.066  31.406   1.236
74355NA+    NA+46670   6.763   7.400   0.377
74356NA+    NA+46671  18.243  35.862  11.907
74357NA+    NA+46672  18.725   5.927  14.508
74358NA+    NA+46673   4.325  13.147   1.744
74359NA+    NA+46674  10.749  44.464   2.332
74360NA+    NA+46675  36.926  10.650   1.253
74361NA+    NA+46676  29.025  32.541   1.696
74362NA+    NA+46677  36.386  37.983   3.319
74363NA+    NA+46678  22.679  37.580  11.475
74364NA+    NA+46679  37.342  23.703   3.710
74365NA+    NA+46680  12.758  28.119   2.695
74366NA+    NA+46681  15.265  31.042   0.925
74367NA+    NA+46682  21.228  18.777  14.377
74368NA+    NA+46683  13.667  20.630   4.234
74369NA+    NA+46684  11.359  19.229   3.295
74370NA+    NA+46685   1.252   6.894  13.383
74371NA+    NA+46686  15.666  44.767  12.896
74372NA+    NA+46687  28.037   3.348   4.656
74373NA+    NA+46688   5.740  27.070  11.487
74374NA+    NA+46689   9.165  22.110  11.029
74375NA+    NA+46690   8.746  30.503  12.412
74376NA+    NA+46691   6.365  24.724   0.395
74377NA+    NA+46692  22.723  18.649  13.538
74378NA+    NA+46693  17.755  43.006  13.967
74379NA+    NA+46694  32.078  37.057   0.418
74380NA+    NA+46695  30.057  38.532   4.297
74381NA+    NA+46696   7.344  25.154   0.246
74382NA+    NA+46697   7.855  33.920  11.041
74383NA+    NA+46698  10.229  23.502   2.826
74384NA+    NA+46699   5.421  19.228  11.892
74385NA+    NA+46700  42.363  31.596   0.816
74386NA+    NA+46701  21.030   9.811  10.610
74387NA+    NA+46702  17.724   8.719   9.591
74388NA+    NA+46703  19.160  11.747  10.533
74389NA+    NA+46704  37.900   5.291   2.820
74390NA+    NA+46705  31.534  27.536  11.530
74391NA+    NA+46706  12.855  21.669   1.346
74392NA+    NA+46707  15.711  39.955  13.802
74393NA+    NA+46708   0.864   2.304   2.299
74394NA+    NA+46709  24.501  26.106   2.800
74395NA+    NA+46710  10.790   5.262  14.455
74396NA+    NA+46711  26.109  26.015   0.908
74397NA+    NA+46712  25.686  22.127  12.942
74398NA+    NA+46713   7.171  23.652   1.228
74399NA+    NA+46714  44.413   8.824   5.115
74400NA+    NA+46715  20.717   4.420   2.899
74401NA+    NA+46716  28.473  39.408  13.831
74402NA+    NA+46717  18.744  12.321  12.575
74403NA+    NA+46718  19.188  16.692  10.918
74404NA+    NA+46719  30.603  19.556   3.644
74405NA+    NA+46720  23.613  32.037   4.128
74406NA+    NA+46721  25.504  24.996   3.238
74407NA+    NA+46722  22.744   5.786  13.000
74408NA+    NA+46723   8.766  22.564  11.472
74409NA+    NA+46724  27.152  23.655   1.776
74410NA+    NA+46725  13.315  11.191   4.772
74411NA+    NA+46726  18.661   7.194   3.641
74412NA+    NA+46727  44.399  39.459   3.763
74413NA+    NA+46728  11.275   7.413   3.722
74414NA+    NA+46729  25.485  27.026   1.771
74415NA+    NA+46730  40.006   0.374   4.635
74416NA+    NA+46731  12.686  17.594   3.647
74417NA+    NA+46732  39.925  37.952   1.918
74418NA+    NA+46733  34.901  24.673  12.086
74419NA+    NA+46734  18.783  13.194  14.984
74420NA+    NA+46735  24.700   8.326   4.779
74421NA+    NA+46736  29.452   8.876  11.593
74422NA+    NA+46737   2.441  26.069  13.824
74423NA+    NA+46738  15.801   7.260  11.560
74424NA+    NA+46739  18.710  30.153   0.810
74425NA+    NA+46740  37.046  44.797  10.895
74426NA+    NA+46741  44.488  11.242  14.316
74427NA+    NA+46742  42.436  15.705  13.442
74428NA+    NA+46743  30.012  19.266  14.942
74429NA+    NA+46744  15.136  20.064   3.276
74430NA+    NA+46745  10.292   8.219  11.064
74431NA+    NA+46746  35.956   7.409  11.491
74432NA+    NA+46747  38.932  43.293  10.631
74433NA+    NA+46748  10.158  37.001  11.403
74434NA+    NA+46749  28.038   7.223  11.571
74435NA+    NA+46750  42.285  28.951   0.792
74436NA+    NA+46751  29.125  18.234   2.393
74437NA+    NA+46752  29.616  31.991   3.149
74438NA+    NA+46753  27.530  33.014   2.190
74439NA+    NA+46754  33.019  17.159  14.804
74440NA+    NA+46755   3.428  24.992  14.983
74441NA+    NA+46756  30.651  34.396  12.410
74442NA+    NA+46757  38.017  32.416   3.218
74443NA+    NA+46758  23.080  20.047   1.804
74444NA+    NA+46759   1.890   9.817  12.398
74445NA+    NA+46760  43.976   8.179  10.480
74446NA+    NA+46761  14.661  28.164  14.980
74447NA+    NA+46762  27.076  40.941  12.537
74448NA+    NA+46763  20.257  28.060  13.943
74449NA+    NA+46764  39.524  26.576   2.845
74450NA+    NA+46765  15.741  27.566   2.866
74451NA+    NA+46766  35.019   5.377   1.776
74452NA+    NA+46767  39.527   1.871   3.849
74453NA+    NA+46768   2.890  15.630  12.361
74454NA+    NA+46769  35.418  29.603   1.227
74455NA+    NA+46770  30.575  22.623  10.911
74456NA+    NA+46771  44.263  17.685  14.844
74457NA+    NA+46772   3.739  32.433   4.174
74458NA+    NA+46773  44.352  34.926  10.549
74459NA+    NA+46774  13.602  12.267   1.808
74460NA+    NA+46775  16.169  21.556  14.368
74461NA+    NA+46776   8.901  43.369  12.054
74462NA+    NA+46777  11.228   2.847   0.823
74463NA+    NA+46778   8.796  13.111  12.453
74464NA+    NA+46779   8.237   6.273   4.726
74465NA+    NA+46780  43.913  20.644   0.274
74466NA+    NA+46781   5.209   5.434   2.844
74467NA+    NA+46782  12.190  20.684   0.924
74468NA+    NA+46783  29.005   5.376  12.032
74469NA+    NA+46784  40.308   0.287  14.905
74470NA+    NA+46785   4.406  34.445  13.474
74471NA+    NA+46786  32.573   5.366  12.841
74472NA+    NA+46787  19.193   6.892   1.855
74473NA+    NA+46788  33.590  37.047   0.949
74474NA+    NA+46789   6.681  17.160   4.253
74475NA+    NA+46790   5.251  30.420  14.764
74476NA+    NA+46791   1.265  16.289  11.408
74477NA+    NA+46792  41.375   7.716  14.898
74478NA+    NA+46793  35.066  28.671  11.385
74479NA+    NA+46794  15.234  11.266  14.978
74480NA+    NA+46795  22.585  11.810   0.787
74481NA+    NA+46796  44.388   0.387  14.767
74482NA+    NA+46797   2.795  32.517  10.611
74483NA+    NA+46798  18.752   0.822  14.868
74484NA+    NA+46799   8.842   9.315  11.574
74485NA+    NA+46800  23.014   2.827   3.757
74486NA+    NA+46801  36.367  13.208  12.967
74487NA+    NA+46802   0.768   7.296   2.712
74488NA+    NA+46803  14.094  17.097  12.872
74489NA+    NA+46804  38.882  31.534  13.908
74490NA+    NA+46805   0.833  10.822   2.229
74491NA+    NA+46806  29.502  25.122  11.984
74492NA+    NA+46807  18.267  44.907  12.485
74493NA+    NA+46808  44.454  40.392  11.969
74494NA+    NA+46809   3.853  41.899   3.314
74495NA+    NA+46810   4.224   8.371   0.370
74496NA+    NA+46811  43.299  31.899   4.724
74497NA+    NA+46812  25.014  24.497   2.674
74498NA+    NA+46813   7.776  26.967   4.185
74499NA+    NA+46814  37.059  44.339   4.751
74500NA+    NA+46815  25.198  24.128  11.897
74501NA+    NA+46816  37.845   4.223  14.927
74502NA+    NA+46817  18.612  14.110  11.609
74503NA+    NA+46818  43.501  10.819  13.901
74504NA+    NA+46819   5.761  28.611   0.767
74505NA+    NA+46820  28.552   7.215   4.199
74506NA+    NA+46821  27.020   9.369  14.493
74507NA+    NA+46822  25.547  18.061  11.917
74508NA+    NA+46823  21.626   7.266   3.374
74509NA+    NA+46824  44.860  30.050   1.271
74510NA+    NA+46825  11.769   5.691  12.362
74511NA+    NA+46826  40.514  38.024  11.871
74512NA+    NA+46827   8.751  16.717   4.343
74513NA+    NA+46828  20.625   5.721  13.431
74514NA+    NA+46829   3.231  20.532  12.508
74515NA+    NA+46830  42.789  42.473   2.822
74516NA+    NA+46831   7.835  21.568  11.580
74517NA+    NA+46832  40.852  43.354   3.656
74518NA+    NA+46833   0.845  17.605   2.368
74519NA+    NA+46834  19.654  28.093  12.848
74520NA+    NA+46835   2.247  11.720  14.884
74521NA+    NA+46836   2.357  14.127  14.503
74522NA+    NA+46837   2.905   5.282   0.463
74523NA+    NA+46838  11.208  21.132  13.852
74524NA+    NA+46839  23.588  10.778   4.815
74525NA+    NA+46840  20.254  43.470   1.431
74526NA+    NA+46841  15.760  19.712   1.282
74527NA+    NA+46842  40.851  43.951   3.857
74528NA+    NA+46843   1.451   7.743  11.107
74529NA+    NA+46844  24.145  27.972  12.512
74530NA+    NA+46845   0.403  38.441   2.306
74531NA+    NA+46846  42.966  18.756  11.531
74532NA+    NA+46847  30.925   8.865  12.070
74533NA+    NA+46848  41.829  42.487  10.906
74534NA+    NA+46849  32.550   7.735   3.288
74535NA+    NA+46850  12.135   2.278  14.404
74536NA+    NA+46851  43.303  31.025   3.637
74537NA+    NA+46852  21.060  38.960  12.087
74538NA+    NA+46853  36.441   1.894   5.174
74539NA+    NA+46854  18.137  14.726  14.425
74540NA+    NA+46855  26.614  16.163   2.340
74541NA+    NA+46856  14.188  26.541  10.976
74542NA+    NA+46857  27.486  22.007   4.648
74543NA+    NA+46858  21.690  35.975  10.547
74544NA+    NA+46859   7.356   0.477   2.206
74545NA+    NA+46860  32.064   7.869   1.360
74546NA+    NA+46861  36.401  15.680   4.265
74547NA+    NA+46862   5.328  30.958  11.086
74548NA+    NA+46863  22.029   2.400  10.504
74549NA+    NA+46864  32.535   3.819   4.740
74550NA+    NA+46865  18.138   6.414  14.823
74551NA+    NA+46866  25.171  18.698   1.840
74552NA+    NA+46867  10.366   7.877   1.772
74553NA+    NA+46868  26.695   5.904  12.484
74554NA+    NA+46869   3.438  22.091   2.327
74555NA+    NA+46870  40.053  44.940   3.664
74556NA+    NA+46871  33.061   1.854   0.880
74557NA+    NA+46872  42.976  19.565  12.535
74558NA+    NA+46873  41.842   9.272  14.398
74559NA+    NA+46874   4.740  35.412   1.446
74560NA+    NA+46875  23.195   2.348   4.646
74561NA+    NA+46876  10.225  15.594   3.693
74562NA+    NA+46877  26.544  19.191  13.936
74563NA+    NA+46878  41.836   1.763   2.711
74564NA+    NA+46879  20.253  38.324  12.534
74565NA+    NA+46880  14.716  35.858   3.373
74566NA+    NA+46881   2.330  17.115  13.935
74567NA+    NA+46882  27.074  11.847  11.535
74568NA+    NA+46883  13.272  38.032  14.850
74569NA+    NA+46884  39.905  41.335   2.262
74570NA+    NA+46885  13.821   9.287   2.900
74571NA+    NA+46886  14.588  12.213   2.751
74572CL-    CL-46887  18.592   2.830  13.977
74573CL-    CL-46888  39.383  31.520  11.014
74574CL-    CL-46889  21.632  26.664   2.850
74575CL-    CL-46890  10.711  13.244  13.416
74576CL-    CL-46891  19.533   0.324   2.263
74577CL-    CL-46892  21.522   1.356   0.962
74578CL-    CL-46893  34.097  22.646   1.832
74579CL-    CL-46894  17.613  38.401   1.332
74580CL-    CL-46895  33.907  24.081  14.824
74581CL-    CL-46896  26.703  39.404  12.829
74582CL-    CL-46897   5.880  24.548  10.952
74583CL-    CL-46898  41.854   4.833   3.277
74584CL-    CL-46899  38.560  33.468   0.412
74585CL-    CL-46900  28.055  41.431   4.268
74586CL-    CL-46901  11.746  30.050  14.450
74587CL-    CL-46902  43.840  21.148  14.935
74588CL-    CL-46903  12.195   5.368  12.069
74589CL-    CL-46904  25.976  39.966   4.697
74590CL-    CL-46905  16.653  44.884  11.999
74591CL-    CL-46906  23.621  19.676   1.379
74592CL-    CL-46907  40.520  30.426  14.975
74593CL-    CL-46908  27.016  37.422   4.224
74594CL-    CL-46909   0.852  23.221   1.751
74595CL-    CL-46910   2.319   9.314  14.291
74596CL-    CL-46911   6.789  14.280  10.921
74597CL-    CL-46912   7.692  15.168  12.480
74598CL-    CL-46913  34.986  34.995   5.104
74599CL-    CL-46914  36.028  43.933   2.200
74600CL-    CL-46915  35.876  23.591   1.728
74601CL-    CL-46916  22.031  18.169   4.154
74602CL-    CL-46917   5.198  11.139   3.766
74603CL-    CL-46918  34.567  37.858   0.852
74604CL-    CL-46919  31.475  28.520   1.256
74605CL-    CL-46920  38.032  18.742   1.374
74606CL-    CL-46921  16.134  11.702   3.223
74607CL-    CL-46922  44.863  24.496  14.389
74608CL-    CL-46923  14.183  39.009   2.723
74609CL-    CL-46924  41.813  22.999   1.224
74610CL-    CL-46925  32.103  44.988  12.868
74611CL-    CL-46926   1.737  31.915  11.881
74612CL-    CL-46927  23.078  11.813   3.324
74613CL-    CL-46928   1.908   6.261   2.806
74614CL-    CL-46929  19.050  25.107  11.876
74615CL-    CL-46930  31.594  13.204  14.436
74616CL-    CL-46931  29.147  22.584  13.956
74617CL-    CL-46932  20.188  36.074   1.252
74618CL-    CL-46933  11.233  14.597   0.397
74619CL-    CL-46934  16.227  12.720   0.388
74620CL-    CL-46935  15.731  17.627  12.971
74621CL-    CL-46936  35.109  19.121  10.905
74622CL-    CL-46937  41.300  15.106   3.247
74623CL-    CL-46938  24.222  23.153  14.308
74624CL-    CL-46939  27.944  37.050   4.183
74625CL-    CL-46940  25.563  32.415   0.390
74626CL-    CL-46941  29.000  29.658   0.821
74627CL-    CL-46942  42.864  42.341   4.641
74628CL-    CL-46943   0.892  38.329   0.372
74629CL-    CL-46944  34.868   8.895  13.337
74630CL-    CL-46945  21.703  13.111   0.385
74631CL-    CL-46946  34.114  39.377  14.460
74632CL-    CL-46947  44.313  26.166  14.316
74633CL-    CL-46948   4.938  32.465   0.340
74634CL-    CL-46949  18.577   9.769   4.790
74635CL-    CL-46950  20.553  36.071   2.808
74636CL-    CL-46951  30.594  22.161  10.896
74637CL-    CL-46952  43.420  33.421  10.539
74638CL-    CL-46953  12.676   7.225  13.937
74639CL-    CL-46954  21.527  44.797  13.341
74640CL-    CL-46955  33.509  43.335  12.871
74641CL-    CL-46956  30.949  28.639  11.112
74642CL-    CL-46957   0.273  18.263  14.491
74643CL-    CL-46958   2.313  42.315  10.957
74644CL-    CL-46959  23.595  31.413   1.324
74645CL-    CL-46960  34.374  25.193  14.389
74646CL-    CL-46961  27.185  43.912   0.745
74647CL-    CL-46962  28.562  41.794   2.828
74648CL-    CL-46963  29.112  11.273   2.194
74649CL-    CL-46964  39.415  16.275   1.266
74650CL-    CL-46965  30.117  21.551   2.396
74651CL-    CL-46966  39.336  20.557  13.861
74652CL-    CL-46967  17.605  28.671   3.271
74653CL-    CL-46968  10.635  21.646  10.921
74654CL-    CL-46969  12.820  31.034  11.942
74655CL-    CL-46970  32.602  24.075  14.472
74656CL-    CL-46971  17.771   6.879  12.430
74657CL-    CL-46972  23.532   6.315   1.904
74658CL-    CL-46973   8.850  15.719  12.573
74659CL-    CL-46974   8.766   7.706  11.965
74660CL-    CL-46975  24.588  19.568   2.345
74661CL-    CL-46976   4.830  12.809  11.489
74662CL-    CL-46977   0.867   3.432  13.858
74663CL-    CL-46978  15.163   8.381   4.665
74664CL-    CL-46979  27.099  13.336   2.354
74665CL-    CL-46980  18.746  33.888   0.360
74666CL-    CL-46981  29.509  42.882  12.988
74667CL-    CL-46982  19.595  20.726  12.371
74668CL-    CL-46983  22.075   4.776   1.845
74669CL-    CL-46984  30.947  42.315  13.331
74670CL-    CL-46985  18.678   2.291   2.280
74671CL-    CL-46986  11.821  19.044  13.527
74672CL-    CL-46987  26.547  38.938  10.972
74673CL-    CL-46988  30.979   7.375   0.260
74674CL-    CL-46989  19.587   3.271   3.642
74675CL-    CL-46990  19.689  10.768  12.973
74676CL-    CL-46991  17.729  43.880  14.762
74677CL-    CL-46992  40.303   0.942   2.676
74678CL-    CL-46993  16.662  24.556  13.056
74679CL-    CL-46994   5.797  41.294   2.732
74680CL-    CL-46995  42.479  30.999   0.728
74681CL-    CL-46996  41.842  20.570   1.372
74682CL-    CL-46997  32.421  21.031   1.249
74683CL-    CL-46998  43.434  33.050  12.040
74684CL-    CL-46999  27.621   8.255  14.325
74685CL-    CL-47000  16.177  42.796  11.022
74686CL-    CL-47001  22.180  16.219  10.496
74687CL-    CL-47002   3.792  20.572  13.440
74688CL-    CL-47003  44.469   5.790  12.848
74689CL-    CL-47004  21.552  40.388  11.857
74690CL-    CL-47005  17.585  15.694  10.997
74691CL-    CL-47006  31.929  43.932   3.830
74692CL-    CL-47007  23.726   0.771  11.526
74693CL-    CL-47008  41.430   7.340   1.904
74694CL-    CL-47009  20.646  42.389   4.212
74695CL-    CL-47010  10.758  15.676  13.513
74696CL-    CL-47011  43.301  44.936   3.847
74697CL-    CL-47012  44.330  22.728   2.281
74698CL-    CL-47013  31.064  23.694  14.814
74699CL-    CL-47014  13.745  42.470   4.696
74700CL-    CL-47015  34.917  32.459  11.390
74701CL-    CL-47016  44.279  13.273   2.341
74702CL-    CL-47017  31.944  14.596   0.860
74703CL-    CL-47018  23.583  28.048   3.712
74704CL-    CL-47019  32.120  42.406   1.253
74705CL-    CL-47020  32.620  40.491   2.842
74706CL-    CL-47021  34.419  37.901   2.713
74707CL-    CL-47022  42.327  18.140   4.189
74708CL-    CL-47023   5.741   8.901  13.957
74709CL-    CL-47024  12.264  29.130  14.489
74710CL-    CL-47025   4.297  33.563  12.083
74711CL-    CL-47026  22.575   7.910   3.293
74712CL-    CL-47027  10.358   1.323  11.557
74713CL-    CL-47028  15.682  40.864  12.465
74714CL-    CL-47029  14.301  16.629   4.264
74715CL-    CL-47030  44.455  19.652   2.327
74716CL-    CL-47031   6.718  36.579  12.903
74717CL-    CL-47032  29.598   0.461   2.847
74718CL-    CL-47033   8.361  39.904   1.249
74719CL-    CL-47034  30.615  28.595   3.682
74720CL-    CL-47035  42.422  10.797  13.503
74721CL-    CL-47036   3.781  14.730   4.310
74722CL-    CL-47037  16.752   4.804   1.901
74723CL-    CL-47038  35.896  17.584   2.796
74724CL-    CL-47039  35.428  39.418  13.872
74725CL-    CL-47040  16.677  12.286  10.899
74726CL-    CL-47041  22.512  20.634   1.344
74727CL-    CL-47042  35.498   5.855   3.151
74728CL-    CL-47043  28.505  28.442  14.908
74729CL-    CL-47044  16.584  31.407  11.405
74730CL-    CL-47045  20.767  31.090  14.291
74731CL-    CL-47046   9.661  41.876  11.557
74732CL-    CL-47047  17.290  12.147  14.769
74733CL-    CL-47048  19.553  34.006   1.890
74734CL-    CL-47049  22.243  36.873  14.761
74735CL-    CL-47050  25.978   5.775   1.918
74736CL-    CL-47051  44.340  23.719   4.771
74737CL-    CL-47052  36.508  11.339   2.240
74738CL-    CL-47053  28.152  11.343  12.918
74739CL-    CL-47054  18.293  41.877   1.345
74740CL-    CL-47055  24.187  37.555   0.816
74741CL-    CL-47056  22.180  44.334  11.060
74742CL-    CL-47057  12.841  27.969   1.907
74743CL-    CL-47058  34.406  38.846   2.291
74744CL-    CL-47059  18.586   3.361  14.304
74745CL-    CL-47060  36.886  15.716  12.498
74746CL-    CL-47061  13.306  32.548   4.661
74747CL-    CL-47062  44.885  25.597   0.428
74748CL-    CL-47063  36.578  35.415  13.535
74749CL-    CL-47064  15.225  27.611   3.711
74750CL-    CL-47065  20.583   7.767  14.996
74751CL-    CL-47066  44.407  32.060   1.419
74752CL-    CL-47067  19.632  15.763   3.172
74753CL-    CL-47068  37.362   1.954   0.939
74754CL-    CL-47069  35.966  37.550   4.647
74755CL-    CL-47070  33.423   6.693   3.195
74756CL-    CL-47071  17.577  42.788  14.830
74757CL-    CL-47072  43.509  24.158  13.412
74758CL-    CL-47073   7.312  34.976  11.575
74759CL-    CL-47074  40.925   4.771  11.047
74760CL-    CL-47075  42.940  38.567  14.445
74761CL-    CL-47076  11.229  43.821  11.507
74762CL-    CL-47077  28.578  25.567  14.767
74763CL-    CL-47078   4.306  43.477   0.907
74764CL-    CL-47079  15.698  27.081   2.705
74765CL-    CL-47080  35.379   7.395  11.051
74766CL-    CL-47081  22.685  43.872  13.808
74767CL-    CL-47082  18.186  37.515  10.924
74768CL-    CL-47083   5.332  28.517  12.550
74769CL-    CL-47084  41.005   2.305  12.991
74770CL-    CL-47085  40.911  32.923   1.434
74771CL-    CL-47086  32.450  24.509  11.484
74772CL-    CL-47087  39.846  35.400  13.320
74773CL-    CL-47088  36.024  44.332   2.725
74774CL-    CL-47089  33.459  26.591  14.293
74775CL-    CL-47090  13.106  15.713   4.269
74776CL-    CL-47091  19.623  20.088   0.760
74777CL-    CL-47092   3.387  20.180  14.337
74778CL-    CL-47093  25.008  37.860   0.429
74779CL-    CL-47094  35.861  42.329   1.842
74780CL-    CL-47095   4.293  12.799  10.416
74781CL-    CL-47096  10.722  37.966  11.891
74782CL-    CL-47097   3.763  10.249   4.642
74783CL-    CL-47098   9.200  36.887  14.955
74784CL-    CL-47099  15.607   5.439   4.290
74785CL-    CL-47100  39.849   0.875  14.474
74786CL-    CL-47101   5.262  15.202  12.556
74787CL-    CL-47102  23.022  16.655   1.904
74788CL-    CL-47103  37.003  21.625  12.455
74789CL-    CL-47104  39.465   4.836   1.283
74790CL-    CL-47105  15.794   5.699   1.869
74791CL-    CL-47106  15.811  31.897   2.360
74792CL-    CL-47107  35.457  33.397  10.923
74793CL-    CL-47108   7.849   2.831  10.533
74794CL-    CL-47109  18.260  41.351  11.994
74795CL-    CL-47110  23.041   3.839  12.003
74796CL-    CL-47111  41.991   5.792   2.746
74797CL-    CL-47112  29.456  39.853   2.664
74798CL-    CL-47113  35.498  19.622   3.812
74799CL-    CL-47114  37.990   8.363  10.982
74800CL-    CL-47115  27.519  23.662   4.698
74801CL-    CL-47116   7.215   0.288   0.462
74802CL-    CL-47117  14.704  18.237   5.284
74803CL-    CL-47118  10.710  34.075  12.013
74804CL-    CL-47119  24.679  14.726   3.344
74805CL-    CL-47120  42.867   0.311  11.555
74806CL-    CL-47121  21.143   1.977   0.246
74807CL-    CL-47122  11.662  35.517   1.394
74808CL-    CL-47123  13.179  30.471   5.235
74809CL-    CL-47124  33.453   9.352  14.009
74810CL-    CL-47125  14.166   2.866   0.767
74811CL-    CL-47126  35.852  41.493  13.819
74812CL-    CL-47127  28.128  24.697  14.475
74813CL-    CL-47128  38.030  39.535  10.433
74814CL-    CL-47129  43.293  12.811   3.851
74815CL-    CL-47130   3.874  24.588   0.749
74816CL-    CL-47131   1.733  39.025  13.838
74817CL-    CL-47132  34.491  43.000  10.574
74818CL-    CL-47133   4.931  26.626  10.889
74819CL-    CL-47134  43.358  41.503   2.770
74820CL-    CL-47135  36.960  40.857  10.510
74821CL-    CL-47136  30.643   6.301  12.085
74822CL-    CL-47137  11.765  21.563  12.468
74823CL-    CL-47138  38.991   3.221  13.063
74824CL-    CL-47139   0.913  11.277  11.855
74825CL-    CL-47140   7.335  38.559  11.992
74826CL-    CL-47141  10.756   8.848  10.639
74827CL-    CL-47142  18.636  14.722  12.863
74828CL-    CL-47143  21.070  19.270   3.640
74829CL-    CL-47144  34.588  41.942  11.600
74830CL-    CL-47145  12.309  33.444   4.739
74831CL-    CL-47146  32.026   5.230   0.256
74832CL-    CL-47147  36.070  23.626  11.092
74833CL-    CL-47148  44.799  16.214  10.994
74834CL-    CL-47149   2.738  42.376   3.653
74835CL-    CL-47150  38.042   1.874   0.413
74836CL-    CL-47151  25.213  22.200   3.792
74837CL-    CL-47152  26.199   9.241   3.758
74838CL-    CL-47153  32.492  22.119   3.332
74839CL-    CL-47154  36.431  42.906  11.078
74840CL-    CL-47155   4.249  13.619   4.804
74841CL-    CL-47156  13.806  24.564   3.784
74842CL-    CL-47157  39.976  28.037   3.279
74843CL-    CL-47158   1.249  40.022   2.903
74844CL-    CL-47159  37.524  24.007  11.503
74845CL-    CL-47160  26.686  30.910  13.939
74846CL-    CL-47161   3.308  29.617  11.516
74847CL-    CL-47162  41.464   8.210   1.441
74848CL-    CL-47163  29.576  29.109   1.440
74849CL-    CL-47164  37.989  17.610   1.211
74850CL-    CL-47165  26.458  30.938  10.593
74851CL-    CL-47166  33.453  26.483   0.482
74852CL-    CL-47167   8.335   3.837   3.235
74853CL-    CL-47168  33.933   4.746  10.004
74854CL-    CL-47169   9.645  21.151   2.348
74855CL-    CL-47170  36.476  37.972   2.753
74856CL-    CL-47171  15.257  18.766   2.673
74857CL-    CL-47172  20.683   4.422   1.306
74858CL-    CL-47173  22.557   3.418  12.418
74859CL-    CL-47174   0.379   6.884   2.185
74860CL-    CL-47175  38.878  34.064   4.659
74861CL-    CL-47176  27.615  27.672  10.423
74862CL-    CL-47177   3.933  28.110  13.941
74863CL-    CL-47178   8.274   2.732   3.666
74864CL-    CL-47179  19.565   3.390   4.155
74865CL-    CL-47180  13.309  21.063  14.320
74866CL-    CL-47181  38.431  41.313   1.371
74867CL-    CL-47182  17.801   1.368  11.584
74868CL-    CL-47183  33.624  42.971  11.447
74869CL-    CL-47184   1.757   1.855   2.690
74870CL-    CL-47185  27.979   3.435   5.250
74871CL-    CL-47186  11.789   8.380  11.464
74872CL-    CL-47187  30.551  18.269   2.382
74873CL-    CL-47188   8.721   9.176  13.932
74874CL-    CL-47189   8.877  38.831   4.330
74875CL-    CL-47190   6.715  19.168   1.246
74876CL-    CL-47191  28.035  16.102   2.373
74877CL-    CL-47192  16.076  36.379  14.509
74878CL-    CL-47193   0.760   7.217   2.348
74879CL-    CL-47194  28.635  31.560   5.261
74880CL-    CL-47195  36.053  18.770   2.786
74881CL-    CL-47196  23.548   4.861  14.444
74882CL-    CL-47197  41.513  37.427  10.921
74883CL-    CL-47198  23.029  24.210  11.468
74884CL-    CL-47199  29.137   6.188  12.920
74885CL-    CL-47200  34.614   4.759  11.992
74886CL-    CL-47201  35.423  43.891   3.647
74887CL-    CL-47202  12.234  38.455  13.953
74888CL-    CL-47203  23.690  27.484   4.324
74889CL-    CL-47204  11.163   7.795  13.333
74890CL-    CL-47205  15.236  37.353   3.819
74891CL-    CL-47206   2.317  44.460   2.253
74892CL-    CL-47207  28.497  22.212   1.859
74893CL-    CL-47208  32.018  21.101   2.232
74894CL-    CL-47209  12.189   1.946   3.146
74895CL-    CL-47210  41.303  32.568  14.480
74896CL-    CL-47211  30.512  10.633   3.637
74897CL-    CL-47212  32.521  42.497  13.875
74898CL-    CL-47213  44.864  10.769   4.338
74899CL-    CL-47214  21.053   7.193   1.424
74900CL-    CL-47215  29.474   4.287   2.736
74901CL-    CL-47216  24.182  32.455   2.365
74902CL-    CL-47217  23.222  40.942   0.286
74903CL-    CL-47218   5.752  15.252  12.830
74904CL-    CL-47219  41.490  17.752  11.077
74905CL-    CL-47220  14.764  32.005   3.769
74906CL-    CL-47221  19.058  24.206  14.804
74907CL-    CL-47222   7.351  10.251   1.750
74908CL-    CL-47223  35.479  12.808  11.095
74909CL-    CL-47224   8.323   9.773   4.282
74910CL-    CL-47225  39.999  40.834  14.010
74911CL-    CL-47226  28.170  28.019  12.840
74912CL-    CL-47227  42.482  19.588  14.787
74913CL-    CL-47228   2.338  32.939  10.619
74914CL-    CL-47229  31.114  34.863  12.573
74915CL-    CL-47230  12.222  13.184   1.418
74916CL-    CL-47231   2.375  11.173   4.252
74917CL-    CL-47232   0.882   5.326  10.438
74918CL-    CL-47233   7.714  40.375  12.354
74919CL-    CL-47234  25.704  42.472  14.331
74920CL-    CL-47235  28.632   5.408   9.973
74921CL-    CL-47236   7.704  39.908  14.900
74922CL-    CL-47237   4.721   6.299   3.746
74923CL-    CL-47238  12.202  24.631   3.336
74924CL-    CL-47239  17.624   4.306  11.923
74925CL-    CL-47240  39.953  17.669   1.371
74926CL-    CL-47241  42.821  21.225   3.663
74927CL-    CL-47242  14.098  43.823   1.224
74928CL-    CL-47243  36.494  41.904  11.561
74929CL-    CL-47244  30.927   5.344   4.635
74930CL-    CL-47245  25.674  35.472  14.476
74931CL-    CL-47246   8.724  29.024   4.141
74932CL-    CL-47247  43.296   9.826  13.980
74933CL-    CL-47248  10.187  40.516   5.249
74934CL-    CL-47249  12.678  35.029  10.955
74935CL-    CL-47250  16.679  42.424  14.372
74936CL-    CL-47251  16.759  10.347  12.847
74937CL-    CL-47252   7.895   1.471   2.208
74938CL-    CL-47253  40.010  37.414  14.380
74939CL-    CL-47254  10.298   1.786   0.394
74940CL-    CL-47255  43.281  32.455   1.303
74941CL-    CL-47256  11.677  34.925  12.067
74942CL-    CL-47257  19.129  40.359  14.848
74943CL-    CL-47258   3.765   7.265   4.230
74944CL-    CL-47259  22.090   0.815   0.871
74945CL-    CL-47260  42.473  36.966   3.635
74946CL-    CL-47261  25.204  38.916   3.279
74947CL-    CL-47262  22.651  39.037  14.464
74948CL-    CL-47263  36.514  10.183   5.163
74949CL-    CL-47264  15.322  38.871  11.012
74950CL-    CL-47265   6.267  23.644  12.828
74951CL-    CL-47266   9.720  36.566  12.448
74952CL-    CL-47267  21.729  35.102  13.453
74953CL-    CL-47268  30.584   7.773   2.680
74954CL-    CL-47269  27.067   5.245   2.711
74955CL-    CL-47270   7.374   5.208  12.955
74956CL-    CL-47271   0.430  33.990  11.031
74957CL-    CL-47272  10.189   8.375  10.503
74958CL-    CL-47273  18.239  13.734   2.782
74959CL-    CL-47274   4.270  14.310  14.781
74960CL-    CL-47275  41.020  10.748  11.949
74961CL-    CL-47276  29.660  41.316  14.338
74962CL-    CL-47277   1.459  44.903  11.610
74963CL-    CL-47278  12.269  32.048   1.861
74964CL-    CL-47279  20.610  31.955   0.290
74965CL-    CL-47280  15.193  12.817   0.764
74966CL-    CL-47281  43.418  17.589  12.454
74967CL-    CL-47282   5.413   6.831   4.311
74968CL-    CL-47283  26.182  17.732  10.636
74969CL-    CL-47284  44.454  43.455   1.358
74970CL-    CL-47285  10.210  41.015  14.334
74971CL-    CL-47286  26.622  14.596   3.232
74972CL-    CL-47287   1.236  35.901  14.500
74973CL-    CL-47288  33.549  26.699   1.752
74974CL-    CL-47289  27.602   8.689   2.725
74975CL-    CL-47290  15.135  27.670   4.232
74976CL-    CL-47291  39.435  44.404   3.188
74977CL-    CL-47292  28.557  33.889   2.853
74978CL-    CL-47293  21.612  32.992  13.413
74979CL-    CL-47294  21.212  41.483   1.355
74980CL-    CL-47295   4.221  29.138   1.902
74981CL-    CL-47296   9.651  18.279  10.620
74982CL-    CL-47297   8.217  36.878  14.859
74983CL-    CL-47298  19.615  25.584   5.241
74984CL-    CL-47299   9.252  18.065  12.940
74985CL-    CL-47300  15.703  40.428  12.413
74986CL-    CL-47301  35.581   2.403   4.150
74987CL-    CL-47302   6.698  42.998  13.535
74988CL-    CL-47303  38.376   4.707   3.673
74989CL-    CL-47304  18.103  34.508  13.381
74990CL-    CL-47305  21.100  24.136  13.820
74991CL-    CL-47306  19.269  30.146  12.056
74992CL-    CL-47307   0.441  10.163   0.275
74993CL-    CL-47308  34.474  22.049   0.384
74994CL-    CL-47309  42.981  13.786   3.245
74995CL-    CL-47310  21.237  34.455   4.706
74996CL-    CL-47311  30.001  10.330   1.280
74997CL-    CL-47312  25.009  15.778  14.873
74998CL-    CL-47313  20.041  32.117   1.782
74999CL-    CL-47314  16.768  10.208   4.633
75000CL-    CL-47315  12.304  31.005   4.773
75001CL-    CL-47316  12.800   8.720   1.821
75002CL-    CL-47317  39.335  16.214   4.825
75003CL-    CL-47318  35.426  31.459   4.189
75004CL-    CL-47319  31.041  22.135  11.410
75005CL-    CL-47320  19.063  35.892   3.268
75006CL-    CL-47321  22.092  20.759  11.521
75007CL-    CL-47322  42.362  25.600  12.869
75008CL-    CL-47323  38.908   5.729   3.299
75009CL-    CL-47324  43.294  33.020   1.294
75010CL-    CL-47325  38.347   9.318  13.792
75011CL-    CL-47326   8.730  38.464   0.453
75012CL-    CL-47327  18.742  23.736  12.538
75013CL-    CL-47328  22.053  33.614  14.337
75014CL-    CL-47329  38.365   2.805   3.668
75015CL-    CL-47330   3.745  40.830  14.771
75016CL-    CL-47331  41.368  21.059  11.592
75017CL-    CL-47332  24.033  27.588   3.237
75018CL-    CL-47333  43.855  37.886  13.507
75019CL-    CL-47334   5.851  14.176   3.158
75020CL-    CL-47335  26.019  41.511  13.987
75021CL-    CL-47336  19.251  39.977  12.358
75022CL-    CL-47337  21.636  10.712  11.454
75023CL-    CL-47338  23.168   0.407   3.268
75024CL-    CL-47339   1.406   6.403   2.896
75025CL-    CL-47340  44.755   9.277   9.618
75026CL-    CL-47341  32.940  28.487   3.300
75027CL-    CL-47342  18.077   8.808  14.464
75028CL-    CL-47343   1.933  42.807  12.573
75029CL-    CL-47344  44.768   9.701   0.404
75030CL-    CL-47345   3.407   8.889  13.333
75031CL-    CL-47346  32.129   0.756   3.802
75032CL-    CL-47347  25.996  17.301   2.900
75033CL-    CL-47348  17.743  15.160   0.437
75034CL-    CL-47349  37.953  20.226  14.355
75035CL-    CL-47350   0.866   8.262   2.729
75036CL-    CL-47351  44.275  21.609  13.434
75037CL-    CL-47352  32.977  38.873  10.605
75038CL-    CL-47353   0.335  36.453  12.350
75039CL-    CL-47354  39.962  17.589  13.840
75040CL-    CL-47355  41.019  44.416   0.911
75041CL-    CL-47356  19.216  34.953   1.285
75042CL-    CL-47357  43.513  22.649  11.902
75043CL-    CL-47358   8.352   5.868   0.431
75044CL-    CL-47359  34.412  43.366  12.037
75045CL-    CL-47360  13.305   7.374   1.771
75046CL-    CL-47361  44.949  40.925  10.621
75047CL-    CL-47362   9.840   9.191  12.400
75048CL-    CL-47363  37.010  39.941   2.867
75049CL-    CL-47364  25.183  34.016  13.875
75050CL-    CL-47365  41.310  18.642   1.287
75051CL-    CL-47366  11.197  22.166   0.351
75052CL-    CL-47367  20.603  14.740   3.846
75053CL-    CL-47368   1.267  41.855  12.468
75054CL-    CL-47369  12.357  15.716   2.793
75055CL-    CL-47370  36.382  40.542  11.590
75056CL-    CL-47371  40.380  35.451   3.202
75057CL-    CL-47372  44.351  39.919  14.474
75058CL-    CL-47373  35.444  43.428  14.837
75059CL-    CL-47374   9.313  22.520  10.920
75060CL-    CL-47375  15.742  14.770  14.368
75061CL-    CL-47376  15.774  38.414  10.036
75062CL-    CL-47377  10.272   2.464  12.533
75063CL-    CL-47378  22.232  36.514   4.257
75064CL-    CL-47379  38.873  31.424   4.144
75065CL-    CL-47380  38.999  12.686   2.757
75066CL-    CL-47381  21.240   2.806  11.397
75067CL-    CL-47382  19.705   3.237   4.687
75068CL-    CL-47383  43.932  26.032  11.884
75069CL-    CL-47384  42.931  42.809   0.854
75070CL-    CL-47385   1.289  18.155   2.196
75071CL-    CL-47386   4.326  31.080   3.707
75072CL-    CL-47387   6.829  35.358   0.440
75073CL-    CL-47388  19.542  40.372   9.508
75074CL-    CL-47389  26.604  42.028   0.379
75075CL-    CL-47390  27.551  18.234  14.849
75076CL-    CL-47391  22.627  22.034  12.527
75077CL-    CL-47392  13.671   4.814   2.253
75078CL-    CL-47393  18.054  20.697   1.917
75079CL-    CL-47394   0.260   3.230  12.942
75080CL-    CL-47395   3.853   0.484  10.622
75081CL-    CL-47396  22.078  26.194  11.605
75082CL-    CL-47397  35.891  19.611   2.311
75083CL-    CL-47398   1.834  43.946  10.425
75084CL-    CL-47399  37.054  42.391   1.326
75085CL-    CL-47400  28.156   2.818   5.214
75086CL-    CL-47401  41.391  39.993   3.724
75087CL-    CL-47402  23.077  11.662  12.577
75088CL-    CL-47403   4.779  10.876   2.234
75089CL-    CL-47404  17.652  33.917   0.844
75090CL-    CL-47405   3.301   4.384  13.974
75091CL-    CL-47406  29.012  34.938  15.000
75092CL-    CL-47407   6.416  27.187  11.538
75093CL-    CL-47408  28.991  33.888  10.138
75094CL-    CL-47409  17.678  18.646  14.017
75095CL-    CL-47410  23.233  39.848  10.998
75096CL-    CL-47411  10.647  43.776  10.520
75097CL-    CL-47412  37.466  29.616  14.026
75098CL-    CL-47413  15.257  38.368  12.484
75099CL-    CL-47414   5.371  13.254   4.131
75100CL-    CL-47415  24.150  32.506  13.406
75101CL-    CL-47416  38.904   7.895   3.315
75102CL-    CL-47417  11.636  37.532  12.011
75103CL-    CL-47418  10.876   8.184  10.446
75104CL-    CL-47419  14.229   3.808   1.766
75105CL-    CL-47420  34.072  28.996  10.950
75106CL-    CL-47421  43.483  33.064   4.337
75107CL-    CL-47422  43.440  14.816   1.799
75108CL-    CL-47423   4.265   2.891  11.496
75109CL-    CL-47424   5.909   9.745   0.771
75110CL-    CL-47425   5.701   2.349   0.928
75111CL-    CL-47426  28.142  42.953  14.307
75112CL-    CL-47427  32.456  21.615   4.761
75113CL-    CL-47428   6.897   4.886  10.429
75114CL-    CL-47429  20.190  32.409  13.843
75115CL-    CL-47430  32.896  32.518  10.949
75116CL-    CL-47431  27.042  40.815  10.565
75117CL-    CL-47432  24.665  21.698   2.308
75118CL-    CL-47433  34.023  13.294   3.313
75119CL-    CL-47434   9.222   0.418  11.415
75120CL-    CL-47435  18.571  20.162   1.761
75121CL-    CL-47436   4.891   6.858  11.400
75122CL-    CL-47437  36.538   4.706   9.992
75123CL-    CL-47438  40.464  27.523  12.912
75124CL-    CL-47439   1.292  36.462  10.061
75125CL-    CL-47440  11.670  36.508  14.380
75126CL-    CL-47441   5.838   4.347   3.354
75127CL-    CL-47442  19.165   0.450  14.817
75128CL-    CL-47443  17.658  24.041  14.455
75129CL-    CL-47444  23.180  41.536  11.009
75130CL-    CL-47445  18.711  12.715   2.881
75131CL-    CL-47446  33.489  41.843   1.217
75132CL-    CL-47447  21.196   9.152   2.414
75133CL-    CL-47448   8.183   0.749   4.196
75134CL-    CL-47449  40.051  23.028   2.796
75135CL-    CL-47450  29.620  15.803  14.305
75136CL-    CL-47451  27.471  35.393   0.480
75137CL-    CL-47452  12.843  17.782   3.158
75138CL-    CL-47453  16.652  39.357  11.021
75139CL-    CL-47454  26.591  43.342   4.304
75140CL-    CL-47455   9.826  18.708   4.243
75141CL-    CL-47456  24.479  18.705  10.932
75142CL-    CL-47457  25.164  28.613   0.404
75143CL-    CL-47458   6.830  15.100   3.235
75144CL-    CL-47459  23.656  38.058   0.465
75145CL-    CL-47460  39.018   0.794   1.319
75146CL-    CL-47461  20.701  20.595  13.344
75147CL-    CL-47462   6.747  25.502  14.404
75148CL-    CL-47463  25.974  20.215  12.052
75149CL-    CL-47464  24.710  20.523  12.445
75150CL-    CL-47465  14.723  22.572   2.719
75151CL-    CL-47466  29.640  41.465  14.785
75152CL-    CL-47467  44.837  24.976  14.387
75153CL-    CL-47468   0.308  44.295  13.037
75154CL-    CL-47469  12.348  40.991  14.488
75155CL-    CL-47470  17.751   9.649   1.801
75156CL-    CL-47471   4.867   5.889  13.547
75157CL-    CL-47472  26.078  36.945  11.893
75158CL-    CL-47473  12.216  34.889  14.480
75159CL-    CL-47474  36.981  10.760   4.284
75160CL-    CL-47475   2.398  19.113  14.392
75161CL-    CL-47476  38.053  16.128  11.042
75162CL-    CL-47477  11.287  41.841   3.239
75163CL-    CL-47478  34.600  25.709  14.304
75164CL-    CL-47479   4.768  21.516  14.976
75165CL-    CL-47480  35.866  22.595  14.961
75166CL-    CL-47481  40.898   1.401   4.718
75167CL-    CL-47482   0.936  36.864   2.324
75168CL-    CL-47483  31.122   2.867  12.846
75169CL-    CL-47484   7.778  27.470  12.872
75170CL-    CL-47485  44.925  22.563   4.683
75171CL-    CL-47486  27.150  11.230   4.638
75172CL-    CL-47487  11.227  19.649  13.363
75173CL-    CL-47488  24.649   1.240  13.372
75174CL-    CL-47489  31.565  30.083   4.345
75175CL-    CL-47490  44.301  18.657   1.211
75176CL-    CL-47491  33.999  31.554  14.406
75177CL-    CL-47492  42.860  16.713  11.454
75178CL-    CL-47493  21.066  21.226  13.055
75179CL-    CL-47494  36.904  38.940   4.149
75180CL-    CL-47495  15.722  29.059   1.917
75181CL-    CL-47496  32.956  28.549  13.347
75182CL-    CL-47497  36.478  31.462  14.949
75183CL-    CL-47498  24.160  25.192   2.761
75184CL-    CL-47499  35.468   5.237   0.808
75185CL-    CL-47500  14.616   6.269   1.257
75186CL-    CL-47501   7.343   6.376   3.245
75187CL-    CL-47502  24.021  17.725   3.857
75188CL-    CL-47503  44.822  16.306   1.404
75189CL-    CL-47504  18.581  13.723  10.943
75190CL-    CL-47505   4.819   1.924   0.808
75191CL-    CL-47506  38.555  40.924   3.343
75192CL-    CL-47507  42.871  12.280  13.967
75193CL-    CL-47508   5.369  24.051  10.491
75194CL-    CL-47509  35.858   5.277  13.959
75195CL-    CL-47510   8.246   1.737  10.454
75196CL-    CL-47511  21.595  26.692   4.347
75197CL-    CL-47512  18.640  28.046   0.877
75198CL-    CL-47513  14.175  39.880   3.386
75199CL-    CL-47514  38.904  12.357  10.584
75200CL-    CL-47515  39.315  22.104   3.813
75201CL-    CL-47516   0.278  30.094   2.318
75202CL-    CL-47517   5.703  20.542   3.692
75203CL-    CL-47518  38.357  40.819   2.714
75204CL-    CL-47519  28.463   6.859   5.178
75205CL-    CL-47520  15.704  34.507  13.389
75206CL-    CL-47521  43.409   1.417  12.884
75207CL-    CL-47522  24.110  28.121  10.069
75208CL-    CL-47523  22.176   5.197  14.913
75209CL-    CL-47524   2.234  22.025   2.808
75210CL-    CL-47525  34.009  19.727  12.837
75211CL-    CL-47526   8.323   5.433  11.029
75212CL-    CL-47527  24.225  28.141   1.435
75213CL-    CL-47528  42.825  36.862   0.911
75214CL-    CL-47529  36.438  41.337  11.897
75215CL-    CL-47530  13.659  33.426   3.287
75216CL-    CL-47531  25.712   4.233   9.566
75217CL-    CL-47532  39.508  33.507   2.733
75218CL-    CL-47533  18.080  37.894   5.754
75219CL-    CL-47534  21.664  19.044   3.652
75220CL-    CL-47535  15.311  42.860  12.968
75221CL-    CL-47536   3.913  26.959  12.007
75222CL-    CL-47537  15.312  22.042   3.216
75223CL-    CL-47538  26.587  37.567   1.845
75224CL-    CL-47539   3.406  17.783  14.888
75225CL-    CL-47540  30.418  28.629  10.473
75226CL-    CL-47541  44.261  14.095   0.464
75227CL-    CL-47542  34.514  30.017  14.866
75228CL-    CL-47543  16.228  34.524   0.902
75229CL-    CL-47544  19.634  10.143  10.977
75230CL-    CL-47545  42.833  39.931   0.923
75231CL-    CL-47546  18.085  25.618   4.130
75232CL-    CL-47547  15.110  44.900   0.867
75233CL-    CL-47548   3.419   6.336   5.237
75234CL-    CL-47549  26.987  13.348   4.704
75235CL-    CL-47550  29.014  39.361  12.460
75236CL-    CL-47551  13.147  30.039   3.220
75237CL-    CL-47552  11.697  34.500  11.476
75238CL-    CL-47553  39.994  32.961   1.884
75239CL-    CL-47554   1.330  40.826  10.980
75240CL-    CL-47555  12.185  16.670  11.858
75241CL-    CL-47556   4.899  40.423  11.954
75242CL-    CL-47557  23.554  21.741   4.759
75243CL-    CL-47558  36.486  22.232   1.213
75244CL-    CL-47559  13.131  13.685  12.052
75245CL-    CL-47560   2.899  27.553  12.427
75246CL-    CL-47561  37.533  40.053  14.497
75247CL-    CL-47562   7.381  34.985  10.570
75248CL-    CL-47563  12.731  28.083   1.431
75249CL-    CL-47564  30.563  40.457   1.809
75250CL-    CL-47565  38.541  39.991   2.294
75251CL-    CL-47566  34.922   7.316   4.248
75252CL-    CL-47567  38.355  17.767  14.311
75253CL-    CL-47568  41.409  23.722  14.492
75254CL-    CL-47569   1.804  10.212  14.320
75255CL-    CL-47570  14.165  23.989   0.456
75256CL-    CL-47571  29.136  28.133  12.461
75257CL-    CL-47572  19.221  32.990   1.779
75258CL-    CL-47573  40.379   1.967   3.767
75259CL-    CL-47574  29.971  42.400  14.016
75260CL-    CL-47575   9.364   0.390  14.810
75261CL-    CL-47576  40.490  28.511   3.780
75262CL-    CL-47577   1.243  25.055  14.795
75263CL-    CL-47578  23.242   0.275   0.345
75264CL-    CL-47579   9.699  30.060  13.015
75265CL-    CL-47580  34.029   9.845   2.827
75266CL-    CL-47581   8.241  10.300  10.465
75267CL-    CL-47582  44.769   2.457  11.551
75268CL-    CL-47583  11.731  44.897  13.490
75269CL-    CL-47584   4.245  41.358   2.290
75270CL-    CL-47585  10.637  36.018  12.381
75271CL-    CL-47586   8.816  25.621  10.475
75272CL-    CL-47587  15.626  22.597  12.435
75273CL-    CL-47588  26.684  13.329   1.717
75274CL-    CL-47589  12.315   5.386   4.247
75275CL-    CL-47590   5.900  28.662  14.371
75276CL-    CL-47591  20.626  23.123  13.936
75277CL-    CL-47592   6.860  38.909  12.867
75278CL-    CL-47593  27.607  16.310  14.012
75279CL-    CL-47594  12.842   7.844  10.535
75280CL-    CL-47595  17.197  32.606   3.764
75281CL-    CL-47596  43.839  32.918   4.617
75282CL-    CL-47597   6.735   0.265   1.781
75283CL-    CL-47598  35.506  19.732  11.588
75284CL-    CL-47599  18.624  25.072  12.053
75285CL-    CL-47600   7.274  31.020   4.223
75286CL-    CL-47601  14.139  42.502   1.225
75287CL-    CL-47602  16.100  42.479  13.321
75288CL-    CL-47603  34.565  35.912  14.424
75289CL-    CL-47604  19.717  16.580  12.350
75290CL-    CL-47605   5.429  20.734  13.404
75291CL-    CL-47606  21.241  23.508  11.455
75292CL-    CL-47607   1.865  40.315   3.314
75293CL-    CL-47608  23.208  37.476  11.970
75294CL-    CL-47609  39.448  27.502   2.408
75295CL-    CL-47610  19.245  19.244   3.379
75296CL-    CL-47611   0.937  20.595   1.366
75297CL-    CL-47612  25.005  22.035   1.214
75298CL-    CL-47613   7.675  39.014  14.980
75299CL-    CL-47614  23.561  37.499  14.899
75300CL-    CL-47615  24.560  15.146  11.484
75301CL-    CL-47616  25.547  44.415   1.918
75302CL-    CL-47617  12.333   9.683  12.568
75303CL-    CL-47618  20.659  13.312   1.700
75304CL-    CL-47619   4.899  20.727   9.923
75305CL-    CL-47620  20.530   6.429   4.296
75306CL-    CL-47621  18.209  21.106   3.373
75307CL-    CL-47622  15.098  26.469  10.972
75308CL-    CL-47623  42.911  14.340   0.404
75309CL-    CL-47624   4.808  26.642  13.540
75310CL-    CL-47625  38.379  13.137   3.311
75311CL-    CL-47626  27.991  32.928  10.889
75312CL-    CL-47627  37.533   4.267  13.446
75313CL-    CL-47628   7.685   7.786  13.526
75314CL-    CL-47629  30.655   2.749  13.385
75315CL-    CL-47630  23.613  13.137  11.857
75316CL-    CL-47631  22.627  42.917  13.999
75317CL-    CL-47632  28.668  39.473   3.234
75318CL-    CL-47633  27.953  31.441   2.691
75319CL-    CL-47634   1.823  30.470  12.374
75320CL-    CL-47635  12.652  15.800   4.164
75321CL-    CL-47636  42.837   3.412   4.683
75322CL-    CL-47637   7.793  23.143  14.872
75323CL-    CL-47638  38.543  23.695  13.018
75324CL-    CL-47639  14.155  24.008  14.285
75325CL-    CL-47640   3.418   0.464   4.824
75326CL-    CL-47641   8.319  37.941  12.560
75327CL-    CL-47642  36.005  21.543   1.411
75328CL-    CL-47643  29.454  27.008   0.749
75329CL-    CL-47644  26.610   3.893   0.762
75330CL-    CL-47645  25.148  40.465   1.860
75331CL-    CL-47646  43.798  11.770  11.909
75332CL-    CL-47647  18.237  42.801  14.878
75333CL-    CL-47648  29.490  28.594   2.842
75334CL-    CL-47649  29.530   7.395  10.485
75335CL-    CL-47650  26.155  13.675  11.377
75336CL-    CL-47651  36.852  37.888   2.780
75337CL-    CL-47652  29.926   9.859  14.871
75338CL-    CL-47653  31.986   8.890  14.355
75339CL-    CL-47654  27.604   8.786  14.800
75340CL-    CL-47655  26.050  19.556  13.885
75341CL-    CL-47656  10.321  24.160  11.009
75342CL-    CL-47657  10.285  36.567   3.339
75343CL-    CL-47658  41.966  39.364  14.900
75344CL-    CL-47659  34.912   5.223  13.332
75345CL-    CL-47660   5.290  43.940   0.397
75346CL-    CL-47661  36.000   0.343   2.865
75347CL-    CL-47662  27.497  40.468  13.408
75348CL-    CL-47663  28.959  43.297   2.676
75349CL-    CL-47664  32.484  41.318  10.971
75350CL-    CL-47665  27.195  18.747   2.812
75351CL-    CL-47666  19.704  44.327  12.838
75352CL-    CL-47667   7.679  39.548  14.280
75353CL-    CL-47668  12.822   4.337  13.988
75354CL-    CL-47669  30.420  22.044   3.181
75355CL-    CL-47670  40.924  31.029  11.045
75356CL-    CL-47671  43.336   4.924  12.959
75357CL-    CL-47672   4.325   3.340  12.936
75358CL-    CL-47673  43.013  24.715  12.963
75359CL-    CL-47674  35.997  11.356  14.848
75360CL-    CL-47675  13.750  29.621  14.361
75361CL-    CL-47676  34.390  32.015   2.693
75362CL-    CL-47677   2.426  44.318   4.698
75363CL-    CL-47678  21.695  40.453   3.166
75364CL-    CL-47679  39.822   9.155  13.456
75365CL-    CL-47680   5.714  42.866  11.568
75366CL-    CL-47681   5.404   2.912  12.084
75367CL-    CL-47682  13.314  36.360  14.960
75368CL-    CL-47683  26.671  10.794  14.776
75369CL-    CL-47684  39.884  31.113  10.624
75370CL-    CL-47685  36.090  34.587   3.316
75371CL-    CL-47686  38.967  22.033  11.872
75372CL-    CL-47687  26.465  23.159  14.454
75373CL-    CL-47688  23.671   4.710  13.952
75374CL-    CL-47689  13.610  34.378  12.356
75375CL-    CL-47690  13.699  28.520  12.474
75376CL-    CL-47691  32.044  22.009  10.983
75377CL-    CL-47692  30.165  17.733   2.384
75378CL-    CL-47693  14.592  42.882  13.932
75379CL-    CL-47694  41.835   2.963   3.213
75380CL-    CL-47695  20.656  22.579   1.402
75381CL-    CL-47696  34.870  28.078   0.342
75382CL-    CL-47697  33.071  24.089  12.853
75383CL-    CL-47698   5.350   4.389   1.756
75384CL-    CL-47699   0.254  38.995   3.699
75385CL-    CL-47700  32.395   1.787   4.662
75386CL-    CL-47701  28.655  28.028  14.823
75387CL-    CL-47702  42.900  21.548  14.900
75388CL-    CL-47703  21.755  31.410  13.540
75389CL-    CL-47704  29.930  18.620   1.342
75390CL-    CL-47705   8.330  21.125   0.769
75391CL-    CL-47706  40.544   8.396  14.337
75392CL-    CL-47707  37.957   3.433  12.474
75393CL-    CL-47708  17.122   6.793   0.726
75394CL-    CL-47709  41.421  30.567  14.973
75395CL-    CL-47710  24.184  39.840  14.403
75396CL-    CL-47711  42.973  41.802  12.072
75397CL-    CL-47712  37.398   4.916   0.399
75398CL-    CL-47713   3.412  23.035  13.412
75399CL-    CL-47714  32.073  41.921  11.422
75400CL-    CL-47715  34.450  14.817  11.919
75401CL-    CL-47716  39.347  30.101   2.684
75402CL-    CL-47717  15.281  23.101  10.481
75403CL-    CL-47718  12.680  20.205  11.115
75404CL-    CL-47719  10.850  35.039   2.231
75405CL-    CL-47720  28.973  19.631   0.274
75406CL-    CL-47721   1.421  34.881  13.053
75407CL-    CL-47722   7.407  13.601   2.792
75408CL-    CL-47723  25.686  11.165  13.538
75409CL-    CL-47724  10.736  26.637   4.263
75410CL-    CL-47725   6.414  35.104   5.233
75411CL-    CL-47726   2.896  22.219   4.250
75412CL-    CL-47727   8.231  26.609  10.454
75413CL-    CL-47728  43.921  38.872   1.296
75414CL-    CL-47729  28.973  22.067  14.024
75415CL-    CL-47730   3.379  37.970   3.226
75416CL-    CL-47731  12.681  16.670  10.563
75417CL-    CL-47732  27.137  40.503   4.638
75418CL-    CL-47733  31.972  37.549  12.070
75419CL-    CL-47734  29.433  17.651   4.218
75420CL-    CL-47735   7.216  22.192  10.928
75421CL-    CL-47736  13.163  22.514  11.884
75422CL-    CL-47737  36.047   7.674  10.566
75423CL-    CL-47738  29.124  19.198  10.969
75424CL-    CL-47739  42.879   5.844   4.208
75425CL-    CL-47740  33.118  30.055  14.462
75426CL-    CL-47741   6.308   1.835   1.333
75427CL-    CL-47742   3.253  42.914  10.611
75428CL-    CL-47743  17.134  43.862   2.897
75429CL-    CL-47744  29.047  17.296  14.305
75430CL-    CL-47745  19.264  22.025   0.448
75431CL-    CL-47746   6.212  42.017   4.170
75432CL-    CL-47747  29.563  44.467  13.326
75433CL-    CL-47748   3.348  36.488   1.934
75434CL-    CL-47749   2.774  26.088  14.953
75435CL-    CL-47750  20.110  21.147   1.310
75436CL-    CL-47751  22.595  42.502   3.380
75437CL-    CL-47752   7.776  37.022   3.748
75438CL-    CL-47753   3.365  32.104  10.921
75439CL-    CL-47754  42.828   0.475  11.908
75440CL-    CL-47755   2.361  38.966   3.202
75441CL-    CL-47756  34.096   5.380   2.711
75442CL-    CL-47757   4.267  40.331   1.928
75443CL-    CL-47758  42.896   0.882  11.427
75444CL-    CL-47759  24.106  21.032   4.142
75445CL-    CL-47760  38.437  41.343   2.768
75446CL-    CL-47761  28.058  44.471  10.026
75447CL-    CL-47762  43.968  30.013   4.656
75448CL-    CL-47763  27.059  35.066   3.694
75449CL-    CL-47764  11.372   2.420   2.840
75450CL-    CL-47765   8.887  41.336   3.762
75451CL-    CL-47766  28.510  43.390   1.896
75452CL-    CL-47767   7.259   0.805  14.391
75453CL-    CL-47768  28.549   7.723  12.064
75454CL-    CL-47769  25.058  35.391   3.353
75455CL-    CL-47770   3.928  12.840  12.082
75456CL-    CL-47771  21.636  30.112  11.090
75457CL-    CL-47772   2.283  36.061  13.861
75458CL-    CL-47773   2.244  37.944   2.195
75459CL-    CL-47774   4.426  11.212  12.386
75460CL-    CL-47775   1.741  16.098  10.645
75461CL-    CL-47776   6.326   9.820   1.340
75462CL-    CL-47777  35.533   2.427  11.919
75463CL-    CL-47778   6.403  38.045   1.798
75464CL-    CL-47779  18.221  37.037   4.621
75465CL-    CL-47780  21.690  13.128   2.402
75466CL-    CL-47781  15.645  24.194  11.032
75467CL-    CL-47782  13.179  40.879   0.818
75468CL-    CL-47783  42.459   5.836  14.409
75469CL-    CL-47784   6.336   7.192  13.475
75470CL-    CL-47785  12.192  13.648  10.991
75471CL-    CL-47786  23.024  13.262   3.305
75472CL-    CL-47787  12.239  17.709   1.752
75473CL-    CL-47788  44.761  42.853   3.150
75474CL-    CL-47789   5.321   2.963  13.486
75475CL-    CL-47790  37.002  18.203   4.219
75476CL-    CL-47791  19.641   8.190  11.889
75477CL-    CL-47792  11.186  18.149   3.232
75478CL-    CL-47793  33.589  28.537   1.783
75479CL-    CL-47794  21.217  12.852  11.071
75480CL-    CL-47795  15.795  43.353   4.652
75481CL-    CL-47796  18.245  36.448  10.437
75482CL-    CL-47797  32.403  19.229   1.712
75483CL-    CL-47798  18.716   3.399   4.317
75484CL-    CL-47799  28.011  42.978  14.765
75485CL-    CL-47800  34.999  19.083   1.908
75486CL-    CL-47801  43.415  43.767   0.759
75487CL-    CL-47802  28.149  34.893  10.085
75488CL-    CL-47803  27.174   0.291   2.344
75489CL-    CL-47804  17.752  36.435   0.354
75490CL-    CL-47805  31.021   0.910  11.601
75491CL-    CL-47806  30.031  27.620   4.620
75492CL-    CL-47807   7.233  27.530  13.429
75493CL-    CL-47808  12.723  40.895  12.424
75494CL-    CL-47809  10.150  43.861  10.622
75495CL-    CL-47810   7.757  27.685  11.581
75496CL-    CL-47811  12.675  18.790  13.032
75497CL-    CL-47812  28.579  17.151  12.832
75498CL-    CL-47813   7.408  26.080  13.524
75499CL-    CL-47814  13.747  26.535   4.728
75500CL-    CL-47815  15.686  28.012   9.960
75501CL-    CL-47816   9.698  28.999   0.348
75502CL-    CL-47817  44.793  35.048   3.812
75503CL-    CL-47818   0.752  44.907   4.253
75504CL-    CL-47819   3.835  12.654   4.610
75505CL-    CL-47820  36.887  13.244   2.675
75506CL-    CL-47821  29.981  14.794  11.123
75507CL-    CL-47822  12.355  13.843  13.361
75508CL-    CL-47823  39.354   0.758  13.941
75509CL-    CL-47824  25.709  34.898  14.942
75510CL-    CL-47825  26.605   8.344   3.704
75511CL-    CL-47826  18.658  11.265   5.144
75512CL-    CL-47827  42.466  40.826   4.662
75513CL-    CL-47828  31.099  32.525  12.954
75514CL-    CL-47829  28.008  22.135   2.345
75515CL-    CL-47830  24.482  29.539   0.753
75516CL-    CL-47831  28.078  30.980  12.508
75517CL-    CL-47832  35.064  16.736   2.797
75518CL-    CL-47833  35.417   9.888   1.217
75519CL-    CL-47834   2.813  28.663  13.057
75520CL-    CL-47835  30.569   7.742   0.806
75521CL-    CL-47836  17.307  38.897  11.470
75522CL-    CL-47837  26.659  25.191  10.634
75523CL-    CL-47838   0.985  40.502   4.164
75524CL-    CL-47839   0.402   3.280   1.756
75525CL-    CL-47840  24.205  29.513  14.840
75526CL-    CL-47841  41.473  34.583  10.534
75527CL-    CL-47842  10.249  30.521  13.832
75528CL-    CL-47843  43.824   6.248   4.314
75529CL-    CL-47844  20.696  27.125   2.738
75530CL-    CL-47845   7.381  19.673   1.370
75531CL-    CL-47846  20.074  22.218   3.342
75532CL-    CL-47847  29.505  35.983  12.387
75533CL-    CL-47848  42.018   7.830  14.419
75534CL-    CL-47849   3.735   5.245  12.915
75535CL-    CL-47850  26.974  42.330   3.238
75536CL-    CL-47851  38.522  19.079  12.071
75537CL-    CL-47852  44.476  25.573   0.868
75538CL-    CL-47853  44.341  12.739  14.923
75539CL-    CL-47854  36.482  27.145  11.016
75540CL-    CL-47855  15.616   6.409  11.913
75541CL-    CL-47856  41.399  44.492   2.782
75542CL-    CL-47857   1.743   2.962   2.343
75543CL-    CL-47858  34.060  14.600  13.974
75544CL-    CL-47859   5.432  15.245   4.742
75545CL-    CL-47860  19.749  25.984  12.413
75546CL-    CL-47861  37.375  24.084   1.264
75547CL-    CL-47862  27.132  10.331  14.388
75548CL-    CL-47863  34.442  21.228   0.408
75549CL-    CL-47864  41.500   1.764   2.717
75550CL-    CL-47865  26.994   0.484  13.391
75551CL-    CL-47866   6.414  37.563  13.838
75552CL-    CL-47867   0.877   1.841   4.657
75553CL-    CL-47868   2.244  37.392  14.911
75554CL-    CL-47869  19.673  28.139   4.812
75555CL-    CL-47870   6.717  21.260  13.319
75556CL-    CL-47871  12.762   3.797   3.787
75557CL-    CL-47872  18.717   6.855  12.518
75558CL-    CL-47873  34.507  43.336  11.452
75559CL-    CL-47874   7.820  11.771   3.253
75560CL-    CL-47875   3.455   8.886   1.386
75561CL-    CL-47876  22.621   0.934   2.301
75562CL-    CL-47877  20.059  12.628   3.211
75563CL-    CL-47878  28.125  21.203  12.912
75564CL-    CL-47879  18.625  23.025   0.438
75565CL-    CL-47880  10.828  40.865  13.023
75566CL-    CL-47881  39.054  12.161  13.488
75567CL-    CL-47882  21.555  33.507   4.633
75568CL-    CL-47883  12.713  11.660   2.397
75569CL-    CL-47884  42.906  26.668   2.304
75570CL-    CL-47885  26.095  29.590  12.039
75571CL-    CL-47886  28.127  43.950  11.107
75572CL-    CL-47887  37.022   7.857  13.064
75573CL-    CL-47888  37.503   1.443  11.399
75574CL-    CL-47889  29.974  14.136  14.931
75575CL-    CL-47890  33.918  31.421   4.205
75576CL-    CL-47891  20.131   5.252  13.527
75577CL-    CL-47892  32.420  22.107   0.440
75578CL-    CL-47893  43.466  42.900   2.295
75579CL-    CL-47894  33.483  24.713   1.849
75580CL-    CL-47895  14.119  16.148   2.817
75581CL-    CL-47896  44.494  40.319   0.411
75582CL-    CL-47897  29.506   1.430  14.280
75583CL-    CL-47898   1.391  20.031   4.278
75584CL-    CL-47899  40.950  25.164  12.885
75585CL-    CL-47900  36.918  13.671   1.373
75586CL-    CL-47901  35.094  32.597  14.384
75587CL-    CL-47902  17.758  39.980  14.463
75588CL-    CL-47903  18.709  36.364  12.974
75589CL-    CL-47904  17.724   7.259  14.467
75590CL-    CL-47905  10.852  21.601  14.352
75591CL-    CL-47906  25.505  43.881  10.917
75592CL-    CL-47907  36.584  29.999  10.459
75593CL-    CL-47908  21.640  15.636  12.454
75594CL-    CL-47909  13.709  10.713   1.796
75595CL-    CL-47910   3.374   1.748   2.201
75596CL-    CL-47911  38.511  15.292   4.279
75597CL-    CL-47912  37.832   4.798   3.870
75598CL-    CL-47913   5.296  12.127  13.409
75599CL-    CL-47914  34.038  39.833  13.939
75600CL-    CL-47915   4.241  23.209   1.252
75601CL-    CL-47916  35.854  26.199   1.867
75602CL-    CL-47917  23.635  21.150   4.309
75603CL-    CL-47918  43.475  25.975   1.266
75604CL-    CL-47919  29.130  15.235   0.480
75605CL-    CL-47920  30.164  18.111  12.366
75606CL-    CL-47921  44.923  34.504   3.645
75607CL-    CL-47922  16.616  20.210   2.709
75608CL-    CL-47923  11.697  42.839  14.346
75609CL-    CL-47924   0.929   1.398   4.782
75610CL-    CL-47925  16.785  28.005   0.438
75611CL-    CL-47926   8.724  43.284  12.880
75612CL-    CL-47927  28.609  33.038  13.330
75613CL-    CL-47928  31.616   7.811  13.535
75614CL-    CL-47929  16.216  18.221   3.384
75615CL-    CL-47930  44.491  40.980   2.264
75616CL-    CL-47931   4.418   7.321   4.161
75617CL-    CL-47932  15.710  24.570   4.624
75618CL-    CL-47933  12.126  43.814  10.975
75619CL-    CL-47934  26.987  29.041  10.572
75620CL-    CL-47935  23.199  22.248  14.829
75621CL-    CL-47936   9.763  27.982   2.334
75622CL-    CL-47937  41.436   4.420   2.204
75623CL-    CL-47938  41.867  42.969   1.411
75624CL-    CL-47939   3.735  41.331  11.385
75625CL-    CL-47940  41.025   4.798   2.890
75626CL-    CL-47941   0.762  31.074   4.218
75627CL-    CL-47942  16.760  25.645  14.925
75628CL-    CL-47943  17.698   5.859  13.864
75629CL-    CL-47944  15.261  20.583   1.772
75630CL-    CL-47945  14.095  22.128  12.993
75631CL-    CL-47946   2.805  39.473   4.188
75632CL-    CL-47947  36.555   8.733   0.768
75633CL-    CL-47948  37.891   8.306   1.320
75634CL-    CL-47949  40.461  15.823  10.515
75635CL-    CL-47950  17.732  17.138   4.646
75636CL-    CL-47951   2.772  33.588   3.829
75637CL-    CL-47952  20.052   9.685  12.925
75638CL-    CL-47953  30.576  10.873   3.163
75639CL-    CL-47954  33.440  16.123  10.939
75640CL-    CL-47955   3.374   5.226  13.400
75641CL-    CL-47956  20.684  26.160  14.431
75642CL-    CL-47957  24.101   8.711   3.164
75643CL-    CL-47958  42.795  35.875   4.674
75644CL-    CL-47959  35.495  27.191   0.288
75645CL-    CL-47960  13.107  18.258   5.115
75646CL-    CL-47961  27.490  38.546   1.699
75647CL-    CL-47962  40.921  26.061   2.345
75648CL-    CL-47963  17.145  10.247   5.280
75649CL-    CL-47964   3.899  12.122  10.567
75650CL-    CL-47965  23.675  20.745   0.473
75651CL-    CL-47966  44.464   6.747  13.827
75652CL-    CL-47967  40.847   7.761  14.375
75653CL-    CL-47968  27.012  39.976   3.832
75654CL-    CL-47969  38.359  30.083   3.793
75655CL-    CL-47970  21.222  10.248   4.752
75656CL-    CL-47971  28.645  15.638  14.897
75657CL-    CL-47972  15.611  14.686   0.922
75658CL-    CL-47973   4.360  27.450   4.643
75659CL-    CL-47974   8.307  21.216   1.234
75660CL-    CL-47975  30.599  41.411   2.277
75661CL-    CL-47976   1.303  16.705  12.534
75662CL-    CL-47977  14.831  43.968  13.419
75663CL-    CL-47978  32.927  27.533   4.196
75664CL-    CL-47979  37.500  22.599  13.341
75665CL-    CL-47980  39.333   6.856   1.344
75666CL-    CL-47981  26.191   3.235   1.711
75667CL-    CL-47982  42.984   8.341   4.231
75668CL-    CL-47983  22.995  10.368   1.243
75669CL-    CL-47984  24.049   7.708   5.096
75670CL-    CL-47985   0.864  21.203   3.339
75671CL-    CL-47986  43.896   7.323   0.449
75672CL-    CL-47987  32.987  44.822  14.772
75673CL-    CL-47988   8.698  29.102   2.722
75674CL-    CL-47989  19.184  24.075   4.816
75675CL-    CL-47990   6.816  44.877   1.757
75676CL-    CL-47991   7.317   6.757   4.176
75677CL-    CL-47992  22.610  29.150   2.257
75678CL-    CL-47993  44.872  33.485  13.064
75679CL-    CL-47994  17.095   4.751   4.731
75680CL-    CL-47995  17.713  22.082   3.219
75681CL-    CL-47996  19.697  31.078  12.414
75682CL-    CL-47997  37.050  30.572   4.260
75683CL-    CL-47998  29.487  17.781  11.544
75684CL-    CL-47999  24.021  21.703  12.559
75685CL-    CL-48000  25.210  43.294   3.806
75686CL-    CL-48001  27.021  12.726   1.775
75687CL-    CL-48002  43.772  44.391  10.929
75688CL-    CL-48003   5.201  31.549   1.292
75689CL-    CL-48004  40.859  16.133   2.796
75690CL-    CL-48005  30.514  17.616   3.334
75691CL-    CL-48006   5.352  36.023   1.866
75692CL-    CL-48007   0.905  15.655   3.680
75693CL-    CL-48008  18.269   6.773   2.859
75694CL-    CL-48009  33.049   8.201  10.606
75695CL-    CL-48010   7.350  29.949   0.870
75696CL-    CL-48011   8.357  33.391   0.883
75697CL-    CL-48012  18.155  36.859   3.683
75698CL-    CL-48013  16.789  16.619  13.462
75699CL-    CL-48014  30.498   3.428   3.853
75700CL-    CL-48015  29.099   0.473   1.405
75701CL-    CL-48016  25.156  20.255   5.282
75702CL-    CL-48017  32.466  18.599   2.748
75703CL-    CL-48018   7.405  36.074  12.914
75704CL-    CL-48019  23.072  22.197  12.342
75705CL-    CL-48020  42.933   8.181   1.422
75706CL-    CL-48021  10.335  14.194   9.992
75707CL-    CL-48022   6.391  36.574  14.492
75708CL-    CL-48023  31.415   5.284  11.929
75709CL-    CL-48024  24.550  22.141  12.943
75710CL-    CL-48025  23.495  14.104   1.240
75711CL-    CL-48026  15.105  13.184   0.950
75712CL-    CL-48027  29.090  32.051  10.474
75713CL-    CL-48028   5.317  37.573  10.913
75714CL-    CL-48029  33.500  15.607  11.376
75715CL-    CL-48030  11.827  19.226  12.541
75716CL-    CL-48031  40.391   4.392  12.076
75717CL-    CL-48032  14.188  23.008   1.407
75718CL-    CL-48033  18.671   0.487   1.297
75719CL-    CL-48034  22.014  33.947  11.424
75720CL-    CL-48035  33.383  18.759  14.957
75721CL-    CL-48036  14.605  38.517  11.603
75722CL-    CL-48037  31.480  21.248   1.358
75723CL-    CL-48038  11.335  40.395   0.886
75724CL-    CL-48039  23.018  25.487   0.252
75725CL-    CL-48040  42.300  16.108   1.295
75726CL-    CL-48041   1.239  20.186   0.798
75727CL-    CL-48042  24.051  27.146  11.029
75728CL-    CL-48043  34.028  33.026   3.221
75729CL-    CL-48044  32.525  17.800   3.330
75730CL-    CL-48045  11.626  39.006  13.991
75731CL-    CL-48046   2.779  11.779  10.487
75732CL-    CL-48047  26.656  19.223  11.584
75733CL-    CL-48048   5.778   2.820   2.181
75734CL-    CL-48049  12.689   7.359  11.519
75735CL-    CL-48050  37.402  11.335   1.737
75736CL-    CL-48051   1.759  36.398  11.372
75737CL-    CL-48052  31.083  29.018   2.845
75738CL-    CL-48053  12.199   5.779  12.063
75739CL-    CL-48054  12.183  21.649   2.832
75740CL-    CL-48055  38.488  21.197   2.178
75741CL-    CL-48056  25.600  16.299  14.911
75742CL-    CL-48057  31.456   5.416  13.384
75743CL-    CL-48058  41.369  28.496   1.710
75744CL-    CL-48059  33.582  24.479   3.740
75745CL-    CL-48060  14.219   9.864  14.021
75746CL-    CL-48061  36.881  12.255  11.006
75747CL-    CL-48062  10.380  39.403   2.188
75748CL-    CL-48063  43.400  12.173  10.590
75749CL-    CL-48064  22.620   4.858  14.332
75750CL-    CL-48065  30.550  41.893   2.841
75751CL-    CL-48066  16.115   1.906   0.255
75752CL-    CL-48067  25.207  39.999  13.329
75753CL-    CL-48068   2.319  12.717   1.745
75754CL-    CL-48069  17.106  25.659   1.817
75755CL-    CL-48070  22.235  44.896  14.493
75756CL-    CL-48071  19.667  12.132   3.222
75757CL-    CL-48072  37.897  36.528   4.813
75758CL-    CL-48073  36.851   3.260   0.380
75759CL-    CL-48074  33.575  25.996   4.761
75760CL-    CL-48075  14.686  43.464   3.709
75761CL-    CL-48076  30.588  36.411   1.388
75762CL-    CL-48077  43.856  21.756   2.280
75763CL-    CL-48078   0.980  40.991  12.903
75764CL-    CL-48079  38.943  12.172   5.208
75765CL-    CL-48080   7.805  29.106   2.872
75766CL-    CL-48081  34.423   5.326   1.251
75767CL-    CL-48082   5.833  24.092  12.578
75768CL-    CL-48083  17.084   3.224   3.325
75769CL-    CL-48084   7.194  35.494   3.323
75770CL-    CL-48085  25.683  30.112  12.063
75771CL-    CL-48086  19.198   7.252  12.910
75772CL-    CL-48087  37.516  20.716  12.557
75773CL-    CL-48088  42.324  19.696  12.573
75774CL-    CL-48089  14.108  40.981   1.424
75775CL-    CL-48090  19.237  39.033  12.071
75776CL-    CL-48091  22.018  16.716  14.984
75777CL-    CL-48092  23.085   9.657  11.904
75778CL-    CL-48093  29.984   1.891   4.223
75779CL-    CL-48094  41.028  24.659   4.663
75780CL-    CL-48095  15.775  42.526   3.231
75781CL-    CL-48096  37.338  34.434   3.247
75782CL-    CL-48097  25.614  44.312   2.830
75783CL-    CL-48098   7.227  26.144  10.941
75784CL-    CL-48099  39.453   1.460   3.290
75785CL-    CL-48100   6.348  29.048   2.195
75786CL-    CL-48101  29.151  37.581   0.861
75787CL-    CL-48102   5.812  14.744  11.097
75788CL-    CL-48103  38.984  13.228   3.826
75789CL-    CL-48104  23.595  35.554   4.288
75790CL-    CL-48105  33.523  44.277   4.188
75791CL-    CL-48106  28.183  36.915   3.803
75792CL-    CL-48107  35.378  39.998   3.247
75793CL-    CL-48108   0.767  44.403  11.120
75794CL-    CL-48109  35.884  17.792  12.086
75795CL-    CL-48110  15.659  34.566   3.365
75796CL-    CL-48111  42.793  12.760  11.430
75797CL-    CL-48112  43.389  42.381  13.967
75798CL-    CL-48113  44.994   7.189   0.275
75799CL-    CL-48114  35.405  23.004   2.732
75800CL-    CL-48115  22.225  42.512   2.242
75801CL-    CL-48116  36.960  43.270   3.174
75802CL-    CL-48117   7.760  32.045   5.226
75803CL-    CL-48118   0.935   8.312  13.911
75804CL-    CL-48119  19.236  20.573   3.222
75805CL-    CL-48120  34.485  12.795  11.411
75806CL-    CL-48121  27.112  18.165  11.509
75807CL-    CL-48122  39.916  27.962  12.912
75808CL-    CL-48123  23.146  28.020  11.934
75809CL-    CL-48124  33.090  29.159   3.765
75810CL-    CL-48125  18.259  43.773  11.081
75811CL-    CL-48126  17.637  36.032   3.660
75812CL-    CL-48127   8.316  38.547  14.761
75813CL-    CL-48128  36.411  43.963   0.967
75814CL-    CL-48129   8.376  18.729   4.170
75815CL-    CL-48130  40.408  40.542  10.581
75816CL-    CL-48131  41.463  13.762   4.178
75817CL-    CL-48132  36.445  42.923  11.519
75818CL-    CL-48133  42.858  28.661   3.688
75819CL-    CL-48134  42.286  25.093  12.339
75820CL-    CL-48135  29.593  14.170  14.928
75821CL-    CL-48136  31.447  36.891  14.809
75822CL-    CL-48137  24.071  21.629   3.252
75823CL-    CL-48138  24.088  39.325  11.886
75824CL-    CL-48139   3.309  38.463  14.968
75825CL-    CL-48140  30.473  19.195   1.721
75826CL-    CL-48141  38.549  28.597   4.798
75827CL-    CL-48142  22.738  26.989  14.032
75828CL-    CL-48143   4.945  41.354   4.659
75829CL-    CL-48144   1.482  22.694   2.237
75830CL-    CL-48145  21.571  38.045   4.778
75831CL-    CL-48146  35.511  15.166  13.437
75832CL-    CL-48147  30.135  44.466   0.310
75833CL-    CL-48148  38.563  32.616   3.227
75834CL-    CL-48149  29.574  28.492   1.805
75835CL-    CL-48150  31.462   0.450  13.354
75836CL-    CL-48151  44.845  16.796   1.249
75837CL-    CL-48152  34.461  31.148   4.193
75838CL-    CL-48153  17.755   5.315  11.450
75839CL-    CL-48154  18.579  26.664  11.485
75840CL-    CL-48155  25.100   6.391  10.910
75841CL-    CL-48156  41.488   0.859  14.980
75842CL-    CL-48157  10.196  14.695   5.233
75843CL-    CL-48158  16.199  32.025  14.928
75844CL-    CL-48159  21.652  30.025   4.646
75845CL-    CL-48160   4.885  44.436   2.849
75846CL-    CL-48161  25.504  39.343   3.648
75847CL-    CL-48162  11.301  21.708  12.833
75848CL-    CL-48163   2.860  33.956   1.268
75849CL-    CL-48164  23.505  21.710   2.409
75850CL-    CL-48165  34.607  26.459   1.892
75851CL-    CL-48166  37.890  23.038   4.256
75852CL-    CL-48167   2.433   5.353  14.002
75853CL-    CL-48168  33.612  21.183   0.927
75854CL-    CL-48169  28.098  42.031  11.897
75855CL-    CL-48170  38.376  44.829   2.703
75856CL-    CL-48171   2.260   1.741  10.046
75857CL-    CL-48172  24.587  43.286   1.868
75858CL-    CL-48173  39.549  33.098  12.355
75859CL-    CL-48174  33.409  41.475   0.871
75860CL-    CL-48175  44.832  11.186  14.398
75861CL-    CL-48176  25.986  10.828  11.920
75862CL-    CL-48177  38.528  19.134   0.856
75863CL-    CL-48178  13.138  23.503  13.364
75864CL-    CL-48179  30.469   0.352   0.468
75865CL-    CL-48180   3.371  23.676  13.849
75866CL-    CL-48181   2.443  19.577   3.287
75867CL-    CL-48182  43.365  12.301  11.864
75868CL-    CL-48183  18.109  11.658   4.817
75869CL-    CL-48184  15.141  22.580  14.343
75870CL-    CL-48185  31.476  44.971  11.388
75871CL-    CL-48186  33.621  34.073   4.617
75872CL-    CL-48187  44.269   1.813  11.886
75873CL-    CL-48188   7.389  16.570   1.331
75874CL-    CL-48189  12.668   7.829  13.477
75875CL-    CL-48190  34.045  29.942  14.866
75876CL-    CL-48191  18.683  10.636   1.249
75877CL-    CL-48192  18.760   5.768  10.100
75878CL-    CL-48193  39.858   4.891  11.391
75879CL-    CL-48194  24.220  34.114  11.450
75880CL-    CL-48195  18.752  21.607  14.474
75881CL-    CL-48196  41.794  14.240  13.907
75882CL-    CL-48197  17.556  43.937  10.962
75883CL-    CL-48198  33.957   6.922  12.083
75884CL-    CL-48199  37.883  34.588   4.686
75885CL-    CL-48200  29.076  26.584   3.374
75886CL-    CL-48201  34.517  28.492  12.051
75887CL-    CL-48202  19.236  10.823  14.332
75888CL-    CL-48203  24.134  21.050   3.761
75889CL-    CL-48204  35.407  20.135   2.253
75890CL-    CL-48205  14.619  27.043  11.991
75891CL-    CL-48206  28.501   8.769  13.967
75892CL-    CL-48207   5.362  16.150  11.885
75893CL-    CL-48208  15.299  31.092   1.379
75894CL-    CL-48209  16.315  31.597   3.855
75895CL-    CL-48210  28.499  16.252  13.816
75896CL-    CL-48211   4.905  23.997  12.832
75897CL-    CL-48212  13.717  28.639   4.719
75898CL-    CL-48213  11.303  13.207   0.832
75899CL-    CL-48214  10.268  24.603  13.481
75900CL-    CL-48215  23.574  21.518   2.834
75901CL-    CL-48216  27.569  18.279   0.937
75902CL-    CL-48217  29.000   2.752  12.931
75903CL-    CL-48218  36.503  37.547   1.242
75904CL-    CL-48219  19.207  18.727   3.329
75905CL-    CL-48220  38.517  18.731  12.094
75906CL-    CL-48221  13.623   8.896   1.802
75907CL-    CL-48222   2.944  16.787  11.912
75908CL-    CL-48223  36.074  24.616   2.736
75909CL-    CL-48224  37.044  30.581   2.353
75910CL-    CL-48225   0.275   9.328   4.238
75911CL-    CL-48226  24.588   3.381   2.409
75912CL-    CL-48227  40.445  29.918   0.319
75913CL-    CL-48228  37.366  24.701  10.891
75914CL-    CL-48229  41.527  34.491   1.361
75915CL-    CL-48230  19.747  14.209   4.180
75916CL-    CL-48231  29.469  27.538  12.358
75917CL-    CL-48232   3.390  36.996  12.391
75918CL-    CL-48233   3.924  10.173   1.934
75919CL-    CL-48234  12.166  17.308  10.618
75920CL-    CL-48235  19.166   6.810  10.584
75921CL-    CL-48236  35.372   0.287  14.867
75922CL-    CL-48237  10.316  36.564  14.283
75923CL-    CL-48238  27.968  11.346   1.797
75924CL-    CL-48239  10.322  21.604  14.777
75925CL-    CL-48240  13.203  34.988  10.492
75926CL-    CL-48241  19.064  18.077   4.677
75927CL-    CL-48242  29.989  43.780  11.546
75928CL-    CL-48243  30.997   8.345  13.015
75929CL-    CL-48244  32.105  23.528   9.992
75930CL-    CL-48245  40.453  44.852   0.480
75931CL-    CL-48246   6.841  28.077  12.492
75932CL-    CL-48247  11.866   9.336   1.381
75933CL-    CL-48248  36.875  33.600  12.472
75934CL-    CL-48249  13.758  30.460   4.621
75935CL-    CL-48250   1.814  31.510   0.770
75936CL-    CL-48251  39.433  21.052  12.016
75937CL-    CL-48252  42.492  36.908   4.335
75938CL-    CL-48253  13.124  22.158  12.409
75939CL-    CL-48254  35.504  44.893   2.181
75940CL-    CL-48255  24.135  43.401  11.122
75941CL-    CL-48256  32.610  42.427  12.567
75942CL-    CL-48257   5.329  17.695  14.961
75943CL-    CL-48258  33.441  25.646  10.968
75944CL-    CL-48259  37.075  34.476  12.823
75945CL-    CL-48260  35.572  42.490   4.631
75946CL-    CL-48261  41.535   0.281  11.561
75947CL-    CL-48262  39.864  23.549  14.964
75948CL-    CL-48263   6.315  19.087  13.481
75949CL-    CL-48264   8.216  34.114   2.243
75950CL-    CL-48265   2.801   6.267   4.663
75951CL-    CL-48266  43.302  28.027   4.274
75952CL-    CL-48267  10.722  14.618   0.354
75953CL-    CL-48268  33.488   0.906  14.808
75954CL-    CL-48269   6.790   9.181   0.251
75955CL-    CL-48270  31.457   3.874   4.290
75956CL-    CL-48271  37.467   3.715   2.210
75957CL-    CL-48272  28.046   2.877   0.750
75958CL-    CL-48273  16.732   0.967  11.487
75959CL-    CL-48274  25.152  27.682   2.672
75960CL-    CL-48275  44.349  20.561   3.261
75961CL-    CL-48276  41.970   9.683   2.218
75962CL-    CL-48277  26.523  21.536   0.264
75963CL-    CL-48278  36.915  43.321   0.442
75964CL-    CL-48279   3.848  27.196   1.396
75965CL-    CL-48280   2.413  15.170   3.224
75966CL-    CL-48281  19.185  11.310   9.525
75967CL-    CL-48282  44.912  33.604   2.321
75968CL-    CL-48283  12.817  16.697  12.970
75969CL-    CL-48284  23.680  43.309  12.941
75970CL-    CL-48285   7.793  32.425   3.207
75971CL-    CL-48286  32.561   3.360  14.357
75972CL-    CL-48287   3.795  31.989   9.974
75973CL-    CL-48288  18.638  16.587   3.357
75974CL-    CL-48289   5.930  19.149  11.979
75975CL-    CL-48290  24.006  35.065  11.470
75976CL-    CL-48291  34.916   6.264   3.329
75977CL-    CL-48292  29.949   4.844  10.576
75978CL-    CL-48293  29.965   5.212  11.601
75979CL-    CL-48294  12.680  12.677   0.776
75980CL-    CL-48295  29.151  21.750   0.456
75981CL-    CL-48296   7.351  38.901   1.370
75982CL-    CL-48297  10.354   4.243  10.523
75983CL-    CL-48298  42.465  31.097  13.520
75984CL-    CL-48299  27.551  27.505  12.930
75985CL-    CL-48300  44.295  36.073   3.330
75986CL-    CL-48301  18.190  44.389   3.234
75987CL-    CL-48302   5.701  17.714   0.931
75988CL-    CL-48303   3.858  41.037   2.329
75989CL-    CL-48304  22.747  31.046  13.491
75990CL-    CL-48305   1.381  28.516  14.275
75991CL-    CL-48306  10.183  36.524  14.831
75992CL-    CL-48307  29.975  24.110   0.850
75993CL-    CL-48308   5.348  24.205  13.858
75994CL-    CL-48309  43.497  14.230   0.346
75995CL-    CL-48310   7.207  33.420   2.241
75996CL-    CL-48311  18.635  28.628   3.271
75997CL-    CL-48312  19.190  16.578  11.517
75998CL-    CL-48313  32.579  42.925   3.361
75999CL-    CL-48314   9.712  29.615   2.817
76000CL-    CL-48315  28.072  23.024   2.873
76001CL-    CL-48316  36.510  42.407  13.335
76002CL-    CL-48317  13.809  22.244   4.729
76003CL-    CL-48318  22.602  12.234  11.095
76004CL-    CL-48319  38.370  11.368  13.880
76005CL-    CL-48320  14.719   1.248  13.309
76006CL-    CL-48321  40.984   7.760  11.125
76007CL-    CL-48322  33.078  26.665  13.405
76008CL-    CL-48323  24.151  29.540  13.406
76009CL-    CL-48324  23.538  33.032   2.671
76010CL-    CL-48325  38.458  25.665   2.247
76011CL-    CL-48326  13.108  35.511  10.501
76012CL-    CL-48327  10.653  33.565   2.409
76013CL-    CL-48328  21.175   8.829   3.773
76014CL-    CL-48329  14.179  21.083   1.745
76015CL-    CL-48330   5.435  44.935   1.335
76016CL-    CL-48331  12.346  26.131   0.944
76017CL-    CL-48332  22.072  10.792  12.885
76018CL-    CL-48333  38.522   2.410   4.167
76019CL-    CL-48334  38.421  13.679  12.926
76020CL-    CL-48335  24.552  43.785   1.928
76021CL-    CL-48336  29.150  40.892   0.878
76022CL-    CL-48337  15.115   7.715  12.409
76023CL-    CL-48338   8.668  26.032  12.029
76024CL-    CL-48339  23.131  17.719  14.497
76025CL-    CL-48340  16.590  35.436   4.697
76026CL-    CL-48341  23.194  17.292  12.987
76027CL-    CL-48342  30.501  10.347   0.944
76028CL-    CL-48343  39.327  44.330  12.909
76029CL-    CL-48344  27.513  44.806   2.277
76030CL-    CL-48345  34.383   2.913  14.497
76031CL-    CL-48346  14.677  20.247   3.268
76032CL-    CL-48347  31.611  34.084  10.552
76033CL-    CL-48348   9.222  16.229   4.354
76034CL-    CL-48349   2.746   6.817   3.833
76035CL-    CL-48350  32.602  17.189   3.830
76036CL-    CL-48351  15.095  33.510   3.248
76037CL-    CL-48352  40.423  32.991   1.859
76038CL-    CL-48353  21.096  24.114  14.319
76039CL-    CL-48354  38.994  35.580   3.737
76040CL-    CL-48355  39.359   3.337   0.273
76041CL-    CL-48356  39.365  31.088  10.636
76042CL-    CL-48357  32.403  23.016   1.238
76043CL-    CL-48358  17.734  18.067   1.893
76044CL-    CL-48359  24.198  37.560   2.887
76045CL-    CL-48360  21.081  40.902  11.473
76046CL-    CL-48361  32.952  26.169  14.413
76047CL-    CL-48362  13.818   9.650   3.725
76048CL-    CL-48363  40.475  23.732  14.506
76049CL-    CL-48364  12.753  13.800  12.419
76050CL-    CL-48365  20.213  39.884   2.181
76051CL-    CL-48366  27.462  36.039  10.507
76052CL-    CL-48367  23.673  34.438  12.370
76053CL-    CL-48368  35.598  21.039   0.350
76054CL-    CL-48369  18.067  32.048  10.569
76055CL-    CL-48370   7.769  18.547   2.765
76056CL-    CL-48371  22.086  22.176  12.867
76057CL-    CL-48372  22.528  12.726  11.492
76058CL-    CL-48373  17.128  31.509   1.731
76059CL-    CL-48374  34.932   2.391   0.386
76060CL-    CL-48375  16.264  29.076  11.479
76061CL-    CL-48376  43.846  15.662  12.930
76062CL-    CL-48377  37.060  33.092  14.798
76063CL-    CL-48378  41.347  40.358   5.307
76064CL-    CL-48379  41.318  35.483   2.733
76065CL-    CL-48380  35.427   7.321   1.873
76066CL-    CL-48381  41.984  21.161  13.053
76067CL-    CL-48382  36.419  30.604   2.661
76068CL-    CL-48383  37.941  15.784  13.522
76069CL-    CL-48384  41.484  35.899   0.909
76070CL-    CL-48385   1.788  41.999   2.361
76071CL-    CL-48386  40.451  36.452   2.258
76072CL-    CL-48387  32.904  24.689   3.819
76073CL-    CL-48388  31.528  11.256   3.197
76074CL-    CL-48389  29.635  23.644   3.844
76075CL-    CL-48390  40.023  40.851   4.694
76076CL-    CL-48391  27.673   0.882  14.984
76077CL-    CL-48392  20.578  12.661   0.336
76078CL-    CL-48393   5.334  31.553   4.617
76079CL-    CL-48394  42.882   9.660   2.272
76080CL-    CL-48395  27.183  31.486  14.388
76081CL-    CL-48396   9.192   1.432  10.903
76082CL-    CL-48397  24.574  44.328   2.847
76083CL-    CL-48398   5.690  35.450   1.721
76084CL-    CL-48399   7.807  22.503  10.930
76085CL-    CL-48400   9.284  31.956   1.346
76086CL-    CL-48401  31.916   1.794  11.891
76087CL-    CL-48402  15.294  44.390  12.052
76088CL-    CL-48403   6.259  33.971  11.419
76089CL-    CL-48404  28.619  29.072  14.354
76090CL-    CL-48405  24.598  41.378   2.782
76091CL-    CL-48406  31.485  16.120   3.830
76092CL-    CL-48407  18.781   9.691  10.472
76093CL-    CL-48408   4.802  24.186   3.315
76094CL-    CL-48409  37.988  35.561   2.239
76095CL-    CL-48410  10.226  12.287  11.939
76096CL-    CL-48411  26.575   5.757   3.181
76097CL-    CL-48412  23.005   3.300   2.188
76098CL-    CL-48413  24.643  11.247  10.495
76099CL-    CL-48414  36.848  23.503  11.086
76100CL-    CL-48415  43.899  35.445   2.739
76101CL-    CL-48416  30.075  14.236   3.676
76102CL-    CL-48417   1.335   7.360   2.315
76103CL-    CL-48418  43.866  25.619   3.346
76104CL-    CL-48419  23.989   8.255  14.464
76105CL-    CL-48420   1.477  12.618   2.294
76106CL-    CL-48421  39.882  32.048  12.947
76107CL-    CL-48422   5.907  35.055   4.201
76108CL-    CL-48423   2.879  26.549   4.132
76109CL-    CL-48424  15.605  38.431   2.384
76110CL-    CL-48425  21.091  26.676   1.446
76111CL-    CL-48426  14.830   6.198   4.188
76112CL-    CL-48427  36.038  26.987   3.364
76113CL-    CL-48428  22.045  28.096  10.491
76114CL-    CL-48429   3.278  29.492   3.232
76115CL-    CL-48430   7.772  16.700   9.925
76116CL-    CL-48431   1.314  16.646  12.920
76117CL-    CL-48432  29.486  20.034  14.874
76118CL-    CL-48433  23.710   0.791   4.253
76119CL-    CL-48434   0.457  20.724  12.855
76120CL-    CL-48435  42.361  19.127   0.448
76121CL-    CL-48436  29.108  38.446  14.875
76122CL-    CL-48437  36.397   6.750  14.843
76123CL-    CL-48438   9.765   0.470   0.438
76124CL-    CL-48439  42.892  29.582   3.239
76125CL-    CL-48440  44.949   0.836   2.744
76126CL-    CL-48441   6.756   8.172  10.440
76127CL-    CL-48442  27.456  44.334   3.636
76128CL-    CL-48443  25.107  33.110   3.837
76129CL-    CL-48444  26.608  38.491  11.889
76130CL-    CL-48445  20.032   3.356   1.875
76131CL-    CL-48446  20.228   2.317   4.302
76132CL-    CL-48447  10.213  24.042  14.794
76133CL-    CL-48448  11.829  22.021  10.604
76134CL-    CL-48449   4.282  28.435  12.998
76135CL-    CL-48450   9.784  25.979  10.479
76136CL-    CL-48451  20.080   1.292  10.463
76137CL-    CL-48452  25.654  30.629  11.605
76138CL-    CL-48453  15.804  28.959   0.841
76139CL-    CL-48454   0.394  36.418   1.394
76140CL-    CL-48455  28.004  15.263  10.035
76141CL-    CL-48456  37.412  10.700   1.249
76142CL-    CL-48457  36.489  20.114  14.776
76143CL-    CL-48458  30.448  29.147  10.996
76144CL-    CL-48459  25.500  29.949  10.612
76145CL-    CL-48460  29.554   6.744   2.847
76146CL-    CL-48461  41.866  38.409  12.040
76147CL-    CL-48462  30.575   6.864  12.978
76148CL-    CL-48463   2.342  10.752  11.543
76149CL-    CL-48464  15.579  26.039   3.817
76150CL-    CL-48465  18.123   3.433   5.166
76151CL-    CL-48466  23.005  19.563  14.402
76152CL-    CL-48467   0.928  41.976  14.872
76153CL-    CL-48468  26.464   0.488   4.704
76154CL-    CL-48469  18.691   1.323  11.970
76155CL-    CL-48470   2.948  44.488   1.284
76156CL-    CL-48471  33.610  10.741  11.537
76157CL-    CL-48472   1.319  42.391   4.783
76158CL-    CL-48473  27.473  24.600  12.387
76159CL-    CL-48474   0.945  42.326   2.896
76160CL-    CL-48475  28.467  22.521   2.737
76161CL-    CL-48476   8.681   0.966  14.496
76162CL-    CL-48477  28.472   1.783   0.914
76163CL-    CL-48478  44.008  18.077  11.950
76164CL-    CL-48479  10.296  30.466  12.933
76165CL-    CL-48480  37.413  43.498   2.673
76166CL-    CL-48481  29.126   0.893   0.859
76167CL-    CL-48482  27.543  12.706  12.020
76168CL-    CL-48483   7.707  13.766   4.821
76169CL-    CL-48484   7.755  41.932   4.315
76170CL-    CL-48485   6.919  38.833   1.421
76171CL-    CL-48486  39.396  29.488  12.398
76172CL-    CL-48487   5.427  23.530   5.283
76173CL-    CL-48488  15.116  15.209  11.894
76174CL-    CL-48489  14.760  16.283   1.444
76175CL-    CL-48490   9.827  23.682   1.793
76176CL-    CL-48491  35.062  35.078   4.605
76177CL-    CL-48492  34.534  26.149   0.768
76178CL-    CL-48493   0.953   8.765  14.417
76179CL-    CL-48494  17.556  29.444  12.859
76180CL-    CL-48495   2.900  12.814   1.276
76181CL-    CL-48496  40.491  34.575  14.764
76182CL-    CL-48497   9.241  32.593   2.326
76183CL-    CL-48498  43.384   9.718  14.409
76184CL-    CL-48499  14.808  25.998   1.420
76185CL-    CL-48500  10.214  12.797  14.974
76186CL-    CL-48501   5.248  32.495   2.892
76187CL-    CL-48502  22.717  36.984  13.349
76188CL-    CL-48503  15.147  41.916  12.434
76189CL-    CL-48504   9.310  25.010   0.832
76190CL-    CL-48505   9.690  32.048  11.018
76191CL-    CL-48506  19.548  38.829  14.819
76192CL-    CL-48507   5.417  24.702   1.343
76193CL-    CL-48508  44.407  29.925  11.598
76194CL-    CL-48509   3.296  15.110   0.462
76195CL-    CL-48510   3.903   4.323   4.135
76196CL-    CL-48511  39.898   6.756  11.902
76197CL-    CL-48512   7.182   9.786  13.006
76198CL-    CL-48513  10.280  36.565   5.181
76199CL-    CL-48514  28.616  35.936   3.639
76200CL-    CL-48515  30.074   0.390   1.351
76201CL-    CL-48516  10.259   4.431   0.393
76202CL-    CL-48517  28.120  15.766   3.220
76203CL-    CL-48518  30.923   8.201   2.711
76204CL-    CL-48519  37.985  27.582   4.803
76205CL-    CL-48520  35.897  22.243  11.042
76206CL-    CL-48521  15.146  37.040   3.273
76207CL-    CL-48522  22.511  40.476  12.878
76208CL-    CL-48523  20.641  16.789  14.767
76209CL-    CL-48524  34.491  40.545   2.805
76210CL-    CL-48525  19.557  42.377   1.704
76211CL-    CL-48526  33.604  22.181   0.440
76212CL-    CL-48527  16.298  24.977  11.885
76213CL-    CL-48528   2.898   4.703   4.148
76214CL-    CL-48529   1.247  38.969  10.471
76215CL-    CL-48530  39.855   7.247  10.918
76216CL-    CL-48531  24.616  22.586  12.479
76217CL-    CL-48532  24.667   8.376  14.917
76218CL-    CL-48533   8.703   7.805  14.977
76219CL-    CL-48534   9.222   8.222  14.479
76220CL-    CL-48535  31.036  27.974   2.349
76221CL-    CL-48536   5.700  35.369  12.450
76222CL-    CL-48537  42.780  25.485   1.246
76223CL-    CL-48538  42.997  27.196  14.942
76224CL-    CL-48539   2.416  28.464  12.039
76225CL-    CL-48540  42.963  29.064   3.807
76226CL-    CL-48541  17.559  44.367  12.012
76227CL-    CL-48542  32.497  16.776  10.557
76228CL-    CL-48543   6.409  22.523  13.310
76229CL-    CL-48544  12.129  25.518   4.692
76230CL-    CL-48545  34.011   4.336  13.810
76231CL-    CL-48546  13.233  39.479  12.956
76232CL-    CL-48547  11.285  24.027   2.342
76233CL-    CL-48548   6.755   5.439  12.899
76234CL-    CL-48549  22.685  16.648   1.224
76235CL-    CL-48550  10.632  12.319   4.780
76236CL-    CL-48551   4.226  36.373  10.550
76237CL-    CL-48552  13.276  44.821  12.489
76238CL-    CL-48553  11.850  15.593  13.799
76239CL-    CL-48554  20.274   0.900  13.020
76240CL-    CL-48555  13.661  29.057  14.889
76241CL-    CL-48556  36.076   3.408   1.262
76242CL-    CL-48557  32.512  42.821   3.675
76243CL-    CL-48558   7.876  40.392   4.323
76244CL-    CL-48559  44.479   9.179  13.867
76245CL-    CL-48560  11.186  42.330  13.963
76246CL-    CL-48561  32.494   1.359  11.479
76247CL-    CL-48562  22.729  37.460   4.339
76248CL-    CL-48563  28.059  21.176   1.349
76249CL-    CL-48564  37.036  36.960   1.781
76250CL-    CL-48565  29.659   3.243   4.269
76251CL-    CL-48566  22.192  36.848   3.723
76252CL-    CL-48567  24.703  28.084  10.645
76253CL-    CL-48568  24.649  34.497   2.277
76254CL-    CL-48569  37.880  39.931  12.953
76255CL-    CL-48570  42.786  32.128  12.906
76256CL-    CL-48571  22.640   6.787   1.297
76257CL-    CL-48572  11.297  29.642   4.728
76258CL-    CL-48573  17.556  17.651  14.936
76259CL-    CL-48574  18.286  32.937   2.371
76260CL-    CL-48575  38.843  43.468  12.829
76261CL-    CL-48576   2.950  42.840   3.733
76262CL-    CL-48577  37.903  25.664  13.019
76263CL-    CL-48578   7.212   4.728  12.905
76264CL-    CL-48579   3.333  38.380  13.889
76265CL-    CL-48580  29.505  23.168  13.475
76266CL-    CL-48581  14.207  26.166  10.563
76267CL-    CL-48582   8.225  36.955   4.785
76268CL-    CL-48583  16.664  22.649  14.308
76269CL-    CL-48584  40.821   4.701  12.492
76270CL-    CL-48585  20.143  36.924   3.863
76271CL-    CL-48586  30.627  41.841   1.803
76272CL-    CL-48587  15.086  18.219   0.447
76273CL-    CL-48588  21.606  34.073  13.887
76274CL-    CL-48589  41.805  23.541   1.926
76275CL-    CL-48590  39.447  12.178   2.700
76276CL-    CL-48591  38.472   5.807   4.351
76277CL-    CL-48592  27.485   1.861   3.152
76278CL-    CL-48593   7.686  24.687   2.785
76279CL-    CL-48594  41.974  29.653   3.299
76280CL-    CL-48595  41.885  33.057   3.257
76281CL-    CL-48596  32.479  19.128   1.440
76282CL-    CL-48597  20.256  20.249   3.225
76283CL-    CL-48598  13.786  18.085  10.903
76284CL-    CL-48599   6.796  35.368  13.449
76285CL-    CL-48600  27.557  13.837  11.556
76286CL-    CL-48601  43.904  19.188  11.037
76287CL-    CL-48602  27.540  14.810  12.042
76288CL-    CL-48603   8.836  26.662  12.347
76289CL-    CL-48604  15.151   3.713   2.884
76290CL-    CL-48605  10.701  41.501  10.448
76291CL-    CL-48606  21.526  24.575   3.799
76292CL-    CL-48607  40.874  18.269   4.194
76293CL-    CL-48608  11.336  16.792  11.860
76294CL-    CL-48609  38.374  24.033  13.855
76295CL-    CL-48610  33.615   3.247  11.014
76296CL-    CL-48611  38.957  27.976   1.312
76297CL-    CL-48612   1.789   4.401   4.179
76298CL-    CL-48613  36.875  35.478  12.935
76299CL-    CL-48614  44.869  32.513   1.436
76300CL-    CL-48615   3.895   0.463   2.687
76301CL-    CL-48616  35.900  19.175   1.715
76302CL-    CL-48617  39.421  42.942   3.246
76303CL-    CL-48618  42.819   5.265  12.085
76304CL-    CL-48619   5.754  17.224   1.354
76305CL-    CL-48620  17.294   1.972   2.876
76306CL-    CL-48621  14.121  12.717  11.422
76307CL-    CL-48622  21.170  23.707   0.332
76308CL-    CL-48623   3.830  40.402   1.230
76309CL-    CL-48624  24.128  25.619   0.798
76310CL-    CL-48625   3.855  20.588  14.921
76311CL-    CL-48626  30.014  15.126   3.244
76312CL-    CL-48627  22.575  11.749   9.948
76313CL-    CL-48628  24.998   3.883   3.336
76314CL-    CL-48629  12.628  32.901   3.170
76315CL-    CL-48630  17.778  35.950  13.011
76316CL-    CL-48631  11.833  37.375   2.183
76317CL-    CL-48632  22.718  21.549  10.926
76318CL-    CL-48633  30.100  28.158   0.759
76319CL-    CL-48634  17.729   6.798  11.052
76320CL-    CL-48635   0.763  29.454  13.823
76321CL-    CL-48636  21.583  16.780  14.904
76322CL-    CL-48637  39.863  41.883   4.179
76323CL-    CL-48638  31.051  21.176   2.763
76324CL-    CL-48639  39.812  39.475  12.369
76325CL-    CL-48640  18.705  36.544  12.478
76326CL-    CL-48641   9.360  21.607  10.636
76327CL-    CL-48642  36.936   0.743   0.911
76328CL-    CL-48643  12.824  22.725   1.321
76329CL-    CL-48644  29.553   2.906  10.566
76330CL-    CL-48645  26.961  42.831  14.872
76331CL-    CL-48646   9.886  40.847   4.232
76332CL-    CL-48647  25.211   7.373   1.780
76333CL-    CL-48648  34.549  28.543   4.166
76334CL-    CL-48649  43.825  24.064   3.344
76335CL-    CL-48650  24.528  40.546   4.835
76336CL-    CL-48651  18.155  11.655   1.772
76337CL-    CL-48652  30.499  40.428   4.297
76338CL-    CL-48653  40.953  42.426   4.765
76339CL-    CL-48654   9.367  13.345   2.291
76340CL-    CL-48655  12.790  31.586  14.356
76341CL-    CL-48656  30.162  32.914   1.449
76342CL-    CL-48657  10.868  18.249  11.595
76343CL-    CL-48658  29.641  23.531  13.373
76344CL-    CL-48659  15.637  17.231   3.281
76345CL-    CL-48660  11.833  26.616   2.902
76346CL-    CL-48661  43.020  27.621  11.862
76347CL-    CL-48662  32.945  17.247   2.768
76348CL-    CL-48663   6.369  25.609   0.332
76349CL-    CL-48664   2.428  38.873  11.981
76350CL-    CL-48665   8.247   5.374   1.749
76351CL-    CL-48666  24.976  24.517   2.386
76352CL-    CL-48667  43.487  33.508   4.822
76353CL-    CL-48668  42.981  11.187   4.777
76354CL-    CL-48669  13.256  36.489   2.744
76355CL-    CL-48670  41.865  19.262   0.886
76356CL-    CL-48671  32.528   0.488   2.701
76357CL-    CL-48672  36.888  41.964   2.375
76358CL-    CL-48673  38.895  16.272  13.853
76359CL-    CL-48674  28.177   4.912   3.739
76360CL-    CL-48675  24.109  44.956   1.757
76361CL-    CL-48676   2.338  17.209  14.410
76362CL-    CL-48677  22.552  22.247   3.344
76363CL-    CL-48678   6.677  25.634   3.317
76364CL-    CL-48679  13.273  36.082   2.367
76365CL-    CL-48680  42.494  21.556   2.886
76366CL-    CL-48681  27.039  44.774   0.852
76367CL-    CL-48682  21.167  18.182   0.391
76368CL-    CL-48683  14.190  39.971   0.789
76369CL-    CL-48684  18.196  12.207  14.329
76370CL-    CL-48685  35.025  31.503   1.750
76371CL-    CL-48686   5.889  14.209   1.770
76372CL-    CL-48687   4.781  39.824   0.967
76373CL-    CL-48688   3.338  27.051  13.798
76374CL-    CL-48689   8.294  32.919   0.852
76375CL-    CL-48690  26.122  30.000   0.856
76376CL-    CL-48691  37.993  17.205  12.096
76377CL-    CL-48692  28.549  38.521  13.437
76378CL-    CL-48693   3.940  20.031   3.312
76379CL-    CL-48694  21.143   4.351   0.349
76380CL-    CL-48695  36.588  30.428   9.986
76381CL-    CL-48696   8.292   9.345  11.894
76382CL-    CL-48697  19.204  12.155   0.816
76383CL-    CL-48698  26.597  32.956  13.501
76384CL-    CL-48699  22.214  32.012  12.901
76385CL-    CL-48700   5.914  30.039   2.754
76386CL-    CL-48701  27.156  35.379   0.436
76387CL-    CL-48702  43.795  21.107   2.895
76388CL-    CL-48703  40.027  41.953  13.536
76389CL-    CL-48704  33.614   9.340   3.370
76390CL-    CL-48705  38.333   2.902   1.734
76391CL-    CL-48706  40.339   9.816  12.017
76392CL-    CL-48707  43.937  21.688  14.824
76393CL-    CL-48708  35.918  26.020  14.976
76394CL-    CL-48709  43.816  11.336  14.816
76395CL-    CL-48710  20.660  38.328  13.998
76396CL-    CL-48711  15.611  32.083  12.422
76397CL-    CL-48712  12.220  12.791  13.018
76398CL-    CL-48713   6.379  28.558  14.412
76399CL-    CL-48714  20.739  13.750  12.832
76400CL-    CL-48715  13.129  23.071   2.238
76401CL-    CL-48716  14.135  13.348   0.806
76402CL-    CL-48717  35.402  19.075  11.986
76403CL-    CL-48718   7.700  39.974  10.603
76404CL-    CL-48719   9.291  12.306   2.223
  45.00000  45.00000  15.00000   0.00000   0.00000   0.00000   0.00000   0.00000   0.00000

